FOO
138240
    1MOL0     O    1  11.019   3.558   5.508  0.2155  0.2706  0.2433
    1MOL0     C    2  11.098   3.491   5.441 -0.1372 -0.4269  0.7465
    1MOL0     O    3  11.085   3.354   5.391  0.1505 -0.6725 -0.1755
    1MOL0     C    4  10.967   3.286   5.422 -0.2379 -1.0176 -0.9641
    1MOL0     C    5  10.895   3.211   5.325  0.0835 -0.5220 -0.8885
    1MOL0     C    6  10.775   3.145   5.356 -0.6788  0.4296  0.8720
    1MOL0     C    7  10.718   3.150   5.485 -0.1323  0.1000 -0.7066
    1MOL0     O    8  10.610   3.073   5.512 -0.2198  0.9306 -0.1047
    1MOL0     C    9  10.496   3.097   5.428  0.3365  0.0169 -0.2360
    1MOL0     C   10  10.367   3.128   5.499 -0.0771 -0.4326 -0.6426
    1MOL0     C   11  10.244   3.109   5.406  0.5741  0.1180  0.3105
    1MOL0     C   12  10.115   3.130   5.495 -0.1633  1.1461 -0.0086
    1MOL0     C   13   9.986   3.088   5.428 -0.2717  0.3728  0.2092
    1MOL0     C   14   9.963   3.154   5.288  0.6202  0.8102 -0.5356
    1MOL0     C   15   9.973   3.302   5.280 -0.1312  0.2249 -0.4041
    1MOL0     C   16   9.938   3.346   5.146  0.1741 -0.2309  0.3596
    1MOL0     N   17  10.022   3.462   5.098 -0.0230 -0.5074  0.0260
    1MOL0     C   18   9.987   3.586   5.137  0.4858  0.3468  0.0408
    1MOL0     C   19  10.064   3.659   5.060  0.4262  0.2528  0.6803
    1MOL0     C   20  10.053   3.806   5.068  0.0214 -0.6255 -0.2627
    1MOL0     C   21  10.176   3.886   5.025  0.4874  0.2550  0.0571
    1MOL0     C   22  10.284   3.840   5.119  0.8061 -0.4215  0.3971
    1MOL0     C   23  10.415   3.917   5.099  0.6465 -0.5360 -0.4370
    1MOL0     O   24  10.400   4.059   5.114  0.3936  0.0497 -0.6803
    1MOL0     C   25  10.488   4.144   5.071  0.2584  0.3333  0.3745
    1MOL0     C   26  10.621   4.125   5.044  0.0357  0.3247  0.5204
    1MOL0     C   27  10.694   4.230   4.974  0.3773  0.0768  0.0083
    1MOL0     C   28  10.825   4.174   4.928 -0.0510  0.0437  0.8975
    1MOL0     C   29  10.641   4.357   4.948 -0.0470 -0.0231 -0.1646
    1MOL0     C   30  10.713   4.476   4.897 -0.6376  0.5976  0.7136
    1MOL0     O   31  10.646   4.592   4.921  0.2472  0.2529 -0.5053
    1MOL0     C   32  10.687   4.728   4.891 -0.0091 -0.3299  0.4265
    1MOL0     C   33  10.590   4.825   4.880 -0.7627  0.2041 -0.6490
    1MOL0     C   34  10.625   4.957   4.850 -0.1510  0.7202 -0.2700
    1MOL0     C   35  10.759   4.988   4.849 -0.3743  0.1116 -0.5713
    1MOL0     O   36  10.804   5.120   4.839 -0.3591 -0.1514 -0.3769
    1MOL0     C   37  10.718   5.232   4.877  0.0838  0.9361 -0.1654
    1MOL0     C   38  10.759   5.367   4.810 -0.0405  0.3601  0.0976
    1MOL0     C   39  10.860   5.349   4.692  0.7681 -0.8176 -0.4438
    1MOL0     C   40  10.910   5.480   4.640  0.9860  0.6313 -0.0871
    1MOL0     C   41  10.992   5.462   4.504  0.1359  0.0130 -0.6775
    1MOL0     C   42  10.896   5.450   4.385  0.3899  0.2721 -0.0854
    1MOL0     C   43  10.842   5.593   4.351 -0.3721 -0.4346  0.4238
    1MOL0     C   44  10.784   5.595   4.208  0.9903  0.0844 -0.1943
    1MOL0    Cl   45  10.912   5.612   4.085 -0.5061  0.4749  0.2298
    1MOL0     C   46  10.860   4.891   4.864  0.0708  0.4051  1.0713
    1MOL0     C   47  10.821   4.761   4.881  0.2791 -0.1038  0.4860
    1MOL0     O   48  10.824   4.463   4.843 -0.0174  0.5804 -1.0623
    1MOL0     C   49  10.509   4.374   4.990 -0.0573 -0.1357 -1.3918
    1MOL0     C   50  10.435   4.272   5.050  0.1210 -0.2209  0.3319
    1MOL0     N   51  10.136   3.584   4.963  0.0909 -0.0963 -0.0549
    1MOL0     N   52  10.105   3.459   4.984 -0.0692 -0.2145  0.0196
    1MOL0     C   53  10.787   3.224   5.583 -0.3644  0.6925  0.2582
    1MOL0     C   54  10.904   3.287   5.552 -0.9334 -0.0956 -0.9920
    1MOL0     C   55  11.240   3.549   5.434  0.1170  1.2954  0.1349
    1MOL0     C   56  11.269   3.681   5.462  0.3165 -0.2137  0.5936
    1MOL0     C   57  11.398   3.740   5.450 -0.5110 -0.2964  0.2957
    1MOL0     C   58  11.505   3.662   5.399  0.4256 -0.4838  0.4954
    1MOL0     O   59  11.625   3.707   5.371  0.5527  0.1551 -0.4728
    1MOL0     C   60  11.648   3.853   5.382 -0.0693  0.2908  0.7426
    1MOL0     C   61  11.697   3.891   5.522  0.8135 -0.1283  0.2237
    1MOL0     C   62  11.819   3.812   5.573 -0.1341 -0.4554 -0.5097
    1MOL0     C   63  11.898   3.898   5.669  0.0879 -0.1192  0.1742
    1MOL0     C   64  12.016   3.827   5.708  0.4335 -1.1226  0.8305
    1MOL0     C   65  12.105   3.758   5.747 -0.2140  0.5331  0.4894
    1MOL0     C   66  11.474   3.531   5.365  0.4651  0.1399 -0.0011
    1MOL0     C   67  11.345   3.475   5.376  0.5697  0.1465 -0.1730
    1MOL0     H   68  10.933   3.203   5.224 -0.8820 -0.9548 -1.2258
    1MOL0     H   69  10.728   3.079   5.284  2.8531 -0.7384 -0.5685
    1MOL0     H   70  10.505   3.171   5.348 -2.0464  0.8232  0.1589
    1MOL0     H   71  10.463   3.006   5.377 -3.7121  0.5408  1.0790
    1MOL0     H   72  10.356   3.055   5.580 -1.9671  0.0227 -0.4350
    1MOL0     H   73  10.374   3.224   5.551  3.6405 -0.4999 -0.7295
    1MOL0     H   74  10.253   3.179   5.322  1.5761  0.7441  0.9240
    1MOL0     H   75  10.228   3.006   5.373 -0.4217  0.7138 -1.2000
    1MOL0     H   76  10.130   3.068   5.584 -1.6485  0.1011 -0.4429
    1MOL0     H   77  10.101   3.228   5.543  1.4425  0.9220  0.9760
    1MOL0     H   78   9.999   2.981   5.415 -1.6900  0.4159 -2.0693
    1MOL0     H   79   9.902   3.105   5.497 -0.4255  0.6456 -0.0395
    1MOL0     H   80  10.050   3.116   5.235  2.4276  2.1465  1.2887
    1MOL0     H   81   9.869   3.128   5.239  1.6532 -2.2147 -1.1442
    1MOL0     H   82   9.918   3.349   5.362 -0.8598 -2.1976  0.5785
    1MOL0     H   83  10.080   3.325   5.290 -0.0912 -0.1147 -0.0224
    1MOL0     H   84   9.829   3.360   5.140  0.0865 -0.3937  1.4430
    1MOL0     H   85   9.937   3.262   5.075 -4.8378  0.6451 -1.0317
    1MOL0     H   86   9.915   3.608   5.216  0.7084 -0.6449  0.5457
    1MOL0     H   87   9.963   3.847   5.023 -0.4376 -0.2985  0.9108
    1MOL0     H   88  10.041   3.829   5.175 -0.7319  2.6561 -0.9559
    1MOL0     H   89  10.163   3.994   5.033 -0.1349  0.3911 -2.0175
    1MOL0     H   90  10.193   3.873   4.917 -0.2461  2.6384 -0.3977
    1MOL0     H   91  10.293   3.734   5.097  0.4197 -0.4685  0.4673
    1MOL0     H   92  10.247   3.864   5.219  2.1375  4.6673 -0.0383
    1MOL0     H   93  10.451   3.903   4.997  2.6154  3.7293 -0.5537
    1MOL0     H   94  10.487   3.866   5.164 -0.9132 -0.3135  1.5899
    1MOL0     H   95  10.668   4.029   5.062 -0.0805  0.2240  0.2936
    1MOL0     H   96  10.807   4.083   4.870  0.2622  1.0160 -0.7797
    1MOL0     H   97  10.878   4.236   4.856 -0.1162  0.1949  0.9802
    1MOL0     H   98  10.879   4.163   5.023  0.6340 -1.1958  0.3949
    1MOL0     H   99  10.485   4.795   4.878 -0.3903 -1.5321  1.8013
    1MOL0     H  100  10.544   5.027   4.832 -2.1373 -1.6100 -0.9154
    1MOL0     H  101  10.618   5.222   4.833  1.4008 -1.7169 -2.9483
    1MOL0     H  102  10.700   5.240   4.984 -0.2074 -1.6945  0.0684
    1MOL0     H  103  10.670   5.418   4.772  0.9638  1.2695 -1.0957
    1MOL0     H  104  10.806   5.428   4.887  0.0065 -2.1493  2.2150
    1MOL0     H  105  10.813   5.294   4.610 -1.3733 -0.1439  0.2699
    1MOL0     H  106  10.940   5.286   4.732  2.7686  2.0179  0.3096
    1MOL0     H  107  10.832   5.554   4.622  1.1930  0.2319 -3.0637
    1MOL0     H  108  10.965   5.517   4.727  0.2712  2.4241 -0.3474
    1MOL0     H  109  11.058   5.375   4.517 -0.6980 -0.6335 -0.7323
    1MOL0     H  110  11.062   5.546   4.496  0.8954 -0.6288 -1.0008
    1MOL0     H  111  10.941   5.402   4.298 -0.5479 -3.6113  1.3797
    1MOL0     H  112  10.817   5.379   4.408  2.1278 -3.3834 -4.0161
    1MOL0     H  113  10.924   5.666   4.357  0.0195 -0.7807 -0.5595
    1MOL0     H  114  10.769   5.624   4.427  1.1291  2.1040  0.9719
    1MOL0     H  115  10.705   5.670   4.207  1.4199  0.9326  4.9436
    1MOL0     H  116  10.732   5.501   4.184 -0.6284  0.2851  2.1761
    1MOL0     H  117  10.966   4.912   4.853 -0.0924  0.8127  0.1995
    1MOL0     H  118  10.890   4.683   4.909 -0.9818 -1.5658 -0.2895
    1MOL0     H  119  10.463   4.471   4.975  0.3969  0.0552 -1.5583
    1MOL0     H  120  10.330   4.287   5.073 -0.1596 -0.1191 -0.9322
    1MOL0     H  121  10.753   3.211   5.685  0.3383  1.9398  0.6775
    1MOL0     H  122  10.962   3.335   5.631  2.9798 -0.6793 -3.2626
    1MOL0     H  123  11.192   3.751   5.490 -1.0025 -0.1292 -2.8154
    1MOL0     H  124  11.411   3.841   5.487  0.3272 -0.6511  1.0077
    1MOL0     H  125  11.722   3.881   5.307 -0.2066 -0.4053  0.3352
    1MOL0     H  126  11.564   3.917   5.356  1.0706  1.8125  0.6612
    1MOL0     H  127  11.615   3.885   5.594  0.8799  2.8336  0.7074
    1MOL0     H  128  11.719   3.997   5.505  0.9166 -0.4634 -1.8853
    1MOL0     H  129  11.886   3.790   5.489 -0.9612  1.1211 -1.6616
    1MOL0     H  130  11.793   3.720   5.626  0.7619 -0.5652 -0.2474
    1MOL0     H  131  11.837   3.929   5.754 -0.0097  2.2599 -0.6808
    1MOL0     H  132  11.937   3.988   5.619 -0.1711  1.0544  1.9976
    1MOL0     H  133  12.189   3.703   5.784 -0.3185 -0.4899 -0.7399
    1MOL0     H  134  11.551   3.476   5.312 -2.6351 -0.0045 -5.0019
    1MOL0     H  135  11.327   3.369   5.359 -2.0055  0.4757  0.1420
    2MOL0     O  136   0.316   5.059   6.269  0.4914 -0.3948 -0.0624
    2MOL0     C  137   0.317   4.939   6.236 -0.0539  0.1753 -0.2137
    2MOL0     O  138   0.243   4.838   6.300  0.2012 -0.8191 -0.4996
    2MOL0     C  139   0.135   4.866   6.379  1.1444  0.7583 -0.2123
    2MOL0     C  140   0.146   4.943   6.494  0.2681 -0.3332 -0.2943
    2MOL0     C  141   0.037   4.955   6.579  0.3692  0.6646 -0.7836
    2MOL0     C  142  -0.074   4.874   6.564  0.4225  0.3991 -0.1341
    2MOL0     O  143  -0.181   4.886   6.649 -0.5569  0.0975 -0.3582
    2MOL0     C  144  -0.149   4.869   6.787 -0.4835  0.6454  0.1380
    2MOL0     C  145  -0.254   4.814   6.883 -0.3213  0.0360  0.4777
    2MOL0     C  146  -0.392   4.881   6.868  0.2816  0.3522 -0.5408
    2MOL0     C  147  -0.379   5.026   6.876 -0.1194 -0.0816 -0.3518
    2MOL0     C  148  -0.504   5.106   6.857  0.0068 -0.0030  0.7502
    2MOL0     C  149  -0.496   5.239   6.922  0.6250  0.2836 -0.6648
    2MOL0     C  150  -0.638   5.301   6.918 -0.2003 -0.0320  0.7531
    2MOL0     C  151  -0.649   5.408   6.810 -0.4477  0.1615 -0.2194
    2MOL0     N  152  -0.789   5.451   6.806 -0.7053 -0.1800  0.2554
    2MOL0     C  153  -0.876   5.398   6.715 -0.2509  0.0532  0.1920
    2MOL0     C  154  -0.995   5.450   6.746 -0.3317  0.7629 -0.3376
    2MOL0     C  155  -1.125   5.418   6.672  0.2958 -0.4565  1.7805
    2MOL0     C  156  -1.154   5.515   6.559 -0.1042 -0.2222  0.4757
    2MOL0     C  157  -1.201   5.459   6.429  0.1984 -0.2256 -0.2600
    2MOL0     C  158  -1.214   5.557   6.319  0.6547  0.7814  0.7867
    2MOL0     O  159  -1.338   5.535   6.239 -0.5382 -0.2286 -0.0715
    2MOL0     C  160  -1.465   5.590   6.274 -0.2246  0.0491  0.1318
    2MOL0     C  161  -1.574   5.509   6.243 -0.2774 -0.6098  0.3234
    2MOL0     C  162  -1.708   5.562   6.270 -0.0672 -0.3049  0.5239
    2MOL0     C  163  -1.835   5.480   6.233  0.0492 -0.9815  0.0120
    2MOL0     C  164  -1.722   5.688   6.338  0.6962 -0.1229  0.2479
    2MOL0     C  165  -1.843   5.758   6.380 -0.5670  0.1618  0.3355
    2MOL0     O  166  -1.939   5.796   6.290 -0.0588  0.6119  0.0800
    2MOL0     C  167  -2.072   5.795   6.329 -0.9037 -0.0708  0.8795
    2MOL0     C  168  -2.158   5.730   6.245 -0.0513  0.4751 -0.1666
    2MOL0     C  169  -2.290   5.705   6.274 -0.2940  0.6728 -0.0330
    2MOL0     C  170  -2.339   5.754   6.398 -0.0603 -0.2861 -0.4375
    2MOL0     O  171  -2.471   5.734   6.431  0.5636 -0.5479 -0.2611
    2MOL0     C  172  -2.502   5.705   6.568 -0.9910 -0.2765 -0.0324
    2MOL0     C  173  -2.644   5.645   6.564  0.4141  0.0978  0.8800
    2MOL0     C  174  -2.669   5.528   6.465  0.5178 -0.3590 -0.6628
    2MOL0     C  175  -2.800   5.447   6.483  0.3887  1.0782  0.1295
    2MOL0     C  176  -2.828   5.366   6.358  0.2240  0.2569  0.2144
    2MOL0     C  177  -2.965   5.288   6.376 -0.8330 -0.8336 -0.1643
    2MOL0     C  178  -2.981   5.160   6.294  0.3594 -0.1001 -0.1747
    2MOL0     C  179  -3.114   5.149   6.240 -0.3581  0.5248  0.6478
    2MOL0    Cl  180  -3.124   4.980   6.163 -0.0235  0.1768 -0.1819
    2MOL0     C  181  -2.260   5.829   6.481  0.3557  0.3263  0.1565
    2MOL0     C  182  -2.126   5.841   6.444 -0.3529 -0.5186 -1.5399
    2MOL0     O  183  -1.857   5.759   6.503  0.1582 -0.1735  0.1305
    2MOL0     C  184  -1.606   5.760   6.362  1.2961 -0.7127  0.2930
    2MOL0     C  185  -1.484   5.705   6.334  0.5836 -1.2371 -0.0554
    2MOL0     N  186  -0.980   5.534   6.850  0.3277 -0.6118  0.1466
    2MOL0     N  187  -0.860   5.542   6.882  0.0995  1.2182  0.2415
    2MOL0     C  188  -0.084   4.808   6.446  0.6235 -0.1506 -0.0278
    2MOL0     C  189   0.021   4.798   6.354 -0.0675 -0.8996  0.2535
    2MOL0     C  190   0.418   4.902   6.136 -0.2609 -0.2285 -0.2681
    2MOL0     C  191   0.446   4.768   6.099 -0.2722  0.1658 -0.8855
    2MOL0     C  192   0.545   4.743   6.000  0.2399  0.1644 -0.8621
    2MOL0     C  193   0.624   4.846   5.946  0.1739  1.0324  0.5008
    2MOL0     O  194   0.726   4.800   5.866  0.6117 -0.4727  1.0588
    2MOL0     C  195   0.859   4.846   5.874  0.1826 -0.3321  0.8497
    2MOL0     C  196   0.948   4.785   5.759 -0.4827  0.1584 -0.8511
    2MOL0     C  197   0.913   4.844   5.621 -0.7746  0.4480  0.3207
    2MOL0     C  198   1.006   4.799   5.506 -0.9147 -1.5565 -0.3177
    2MOL0     C  199   1.026   4.655   5.499  0.0063 -1.4513 -0.0246
    2MOL0     C  200   1.018   4.535   5.468 -0.3077  0.1717  0.5252
    2MOL0     C  201   0.603   4.978   5.981  0.4393 -0.0324  0.8857
    2MOL0     C  202   0.500   5.007   6.075  0.2372  0.7603 -0.2824
    2MOL0     H  203   0.234   5.000   6.518  0.4653 -0.5628 -0.4660
    2MOL0     H  204   0.040   5.023   6.664  1.7902 -0.1755 -0.1034
    2MOL0     H  205  -0.065   4.799   6.801 -1.4914 -0.6231  0.0364
    2MOL0     H  206  -0.121   4.963   6.835 -1.1262 -0.2801  2.4261
    2MOL0     H  207  -0.270   4.708   6.858  0.7608  0.1039 -0.5762
    2MOL0     H  208  -0.220   4.833   6.986 -1.1674  0.9652  0.5977
    2MOL0     H  209  -0.422   4.857   6.766 -0.3570 -1.1118 -0.0336
    2MOL0     H  210  -0.458   4.847   6.948  0.6560 -0.5625 -0.6168
    2MOL0     H  211  -0.318   5.054   6.962 -0.2726 -0.0726 -0.2448
    2MOL0     H  212  -0.308   5.056   6.799  2.5923  0.0343  2.0179
    2MOL0     H  213  -0.535   5.126   6.754  0.9897 -0.4875  0.3427
    2MOL0     H  214  -0.588   5.057   6.908  0.3532 -0.3997  0.9557
    2MOL0     H  215  -0.460   5.219   7.023  1.9758  2.3670 -0.6761
    2MOL0     H  216  -0.422   5.298   6.866  0.9045 -1.0841 -1.7963
    2MOL0     H  217  -0.716   5.227   6.901 -0.7863  1.1657 -2.2918
    2MOL0     H  218  -0.648   5.347   7.017  0.5235  1.7381  0.0529
    2MOL0     H  219  -0.612   5.373   6.713 -2.6942 -1.6503 -0.5094
    2MOL0     H  220  -0.591   5.497   6.835  0.4794 -0.2300 -0.9117
    2MOL0     H  221  -0.846   5.332   6.634  2.4697 -0.7174  1.6922
    2MOL0     H  222  -1.112   5.324   6.618 -0.3856  0.0369  0.7169
    2MOL0     H  223  -1.211   5.414   6.739 -0.4404  0.3568  0.9180
    2MOL0     H  224  -1.055   5.558   6.538  0.9674 -2.3115  0.9927
    2MOL0     H  225  -1.228   5.591   6.587  0.4799  0.5582 -0.0429
    2MOL0     H  226  -1.295   5.412   6.459  0.5918  0.1355  1.6531
    2MOL0     H  227  -1.139   5.378   6.391 -1.1467 -0.8724 -1.1506
    2MOL0     H  228  -1.131   5.547   6.250 -0.7522 -2.4074 -0.6123
    2MOL0     H  229  -1.217   5.658   6.363  0.2182  0.5798  1.2294
    2MOL0     H  230  -1.557   5.412   6.196  2.1416 -0.9959  1.8139
    2MOL0     H  231  -1.870   5.505   6.133  2.3413  2.9027 -0.0527
    2MOL0     H  232  -1.811   5.374   6.248 -2.9137 -1.5900  1.0164
    2MOL0     H  233  -1.925   5.499   6.292  0.7056  1.7479  0.2678
    2MOL0     H  234  -2.126   5.691   6.148 -1.5053  1.6429 -1.1662
    2MOL0     H  235  -2.349   5.650   6.201 -1.7272 -0.1412  1.6728
    2MOL0     H  236  -2.432   5.630   6.607  2.7504  1.9455 -1.8838
    2MOL0     H  237  -2.502   5.796   6.630 -3.5800  1.1834 -1.9770
    2MOL0     H  238  -2.659   5.601   6.663 -2.0024 -1.4111 -0.0541
    2MOL0     H  239  -2.729   5.712   6.547  0.2967 -0.7831 -2.9052
    2MOL0     H  240  -2.580   5.464   6.456 -0.6373 -1.9956 -0.9334
    2MOL0     H  241  -2.677   5.580   6.370  1.7150 -0.3196 -0.7664
    2MOL0     H  242  -2.797   5.386   6.574 -2.8429 -2.1401 -1.6571
    2MOL0     H  243  -2.886   5.513   6.500 -1.3489 -0.5379 -1.8491
    2MOL0     H  244  -2.751   5.296   6.324  2.6150  1.3265  3.0180
    2MOL0     H  245  -2.845   5.436   6.276 -0.1867  1.3973  1.2471
    2MOL0     H  246  -2.980   5.267   6.483  2.3016 -2.7390  0.0330
    2MOL0     H  247  -3.055   5.348   6.358 -2.1651 -2.0502  2.0026
    2MOL0     H  248  -2.956   5.071   6.352 -2.7126  0.7236  2.7345
    2MOL0     H  249  -2.920   5.156   6.204 -0.6994 -3.9174 -0.8690
    2MOL0     H  250  -3.156   5.226   6.175 -1.7708 -0.9072 -0.2450
    2MOL0     H  251  -3.191   5.137   6.317 -1.2822 -0.0209 -0.3249
    2MOL0     H  252  -2.300   5.871   6.573  0.7725 -1.5719  1.2749
    2MOL0     H  253  -2.066   5.904   6.508  0.6825 -1.5438 -1.4690
    2MOL0     H  254  -1.603   5.857   6.411  3.9025 -1.4633  1.7769
    2MOL0     H  255  -1.399   5.773   6.341  0.9181 -1.7273  0.8639
    2MOL0     H  256  -0.178   4.759   6.424  0.7836 -0.0097 -1.0601
    2MOL0     H  257   0.002   4.723   6.277 -0.1362  0.0183 -0.6405
    2MOL0     H  258   0.398   4.694   6.163 -1.7914  3.1052  1.6540
    2MOL0     H  259   0.566   4.639   5.977 -1.8324 -0.7209  1.0290
    2MOL0     H  260   0.864   4.955   5.866 -1.9474 -0.1915  0.9876
    2MOL0     H  261   0.903   4.828   5.973 -0.7046 -2.6044  0.8897
    2MOL0     H  262   0.949   4.676   5.768  2.4485  0.1674  0.1483
    2MOL0     H  263   1.056   4.806   5.761 -0.9667  3.1741  0.2080
    2MOL0     H  264   0.905   4.953   5.624  0.8283  0.6313 -0.6518
    2MOL0     H  265   0.813   4.812   5.591 -0.4820 -0.3295  0.1443
    2MOL0     H  266   1.104   4.848   5.511 -0.5191 -1.6282 -4.5176
    2MOL0     H  267   0.959   4.830   5.413  1.9595 -0.8326 -1.6310
    2MOL0     H  268   1.019   4.432   5.438 -1.5990  0.0545  0.8295
    2MOL0     H  269   0.662   5.057   5.934  0.1309  0.6197  1.5763
    2MOL0     H  270   0.480   5.112   6.090 -3.4476  0.2053 -0.3601
    3MOL0     O  271   1.778  10.422   1.459  0.5372  0.7475  1.2485
    3MOL0     C  272   1.753  10.484   1.559 -0.0764 -0.1855  0.2422
    3MOL0     O  273   1.630  10.538   1.584  0.2568 -0.0194 -0.9276
    3MOL0     C  274   1.536  10.501   1.487 -0.6093 -0.3750  0.1378
    3MOL0     C  275   1.520  10.577   1.369  0.1599  0.4773 -0.4916
    3MOL0     C  276   1.428  10.542   1.278 -0.5729 -0.3714 -0.8733
    3MOL0     C  277   1.344  10.426   1.292  0.5076 -0.8657  0.2283
    3MOL0     O  278   1.263  10.371   1.201  0.0948 -0.0546 -0.5568
    3MOL0     C  279   1.248  10.459   1.091  0.5539 -0.5979 -0.1457
    3MOL0     C  280   1.161  10.387   0.991 -0.7199  0.1169  0.0358
    3MOL0     C  281   1.114  10.479   0.885 -0.3097  0.4299 -0.4042
    3MOL0     C  282   1.048  10.406   0.771  0.2434 -0.4591 -0.8163
    3MOL0     C  283   0.905  10.370   0.803  0.1970 -0.6316  0.4136
    3MOL0     C  284   0.838  10.298   0.682  0.2210  0.1944  0.7813
    3MOL0     C  285   0.823  10.407   0.573  0.7731  0.2480 -0.4360
    3MOL0     C  286   0.716  10.417   0.474 -0.3550 -0.5984  0.4613
    3MOL0     N  287   0.591  10.361   0.517  0.1763 -0.3612  0.0896
    3MOL0     C  288   0.537  10.350   0.639 -0.3130 -0.2281 -0.4628
    3MOL0     C  289   0.409  10.309   0.621 -0.3355 -0.2854  0.0744
    3MOL0     C  290   0.311  10.276   0.726 -0.4047  0.1005  0.1940
    3MOL0     C  291   0.188  10.344   0.707  0.2006  0.1737 -0.3404
    3MOL0     C  292   0.117  10.317   0.840  0.2214 -0.1378 -0.5700
    3MOL0     C  293  -0.039  10.321   0.833  0.7495  0.6236  0.7080
    3MOL0     O  294  -0.086  10.349   0.969  0.3580 -0.1914  0.5288
    3MOL0     C  295  -0.220  10.341   0.993  0.1798  0.1053  0.8182
    3MOL0     C  296  -0.290  10.259   1.084 -0.4438 -0.8821 -1.0399
    3MOL0     C  297  -0.431  10.272   1.110 -0.5222  1.1976  0.6149
    3MOL0     C  298  -0.490  10.187   1.221  1.1278  0.3685 -0.8615
    3MOL0     C  299  -0.496  10.373   1.037 -0.6226  0.5985 -0.0881
    3MOL0     C  300  -0.649  10.389   1.050  0.0882  0.3125 -0.0269
    3MOL0     O  301  -0.717  10.452   0.945 -0.3674  0.1518  0.5834
    3MOL0     C  302  -0.852  10.474   0.963  0.2206 -0.0175  0.9791
    3MOL0     C  303  -0.925  10.471   0.846  0.3201 -0.6264  0.4315
    3MOL0     C  304  -1.063  10.491   0.842 -0.2374  0.0165 -0.3500
    3MOL0     C  305  -1.122  10.548   0.957  0.4987  0.7729  0.1545
    3MOL0     O  306  -1.247  10.604   0.956 -0.3188 -0.8664  0.3533
    3MOL0     C  307  -1.265  10.721   0.881  0.7791 -0.0058 -0.9794
    3MOL0     C  308  -1.403  10.778   0.937 -0.4262 -0.1443  0.4792
    3MOL0     C  309  -1.518  10.684   0.886 -0.3464 -0.5244  1.0976
    3MOL0     C  310  -1.652  10.763   0.892  0.8916 -0.1894  0.2958
    3MOL0     C  311  -1.769  10.670   0.900  0.2478 -0.4643  0.2926
    3MOL0     C  312  -1.798  10.638   1.052  0.1515  0.2046  0.7866
    3MOL0     C  313  -1.913  10.541   1.082 -0.3921  0.1084 -0.6534
    3MOL0     C  314  -1.895  10.400   1.035 -0.1642 -0.1961 -0.7462
    3MOL0    Cl  315  -2.032  10.300   1.078  0.3910 -0.1671  0.2003
    3MOL0     C  316  -1.050  10.561   1.074  0.7760 -0.3593  0.3022
    3MOL0     C  317  -0.914  10.528   1.077 -0.1216 -0.0844 -0.0912
    3MOL0     O  318  -0.702  10.343   1.152 -0.1110 -0.2974  0.4201
    3MOL0     C  319  -0.431  10.443   0.935  0.8391  0.3077  0.3702
    3MOL0     C  320  -0.298  10.428   0.913 -0.8427 -0.1416  1.2983
    3MOL0     N  321   0.384  10.301   0.480  0.8061 -0.2424 -1.0378
    3MOL0     N  322   0.495  10.336   0.421  0.6125  0.2727 -0.4353
    3MOL0     C  323   1.352  10.365   1.412 -0.2648 -0.3416 -0.9772
    3MOL0     C  324   1.447  10.397   1.513 -1.1245  0.5780 -0.3108
    3MOL0     C  325   1.855  10.502   1.659  0.6795 -0.1058  0.4045
    3MOL0     C  326   1.828  10.552   1.785 -0.3575  0.7220 -0.6734
    3MOL0     C  327   1.932  10.595   1.866 -0.3295  0.3114  0.1450
    3MOL0     C  328   2.066  10.567   1.840 -0.1749 -0.2839  0.1794
    3MOL0     O  329   2.155  10.612   1.936 -0.2344 -0.2116 -0.6651
    3MOL0     C  330   2.287  10.589   1.924 -0.1877  0.5655  0.0708
    3MOL0     C  331   2.366  10.672   2.023  0.0587 -0.9590 -0.5036
    3MOL0     C  332   2.509  10.666   1.991 -0.0676  0.2237  0.0045
    3MOL0     C  333   2.567  10.518   1.975 -0.6925 -0.1035 -0.5519
    3MOL0     C  334   2.717  10.532   1.981  1.0176 -0.4636 -0.7652
    3MOL0     C  335   2.841  10.550   1.988 -0.7973  0.2196 -0.1037
    3MOL0     C  336   2.101  10.501   1.719 -0.2776 -0.5177 -0.2762
    3MOL0     C  337   1.994  10.471   1.626 -0.1806  0.3660  0.2190
    3MOL0     H  338   1.582  10.665   1.353  1.7021 -0.9597 -2.9720
    3MOL0     H  339   1.431  10.616   1.198 -0.8919 -0.6062 -1.1053
    3MOL0     H  340   1.194  10.551   1.118 -0.3770 -0.6738 -1.6169
    3MOL0     H  341   1.344  10.483   1.044  0.6889  3.6488  1.7925
    3MOL0     H  342   1.228  10.309   0.955  0.1896  1.6912 -1.9080
    3MOL0     H  343   1.082  10.338   1.049  1.5227 -3.9711 -0.0553
    3MOL0     H  344   1.047  10.551   0.933 -2.2044  0.1045 -2.4106
    3MOL0     H  345   1.199  10.531   0.840 -0.8979  3.0987  1.3404
    3MOL0     H  346   1.048  10.476   0.686  1.1738  2.5750  1.5017
    3MOL0     H  347   1.107  10.318   0.746  2.6857  0.1107  2.3058
    3MOL0     H  348   0.895  10.305   0.890 -1.5232  0.0090  0.7384
    3MOL0     H  349   0.858  10.464   0.833  0.5883  0.0678 -1.0606
    3MOL0     H  350   0.901  10.216   0.647  2.7175  1.5789  1.7761
    3MOL0     H  351   0.750  10.244   0.718  0.5727 -0.8248  0.1553
    3MOL0     H  352   0.827  10.503   0.627 -1.3193 -0.4844  1.1692
    3MOL0     H  353   0.913  10.402   0.511  0.5036  1.5297 -0.9831
    3MOL0     H  354   0.735  10.363   0.381  2.4117 -2.8492  2.1683
    3MOL0     H  355   0.702  10.524   0.454  1.1296 -0.4154  0.2591
    3MOL0     H  356   0.585  10.364   0.735 -2.3612 -1.6639  0.8684
    3MOL0     H  357   0.296  10.168   0.716  0.7632 -0.0125 -0.4575
    3MOL0     H  358   0.358  10.308   0.820  1.3169  2.9146 -1.4921
    3MOL0     H  359   0.135  10.309   0.618  1.4750  1.0949 -1.5164
    3MOL0     H  360   0.198  10.453   0.696  0.0809  0.4282  1.7207
    3MOL0     H  361   0.150  10.383   0.920 -0.2381 -0.1204 -0.3950
    3MOL0     H  362   0.134  10.213   0.870 -3.0359 -0.3327  0.9994
    3MOL0     H  363  -0.073  10.220   0.809 -0.7338  1.1782  0.3839
    3MOL0     H  364  -0.074  10.396   0.761  0.6856  1.4059  1.5295
    3MOL0     H  365  -0.232  10.191   1.145  0.6850 -0.7461 -1.9242
    3MOL0     H  366  -0.571  10.123   1.186 -1.8524  2.3779  1.8594
    3MOL0     H  367  -0.418  10.115   1.261  0.2933 -1.0760 -1.8687
    3MOL0     H  368  -0.519  10.248   1.307  1.9437 -0.7646  0.2525
    3MOL0     H  369  -0.873  10.448   0.753  1.5948 -0.3180  1.0532
    3MOL0     H  370  -1.115  10.501   0.747  0.7141  1.6905 -0.7317
    3MOL0     H  371  -1.184  10.794   0.894 -2.5153  3.6706  1.4215
    3MOL0     H  372  -1.271  10.692   0.776 -0.8692 -2.1014 -0.3786
    3MOL0     H  373  -1.403  10.790   1.046  1.9009  1.5054  0.3497
    3MOL0     H  374  -1.422  10.876   0.892 -0.1496  0.3709  1.4609
    3MOL0     H  375  -1.527  10.594   0.947 -1.5009  0.6796  2.8323
    3MOL0     H  376  -1.498  10.658   0.782 -1.7985  0.2149  0.6071
    3MOL0     H  377  -1.653  10.832   0.977 -0.8103 -2.5269  2.3173
    3MOL0     H  378  -1.665  10.833   0.810 -1.8801  0.5579  1.2493
    3MOL0     H  379  -1.755  10.581   0.837 -0.0775  0.0259 -0.4816
    3MOL0     H  380  -1.853  10.729   0.863 -0.1413 -1.3558 -0.2763
    3MOL0     H  381  -1.704  10.595   1.089  0.0300 -0.3364  0.4815
    3MOL0     H  382  -1.806  10.736   1.099 -0.3887 -0.2233  1.6068
    3MOL0     H  383  -2.004  10.592   1.047  0.2905  0.1732 -2.4014
    3MOL0     H  384  -1.915  10.546   1.192 -2.1744  2.4494 -0.6967
    3MOL0     H  385  -1.810  10.349   1.081 -1.4752 -0.6072  1.3541
    3MOL0     H  386  -1.889  10.392   0.926 -0.4584  1.2859 -0.8896
    3MOL0     H  387  -1.086  10.608   1.165  1.5783 -0.5000  0.7051
    3MOL0     H  388  -0.861  10.538   1.172  1.0984  0.5775 -0.8241
    3MOL0     H  389  -0.473  10.500   0.853  2.1132 -1.0479 -1.3112
    3MOL0     H  390  -0.258  10.504   0.847 -1.9985  1.5727  2.4913
    3MOL0     H  391   1.306  10.267   1.416 -1.6000  0.3011  1.5648
    3MOL0     H  392   1.449  10.346   1.608 -1.7353  0.8442 -0.1538
    3MOL0     H  393   1.727  10.572   1.820  0.1011 -1.5985  2.4553
    3MOL0     H  394   1.916  10.639   1.964  1.2849 -0.7677  0.9296
    3MOL0     H  395   2.294  10.481   1.931 -2.2246  0.3931  0.0428
    3MOL0     H  396   2.309  10.610   1.819 -3.5533 -2.4699 -1.4471
    3MOL0     H  397   2.343  10.638   2.125  0.0758  1.2758  0.3128
    3MOL0     H  398   2.340  10.778   2.012  0.7796 -0.9545 -2.4860
    3MOL0     H  399   2.553  10.728   2.069  1.3074  1.6255 -1.8033
    3MOL0     H  400   2.522  10.724   1.899 -1.3246  0.1371 -0.2458
    3MOL0     H  401   2.535  10.471   1.882  1.5006  1.5727 -2.2534
    3MOL0     H  402   2.540  10.452   2.058 -1.9621  0.0507 -0.8180
    3MOL0     H  403   2.946  10.534   2.004 -1.4092 -2.1145  2.0897
    3MOL0     H  404   2.195  10.451   1.698 -0.4061 -2.2879  2.8693
    3MOL0     H  405   2.007  10.410   1.537  0.3571  1.2602 -0.3295
    4MOL0     O  406   2.994   1.672  11.007  0.1812  0.6212 -1.0937
    4MOL0     C  407   3.074   1.591  11.047  0.1275  0.4903 -0.7160
    4MOL0     O  408   3.150   1.605  11.159 -0.4952  0.3457 -0.5304
    4MOL0     C  409   3.133   1.705  11.254 -0.1509  1.4322  0.5007
    4MOL0     C  410   3.195   1.824  11.265 -0.7018 -0.3781  0.4164
    4MOL0     C  411   3.170   1.913  11.366 -0.0967  0.0664 -0.4989
    4MOL0     C  412   3.077   1.883  11.471  0.3936  0.9161 -0.0161
    4MOL0     O  413   3.057   1.977  11.574  0.6899  0.4812  0.6485
    4MOL0     C  414   2.920   1.971  11.624 -0.3637 -0.8190 -0.2614
    4MOL0     C  415   2.909   2.092  11.724 -0.4189  0.2642 -0.4210
    4MOL0     C  416   2.954   2.222  11.662 -1.0330  0.5709  0.5946
    4MOL0     C  417   2.859   2.275  11.556  0.1191  0.8449  0.1112
    4MOL0     C  418   2.901   2.418  11.536  0.2569 -0.2368  1.3684
    4MOL0     C  419   2.830   2.487  11.424  0.3537  0.5427  1.2103
    4MOL0     C  420   2.878   2.428  11.286 -0.3450  0.3198 -0.2574
    4MOL0     C  421   2.840   2.509  11.164 -0.2496  0.4807  0.4971
    4MOL0     N  422   2.692   2.532  11.162  0.1718  0.1058 -0.4148
    4MOL0     C  423   2.623   2.634  11.217  0.4762  0.3887 -0.2570
    4MOL0     C  424   2.493   2.598  11.203 -0.0437 -0.5778  0.6861
    4MOL0     C  425   2.362   2.654  11.254  0.0870 -0.4512  0.4275
    4MOL0     C  426   2.352   2.678  11.407  0.5729 -0.8717 -0.5755
    4MOL0     C  427   2.212   2.705  11.447  0.8581  0.3007 -0.1929
    4MOL0     C  428   2.121   2.585  11.444 -0.0386 -0.4465 -0.1932
    4MOL0     O  429   1.993   2.626  11.391 -0.7751 -0.2468  0.3887
    4MOL0     C  430   1.882   2.552  11.431  0.5144 -0.5761  0.1979
    4MOL0     C  431   1.878   2.479  11.552 -0.0207  0.9482 -0.8260
    4MOL0     C  432   1.769   2.402  11.583  0.6635 -0.2917  0.4514
    4MOL0     C  433   1.782   2.309  11.710  0.8591  0.7206 -0.8369
    4MOL0     C  434   1.658   2.400  11.498  0.1442  0.7550  0.1145
    4MOL0     C  435   1.541   2.323  11.534 -0.7279 -0.4165 -0.0991
    4MOL0     O  436   1.493   2.351  11.660  0.7661 -0.0748  0.0917
    4MOL0     C  437   1.400   2.249  11.680  1.1271 -0.5650  0.8826
    4MOL0     C  438   1.436   2.123  11.706  0.3841 -0.4146  0.0058
    4MOL0     C  439   1.336   2.021  11.713 -0.0617  0.0689  0.2176
    4MOL0     C  440   1.204   2.062  11.701 -0.1413 -0.0578 -0.0515
    4MOL0     O  441   1.102   1.969  11.701 -0.2198  0.3610 -1.0196
    4MOL0     C  442   1.118   1.853  11.619 -0.1291  0.2334  0.1215
    4MOL0     C  443   0.995   1.770  11.621  0.2086 -0.3888  0.2484
    4MOL0     C  444   0.950   1.747  11.765  0.6178 -0.0928  0.0470
    4MOL0     C  445   0.825   1.662  11.786  0.0802  0.4291  0.2284
    4MOL0     C  446   0.747   1.706  11.912  0.7400  0.0027  0.3687
    4MOL0     C  447   0.651   1.600  11.964 -0.7489 -0.2845 -0.5847
    4MOL0     C  448   0.564   1.652  12.079  0.3702 -0.0599 -0.5766
    4MOL0     C  449   0.476   1.769  12.039 -0.4301  0.6690 -1.0544
    4MOL0    Cl  450   0.415   1.743  11.877 -0.3458  0.0561  0.2271
    4MOL0     C  451   1.162   2.190  11.675 -0.2266 -0.5861  0.5784
    4MOL0     C  452   1.260   2.281  11.661 -0.1394 -0.1606 -0.0980
    4MOL0     O  453   1.477   2.274  11.435 -0.2817 -0.5203  0.2504
    4MOL0     C  454   1.658   2.473  11.387 -1.1419  0.0195 -0.2661
    4MOL0     C  455   1.772   2.542  11.344  0.1303 -0.6768 -0.4351
    4MOL0     N  456   2.488   2.478  11.132 -0.3131  0.5718 -1.1977
    4MOL0     N  457   2.606   2.444  11.107  0.0904 -0.9305 -0.0058
    4MOL0     C  458   3.012   1.757  11.465 -0.6458 -0.7629  0.7868
    4MOL0     C  459   3.041   1.668  11.354 -0.5556  0.1811 -0.3239
    4MOL0     C  460   3.113   1.482  10.952 -0.1059 -0.1754 -0.1305
    4MOL0     C  461   3.219   1.397  10.990 -0.1131  0.3595 -0.4939
    4MOL0     C  462   3.260   1.297  10.893  0.5689  0.3924 -0.2354
    4MOL0     C  463   3.188   1.271  10.777 -0.1612 -0.3344  1.0986
    4MOL0     O  464   3.229   1.173  10.689  0.4514  0.1342 -0.1332
    4MOL0     C  465   3.139   1.118  10.590 -0.0298  0.7663  0.2386
    4MOL0     C  466   3.138   1.182  10.449 -0.4875 -0.4737  0.8345
    4MOL0     C  467   3.279   1.214  10.383 -0.2473 -0.3073 -0.2718
    4MOL0     C  468   3.341   1.090  10.329  0.0471 -0.1776 -0.5820
    4MOL0     C  469   3.447   1.117  10.238 -0.2510 -0.8544 -0.1650
    4MOL0     C  470   3.515   1.129  10.144 -0.7965  0.4793 -0.3084
    4MOL0     C  471   3.077   1.352  10.740 -0.3006  0.7249  0.3155
    4MOL0     C  472   3.043   1.451  10.830  0.6479 -0.1578  0.1177
    4MOL0     H  473   3.273   1.848  11.194  0.1181 -0.4369  1.2728
    4MOL0     H  474   3.218   2.010  11.378 -0.3412  0.0899  0.3605
    4MOL0     H  475   2.842   1.983  11.548  0.2296 -0.0030 -0.7616
    4MOL0     H  476   2.901   1.882  11.683 -0.4745  0.3085  1.4613
    4MOL0     H  477   2.813   2.099  11.775 -0.2712 -1.0535  0.0729
    4MOL0     H  478   2.972   2.069  11.810  0.3352 -1.8046 -1.4411
    4MOL0     H  479   2.951   2.294  11.745  1.4543  2.5418 -0.8694
    4MOL0     H  480   3.056   2.212  11.624 -0.0613 -0.0173  3.1333
    4MOL0     H  481   2.865   2.214  11.466  2.4207 -0.4261  1.0305
    4MOL0     H  482   2.759   2.277  11.601  0.6892 -2.7337  1.9052
    4MOL0     H  483   2.884   2.481  11.623  0.5523  0.7288  0.7405
    4MOL0     H  484   3.008   2.418  11.515 -0.3963 -0.9083 -3.1111
    4MOL0     H  485   2.723   2.488  11.446  0.1500 -1.7119  0.5427
    4MOL0     H  486   2.860   2.592  11.417  1.7520  0.0233 -2.3565
    4MOL0     H  487   2.986   2.410  11.290 -0.6996 -1.9973  0.7096
    4MOL0     H  488   2.832   2.329  11.274  0.8453 -0.1477 -1.1441
    4MOL0     H  489   2.871   2.458  11.071  1.3829  2.0826  0.0980
    4MOL0     H  490   2.894   2.603  11.150 -1.5778  1.4696  1.8649
    4MOL0     H  491   2.662   2.719  11.272 -0.6212  1.5900 -1.2654
    4MOL0     H  492   2.350   2.750  11.204 -3.0858 -1.0003 -0.1229
    4MOL0     H  493   2.274   2.599  11.220 -0.5244  2.0599 -2.5271
    4MOL0     H  494   2.418   2.761  11.432 -0.3417 -0.0064 -0.9430
    4MOL0     H  495   2.391   2.589  11.457 -1.0993 -2.1716 -1.4690
    4MOL0     H  496   2.189   2.781  11.372  1.3463 -0.5976 -1.2870
    4MOL0     H  497   2.194   2.738  11.549  1.2281 -4.9626  1.8646
    4MOL0     H  498   2.119   2.573  11.552  4.9027 -0.1345  0.1858
    4MOL0     H  499   2.167   2.495  11.402  3.4960  1.1359 -0.0746
    4MOL0     H  500   1.969   2.480  11.611  0.9939  2.4705 -2.3307
    4MOL0     H  501   1.891   2.299  11.718  0.9837  1.7958 -1.0318
    4MOL0     H  502   1.743   2.355  11.801 -0.7754 -0.3374 -0.9689
    4MOL0     H  503   1.754   2.203  11.707  1.4677  0.5277 -0.0929
    4MOL0     H  504   1.540   2.092  11.719  0.0540 -1.7464 -0.3603
    4MOL0     H  505   1.374   1.926  11.747  3.0627  0.9029 -0.6565
    4MOL0     H  506   1.150   1.881  11.518 -1.5329 -1.2674 -0.7825
    4MOL0     H  507   1.193   1.781  11.655  1.5286  0.9931 -1.6150
    4MOL0     H  508   0.914   1.822  11.568 -0.5449 -0.6573  1.1000
    4MOL0     H  509   1.028   1.684  11.562  2.1802  0.3969  0.1294
    4MOL0     H  510   0.931   1.847  11.803 -0.4186 -0.1089 -0.3904
    4MOL0     H  511   1.034   1.692  11.809 -0.1132 -1.0227  0.3079
    4MOL0     H  512   0.765   1.675  11.695 -1.5294  2.8044  1.5222
    4MOL0     H  513   0.861   1.559  11.795  0.8774  0.7096  0.3566
    4MOL0     H  514   0.699   1.799  11.879  1.2736  0.2098  0.1577
    4MOL0     H  515   0.821   1.718  11.992  0.8658  1.6612  0.0539
    4MOL0     H  516   0.589   1.586  11.875 -3.7269  1.1924  1.0839
    4MOL0     H  517   0.709   1.515  12.001 -1.3378  0.1048  1.3311
    4MOL0     H  518   0.626   1.699  12.155 -0.8682  1.2877 -0.3465
    4MOL0     H  519   0.509   1.567  12.120  0.5924  0.0396 -0.0672
    4MOL0     H  520   0.538   1.859  12.040  1.7913 -0.7831 -0.9063
    4MOL0     H  521   0.399   1.783  12.116  0.1091 -0.5644 -0.2781
    4MOL0     H  522   1.057   2.218  11.674 -0.4979 -1.5652  0.0130
    4MOL0     H  523   1.238   2.379  11.620  0.4003 -0.4584 -1.1567
    4MOL0     H  524   1.572   2.472  11.321 -1.7417 -1.5975  0.4876
    4MOL0     H  525   1.758   2.596  11.251 -1.1252  1.9275  1.1415
    4MOL0     H  526   2.945   1.716  11.540 -4.8250 -0.2307 -2.3190
    4MOL0     H  527   2.995   1.570  11.354 -0.5954  0.1996  0.0895
    4MOL0     H  528   3.261   1.383  11.089 -3.2965 -0.5899  0.8343
    4MOL0     H  529   3.351   1.241  10.909 -0.1738 -0.5520  0.8329
    4MOL0     H  530   3.170   1.013  10.586 -0.0850  0.6889  1.4601
    4MOL0     H  531   3.034   1.119  10.620 -0.8688 -2.2486 -2.0965
    4MOL0     H  532   3.089   1.280  10.446 -0.4323 -0.4421 -1.9616
    4MOL0     H  533   3.087   1.113  10.382 -2.3562 -1.4008  3.0896
    4MOL0     H  534   3.348   1.255  10.457 -1.8248  2.0133  0.0139
    4MOL0     H  535   3.275   1.287  10.302 -0.2697 -0.0211 -0.0140
    4MOL0     H  536   3.260   1.049  10.267 -0.0438 -1.6397  0.4530
    4MOL0     H  537   3.376   1.022  10.407 -1.1135  0.8576  0.9034
    4MOL0     H  538   3.588   1.137  10.065 -0.2344  1.8266  0.3072
    4MOL0     H  539   3.029   1.352  10.643  0.6083 -1.1832 -0.1816
    4MOL0     H  540   2.962   1.516  10.801  0.0113 -2.1265 -2.9819
    5MOL0     O  541  11.058   4.959   5.209 -0.2043 -0.1211 -0.1965
    5MOL0     C  542  10.996   5.066   5.226 -0.2885  0.8147  0.1338
    5MOL0     O  543  11.029   5.190   5.171  0.2684  0.6485 -0.3607
    5MOL0     C  544  11.143   5.198   5.096  0.0271  1.0583  0.0692
    5MOL0     C  545  11.139   5.162   4.964 -0.4105 -0.4391  0.5591
    5MOL0     C  546  11.257   5.155   4.882  0.0558  0.2054  0.3402
    5MOL0     C  547  11.379   5.177   4.950  0.5238 -0.4586 -0.3122
    5MOL0     O  548  11.494   5.159   4.881 -0.2112 -0.4298 -0.5240
    5MOL0     C  549  11.598   5.263   4.902 -0.1687  0.7400  0.5082
    5MOL0     C  550  11.704   5.235   4.795 -0.0699 -0.6514  0.0932
    5MOL0     C  551  11.794   5.116   4.819  0.7686  0.3261 -0.2018
    5MOL0     C  552  11.916   5.159   4.902 -0.4682  0.4687 -0.6753
    5MOL0     C  553  12.005   5.036   4.943  0.8029 -0.1186 -0.4301
    5MOL0     C  554  12.128   5.089   5.011  0.3434 -0.9894  0.5951
    5MOL0     C  555  12.221   4.980   5.065  0.0294  0.0892  1.4676
    5MOL0     C  556  12.346   5.041   5.101 -0.5257  0.0593  0.3591
    5MOL0     N  557  12.319   5.140   5.205  0.1664  0.1345  0.3037
    5MOL0     C  558  12.282   5.269   5.198  0.0597 -0.2555  0.1173
    5MOL0     C  559  12.270   5.316   5.319  0.3330 -0.4237  0.4882
    5MOL0     C  560  12.229   5.451   5.358  0.4607 -0.7682  0.7492
    5MOL0     C  561  12.098   5.459   5.434  0.6200 -0.0678 -0.4661
    5MOL0     C  562  12.074   5.595   5.502  0.3500  0.4313  1.0654
    5MOL0     C  563  11.933   5.603   5.566 -0.3971 -0.6726 -0.3156
    5MOL0     O  564  11.891   5.739   5.551  0.0828 -0.2570  0.2822
    5MOL0     C  565  11.762   5.776   5.582  1.1969  0.5213  0.3852
    5MOL0     C  566  11.650   5.726   5.525 -0.1690 -0.1785  0.1162
    5MOL0     C  567  11.517   5.782   5.546 -0.1552 -0.1549  0.5513
    5MOL0     C  568  11.406   5.714   5.460 -0.3334 -0.4102 -0.3777
    5MOL0     C  569  11.494   5.878   5.650  0.2209  0.3071 -0.2537
    5MOL0     C  570  11.367   5.942   5.674 -0.4822 -0.5701 -0.5691
    5MOL0     O  571  11.388   6.054   5.758  0.7420 -0.7147  0.1360
    5MOL0     C  572  11.281   6.100   5.826  0.1418 -0.2650 -0.4996
    5MOL0     C  573  11.213   6.019   5.920  0.1099  0.4009 -0.3191
    5MOL0     C  574  11.110   6.077   6.001  0.1784 -0.1183 -0.4838
    5MOL0     C  575  11.080   6.216   5.995  0.1154 -0.1147 -0.6445
    5MOL0     O  576  10.978   6.252   6.080 -0.1213 -0.5286  0.6954
    5MOL0     C  577  10.868   6.313   6.012 -0.1192 -0.5574 -0.4292
    5MOL0     C  578  10.782   6.210   5.946  0.6300 -0.0628  0.6329
    5MOL0     C  579  10.646   6.262   5.915  0.8445  0.4320  0.3525
    5MOL0     C  580  10.546   6.148   5.894  0.1354 -0.3479  0.6125
    5MOL0     C  581  10.409   6.218   5.886 -0.4165  0.6150 -0.5785
    5MOL0     C  582  10.301   6.116   5.845  0.3883 -0.0723 -0.3207
    5MOL0     C  583  10.178   6.183   5.775  0.6349 -0.2120 -0.2176
    5MOL0     C  584  10.111   6.297   5.861  0.1769  0.3336 -0.2006
    5MOL0    Cl  585  10.039   6.243   6.020  0.2581 -0.0893 -0.3404
    5MOL0     C  586  11.155   6.293   5.908  0.0472 -0.8089  0.1117
    5MOL0     C  587  11.248   6.237   5.824 -0.4501 -1.3480 -0.2820
    5MOL0     O  588  11.256   5.894   5.648  0.2309  0.3367 -0.6509
    5MOL0     C  589  11.612   5.917   5.720  0.1848  0.1804  0.1352
    5MOL0     C  590  11.738   5.860   5.686  0.6360 -0.1614 -0.9759
    5MOL0     N  591  12.297   5.212   5.405  0.4642  0.5989  0.1047
    5MOL0     N  592  12.316   5.101   5.339  0.1790  0.2675  0.0490
    5MOL0     C  593  11.381   5.231   5.080  0.6599  0.1722  0.3050
    5MOL0     C  594  11.262   5.237   5.155 -0.1461 -0.2547 -0.1609
    5MOL0     C  595  10.870   5.062   5.302 -0.5222 -0.7081 -0.0778
    5MOL0     C  596  10.787   5.181   5.289  0.0704 -0.2489  0.8816
    5MOL0     C  597  10.672   5.191   5.362 -0.0362  0.1510  0.2678
    5MOL0     C  598  10.629   5.087   5.444  0.6723  0.8387 -0.2795
    5MOL0     O  599  10.508   5.113   5.506 -0.8766 -0.1632 -0.0534
    5MOL0     C  600  10.469   5.042   5.617 -0.1676 -0.4281 -0.2948
    5MOL0     C  601  10.364   4.934   5.576 -0.5963  0.8582  0.0329
    5MOL0     C  602  10.232   4.972   5.510 -0.5499 -0.0588  0.0339
    5MOL0     C  603  10.136   5.071   5.589 -0.2297  0.8454  0.5418
    5MOL0     C  604  10.129   5.038   5.731 -0.5233 -0.4969  0.9204
    5MOL0     C  605  10.106   5.013   5.845 -0.0444 -0.4275 -0.1513
    5MOL0     C  606  10.704   4.968   5.445  0.8502  0.2709 -0.4548
    5MOL0     C  607  10.824   4.953   5.377  0.2545 -0.2125 -0.2013
    5MOL0     H  608  11.039   5.140   4.928 -0.4009  0.9682 -0.4053
    5MOL0     H  609  11.245   5.139   4.775  1.9837 -1.3516  0.3112
    5MOL0     H  610  11.549   5.360   4.885 -0.6391  0.8105  2.1049
    5MOL0     H  611  11.641   5.253   5.002  1.3850 -0.1130 -0.2191
    5MOL0     H  612  11.637   5.202   4.716 -4.8022 -1.6522  4.0043
    5MOL0     H  613  11.760   5.325   4.769 -1.1060 -0.3420 -1.1710
    5MOL0     H  614  11.739   5.035   4.868 -0.1422  0.2628 -1.2689
    5MOL0     H  615  11.827   5.072   4.724  4.4945 -1.3152  1.6647
    5MOL0     H  616  11.973   5.230   4.842 -0.1713  1.4436  0.7128
    5MOL0     H  617  11.871   5.210   4.987  1.4207  0.4480  0.3940
    5MOL0     H  618  11.945   4.979   5.015 -1.2860  2.0931 -0.2645
    5MOL0     H  619  12.019   4.974   4.854 -3.5343 -1.0928 -0.6596
    5MOL0     H  620  12.176   5.151   4.935  0.0193  0.5099  1.5826
    5MOL0     H  621  12.088   5.146   5.095  0.3405 -1.4576  0.9118
    5MOL0     H  622  12.183   4.925   5.151 -1.5835  2.5180  2.4260
    5MOL0     H  623  12.251   4.916   4.981  0.2765  1.6899  0.2869
    5MOL0     H  624  12.393   5.079   5.010  0.6533 -0.8492  0.5530
    5MOL0     H  625  12.413   4.966   5.145  2.3864  2.8153  1.0137
    5MOL0     H  626  12.267   5.329   5.109  1.5806 -1.4988 -1.0511
    5MOL0     H  627  12.302   5.499   5.424  0.5071 -1.2939  1.0891
    5MOL0     H  628  12.217   5.514   5.269 -0.7108 -2.8465 -0.6346
    5MOL0     H  629  12.091   5.388   5.517 -0.0826  0.4720 -0.0564
    5MOL0     H  630  12.014   5.438   5.367 -0.8092 -0.5677  1.4125
    5MOL0     H  631  12.072   5.668   5.420 -1.1070 -0.2126  0.4867
    5MOL0     H  632  12.153   5.615   5.575  2.7625 -3.7272 -0.1136
    5MOL0     H  633  11.935   5.584   5.673  0.2609 -1.6203 -0.4855
    5MOL0     H  634  11.876   5.517   5.528 -0.8125 -0.8938  0.7815
    5MOL0     H  635  11.669   5.650   5.449  1.1742 -2.0524  2.1984
    5MOL0     H  636  11.334   5.784   5.418 -2.3287 -1.6262  0.8845
    5MOL0     H  637  11.450   5.669   5.371 -0.1981  0.5957 -0.8303
    5MOL0     H  638  11.347   5.641   5.516 -0.9920  1.2072  1.1305
    5MOL0     H  639  11.245   5.916   5.936  3.6060  1.4862  0.6759
    5MOL0     H  640  11.059   6.028   6.083  0.9739  1.7799  1.2436
    5MOL0     H  641  10.821   6.373   6.091 -0.1334  0.4597 -1.1937
    5MOL0     H  642  10.915   6.381   5.941  2.5532 -1.5465  0.2621
    5MOL0     H  643  10.838   6.185   5.856  1.9195  3.8503  0.1269
    5MOL0     H  644  10.766   6.129   6.017  2.5386 -0.6266  0.4686
    5MOL0     H  645  10.649   6.335   5.834  1.5776 -0.2728 -0.2661
    5MOL0     H  646  10.620   6.313   6.008 -0.1195 -0.0571  0.3621
    5MOL0     H  647  10.565   6.088   5.804  0.8717 -2.1376  1.8985
    5MOL0     H  648  10.552   6.074   5.974  0.9282 -0.9336  0.0311
    5MOL0     H  649  10.412   6.302   5.816 -0.1727  1.1038  0.0086
    5MOL0     H  650  10.375   6.259   5.981 -2.3604 -1.4299 -0.3137
    5MOL0     H  651  10.343   6.054   5.765  1.0454  2.2496 -1.8665
    5MOL0     H  652  10.269   6.050   5.926 -2.4021  0.2243 -1.0604
    5MOL0     H  653  10.100   6.106   5.767  1.7768 -1.1819 -2.7854
    5MOL0     H  654  10.204   6.224   5.678 -1.3721 -1.3048 -1.2854
    5MOL0     H  655  10.026   6.349   5.816 -0.3732  1.3220  1.8570
    5MOL0     H  656  10.186   6.373   5.884  3.5840 -3.8190  4.7130
    5MOL0     H  657  11.157   6.402   5.911  0.6216 -0.8394  1.1511
    5MOL0     H  658  11.322   6.301   5.778 -1.6560  1.3902  1.3344
    5MOL0     H  659  11.619   5.991   5.799  2.2939 -0.8243  0.9902
    5MOL0     H  660  11.827   5.885   5.744  0.4381  0.4578 -0.9361
    5MOL0     H  661  11.480   5.258   5.115  1.1191  0.4860 -1.1699
    5MOL0     H  662  11.271   5.258   5.261  1.9121  0.9488 -0.5150
    5MOL0     H  663  10.823   5.268   5.236  5.1355 -1.7910  1.1881
    5MOL0     H  664  10.618   5.284   5.353  2.9452  1.8920 -1.4772
    5MOL0     H  665  10.555   5.005   5.672  2.2934  3.4313 -1.1765
    5MOL0     H  666  10.426   5.121   5.680  0.4825  0.1043 -0.4995
    5MOL0     H  667  10.331   4.875   5.662 -1.2646 -0.2646 -0.9535
    5MOL0     H  668  10.417   4.867   5.508 -0.7196 -1.7838  2.3572
    5MOL0     H  669  10.186   4.883   5.467 -3.4857  0.0989  2.5367
    5MOL0     H  670  10.248   5.024   5.415  3.3893 -1.2879 -0.1750
    5MOL0     H  671  10.040   5.064   5.538  0.3843 -0.6892 -0.4876
    5MOL0     H  672  10.172   5.173   5.569 -0.6612  0.5280 -2.2114
    5MOL0     H  673  10.096   4.989   5.949 -0.4859 -2.6696 -0.6512
    5MOL0     H  674  10.668   4.890   5.510 -0.9486 -0.1272 -1.8488
    5MOL0     H  675  10.874   4.857   5.385 -0.2426 -0.4734 -0.2157
    6MOL0     O  676   1.093   2.264   4.991 -0.5043  1.2685 -0.0073
    6MOL0     C  677   1.018   2.343   5.046  0.4259  0.8019 -0.0206
    6MOL0     O  678   0.878   2.339   5.034 -0.5940  0.9215  0.1172
    6MOL0     C  679   0.831   2.253   4.934 -1.6962 -0.7191 -0.0617
    6MOL0     C  680   0.815   2.289   4.801 -0.0128  0.2921  0.7301
    6MOL0     C  681   0.766   2.201   4.713 -0.3606  0.0254 -0.8643
    6MOL0     C  682   0.715   2.072   4.749  0.2447 -0.2185 -0.4588
    6MOL0     O  683   0.682   1.979   4.653  0.2681 -0.2221  0.4300
    6MOL0     C  684   0.697   2.009   4.511  0.1369  0.4279 -0.6702
    6MOL0     C  685   0.636   1.905   4.427 -0.8215  0.0345 -0.2888
    6MOL0     C  686   0.621   1.943   4.283  0.2322  0.3514 -0.3230
    6MOL0     C  687   0.502   2.039   4.251 -0.4619 -0.0821 -0.4036
    6MOL0     C  688   0.366   1.966   4.260  0.1331 -0.7910  0.0948
    6MOL0     C  689   0.248   2.061   4.214 -1.0427  0.2910  0.1120
    6MOL0     C  690   0.122   1.976   4.200  0.8698  0.1484 -0.5545
    6MOL0     C  691   0.006   2.065   4.227 -0.3882 -0.6861 -0.6269
    6MOL0     N  692  -0.117   1.994   4.182 -0.3968 -0.5327 -0.7396
    6MOL0     C  693  -0.218   2.027   4.102 -0.3774 -1.1682  0.0307
    6MOL0     C  694  -0.315   1.941   4.112 -0.4003 -0.3830 -0.6245
    6MOL0     C  695  -0.441   1.961   4.036  0.8155 -0.3332  0.4644
    6MOL0     C  696  -0.479   1.845   3.940  0.3728  0.4463 -0.4429
    6MOL0     C  697  -0.628   1.820   3.910  0.1825  0.8522  0.4546
    6MOL0     C  698  -0.693   1.789   4.044  0.6394 -0.3452  0.4385
    6MOL0     O  699  -0.812   1.715   4.003  0.3423 -0.0961 -0.3288
    6MOL0     C  700  -0.914   1.796   3.949  0.0547 -0.2098 -0.2112
    6MOL0     C  701  -0.977   1.743   3.836  0.2618  0.2220 -1.1617
    6MOL0     C  702  -1.070   1.832   3.773  1.1822 -0.3140 -0.6931
    6MOL0     C  703  -1.121   1.778   3.642 -0.7053  0.0609  0.1236
    6MOL0     C  704  -1.113   1.955   3.830  0.6232  0.1943 -0.1173
    6MOL0     C  705  -1.206   2.043   3.759 -1.3127  0.1900  0.4914
    6MOL0     O  706  -1.326   1.993   3.745  0.5739 -0.1787  0.1020
    6MOL0     C  707  -1.410   2.032   3.640 -0.6206 -0.8969  0.5315
    6MOL0     C  708  -1.358   2.077   3.516 -0.1141  0.6374 -0.5304
    6MOL0     C  709  -1.442   2.114   3.412 -0.0336  0.7233 -0.5541
    6MOL0     C  710  -1.578   2.077   3.423  0.0180  0.5553  0.1238
    6MOL0     O  711  -1.664   2.096   3.319 -0.2126 -0.7172 -0.3780
    6MOL0     C  712  -1.651   2.224   3.257 -0.2406 -1.0933 -0.1668
    6MOL0     C  713  -1.767   2.267   3.167  0.3198  0.1857 -0.6145
    6MOL0     C  714  -1.877   2.167   3.162  0.0161  0.1454  0.5753
    6MOL0     C  715  -1.988   2.236   3.077  0.8822  0.5592 -0.2918
    6MOL0     C  716  -2.093   2.129   3.038 -0.0773 -0.0354 -0.2604
    6MOL0     C  717  -2.216   2.200   2.984  0.3285  0.3492  0.0556
    6MOL0     C  718  -2.327   2.090   2.959 -0.2393  0.6081  0.1367
    6MOL0     C  719  -2.302   2.015   2.825  1.2658 -0.6536 -0.6613
    6MOL0    Cl  720  -2.412   1.879   2.784  0.0925  0.0334  0.0497
    6MOL0     C  721  -1.629   2.026   3.540 -0.4462 -0.1758  0.2386
    6MOL0     C  722  -1.545   2.021   3.656 -0.6048 -0.6614  0.2054
    6MOL0     O  723  -1.166   2.155   3.733  0.3456 -0.3117  1.3625
    6MOL0     C  724  -1.065   1.985   3.953 -0.4137  0.3627 -0.9803
    6MOL0     C  725  -0.958   1.910   4.009 -0.4978 -0.9852  0.2138
    6MOL0     N  726  -0.286   1.854   4.213 -0.2658  0.2503 -0.2014
    6MOL0     N  727  -0.167   1.886   4.253  0.4407 -0.2755 -0.3454
    6MOL0     C  728   0.731   2.034   4.882  0.3904 -0.4603 -0.0555
    6MOL0     C  729   0.773   2.136   4.971 -0.1827 -1.3851 -0.8646
    6MOL0     C  730   1.068   2.446   5.136 -0.1061  0.0081 -0.3266
    6MOL0     C  731   1.202   2.440   5.185  0.5729  0.5076  0.8265
    6MOL0     C  732   1.240   2.524   5.291  0.3128 -0.3570  0.2670
    6MOL0     C  733   1.154   2.618   5.342  0.2589  0.2460 -0.5740
    6MOL0     O  734   1.179   2.669   5.467  0.2651 -0.3777  0.1229
    6MOL0     C  735   1.248   2.790   5.449 -0.1048  0.0763 -0.8268
    6MOL0     C  736   1.343   2.829   5.557  0.6919 -0.8043 -0.0829
    6MOL0     C  737   1.459   2.731   5.562  0.1184 -0.5588 -0.6824
    6MOL0     C  738   1.542   2.757   5.693  0.5373  0.0949 -0.1603
    6MOL0     C  739   1.648   2.658   5.712  0.0454 -0.8348  0.2756
    6MOL0     C  740   1.723   2.573   5.720  0.1371  0.5565  0.0769
    6MOL0     C  741   1.021   2.616   5.300 -0.5140 -0.4826  0.0736
    6MOL0     C  742   0.981   2.553   5.183 -0.3784  0.7848 -0.1527
    6MOL0     H  743   0.844   2.386   4.759  1.3915 -0.0515  0.8553
    6MOL0     H  744   0.763   2.243   4.613 -0.1561  0.8925 -0.5202
    6MOL0     H  745   0.651   2.105   4.485 -0.0696 -0.0416 -2.1776
    6MOL0     H  746   0.801   2.001   4.477  1.2568 -4.2017  2.8477
    6MOL0     H  747   0.687   1.810   4.446 -0.2257  0.7995  2.3414
    6MOL0     H  748   0.536   1.890   4.468 -0.1191 -1.0803  1.0869
    6MOL0     H  749   0.713   1.988   4.246  0.1564 -2.0994 -4.0202
    6MOL0     H  750   0.616   1.855   4.219 -0.4282 -0.3599  0.6768
    6MOL0     H  751   0.494   2.127   4.316 -2.4488  0.3832 -1.1840
    6MOL0     H  752   0.494   2.071   4.146 -0.2501 -1.3555 -0.8269
    6MOL0     H  753   0.370   1.873   4.202  2.7555  0.4383 -1.9044
    6MOL0     H  754   0.340   1.932   4.361  0.6895  0.3353  0.6325
    6MOL0     H  755   0.223   2.131   4.295 -1.5377  1.3810 -0.9635
    6MOL0     H  756   0.271   2.111   4.120  1.7514 -1.7514 -0.4070
    6MOL0     H  757   0.094   1.946   4.099  0.2451 -1.5727  0.0990
    6MOL0     H  758   0.127   1.882   4.254  1.7468 -0.6019 -1.8807
    6MOL0     H  759   0.013   2.156   4.166  1.8921 -0.8661 -0.7212
    6MOL0     H  760  -0.012   2.090   4.332 -0.1915 -0.7101 -0.5879
    6MOL0     H  761  -0.213   2.120   4.047 -2.3508 -1.1746 -0.2335
    6MOL0     H  762  -0.522   1.972   4.109  0.0263 -1.1834 -0.2654
    6MOL0     H  763  -0.447   2.055   3.980 -0.1852  0.9046  2.5374
    6MOL0     H  764  -0.438   1.752   3.981 -0.4921  0.9428  1.6624
    6MOL0     H  765  -0.432   1.868   3.844  0.4129  2.0060 -0.0759
    6MOL0     H  766  -0.641   1.730   3.849  0.5368  0.2178  1.3023
    6MOL0     H  767  -0.678   1.903   3.857  0.4156  1.9966  1.9643
    6MOL0     H  768  -0.720   1.876   4.105 -2.2713 -0.4249 -0.5966
    6MOL0     H  769  -0.631   1.721   4.103  1.6557 -0.0981 -0.2993
    6MOL0     H  770  -0.956   1.645   3.794 -3.6056 -0.8404 -1.0033
    6MOL0     H  771  -1.221   1.810   3.611 -1.4282  0.1543  2.3642
    6MOL0     H  772  -1.043   1.804   3.570  1.9594  0.9746  3.1040
    6MOL0     H  773  -1.129   1.669   3.653  1.4775  0.0187  2.0301
    6MOL0     H  774  -1.251   2.091   3.506 -0.2395  2.3231  0.1888
    6MOL0     H  775  -1.406   2.151   3.317  1.0016 -3.1993 -1.8403
    6MOL0     H  776  -1.645   2.307   3.328 -0.0650 -1.8368  0.7102
    6MOL0     H  777  -1.557   2.220   3.201  0.6711 -1.0427  1.2866
    6MOL0     H  778  -1.811   2.366   3.182 -0.4291 -0.2581  0.1807
    6MOL0     H  779  -1.735   2.265   3.062  1.5213 -1.1981 -0.2530
    6MOL0     H  780  -1.928   2.129   3.251 -3.0254 -1.4838 -1.6678
    6MOL0     H  781  -1.843   2.082   3.103 -0.2576  0.1001  0.4832
    6MOL0     H  782  -2.035   2.316   3.135 -1.3112 -1.6029  1.0803
    6MOL0     H  783  -1.946   2.281   2.986 -0.3241  1.1032 -0.5943
    6MOL0     H  784  -2.130   2.077   3.127 -0.4225 -0.6052 -0.7311
    6MOL0     H  785  -2.053   2.048   2.976  0.4363  0.7731 -1.0281
    6MOL0     H  786  -2.251   2.266   3.063 -0.7894  1.0996 -1.0261
    6MOL0     H  787  -2.205   2.262   2.894 -1.7244  0.3947 -0.2247
    6MOL0     H  788  -2.423   2.141   2.957 -1.0691 -0.7759  1.5495
    6MOL0     H  789  -2.315   2.015   3.039  0.2893  1.8428  1.2490
    6MOL0     H  790  -2.196   1.988   2.822  1.7271  1.1484 -3.8505
    6MOL0     H  791  -2.329   2.097   2.759 -0.1914 -0.1433  0.4923
    6MOL0     H  792  -1.735   2.006   3.546 -1.2789  2.8241 -2.1040
    6MOL0     H  793  -1.591   1.975   3.742 -2.6490 -2.8683 -1.9048
    6MOL0     H  794  -1.108   2.077   3.993  0.1342  1.2922 -2.4328
    6MOL0     H  795  -0.920   1.956   4.100 -2.5122  1.2443  0.0393
    6MOL0     H  796   0.705   1.941   4.931  2.0757 -1.1854 -0.4520
    6MOL0     H  797   0.787   2.118   5.077 -1.5145 -2.8254 -0.8947
    6MOL0     H  798   1.265   2.362   5.144  0.2623  1.0211 -0.6921
    6MOL0     H  799   1.340   2.523   5.333  0.7647 -0.6000 -0.7717
    6MOL0     H  800   1.304   2.803   5.356 -0.4822 -1.5031 -1.2909
    6MOL0     H  801   1.174   2.871   5.451 -1.3497 -1.0430  0.5461
    6MOL0     H  802   1.284   2.833   5.650 -0.0052 -0.5324 -0.5268
    6MOL0     H  803   1.385   2.926   5.531 -2.9431  0.8578 -0.3448
    6MOL0     H  804   1.528   2.752   5.479 -0.3949 -4.3845 -2.2909
    6MOL0     H  805   1.431   2.625   5.559  1.2337 -0.8505 -1.6292
    6MOL0     H  806   1.468   2.745   5.773 -0.1418  2.5022 -0.3593
    6MOL0     H  807   1.577   2.861   5.691 -1.0221  0.6402 -1.3433
    6MOL0     H  808   1.785   2.485   5.729  1.8722  1.7873  0.6926
    6MOL0     H  809   0.955   2.691   5.344 -1.1058 -0.8919 -0.1182
    6MOL0     H  810   0.874   2.551   5.165 -0.6830  0.4650  1.5021
    7MOL0     O  811   7.540  10.709   5.253  0.0092  0.0877  0.8420
    7MOL0     C  812   7.450  10.644   5.197  0.1365  0.0440  1.0788
    7MOL0     O  813   7.471  10.533   5.122 -0.5769 -0.0533  0.1481
    7MOL0     C  814   7.586  10.474   5.162  0.6071  0.3613  0.5473
    7MOL0     C  815   7.581  10.387   5.270  0.0031 -0.2552 -0.3097
    7MOL0     C  816   7.694  10.317   5.309 -0.5115 -0.5890 -0.9557
    7MOL0     C  817   7.822  10.335   5.241 -0.9266 -0.2360  0.3546
    7MOL0     O  818   7.946  10.295   5.282  0.2770 -0.0501 -0.1796
    7MOL0     C  819   7.961  10.260   5.423  0.0140  0.2822 -0.5110
    7MOL0     C  820   8.098  10.287   5.465  0.3290  0.4815 -0.3917
    7MOL0     C  821   8.194  10.165   5.442  0.0297 -0.2759 -0.0634
    7MOL0     C  822   8.331  10.192   5.513 -0.1051  1.0590 -0.5476
    7MOL0     C  823   8.412  10.303   5.448 -0.2896 -0.8393  0.3714
    7MOL0     C  824   8.554  10.328   5.503 -0.1478 -0.0111 -0.5874
    7MOL0     C  825   8.639  10.441   5.435  0.9660  0.5648  0.3025
    7MOL0     C  826   8.787  10.458   5.482 -0.8603  0.7635 -0.3256
    7MOL0     N  827   8.856  10.559   5.404  0.1943  1.0790 -0.2139
    7MOL0     C  828   8.829  10.692   5.406  0.5953  0.2084  0.2031
    7MOL0     C  829   8.842  10.741   5.280 -0.6273 -0.1215  0.3551
    7MOL0     C  830   8.821  10.876   5.222 -0.2161 -0.5506  0.1016
    7MOL0     C  831   8.669  10.914   5.215 -1.1553 -0.0400 -0.7036
    7MOL0     C  832   8.652  11.053   5.147 -0.5366 -0.0506 -0.7012
    7MOL0     C  833   8.537  11.060   5.044  0.3967  0.4514  0.4478
    7MOL0     O  834   8.417  10.991   5.090 -0.2148  0.4918 -0.3722
    7MOL0     C  835   8.325  11.054   5.173 -0.7327  1.1054  1.5553
    7MOL0     C  836   8.336  11.184   5.219 -0.0932  0.5135 -0.0019
    7MOL0     C  837   8.232  11.246   5.279 -0.2424 -0.3313  0.3454
    7MOL0     C  838   8.273  11.386   5.321 -0.0976 -0.1334  0.4717
    7MOL0     C  839   8.110  11.170   5.300 -0.0764 -0.4609  0.8739
    7MOL0     C  840   7.997  11.229   5.374 -0.5841 -0.4449  1.1001
    7MOL0     O  841   7.873  11.159   5.372  0.5288 -0.5467  0.6117
    7MOL0     C  842   7.756  11.218   5.388 -1.2977  0.4467  0.0911
    7MOL0     C  843   7.730  11.312   5.492 -0.2356 -0.3703  0.2549
    7MOL0     C  844   7.606  11.372   5.514 -0.1380 -0.8006  0.8983
    7MOL0     C  845   7.507  11.334   5.427 -0.1562  0.7124 -0.0993
    7MOL0     O  846   7.378  11.379   5.426  0.0634 -0.4789 -0.1236
    7MOL0     C  847   7.334  11.444   5.545 -0.6179  0.7779 -0.2595
    7MOL0     C  848   7.189  11.494   5.511  0.1423  0.5673 -0.4097
    7MOL0     C  849   7.139  11.568   5.638  0.2123  0.2287  0.3577
    7MOL0     C  850   6.991  11.610   5.627  0.4178  0.2536 -0.5680
    7MOL0     C  851   6.909  11.586   5.750 -0.9013 -0.3274  0.6168
    7MOL0     C  852   6.772  11.633   5.724  0.7531  0.2444  0.1874
    7MOL0     C  853   6.675  11.622   5.841  0.0816 -0.3002  0.3782
    7MOL0     C  854   6.735  11.725   5.939 -0.9313  0.6768  0.4565
    7MOL0    Cl  855   6.596  11.780   6.038 -0.1332 -0.4877  0.2965
    7MOL0     C  856   7.530  11.238   5.330  0.0759  0.2790  0.1165
    7MOL0     C  857   7.650  11.186   5.304  0.1920  0.0827 -0.1846
    7MOL0     O  858   8.018  11.335   5.428 -1.3724  0.0949  0.3730
    7MOL0     C  859   8.103  11.035   5.252 -0.0852 -0.0990  0.0676
    7MOL0     C  860   8.213  10.978   5.198 -0.3629 -0.6860  1.0683
    7MOL0     N  861   8.904  10.634   5.213  0.4429 -0.2543 -0.3994
    7MOL0     N  862   8.911  10.522   5.287 -0.3299 -0.7860  0.1216
    7MOL0     C  863   7.820  10.417   5.116 -0.7703 -0.5775 -0.3508
    7MOL0     C  864   7.703  10.494   5.088  0.0536 -0.5193 -1.2783
    7MOL0     C  865   7.311  10.686   5.212  0.0875  0.7363  0.6568
    7MOL0     C  866   7.277  10.804   5.279  0.1864  0.0832 -0.5962
    7MOL0     C  867   7.141  10.831   5.304 -0.5131 -0.2467  0.4712
    7MOL0     C  868   7.041  10.768   5.228 -0.4850  0.2977  0.1991
    7MOL0     O  869   6.918  10.818   5.260 -0.1715  0.6957  0.8333
    7MOL0     C  870   6.816  10.785   5.164 -0.3169  1.1207  0.2968
    7MOL0     C  871   6.669  10.764   5.214 -0.2619 -1.1242  0.0976
    7MOL0     C  872   6.610  10.901   5.243 -0.0641  0.0050 -0.2796
    7MOL0     C  873   6.476  10.897   5.322  0.1384 -0.8839 -0.0984
    7MOL0     C  874   6.398  11.023   5.328  0.7122 -0.7868 -0.1223
    7MOL0     C  875   6.321  11.115   5.304  0.0891  0.0698  0.7622
    7MOL0     C  876   7.079  10.663   5.149  0.2039  0.4029 -0.1095
    7MOL0     C  877   7.211  10.613   5.147  0.4578 -0.2263 -0.7925
    7MOL0     H  878   7.488  10.381   5.326  1.2860 -1.2815  1.8618
    7MOL0     H  879   7.686  10.261   5.402  0.2842 -2.2738 -1.8597
    7MOL0     H  880   7.888  10.299   5.495  1.5054 -2.7970  3.0150
    7MOL0     H  881   7.936  10.154   5.429  1.7880 -0.1328  0.5521
    7MOL0     H  882   8.126  10.379   5.414 -1.3313  0.4167 -1.4867
    7MOL0     H  883   8.108  10.314   5.570  3.8001 -2.7986  0.3423
    7MOL0     H  884   8.142  10.078   5.483  0.1332 -1.4799 -2.2792
    7MOL0     H  885   8.213  10.139   5.337  0.7031 -1.7363  0.3970
    7MOL0     H  886   8.317  10.208   5.621  5.6994  2.0489  0.3659
    7MOL0     H  887   8.394  10.102   5.511 -2.8162 -1.0298  0.5224
    7MOL0     H  888   8.428  10.278   5.343 -0.5451 -1.4692  0.4774
    7MOL0     H  889   8.349  10.393   5.454  1.0335  0.1783 -0.4970
    7MOL0     H  890   8.548  10.343   5.612  1.0443 -3.9949  0.1730
    7MOL0     H  891   8.607  10.233   5.496 -0.7109 -0.5054  1.2177
    7MOL0     H  892   8.635  10.415   5.329  1.7100 -2.1043  0.8424
    7MOL0     H  893   8.592  10.539   5.444 -1.5578 -0.4262 -0.9716
    7MOL0     H  894   8.847  10.367   5.472  2.1834  2.3432  2.1602
    7MOL0     H  895   8.779  10.477   5.590  2.0874 -0.8391  0.2778
    7MOL0     H  896   8.782  10.743   5.490  0.7934  1.3134 -0.3393
    7MOL0     H  897   8.878  10.947   5.283  2.4504 -0.0514 -2.7339
    7MOL0     H  898   8.860  10.859   5.121 -0.2670 -2.2596  0.3525
    7MOL0     H  899   8.620  10.911   5.313  4.2119  1.0533  2.4498
    7MOL0     H  900   8.625  10.841   5.147  1.4924 -2.2067 -0.2846
    7MOL0     H  901   8.750  11.078   5.104 -0.7521  2.4512  0.0560
    7MOL0     H  902   8.649  11.133   5.222  1.0104  0.2170 -0.8776
    7MOL0     H  903   8.584  11.008   4.960 -1.6681 -0.2224 -0.3588
    7MOL0     H  904   8.512  11.164   5.023  1.6766  1.0244  1.6379
    7MOL0     H  905   8.430  11.235   5.199 -0.1795  0.6706 -0.0111
    7MOL0     H  906   8.255  11.403   5.428  2.5961  0.8461  0.8558
    7MOL0     H  907   8.379  11.404   5.299  0.2500 -0.7313  1.5798
    7MOL0     H  908   8.223  11.463   5.261  1.6747  1.8685  1.4114
    7MOL0     H  909   7.802  11.336   5.569 -1.4878  0.7326  1.1333
    7MOL0     H  910   7.595  11.446   5.592  0.4244 -0.6703  0.8574
    7MOL0     H  911   7.349  11.377   5.630 -0.8105  0.2839 -0.6096
    7MOL0     H  912   7.393  11.534   5.558  1.1339 -0.2536 -0.7508
    7MOL0     H  913   7.182  11.552   5.419  0.7386  1.1397 -0.1054
    7MOL0     H  914   7.132  11.404   5.487 -1.2830  0.5739  2.5254
    7MOL0     H  915   7.205  11.653   5.659  0.5350 -0.0352  0.4116
    7MOL0     H  916   7.148  11.495   5.718 -0.8270  0.4860  0.7269
    7MOL0     H  917   6.993  11.717   5.604  0.8990  0.5035  0.5751
    7MOL0     H  918   6.937  11.568   5.542  0.1006 -0.5539  0.0216
    7MOL0     H  919   6.961  11.648   5.824  1.7067  2.0741 -2.8951
    7MOL0     H  920   6.907  11.486   5.793 -5.2359 -0.5091  0.4141
    7MOL0     H  921   6.774  11.735   5.684  0.6410  0.8782  1.7444
    7MOL0     H  922   6.735  11.563   5.648  0.2800 -2.1832  2.5248
    7MOL0     H  923   6.659  11.523   5.885  0.2550  0.9062  3.3881
    7MOL0     H  924   6.575  11.650   5.805  0.5254 -0.3794 -0.9998
    7MOL0     H  925   6.783  11.806   5.884  2.8893 -1.3082  0.5747
    7MOL0     H  926   6.806  11.667   6.000 -1.1977  0.6344  0.7335
    7MOL0     H  927   7.444  11.200   5.274  1.8599 -1.7333 -1.4436
    7MOL0     H  928   7.661  11.101   5.238 -1.1031  2.0025 -3.0882
    7MOL0     H  929   8.020  10.968   5.273  0.0737 -0.0581  0.8452
    7MOL0     H  930   8.198  10.884   5.146 -1.4768  0.3960 -0.6746
    7MOL0     H  931   7.910  10.433   5.058  1.4823 -6.9611  0.5276
    7MOL0     H  932   7.688  10.553   4.999 -2.7533 -2.3332 -2.1354
    7MOL0     H  933   7.362  10.859   5.319  0.8851 -1.4450  0.1125
    7MOL0     H  934   7.130  10.914   5.373  2.8580  1.2018 -0.5406
    7MOL0     H  935   6.800  10.855   5.082  2.0230 -0.6744 -1.8626
    7MOL0     H  936   6.828  10.692   5.107  2.2132 -0.1679  2.6829
    7MOL0     H  937   6.667  10.712   5.310 -2.3905  1.6182  1.7077
    7MOL0     H  938   6.614  10.711   5.136 -0.3692  0.5899 -1.0560
    7MOL0     H  939   6.596  10.951   5.147 -2.3502 -3.8563 -2.1971
    7MOL0     H  940   6.688  10.960   5.292  0.2529  0.5922 -1.4527
    7MOL0     H  941   6.498  10.867   5.425  0.1872 -0.8934 -0.1115
    7MOL0     H  942   6.412  10.825   5.271  0.0112 -0.7764 -0.0911
    7MOL0     H  943   6.248  11.193   5.296 -0.7730 -0.7514  0.5114
    7MOL0     H  944   7.014  10.611   5.079  1.1370  1.0281 -1.4913
    7MOL0     H  945   7.230  10.539   5.070  2.5381  3.4733 -4.2449
    8MOL0     O  946   3.918  10.394   7.349 -0.0413  0.0769  0.2513
    8MOL0     C  947   3.832  10.452   7.415  0.1852 -0.4589 -0.6048
    8MOL0     O  948   3.860  10.546   7.520  0.1681 -0.3412  0.7105
    8MOL0     C  949   3.990  10.570   7.556  0.2285 -0.4427  0.4439
    8MOL0     C  950   4.049  10.690   7.515  0.0844 -0.4259 -0.1175
    8MOL0     C  951   4.175  10.726   7.554 -0.4222 -0.1927 -0.0918
    8MOL0     C  952   4.247  10.644   7.643  0.3704 -0.5336  0.3500
    8MOL0     O  953   4.372  10.702   7.671 -0.0564 -1.2093 -0.0721
    8MOL0     C  954   4.454  10.632   7.762  0.0968 -0.0905  0.6650
    8MOL0     C  955   4.418  10.674   7.908  1.1800  0.1943  0.3004
    8MOL0     C  956   4.523  10.676   8.021 -0.0558  0.8944 -0.3377
    8MOL0     C  957   4.636  10.770   7.983 -0.4860 -0.3378  0.2724
    8MOL0     C  958   4.725  10.802   8.105  0.1850  0.7692 -0.7435
    8MOL0     C  959   4.794  10.933   8.087  0.1716 -0.3196 -0.0782
    8MOL0     C  960   4.889  10.982   8.193 -0.5974  0.3445  0.1327
    8MOL0     C  961   4.916  11.131   8.197 -0.5212 -0.1237  0.8639
    8MOL0     N  962   4.996  11.175   8.310 -0.1914  0.2942 -0.1130
    8MOL0     C  963   4.979  11.130   8.434 -0.4609  0.3643  0.3026
    8MOL0     C  964   5.073  11.186   8.506 -0.5752  0.9482  0.6120
    8MOL0     C  965   5.083  11.171   8.653  0.5940  1.1198 -0.4632
    8MOL0     C  966   5.211  11.213   8.712 -0.9737  0.8651 -0.7201
    8MOL0     C  967   5.203  11.212   8.873 -0.1565 -0.4512 -0.8822
    8MOL0     C  968   5.338  11.237   8.944 -0.6160 -0.3769  0.1413
    8MOL0     O  969   5.398  11.109   8.955  0.1792 -0.0701 -0.6932
    8MOL0     C  970   5.533  11.101   8.980  0.1379  0.6108  0.3661
    8MOL0     C  971   5.588  10.973   8.974  0.2536  0.5969 -0.7851
    8MOL0     C  972   5.718  10.949   9.014 -0.0554  0.0936 -0.0583
    8MOL0     C  973   5.772  10.811   8.998 -0.8510  1.0126  0.2874
    8MOL0     C  974   5.794  11.053   9.067 -0.5297  1.1708  0.2823
    8MOL0     C  975   5.917  11.026   9.136  1.3616 -0.3559  0.6035
    8MOL0     O  976   6.016  11.110   9.111  0.3516 -0.5246 -0.0022
    8MOL0     C  977   6.126  11.111   9.193  0.9177  0.0738  0.7469
    8MOL0     C  978   6.255  11.129   9.136  0.4350  0.2301  1.3388
    8MOL0     C  979   6.370  11.110   9.202  0.3304  0.1214  0.2228
    8MOL0     C  980   6.364  11.090   9.341 -0.7337 -0.7424  0.0977
    8MOL0     O  981   6.472  11.093   9.419 -0.1796  0.4202 -0.1290
    8MOL0     C  982   6.613  11.070   9.369  1.5912  0.5589  0.1996
    8MOL0     C  983   6.632  10.926   9.317 -0.3903  0.3354 -0.3569
    8MOL0     C  984   6.766  10.900   9.253 -0.6999 -0.2494 -0.0382
    8MOL0     C  985   6.783  10.769   9.182 -0.6532 -0.1556 -0.1512
    8MOL0     C  986   6.919  10.762   9.117 -0.1969  0.0564 -0.0132
    8MOL0     C  987   6.918  10.652   9.012 -0.1907 -0.1193  1.1794
    8MOL0     C  988   7.062  10.659   8.942  0.2774  1.0273 -0.5799
    8MOL0     C  989   7.068  10.608   8.798 -0.5452  0.4229 -0.3896
    8MOL0    Cl  990   7.016  10.736   8.678  0.2387  0.3166  0.0704
    8MOL0     C  991   6.243  11.068   9.401 -0.4328 -0.3974  0.2771
    8MOL0     C  992   6.123  11.072   9.332  0.6524  0.5163  0.7264
    8MOL0     O  993   5.915  10.932   9.215 -0.7799 -0.8284  0.4769
    8MOL0     C  994   5.743  11.187   9.080  0.4305  0.6572 -0.1234
    8MOL0     C  995   5.607  11.202   9.034  0.5099 -0.2662  0.1791
    8MOL0     N  996   5.148  11.267   8.421  0.8336  0.9762 -0.4965
    8MOL0     N  997   5.101  11.248   8.304 -0.5059  0.2549  0.6108
    8MOL0     C  998   4.196  10.519   7.683 -0.4365 -1.5470 -0.3823
    8MOL0     C  999   4.065  10.486   7.646 -0.2098  0.1325  0.9816
    8MOL0     C 1000   3.687  10.431   7.374 -0.6066  0.1949  0.5466
    8MOL0     C 1001   3.652  10.352   7.263  0.4745 -0.1444  0.0980
    8MOL0     C 1002   3.521  10.345   7.222  0.4655 -0.3327 -0.1450
    8MOL0     C 1003   3.425  10.412   7.292 -0.0511  0.4912 -0.1708
    8MOL0     O 1004   3.296  10.396   7.244 -0.4915 -0.2201  0.5881
    8MOL0     C 1005   3.191  10.449   7.322  0.3985  0.1816 -0.4290
    8MOL0     C 1006   3.061  10.388   7.274  0.5314 -0.2047  0.6363
    8MOL0     C 1007   2.939  10.446   7.344  0.1494 -0.2358 -0.4010
    8MOL0     C 1008   2.817  10.395   7.270 -0.4255 -0.2455  0.8223
    8MOL0     C 1009   2.811  10.243   7.249  0.0207  0.3273 -0.0628
    8MOL0     C 1010   2.793  10.121   7.236 -0.1726  0.0311  0.6417
    8MOL0     C 1011   3.464  10.501   7.394  0.5472 -1.1697 -0.7439
    8MOL0     C 1012   3.600  10.513   7.435  1.1517 -0.7365  0.2986
    8MOL0     H 1013   3.975  10.743   7.455 -0.6670 -1.8494 -0.4988
    8MOL0     H 1014   4.204  10.826   7.523  3.8096 -1.4022 -0.7018
    8MOL0     H 1015   4.457  10.526   7.735  0.2054  0.0538  0.1056
    8MOL0     H 1016   4.557  10.668   7.747  0.4112 -0.8722  0.9103
    8MOL0     H 1017   4.364  10.769   7.915 -2.3496 -1.7116  1.2455
    8MOL0     H 1018   4.346  10.595   7.932  1.5774 -0.5406 -0.8301
    8MOL0     H 1019   4.466  10.701   8.111 -0.4451 -2.8918  0.6442
    8MOL0     H 1020   4.566  10.576   8.030 -0.4988  0.3651 -3.1590
    8MOL0     H 1021   4.710  10.729   7.913  2.1854  2.6713  1.1100
    8MOL0     H 1022   4.602  10.862   7.935 -0.9288 -1.6345 -2.0699
    8MOL0     H 1023   4.655  10.807   8.188  1.5039  0.4814  0.4085
    8MOL0     H 1024   4.795  10.720   8.122 -1.4033 -0.3222  0.9152
    8MOL0     H 1025   4.858  10.929   7.998  0.7380  2.2905  0.1473
    8MOL0     H 1026   4.724  11.014   8.064  1.2893  1.5814  2.7299
    8MOL0     H 1027   4.862  10.948   8.293 -2.0535  0.8335 -0.0734
    8MOL0     H 1028   4.987  10.937   8.174 -0.4819 -1.2016  3.5234
    8MOL0     H 1029   4.825  11.191   8.204 -0.9334 -0.6577  0.1688
    8MOL0     H 1030   4.964  11.155   8.102  2.4365 -1.5876  1.8671
    8MOL0     H 1031   4.899  11.064   8.465 -0.3689 -0.2146 -0.6482
    8MOL0     H 1032   4.995  11.218   8.698 -1.0178 -0.4664 -1.7900
    8MOL0     H 1033   5.080  11.063   8.668  2.2704  1.0838 -0.2126
    8MOL0     H 1034   5.233  11.315   8.678 -0.3012  1.1125  0.4132
    8MOL0     H 1035   5.294  11.153   8.674 -0.0327 -0.7813  3.3691
    8MOL0     H 1036   5.167  11.114   8.905  0.9898 -0.1491  1.5603
    8MOL0     H 1037   5.139  11.292   8.911 -0.3498 -0.1599 -1.8040
    8MOL0     H 1038   5.330  11.277   9.046  2.9350  2.1390 -0.3648
    8MOL0     H 1039   5.393  11.315   8.889 -2.5462 -0.2181 -1.6948
    8MOL0     H 1040   5.526  10.898   8.926 -0.7052  1.0867 -0.3182
    8MOL0     H 1041   5.774  10.753   9.091 -0.7319 -2.7173 -1.8378
    8MOL0     H 1042   5.706  10.761   8.926 -0.4418 -1.6627  1.6209
    8MOL0     H 1043   5.871  10.819   8.951  0.8532 -0.4255  3.3039
    8MOL0     H 1044   6.264  11.138   9.028 -0.9954 -2.2906  0.9353
    8MOL0     H 1045   6.468  11.093   9.159  0.3776 -4.1949  1.5862
    8MOL0     H 1046   6.631  11.132   9.281  1.0059 -0.9886 -1.0463
    8MOL0     H 1047   6.684  11.099   9.447  2.8705 -2.3014  0.2077
    8MOL0     H 1048   6.627  10.856   9.401 -0.8326 -1.6276 -1.9449
    8MOL0     H 1049   6.546  10.914   9.250  0.2030  1.8353 -1.4401
    8MOL0     H 1050   6.842  10.908   9.331  1.6024  2.0860 -2.3267
    8MOL0     H 1051   6.779  10.978   9.178 -0.7436  0.0989  0.3133
    8MOL0     H 1052   6.789  10.677   9.242  4.1091  0.2567  0.3398
    8MOL0     H 1053   6.704  10.757   9.107 -0.2117  1.2828 -0.8741
    8MOL0     H 1054   6.989  10.731   9.195 -0.1538  0.4529  0.1090
    8MOL0     H 1055   6.952  10.858   9.074 -0.5541 -0.1001 -0.6499
    8MOL0     H 1056   6.908  10.554   9.058  3.7116 -2.2659 -1.8481
    8MOL0     H 1057   6.840  10.679   8.941  1.7029 -2.7289 -2.2057
    8MOL0     H 1058   7.140  10.601   8.992 -0.6006  2.1940  2.3341
    8MOL0     H 1059   7.099  10.762   8.943  2.4665  0.2927 -1.5267
    8MOL0     H 1060   7.014  10.513   8.802 -1.0230  0.7297  2.3543
    8MOL0     H 1061   7.169  10.576   8.772 -0.8233 -0.5451 -0.3051
    8MOL0     H 1062   6.240  11.056   9.509 -0.0798  0.5434  0.4007
    8MOL0     H 1063   6.031  11.038   9.379 -0.2415  0.4250 -1.0153
    8MOL0     H 1064   5.799  11.262   9.134 -0.5524  0.6813  0.8967
    8MOL0     H 1065   5.552  11.296   9.043 -4.4942 -2.2068 -4.5169
    8MOL0     H 1066   4.247  10.447   7.745  0.3473 -1.7982 -1.2916
    8MOL0     H 1067   4.035  10.384   7.667  2.4022 -0.7773  0.6343
    8MOL0     H 1068   3.730  10.292   7.216 -0.1175 -0.0630 -1.0075
    8MOL0     H 1069   3.500  10.290   7.131  0.2911 -0.8028  0.1780
    8MOL0     H 1070   3.210  10.422   7.426  0.6152 -0.2520 -0.5753
    8MOL0     H 1071   3.187  10.557   7.304  1.6474  0.7782  2.2713
    8MOL0     H 1072   3.070  10.279   7.278 -0.5076 -0.5518 -2.7067
    8MOL0     H 1073   3.049  10.406   7.166  0.5847 -0.7815  0.5296
    8MOL0     H 1074   2.942  10.555   7.343  2.0619 -0.2206  1.2858
    8MOL0     H 1075   2.930  10.421   7.450 -3.6163  1.4861 -0.1570
    8MOL0     H 1076   2.801  10.439   7.171  0.9633 -1.3880  0.0366
    8MOL0     H 1077   2.727  10.421   7.325 -0.7392  0.6680 -0.0949
    8MOL0     H 1078   2.762  10.019   7.227 -1.1487  0.4485 -1.1963
    8MOL0     H 1079   3.395  10.565   7.448  3.1228  1.2052 -0.0214
    8MOL0     H 1080   3.628  10.592   7.505  3.9207  0.0980 -1.5754
    9MOL0     O 1081   7.488   5.788   8.256 -0.7586 -0.6118  0.3484
    9MOL0     C 1082   7.540   5.718   8.168 -0.3243  0.7189 -0.9975
    9MOL0     O 1083   7.465   5.630   8.099  0.1528 -0.6943 -0.5373
    9MOL0     C 1084   7.332   5.624   8.134 -0.1949  1.2912 -0.8929
    9MOL0     C 1085   7.232   5.664   8.038 -0.3539  0.2048 -1.2251
    9MOL0     C 1086   7.096   5.648   8.064 -0.1873 -0.4231 -0.4530
    9MOL0     C 1087   7.057   5.588   8.178  0.5869  0.2676 -0.8310
    9MOL0     O 1088   6.927   5.554   8.194  0.0198 -0.0171  0.8113
    9MOL0     C 1089   6.883   5.478   8.313 -0.8193  0.4684  0.6330
    9MOL0     C 1090   6.733   5.440   8.321 -0.0856 -0.3928 -0.3974
    9MOL0     C 1091   6.632   5.551   8.294 -0.4873 -0.2728  0.0067
    9MOL0     C 1092   6.494   5.522   8.359  0.1218  0.9316  0.2133
    9MOL0     C 1093   6.418   5.402   8.297  0.4459 -0.9276 -0.5029
    9MOL0     C 1094   6.410   5.408   8.137 -0.2231  0.1955 -0.6702
    9MOL0     C 1095   6.304   5.319   8.085  0.9923  0.3082  0.1270
    9MOL0     C 1096   6.337   5.171   8.113 -0.5722 -0.0742 -0.8130
    9MOL0     N 1097   6.244   5.090   8.038 -0.6460 -0.4680  0.4036
    9MOL0     C 1098   6.234   5.068   7.899 -0.1756  0.0588 -1.1876
    9MOL0     C 1099   6.119   5.003   7.890  0.3653 -0.5707  0.7966
    9MOL0     C 1100   6.069   4.964   7.753 -0.5610 -0.3816 -0.4506
    9MOL0     C 1101   5.977   5.064   7.681  0.0744 -0.7443  0.0093
    9MOL0     C 1102   5.846   5.072   7.764 -0.1521 -0.1860  0.2276
    9MOL0     C 1103   5.759   5.190   7.714 -0.2160 -0.4913 -0.3047
    9MOL0     O 1104   5.704   5.151   7.587 -0.3265 -0.9995 -0.4689
    9MOL0     C 1105   5.595   5.223   7.556 -1.1636  0.0803  0.6477
    9MOL0     C 1106   5.568   5.366   7.566  0.5140 -0.1773 -0.3357
    9MOL0     C 1107   5.466   5.429   7.493  0.5730 -0.1546  0.9697
    9MOL0     C 1108   5.427   5.570   7.530 -0.2733 -0.1292  0.0152
    9MOL0     C 1109   5.389   5.362   7.395 -0.4307 -0.1635 -0.7023
    9MOL0     C 1110   5.276   5.423   7.315 -0.4934  0.4517  0.0356
    9MOL0     O 1111   5.195   5.326   7.259  0.1378 -0.6510  0.2944
    9MOL0     C 1112   5.084   5.342   7.183 -0.1182  0.2044  0.0977
    9MOL0     C 1113   5.082   5.437   7.076 -0.5703 -0.1022 -0.0916
    9MOL0     C 1114   4.962   5.457   7.008  0.6974  1.1666  0.2631
    9MOL0     C 1115   4.852   5.375   7.030 -1.1351 -0.3973  0.0134
    9MOL0     O 1116   4.746   5.381   6.945 -0.5587  0.5773  0.6922
    9MOL0     C 1117   4.715   5.500   6.873  0.7201  0.0659 -0.7596
    9MOL0     C 1118   4.559   5.520   6.855 -0.6179  0.3639 -0.2276
    9MOL0     C 1119   4.514   5.644   6.756 -0.5847 -0.3054  1.0871
    9MOL0     C 1120   4.367   5.641   6.719  0.3273 -0.6983  0.9929
    9MOL0     C 1121   4.272   5.658   6.843  0.2897 -0.1330  0.6795
    9MOL0     C 1122   4.132   5.693   6.797 -0.3141  0.8313 -0.2489
    9MOL0     C 1123   4.119   5.841   6.765 -0.9644 -0.1903 -0.0568
    9MOL0     C 1124   3.978   5.884   6.721  0.8180  0.1875 -0.4238
    9MOL0    Cl 1125   3.932   5.814   6.569  0.1398 -0.2883 -0.2919
    9MOL0     C 1126   4.857   5.288   7.133  0.7689  0.0232 -0.0981
    9MOL0     C 1127   4.974   5.274   7.216 -0.2894  0.3209 -0.7205
    9MOL0     O 1128   5.274   5.538   7.288 -0.1976 -0.4881  0.0374
    9MOL0     C 1129   5.405   5.216   7.398 -0.0799 -0.3230  0.2995
    9MOL0     C 1130   5.503   5.147   7.478 -1.0778 -0.0325  0.1123
    9MOL0     N 1131   6.061   4.979   8.013  0.0970 -0.2718 -0.5600
    9MOL0     N 1132   6.138   5.037   8.098  0.1545  0.7042  0.0495
    9MOL0     C 1133   7.147   5.559   8.289  0.7947 -0.6366  0.6943
    9MOL0     C 1134   7.285   5.581   8.265 -0.0085 -0.2120  0.4534
    9MOL0     C 1135   7.672   5.758   8.112  0.0158  0.1611  0.1298
    9MOL0     C 1136   7.733   5.684   8.020 -0.4625 -0.3858  0.1908
    9MOL0     C 1137   7.864   5.714   7.977  0.7803  0.8338 -0.2671
    9MOL0     C 1138   7.941   5.826   8.015  1.1252  0.0328  0.3894
    9MOL0     O 1139   8.066   5.847   7.981 -1.1513 -0.0006  0.5203
    9MOL0     C 1140   8.131   5.746   7.899  0.1019 -0.3468  0.4104
    9MOL0     C 1141   8.270   5.800   7.856  0.8156 -0.4452  0.0597
    9MOL0     C 1142   8.389   5.789   7.946 -0.1956 -0.3803 -0.3325
    9MOL0     C 1143   8.521   5.809   7.866  0.0472  0.3903 -1.0434
    9MOL0     C 1144   8.646   5.817   7.956  0.6874 -0.1103  0.3522
    9MOL0     C 1145   8.751   5.816   8.006 -0.1873 -0.3934  0.1949
    9MOL0     C 1146   7.875   5.900   8.115  0.0674 -0.6894 -0.3178
    9MOL0     C 1147   7.745   5.865   8.163 -0.4678 -0.1972 -0.2418
    9MOL0     H 1148   7.275   5.687   7.941  0.7101  0.3617 -0.7241
    9MOL0     H 1149   7.022   5.669   7.988 -0.9050  3.8679  1.1616
    9MOL0     H 1150   6.939   5.384   8.318 -1.5134 -0.0100 -0.2108
    9MOL0     H 1151   6.907   5.530   8.406  1.9333  0.7414 -0.1586
    9MOL0     H 1152   6.700   5.361   8.253 -1.0362  0.4758 -0.9755
    9MOL0     H 1153   6.718   5.404   8.423  1.0914 -1.3846 -0.5491
    9MOL0     H 1154   6.672   5.644   8.335 -1.0435 -0.6875  1.5708
    9MOL0     H 1155   6.625   5.552   8.185  1.9249 -3.8470 -0.3556
    9MOL0     H 1156   6.507   5.510   8.467  1.1762  2.0295  0.2315
    9MOL0     H 1157   6.431   5.608   8.336  0.8894  1.8267  1.2992
    9MOL0     H 1158   6.469   5.313   8.337 -1.4856 -0.8843  2.4186
    9MOL0     H 1159   6.322   5.406   8.350  1.5072  1.3070  1.4224
    9MOL0     H 1160   6.389   5.514   8.122 -2.3556  0.3996  2.8352
    9MOL0     H 1161   6.509   5.397   8.090  0.3720  0.9175  0.3643
    9MOL0     H 1162   6.204   5.345   8.122  1.4552  0.3276  1.4504
    9MOL0     H 1163   6.302   5.334   7.977  3.1952 -2.8627 -0.4847
    9MOL0     H 1164   6.338   5.149   8.221 -2.0681 -0.7952 -0.9116
    9MOL0     H 1165   6.441   5.151   8.088 -0.2383 -0.6766  0.8963
    9MOL0     H 1166   6.306   5.101   7.825  0.8103  4.2096  1.2991
    9MOL0     H 1167   6.152   4.934   7.689 -0.7759 -2.5162  0.2222
    9MOL0     H 1168   6.011   4.872   7.757 -4.0509  1.5920 -0.9203
    9MOL0     H 1169   5.958   5.036   7.578 -0.6007 -1.1786  0.2461
    9MOL0     H 1170   6.027   5.160   7.664  2.1129 -1.8581 -0.5723
    9MOL0     H 1171   5.866   5.096   7.870  0.5644  1.0383 -0.1567
    9MOL0     H 1172   5.795   4.976   7.762 -1.6018  0.5774 -0.2778
    9MOL0     H 1173   5.812   5.282   7.688 -0.3474 -0.2769  0.1734
    9MOL0     H 1174   5.685   5.219   7.789 -0.5538 -2.4429  0.1858
    9MOL0     H 1175   5.643   5.436   7.602 -0.0616  0.4211 -0.2885
    9MOL0     H 1176   5.429   5.643   7.448  1.9837  0.7974  0.7996
    9MOL0     H 1177   5.325   5.574   7.568 -0.5437  1.0730 -0.7668
    9MOL0     H 1178   5.495   5.611   7.605 -0.3025  2.3219 -1.1873
    9MOL0     H 1179   5.164   5.500   7.042  0.3410 -2.2692 -2.1737
    9MOL0     H 1180   4.962   5.529   6.927  0.5514  0.8757  0.0038
    9MOL0     H 1181   4.750   5.584   6.932  1.5735 -3.0852  3.7727
    9MOL0     H 1182   4.756   5.494   6.772 -0.5903  0.0760 -1.3127
    9MOL0     H 1183   4.514   5.425   6.825  0.0371 -1.1086  2.9876
    9MOL0     H 1184   4.528   5.527   6.960  0.3149 -1.1706  0.1804
    9MOL0     H 1185   4.566   5.630   6.661  0.1793  1.0551  1.2818
    9MOL0     H 1186   4.549   5.740   6.795  0.3736  0.4442 -1.4452
    9MOL0     H 1187   4.344   5.702   6.631  0.2714 -0.4595  1.1718
    9MOL0     H 1188   4.351   5.538   6.683  2.1464 -0.6012 -0.2627
    9MOL0     H 1189   4.318   5.730   6.911  2.7430 -0.7584 -0.1867
    9MOL0     H 1190   4.262   5.562   6.894  0.2473 -1.8495 -2.3250
    9MOL0     H 1191   4.107   5.631   6.710 -0.0618  2.1086 -1.2756
    9MOL0     H 1192   4.055   5.669   6.871  0.4020 -0.1468  0.2032
    9MOL0     H 1193   4.188   5.873   6.686 -1.4300 -1.6372 -1.0843
    9MOL0     H 1194   4.153   5.888   6.858  1.4385 -0.2231 -0.8469
    9MOL0     H 1195   3.979   5.994   6.716 -1.7502  0.2777 -0.5957
    9MOL0     H 1196   3.924   5.841   6.806  1.1317 -1.6695 -1.1216
    9MOL0     H 1197   4.766   5.232   7.153  0.5451 -1.0426 -3.4151
    9MOL0     H 1198   4.975   5.194   7.289 -0.3705 -2.0962 -3.2200
    9MOL0     H 1199   5.350   5.145   7.337  0.8261 -0.9204  0.1604
    9MOL0     H 1200   5.506   5.039   7.483  0.7418 -0.0627 -0.8769
    9MOL0     H 1201   7.118   5.533   8.390 -1.3176  2.4888  1.0325
    9MOL0     H 1202   7.359   5.572   8.343  0.9423 -0.9006 -0.5037
    9MOL0     H 1203   7.682   5.598   7.978  0.1152 -1.0477  0.8041
    9MOL0     H 1204   7.904   5.635   7.915  0.3922 -2.3726  3.2009
    9MOL0     H 1205   8.152   5.648   7.944  2.0289  0.6595  1.8234
    9MOL0     H 1206   8.069   5.729   7.811  1.6946 -0.2803 -0.7675
    9MOL0     H 1207   8.254   5.903   7.822  0.7301  0.2366  2.0878
    9MOL0     H 1208   8.305   5.748   7.766  3.1788  0.7269  0.2301
    9MOL0     H 1209   8.397   5.685   7.979  0.0458 -0.4307 -0.5472
    9MOL0     H 1210   8.380   5.873   8.015 -0.4121  1.5395 -2.5765
    9MOL0     H 1211   8.509   5.905   7.815 -2.3568 -0.4461 -2.2374
    9MOL0     H 1212   8.542   5.726   7.798  1.5800 -0.7591  0.7411
    9MOL0     H 1213   8.855   5.808   8.031 -0.0137  2.9621  1.0748
    9MOL0     H 1214   7.923   5.990   8.154 -0.5486  0.6494 -2.4797
    9MOL0     H 1215   7.697   5.935   8.231 -0.3666 -0.3708  0.0098
   10MOL0     O 1216   2.369   0.472   2.784  0.5207 -0.7298  0.4980
   10MOL0     C 1217   2.393   0.509   2.672 -0.1379 -0.1204  0.7383
   10MOL0     O 1218   2.510   0.491   2.605  0.1767  0.1361 -0.0127
   10MOL0     C 1219   2.606   0.425   2.674 -0.5762 -0.7063 -0.1668
   10MOL0     C 1220   2.680   0.484   2.778 -1.0909 -0.8517 -0.4873
   10MOL0     C 1221   2.771   0.405   2.856  0.5781  0.6769  0.2702
   10MOL0     C 1222   2.781   0.269   2.820 -0.1888 -0.0068  0.5176
   10MOL0     O 1223   2.885   0.190   2.874 -0.1837  0.9085 -0.5444
   10MOL0     C 1224   2.932   0.226   3.002 -0.3847  0.3257  0.1013
   10MOL0     C 1225   3.014   0.105   3.055 -0.4162 -0.1879 -0.0430
   10MOL0     C 1226   2.921  -0.002   3.122 -0.7739  0.5674  0.4337
   10MOL0     C 1227   3.006  -0.106   3.188 -0.4353 -0.0125 -0.2389
   10MOL0     C 1228   2.916  -0.213   3.247  0.8032  0.3173  0.4756
   10MOL0     C 1229   2.981  -0.309   3.343 -0.9525 -0.3212 -0.0297
   10MOL0     C 1230   2.886  -0.408   3.413 -0.1331 -0.3761 -0.5438
   10MOL0     C 1231   2.818  -0.508   3.314  0.4005  0.6766 -0.3537
   10MOL0     N 1232   2.777  -0.629   3.389 -0.5458  0.1399  0.3155
   10MOL0     C 1233   2.817  -0.755   3.339  0.7630  0.0064 -0.3789
   10MOL0     C 1234   2.715  -0.838   3.372 -1.4734  0.0232  0.0434
   10MOL0     C 1235   2.713  -0.983   3.328  0.4539  1.1060  0.1469
   10MOL0     C 1236   2.752  -1.072   3.442  1.2562 -0.2251  0.3130
   10MOL0     C 1237   2.726  -1.219   3.405 -0.4590  0.9485  0.6001
   10MOL0     C 1238   2.578  -1.265   3.390 -0.0710 -0.6339 -0.8397
   10MOL0     O 1239   2.570  -1.407   3.386 -0.7735  0.6664 -0.1247
   10MOL0     C 1240   2.628  -1.491   3.288 -0.0653 -0.4183 -0.3609
   10MOL0     C 1241   2.602  -1.629   3.295 -0.1873 -0.2793 -0.0041
   10MOL0     C 1242   2.648  -1.723   3.208  0.0911 -0.3846  0.8203
   10MOL0     C 1243   2.614  -1.867   3.220  0.8705 -0.3338 -1.2539
   10MOL0     C 1244   2.723  -1.678   3.089  0.0005  0.2646  0.2397
   10MOL0     C 1245   2.782  -1.775   2.988 -0.5500  0.8081  0.3662
   10MOL0     O 1246   2.798  -1.730   2.859  0.0145  0.8404  0.0739
   10MOL0     C 1247   2.897  -1.792   2.779 -0.3057  0.0643 -0.3585
   10MOL0     C 1248   3.035  -1.806   2.808 -0.5975  0.4923  0.4704
   10MOL0     C 1249   3.115  -1.882   2.717 -0.2900  0.0454 -0.9978
   10MOL0     C 1250   3.059  -1.945   2.606 -0.3369 -0.7915  0.2844
   10MOL0     O 1251   3.133  -2.021   2.510  0.4461 -0.1644 -0.2310
   10MOL0     C 1252   3.247  -2.089   2.556  1.1656 -0.1166  0.7791
   10MOL0     C 1253   3.369  -2.070   2.459 -0.0438 -0.6424 -1.1891
   10MOL0     C 1254   3.437  -1.935   2.504 -0.0531  0.2193  0.1473
   10MOL0     C 1255   3.519  -1.862   2.395 -1.0334 -2.1711  0.2379
   10MOL0     C 1256   3.638  -1.773   2.462  0.4474  0.3147 -0.0678
   10MOL0     C 1257   3.739  -1.706   2.365 -0.6043 -0.4287  0.1787
   10MOL0     C 1258   3.838  -1.608   2.438  0.4524  0.3621 -0.4318
   10MOL0     C 1259   3.939  -1.541   2.341 -0.3532  0.3241 -0.0950
   10MOL0    Cl 1260   4.078  -1.444   2.415 -0.1668  0.4544 -0.3058
   10MOL0     C 1261   2.927  -1.922   2.579 -0.1020 -0.1073  0.4406
   10MOL0     C 1262   2.847  -1.850   2.667  0.3770  0.5792  0.1256
   10MOL0     O 1263   2.829  -1.884   3.029  0.3625 -0.6414  0.0963
   10MOL0     C 1264   2.746  -1.544   3.074  0.5285 -0.6398  0.1009
   10MOL0     C 1265   2.701  -1.456   3.171  0.1876  0.1862  0.5253
   10MOL0     N 1266   2.624  -0.771   3.456 -0.2926 -0.8475 -0.6455
   10MOL0     N 1267   2.675  -0.639   3.466 -0.0322  0.5997 -0.7552
   10MOL0     C 1268   2.696   0.205   2.720 -0.4533 -0.6427 -0.1712
   10MOL0     C 1269   2.622   0.290   2.643 -0.0806 -0.3350 -0.5019
   10MOL0     C 1270   2.278   0.591   2.612 -0.7238 -0.2460  0.3475
   10MOL0     C 1271   2.175   0.640   2.690 -0.2032 -0.2050 -0.3471
   10MOL0     C 1272   2.082   0.722   2.620 -0.4672  0.6822  1.1213
   10MOL0     C 1273   2.079   0.736   2.478  0.1512  0.6459  0.5780
   10MOL0     O 1274   1.974   0.782   2.404  0.4221 -0.2401 -0.2382
   10MOL0     C 1275   1.905   0.892   2.463 -0.0637  0.4133  0.4692
   10MOL0     C 1276   1.869   0.993   2.352 -1.0077  0.6103 -0.3761
   10MOL0     C 1277   1.793   1.114   2.420 -0.7930 -0.6341 -1.1862
   10MOL0     C 1278   1.645   1.094   2.445 -0.0868 -0.4382  0.2249
   10MOL0     C 1279   1.579   1.043   2.322  0.7726 -0.7849  0.1188
   10MOL0     C 1280   1.515   1.003   2.223 -0.2068 -0.4639  0.0568
   10MOL0     C 1281   2.180   0.675   2.405  0.0713 -0.1475  0.5648
   10MOL0     C 1282   2.279   0.609   2.474  0.0285 -0.3953  0.1494
   10MOL0     H 1283   2.677   0.589   2.801 -1.9719 -1.0400  0.2935
   10MOL0     H 1284   2.833   0.453   2.931 -1.1727  0.1338  2.1558
   10MOL0     H 1285   2.995   0.315   2.995 -0.1916  0.4138  2.1808
   10MOL0     H 1286   2.860   0.248   3.081 -3.9930 -2.9631 -1.9193
   10MOL0     H 1287   3.073   0.059   2.975  0.9778 -0.3148  1.0145
   10MOL0     H 1288   3.090   0.137   3.126 -2.1708  1.1345  1.3431
   10MOL0     H 1289   2.858   0.050   3.194  0.7767  2.2682  0.6176
   10MOL0     H 1290   2.858  -0.055   3.050  0.4354 -1.9166  1.0764
   10MOL0     H 1291   3.076  -0.151   3.117  0.9941  0.1508  1.0002
   10MOL0     H 1292   3.079  -0.065   3.260  0.9979  0.6878 -2.0221
   10MOL0     H 1293   2.826  -0.177   3.298  0.7214 -0.3229  0.7948
   10MOL0     H 1294   2.880  -0.272   3.162  1.6759  1.8196 -1.0055
   10MOL0     H 1295   3.049  -0.366   3.279  0.3655  2.4391 -1.2103
   10MOL0     H 1296   3.041  -0.249   3.412 -0.1999  0.3885 -1.2629
   10MOL0     H 1297   2.956  -0.463   3.476 -2.0841 -2.0503  0.2545
   10MOL0     H 1298   2.816  -0.354   3.478 -1.0939  0.9935 -2.5990
   10MOL0     H 1299   2.881  -0.539   3.230 -1.0025  1.1291 -1.6098
   10MOL0     H 1300   2.729  -0.461   3.272  0.7114 -0.2567 -2.1695
   10MOL0     H 1301   2.899  -0.786   3.274  0.5600 -1.3758 -0.0006
   10MOL0     H 1302   2.610  -0.999   3.295  0.9339 -0.8020 -0.5529
   10MOL0     H 1303   2.769  -0.995   3.235 -0.7984  1.3726 -0.6593
   10MOL0     H 1304   2.702  -1.051   3.537  0.2647 -1.5700  0.1277
   10MOL0     H 1305   2.859  -1.052   3.449  1.5413 -1.0341 -1.2792
   10MOL0     H 1306   2.760  -1.274   3.493 -0.3892  1.5076  0.9217
   10MOL0     H 1307   2.777  -1.250   3.313 -2.8179  1.2847 -0.8934
   10MOL0     H 1308   2.515  -1.210   3.320 -0.8191 -0.4909 -0.0731
   10MOL0     H 1309   2.528  -1.239   3.483  1.0257  0.5827 -0.5523
   10MOL0     H 1310   2.540  -1.668   3.376 -0.6446  0.7021  0.1434
   10MOL0     H 1311   2.693  -1.929   3.263 -0.0570 -2.0591 -1.9383
   10MOL0     H 1312   2.520  -1.886   3.272  1.5198 -2.0835 -0.6359
   10MOL0     H 1313   2.607  -1.916   3.123 -1.8427  0.0172 -1.3274
   10MOL0     H 1314   3.072  -1.746   2.890  3.2625 -0.8780 -0.0598
   10MOL0     H 1315   3.217  -1.891   2.752 -0.2902  0.7039 -0.8044
   10MOL0     H 1316   3.269  -2.057   2.658 -0.4796  0.2265  1.0631
   10MOL0     H 1317   3.226  -2.196   2.560 -1.8018  0.3228 -0.0475
   10MOL0     H 1318   3.420  -2.166   2.466  1.6147  0.1932 -1.2060
   10MOL0     H 1319   3.353  -2.065   2.350  0.8357  1.1143 -1.2829
   10MOL0     H 1320   3.506  -1.963   2.584  2.1298  0.8723 -1.4053
   10MOL0     H 1321   3.368  -1.867   2.557 -1.3662  0.0170 -1.2368
   10MOL0     H 1322   3.565  -1.940   2.334  0.1621 -1.5931  0.3652
   10MOL0     H 1323   3.466  -1.804   2.320  0.7850  0.8668  1.1163
   10MOL0     H 1324   3.702  -1.828   2.531 -0.6136 -0.2950  0.4551
   10MOL0     H 1325   3.587  -1.695   2.519  1.5938  1.3610 -0.4156
   10MOL0     H 1326   3.802  -1.787   2.326 -0.9281 -0.8746  0.5798
   10MOL0     H 1327   3.684  -1.642   2.295 -0.8695  0.9332  1.5673
   10MOL0     H 1328   3.892  -1.667   2.513 -0.2970 -0.6615 -0.6769
   10MOL0     H 1329   3.784  -1.531   2.494 -0.3925 -0.2899 -0.3298
   10MOL0     H 1330   3.888  -1.478   2.267  1.0623  3.1562  1.1837
   10MOL0     H 1331   3.980  -1.621   2.278  1.5597  1.0977  0.1009
   10MOL0     H 1332   2.878  -1.945   2.485 -3.7264  0.7332  1.9651
   10MOL0     H 1333   2.744  -1.850   2.632  1.0860  2.4753 -2.2923
   10MOL0     H 1334   2.802  -1.502   2.990 -3.0146  1.2370 -1.5871
   10MOL0     H 1335   2.724  -1.353   3.145 -2.2516  0.1256 -2.4685
   10MOL0     H 1336   2.701   0.097   2.704  1.2375 -0.4901 -0.9111
   10MOL0     H 1337   2.557   0.234   2.577  0.2862 -0.8129 -0.4699
   10MOL0     H 1338   2.145   0.611   2.790 -1.2158  0.9972 -0.2726
   10MOL0     H 1339   2.003   0.756   2.686  1.6597  3.4946  2.4560
   10MOL0     H 1340   1.810   0.852   2.498 -0.6756  0.7206 -0.7976
   10MOL0     H 1341   1.975   0.938   2.533  1.7044 -1.6379  0.1709
   10MOL0     H 1342   1.810   0.955   2.268 -0.8430  0.6860 -0.5284
   10MOL0     H 1343   1.964   1.032   2.315  1.6338  0.2910  5.1261
   10MOL0     H 1344   1.803   1.202   2.356 -0.7049  1.3507  1.3833
   10MOL0     H 1345   1.834   1.133   2.520 -1.6440 -1.8634 -0.5743
   10MOL0     H 1346   1.595   1.182   2.486 -1.8884 -0.5802 -1.5120
   10MOL0     H 1347   1.627   1.008   2.510 -0.2709 -1.6500 -1.3794
   10MOL0     H 1348   1.457   0.982   2.136  0.1107 -0.7643 -0.0800
   10MOL0     H 1349   2.184   0.680   2.297  2.6745  1.0165  0.6245
   10MOL0     H 1350   2.365   0.570   2.422 -0.0193  0.1396 -0.3422
   11MOL0     O 1351   8.541   3.973   5.385 -0.6964  0.5243  0.3667
   11MOL0     C 1352   8.593   3.863   5.350  0.3647 -0.0020 -0.6864
   11MOL0     O 1353   8.527   3.748   5.323 -0.3391  0.1101 -0.3888
   11MOL0     C 1354   8.395   3.746   5.361 -0.4759 -0.4092  0.3497
   11MOL0     C 1355   8.357   3.741   5.493  0.1000 -0.6823 -0.2288
   11MOL0     C 1356   8.222   3.737   5.532 -0.3984 -0.5311 -0.3353
   11MOL0     C 1357   8.129   3.734   5.429 -0.0108  0.3928  0.5294
   11MOL0     O 1358   7.994   3.711   5.436  0.3156  0.1803 -0.2919
   11MOL0     C 1359   7.932   3.726   5.572 -0.2267  0.4080  1.0279
   11MOL0     C 1360   7.808   3.807   5.550  0.1097  0.7736 -0.0156
   11MOL0     C 1361   7.835   3.946   5.494  0.2198 -0.3866 -0.2378
   11MOL0     C 1362   7.721   4.043   5.510 -1.0908 -0.0163  0.3454
   11MOL0     C 1363   7.768   4.179   5.447 -0.5202  0.0394  0.1078
   11MOL0     C 1364   7.720   4.300   5.532  0.9440  0.1301  0.1198
   11MOL0     C 1365   7.752   4.445   5.483 -0.2993  0.1354 -0.1393
   11MOL0     C 1366   7.708   4.460   5.337 -0.3914  0.1947  0.3071
   11MOL0     N 1367   7.701   4.602   5.299 -0.5798  0.1290  0.6542
   11MOL0     C 1368   7.791   4.702   5.306 -1.1581 -0.4913 -0.7672
   11MOL0     C 1369   7.732   4.810   5.250  0.6102 -0.3504  0.1019
   11MOL0     C 1370   7.806   4.940   5.227  0.1662 -0.5211  0.2553
   11MOL0     C 1371   7.796   4.994   5.086  0.7628 -0.6112 -0.7238
   11MOL0     C 1372   7.858   4.888   4.989  1.1414  0.4292 -1.7615
   11MOL0     C 1373   7.894   4.948   4.861  0.1911  0.7899 -0.0282
   11MOL0     O 1374   7.987   5.050   4.874 -0.0924 -0.7984  0.0011
   11MOL0     C 1375   8.056   5.094   4.768 -0.3593 -0.7007 -0.3275
   11MOL0     C 1376   8.035   5.087   4.633 -0.1940  0.3611  0.0531
   11MOL0     C 1377   8.123   5.139   4.532 -0.0453 -0.0743  0.0470
   11MOL0     C 1378   8.071   5.127   4.392 -0.3187 -0.2183 -0.3653
   11MOL0     C 1379   8.236   5.212   4.567 -1.1173 -0.2207 -0.2092
   11MOL0     C 1380   8.338   5.266   4.472  0.1885  0.7065  0.5688
   11MOL0     O 1381   8.394   5.383   4.514  0.1062  0.0981  0.4927
   11MOL0     C 1382   8.492   5.446   4.445  0.2013 -0.2815 -0.8586
   11MOL0     C 1383   8.483   5.479   4.310  0.0141 -0.2683  0.0922
   11MOL0     C 1384   8.575   5.559   4.241 -0.3534 -0.1716 -0.6542
   11MOL0     C 1385   8.679   5.620   4.321  0.4619  0.4897  0.7158
   11MOL0     O 1386   8.759   5.722   4.268  0.1535  0.0370 -0.3196
   11MOL0     C 1387   8.782   5.720   4.124  0.6030  0.3641 -0.1614
   11MOL0     C 1388   8.887   5.825   4.096 -0.0696  0.0437  0.7016
   11MOL0     C 1389   8.842   5.968   4.108 -0.0189  0.2828  0.2717
   11MOL0     C 1390   8.954   6.069   4.107 -0.6152  0.7009  0.2496
   11MOL0     C 1391   9.024   6.088   4.240 -0.0588 -0.2240 -0.1455
   11MOL0     C 1392   9.145   6.179   4.224 -0.7174 -0.1622  0.1736
   11MOL0     C 1393   9.245   6.168   4.342 -0.4466 -0.0862 -0.4565
   11MOL0     C 1394   9.341   6.283   4.368  0.5276 -0.1264 -0.1348
   11MOL0    Cl 1395   9.414   6.339   4.221 -0.1490 -0.5175 -0.0414
   11MOL0     C 1396   8.690   5.592   4.463 -0.6580 -0.5510  0.3292
   11MOL0     C 1397   8.592   5.513   4.526  0.4460  0.9651  0.5091
   11MOL0     O 1398   8.365   5.194   4.370  1.0006  0.0798  0.2436
   11MOL0     C 1399   8.249   5.228   4.709 -0.1536  0.4384  0.0213
   11MOL0     C 1400   8.160   5.179   4.802  0.3502  0.3343  0.6784
   11MOL0     N 1401   7.614   4.779   5.204 -0.0167  1.2991 -0.9244
   11MOL0     N 1402   7.594   4.657   5.231 -0.8271  0.3687 -0.8105
   11MOL0     C 1403   8.167   3.724   5.298 -1.0037  0.3484  0.1115
   11MOL0     C 1404   8.300   3.733   5.260 -0.0063 -0.5016 -0.1370
   11MOL0     C 1405   8.743   3.856   5.331 -0.3001  0.4795  0.5053
   11MOL0     C 1406   8.804   3.728   5.316 -0.4897 -0.2973 -0.5952
   11MOL0     C 1407   8.943   3.720   5.298  0.6128 -0.1505  0.2517
   11MOL0     C 1408   9.011   3.840   5.272 -0.4627 -0.5174  0.0486
   11MOL0     O 1409   9.146   3.834   5.232 -0.5102 -0.7329 -0.1822
   11MOL0     C 1410   9.236   3.937   5.293  0.3157  0.3762  0.4127
   11MOL0     C 1411   9.370   3.875   5.322  0.2230 -0.5024  0.6822
   11MOL0     C 1412   9.441   3.829   5.182  0.2646  0.0040 -0.1394
   11MOL0     C 1413   9.577   3.772   5.222 -0.4381 -0.4165 -0.4431
   11MOL0     C 1414   9.679   3.881   5.226  0.0650 -0.9314  0.3141
   11MOL0     C 1415   9.760   3.969   5.233 -0.6127  0.0792 -0.6962
   11MOL0     C 1416   8.950   3.966   5.279  0.1387  0.0764 -0.9670
   11MOL0     C 1417   8.818   3.968   5.314  0.3988 -1.3428 -0.1840
   11MOL0     H 1418   8.439   3.744   5.563  0.8530 -0.1403 -1.1185
   11MOL0     H 1419   8.202   3.725   5.638 -0.2182 -2.7603 -0.5099
   11MOL0     H 1420   7.901   3.625   5.600  0.9376  0.5478  2.9803
   11MOL0     H 1421   7.993   3.772   5.651  0.6485 -0.6394  0.9826
   11MOL0     H 1422   7.745   3.750   5.482  1.6864  2.3646 -3.0567
   11MOL0     H 1423   7.761   3.818   5.648  2.7422 -3.6693  2.0359
   11MOL0     H 1424   7.919   3.994   5.544 -0.4149  1.0760 -0.5234
   11MOL0     H 1425   7.857   3.944   5.387 -1.2481  1.8816 -0.6537
   11MOL0     H 1426   7.637   4.002   5.454  0.8110 -2.0891 -1.1772
   11MOL0     H 1427   7.702   4.062   5.616 -2.0096 -1.3702  0.4469
   11MOL0     H 1428   7.876   4.183   5.462 -0.2488  2.5257 -1.8314
   11MOL0     H 1429   7.752   4.184   5.339 -3.8871 -0.3405  0.4804
   11MOL0     H 1430   7.615   4.291   5.562  0.7250 -1.7259 -1.0981
   11MOL0     H 1431   7.771   4.289   5.628  1.3399 -1.8176 -0.2722
   11MOL0     H 1432   7.695   4.518   5.542  1.7154  1.8873 -0.2602
   11MOL0     H 1433   7.858   4.465   5.499 -0.6259  1.2555  0.7820
   11MOL0     H 1434   7.620   4.399   5.318 -0.7281  0.4008  1.1777
   11MOL0     H 1435   7.780   4.405   5.275 -1.8310 -0.6055 -0.7078
   11MOL0     H 1436   7.890   4.692   5.347 -1.8024 -4.5260  0.2296
   11MOL0     H 1437   7.755   5.018   5.285 -1.3075 -0.0428 -1.5885
   11MOL0     H 1438   7.911   4.937   5.259  0.2797  0.7467  0.0754
   11MOL0     H 1439   7.855   5.086   5.080 -1.7254  1.0989 -0.3776
   11MOL0     H 1440   7.699   5.022   5.046  0.9226  1.1964  0.0926
   11MOL0     H 1441   7.789   4.807   4.964  0.9358  0.9483 -2.9636
   11MOL0     H 1442   7.943   4.840   5.037  0.4639 -0.2011 -1.1830
   11MOL0     H 1443   7.798   4.981   4.819 -2.1942 -1.2449  3.2721
   11MOL0     H 1444   7.935   4.861   4.808  0.3852  1.1919 -0.5437
   11MOL0     H 1445   7.936   5.054   4.603  0.4730 -3.0694  1.1891
   11MOL0     H 1446   7.980   5.186   4.377 -1.5937 -1.8467  0.7118
   11MOL0     H 1447   8.147   5.138   4.313  0.3214  0.5898  0.3403
   11MOL0     H 1448   8.042   5.022   4.395 -0.4234 -0.1582  1.1649
   11MOL0     H 1449   8.393   5.450   4.255  0.9258  1.7263 -2.6320
   11MOL0     H 1450   8.552   5.576   4.136  0.8662  0.7682 -0.7984
   11MOL0     H 1451   8.821   5.619   4.107 -0.5990 -0.2540  0.5851
   11MOL0     H 1452   8.688   5.728   4.068  0.5983  0.0516 -0.2009
   11MOL0     H 1453   8.980   5.803   4.150 -2.6013 -0.1485  5.4951
   11MOL0     H 1454   8.915   5.818   3.990 -1.5112  0.7633  0.2431
   11MOL0     H 1455   8.770   5.986   4.188 -2.3569  0.2515 -1.7291
   11MOL0     H 1456   8.783   5.993   4.020  0.9664 -0.7486 -0.7091
   11MOL0     H 1457   9.030   6.033   4.037 -0.3222  0.0812  0.8808
   11MOL0     H 1458   8.914   6.163   4.068  0.1843  0.1842 -1.9463
   11MOL0     H 1459   9.064   5.988   4.259  1.1245 -0.5037 -3.4775
   11MOL0     H 1460   8.959   6.128   4.318 -2.1707  0.7428 -2.2882
   11MOL0     H 1461   9.209   6.146   4.141  1.6620 -0.5663  2.0226
   11MOL0     H 1462   9.119   6.283   4.203  2.2921  0.4741 -0.9215
   11MOL0     H 1463   9.308   6.078   4.336 -2.6162 -1.7409  0.3221
   11MOL0     H 1464   9.187   6.147   4.432 -0.7052 -1.9447 -1.0136
   11MOL0     H 1465   9.416   6.258   4.443  1.5973  1.3719 -0.6566
   11MOL0     H 1466   9.288   6.369   4.410 -0.3336 -1.1528  0.9229
   11MOL0     H 1467   8.768   5.636   4.524  1.7126 -1.2466 -2.0204
   11MOL0     H 1468   8.598   5.500   4.634  0.0230 -0.5900  0.3682
   11MOL0     H 1469   8.322   5.298   4.749 -0.2272  0.4469  0.1379
   11MOL0     H 1470   8.169   5.198   4.909 -0.6144  2.9744  0.3444
   11MOL0     H 1471   8.088   3.691   5.231 -0.3491 -2.8693  0.7236
   11MOL0     H 1472   8.332   3.727   5.157 -1.3358  1.4084 -0.7039
   11MOL0     H 1473   8.737   3.643   5.322 -2.9560  1.6465  3.5003
   11MOL0     H 1474   8.997   3.628   5.277 -0.5389 -0.5145 -1.4042
   11MOL0     H 1475   9.251   4.028   5.235  0.5559  2.9746  4.2348
   11MOL0     H 1476   9.186   3.969   5.385  0.2513 -2.7243  1.5733
   11MOL0     H 1477   9.360   3.784   5.382 -0.4884 -0.5931  0.4437
   11MOL0     H 1478   9.417   3.952   5.383 -3.0264  1.1342  1.3180
   11MOL0     H 1479   9.452   3.917   5.118 -1.6385  0.1405 -0.3158
   11MOL0     H 1480   9.385   3.757   5.123  2.1924 -0.3902 -1.6084
   11MOL0     H 1481   9.610   3.702   5.144 -1.6274  1.2085 -2.5246
   11MOL0     H 1482   9.582   3.722   5.319  3.1858  0.3606 -0.1139
   11MOL0     H 1483   9.835   4.044   5.242 -1.4963  0.8203  0.8881
   11MOL0     H 1484   8.993   4.064   5.259 -3.8119  2.4730  1.0047
   11MOL0     H 1485   8.767   4.064   5.313 -0.3197 -1.7158 -0.4688
   12MOL0     O 1486   4.366   8.437  10.793  0.3275 -0.2272 -0.6554
   12MOL0     C 1487   4.459   8.376  10.850 -0.7225 -0.5055  0.4230
   12MOL0     O 1488   4.449   8.269  10.941 -0.1973  0.0393  0.0006
   12MOL0     C 1489   4.324   8.222  10.977  0.2226 -0.3259 -0.7077
   12MOL0     C 1490   4.219   8.305  11.013  0.2743 -0.2973 -0.3133
   12MOL0     C 1491   4.098   8.253  11.049  0.7001  0.1226  0.6010
   12MOL0     C 1492   4.076   8.119  11.055  0.2120  0.3781 -0.0060
   12MOL0     O 1493   3.959   8.058  11.090 -0.0200 -0.7873  0.8499
   12MOL0     C 1494   3.864   8.133  11.161  0.0327  0.6627  0.4273
   12MOL0     C 1495   3.736   8.059  11.183  0.8225 -0.3083 -0.0130
   12MOL0     C 1496   3.633   8.017  11.066  0.0436 -0.3725 -0.2455
   12MOL0     C 1497   3.499   8.090  11.069  0.6927  0.3085  0.3993
   12MOL0     C 1498   3.502   8.241  11.038 -0.7908 -0.6678 -0.0251
   12MOL0     C 1499   3.359   8.295  11.044 -0.1151 -0.5398  0.1781
   12MOL0     C 1500   3.336   8.423  10.968  0.2486  0.1229 -0.2013
   12MOL0     C 1501   3.221   8.496  11.022  0.8352 -0.3047  0.4252
   12MOL0     N 1502   3.217   8.637  10.967 -0.0923 -0.4376 -0.0700
   12MOL0     C 1503   3.196   8.676  10.836  0.5210 -0.6568  0.4658
   12MOL0     C 1504   3.158   8.801  10.847  0.3263 -0.5871 -0.0019
   12MOL0     C 1505   3.116   8.890  10.731  0.6118 -0.1645 -0.4869
   12MOL0     C 1506   3.233   8.978  10.690 -0.4506  0.2862  0.1045
   12MOL0     C 1507   3.273   8.947  10.550 -0.1059  0.0007 -0.0156
   12MOL0     C 1508   3.407   9.011  10.519 -0.7636  0.2911  0.0263
   12MOL0     O 1509   3.398   9.156  10.529  0.1425 -0.4133  0.2497
   12MOL0     C 1510   3.490   9.234  10.459  0.0284  0.4358  0.2700
   12MOL0     C 1511   3.622   9.201  10.440 -0.9651 -0.5363 -0.0688
   12MOL0     C 1512   3.708   9.288  10.365 -0.5828 -0.6679 -0.2933
   12MOL0     C 1513   3.852   9.240  10.335  0.1649  0.0628 -0.1787
   12MOL0     C 1514   3.651   9.402  10.305 -0.9630 -0.1845  1.3711
   12MOL0     C 1515   3.721   9.491  10.214  0.7325 -0.2302 -0.2392
   12MOL0     O 1516   3.638   9.590  10.159  0.2671  0.2670  0.1121
   12MOL0     C 1517   3.683   9.670  10.056 -0.8657 -0.2142  0.1374
   12MOL0     C 1518   3.657   9.809  10.070  0.0001 -0.4507  0.3692
   12MOL0     C 1519   3.686   9.897   9.963 -1.0687  0.0190 -0.2108
   12MOL0     C 1520   3.748   9.853   9.844 -0.1741  0.6014  0.3653
   12MOL0     O 1521   3.777   9.957   9.755  0.2068  0.8379 -0.3114
   12MOL0     C 1522   3.791   9.911   9.620  0.0376  0.2715  0.7116
   12MOL0     C 1523   3.789  10.039   9.540 -0.7328  0.5191  0.3931
   12MOL0     C 1524   3.919  10.122   9.547  0.7476 -0.0511 -0.0302
   12MOL0     C 1525   4.024  10.063   9.466 -0.8265  0.4868  0.1184
   12MOL0     C 1526   4.132  10.167   9.454 -0.0731 -0.2909 -0.1024
   12MOL0     C 1527   4.219  10.179   9.582  0.2608 -0.1048 -0.1341
   12MOL0     C 1528   4.341  10.268   9.554 -0.8027  0.2601  0.5064
   12MOL0     C 1529   4.436  10.271   9.678 -0.7774  0.0886 -0.3822
   12MOL0    Cl 1530   4.352  10.353   9.813 -0.4809 -0.0668  0.2583
   12MOL0     C 1531   3.779   9.715   9.832 -1.0639 -0.8333 -0.4036
   12MOL0     C 1532   3.756   9.627   9.942 -0.2538 -0.2930  0.3296
   12MOL0     O 1533   3.841   9.497  10.208  0.1064 -1.1692 -0.0066
   12MOL0     C 1534   3.514   9.425  10.317 -0.0113  1.1624 -0.2988
   12MOL0     C 1535   3.434   9.347  10.394 -0.9524  0.4068 -0.7625
   12MOL0     N 1536   3.135   8.844  10.974 -0.1524 -0.2763  0.1612
   12MOL0     N 1537   3.174   8.744  11.045 -0.0102  0.0807 -0.3075
   12MOL0     C 1538   4.186   8.027  11.020  0.4703  0.9096  0.3099
   12MOL0     C 1539   4.315   8.089  10.986  0.2198 -0.2178 -0.4146
   12MOL0     C 1540   4.585   8.409  10.781 -0.7222  0.2992  0.5241
   12MOL0     C 1541   4.707   8.368  10.841 -0.1991  1.0777 -0.0724
   12MOL0     C 1542   4.831   8.400  10.790 -0.0955  0.5416  0.5968
   12MOL0     C 1543   4.847   8.474  10.674 -0.5619  0.9008  0.4036
   12MOL0     O 1544   4.979   8.493  10.637 -0.1589 -0.0044  0.0982
   12MOL0     C 1545   5.012   8.596  10.541  0.3716 -0.1285 -0.1306
   12MOL0     C 1546   4.985   8.541  10.395  0.3479  0.5190 -0.1693
   12MOL0     C 1547   5.096   8.428  10.366 -0.6251 -0.1433  0.6614
   12MOL0     C 1548   5.230   8.480  10.303 -0.8007 -0.7955  0.0917
   12MOL0     C 1549   5.336   8.509  10.400 -0.5861 -0.1293  0.2151
   12MOL0     C 1550   5.425   8.550  10.471 -0.4566  0.4277 -0.4455
   12MOL0     C 1551   4.729   8.516  10.607  0.0155  0.0468 -0.4536
   12MOL0     C 1552   4.609   8.488  10.667  0.1176 -0.2037 -0.3150
   12MOL0     H 1553   4.232   8.413  11.013  0.0473 -0.2632 -0.9825
   12MOL0     H 1554   4.014   8.321  11.063  0.3642 -0.5942  2.3723
   12MOL0     H 1555   3.903   8.150  11.261  0.3015 -0.4462  0.5303
   12MOL0     H 1556   3.833   8.227  11.114 -3.5254 -1.6589 -2.4764
   12MOL0     H 1557   3.754   7.969  11.242  1.0034 -0.4599 -0.2997
   12MOL0     H 1558   3.688   8.124  11.257  2.3466 -0.5069  1.2032
   12MOL0     H 1559   3.663   8.040  10.964 -1.6399 -1.4648 -1.0414
   12MOL0     H 1560   3.616   7.909  11.074 -0.2265 -0.1903  3.0849
   12MOL0     H 1561   3.440   8.056  10.983 -1.8654  1.8979  1.4144
   12MOL0     H 1562   3.446   8.066  11.161 -1.4620  0.3267 -0.7728
   12MOL0     H 1563   3.566   8.299  11.105 -2.9998  2.9368 -0.7709
   12MOL0     H 1564   3.545   8.247  10.938  2.7383 -2.8941  1.1940
   12MOL0     H 1565   3.291   8.218  11.006 -3.3948  2.6788 -1.0766
   12MOL0     H 1566   3.341   8.309  11.151  4.0037  1.1603  0.8342
   12MOL0     H 1567   3.424   8.488  10.973  0.6694 -0.2436 -2.0051
   12MOL0     H 1568   3.316   8.384  10.867  0.5404 -1.0344  0.1647
   12MOL0     H 1569   3.236   8.493  11.131  1.4016 -0.2630  0.3508
   12MOL0     H 1570   3.134   8.439  10.987 -0.7106  2.2487 -0.1933
   12MOL0     H 1571   3.220   8.623  10.744  3.0839  0.2033  0.5583
   12MOL0     H 1572   3.073   8.825  10.655  0.8789 -2.9471  1.5679
   12MOL0     H 1573   3.031   8.954  10.758  0.6158 -0.8875  1.4757
   12MOL0     H 1574   3.315   8.976  10.762 -1.0531  1.1215  0.8460
   12MOL0     H 1575   3.202   9.083  10.692 -2.2034 -0.2026  0.4987
   12MOL0     H 1576   3.198   8.976  10.476  2.2491 -1.4898 -3.2349
   12MOL0     H 1577   3.276   8.837  10.549 -1.6672 -0.0597 -0.3838
   12MOL0     H 1578   3.443   8.978  10.422 -1.1818 -0.1443  0.0174
   12MOL0     H 1579   3.484   8.983  10.592 -2.0562 -3.5430  0.1327
   12MOL0     H 1580   3.675   9.114  10.476  1.2315 -0.6013 -3.1266
   12MOL0     H 1581   3.931   9.307  10.370  0.5087  0.6393 -1.9196
   12MOL0     H 1582   3.871   9.137  10.365 -0.8685 -0.1434 -0.1879
   12MOL0     H 1583   3.871   9.244  10.227  2.3550  0.9178  0.1969
   12MOL0     H 1584   3.597   9.842  10.155  0.8603 -0.2911  0.9301
   12MOL0     H 1585   3.673  10.004   9.976 -0.9820 -0.0288  0.2840
   12MOL0     H 1586   3.873   9.840   9.602 -0.0028  0.2021  0.8067
   12MOL0     H 1587   3.701   9.855   9.591 -1.1743  2.6607 -0.4645
   12MOL0     H 1588   3.757  10.022   9.437 -0.4249  2.8692 -0.1535
   12MOL0     H 1589   3.707  10.105   9.571 -1.0030  1.9844 -3.0323
   12MOL0     H 1590   3.950  10.134   9.652  0.7600 -0.4725  0.0169
   12MOL0     H 1591   3.895  10.222   9.510 -0.4876 -0.5030 -0.4838
   12MOL0     H 1592   4.062   9.979   9.525  1.0802  1.0282 -0.2714
   12MOL0     H 1593   3.980  10.028   9.373 -1.5866 -0.7287  0.9020
   12MOL0     H 1594   4.102  10.268   9.426 -1.9123 -0.5550  0.7477
   12MOL0     H 1595   4.199  10.145   9.371  0.9348  1.4531  0.1934
   12MOL0     H 1596   4.169  10.227   9.667  0.3691  0.8324 -0.5802
   12MOL0     H 1597   4.262  10.086   9.621 -0.1357  0.0819  0.7672
   12MOL0     H 1598   4.305  10.368   9.529 -2.4471  0.4063  3.0356
   12MOL0     H 1599   4.388  10.221   9.467 -1.8479  1.4796 -0.7552
   12MOL0     H 1600   4.526  10.324   9.645  0.3439 -2.1028 -1.0498
   12MOL0     H 1601   4.462  10.169   9.708 -0.9100  0.4144  0.8768
   12MOL0     H 1602   3.836   9.676   9.749  1.8681 -1.3591  1.6695
   12MOL0     H 1603   3.785   9.524   9.930 -1.6317 -0.7654  0.8144
   12MOL0     H 1604   3.470   9.513  10.271 -0.7877 -0.1500 -2.1707
   12MOL0     H 1605   3.332   9.383  10.400 -0.7311  1.4995 -2.6960
   12MOL0     H 1606   4.176   7.923  11.048 -0.3076  0.9992  0.3798
   12MOL0     H 1607   4.395   8.019  10.966  0.6789  0.1106  0.2532
   12MOL0     H 1608   4.707   8.310  10.933  2.2120 -1.6674 -1.6399
   12MOL0     H 1609   4.911   8.348  10.841 -0.4109  1.5782  2.2512
   12MOL0     H 1610   4.957   8.685  10.572  2.0172  0.4060  1.4630
   12MOL0     H 1611   5.119   8.617  10.545  0.5342 -0.8370 -0.5521
   12MOL0     H 1612   4.991   8.619  10.319  3.1254  0.3904 -0.1907
   12MOL0     H 1613   4.887   8.492  10.399  0.2203  0.8276  2.4941
   12MOL0     H 1614   5.056   8.356  10.294  0.0506 -0.7890  0.9155
   12MOL0     H 1615   5.126   8.372  10.454  0.7968  0.7354  0.7746
   12MOL0     H 1616   5.222   8.567  10.237 -1.3463 -0.1482  0.9813
   12MOL0     H 1617   5.267   8.394  10.246 -0.6275 -0.6730  0.0179
   12MOL0     H 1618   5.501   8.569  10.543 -0.9468 -2.9702  1.1425
   12MOL0     H 1619   4.735   8.583  10.522 -2.3982  0.3442 -0.4370
   12MOL0     H 1620   4.520   8.532  10.622  1.5524  0.4682 -2.7103
   13MOL0     O 1621   7.770   3.784   2.774 -0.0407 -0.0808 -0.3365
   13MOL0     C 1622   7.695   3.704   2.832  0.2932 -0.3514  0.0093
   13MOL0     O 1623   7.558   3.723   2.867  0.4035  0.4780 -0.5988
   13MOL0     C 1624   7.480   3.805   2.787  0.2652 -0.6747  0.6683
   13MOL0     C 1625   7.485   3.820   2.646 -0.2975 -0.3767 -0.1555
   13MOL0     C 1626   7.391   3.893   2.574 -0.0459  0.1056  0.7638
   13MOL0     C 1627   7.290   3.962   2.642  0.4213 -0.2478  0.1241
   13MOL0     O 1628   7.190   4.037   2.584  0.4858 -0.3986 -0.0901
   13MOL0     C 1629   7.173   4.043   2.444 -0.7344 -0.5661  0.9970
   13MOL0     C 1630   7.086   4.165   2.408 -0.2756  0.5529  0.5196
   13MOL0     C 1631   6.946   4.170   2.477  0.2574  0.3475  0.7051
   13MOL0     C 1632   6.859   4.296   2.445 -1.8272 -0.0879 -0.2311
   13MOL0     C 1633   6.752   4.293   2.546 -0.1582 -1.1106  0.1380
   13MOL0     C 1634   6.633   4.192   2.514  0.0316  0.3768  0.3336
   13MOL0     C 1635   6.552   4.169   2.643 -0.2305 -0.0733  0.0099
   13MOL0     C 1636   6.403   4.159   2.617  0.0120 -0.8386 -0.4502
   13MOL0     N 1637   6.335   4.108   2.737  0.4428  0.1942  0.3013
   13MOL0     C 1638   6.233   4.171   2.787  0.6125 -1.0768 -0.9891
   13MOL0     C 1639   6.201   4.103   2.903 -0.0923  0.4859  0.2245
   13MOL0     C 1640   6.075   4.129   2.984 -1.1951  0.4164  0.3940
   13MOL0     C 1641   5.957   4.054   2.941  0.0837  0.0943 -0.0166
   13MOL0     C 1642   5.845   4.081   3.045  0.1857 -0.1600  0.1524
   13MOL0     C 1643   5.705   4.053   2.990  0.5186 -0.2979  1.0192
   13MOL0     O 1644   5.603   4.077   3.094 -0.0195 -0.4449  0.3870
   13MOL0     C 1645   5.475   4.027   3.068 -0.1759  0.2638 -0.0155
   13MOL0     C 1646   5.384   4.036   3.168 -0.0409 -0.2632 -0.1312
   13MOL0     C 1647   5.250   3.998   3.154 -0.9303  0.7102  0.6989
   13MOL0     C 1648   5.162   4.013   3.276 -0.4064  0.5766  0.6835
   13MOL0     C 1649   5.199   3.956   3.025  0.2199  0.7540 -0.5900
   13MOL0     C 1650   5.070   3.879   3.018  0.2679  0.1743  0.2389
   13MOL0     O 1651   5.074   3.747   2.988  0.5858  0.1428 -0.0128
   13MOL0     C 1652   4.963   3.664   2.988  0.0262  0.9943 -0.3359
   13MOL0     C 1653   4.881   3.656   3.097  0.4944 -0.5592  0.7567
   13MOL0     C 1654   4.766   3.576   3.090  0.3875  0.1019 -0.0683
   13MOL0     C 1655   4.721   3.520   2.975 -0.5840  0.3930  0.7473
   13MOL0     O 1656   4.599   3.458   2.981  0.1284 -0.0059 -0.4383
   13MOL0     C 1657   4.564   3.355   2.889 -0.1087 -0.2637  0.0789
   13MOL0     C 1658   4.650   3.228   2.921 -0.8858  0.1617  0.9021
   13MOL0     C 1659   4.619   3.185   3.067  0.2781 -0.0425 -0.0197
   13MOL0     C 1660   4.709   3.075   3.124 -0.2233  0.3307  0.6957
   13MOL0     C 1661   4.670   2.939   3.056 -0.1679 -0.4066 -0.5960
   13MOL0     C 1662   4.538   2.879   3.093  0.5189  0.0126 -0.0083
   13MOL0     C 1663   4.530   2.739   3.019  0.0286 -0.2303  0.0610
   13MOL0     C 1664   4.400   2.647   3.044 -1.0472 -0.5578 -0.5271
   13MOL0    Cl 1665   4.250   2.717   2.979 -0.0603 -0.1021 -0.1102
   13MOL0     C 1666   4.804   3.521   2.860  0.1701 -0.1213 -0.1716
   13MOL0     C 1667   4.930   3.591   2.874 -0.0862 -0.6571  0.7027
   13MOL0     O 1668   4.973   3.940   3.062 -0.0743 -0.1144  0.2603
   13MOL0     C 1669   5.289   3.954   2.916 -0.4677  0.6701  0.4416
   13MOL0     C 1670   5.427   3.978   2.946 -0.5659  0.6734 -0.1665
   13MOL0     N 1671   6.295   4.003   2.920 -0.6975 -0.5990 -0.6975
   13MOL0     N 1672   6.373   4.013   2.828 -0.5439  0.0563 -0.2529
   13MOL0     C 1673   7.273   3.935   2.778  0.0240 -0.1783 -0.4859
   13MOL0     C 1674   7.366   3.866   2.846 -0.4531  0.6813 -0.0282
   13MOL0     C 1675   7.769   3.588   2.895 -0.3195 -0.5269  0.2220
   13MOL0     C 1676   7.911   3.576   2.888 -1.0278 -0.3615  0.1463
   13MOL0     C 1677   7.974   3.482   2.965  0.2788  0.8935 -0.1869
   13MOL0     C 1678   7.909   3.398   3.057  0.1757 -0.1544  0.4777
   13MOL0     O 1679   7.965   3.302   3.141  0.1582  0.2271  0.2564
   13MOL0     C 1680   8.095   3.255   3.123  0.0739 -0.2605  0.1348
   13MOL0     C 1681   8.109   3.140   3.223 -0.1537  0.5936 -0.8240
   13MOL0     C 1682   8.252   3.113   3.269  0.0598 -0.4712  0.2457
   13MOL0     C 1683   8.266   3.016   3.389 -0.4704  0.0054 -0.1875
   13MOL0     C 1684   8.413   3.005   3.405  0.3476 -0.9602  0.3486
   13MOL0     C 1685   8.531   2.979   3.400 -0.0853 -0.0620  0.7566
   13MOL0     C 1686   7.772   3.419   3.074  0.1416 -0.0453 -0.1217
   13MOL0     C 1687   7.699   3.511   2.986 -0.2504  0.8113 -0.4916
   13MOL0     H 1688   7.563   3.770   2.590  1.0462 -0.9404  2.0586
   13MOL0     H 1689   7.383   3.883   2.466  2.7654  0.0999  0.4881
   13MOL0     H 1690   7.268   4.061   2.394 -0.3850  2.6884  2.5949
   13MOL0     H 1691   7.120   3.960   2.394  0.2375  1.1168 -3.2304
   13MOL0     H 1692   7.143   4.258   2.417  1.4260 -0.3413 -0.4205
   13MOL0     H 1693   7.077   4.170   2.299  1.1795  1.3864  0.4054
   13MOL0     H 1694   6.896   4.082   2.435 -0.2675  1.0218 -0.1295
   13MOL0     H 1695   6.963   4.156   2.584 -0.9031  1.3419  1.0498
   13MOL0     H 1696   6.930   4.378   2.459  2.3854 -3.6435  1.6737
   13MOL0     H 1697   6.819   4.300   2.343  0.7400  3.3444 -1.3107
   13MOL0     H 1698   6.790   4.266   2.645 -0.5858  1.8901  1.1947
   13MOL0     H 1699   6.719   4.395   2.568  1.9448 -0.5903  1.1493
   13MOL0     H 1700   6.569   4.241   2.441 -1.1474 -1.5348  0.0014
   13MOL0     H 1701   6.668   4.095   2.477 -0.0695 -0.0755  1.3841
   13MOL0     H 1702   6.590   4.083   2.700 -0.6519 -1.6500 -1.9444
   13MOL0     H 1703   6.559   4.258   2.706 -0.2232 -0.1554  0.1240
   13MOL0     H 1704   6.376   4.091   2.536 -2.3887 -0.1768 -0.2827
   13MOL0     H 1705   6.365   4.258   2.592  1.5443 -0.1091 -0.0042
   13MOL0     H 1706   6.170   4.247   2.740  0.6029 -0.3861  0.1054
   13MOL0     H 1707   6.098   4.098   3.086 -0.3464  1.6361  0.5855
   13MOL0     H 1708   6.059   4.235   2.966 -0.3870  0.1374 -2.4663
   13MOL0     H 1709   5.987   3.950   2.928 -0.0143  0.1368 -0.6369
   13MOL0     H 1710   5.921   4.096   2.846  1.2206  3.2878  0.8369
   13MOL0     H 1711   5.837   4.183   3.084 -0.5053  0.3239 -1.1947
   13MOL0     H 1712   5.862   4.019   3.133  1.3296  0.1297  0.1437
   13MOL0     H 1713   5.696   3.952   2.950 -0.0889  0.8455 -1.9722
   13MOL0     H 1714   5.681   4.122   2.909 -2.0099 -1.9450  0.2302
   13MOL0     H 1715   5.421   4.083   3.259  0.4143  2.8712 -1.7913
   13MOL0     H 1716   5.084   3.940   3.298 -1.0432  0.9976 -0.1156
   13MOL0     H 1717   5.224   4.013   3.366 -1.9655 -1.9069  1.8446
   13MOL0     H 1718   5.116   4.112   3.264 -0.1671  0.6654  0.4883
   13MOL0     H 1719   4.897   3.711   3.189  1.0544  0.4624  0.0671
   13MOL0     H 1720   4.694   3.581   3.172  0.9506  0.5332  0.4055
   13MOL0     H 1721   4.456   3.337   2.892 -0.4085  1.2760 -0.3968
   13MOL0     H 1722   4.584   3.400   2.791  3.2425  1.3565  1.3259
   13MOL0     H 1723   4.631   3.145   2.852 -0.1023 -0.5821  1.5641
   13MOL0     H 1724   4.754   3.259   2.913 -1.1040  0.5862 -0.8983
   13MOL0     H 1725   4.516   3.156   3.086  0.9468 -0.7125  3.0658
   13MOL0     H 1726   4.635   3.271   3.131 -1.1167 -1.3915  2.2730
   13MOL0     H 1727   4.814   3.103   3.114 -0.1688  0.0277  0.4009
   13MOL0     H 1728   4.700   3.072   3.233 -2.1939  0.1342  0.5765
   13MOL0     H 1729   4.757   2.875   3.075  1.2336  1.3507 -0.8799
   13MOL0     H 1730   4.673   2.950   2.947 -1.2452 -0.9240 -0.6940
   13MOL0     H 1731   4.543   2.859   3.201 -0.9378 -4.8714 -0.5999
   13MOL0     H 1732   4.450   2.944   3.092  1.9571  2.0522 -0.8417
   13MOL0     H 1733   4.617   2.693   3.067  1.0019  2.7693  1.3747
   13MOL0     H 1734   4.536   2.747   2.910  0.1362 -0.3336  0.0595
   13MOL0     H 1735   4.389   2.639   3.152 -0.0559 -2.9540 -0.5389
   13MOL0     H 1736   4.422   2.551   2.996  0.9174  0.0091 -0.8695
   13MOL0     H 1737   4.791   3.457   2.774 -1.8325 -1.7568  1.2487
   13MOL0     H 1738   5.003   3.596   2.794 -0.5959  0.8359  0.3051
   13MOL0     H 1739   5.266   3.896   2.827 -0.6538 -1.5250  1.8290
   13MOL0     H 1740   5.494   3.979   2.860 -1.1032  3.0370 -0.6424
   13MOL0     H 1741   7.193   3.981   2.835  0.4846 -0.4675  0.4069
   13MOL0     H 1742   7.346   3.841   2.949 -1.4557 -0.5800 -0.5072
   13MOL0     H 1743   7.971   3.637   2.822 -1.2378 -0.7290 -0.3898
   13MOL0     H 1744   8.082   3.472   2.959  0.2564 -1.4010  1.8960
   13MOL0     H 1745   8.116   3.212   3.025  0.0167  0.6312 -0.2797
   13MOL0     H 1746   8.160   3.339   3.151 -1.1016 -0.1267  2.8407
   13MOL0     H 1747   8.088   3.043   3.177  4.1126 -0.3390 -1.1730
   13MOL0     H 1748   8.045   3.150   3.311  0.8518  0.7535 -0.0914
   13MOL0     H 1749   8.300   3.206   3.300 -0.6162 -0.1062  0.2408
   13MOL0     H 1750   8.313   3.070   3.190 -0.7057  1.1562 -1.3029
   13MOL0     H 1751   8.230   2.915   3.369 -0.4761 -1.0060  4.0585
   13MOL0     H 1752   8.220   3.055   3.480 -0.9100 -1.2576  0.1471
   13MOL0     H 1753   8.637   2.960   3.401 -0.1087 -0.9651 -2.8270
   13MOL0     H 1754   7.713   3.375   3.154 -3.8512 -2.0695 -3.7846
   13MOL0     H 1755   7.592   3.518   3.003  0.0588  2.6975  1.0409
   14MOL0     O 1756   4.038   4.972   5.190 -0.3066  0.3114 -0.7951
   14MOL0     C 1757   4.072   5.077   5.140  0.2651 -0.4460  0.2556
   14MOL0     O 1758   3.986   5.168   5.078  0.0971  0.4527 -0.0873
   14MOL0     C 1759   3.856   5.141   5.040  0.6946  0.5518 -0.6982
   14MOL0     C 1760   3.783   5.015   5.071 -0.3629  0.6130  0.7186
   14MOL0     C 1761   3.646   4.995   5.053  0.3084 -0.3451 -0.7713
   14MOL0     C 1762   3.570   5.098   4.987  0.3234 -0.5109 -1.1216
   14MOL0     O 1763   3.436   5.086   4.961  0.3679 -0.3013  0.6584
   14MOL0     C 1764   3.372   5.142   4.845 -0.0633  0.6078 -0.2401
   14MOL0     C 1765   3.219   5.111   4.826  0.2846 -0.4355 -0.0830
   14MOL0     C 1766   3.144   5.156   4.952 -0.7134 -0.6506  0.2232
   14MOL0     C 1767   2.989   5.139   4.951  0.2590 -0.0755  0.0688
   14MOL0     C 1768   2.923   5.197   5.078 -0.0481  0.6467 -0.8239
   14MOL0     C 1769   2.770   5.202   5.064  1.0525  0.5361  0.8901
   14MOL0     C 1770   2.703   5.301   4.966 -0.3235  0.2188 -0.1523
   14MOL0     C 1771   2.728   5.443   5.007  0.3943 -0.0178  1.2912
   14MOL0     N 1772   2.659   5.532   4.913  0.5926  0.6049 -0.2529
   14MOL0     C 1773   2.522   5.525   4.889 -0.0375  0.6122 -0.0765
   14MOL0     C 1774   2.493   5.638   4.828 -0.8538 -0.6030  0.8419
   14MOL0     C 1775   2.349   5.674   4.786 -0.4359 -0.3269 -0.8158
   14MOL0     C 1776   2.342   5.745   4.650 -0.3430  0.7272  0.5048
   14MOL0     C 1777   2.376   5.639   4.535 -0.3490 -0.3445 -0.4302
   14MOL0     C 1778   2.410   5.721   4.408 -0.6253  0.5680  0.3681
   14MOL0     O 1779   2.312   5.816   4.377  0.0446 -0.3524  0.6561
   14MOL0     C 1780   2.189   5.774   4.337 -0.4193  0.4986  0.0765
   14MOL0     C 1781   2.170   5.644   4.284  1.0474  0.7416  0.8563
   14MOL0     C 1782   2.050   5.613   4.215  1.0722  0.5207 -0.0747
   14MOL0     C 1783   2.031   5.482   4.150  1.1017  0.0844  0.1126
   14MOL0     C 1784   1.935   5.707   4.214 -0.1698 -0.7979 -0.5993
   14MOL0     C 1785   1.805   5.684   4.157  0.6358 -1.2094  0.1788
   14MOL0     O 1786   1.737   5.565   4.182  0.3259 -0.5361 -0.3458
   14MOL0     C 1787   1.603   5.565   4.147  0.0267 -0.7632  0.2307
   14MOL0     C 1788   1.509   5.600   4.249 -0.0665 -0.2562 -0.7094
   14MOL0     C 1789   1.378   5.601   4.232  0.6479  0.0743  0.8974
   14MOL0     C 1790   1.326   5.574   4.106 -0.4444 -0.6523 -0.5782
   14MOL0     O 1791   1.199   5.586   4.078 -0.1988  0.0985 -0.0201
   14MOL0     C 1792   1.154   5.724   4.091 -0.5241  0.2347  0.1781
   14MOL0     C 1793   1.032   5.757   4.011 -0.0043  0.3537 -0.7510
   14MOL0     C 1794   1.041   5.729   3.863  0.3710 -0.2263  0.3975
   14MOL0     C 1795   0.916   5.788   3.793 -1.3170  0.7203 -0.3022
   14MOL0     C 1796   0.914   5.752   3.652 -0.3059  0.8357  0.5540
   14MOL0     C 1797   0.812   5.828   3.563 -0.1121 -0.7373 -0.5983
   14MOL0     C 1798   0.818   5.774   3.423 -0.5220  0.7791  0.0847
   14MOL0     C 1799   0.744   5.854   3.319  0.6040  0.1482  0.9824
   14MOL0    Cl 1800   0.735   6.033   3.345  0.1443  0.3413 -0.2965
   14MOL0     C 1801   1.409   5.541   4.005 -0.3925 -0.3996 -0.1990
   14MOL0     C 1802   1.551   5.533   4.018 -0.4531 -0.0028 -0.5731
   14MOL0     O 1803   1.763   5.772   4.077  0.5709  0.1066 -0.3530
   14MOL0     C 1804   1.969   5.830   4.260 -0.6552  0.1636  0.8034
   14MOL0     C 1805   2.095   5.867   4.305 -0.8943  0.2454 -0.5054
   14MOL0     N 1806   2.606   5.721   4.820 -0.1175  0.9625  0.3686
   14MOL0     N 1807   2.706   5.658   4.871  0.7521  0.4544 -0.7670
   14MOL0     C 1808   3.636   5.221   4.966 -0.8541 -0.7319  0.3627
   14MOL0     C 1809   3.772   5.243   4.981  0.0555  0.6621 -0.7437
   14MOL0     C 1810   4.213   5.123   5.173 -0.1201 -1.3277  0.0495
   14MOL0     C 1811   4.309   5.045   5.235 -0.3737  0.7508  0.1459
   14MOL0     C 1812   4.442   5.081   5.262 -0.7231 -0.1350  0.0472
   14MOL0     C 1813   4.477   5.212   5.236  0.1078 -0.1346  0.0403
   14MOL0     O 1814   4.606   5.250   5.251  0.0853 -0.1685  0.0314
   14MOL0     C 1815   4.642   5.387   5.238 -0.0449  0.8706  0.0046
   14MOL0     C 1816   4.793   5.420   5.262  0.6704 -0.1215  0.2746
   14MOL0     C 1817   4.816   5.574   5.221 -0.0725  0.0525 -1.1209
   14MOL0     C 1818   4.964   5.619   5.221 -0.1375 -0.4167  0.8779
   14MOL0     C 1819   5.012   5.626   5.352 -0.0613  0.1787 -0.3727
   14MOL0     C 1820   5.051   5.621   5.468  0.2597 -1.6657  0.5721
   14MOL0     C 1821   4.378   5.296   5.189 -0.4776 -0.2045  0.2854
   14MOL0     C 1822   4.246   5.261   5.155  0.0672 -0.7327 -0.3597
   14MOL0     H 1823   3.828   4.927   5.117  0.7761  0.2362 -1.0332
   14MOL0     H 1824   3.616   4.894   5.080  0.0015  0.4596  2.3444
   14MOL0     H 1825   3.390   5.249   4.841 -2.1933  0.9591 -1.4414
   14MOL0     H 1826   3.419   5.102   4.754 -0.3633 -0.7493  0.1686
   14MOL0     H 1827   3.201   5.174   4.739  0.4440  1.8064  1.4101
   14MOL0     H 1828   3.205   5.004   4.810  1.8211 -0.4792 -1.3981
   14MOL0     H 1829   3.192   5.086   5.021  4.0150 -0.2028 -2.1937
   14MOL0     H 1830   3.177   5.256   4.983 -0.4269 -1.1775  1.6989
   14MOL0     H 1831   2.947   5.183   4.860 -1.0442  0.3678  0.8496
   14MOL0     H 1832   2.963   5.033   4.947 -0.2174 -0.0741  2.1557
   14MOL0     H 1833   2.952   5.146   5.171 -0.4509 -1.9416 -2.0348
   14MOL0     H 1834   2.964   5.298   5.085 -0.6116  0.8763 -0.8187
   14MOL0     H 1835   2.742   5.101   5.032  1.0806  0.4658  1.0842
   14MOL0     H 1836   2.720   5.218   5.161 -0.9082  1.4244 -0.2098
   14MOL0     H 1837   2.760   5.291   4.873  0.8268  1.6928  0.3679
   14MOL0     H 1838   2.596   5.279   4.951 -0.0159 -1.5222 -0.0145
   14MOL0     H 1839   2.834   5.463   5.019  0.0353  2.6368  0.7475
   14MOL0     H 1840   2.670   5.449   5.100 -2.5300  2.2252 -0.4691
   14MOL0     H 1841   2.461   5.442   4.922  4.2131 -1.2260  4.2602
   14MOL0     H 1842   2.301   5.576   4.786  0.8236 -0.9750 -1.5296
   14MOL0     H 1843   2.299   5.732   4.864  0.3769 -1.4108  0.5519
   14MOL0     H 1844   2.413   5.828   4.651  0.1290  0.3253  0.4517
   14MOL0     H 1845   2.241   5.784   4.637 -0.0087  1.6216  0.5185
   14MOL0     H 1846   2.290   5.572   4.521 -0.4354 -0.5752  1.0003
   14MOL0     H 1847   2.458   5.573   4.566  0.7776  0.8393 -0.8272
   14MOL0     H 1848   2.442   5.652   4.328 -0.0649  0.2155  0.8834
   14MOL0     H 1849   2.505   5.771   4.428  0.1215 -1.5546  2.7737
   14MOL0     H 1850   2.248   5.570   4.295  0.9977  0.2051 -1.7075
   14MOL0     H 1851   1.977   5.502   4.057 -1.0710 -2.8294  0.5807
   14MOL0     H 1852   2.134   5.449   4.136  1.8315  2.2698  0.0568
   14MOL0     H 1853   1.973   5.410   4.209 -2.3477  0.2692 -2.6861
   14MOL0     H 1854   1.542   5.625   4.350 -1.8091  0.0836 -0.2026
   14MOL0     H 1855   1.307   5.639   4.305 -0.7295  0.4910 -0.5860
   14MOL0     H 1856   1.137   5.737   4.199 -1.7348  0.4920 -0.0260
   14MOL0     H 1857   1.238   5.792   4.073 -0.3053  0.6501  2.4458
   14MOL0     H 1858   0.948   5.705   4.058 -0.5519  3.0509  1.4771
   14MOL0     H 1859   1.012   5.864   4.020  0.5257  0.4872 -1.1090
   14MOL0     H 1860   1.055   5.624   3.834 -0.1173 -0.5069  1.1684
   14MOL0     H 1861   1.126   5.778   3.813 -1.3367 -2.1558 -5.1529
   14MOL0     H 1862   0.824   5.743   3.832 -2.7031  2.6646 -1.1692
   14MOL0     H 1863   0.914   5.898   3.796 -0.8502  0.8008 -1.8837
   14MOL0     H 1864   0.897   5.644   3.639  0.0405  1.0129 -1.7774
   14MOL0     H 1865   1.018   5.773   3.622 -0.5754 -0.6673 -1.6558
   14MOL0     H 1866   0.711   5.812   3.602  0.2095 -1.1178  0.0823
   14MOL0     H 1867   0.840   5.933   3.558  0.1202 -0.7972 -0.5435
   14MOL0     H 1868   0.777   5.673   3.427  0.4132  0.4252  2.0638
   14MOL0     H 1869   0.926   5.758   3.411 -0.4778 -0.7729  1.9911
   14MOL0     H 1870   0.640   5.824   3.329  0.3312  0.9005  0.4934
   14MOL0     H 1871   0.773   5.843   3.214  2.9122  3.3319  1.1325
   14MOL0     H 1872   1.369   5.509   3.909 -0.7202 -0.9573  0.1176
   14MOL0     H 1873   1.625   5.521   3.940  1.6895 -1.0160  1.5051
   14MOL0     H 1874   1.902   5.914   4.242 -0.9888 -0.2841 -0.1329
   14MOL0     H 1875   2.109   5.974   4.322  1.3539 -0.2386  1.1669
   14MOL0     H 1876   3.567   5.299   4.936 -1.0884  0.1921  3.0002
   14MOL0     H 1877   3.824   5.337   4.969  1.4361  0.1037  0.5739
   14MOL0     H 1878   4.288   4.945   5.272  0.6898  0.5283  0.1803
   14MOL0     H 1879   4.509   5.003   5.295 -1.3515 -2.1290 -3.0059
   14MOL0     H 1880   4.605   5.437   5.147 -0.1886  0.9371  0.0981
   14MOL0     H 1881   4.586   5.437   5.317 -3.9585 -3.5077  0.3916
   14MOL0     H 1882   4.853   5.367   5.188 -0.1237 -0.9105  0.1764
   14MOL0     H 1883   4.823   5.386   5.361  1.8684  1.2136  0.4040
   14MOL0     H 1884   4.758   5.638   5.288 -0.0026  1.6859 -2.5537
   14MOL0     H 1885   4.762   5.595   5.128 -3.0550 -0.0287  0.4737
   14MOL0     H 1886   4.963   5.718   5.175  0.7968 -0.5136  0.6326
   14MOL0     H 1887   5.016   5.545   5.161 -5.0563 -2.7069 -1.0936
   14MOL0     H 1888   5.084   5.611   5.569 -0.1854 -0.5429  0.8345
   14MOL0     H 1889   4.393   5.404   5.183 -1.9031  0.2740  3.4249
   14MOL0     H 1890   4.172   5.337   5.134 -0.7060 -1.4265 -0.2111
   15MOL0     O 1891  11.354   3.144   3.133  0.3359  0.5305  0.2744
   15MOL0     C 1892  11.370   3.136   3.013  0.0636  0.5457  1.0125
   15MOL0     O 1893  11.322   3.220   2.914 -0.0154 -0.0465  0.2821
   15MOL0     C 1894  11.232   3.318   2.944  0.8224  0.4294 -0.8131
   15MOL0     C 1895  11.267   3.452   2.917  0.0982 -0.3461 -0.2000
   15MOL0     C 1896  11.163   3.557   2.918 -0.4762 -0.4053  0.6610
   15MOL0     C 1897  11.028   3.530   2.949 -0.5428  0.0632 -0.6655
   15MOL0     O 1898  10.949   3.641   2.951  0.5711 -0.5694  0.7147
   15MOL0     C 1899  10.825   3.637   3.025  0.5357 -0.0894 -0.0684
   15MOL0     C 1900  10.764   3.769   2.988  0.1612  0.2555 -0.1931
   15MOL0     C 1901  10.645   3.794   3.081  0.4463 -1.6793  0.2664
   15MOL0     C 1902  10.571   3.925   3.049  0.1620 -0.7926  0.3876
   15MOL0     C 1903  10.425   3.948   3.089  0.9074  0.0253 -0.0531
   15MOL0     C 1904  10.343   4.066   3.021 -0.6568  0.2391  0.1934
   15MOL0     C 1905  10.186   4.059   3.045  0.2636  0.1994  0.3304
   15MOL0     C 1906  10.121   4.159   2.947  0.5747 -0.0300  0.6533
   15MOL0     N 1907  10.133   4.116   2.805  0.1091  0.1681  0.1532
   15MOL0     C 1908  10.091   3.993   2.757 -1.1269 -0.3417 -1.2510
   15MOL0     C 1909  10.124   3.992   2.627 -0.0238 -0.5093 -0.3355
   15MOL0     C 1910  10.079   3.889   2.521  0.4863  0.1596 -1.0132
   15MOL0     C 1911   9.959   3.922   2.431  0.2420 -0.5722 -0.1809
   15MOL0     C 1912   9.951   3.807   2.325  0.4258 -0.3259  0.0676
   15MOL0     C 1913   9.837   3.829   2.225 -0.0707  0.4253  0.3170
   15MOL0     O 1914   9.713   3.776   2.276  0.2710 -0.4794 -0.0068
   15MOL0     C 1915   9.611   3.756   2.184 -0.6182 -0.2796  0.6048
   15MOL0     C 1916   9.520   3.672   2.239  1.0345  0.5771 -0.0805
   15MOL0     C 1917   9.409   3.626   2.175 -0.1850  0.0237 -0.3895
   15MOL0     C 1918   9.313   3.547   2.250  0.5013  0.2669 -0.5500
   15MOL0     C 1919   9.394   3.668   2.040 -0.0809 -0.2580 -0.5471
   15MOL0     C 1920   9.276   3.628   1.960  0.0940 -0.2363  0.1626
   15MOL0     O 1921   9.209   3.511   2.003 -0.2623  0.0094  0.2692
   15MOL0     C 1922   9.092   3.456   1.954  0.2910  0.3911 -0.7774
   15MOL0     C 1923   9.075   3.319   1.921  0.5102  0.1435  0.8915
   15MOL0     C 1924   8.964   3.283   1.839 -0.0450 -0.7849 -0.4428
   15MOL0     C 1925   8.852   3.370   1.824  0.4037  0.8934 -1.1397
   15MOL0     O 1926   8.754   3.331   1.747  0.6721 -0.6424 -0.3585
   15MOL0     C 1927   8.637   3.419   1.721  0.0518  0.2720  0.1513
   15MOL0     C 1928   8.563   3.364   1.598 -0.7385  0.5891  0.1265
   15MOL0     C 1929   8.445   3.454   1.573 -0.2161  0.3288  1.4378
   15MOL0     C 1930   8.353   3.382   1.470 -0.2145 -0.2865 -0.0232
   15MOL0     C 1931   8.257   3.276   1.536 -0.7796 -0.4286 -0.5701
   15MOL0     C 1932   8.124   3.331   1.604 -0.0493  0.3475 -0.3332
   15MOL0     C 1933   8.035   3.214   1.650 -0.1894 -0.1781  1.1616
   15MOL0     C 1934   7.995   3.125   1.533  0.6772 -0.2716 -0.0520
   15MOL0    Cl 1935   7.878   3.010   1.582 -0.4416  0.1644 -0.2552
   15MOL0     C 1936   8.867   3.501   1.872 -0.2721  0.2644  0.7626
   15MOL0     C 1937   8.987   3.546   1.929  0.1022 -0.1241 -0.0987
   15MOL0     O 1938   9.252   3.689   1.851 -0.1642  0.3785 -0.1051
   15MOL0     C 1939   9.492   3.749   1.979  0.4004 -1.1335 -0.8696
   15MOL0     C 1940   9.603   3.789   2.046  0.5211 -0.2956  0.2370
   15MOL0     N 1941  10.178   4.114   2.592 -0.1660 -0.4254  0.2746
   15MOL0     N 1942  10.186   4.193   2.700 -0.4946 -0.6577  0.3525
   15MOL0     C 1943  11.003   3.394   2.984 -0.6473  0.3300 -0.1764
   15MOL0     C 1944  11.096   3.290   2.978 -0.1378  0.1567  0.1216
   15MOL0     C 1945  11.463   3.036   2.958  0.2871 -0.5465  0.7126
   15MOL0     C 1946  11.539   2.956   3.049  0.2598 -0.4119 -0.0602
   15MOL0     C 1947  11.620   2.850   2.991 -0.1701  0.3297  0.0993
   15MOL0     C 1948  11.624   2.823   2.859 -0.2897  0.2226  0.3028
   15MOL0     O 1949  11.695   2.718   2.813  0.3907 -0.4692  1.1069
   15MOL0     C 1950  11.837   2.731   2.812 -0.0775 -0.5878  0.6802
   15MOL0     C 1951  11.885   2.868   2.743  0.4214  0.5293  0.4003
   15MOL0     C 1952  12.034   2.900   2.761 -0.2802  0.6487  0.1160
   15MOL0     C 1953  12.111   2.875   2.630 -0.1695  0.8940 -0.5939
   15MOL0     C 1954  12.257   2.896   2.656  0.3774 -1.0415 -0.5877
   15MOL0     C 1955  12.371   2.911   2.669  0.0951  0.7211 -0.7212
   15MOL0     C 1956  11.547   2.907   2.775 -0.4088  0.4947  0.1697
   15MOL0     C 1957  11.468   3.010   2.822  0.8679  0.6068 -0.7079
   15MOL0     H 1958  11.366   3.466   2.876  1.2354 -2.9336  1.4431
   15MOL0     H 1959  11.195   3.657   2.891  1.3860 -1.0405  0.3859
   15MOL0     H 1960  10.754   3.563   2.986  1.3580 -2.6814  2.8682
   15MOL0     H 1961  10.839   3.627   3.134 -0.6236  0.9555  0.1886
   15MOL0     H 1962  10.842   3.845   3.005 -1.2828  1.4500  1.4117
   15MOL0     H 1963  10.733   3.756   2.884  2.4932 -2.6067 -0.6673
   15MOL0     H 1964  10.567   3.717   3.083 -1.9258  0.5312 -0.9561
   15MOL0     H 1965  10.691   3.802   3.180  2.1740 -1.8277 -0.4956
   15MOL0     H 1966  10.637   4.007   3.077 -0.0736 -1.0573  1.7656
   15MOL0     H 1967  10.577   3.937   2.940 -0.6246 -1.4184  0.2553
   15MOL0     H 1968  10.372   3.854   3.073  0.3271  0.0581  1.4518
   15MOL0     H 1969  10.435   3.976   3.195  2.0296  0.3812 -0.2454
   15MOL0     H 1970  10.379   4.166   3.044 -1.6175  0.8506 -0.8665
   15MOL0     H 1971  10.371   4.052   2.916  4.2601  1.9087  0.9928
   15MOL0     H 1972  10.145   3.962   3.015 -2.7969  1.9355 -1.6429
   15MOL0     H 1973  10.156   4.084   3.147 -2.5359 -1.5749  0.0326
   15MOL0     H 1974  10.162   4.260   2.950  0.9971 -0.1862  0.3074
   15MOL0     H 1975  10.012   4.156   2.954  0.5434 -0.8458  0.0368
   15MOL0     H 1976  10.031   3.928   2.820 -0.1347  1.9729  2.3913
   15MOL0     H 1977  10.157   3.846   2.458 -0.1720 -1.7316 -0.6118
   15MOL0     H 1978  10.047   3.796   2.570 -0.0211 -1.2750 -3.8523
   15MOL0     H 1979   9.982   4.019   2.386 -3.2416  1.6184  2.2394
   15MOL0     H 1980   9.876   3.946   2.498  1.8901 -1.3303  2.2707
   15MOL0     H 1981   9.937   3.721   2.390  0.9832 -0.6679 -0.2550
   15MOL0     H 1982  10.043   3.794   2.267  0.9507 -1.1036  1.0330
   15MOL0     H 1983   9.858   3.775   2.132 -0.2743 -2.3725  1.7785
   15MOL0     H 1984   9.821   3.935   2.201  0.4687  0.1541 -1.3445
   15MOL0     H 1985   9.537   3.645   2.343  2.7262  2.5614  0.2336
   15MOL0     H 1986   9.343   3.543   2.355 -1.8819 -1.1463  0.1650
   15MOL0     H 1987   9.216   3.597   2.252  0.9489  1.3091 -2.3088
   15MOL0     H 1988   9.313   3.442   2.220 -0.8275 -0.1507  0.8294
   15MOL0     H 1989   9.158   3.252   1.941  0.2581 -1.9298 -3.7289
   15MOL0     H 1990   8.942   3.180   1.812 -2.5697 -0.7198  1.0129
   15MOL0     H 1991   8.574   3.418   1.810 -0.1961  1.0743 -0.0018
   15MOL0     H 1992   8.664   3.524   1.706 -3.9072  1.3781 -0.3026
   15MOL0     H 1993   8.630   3.362   1.512  0.8075 -6.2723  0.8587
   15MOL0     H 1994   8.533   3.259   1.606 -0.0670 -0.0079 -3.5600
   15MOL0     H 1995   8.492   3.540   1.524 -2.0258  0.1547 -0.7473
   15MOL0     H 1996   8.386   3.485   1.660 -1.4200 -2.6022  1.7615
   15MOL0     H 1997   8.285   3.459   1.432  0.6690  1.7484  2.2260
   15MOL0     H 1998   8.406   3.339   1.385 -1.6806 -2.5728  0.1330
   15MOL0     H 1999   8.310   3.209   1.604  0.4775  1.7354  0.7025
   15MOL0     H 2000   8.237   3.221   1.444  0.1817 -2.5306  0.3984
   15MOL0     H 2001   8.148   3.383   1.696  1.7744 -0.3036 -0.4088
   15MOL0     H 2002   8.068   3.398   1.537 -0.4512 -0.4829 -0.8556
   15MOL0     H 2003   7.951   3.266   1.697 -0.5051  0.6110 -0.2225
   15MOL0     H 2004   8.096   3.156   1.720  1.8482 -1.3952 -1.4772
   15MOL0     H 2005   8.087   3.072   1.505  0.6536 -0.4823  0.2558
   15MOL0     H 2006   7.968   3.189   1.449  1.5758  1.6713  1.0587
   15MOL0     H 2007   8.797   3.580   1.850  1.7808  1.7849 -0.6389
   15MOL0     H 2008   9.007   3.652   1.946 -0.0497 -0.4673  2.6512
   15MOL0     H 2009   9.474   3.789   1.880 -0.9162  0.0344 -0.2039
   15MOL0     H 2010   9.682   3.851   2.004  1.1341 -0.6553  0.8399
   15MOL0     H 2011  10.902   3.360   3.001 -0.1519 -0.9400  0.3689
   15MOL0     H 2012  11.071   3.185   2.989  0.0027 -0.0900 -1.5923
   15MOL0     H 2013  11.543   2.976   3.155 -0.8164  1.4502 -0.3154
   15MOL0     H 2014  11.681   2.787   3.054  1.7258  2.7063  0.7909
   15MOL0     H 2015  11.873   2.731   2.915  2.3513 -1.2590 -0.1058
   15MOL0     H 2016  11.885   2.643   2.768 -0.9082 -0.8859  0.3482
   15MOL0     H 2017  11.828   2.956   2.775  0.3981  0.8779 -0.5651
   15MOL0     H 2018  11.863   2.859   2.636  2.4210 -3.3031  0.1385
   15MOL0     H 2019  12.070   2.843   2.847 -1.6666  0.0317  0.3169
   15MOL0     H 2020  12.043   3.004   2.795  0.1126  1.3434 -1.9724
   15MOL0     H 2021  12.088   2.949   2.553  0.7654 -1.3897 -3.2085
   15MOL0     H 2022  12.090   2.777   2.587 -0.1383  0.6519 -0.0609
   15MOL0     H 2023  12.475   2.931   2.685  0.3926 -1.1214 -0.1337
   15MOL0     H 2024  11.547   2.902   2.667  1.7366 -1.1465  0.1703
   15MOL0     H 2025  11.407   3.070   2.754 -1.0513  0.5309  0.8509
   16MOL0     O 2026  10.700   3.005   4.465  0.2002  0.9154 -0.1607
   16MOL0     C 2027  10.736   3.084   4.385  0.1751 -0.4542  1.3202
   16MOL0     O 2028  10.711   3.076   4.245 -0.1347 -0.3440 -0.2612
   16MOL0     C 2029  10.653   2.967   4.182 -1.2311 -0.0889  0.1308
   16MOL0     C 2030  10.704   2.946   4.054 -0.7935 -0.6198 -0.5303
   16MOL0     C 2031  10.667   2.840   3.978 -0.4422  1.2249 -0.1287
   16MOL0     C 2032  10.578   2.737   4.018  0.8917 -0.2091  0.9198
   16MOL0     O 2033  10.541   2.634   3.945 -0.9036  0.3533  0.1941
   16MOL0     C 2034  10.540   2.654   3.798 -1.5388 -0.2475 -0.1454
   16MOL0     C 2035  10.466   2.560   3.706  0.3054 -0.2119  0.1673
   16MOL0     C 2036  10.514   2.411   3.717  0.3363 -0.8233  0.0520
   16MOL0     C 2037  10.534   2.343   3.582  0.2330  0.2191 -0.5837
   16MOL0     C 2038  10.586   2.198   3.595  0.5954  0.0871 -0.9662
   16MOL0     C 2039  10.615   2.129   3.466 -0.6671  0.3096  0.1934
   16MOL0     C 2040  10.710   2.001   3.481 -0.0853  1.0131  0.1942
   16MOL0     C 2041  10.609   1.887   3.490  0.0799 -0.7893  0.2750
   16MOL0     N 2042  10.672   1.760   3.539  0.6713 -0.8524 -0.2615
   16MOL0     C 2043  10.597   1.651   3.552 -0.6688 -0.3509 -1.3287
   16MOL0     C 2044  10.683   1.552   3.592 -0.3239  0.3549  0.3026
   16MOL0     C 2045  10.654   1.406   3.617  0.5251 -0.1723  0.0083
   16MOL0     C 2046  10.554   1.397   3.730 -0.4878  0.6499 -1.1561
   16MOL0     C 2047  10.549   1.255   3.811 -0.0973 -0.5010  0.1483
   16MOL0     C 2048  10.513   1.136   3.718 -0.4449 -0.1980  0.6077
   16MOL0     O 2049  10.390   1.164   3.644 -0.6972 -0.5409  0.2287
   16MOL0     C 2050  10.277   1.133   3.721 -0.1266  0.4474  0.0258
   16MOL0     C 2051  10.161   1.144   3.650  0.8183 -0.3440 -0.8524
   16MOL0     C 2052  10.034   1.126   3.711  0.1588 -0.3115 -1.8233
   16MOL0     C 2053   9.913   1.172   3.625 -0.5734  0.3916  0.0498
   16MOL0     C 2054  10.028   1.090   3.849  1.2160  0.1237  0.2685
   16MOL0     C 2055   9.894   1.081   3.926  0.6265 -1.4770 -0.0344
   16MOL0     O 2056   9.912   1.053   4.065  0.3672 -0.8691 -0.3372
   16MOL0     C 2057   9.801   1.012   4.135 -0.2244 -0.0959 -0.0624
   16MOL0     C 2058   9.711   1.113   4.178  0.8178  0.4482 -0.0687
   16MOL0     C 2059   9.601   1.081   4.262 -0.3949 -0.5730 -0.1861
   16MOL0     C 2060   9.577   0.950   4.292 -1.0400 -0.8037  0.6047
   16MOL0     O 2061   9.464   0.918   4.363 -0.7113  0.3932  0.3466
   16MOL0     C 2062   9.483   0.952   4.499  0.1765 -0.5706  0.2471
   16MOL0     C 2063   9.355   0.895   4.573  0.9282 -0.1774 -1.1143
   16MOL0     C 2064   9.343   0.929   4.721  0.4887 -0.0670  0.4543
   16MOL0     C 2065   9.251   0.817   4.779  0.5093 -1.0066 -1.5356
   16MOL0     C 2066   9.239   0.844   4.930  0.4352  1.0342  0.7024
   16MOL0     C 2067   9.208   0.715   5.003 -0.1761  0.6629 -0.5959
   16MOL0     C 2068   9.184   0.743   5.159 -0.1350 -0.0804  0.7081
   16MOL0     C 2069   9.227   0.610   5.217  0.3300 -0.4651  0.1416
   16MOL0    Cl 2070   9.146   0.462   5.151  0.2242 -0.1344 -0.0570
   16MOL0     C 2071   9.662   0.844   4.246  0.3711  0.4014 -0.2556
   16MOL0     C 2072   9.770   0.881   4.173  0.3308  0.4579 -0.7906
   16MOL0     O 2073   9.785   1.091   3.868  0.0903 -0.4621  0.5046
   16MOL0     C 2074  10.148   1.055   3.912  0.3951  0.4084 -0.2418
   16MOL0     C 2075  10.273   1.080   3.850  0.3242  0.2069  0.2618
   16MOL0     N 2076  10.808   1.608   3.612  0.3527  0.4029  0.1680
   16MOL0     N 2077  10.799   1.729   3.563 -0.1173 -0.2803 -0.2061
   16MOL0     C 2078  10.531   2.753   4.149  0.1885  0.3547  0.5433
   16MOL0     C 2079  10.562   2.868   4.232  0.4178  0.0317  0.5522
   16MOL0     C 2080  10.823   3.201   4.422  1.2123 -0.3824 -0.6865
   16MOL0     C 2081  10.841   3.228   4.562 -0.2621  0.8839  1.1334
   16MOL0     C 2082  10.916   3.331   4.603  0.0019  0.0966 -0.6356
   16MOL0     C 2083  10.973   3.423   4.513 -0.1673 -0.9342 -0.2538
   16MOL0     O 2084  11.047   3.539   4.544 -0.4921 -0.8407 -0.1902
   16MOL0     C 2085  11.087   3.573   4.684  0.9961  0.3443  0.1384
   16MOL0     C 2086  10.974   3.660   4.748 -0.0674  0.5121  0.4590
   16MOL0     C 2087  10.965   3.805   4.699 -0.4311 -0.5363 -0.8225
   16MOL0     C 2088  11.088   3.893   4.737 -0.8491 -1.0865 -0.0038
   16MOL0     C 2089  11.077   4.037   4.738  0.5792 -1.1021 -0.7734
   16MOL0     C 2090  11.080   4.157   4.719  1.0514  0.1939 -0.8804
   16MOL0     C 2091  10.954   3.393   4.375 -0.8962 -0.2713 -0.5278
   16MOL0     C 2092  10.876   3.288   4.334  0.3876  0.1145  0.5608
   16MOL0     H 2093  10.779   3.009   4.007  1.0217 -2.7249 -0.6221
   16MOL0     H 2094  10.716   2.825   3.882 -1.0117  0.9773 -0.3809
   16MOL0     H 2095  10.494   2.752   3.779  2.9724  1.9465 -1.1755
   16MOL0     H 2096  10.644   2.671   3.768 -2.1105  6.6377  0.2374
   16MOL0     H 2097  10.359   2.576   3.721 -0.3765  1.7805 -4.8376
   16MOL0     H 2098  10.482   2.604   3.607  2.9226 -2.2161 -0.4263
   16MOL0     H 2099  10.609   2.400   3.770  0.0771  1.0599  1.0241
   16MOL0     H 2100  10.439   2.359   3.777  0.2870 -1.7822 -0.8342
   16MOL0     H 2101  10.441   2.353   3.525 -0.2352  0.0744  0.1346
   16MOL0     H 2102  10.608   2.394   3.520 -1.1984 -1.0207 -3.4761
   16MOL0     H 2103  10.672   2.191   3.663 -0.3945 -1.4944  0.1922
   16MOL0     H 2104  10.500   2.152   3.644 -2.0161  2.4453 -3.0728
   16MOL0     H 2105  10.522   2.121   3.410  0.6350  0.5070 -2.1189
   16MOL0     H 2106  10.674   2.197   3.405 -0.0188  0.1623  0.6409
   16MOL0     H 2107  10.772   1.973   3.396  1.3148 -0.4351  1.6180
   16MOL0     H 2108  10.764   2.021   3.574 -2.3826  0.7834  1.6599
   16MOL0     H 2109  10.560   1.880   3.392 -0.8462 -0.7774  0.7281
   16MOL0     H 2110  10.532   1.912   3.563 -0.7662  1.2709 -1.2202
   16MOL0     H 2111  10.496   1.636   3.515 -0.5503 -0.8036 -1.4831
   16MOL0     H 2112  10.615   1.359   3.526 -0.9743  3.7069 -1.5661
   16MOL0     H 2113  10.744   1.352   3.646  0.4181 -1.3513 -1.7036
   16MOL0     H 2114  10.453   1.419   3.691 -1.6131 -0.3776  1.0161
   16MOL0     H 2115  10.570   1.478   3.802 -1.0490 -1.3095  1.3036
   16MOL0     H 2116  10.488   1.266   3.901 -1.9942 -1.1134 -1.0077
   16MOL0     H 2117  10.647   1.232   3.854 -0.6266 -0.4648  1.4367
   16MOL0     H 2118  10.508   1.035   3.759 -1.3882 -1.2101 -1.8163
   16MOL0     H 2119  10.586   1.132   3.636  0.2562  1.5675  1.0891
   16MOL0     H 2120  10.172   1.179   3.548  0.1023 -1.5194 -1.3547
   16MOL0     H 2121   9.940   1.184   3.520  0.2358  0.0132  0.2071
   16MOL0     H 2122   9.840   1.091   3.631 -0.1551  0.1051  2.3319
   16MOL0     H 2123   9.867   1.263   3.667  0.4781  1.2567 -0.6419
   16MOL0     H 2124   9.723   1.218   4.154 -0.7847  1.1026  1.7400
   16MOL0     H 2125   9.530   1.157   4.293  2.0135  1.3464  1.0109
   16MOL0     H 2126   9.574   0.908   4.542 -0.9743 -3.2385  0.1707
   16MOL0     H 2127   9.491   1.061   4.507  1.0840 -0.6476  0.5597
   16MOL0     H 2128   9.265   0.935   4.526  1.0483 -1.6993 -2.7500
   16MOL0     H 2129   9.363   0.787   4.559  2.2899 -0.3516  0.6459
   16MOL0     H 2130   9.311   1.033   4.731  2.1591  0.2691  4.2183
   16MOL0     H 2131   9.444   0.914   4.761  1.3242 -0.5950 -1.7082
   16MOL0     H 2132   9.157   0.795   4.728  0.2840 -2.6008 -0.5038
   16MOL0     H 2133   9.304   0.722   4.773  2.6475  0.0823 -1.0523
   16MOL0     H 2134   9.165   0.923   4.937 -0.2874  0.3115  1.5167
   16MOL0     H 2135   9.333   0.887   4.967  0.5664  0.8182  0.6225
   16MOL0     H 2136   9.126   0.661   4.954  1.3754 -2.5919  0.1000
   16MOL0     H 2137   9.299   0.657   4.986 -2.2183 -2.5815 -1.4125
   16MOL0     H 2138   9.078   0.772   5.163 -0.5947 -1.3648 -1.0695
   16MOL0     H 2139   9.251   0.823   5.192  2.1337  0.2736 -3.9345
   16MOL0     H 2140   9.205   0.616   5.324  0.6923  0.3856  0.1782
   16MOL0     H 2141   9.332   0.587   5.200  0.7874  1.3372  0.2574
   16MOL0     H 2142   9.625   0.750   4.285 -1.8333  1.4818  0.3820
   16MOL0     H 2143   9.838   0.802   4.145 -0.4376 -0.6106  0.2669
   16MOL0     H 2144  10.135   1.019   4.014 -3.6290  2.7785  0.2692
   16MOL0     H 2145  10.357   1.043   3.909  1.7470  4.8691  1.6344
   16MOL0     H 2146  10.461   2.679   4.188  0.7733 -0.9463 -0.8011
   16MOL0     H 2147  10.510   2.886   4.326 -1.5474 -2.6048  0.0978
   16MOL0     H 2148  10.798   3.157   4.632  2.7176 -0.6807  1.5281
   16MOL0     H 2149  10.921   3.349   4.710  0.3936 -1.9239 -0.2793
   16MOL0     H 2150  11.103   3.484   4.745 -1.5613 -0.3545 -0.0918
   16MOL0     H 2151  11.174   3.639   4.682  0.3932  1.1816  0.7275
   16MOL0     H 2152  11.001   3.647   4.853  0.4305  1.5138  0.4624
   16MOL0     H 2153  10.882   3.604   4.727 -0.2281  0.7969  0.3894
   16MOL0     H 2154  10.878   3.854   4.744  1.3011  4.0367 -1.8883
   16MOL0     H 2155  10.937   3.796   4.593 -0.2034 -3.5654 -0.7077
   16MOL0     H 2156  11.165   3.881   4.660 -1.7583 -1.6175 -0.8519
   16MOL0     H 2157  11.136   3.863   4.831  1.7025  1.9356 -0.1678
   16MOL0     H 2158  11.075   4.264   4.722  3.7277  0.3717 -0.5840
   16MOL0     H 2159  10.982   3.458   4.293  1.0996 -0.1874  0.1792
   16MOL0     H 2160  10.847   3.281   4.230 -4.3635 -1.8019  1.7545
   17MOL0     O 2161   2.072   0.138   7.490  0.4189  0.0624  0.1501
   17MOL0     C 2162   2.025   0.105   7.599  0.3389 -1.5064 -0.8313
   17MOL0     O 2163   2.089   0.032   7.698  0.0170 -0.8375  0.4190
   17MOL0     C 2164   2.225   0.016   7.685 -0.8215  0.2856 -0.2542
   17MOL0     C 2165   2.281  -0.116   7.679 -0.2794 -0.3743 -1.1100
   17MOL0     C 2166   2.420  -0.134   7.683  0.3389  0.2205 -0.2685
   17MOL0     C 2167   2.511  -0.033   7.692  0.2893 -0.3509  0.8408
   17MOL0     O 2168   2.645  -0.067   7.671  0.0106 -0.0704  0.5392
   17MOL0     C 2169   2.733   0.034   7.644 -0.4983 -0.5494  0.0785
   17MOL0     C 2170   2.784   0.103   7.768  0.4413 -0.2368  0.2600
   17MOL0     C 2171   2.874   0.007   7.849  0.7883 -0.4301  0.5955
   17MOL0     C 2172   3.015  -0.006   7.787  0.3047 -0.3140 -0.7539
   17MOL0     C 2173   3.094  -0.108   7.870 -0.3989 -0.8531  0.9866
   17MOL0     C 2174   3.238  -0.108   7.816 -0.4729  0.0418 -1.1623
   17MOL0     C 2175   3.326  -0.207   7.892 -0.5133 -0.3036  0.1136
   17MOL0     C 2176   3.476  -0.223   7.847  0.2467  0.0977  1.0718
   17MOL0     N 2177   3.545  -0.092   7.831 -0.0430  0.9554  0.0771
   17MOL0     C 2178   3.541   0.010   7.914 -0.5065 -0.1515 -0.7644
   17MOL0     C 2179   3.642   0.086   7.880 -1.1043  0.4142  0.1423
   17MOL0     C 2180   3.680   0.207   7.975  0.0420 -0.3950 -0.0246
   17MOL0     C 2181   3.710   0.333   7.888  0.5823  0.1248 -0.5652
   17MOL0     C 2182   3.615   0.384   7.783  0.9025  0.4031 -0.2471
   17MOL0     C 2183   3.466   0.351   7.791  0.4951 -1.2247 -1.1303
   17MOL0     O 2184   3.408   0.451   7.878  0.0286  0.1029 -0.0977
   17MOL0     C 2185   3.279   0.420   7.919  0.0732 -0.5886  0.2526
   17MOL0     C 2186   3.186   0.518   7.910 -0.2787 -0.5336  0.2953
   17MOL0     C 2187   3.052   0.508   7.952 -0.6550  0.3563  0.2069
   17MOL0     C 2188   2.966   0.632   7.941  1.0590  0.1421 -0.0684
   17MOL0     C 2189   3.009   0.372   7.989 -0.4116  0.0406  0.2016
   17MOL0     C 2190   2.883   0.339   8.044  1.1536 -0.7950  0.1941
   17MOL0     O 2191   2.775   0.377   7.955 -0.4155  0.0874  0.4304
   17MOL0     C 2192   2.648   0.362   8.002 -0.2907 -0.3348  0.0416
   17MOL0     C 2193   2.593   0.247   8.037 -0.4154  0.3998 -0.0233
   17MOL0     C 2194   2.450   0.242   8.075 -0.9728 -0.4506 -1.5244
   17MOL0     C 2195   2.379   0.360   8.100  0.2722  0.1928  0.0403
   17MOL0     O 2196   2.260   0.355   8.162  0.5500 -0.1094 -0.1147
   17MOL0     C 2197   2.174   0.473   8.158  0.5324  1.0282 -0.8266
   17MOL0     C 2198   2.034   0.444   8.227 -0.6536 -0.1098  0.8551
   17MOL0     C 2199   1.933   0.372   8.124  0.3433  0.0445  0.7468
   17MOL0     C 2200   1.792   0.381   8.190 -0.6180  0.4289  0.6885
   17MOL0     C 2201   1.683   0.345   8.080  0.0231 -0.9537 -0.4499
   17MOL0     C 2202   1.550   0.430   8.108 -0.0511  0.0122 -0.0245
   17MOL0     C 2203   1.497   0.423   8.247 -0.0279 -0.0457  0.0292
   17MOL0     C 2204   1.429   0.286   8.260 -0.2432 -0.3630 -0.4776
   17MOL0    Cl 2205   1.338   0.305   8.413 -0.1012 -0.0909 -0.4532
   17MOL0     C 2206   2.438   0.479   8.057 -0.7124 -0.5930  0.3847
   17MOL0     C 2207   2.570   0.483   8.010  0.2700  0.0799 -0.5806
   17MOL0     O 2208   2.861   0.277   8.154  0.1190  0.0015 -0.0638
   17MOL0     C 2209   3.105   0.271   7.995 -0.0952 -0.3956  0.0241
   17MOL0     C 2210   3.231   0.293   7.954 -0.4186  0.4631 -1.6381
   17MOL0     N 2211   3.701   0.040   7.764  0.0015 -0.0248 -0.2524
   17MOL0     N 2212   3.645  -0.070   7.739 -0.9497 -0.6600 -0.2770
   17MOL0     C 2213   2.457   0.097   7.706 -0.2942 -0.0968  0.4038
   17MOL0     C 2214   2.320   0.120   7.710  0.5961 -0.9745 -0.3727
   17MOL0     C 2215   1.887   0.140   7.639 -0.2203 -0.2487 -0.3237
   17MOL0     C 2216   1.808   0.199   7.540 -0.8109 -0.2728 -0.6885
   17MOL0     C 2217   1.669   0.216   7.561 -0.9011 -0.1648  0.1120
   17MOL0     C 2218   1.612   0.204   7.688 -0.4773  0.5540 -0.1247
   17MOL0     O 2219   1.479   0.220   7.708 -0.7099 -0.2845  0.3109
   17MOL0     C 2220   1.392   0.308   7.638 -0.5210  0.4164  0.4333
   17MOL0     C 2221   1.277   0.329   7.731  0.1184  0.5141  0.5762
   17MOL0     C 2222   1.184   0.436   7.688  0.3140 -0.2717  0.3654
   17MOL0     C 2223   1.083   0.478   7.804 -0.9546 -0.1337 -0.1519
   17MOL0     C 2224   0.994   0.368   7.828 -0.1325  0.1397 -0.3748
   17MOL0     C 2225   0.924   0.272   7.847  0.2014  0.1766 -0.2991
   17MOL0     C 2226   1.692   0.145   7.782  0.2301 -0.3432  0.7456
   17MOL0     C 2227   1.825   0.112   7.764  1.3745 -0.1653 -1.3120
   17MOL0     H 2228   2.221  -0.206   7.679  3.5138 -3.1368  0.1979
   17MOL0     H 2229   2.456  -0.236   7.669 -0.1230 -0.2548  1.7362
   17MOL0     H 2230   2.818  -0.017   7.598  1.0714  0.0365  2.1618
   17MOL0     H 2231   2.693   0.104   7.569 -1.1691 -1.5568 -0.5234
   17MOL0     H 2232   2.842   0.188   7.733 -0.4871  0.4017  0.2500
   17MOL0     H 2233   2.711   0.155   7.830  0.3849  0.0939 -0.0844
   17MOL0     H 2234   2.881   0.053   7.948  0.5315 -1.1849  0.9708
   17MOL0     H 2235   2.818  -0.087   7.857 -0.5751  0.4314  1.3268
   17MOL0     H 2236   3.004  -0.032   7.681  1.6274 -2.0902 -0.5098
   17MOL0     H 2237   3.056   0.095   7.792 -1.4901  0.3764  2.1096
   17MOL0     H 2238   3.106  -0.081   7.975 -1.3160 -0.3649  0.9791
   17MOL0     H 2239   3.047  -0.207   7.867 -1.0932 -0.5252  0.6286
   17MOL0     H 2240   3.243  -0.139   7.711 -0.6764  0.3399 -1.2604
   17MOL0     H 2241   3.287  -0.010   7.819 -1.9809  1.0314 -4.4600
   17MOL0     H 2242   3.320  -0.186   7.999 -0.3601 -1.6308  0.4020
   17MOL0     H 2243   3.281  -0.306   7.875  0.5501 -1.0008  1.2193
   17MOL0     H 2244   3.480  -0.276   7.752  2.8070  2.9651 -0.6060
   17MOL0     H 2245   3.521  -0.287   7.924  0.2729 -0.0402  0.9413
   17MOL0     H 2246   3.473   0.024   7.997  1.0992  0.8097  0.4466
   17MOL0     H 2247   3.600   0.224   8.047  0.7918 -2.1725  1.3352
   17MOL0     H 2248   3.773   0.183   8.027  1.6219  0.6461 -2.2083
   17MOL0     H 2249   3.800   0.315   7.828  2.0344 -4.2556  2.4035
   17MOL0     H 2250   3.730   0.414   7.958 -1.6767  0.8399 -0.6494
   17MOL0     H 2251   3.644   0.334   7.690 -1.5788 -3.6060  0.9101
   17MOL0     H 2252   3.629   0.493   7.776 -1.3434  0.6975 -1.0217
   17MOL0     H 2253   3.456   0.250   7.832 -2.0517 -0.7563 -0.4205
   17MOL0     H 2254   3.415   0.363   7.694 -1.5249 -1.0916 -0.0948
   17MOL0     H 2255   3.224   0.614   7.874  1.6526 -1.1785  0.4741
   17MOL0     H 2256   2.990   0.695   7.855  4.1192 -0.2105  0.3942
   17MOL0     H 2257   2.860   0.605   7.937  1.5451 -2.6902  2.6329
   17MOL0     H 2258   2.983   0.689   8.033 -1.6156  0.9849 -0.0147
   17MOL0     H 2259   2.635   0.147   8.033 -0.4494  0.3562  0.6358
   17MOL0     H 2260   2.400   0.146   8.088  0.7198 -1.0922  1.2078
   17MOL0     H 2261   2.220   0.550   8.221 -1.1889  0.8471  0.7279
   17MOL0     H 2262   2.163   0.504   8.053  3.9357 -0.5309 -1.7797
   17MOL0     H 2263   2.041   0.392   8.323 -3.6244 -0.4332  1.0070
   17MOL0     H 2264   1.999   0.545   8.251 -1.6203  0.0313 -0.9508
   17MOL0     H 2265   1.971   0.271   8.103  1.0706 -0.1240  2.6069
   17MOL0     H 2266   1.936   0.425   8.029 -2.4118  1.0986  1.1817
   17MOL0     H 2267   1.793   0.304   8.268 -1.5352  0.2001  0.4918
   17MOL0     H 2268   1.773   0.484   8.222  0.5264  1.5340 -1.8823
   17MOL0     H 2269   1.660   0.238   8.090 -1.8077 -0.4342  1.6463
   17MOL0     H 2270   1.720   0.374   7.982 -2.4548 -0.6634 -1.3817
   17MOL0     H 2271   1.573   0.534   8.087 -0.0952 -0.5170 -3.1812
   17MOL0     H 2272   1.472   0.410   8.033 -0.4941 -0.1613  0.4734
   17MOL0     H 2273   1.431   0.510   8.258 -1.3083 -0.9178 -0.6411
   17MOL0     H 2274   1.579   0.431   8.320  0.4590 -0.0197 -0.5186
   17MOL0     H 2275   1.492   0.196   8.256 -0.5284 -0.5950  0.1009
   17MOL0     H 2276   1.348   0.276   8.188  0.3535  1.7435 -1.4955
   17MOL0     H 2277   2.378   0.570   8.053  0.5715  0.3853  2.1053
   17MOL0     H 2278   2.631   0.570   7.990  1.8444 -0.3723  1.8534
   17MOL0     H 2279   3.080   0.171   8.031 -0.0016  0.5375  2.9885
   17MOL0     H 2280   3.308   0.217   7.952  0.3843  1.2059 -0.2953
   17MOL0     H 2281   2.529   0.178   7.704  2.2652 -2.2109 -0.8415
   17MOL0     H 2282   2.289   0.224   7.714  1.9002 -0.6108  1.6189
   17MOL0     H 2283   1.845   0.228   7.442 -2.2230 -0.5634 -1.3448
   17MOL0     H 2284   1.612   0.253   7.476  1.6863 -0.2547 -1.7971
   17MOL0     H 2285   1.449   0.399   7.620  1.9783 -1.4878 -2.1675
   17MOL0     H 2286   1.362   0.266   7.542  0.7374 -2.7744  1.3002
   17MOL0     H 2287   1.316   0.356   7.830 -1.2808 -0.8625  1.5709
   17MOL0     H 2288   1.216   0.239   7.744  0.5625  0.4655  2.7442
   17MOL0     H 2289   1.137   0.410   7.593 -2.3250  2.3168  0.8538
   17MOL0     H 2290   1.251   0.522   7.675  0.4501 -0.6184 -1.5558
   17MOL0     H 2291   1.025   0.568   7.785 -0.1422  0.6684  1.0466
   17MOL0     H 2292   1.140   0.489   7.897 -1.0120 -2.3866  0.2101
   17MOL0     H 2293   0.858   0.188   7.861 -0.4970  0.0971 -3.2594
   17MOL0     H 2294   1.655   0.141   7.883  2.7404  4.3773  2.1464
   17MOL0     H 2295   1.883   0.068   7.844  0.6147 -1.4502 -1.4265
   18MOL0     O 2296   5.455   0.768   5.740 -0.0569  0.0689  0.0844
   18MOL0     C 2297   5.541   0.744   5.824  0.3251  0.1952 -0.0277
   18MOL0     O 2298   5.517   0.731   5.957  1.4540  0.1807 -0.5315
   18MOL0     C 2299   5.388   0.715   6.000  1.0395  0.2502  0.6330
   18MOL0     C 2300   5.341   0.586   6.017  0.2342  0.4406 -1.0442
   18MOL0     C 2301   5.200   0.564   6.046  0.0021 -0.1588 -0.3767
   18MOL0     C 2302   5.114   0.675   6.034  0.9700 -0.3586 -0.4388
   18MOL0     O 2303   4.977   0.657   6.030 -0.0525 -0.3534 -0.9449
   18MOL0     C 2304   4.893   0.721   6.136 -0.6056 -0.5423 -0.4877
   18MOL0     C 2305   4.765   0.641   6.165  0.0297 -0.2237  0.5855
   18MOL0     C 2306   4.680   0.715   6.260  0.1916 -0.2756  0.2307
   18MOL0     C 2307   4.537   0.665   6.306  0.1552  0.6963 -0.3860
   18MOL0     C 2308   4.429   0.672   6.198 -0.0794  1.0491 -0.1818
   18MOL0     C 2309   4.311   0.592   6.239 -1.2968  0.4375 -0.2951
   18MOL0     C 2310   4.217   0.680   6.320  0.2133 -0.5130 -0.5079
   18MOL0     C 2311   4.072   0.636   6.327  0.5069 -0.9873 -0.3153
   18MOL0     N 2312   4.038   0.509   6.392  0.7715 -0.0394 -0.2846
   18MOL0     C 2313   4.078   0.385   6.358  0.3267  0.4144 -0.4769
   18MOL0     C 2314   4.009   0.301   6.437  0.5100  1.0755  0.0954
   18MOL0     C 2315   4.023   0.149   6.442  0.7070 -0.1908 -0.2589
   18MOL0     C 2316   3.887   0.080   6.411 -0.0378 -1.0276  0.0551
   18MOL0     C 2317   3.908  -0.068   6.399  0.5017 -0.2392 -0.5014
   18MOL0     C 2318   3.768  -0.126   6.374 -1.1141 -1.1299 -0.0540
   18MOL0     O 2319   3.678  -0.087   6.480 -0.2796 -0.1078  0.8920
   18MOL0     C 2320   3.556  -0.135   6.480  0.4966  1.0097 -0.2515
   18MOL0     C 2321   3.497  -0.208   6.371  0.0732  0.3577 -0.1789
   18MOL0     C 2322   3.361  -0.243   6.364  0.6020 -0.3455  0.3642
   18MOL0     C 2323   3.321  -0.321   6.246 -0.0360  0.1073 -0.1786
   18MOL0     C 2324   3.274  -0.217   6.477 -0.5956  0.1184 -0.5306
   18MOL0     C 2325   3.132  -0.271   6.500  0.4024 -0.0942 -0.6158
   18MOL0     O 2326   3.061  -0.204   6.603  0.6222 -0.1661  0.6544
   18MOL0     C 2327   2.931  -0.244   6.636 -0.3955  0.1049  0.7858
   18MOL0     C 2328   2.886  -0.209   6.762  0.5750  0.2739  0.4296
   18MOL0     C 2329   2.745  -0.226   6.793 -0.1968  0.0380  0.8113
   18MOL0     C 2330   2.655  -0.283   6.692 -0.8160 -0.4922 -0.9161
   18MOL0     O 2331   2.529  -0.302   6.721  0.3468  0.1981  0.1284
   18MOL0     C 2332   2.460  -0.191   6.782  0.5829  0.1214  0.2212
   18MOL0     C 2333   2.310  -0.220   6.778  0.1004 -0.6678 -0.7495
   18MOL0     C 2334   2.248  -0.171   6.647 -0.4763 -0.1652  0.0639
   18MOL0     C 2335   2.102  -0.187   6.642  1.3085  0.3803 -0.4944
   18MOL0     C 2336   2.040  -0.084   6.540  0.2671  0.5238  0.1074
   18MOL0     C 2337   1.895  -0.128   6.531  0.6714 -0.3367 -1.1321
   18MOL0     C 2338   1.818  -0.058   6.420  0.7045 -1.0884  0.6838
   18MOL0     C 2339   1.679  -0.127   6.397 -0.6013  0.3336  0.0339
   18MOL0    Cl 2340   1.564  -0.019   6.329 -0.3486  0.0277 -0.2478
   18MOL0     C 2341   2.706  -0.314   6.570 -0.8942  0.2172  0.5073
   18MOL0     C 2342   2.837  -0.288   6.537 -0.2886  0.8013  0.3680
   18MOL0     O 2343   3.089  -0.367   6.434 -0.5733  0.0865  0.0406
   18MOL0     C 2344   3.337  -0.139   6.579 -1.2212  0.9478  0.6492
   18MOL0     C 2345   3.472  -0.109   6.587 -0.4835 -0.1266 -0.5335
   18MOL0     N 2346   3.940   0.371   6.525  0.7900 -0.6328  0.8577
   18MOL0     N 2347   3.954   0.499   6.501 -0.3452  0.2450  0.6488
   18MOL0     C 2348   5.160   0.810   6.023 -0.0859  1.0518  0.1452
   18MOL0     C 2349   5.305   0.827   6.018  0.4504 -0.5289  0.9799
   18MOL0     C 2350   5.673   0.720   5.772 -0.6729  0.1157  0.6501
   18MOL0     C 2351   5.707   0.759   5.638 -0.4841  0.9009  0.2973
   18MOL0     C 2352   5.837   0.735   5.588 -0.1359  0.8307 -0.3941
   18MOL0     C 2353   5.923   0.657   5.677 -0.9125  0.0752 -0.1956
   18MOL0     O 2354   6.042   0.587   5.627  0.2413  0.0043 -0.3888
   18MOL0     C 2355   6.068   0.614   5.483 -0.2254  0.2976 -0.4709
   18MOL0     C 2356   6.190   0.541   5.437  0.4637 -0.3810  0.9029
   18MOL0     C 2357   6.315   0.546   5.526 -0.0721 -0.3273  0.2416
   18MOL0     C 2358   6.435   0.474   5.472 -0.3071 -0.2363  0.2349
   18MOL0     C 2359   6.409   0.335   5.449 -0.9961  0.0578 -0.8861
   18MOL0     C 2360   6.379   0.220   5.444  0.2543  0.2356  0.2597
   18MOL0     C 2361   5.897   0.628   5.806  0.1671  0.1486  0.3588
   18MOL0     C 2362   5.773   0.659   5.854  0.6557  0.4147  0.0955
   18MOL0     H 2363   5.417   0.509   6.006 -1.7592 -1.2293 -4.8394
   18MOL0     H 2364   5.165   0.464   6.068  0.9296  0.0475  2.4530
   18MOL0     H 2365   4.963   0.713   6.219  0.6310  0.3937 -1.4066
   18MOL0     H 2366   4.876   0.828   6.117 -1.1816 -0.0819  2.1988
   18MOL0     H 2367   4.711   0.632   6.071 -0.6109 -2.8309  1.1054
   18MOL0     H 2368   4.798   0.544   6.204  1.1815 -0.2543 -0.4159
   18MOL0     H 2369   4.741   0.726   6.351  0.0362 -2.2260  0.6167
   18MOL0     H 2370   4.668   0.817   6.223 -0.1029 -0.6305 -0.6747
   18MOL0     H 2371   4.552   0.563   6.340  2.0676  0.9504 -0.3879
   18MOL0     H 2372   4.513   0.713   6.401  1.1757 -0.0952  0.2850
   18MOL0     H 2373   4.403   0.774   6.169 -1.9050  0.3286 -1.2448
   18MOL0     H 2374   4.469   0.623   6.109  2.4300  1.5748  0.5925
   18MOL0     H 2375   4.254   0.558   6.152 -3.1004  0.9846  0.6178
   18MOL0     H 2376   4.341   0.505   6.297  0.1255  1.9667  1.3792
   18MOL0     H 2377   4.246   0.689   6.425  1.6149  0.0147 -0.9259
   18MOL0     H 2378   4.213   0.780   6.274 -1.0202 -0.4945 -0.3968
   18MOL0     H 2379   4.029   0.632   6.226 -0.1637  0.9760 -0.1680
   18MOL0     H 2380   4.015   0.714   6.378  1.0868  1.4276 -3.0716
   18MOL0     H 2381   4.150   0.343   6.288 -1.0819 -1.3926 -0.8857
   18MOL0     H 2382   4.097   0.119   6.368 -0.4482 -0.7104 -1.2369
   18MOL0     H 2383   4.038   0.120   6.546 -2.1576 -2.2247 -0.3053
   18MOL0     H 2384   3.849   0.127   6.320  0.9483  1.2790  0.7462
   18MOL0     H 2385   3.815   0.105   6.490 -0.5155 -3.9853  0.6731
   18MOL0     H 2386   3.947  -0.103   6.495 -2.3064  2.2569  1.7591
   18MOL0     H 2387   3.978  -0.094   6.319 -0.1090  0.3418 -1.2438
   18MOL0     H 2388   3.782  -0.234   6.367  4.1051 -0.6878 -0.9192
   18MOL0     H 2389   3.728  -0.088   6.280 -1.1944  3.0318  1.4416
   18MOL0     H 2390   3.562  -0.236   6.289 -0.5756 -2.3679  0.1597
   18MOL0     H 2391   3.375  -0.281   6.160  1.0372  1.5614  1.1274
   18MOL0     H 2392   3.351  -0.426   6.258  0.6360  0.4129  1.0277
   18MOL0     H 2393   3.214  -0.318   6.224 -0.1313 -1.1559  0.0538
   18MOL0     H 2394   2.961  -0.172   6.832  1.9121 -0.4320 -0.5916
   18MOL0     H 2395   2.719  -0.205   6.896 -1.3516  0.8255  0.3712
   18MOL0     H 2396   2.484  -0.166   6.886  3.3094  1.5799 -0.6638
   18MOL0     H 2397   2.467  -0.092   6.736 -1.6347  1.8200  3.1772
   18MOL0     H 2398   2.276  -0.323   6.782 -3.9166  0.5089  0.7406
   18MOL0     H 2399   2.264  -0.165   6.862 -2.6477  0.3551 -2.7867
   18MOL0     H 2400   2.293  -0.230   6.567  1.2047 -1.4759  1.8487
   18MOL0     H 2401   2.261  -0.063   6.644 -2.0582  0.2656  3.5471
   18MOL0     H 2402   2.080  -0.291   6.617 -2.9472  0.5850  1.4825
   18MOL0     H 2403   2.053  -0.162   6.737 -1.3564  0.2668 -1.7435
   18MOL0     H 2404   2.089  -0.086   6.442  0.0959  0.7042  0.0195
   18MOL0     H 2405   2.043   0.015   6.586  0.9226 -0.6492  2.7649
   18MOL0     H 2406   1.882  -0.236   6.517  1.9822 -0.3801 -2.3894
   18MOL0     H 2407   1.851  -0.101   6.627  0.1997  0.9836 -1.6989
   18MOL0     H 2408   1.875  -0.043   6.327 -0.9620  2.0400 -0.0085
   18MOL0     H 2409   1.785   0.042   6.451  1.2877  0.2514 -2.6109
   18MOL0     H 2410   1.639  -0.170   6.489  0.6967 -0.4605  0.2502
   18MOL0     H 2411   1.695  -0.216   6.335  0.0543  0.7853 -0.4587
   18MOL0     H 2412   2.641  -0.357   6.494  1.9800 -1.2750 -1.3040
   18MOL0     H 2413   2.858  -0.300   6.431  0.8849 -2.2776  0.8373
   18MOL0     H 2414   3.285  -0.112   6.670 -2.8613 -1.1190  0.4054
   18MOL0     H 2415   3.507  -0.055   6.675  1.1280 -2.9089  0.6526
   18MOL0     H 2416   5.085   0.887   6.009 -1.2181 -0.4878 -3.1839
   18MOL0     H 2417   5.336   0.931   6.026 -0.2358 -0.4129  2.6628
   18MOL0     H 2418   5.642   0.806   5.566 -0.4570  0.2284 -0.1699
   18MOL0     H 2419   5.863   0.752   5.484  3.0492 -1.1803 -0.0465
   18MOL0     H 2420   5.994   0.556   5.427  1.4459  0.4817 -3.0194
   18MOL0     H 2421   6.077   0.719   5.457  2.2221 -0.2529 -2.2074
   18MOL0     H 2422   6.209   0.592   5.341  0.8791 -1.5188  0.3666
   18MOL0     H 2423   6.167   0.436   5.415  2.2037 -1.6866  4.5835
   18MOL0     H 2424   6.302   0.513   5.629  2.7740 -0.0550  0.7615
   18MOL0     H 2425   6.349   0.650   5.535  0.3139 -0.3542 -0.7459
   18MOL0     H 2426   6.516   0.483   5.545  0.5906 -0.5212 -0.7090
   18MOL0     H 2427   6.468   0.517   5.377  0.8581 -0.7172  0.4022
   18MOL0     H 2428   6.352   0.117   5.430 -0.6219  0.3850  0.7315
   18MOL0     H 2429   5.966   0.564   5.860 -0.1425  0.3852  1.0446
   18MOL0     H 2430   5.740   0.621   5.950  0.1057 -1.1808 -0.6986
   19MOL0     O 2431   4.279   7.553   1.866  0.4804  0.2066 -0.4930
   19MOL0     C 2432   4.381   7.596   1.907 -0.9868 -0.5506 -0.4257
   19MOL0     O 2433   4.504   7.527   1.926 -0.7077  0.2109  0.1428
   19MOL0     C 2434   4.484   7.389   1.926  0.4039  0.1518  0.1048
   19MOL0     C 2435   4.517   7.313   1.812  0.3403  0.0162  0.6175
   19MOL0     C 2436   4.485   7.178   1.806  0.1332 -0.7364 -0.4004
   19MOL0     C 2437   4.428   7.108   1.916  0.1979  0.0074  0.3493
   19MOL0     O 2438   4.410   6.974   1.919 -0.3923 -0.2593 -0.8279
   19MOL0     C 2439   4.504   6.892   1.853  0.1135  0.5442 -0.0687
   19MOL0     C 2440   4.527   6.762   1.929 -0.4519 -0.1760  0.0649
   19MOL0     C 2441   4.599   6.777   2.067 -0.0855  0.4335 -0.7989
   19MOL0     C 2442   4.496   6.795   2.180  0.1049  0.6016  0.5478
   19MOL0     C 2443   4.544   6.780   2.323 -0.0334  0.1713  0.3771
   19MOL0     C 2444   4.671   6.703   2.363  0.0908 -0.3400  0.3158
   19MOL0     C 2445   4.698   6.682   2.516 -0.4121 -0.1540 -0.6916
   19MOL0     C 2446   4.839   6.631   2.549 -0.5081  0.3154  0.3965
   19MOL0     N 2447   4.948   6.733   2.570  0.1169  0.4975  0.1535
   19MOL0     C 2448   4.975   6.822   2.665  0.1995  0.4297 -0.4539
   19MOL0     C 2449   5.093   6.877   2.626 -0.0423  0.4777 -0.0357
   19MOL0     C 2450   5.161   6.987   2.699  0.3020 -0.1057  0.1604
   19MOL0     C 2451   5.093   7.118   2.661  0.1942  0.1149 -0.3700
   19MOL0     C 2452   5.099   7.231   2.768  0.1310 -0.6672  0.1812
   19MOL0     C 2453   5.017   7.358   2.733 -0.2361  1.4144  0.6553
   19MOL0     O 2454   4.894   7.348   2.800  0.5861  0.5881 -0.3025
   19MOL0     C 2455   4.785   7.340   2.713 -1.0590 -0.7692  0.0644
   19MOL0     C 2456   4.728   7.457   2.675  0.7593  0.1554 -0.3884
   19MOL0     C 2457   4.621   7.464   2.588  0.2815 -0.4181 -0.3735
   19MOL0     C 2458   4.575   7.609   2.554 -0.2015  0.1724  0.2709
   19MOL0     C 2459   4.556   7.346   2.548  0.6776  0.7761  0.5155
   19MOL0     C 2460   4.425   7.339   2.478  0.4647 -0.3640  0.3914
   19MOL0     O 2461   4.353   7.225   2.485  0.7541 -0.0523  0.5587
   19MOL0     C 2462   4.232   7.223   2.413  0.0452 -0.9224 -0.2265
   19MOL0     C 2463   4.217   7.114   2.326  0.0032  0.4407 -0.2738
   19MOL0     C 2464   4.090   7.071   2.267  0.0811  0.5279  0.3588
   19MOL0     C 2465   3.983   7.160   2.291  0.4740 -0.0131  0.2575
   19MOL0     O 2466   3.868   7.127   2.220  0.3746 -0.3331 -0.4007
   19MOL0     C 2467   3.774   7.238   2.197  1.1632  0.0885 -0.1707
   19MOL0     C 2468   3.659   7.176   2.110  0.3721 -1.1322 -0.9112
   19MOL0     C 2469   3.537   7.277   2.079 -0.1497 -0.7665 -0.0072
   19MOL0     C 2470   3.424   7.210   2.006  0.5107  1.0170 -0.1249
   19MOL0     C 2471   3.337   7.106   2.080 -0.1672 -0.3496 -0.2390
   19MOL0     C 2472   3.229   7.039   1.995 -0.1900  0.8085  1.1408
   19MOL0     C 2473   3.182   7.121   1.875 -0.0522 -0.6274  0.6388
   19MOL0     C 2474   3.096   7.037   1.782  0.7158  0.9718 -0.2821
   19MOL0    Cl 2475   3.170   6.879   1.754 -0.0696 -0.2501  0.2259
   19MOL0     C 2476   3.991   7.260   2.388 -0.3520 -0.1397 -0.2994
   19MOL0     C 2477   4.116   7.298   2.449 -0.0765 -0.3276 -0.6640
   19MOL0     O 2478   4.390   7.435   2.406 -0.1630 -0.3637 -0.1062
   19MOL0     C 2479   4.598   7.227   2.599  0.0972  0.5260 -0.0717
   19MOL0     C 2480   4.723   7.225   2.671 -0.0185  0.0738  0.4368
   19MOL0     N 2481   5.137   6.826   2.505 -0.1796  0.2652 -0.1510
   19MOL0     N 2482   5.049   6.723   2.480 -0.9849  0.4089  0.3070
   19MOL0     C 2483   4.410   7.183   2.029 -0.0750  0.0341 -0.3762
   19MOL0     C 2484   4.434   7.322   2.039 -0.3773  0.0757  0.0829
   19MOL0     C 2485   4.369   7.732   1.968  0.5120  0.5833  0.1485
   19MOL0     C 2486   4.455   7.773   2.072  0.3439 -0.4132 -0.6311
   19MOL0     C 2487   4.436   7.888   2.139 -0.1142 -0.1483  0.3530
   19MOL0     C 2488   4.332   7.977   2.098 -0.4833 -0.5270 -0.4309
   19MOL0     O 2489   4.316   8.102   2.155 -0.1041  1.0877  0.1291
   19MOL0     C 2490   4.219   8.192   2.102  0.7283 -0.5744 -0.9717
   19MOL0     C 2491   4.216   8.320   2.186  0.2621  0.2906  0.1551
   19MOL0     C 2492   4.081   8.411   2.184 -0.1085  1.0691  0.1634
   19MOL0     C 2493   4.087   8.509   2.302 -0.2610 -0.1203 -0.6902
   19MOL0     C 2494   4.056   8.442   2.430  0.3856 -0.0986  0.0578
   19MOL0     C 2495   4.049   8.396   2.540  0.4574  0.2119  0.5988
   19MOL0     C 2496   4.271   7.945   1.976 -0.1057 -0.0611 -0.1329
   19MOL0     C 2497   4.279   7.817   1.915 -0.7062 -1.1446 -0.4016
   19MOL0     H 2498   4.553   7.381   1.735  0.4488 -1.0096 -0.2534
   19MOL0     H 2499   4.502   7.131   1.710 -4.1440 -3.1507 -0.2092
   19MOL0     H 2500   4.465   6.877   1.752  1.3338  1.0560 -0.6358
   19MOL0     H 2501   4.596   6.948   1.837 -0.5701  1.2692 -1.6718
   19MOL0     H 2502   4.432   6.713   1.953 -1.6629  3.1908  3.1247
   19MOL0     H 2503   4.590   6.693   1.872  0.5481 -0.6225  1.6532
   19MOL0     H 2504   4.658   6.686   2.083  2.7015  2.2758  0.1460
   19MOL0     H 2505   4.673   6.857   2.070 -2.1358  2.4289 -1.1264
   19MOL0     H 2506   4.449   6.892   2.164  1.9609  1.2967 -0.9770
   19MOL0     H 2507   4.416   6.722   2.161  0.2678  0.0196  1.9699
   19MOL0     H 2508   4.560   6.879   2.366  0.1232 -0.5213  1.9775
   19MOL0     H 2509   4.463   6.728   2.376 -2.5828 -1.6372 -4.6250
   19MOL0     H 2510   4.671   6.600   2.325  1.8121 -0.6260  1.0246
   19MOL0     H 2511   4.746   6.764   2.311 -1.6904  1.4153 -0.3332
   19MOL0     H 2512   4.684   6.778   2.566 -1.7073 -0.5510 -0.2411
   19MOL0     H 2513   4.615   6.620   2.551 -0.0821  0.7775  1.9293
   19MOL0     H 2514   4.857   6.558   2.470 -1.0376  2.3219 -1.6673
   19MOL0     H 2515   4.821   6.582   2.646  0.7010 -3.1216 -0.9760
   19MOL0     H 2516   4.914   6.836   2.754  0.7545 -0.3128  0.0581
   19MOL0     H 2517   5.166   6.966   2.806  0.7111  2.3094  0.6634
   19MOL0     H 2518   5.266   6.992   2.670  1.1606 -3.2284  2.2628
   19MOL0     H 2519   4.988   7.098   2.637  0.4410  2.1995 -3.8706
   19MOL0     H 2520   5.155   7.155   2.578  4.0682  0.3832  2.3508
   19MOL0     H 2521   5.203   7.248   2.800  0.4090 -1.2718 -0.3609
   19MOL0     H 2522   5.055   7.199   2.863 -0.4512  1.8514  0.8193
   19MOL0     H 2523   5.014   7.358   2.624  2.7369 -4.0632  0.2332
   19MOL0     H 2524   5.077   7.443   2.769 -0.8046  3.3963 -2.6623
   19MOL0     H 2525   4.762   7.551   2.717  2.3494 -0.8207  0.6244
   19MOL0     H 2526   4.648   7.688   2.575 -0.0117 -0.0602  0.4965
   19MOL0     H 2527   4.541   7.617   2.450  0.0676  0.6084  0.2152
   19MOL0     H 2528   4.487   7.636   2.613  0.6941  3.2918  0.3763
   19MOL0     H 2529   4.307   7.056   2.309 -0.1447  0.1278 -0.0062
   19MOL0     H 2530   4.099   6.992   2.193  0.0931  1.3672 -0.5613
   19MOL0     H 2531   3.734   7.269   2.294  0.1293  1.3794 -0.9614
   19MOL0     H 2532   3.818   7.327   2.151 -1.3548  1.5282  0.0221
   19MOL0     H 2533   3.695   7.124   2.020  2.0913 -2.2548  0.3829
   19MOL0     H 2534   3.618   7.104   2.182 -4.0093  3.7731  2.2113
   19MOL0     H 2535   3.564   7.356   2.009 -0.2390  0.3946  1.2130
   19MOL0     H 2536   3.502   7.317   2.175 -0.4725 -2.2264  0.5038
   19MOL0     H 2537   3.351   7.289   1.984  1.5753  2.2566  0.6816
   19MOL0     H 2538   3.462   7.165   1.913  2.0788  0.1069  0.9113
   19MOL0     H 2539   3.286   7.142   2.170  0.1276 -0.9978  0.1898
   19MOL0     H 2540   3.401   7.023   2.110  1.2310 -0.1010 -2.3380
   19MOL0     H 2541   3.263   6.939   1.967  0.6219  1.4073 -0.1212
   19MOL0     H 2542   3.141   7.020   2.057 -1.6990 -0.1523 -1.1707
   19MOL0     H 2543   3.266   7.151   1.811  0.5774 -0.4630  1.5218
   19MOL0     H 2544   3.132   7.209   1.917  3.4139  3.6003 -3.0955
   19MOL0     H 2545   3.087   7.082   1.682 -1.1681  2.0179  0.3034
   19MOL0     H 2546   2.993   7.038   1.820  2.1173 -2.5016  4.5521
   19MOL0     H 2547   3.896   7.303   2.418 -0.1540  1.0018 -1.2258
   19MOL0     H 2548   4.103   7.372   2.527 -2.7607  0.2688 -1.5625
   19MOL0     H 2549   4.544   7.136   2.573 -1.3213  1.7816 -1.7411
   19MOL0     H 2550   4.762   7.131   2.708  1.6241 -0.0080 -1.3633
   19MOL0     H 2551   4.347   7.152   2.112  1.4541  0.2767  0.9057
   19MOL0     H 2552   4.423   7.387   2.125 -1.5813  1.0146 -0.7454
   19MOL0     H 2553   4.502   7.686   2.117 -1.4940 -0.3511  1.5805
   19MOL0     H 2554   4.494   7.932   2.220 -0.0235  1.3744 -0.5060
   19MOL0     H 2555   4.235   8.221   1.998  1.7186  2.9274  0.0182
   19MOL0     H 2556   4.119   8.146   2.107  0.3705  0.1902 -0.9529
   19MOL0     H 2557   4.295   8.390   2.159 -0.0044  1.2667  1.7909
   19MOL0     H 2558   4.224   8.293   2.292 -0.2040  2.2283  0.7298
   19MOL0     H 2559   3.988   8.353   2.194  0.1524  1.0972  4.1087
   19MOL0     H 2560   4.066   8.472   2.094  0.7832  1.0238 -0.0247
   19MOL0     H 2561   4.020   8.595   2.293 -1.1306 -0.6580  0.4166
   19MOL0     H 2562   4.194   8.529   2.298  0.1878 -2.2124 -0.1356
   19MOL0     H 2563   4.026   8.346   2.632  0.4175 -0.9721 -0.0360
   19MOL0     H 2564   4.199   8.012   1.931 -0.4479  1.7070  2.8103
   19MOL0     H 2565   4.214   7.787   1.834 -4.5974 -3.0030  3.0294
   20MOL0     O 2566   3.234   2.537   7.236  0.4666  0.0956  0.2274
   20MOL0     C 2567   3.226   2.446   7.314  0.6848 -0.5800 -0.9154
   20MOL0     O 2568   3.112   2.381   7.348  0.2094  0.0756 -0.2589
   20MOL0     C 2569   2.987   2.420   7.300  0.1756  0.7097  0.6332
   20MOL0     C 2570   2.903   2.306   7.261 -0.2677 -0.7258  1.5988
   20MOL0     C 2571   2.779   2.326   7.211  0.5724  0.1684  0.2550
   20MOL0     C 2572   2.728   2.456   7.193 -0.1004  0.9799 -0.5395
   20MOL0     O 2573   2.600   2.465   7.144 -0.1111  0.4128 -0.2659
   20MOL0     C 2574   2.575   2.582   7.066  0.4753  0.7643 -0.4150
   20MOL0     C 2575   2.443   2.554   6.987 -0.5625  1.0034 -0.7288
   20MOL0     C 2576   2.378   2.681   6.940  0.4080 -0.5721  0.6171
   20MOL0     C 2577   2.476   2.780   6.863  0.4903  0.1051  0.0406
   20MOL0     C 2578   2.392   2.866   6.778  0.4966  0.0726 -0.8389
   20MOL0     C 2579   2.464   2.976   6.697 -0.8100  0.2796  0.3688
   20MOL0     C 2580   2.365   3.064   6.627  0.0566  0.0680  0.0930
   20MOL0     C 2581   2.309   3.169   6.725  0.4788  1.2464  0.0497
   20MOL0     N 2582   2.222   3.264   6.662 -0.0162  0.1371 -0.3257
   20MOL0     C 2583   2.244   3.332   6.541  0.4119  0.0726 -0.2598
   20MOL0     C 2584   2.133   3.405   6.504  0.4681  0.0011  0.2162
   20MOL0     C 2585   2.114   3.493   6.388  1.2622  0.5339 -0.0508
   20MOL0     C 2586   2.003   3.436   6.293  1.0139  0.1108  0.1960
   20MOL0     C 2587   1.988   3.528   6.169 -0.6659  0.3328 -0.3195
   20MOL0     C 2588   1.850   3.510   6.102 -0.5748 -0.1714  0.8350
   20MOL0     O 2589   1.749   3.510   6.203  0.0067  0.7347 -0.4210
   20MOL0     C 2590   1.617   3.491   6.166 -0.0616  1.3214 -0.6116
   20MOL0     C 2591   1.538   3.433   6.264 -0.5435 -0.5184  0.4173
   20MOL0     C 2592   1.417   3.399   6.237  1.1075  0.3534 -0.3707
   20MOL0     C 2593   1.356   3.322   6.351 -0.1014 -0.4664 -1.0133
   20MOL0     C 2594   1.353   3.399   6.109 -0.1349 -0.4643 -0.1395
   20MOL0     C 2595   1.214   3.358   6.081  0.1359 -0.2748 -0.0863
   20MOL0     O 2596   1.146   3.270   6.158  0.3052  0.1209  0.1889
   20MOL0     C 2597   1.020   3.221   6.111 -0.4260 -0.7048 -0.4232
   20MOL0     C 2598   0.904   3.242   6.184  0.4903 -0.2931  0.0542
   20MOL0     C 2599   0.783   3.196   6.137  0.1559 -0.6957 -0.0129
   20MOL0     C 2600   0.775   3.139   6.013 -0.6889  1.4600  0.5156
   20MOL0     O 2601   0.663   3.092   5.955  0.7781 -0.2226 -0.4198
   20MOL0     C 2602   0.531   3.126   6.005  1.0377  0.9382  0.6506
   20MOL0     C 2603   0.429   3.079   5.900 -0.3209  0.4721 -0.2335
   20MOL0     C 2604   0.295   3.137   5.929 -0.1649  0.5109 -0.0229
   20MOL0     C 2605   0.239   3.127   6.069  0.3817  0.6105 -0.3009
   20MOL0     C 2606   0.081   3.124   6.065 -1.5437  0.1989 -0.4583
   20MOL0     C 2607   0.028   3.264   6.046 -0.6130  0.1469 -0.2659
   20MOL0     C 2608  -0.123   3.271   6.006 -1.4759 -0.1595 -0.1745
   20MOL0     C 2609  -0.155   3.261   5.859  0.4164 -0.5113  0.0493
   20MOL0    Cl 2610  -0.335   3.223   5.868  0.4605  0.3079  0.1165
   20MOL0     C 2611   0.889   3.110   5.940 -0.5319 -0.0998  0.4577
   20MOL0     C 2612   1.018   3.156   5.988  0.5318 -0.4778  0.8398
   20MOL0     O 2613   1.165   3.406   5.981 -0.0676 -0.0186 -0.7173
   20MOL0     C 2614   1.441   3.431   6.009  1.0636  0.7177  0.8928
   20MOL0     C 2615   1.567   3.480   6.031  0.4283  0.7699  0.3103
   20MOL0     N 2616   2.042   3.361   6.603  0.0558 -0.0513 -0.0560
   20MOL0     N 2617   2.091   3.270   6.686  0.0978 -0.5248 -0.5668
   20MOL0     C 2618   2.802   2.566   7.220 -0.2566 -0.2458  0.0452
   20MOL0     C 2619   2.926   2.549   7.279 -0.1057 -0.6834  0.1536
   20MOL0     C 2620   3.355   2.397   7.372  0.5514 -0.0802  0.8409
   20MOL0     C 2621   3.477   2.459   7.358  0.8911 -0.3913 -0.1389
   20MOL0     C 2622   3.595   2.414   7.412  0.6401 -0.3668  0.7886
   20MOL0     C 2623   3.599   2.298   7.486  0.4881  0.0701 -0.3865
   20MOL0     O 2624   3.711   2.240   7.541  0.0094  0.1599  0.0913
   20MOL0     C 2625   3.834   2.304   7.516  0.1092  0.5512  0.2218
   20MOL0     C 2626   3.966   2.249   7.577 -0.7063  0.6861 -0.3327
   20MOL0     C 2627   3.957   2.182   7.706  1.0175 -0.2539 -0.0838
   20MOL0     C 2628   3.901   2.277   7.817 -0.0908 -0.7154  0.1718
   20MOL0     C 2629   3.891   2.213   7.940  0.6678  0.0156 -0.6789
   20MOL0     C 2630   3.867   2.159   8.051 -0.1391  0.5768 -0.0489
   20MOL0     C 2631   3.479   2.231   7.511  0.2730 -0.0125  0.4101
   20MOL0     C 2632   3.358   2.279   7.455 -0.3658 -0.4512  1.1808
   20MOL0     H 2633   2.950   2.209   7.271 -0.6971 -0.8861  2.0354
   20MOL0     H 2634   2.721   2.248   7.163 -0.1668  1.0988 -0.4188
   20MOL0     H 2635   2.558   2.662   7.139  0.2398  2.3258 -2.1118
   20MOL0     H 2636   2.655   2.602   6.995 -0.2750 -1.1530 -1.9071
   20MOL0     H 2637   2.444   2.493   6.897  1.7899  1.3381 -0.9907
   20MOL0     H 2638   2.367   2.509   7.052 -1.2831  3.0967 -0.0293
   20MOL0     H 2639   2.305   2.656   6.862  3.1121 -1.2440 -1.9209
   20MOL0     H 2640   2.315   2.730   7.014  0.0742  3.5031 -2.0155
   20MOL0     H 2641   2.538   2.835   6.934  0.2101  1.7862 -0.9817
   20MOL0     H 2642   2.545   2.722   6.802 -1.1632 -0.4198 -1.4128
   20MOL0     H 2643   2.347   2.812   6.694  1.5899  1.1018 -2.1360
   20MOL0     H 2644   2.308   2.909   6.833  2.5531  1.5261  1.3445
   20MOL0     H 2645   2.532   3.038   6.756  0.0061  1.4611 -1.7238
   20MOL0     H 2646   2.533   2.932   6.624 -0.9974 -0.7684  0.7942
   20MOL0     H 2647   2.422   3.125   6.557 -0.7264  2.3027  1.3072
   20MOL0     H 2648   2.284   3.003   6.586 -0.2458  0.8188 -0.4360
   20MOL0     H 2649   2.395   3.221   6.768  2.7365 -1.6189 -0.6849
   20MOL0     H 2650   2.262   3.120   6.811  2.4168 -1.6722 -0.4201
   20MOL0     H 2651   2.339   3.337   6.489  0.3596 -0.9295 -0.4803
   20MOL0     H 2652   2.089   3.593   6.425  0.6550  0.0745  0.8041
   20MOL0     H 2653   2.205   3.497   6.328  0.5759  0.7323 -1.1203
   20MOL0     H 2654   1.910   3.428   6.350  0.1987 -1.9480 -1.3128
   20MOL0     H 2655   2.028   3.335   6.261 -3.2293 -0.6265 -1.5221
   20MOL0     H 2656   2.070   3.516   6.098 -0.6004  1.6395 -0.4953
   20MOL0     H 2657   1.991   3.635   6.193  1.8292  0.3606 -0.5070
   20MOL0     H 2658   1.853   3.416   6.047  2.2904  1.2992 -1.8050
   20MOL0     H 2659   1.844   3.590   6.027  0.1703 -0.9884 -0.1171
   20MOL0     H 2660   1.578   3.411   6.363 -0.4293 -2.3865 -0.0049
   20MOL0     H 2661   1.248   3.328   6.362  0.1914  0.5911  3.0590
   20MOL0     H 2662   1.392   3.219   6.339  0.0411 -0.2631 -2.4375
   20MOL0     H 2663   1.387   3.357   6.451  0.7820 -2.3206 -0.5825
   20MOL0     H 2664   0.897   3.297   6.277  1.2751  0.1395 -0.1380
   20MOL0     H 2665   0.699   3.213   6.203  1.3237 -2.9843  2.2644
   20MOL0     H 2666   0.513   3.063   6.092  1.8422 -1.9279 -1.0997
   20MOL0     H 2667   0.522   3.234   6.021  2.6182  0.8885  2.1140
   20MOL0     H 2668   0.450   3.092   5.793 -2.5912 -0.7415 -0.8886
   20MOL0     H 2669   0.437   2.971   5.912  1.4790  0.4734 -1.0214
   20MOL0     H 2670   0.229   3.092   5.854  0.2132  0.2144 -0.1780
   20MOL0     H 2671   0.297   3.239   5.889 -2.0955  0.0458 -1.4924
   20MOL0     H 2672   0.271   3.027   6.099 -1.0313  0.6351  1.4102
   20MOL0     H 2673   0.277   3.191   6.149 -1.6849  1.3544  0.1465
   20MOL0     H 2674   0.057   3.086   6.165  1.1872 -1.1657 -0.2244
   20MOL0     H 2675   0.040   3.056   5.991 -0.1572  0.1120 -1.1749
   20MOL0     H 2676   0.041   3.310   6.145  0.5740 -0.2319 -0.2273
   20MOL0     H 2677   0.081   3.319   5.968 -0.1802 -1.3575 -1.0776
   20MOL0     H 2678  -0.161   3.372   6.024  2.2813  2.0177 -2.9592
   20MOL0     H 2679  -0.180   3.197   6.063  1.0932 -0.8778  1.6419
   20MOL0     H 2680  -0.097   3.178   5.818  0.4722 -1.0389  1.1576
   20MOL0     H 2681  -0.141   3.353   5.800 -2.1724 -0.3603 -0.4216
   20MOL0     H 2682   0.890   3.065   5.841 -0.3245 -0.1743  0.4942
   20MOL0     H 2683   1.114   3.153   5.937  0.5098  4.0482  0.1620
   20MOL0     H 2684   1.406   3.416   5.907  3.3351 -1.9243  0.3878
   20MOL0     H 2685   1.632   3.501   5.947 -0.4722 -0.6534 -0.7807
   20MOL0     H 2686   2.769   2.667   7.198  0.4963 -0.0115 -0.0192
   20MOL0     H 2687   2.975   2.643   7.300 -1.0904  0.2072 -1.3913
   20MOL0     H 2688   3.488   2.546   7.294  0.6472 -1.1645 -1.2459
   20MOL0     H 2689   3.677   2.479   7.384 -1.5982  1.3314 -2.4174
   20MOL0     H 2690   3.849   2.311   7.407  1.9703  0.5645  0.4402
   20MOL0     H 2691   3.825   2.408   7.547  3.7054  1.2240 -0.5118
   20MOL0     H 2692   4.039   2.331   7.580  1.1014 -0.8935  1.3420
   20MOL0     H 2693   4.012   2.177   7.508  2.7430 -0.9368  3.2877
   20MOL0     H 2694   4.056   2.152   7.742  1.0841 -0.2696 -0.2795
   20MOL0     H 2695   3.895   2.092   7.694 -2.4366  1.7863  1.1095
   20MOL0     H 2696   3.802   2.317   7.795 -0.5344 -1.3196  1.0349
   20MOL0     H 2697   3.971   2.361   7.824  1.1414 -1.7843  1.0818
   20MOL0     H 2698   3.870   2.094   8.136  1.1489 -0.7616 -1.0577
   20MOL0     H 2699   3.487   2.148   7.581 -0.9183  0.5236  1.2220
   20MOL0     H 2700   3.266   2.223   7.466 -0.9400  0.4877  1.2981
   21MOL0     O 2701   2.477   4.479   3.923 -0.4554  0.7665 -0.6292
   21MOL0     C 2702   2.463   4.359   3.912  0.3808  0.0763  0.7814
   21MOL0     O 2703   2.347   4.288   3.911  0.1288 -0.6997 -0.3361
   21MOL0     C 2704   2.222   4.345   3.895  0.2894 -0.7375  0.2383
   21MOL0     C 2705   2.186   4.469   3.961 -0.2275 -0.5975  0.7693
   21MOL0     C 2706   2.051   4.516   3.924  0.2511 -0.2380 -0.9196
   21MOL0     C 2707   1.966   4.434   3.845  0.5107 -0.3215 -0.2776
   21MOL0     O 2708   1.837   4.467   3.818  0.1950  0.7216  0.3610
   21MOL0     C 2709   1.738   4.463   3.918 -0.6488  1.3075 -0.0815
   21MOL0     C 2710   1.602   4.431   3.861  0.7374  0.1450  0.9605
   21MOL0     C 2711   1.518   4.357   3.958  0.1110 -0.4273 -0.1794
   21MOL0     C 2712   1.366   4.386   3.926 -0.0137  0.3328  0.4728
   21MOL0     C 2713   1.273   4.275   3.976 -0.0507  0.5186 -1.0391
   21MOL0     C 2714   1.129   4.329   3.971 -0.6354  0.0518  0.6786
   21MOL0     C 2715   1.037   4.218   4.013  0.2390  0.0801 -0.1798
   21MOL0     C 2716   0.895   4.249   4.001  0.0212  0.0044  0.1070
   21MOL0     N 2717   0.797   4.130   4.013  0.2723  0.1951 -0.1088
   21MOL0     C 2718   0.765   4.054   4.127  0.3164 -0.5617 -0.3744
   21MOL0     C 2719   0.648   3.986   4.098 -0.8089 -0.2940 -0.7252
   21MOL0     C 2720   0.567   3.901   4.184  0.2885 -0.0826  0.2180
   21MOL0     C 2721   0.478   3.973   4.299 -0.9723 -0.2931 -0.1664
   21MOL0     C 2722   0.439   3.872   4.401 -0.1502  0.3591 -0.4627
   21MOL0     C 2723   0.306   3.796   4.360  1.7285  0.6620  0.1857
   21MOL0     O 2724   0.347   3.713   4.242  0.6950 -0.3468 -0.5386
   21MOL0     C 2725   0.252   3.630   4.200 -0.3270 -0.4043 -0.5307
   21MOL0     C 2726   0.124   3.599   4.258 -0.3590 -0.8698 -0.4864
   21MOL0     C 2727   0.049   3.484   4.219 -0.7799  0.3034 -0.8433
   21MOL0     C 2728  -0.082   3.480   4.293  0.3238 -1.0298  0.5286
   21MOL0     C 2729   0.108   3.402   4.121  0.0032  0.0785 -0.3550
   21MOL0     C 2730   0.044   3.273   4.073  0.9391 -0.5473  0.0217
   21MOL0     O 2731   0.121   3.176   4.019  0.5271 -0.2799  0.4800
   21MOL0     C 2732   0.091   3.041   4.011  0.2482 -0.8899  0.9325
   21MOL0     C 2733   0.171   2.967   3.932 -0.3925 -0.7156 -0.7407
   21MOL0     C 2734   0.159   2.831   3.931  0.4694 -0.5147  0.1714
   21MOL0     C 2735   0.045   2.772   3.988  0.0416 -0.0264  0.7374
   21MOL0     O 2736   0.015   2.637   3.981  0.1904  0.4533  0.6030
   21MOL0     C 2737   0.108   2.545   3.932 -0.3042 -0.0396 -0.4019
   21MOL0     C 2738   0.040   2.410   3.903 -0.4766  0.2872  0.7182
   21MOL0     C 2739   0.123   2.323   3.813 -0.1887 -0.1585 -0.7078
   21MOL0     C 2740   0.087   2.179   3.823 -0.0922 -0.0726  0.4516
   21MOL0     C 2741   0.155   2.083   3.722 -0.2534 -0.3214  1.0608
   21MOL0     C 2742   0.142   2.108   3.568  0.2115 -1.1281 -0.1945
   21MOL0     C 2743   0.109   1.979   3.497  0.3935  0.4513  1.0407
   21MOL0     C 2744   0.223   1.875   3.508 -0.0091  0.2173 -0.2633
   21MOL0    Cl 2745   0.143   1.723   3.578 -0.5351  0.1624  0.0585
   21MOL0     C 2746  -0.055   2.848   4.055 -0.1276  0.5942 -0.2328
   21MOL0     C 2747  -0.029   2.988   4.066 -0.6547 -1.5026 -0.0527
   21MOL0     O 2748  -0.083   3.264   4.089 -0.1162 -0.1048 -0.4013
   21MOL0     C 2749   0.234   3.421   4.071  0.2755  0.2130  0.5686
   21MOL0     C 2750   0.306   3.539   4.111  0.2293 -0.1172  0.7911
   21MOL0     N 2751   0.596   4.033   3.979 -0.0488 -0.4441  0.3247
   21MOL0     N 2752   0.692   4.105   3.927 -0.3952 -0.5841 -0.3903
   21MOL0     C 2753   2.013   4.319   3.788 -0.7611  1.0116  0.5281
   21MOL0     C 2754   2.139   4.273   3.812  0.0629  0.2112  0.5785
   21MOL0     C 2755   2.583   4.276   3.950  0.8644  0.4129 -0.6967
   21MOL0     C 2756   2.572   4.136   3.935 -0.0098  0.2632 -0.7545
   21MOL0     C 2757   2.675   4.048   3.984 -0.9186  0.4327 -0.3586
   21MOL0     C 2758   2.792   4.104   4.041  0.1694 -0.1190 -0.6854
   21MOL0     O 2759   2.900   4.025   4.086  0.0480 -0.1651  0.9432
   21MOL0     C 2760   2.923   3.881   4.065  1.0877 -0.0092 -0.4306
   21MOL0     C 2761   3.070   3.843   4.031  0.6172 -0.4334 -0.8287
   21MOL0     C 2762   3.167   3.877   4.145  0.3522 -0.9434  0.3706
   21MOL0     C 2763   3.213   3.745   4.209 -0.5978  0.7034  0.3998
   21MOL0     C 2764   3.092   3.673   4.261  0.1335 -0.2521 -0.8647
   21MOL0     C 2765   3.003   3.606   4.308  0.1744 -0.7394 -0.8547
   21MOL0     C 2766   2.802   4.241   4.056 -0.0402  0.2800  0.0414
   21MOL0     C 2767   2.700   4.330   4.009 -0.0558  0.5538  0.2261
   21MOL0     H 2768   2.247   4.538   4.019 -0.3539  1.3490 -1.2751
   21MOL0     H 2769   2.022   4.608   3.973  1.2209 -0.0440 -0.6830
   21MOL0     H 2770   1.756   4.376   3.982  0.6437 -0.5495 -2.7801
   21MOL0     H 2771   1.731   4.547   3.989 -1.1648  0.8196  0.4601
   21MOL0     H 2772   1.555   4.528   3.838 -0.6649 -1.0542 -1.7248
   21MOL0     H 2773   1.617   4.366   3.774 -0.0076 -0.3081  1.1617
   21MOL0     H 2774   1.543   4.250   3.961 -0.7185 -0.5982  1.0648
   21MOL0     H 2775   1.539   4.412   4.050 -0.3977  1.8646 -1.3772
   21MOL0     H 2776   1.338   4.481   3.972 -0.5042  2.0559 -3.0597
   21MOL0     H 2777   1.351   4.384   3.817 -0.3603 -2.2769  0.4963
   21MOL0     H 2778   1.293   4.181   3.924  2.5512 -0.7858  2.0120
   21MOL0     H 2779   1.286   4.256   4.083 -4.1193  1.4980 -0.1760
   21MOL0     H 2780   1.112   4.412   4.040 -3.6137 -0.6366  0.9094
   21MOL0     H 2781   1.101   4.358   3.869 -1.8095  0.1833  1.0215
   21MOL0     H 2782   1.059   4.126   3.958  1.5183  0.6193 -0.6000
   21MOL0     H 2783   1.049   4.184   4.116  4.1238 -4.0517 -1.6733
   21MOL0     H 2784   0.886   4.299   3.904 -0.0745 -1.7912 -0.8542
   21MOL0     H 2785   0.879   4.321   4.082  5.9092  0.1821  1.5260
   21MOL0     H 2786   0.816   4.049   4.223  1.0609 -1.6431 -0.8072
   21MOL0     H 2787   0.506   3.851   4.109 -0.7720  0.0820  0.9479
   21MOL0     H 2788   0.631   3.824   4.228 -1.2437 -0.9684  0.9559
   21MOL0     H 2789   0.394   4.025   4.252 -2.1726 -0.7991  1.3458
   21MOL0     H 2790   0.540   4.052   4.342  0.1028 -0.9680 -0.4263
   21MOL0     H 2791   0.431   3.917   4.500 -2.0019  0.1737 -0.4918
   21MOL0     H 2792   0.515   3.797   4.425  0.2634  1.8233  3.5334
   21MOL0     H 2793   0.227   3.865   4.332  0.2674 -0.9194  0.2669
   21MOL0     H 2794   0.280   3.742   4.451  0.7430  0.0831 -0.4234
   21MOL0     H 2795   0.092   3.659   4.342 -0.8145 -3.6777  1.4727
   21MOL0     H 2796  -0.162   3.501   4.221  0.0514 -6.9838 -1.3745
   21MOL0     H 2797  -0.097   3.384   4.342  0.4267  0.1869  3.1312
   21MOL0     H 2798  -0.075   3.565   4.362  0.2820  1.7601 -2.6223
   21MOL0     H 2799   0.269   3.001   3.900  0.2054 -1.8765 -0.2023
   21MOL0     H 2800   0.235   2.776   3.875 -2.2104 -3.3140 -1.0232
   21MOL0     H 2801   0.150   2.582   3.838  2.7024 -2.1406 -0.0057
   21MOL0     H 2802   0.199   2.540   3.992 -0.5678 -1.4025 -0.0880
   21MOL0     H 2803   0.030   2.352   3.995 -1.8079 -3.0733 -1.3952
   21MOL0     H 2804  -0.059   2.428   3.859  0.1957  1.3669 -0.4232
   21MOL0     H 2805   0.226   2.348   3.837 -0.1946  0.8921 -1.6702
   21MOL0     H 2806   0.118   2.355   3.708 -2.6025  2.3043  0.0417
   21MOL0     H 2807   0.107   2.138   3.922 -1.0488 -1.4716  0.1022
   21MOL0     H 2808  -0.021   2.169   3.805  0.3964 -2.8631 -1.8822
   21MOL0     H 2809   0.114   1.984   3.745 -1.3683 -0.4240 -1.1021
   21MOL0     H 2810   0.261   2.074   3.747 -0.1307 -4.1814 -0.1983
   21MOL0     H 2811   0.063   2.182   3.547 -1.5513 -2.3644  1.6303
   21MOL0     H 2812   0.234   2.163   3.546  0.4232  0.2975  3.5424
   21MOL0     H 2813   0.093   1.972   3.389  1.2867  1.1212  0.8577
   21MOL0     H 2814   0.014   1.947   3.540  0.5143 -1.0663  0.2472
   21MOL0     H 2815   0.300   1.918   3.573  1.1010  0.4050 -1.6655
   21MOL0     H 2816   0.287   1.849   3.423  0.5193 -2.2954  0.7953
   21MOL0     H 2817  -0.143   2.806   4.102 -1.3638  0.6254 -2.3726
   21MOL0     H 2818  -0.099   3.041   4.129 -0.9741 -2.4637  0.4121
   21MOL0     H 2819   0.287   3.348   4.010 -0.8609  0.0311 -0.2335
   21MOL0     H 2820   0.411   3.550   4.083  0.7538 -0.8344  2.3490
   21MOL0     H 2821   1.951   4.247   3.736 -0.5383 -0.6012  2.3839
   21MOL0     H 2822   2.176   4.182   3.765 -2.8214  0.4196 -2.4553
   21MOL0     H 2823   2.488   4.087   3.886  0.8308  0.2222 -2.2281
   21MOL0     H 2824   2.666   3.940   3.983  1.3683  0.1822 -0.5643
   21MOL0     H 2825   2.886   3.825   4.151  0.9943  1.1237  0.2775
   21MOL0     H 2826   2.856   3.853   3.983  0.2237 -0.9528  0.5661
   21MOL0     H 2827   3.106   3.900   3.945  0.4641  1.0202  0.0361
   21MOL0     H 2828   3.067   3.737   4.005 -0.8312 -0.4762 -0.5647
   21MOL0     H 2829   3.120   3.937   4.224  1.2272  1.8802 -1.0971
   21MOL0     H 2830   3.248   3.942   4.110  0.3993 -1.2813 -0.1458
   21MOL0     H 2831   3.274   3.775   4.295 -2.0366  1.7668  1.0819
   21MOL0     H 2832   3.274   3.689   4.137  0.1519  1.3619  0.5153
   21MOL0     H 2833   2.917   3.553   4.342 -0.6491  1.9383  1.6007
   21MOL0     H 2834   2.894   4.279   4.099  0.4476  1.0297 -1.5921
   21MOL0     H 2835   2.716   4.434   4.035  2.8650  0.2563 -0.1237
   22MOL0     O 2836   3.015   4.894   6.292 -0.4676 -0.2010  0.3775
   22MOL0     C 2837   3.111   4.859   6.239 -0.2005  0.2123  0.0184
   22MOL0     O 2838   3.119   4.835   6.108  0.1908  0.2930 -0.4514
   22MOL0     C 2839   3.011   4.826   6.023 -0.4767 -0.1797 -0.1364
   22MOL0     C 2840   2.891   4.893   6.029 -0.0494 -0.3253  0.5490
   22MOL0     C 2841   2.788   4.863   5.938 -0.1462  0.1891  0.0045
   22MOL0     C 2842   2.818   4.789   5.820 -0.4116  0.4692 -0.3560
   22MOL0     O 2843   2.729   4.760   5.718 -0.0093 -0.0998 -0.0522
   22MOL0     C 2844   2.610   4.836   5.711  0.6004 -0.4998 -0.2996
   22MOL0     C 2845   2.537   4.824   5.573  0.2838 -0.0417  0.5573
   22MOL0     C 2846   2.623   4.865   5.455  0.2003  0.4352 -0.2248
   22MOL0     C 2847   2.545   4.871   5.327 -0.0179  0.3429 -0.3566
   22MOL0     C 2848   2.508   5.007   5.276 -0.4374 -0.3651  0.7052
   22MOL0     C 2849   2.460   5.018   5.131  0.5838  0.3939  0.1871
   22MOL0     C 2850   2.335   4.936   5.097 -0.1359 -0.1532 -0.3571
   22MOL0     C 2851   2.269   4.965   4.953  0.4080 -0.2297  0.3477
   22MOL0     N 2852   2.220   5.101   4.943  0.4126 -0.3396 -0.2649
   22MOL0     C 2853   2.125   5.166   5.004 -0.2813 -0.9000  0.0622
   22MOL0     C 2854   2.149   5.297   4.976  0.2264 -0.6576 -0.9688
   22MOL0     C 2855   2.087   5.423   5.034 -0.9099 -0.1483 -0.3119
   22MOL0     C 2856   1.974   5.475   4.945  0.5358 -1.0851  0.0133
   22MOL0     C 2857   1.936   5.604   5.014 -0.4676 -0.5837  0.3136
   22MOL0     C 2858   1.816   5.668   4.939 -0.1805 -0.1632  0.3179
   22MOL0     O 2859   1.711   5.573   4.933 -0.5742  0.2119  0.0174
   22MOL0     C 2860   1.595   5.601   4.864  0.8508  0.1452  0.2158
   22MOL0     C 2861   1.524   5.726   4.868  0.0198 -0.3581  0.4154
   22MOL0     C 2862   1.405   5.752   4.792 -0.2164  0.1726  0.1898
   22MOL0     C 2863   1.353   5.888   4.808  0.2844 -0.5272 -0.9092
   22MOL0     C 2864   1.346   5.650   4.715  0.1355 -0.3893 -0.6984
   22MOL0     C 2865   1.238   5.676   4.624  0.1451  0.1318 -0.6086
   22MOL0     O 2866   1.161   5.788   4.633  0.1039  0.1642  0.3930
   22MOL0     C 2867   1.072   5.820   4.529  0.0581  0.7300  0.1100
   22MOL0     C 2868   1.106   5.926   4.441 -0.7104  0.5469  0.2918
   22MOL0     C 2869   0.999   5.975   4.364  0.3728 -0.0093  1.4672
   22MOL0     C 2870   0.875   5.910   4.362  0.2009 -0.3433  0.7848
   22MOL0     O 2871   0.785   5.967   4.272  0.5760 -0.5267 -0.0976
   22MOL0     C 2872   0.670   5.888   4.230  0.2165  0.3019  0.0525
   22MOL0     C 2873   0.605   5.936   4.089  0.3570 -0.5799 -0.1176
   22MOL0     C 2874   0.467   5.885   4.074  0.4805  0.3971  0.7372
   22MOL0     C 2875   0.467   5.754   3.994  0.0888  0.5729 -0.1984
   22MOL0     C 2876   0.428   5.768   3.849 -0.2139 -0.1376 -0.2618
   22MOL0     C 2877   0.420   5.631   3.776 -0.8379  0.0550 -0.7613
   22MOL0     C 2878   0.403   5.634   3.627 -0.1265  0.1287 -0.8784
   22MOL0     C 2879   0.283   5.716   3.592  0.0801  0.9819 -0.8403
   22MOL0    Cl 2880   0.211   5.647   3.435 -0.6022  0.2425 -0.2993
   22MOL0     C 2881   0.843   5.811   4.455 -0.4175  0.3523 -0.1652
   22MOL0     C 2882   0.943   5.768   4.546 -0.3012  0.3497  0.1085
   22MOL0     O 2883   1.244   5.600   4.529  0.1256 -0.1311 -0.0229
   22MOL0     C 2884   1.408   5.519   4.722  0.8140  0.7375 -0.0717
   22MOL0     C 2885   1.523   5.493   4.801 -0.2188  0.6441 -0.4641
   22MOL0     N 2886   2.251   5.304   4.888  0.2881 -1.0632  0.2110
   22MOL0     N 2887   2.295   5.186   4.872  0.8085  0.4135 -0.4494
   22MOL0     C 2888   2.940   4.733   5.817  0.2168  0.2113 -0.7131
   22MOL0     C 2889   3.042   4.752   5.913  0.1553 -0.2260 -0.1981
   22MOL0     C 2890   3.222   4.808   6.326  0.0122  0.1197  0.0274
   22MOL0     C 2891   3.337   4.761   6.261  0.5463  0.3985 -0.4180
   22MOL0     C 2892   3.430   4.709   6.349  1.2149 -0.7210 -0.1294
   22MOL0     C 2893   3.413   4.699   6.482  0.5794  0.8040 -0.6272
   22MOL0     O 2894   3.516   4.645   6.552 -0.2731  0.0014  0.1731
   22MOL0     C 2895   3.497   4.620   6.700 -0.9452 -0.0635  1.0665
   22MOL0     C 2896   3.614   4.541   6.750  0.0693 -0.0369 -0.6192
   22MOL0     C 2897   3.583   4.482   6.890  1.2534  0.0705  0.2388
   22MOL0     C 2898   3.703   4.416   6.948 -0.2009 -0.2220  1.1711
   22MOL0     C 2899   3.785   4.522   7.008 -0.8447  0.3452 -0.1627
   22MOL0     C 2900   3.859   4.599   7.061 -0.0640 -0.0948 -0.8391
   22MOL0     C 2901   3.304   4.756   6.547  0.2113  0.0021 -0.1676
   22MOL0     C 2902   3.207   4.811   6.464  0.0301  0.0771 -0.4858
   22MOL0     H 2903   2.876   4.968   6.105  2.9540  2.0671 -0.9914
   22MOL0     H 2904   2.694   4.907   5.968 -1.1638 -2.9838  2.0123
   22MOL0     H 2905   2.541   4.802   5.789  0.5449  0.3815  0.0443
   22MOL0     H 2906   2.623   4.943   5.728  2.4574 -0.7872  0.2867
   22MOL0     H 2907   2.506   4.720   5.559  0.1581 -0.1044  1.2674
   22MOL0     H 2908   2.448   4.888   5.570  0.9306  0.8467 -1.8640
   22MOL0     H 2909   2.677   4.960   5.463  2.5356 -0.7505 -0.8134
   22MOL0     H 2910   2.698   4.785   5.446  0.9911  0.5254  3.7334
   22MOL0     H 2911   2.612   4.831   5.250  0.2455  0.8526 -0.3953
   22MOL0     H 2912   2.461   4.801   5.325 -1.1784  1.5654 -4.3456
   22MOL0     H 2913   2.446   5.067   5.343  1.6814  2.3318  0.4263
   22MOL0     H 2914   2.598   5.068   5.267 -2.3262  2.6361  0.6514
   22MOL0     H 2915   2.436   5.122   5.109 -0.2214  1.2234  4.2751
   22MOL0     H 2916   2.542   4.977   5.071 -0.1208 -1.9375  0.7183
   22MOL0     H 2917   2.362   4.830   5.107 -2.0455 -0.7376 -0.9121
   22MOL0     H 2918   2.258   4.947   5.174  1.3723 -1.6993  1.4767
   22MOL0     H 2919   2.185   4.898   4.932  1.9163 -1.1446 -3.7095
   22MOL0     H 2920   2.337   4.952   4.868 -2.6577  2.0794 -2.7443
   22MOL0     H 2921   2.051   5.119   5.069 -0.7357 -1.5302 -0.8839
   22MOL0     H 2922   2.036   5.401   5.128 -1.8729  3.3776  0.1385
   22MOL0     H 2923   2.164   5.497   5.059  2.1777 -3.3335  0.4264
   22MOL0     H 2924   1.888   5.408   4.947  1.0130 -1.7079  0.4976
   22MOL0     H 2925   2.001   5.502   4.843  0.9340  3.5264  1.1302
   22MOL0     H 2926   2.023   5.670   5.023 -0.6288 -0.1838 -0.9323
   22MOL0     H 2927   1.892   5.580   5.111 -2.0466 -0.1561 -0.2793
   22MOL0     H 2928   1.848   5.697   4.838 -1.9671  2.2184  0.3375
   22MOL0     H 2929   1.773   5.755   4.989 -0.1418 -1.0637  1.9961
   22MOL0     H 2930   1.579   5.799   4.927 -0.6477 -0.5855  1.3428
   22MOL0     H 2931   1.416   5.965   4.854  0.0489 -0.5225 -0.5858
   22MOL0     H 2932   1.343   5.930   4.708  1.0947 -0.7178 -1.0708
   22MOL0     H 2933   1.258   5.892   4.863  0.2346  1.0973 -1.0826
   22MOL0     H 2934   1.208   5.964   4.437 -0.5831  0.1554 -0.3561
   22MOL0     H 2935   1.014   6.056   4.293 -1.1192 -2.0796 -1.4070
   22MOL0     H 2936   0.713   5.789   4.213 -0.4320  0.2745 -1.5574
   22MOL0     H 2937   0.594   5.877   4.309  1.9043 -2.2430  1.4741
   22MOL0     H 2938   0.597   6.044   4.104 -0.7682 -0.8295  1.2923
   22MOL0     H 2939   0.665   5.910   4.001 -0.1849  0.6638 -0.8754
   22MOL0     H 2940   0.404   5.952   4.015 -0.8938 -1.0513  0.4892
   22MOL0     H 2941   0.417   5.879   4.171 -0.4949  0.3518  0.2467
   22MOL0     H 2942   0.567   5.710   4.006 -0.6948 -0.9430  1.1489
   22MOL0     H 2943   0.382   5.699   4.037 -2.4082  2.1521 -2.7480
   22MOL0     H 2944   0.496   5.842   3.806 -1.0716  0.7114 -0.1747
   22MOL0     H 2945   0.325   5.804   3.845  0.3478  1.8436  1.4537
   22MOL0     H 2946   0.514   5.578   3.789  0.2114  1.0375 -3.4562
   22MOL0     H 2947   0.342   5.577   3.830 -0.6628  1.1726  0.6662
   22MOL0     H 2948   0.392   5.528   3.603  0.0721 -0.0706 -0.1194
   22MOL0     H 2949   0.489   5.668   3.568 -0.6167  0.3409 -1.4689
   22MOL0     H 2950   0.304   5.822   3.572  0.0711  0.8749 -1.4541
   22MOL0     H 2951   0.203   5.712   3.666  1.3782  0.8689  0.6028
   22MOL0     H 2952   0.738   5.790   4.470 -0.3872  0.5274  0.3327
   22MOL0     H 2953   0.922   5.704   4.631  0.6478 -2.9058 -1.9196
   22MOL0     H 2954   1.367   5.435   4.666 -1.9959  2.1368 -0.2655
   22MOL0     H 2955   1.553   5.388   4.804  0.5383  0.8073  3.6810
   22MOL0     H 2956   2.958   4.681   5.723  0.2741  1.7998 -1.6274
   22MOL0     H 2957   3.146   4.723   5.910  0.8111  1.0778  3.6692
   22MOL0     H 2958   3.359   4.768   6.155  3.7270 -0.9345  0.0412
   22MOL0     H 2959   3.521   4.670   6.303  0.0859 -0.9401 -2.2897
   22MOL0     H 2960   3.489   4.715   6.754 -1.4117 -0.3957  1.5995
   22MOL0     H 2961   3.401   4.574   6.724 -2.4503  0.1522 -3.5687
   22MOL0     H 2962   3.704   4.604   6.754  0.9821 -1.3488  0.6941
   22MOL0     H 2963   3.649   4.460   6.684 -0.3988 -1.5082  0.8616
   22MOL0     H 2964   3.503   4.408   6.883 -0.2906  1.7614 -0.8509
   22MOL0     H 2965   3.558   4.564   6.958  2.3505 -0.6095  1.5328
   22MOL0     H 2966   3.752   4.369   6.862  1.6828  3.8506 -0.2719
   22MOL0     H 2967   3.678   4.339   7.021 -0.9314 -1.5909 -0.4449
   22MOL0     H 2968   3.943   4.649   7.105  0.6019  0.4899 -2.7006
   22MOL0     H 2969   3.294   4.761   6.655  0.9276  1.1254 -0.1429
   22MOL0     H 2970   3.129   4.850   6.529 -0.2125 -2.1253  0.6371
   23MOL0     O 2971   0.337   8.362   3.724  0.3565  0.3458 -0.0494
   23MOL0     C 2972   0.363   8.482   3.728  0.1334 -0.1708 -0.1877
   23MOL0     O 2973   0.281   8.583   3.702 -0.0092 -0.7041  0.1082
   23MOL0     C 2974   0.148   8.543   3.690 -0.1186 -0.7231  0.0309
   23MOL0     C 2975   0.066   8.556   3.804 -0.5892  0.9304 -0.3780
   23MOL0     C 2976  -0.073   8.547   3.795 -0.7357  0.1248 -0.4293
   23MOL0     C 2977  -0.121   8.493   3.678 -0.0569  0.8241 -0.2671
   23MOL0     O 2978  -0.257   8.466   3.668 -0.3969  0.1066 -0.7352
   23MOL0     C 2979  -0.311   8.362   3.578 -0.4272  0.4904  0.0471
   23MOL0     C 2980  -0.453   8.329   3.602 -0.4806  0.7531 -0.5166
   23MOL0     C 2981  -0.545   8.431   3.546  0.2229  0.7159 -0.7494
   23MOL0     C 2982  -0.690   8.382   3.562  0.4168 -0.9688  0.6529
   23MOL0     C 2983  -0.789   8.494   3.523  0.1461  0.0285  0.5523
   23MOL0     C 2984  -0.937   8.442   3.503 -1.0180 -0.3039  0.6624
   23MOL0     C 2985  -1.041   8.556   3.472 -0.1796 -0.7969 -0.3703
   23MOL0     C 2986  -1.058   8.578   3.320 -0.1636 -0.1054  0.3352
   23MOL0     N 2987  -1.185   8.643   3.282  0.0102 -0.9302 -0.1073
   23MOL0     C 2988  -1.265   8.617   3.171 -0.3811 -0.1070 -0.2216
   23MOL0     C 2989  -1.370   8.696   3.171 -1.2093 -0.4772 -1.0584
   23MOL0     C 2990  -1.490   8.719   3.063 -0.6361 -0.4111 -0.6842
   23MOL0     C 2991  -1.433   8.751   2.923  0.9556  0.2353 -0.3185
   23MOL0     C 2992  -1.362   8.881   2.918 -0.3894 -0.7273  0.1833
   23MOL0     C 2993  -1.461   9.002   2.917  0.1186  0.2073  0.1342
   23MOL0     O 2994  -1.574   8.979   2.832  1.0939 -0.0241  0.2526
   23MOL0     C 2995  -1.700   8.947   2.881  0.6221  0.3120  0.3438
   23MOL0     C 2996  -1.742   8.984   3.009  0.6819  0.6638 -0.1494
   23MOL0     C 2997  -1.867   8.949   3.062 -0.0448  0.4669 -0.2788
   23MOL0     C 2998  -1.911   9.006   3.199 -0.5617 -0.5070 -0.0760
   23MOL0     C 2999  -1.963   8.887   2.980 -0.6398  0.5269  0.5604
   23MOL0     C 3000  -2.106   8.872   3.008  0.3155  0.8223 -0.1237
   23MOL0     O 3001  -2.147   8.817   3.121 -0.1072 -0.0374 -0.4670
   23MOL0     C 3002  -2.275   8.843   3.158  0.7396  0.6707 -0.1876
   23MOL0     C 3003  -2.300   8.916   3.269  0.1318  0.6636 -0.4091
   23MOL0     C 3004  -2.433   8.934   3.306  0.4133  0.4115 -0.2627
   23MOL0     C 3005  -2.553   8.884   3.239 -0.0524 -0.3525 -1.0607
   23MOL0     O 3006  -2.682   8.912   3.279 -0.1285  0.5197  0.4370
   23MOL0     C 3007  -2.707   8.900   3.418 -0.1232  0.3150  0.6922
   23MOL0     C 3008  -2.847   8.846   3.424 -0.3577  0.0986 -0.2056
   23MOL0     C 3009  -2.956   8.936   3.354 -0.3100  0.1801  0.8867
   23MOL0     C 3010  -3.089   8.865   3.344  0.7378 -0.4793 -0.1299
   23MOL0     C 3011  -3.197   8.963   3.293  0.6717  0.4922 -0.0067
   23MOL0     C 3012  -3.338   8.899   3.310  0.0893  0.0912  0.8835
   23MOL0     C 3013  -3.372   8.878   3.462  0.2486  0.1038 -0.1885
   23MOL0     C 3014  -3.354   8.733   3.495  0.9566 -0.1967  0.8152
   23MOL0    Cl 3015  -3.291   8.702   3.657  0.0692  0.1461  0.1755
   23MOL0     C 3016  -2.519   8.809   3.132  0.0168 -0.1120 -0.3795
   23MOL0     C 3017  -2.382   8.799   3.084  0.6092  0.1503  0.0552
   23MOL0     O 3018  -2.180   8.911   2.918  0.0112  1.2242  0.1672
   23MOL0     C 3019  -1.921   8.849   2.842  0.4351  0.4815  0.2305
   23MOL0     C 3020  -1.787   8.883   2.799  1.2732 -0.2680  0.5843
   23MOL0     N 3021  -1.362   8.771   3.284  0.3841 -0.6556 -0.5168
   23MOL0     N 3022  -1.263   8.726   3.361  0.5326  0.4551  0.3204
   23MOL0     C 3023  -0.038   8.468   3.566 -0.8893  0.0173 -0.6256
   23MOL0     C 3024   0.095   8.493   3.575  0.2841 -0.1333  0.0944
   23MOL0     C 3025   0.509   8.524   3.737  0.7382 -0.2759  0.5812
   23MOL0     C 3026   0.611   8.436   3.765  0.4077  0.2946  0.1518
   23MOL0     C 3027   0.742   8.485   3.789 -0.4630 -0.4713  0.5080
   23MOL0     C 3028   0.772   8.623   3.760 -0.6325 -0.7436  0.3969
   23MOL0     O 3029   0.905   8.650   3.741  0.7936 -0.4794  0.2907
   23MOL0     C 3030   0.928   8.740   3.628  0.7124  0.2662 -0.4870
   23MOL0     C 3031   1.064   8.717   3.569  0.0442  0.0205 -0.2493
   23MOL0     C 3032   1.184   8.741   3.674 -0.6744  0.0590  0.2382
   23MOL0     C 3033   1.331   8.717   3.616  0.3873 -0.6646 -1.1266
   23MOL0     C 3034   1.424   8.736   3.729  0.8388  0.0655  0.9143
   23MOL0     C 3035   1.498   8.738   3.817 -0.4228  0.1856 -0.3069
   23MOL0     C 3036   0.667   8.713   3.739  1.1419 -0.1018 -0.2862
   23MOL0     C 3037   0.535   8.665   3.722 -0.5323 -0.3738 -0.1579
   23MOL0     H 3038   0.110   8.586   3.899 -0.3874 -0.9399  0.1669
   23MOL0     H 3039  -0.143   8.573   3.874 -0.5827  2.0913 -0.8968
   23MOL0     H 3040  -0.299   8.391   3.473 -1.7720  0.7423 -0.0513
   23MOL0     H 3041  -0.245   8.276   3.593  0.4409  0.9513 -0.9607
   23MOL0     H 3042  -0.468   8.235   3.548 -0.0044  0.6246 -0.4296
   23MOL0     H 3043  -0.474   8.310   3.708  1.3216  0.5730 -0.1651
   23MOL0     H 3044  -0.524   8.524   3.599 -0.6645  0.7942 -0.5092
   23MOL0     H 3045  -0.522   8.443   3.440  0.2312  3.0206 -0.5388
   23MOL0     H 3046  -0.701   8.309   3.482  0.7796  0.1085 -0.4079
   23MOL0     H 3047  -0.717   8.338   3.658 -1.6650  0.3108  0.7140
   23MOL0     H 3048  -0.779   8.579   3.591  0.5389 -0.3420  0.9599
   23MOL0     H 3049  -0.768   8.538   3.425 -1.5843 -1.2329 -0.4545
   23MOL0     H 3050  -0.941   8.355   3.437  0.6384  1.8868 -2.5751
   23MOL0     H 3051  -0.979   8.401   3.596 -1.5463 -2.0569 -0.3002
   23MOL0     H 3052  -1.142   8.538   3.510 -0.1338 -0.3734 -0.0297
   23MOL0     H 3053  -1.010   8.647   3.526 -4.4168 -0.3511  1.6823
   23MOL0     H 3054  -1.047   8.486   3.262  1.0253  0.3853 -0.2436
   23MOL0     H 3055  -0.973   8.638   3.286  0.1816 -0.7828  0.0070
   23MOL0     H 3056  -1.230   8.547   3.096  1.2688 -2.2753  2.3399
   23MOL0     H 3057  -1.560   8.635   3.064 -0.4341 -0.5784  0.3418
   23MOL0     H 3058  -1.550   8.804   3.096  1.7302  0.6627  1.2347
   23MOL0     H 3059  -1.517   8.749   2.853  1.0243  1.0283 -0.4299
   23MOL0     H 3060  -1.364   8.670   2.898 -2.0453 -2.1696 -1.4919
   23MOL0     H 3061  -1.310   8.895   2.822 -0.6998  1.4198  0.2738
   23MOL0     H 3062  -1.283   8.896   2.992  0.7109 -1.2444 -0.8538
   23MOL0     H 3063  -1.413   9.098   2.893 -0.8197  0.6881  0.1233
   23MOL0     H 3064  -1.495   9.009   3.021 -1.7403 -3.2561 -0.1140
   23MOL0     H 3065  -1.680   9.045   3.073  0.4443 -0.1990  0.9326
   23MOL0     H 3066  -1.895   8.924   3.270  3.1318 -1.5940 -1.9276
   23MOL0     H 3067  -1.856   9.095   3.231  1.1865 -0.2063 -3.4700
   23MOL0     H 3068  -2.016   9.037   3.203  0.2502  2.8039 -1.3438
   23MOL0     H 3069  -2.227   8.960   3.337 -0.2074 -1.8562  1.7454
   23MOL0     H 3070  -2.432   8.990   3.399  0.7767 -0.5437  0.3158
   23MOL0     H 3071  -2.629   8.839   3.463 -0.9975 -1.0373  0.4343
   23MOL0     H 3072  -2.704   9.002   3.457  2.1498  0.9775 -1.0102
   23MOL0     H 3073  -2.840   8.745   3.382  1.4456  0.3397 -0.5919
   23MOL0     H 3074  -2.870   8.837   3.531 -0.3362  0.8931 -0.1297
   23MOL0     H 3075  -2.917   8.956   3.254  1.2575 -0.3846  1.3533
   23MOL0     H 3076  -2.963   9.034   3.402  0.1343 -0.2338  1.8241
   23MOL0     H 3077  -3.086   8.774   3.283 -1.4965 -0.6510 -0.0764
   23MOL0     H 3078  -3.110   8.827   3.444  0.2578 -1.5123 -0.6084
   23MOL0     H 3079  -3.178   8.990   3.188  0.6126 -0.4855 -0.2767
   23MOL0     H 3080  -3.194   9.048   3.362 -0.9434 -0.4109  1.2421
   23MOL0     H 3081  -3.400   8.982   3.277  3.1474  2.7317  1.2178
   23MOL0     H 3082  -3.373   8.812   3.254 -3.4648  1.9244 -0.0288
   23MOL0     H 3083  -3.469   8.912   3.498  1.1610  0.6012  1.9841
   23MOL0     H 3084  -3.301   8.941   3.518  0.1115 -1.0763  1.4026
   23MOL0     H 3085  -3.305   8.692   3.407 -4.3820 -0.1370 -2.6286
   23MOL0     H 3086  -3.449   8.679   3.497  1.5651 -1.3153  3.0630
   23MOL0     H 3087  -2.605   8.765   3.083  0.3592 -2.1129  0.6856
   23MOL0     H 3088  -2.373   8.748   2.989  3.3096 -0.1553  0.3975
   23MOL0     H 3089  -1.992   8.805   2.773  3.3971 -0.5455 -2.4417
   23MOL0     H 3090  -1.756   8.861   2.697  0.8134  1.7550 -0.0553
   23MOL0     H 3091  -0.078   8.440   3.469 -0.3091  2.6436 -1.6898
   23MOL0     H 3092   0.143   8.487   3.478  1.0084  1.9089  0.2719
   23MOL0     H 3093   0.580   8.338   3.799 -0.4829 -0.4015 -2.3972
   23MOL0     H 3094   0.816   8.423   3.839  1.0361  0.7954 -0.0339
   23MOL0     H 3095   0.847   8.730   3.556 -0.2840 -2.1709  0.8494
   23MOL0     H 3096   0.925   8.844   3.665  0.7811  0.0736  0.0746
   23MOL0     H 3097   1.083   8.787   3.487 -0.1948 -1.4998 -1.6854
   23MOL0     H 3098   1.065   8.617   3.525  2.0812 -0.0672 -0.0935
   23MOL0     H 3099   1.182   8.680   3.765  0.8183 -0.0903  0.2018
   23MOL0     H 3100   1.164   8.843   3.710 -2.3118 -0.1862  0.0825
   23MOL0     H 3101   1.347   8.784   3.531 -1.3894  0.3771 -0.6778
   23MOL0     H 3102   1.341   8.615   3.577  1.7003 -1.4618  1.1334
   23MOL0     H 3103   1.564   8.727   3.901 -1.6312  0.1825  0.6632
   23MOL0     H 3104   0.687   8.816   3.714  0.1099  0.3444  0.6796
   23MOL0     H 3105   0.463   8.745   3.712 -0.2693  0.2088  2.1512
   24MOL0     O 3106  10.483   3.880   9.724 -0.9192 -0.0318  0.8361
   24MOL0     C 3107  10.488   3.783   9.651 -0.0116  1.0841 -0.3689
   24MOL0     O 3108  10.384   3.703   9.623 -0.1522 -0.1752 -0.2351
   24MOL0     C 3109  10.269   3.720   9.693  0.1691  0.8532  0.1838
   24MOL0     C 3110  10.209   3.617   9.767  0.2691 -0.0291  0.2296
   24MOL0     C 3111  10.096   3.630   9.840 -0.0458  0.2381 -0.3034
   24MOL0     C 3112  10.034   3.758   9.847 -0.6438  1.1429  0.5482
   24MOL0     O 3113   9.916   3.779   9.903  0.3214 -0.3481  0.6467
   24MOL0     C 3114   9.869   3.697  10.012 -0.8749 -0.4045  0.7616
   24MOL0     C 3115   9.760   3.740  10.090 -0.1734 -0.1780  0.6176
   24MOL0     C 3116   9.635   3.741  10.014 -0.0192 -1.1525  0.1802
   24MOL0     C 3117   9.514   3.780  10.105 -0.1988 -0.8210  0.6643
   24MOL0     C 3118   9.385   3.772  10.032  0.5205 -0.6404 -0.3439
   24MOL0     C 3119   9.258   3.832  10.096  0.3284 -0.5727 -0.1711
   24MOL0     C 3120   9.131   3.772  10.032  0.6320 -0.0855 -0.1868
   24MOL0     C 3121   9.105   3.843   9.893 -0.1259 -0.8296 -0.1969
   24MOL0     N 3122   8.994   3.784   9.817  0.0323  0.1426  0.1746
   24MOL0     C 3123   8.881   3.843   9.770  0.2638 -0.0508 -0.6877
   24MOL0     C 3124   8.804   3.740   9.726  0.2031 -0.4404 -0.4470
   24MOL0     C 3125   8.679   3.738   9.646 -0.6174 -0.1157 -0.4561
   24MOL0     C 3126   8.561   3.782   9.731  0.2322  0.1425  0.1546
   24MOL0     C 3127   8.538   3.693   9.849 -0.0831  0.2949  0.0564
   24MOL0     C 3128   8.386   3.707   9.877 -0.4154  0.3714  0.2677
   24MOL0     O 3129   8.313   3.587   9.846 -0.0160 -0.4130 -0.7221
   24MOL0     C 3130   8.177   3.596   9.867  0.4632 -0.7468  0.4128
   24MOL0     C 3131   8.104   3.482   9.818  0.2070 -0.8073  0.5490
   24MOL0     C 3132   7.966   3.466   9.846  0.0655  0.7776  0.1251
   24MOL0     C 3133   7.898   3.348   9.781  0.6512 -0.8195 -0.0838
   24MOL0     C 3134   7.895   3.555   9.935  0.1155  0.5374 -0.9753
   24MOL0     C 3135   7.753   3.539   9.988  0.0019 -0.0743  0.1376
   24MOL0     O 3136   7.685   3.435   9.949  0.3079  0.4298  0.4335
   24MOL0     C 3137   7.587   3.377  10.024  0.9037 -0.4608  0.4143
   24MOL0     C 3138   7.605   3.364  10.165 -0.3155  0.2760  0.3892
   24MOL0     C 3139   7.508   3.295  10.241  0.7184 -0.1586  0.4122
   24MOL0     C 3140   7.404   3.225  10.173  0.1519  0.3390 -0.2042
   24MOL0     O 3141   7.321   3.138  10.242 -0.1942  0.5245 -0.0300
   24MOL0     C 3142   7.248   3.204  10.350  0.5354 -0.3319 -0.3108
   24MOL0     C 3143   7.112   3.214  10.301  0.7901 -0.4022 -0.1004
   24MOL0     C 3144   7.037   3.296  10.406 -0.5701  0.2614  0.3418
   24MOL0     C 3145   6.885   3.323  10.387 -0.6313 -0.5028 -0.7468
   24MOL0     C 3146   6.776   3.217  10.419 -0.2568 -0.9415  0.5592
   24MOL0     C 3147   6.762   3.123  10.295 -1.0013  0.0728 -0.2262
   24MOL0     C 3148   6.681   2.995  10.340 -0.4946 -1.1720 -0.8883
   24MOL0     C 3149   6.737   2.906  10.440  0.2327 -0.1033  1.2582
   24MOL0    Cl 3150   6.881   2.829  10.365  0.4825  0.2328 -0.1652
   24MOL0     C 3151   7.397   3.230  10.033  0.5090 -0.2570 -0.8453
   24MOL0     C 3152   7.479   3.312   9.957  0.2390  0.4860  0.7526
   24MOL0     O 3153   7.709   3.626  10.066  0.7894  0.2652 -0.2880
   24MOL0     C 3154   7.968   3.662   9.988 -0.7942 -0.4908 -0.4988
   24MOL0     C 3155   8.105   3.683   9.951  0.7074 -0.5746  0.2529
   24MOL0     N 3156   8.872   3.622   9.753 -0.3904 -0.3048  0.9119
   24MOL0     N 3157   8.991   3.654   9.803  0.5854 -0.5077  0.8387
   24MOL0     C 3158  10.086   3.863   9.779 -0.1955 -0.4612 -0.9228
   24MOL0     C 3159  10.208   3.852   9.704 -0.0064  0.3910  0.5351
   24MOL0     C 3160  10.622   3.758   9.597 -0.6693 -0.5220 -0.1143
   24MOL0     C 3161  10.689   3.864   9.530 -0.6260  0.2777 -0.2124
   24MOL0     C 3162  10.830   3.853   9.490 -0.8261  1.0142 -0.4748
   24MOL0     C 3163  10.890   3.731   9.505 -0.6529 -0.2298 -0.0486
   24MOL0     O 3164  11.024   3.734   9.474  0.2794  0.0256  0.5324
   24MOL0     C 3165  11.112   3.649   9.547 -0.5419  0.3061  0.2911
   24MOL0     C 3166  11.262   3.673   9.518 -0.3216 -0.5186  0.2438
   24MOL0     C 3167  11.313   3.668   9.378 -0.0793  0.3625 -0.3720
   24MOL0     C 3168  11.264   3.527   9.316 -0.2214 -0.6523  0.1675
   24MOL0     C 3169  11.301   3.525   9.175 -0.4697  0.3890 -0.2125
   24MOL0     C 3170  11.325   3.524   9.060  0.7990 -0.4196 -0.1588
   24MOL0     C 3171  10.820   3.628   9.563 -0.4845  0.1440  0.7233
   24MOL0     C 3172  10.690   3.639   9.611  0.0594  0.4156 -0.0768
   24MOL0     H 3173  10.266   3.524   9.760 -0.3342 -0.4632  0.9022
   24MOL0     H 3174  10.052   3.546   9.893 -0.7089  0.2448 -0.8248
   24MOL0     H 3175   9.866   3.591   9.986 -2.0633 -0.3253  0.5308
   24MOL0     H 3176   9.959   3.691  10.073 -1.1469 -1.6369  1.0593
   24MOL0     H 3177   9.754   3.671  10.175 -3.0438  0.0885  0.7300
   24MOL0     H 3178   9.790   3.837  10.131  2.1992 -0.7819  0.4748
   24MOL0     H 3179   9.641   3.807   9.927  1.0261 -0.6069  0.6515
   24MOL0     H 3180   9.617   3.640   9.975  2.0789 -1.3324 -0.4398
   24MOL0     H 3181   9.518   3.728  10.202  1.1709  0.8700  1.5692
   24MOL0     H 3182   9.533   3.883  10.134 -1.8213 -0.3232  0.0574
   24MOL0     H 3183   9.391   3.822   9.934  0.8369  0.5163  0.2450
   24MOL0     H 3184   9.360   3.669  10.006 -2.2215 -0.2350  0.3447
   24MOL0     H 3185   9.264   3.815  10.204  0.3772 -0.4097 -0.1494
   24MOL0     H 3186   9.260   3.941  10.092 -0.0747 -0.5900 -4.2836
   24MOL0     H 3187   9.134   3.665  10.007  1.6565 -0.2558  0.6152
   24MOL0     H 3188   9.050   3.793  10.102  3.6333  0.6884  3.4009
   24MOL0     H 3189   9.191   3.849   9.825 -0.8528  1.7868 -1.0173
   24MOL0     H 3190   9.098   3.948   9.922  2.9031 -0.7785  0.7389
   24MOL0     H 3191   8.864   3.951   9.770 -1.4712 -0.3021 -0.4779
   24MOL0     H 3192   8.700   3.801   9.559  2.4428 -0.4673 -0.1016
   24MOL0     H 3193   8.661   3.636   9.613  1.7164  0.1885 -2.9915
   24MOL0     H 3194   8.469   3.788   9.673  0.5298  0.7417 -0.2704
   24MOL0     H 3195   8.581   3.887   9.755  1.8266  0.1281 -0.9024
   24MOL0     H 3196   8.605   3.719   9.931  0.4942  3.4370 -1.2664
   24MOL0     H 3197   8.560   3.589   9.822 -1.9611 -0.3394  0.7609
   24MOL0     H 3198   8.339   3.791   9.826 -2.4554  0.4272  2.1007
   24MOL0     H 3199   8.368   3.739   9.980 -1.7993  2.6323 -0.6105
   24MOL0     H 3200   8.160   3.408   9.762 -1.0617 -0.9722 -0.5386
   24MOL0     H 3201   7.890   3.266   9.853 -1.7779 -0.2291  0.4067
   24MOL0     H 3202   7.798   3.378   9.749 -0.6406  0.3869  4.3208
   24MOL0     H 3203   7.952   3.313   9.693 -0.5146 -2.1544 -0.3124
   24MOL0     H 3204   7.694   3.395  10.220 -0.1126 -0.6479  0.6084
   24MOL0     H 3205   7.514   3.316  10.347 -2.1618  1.2432  0.3867
   24MOL0     H 3206   7.253   3.141  10.439  1.2219  0.2945  0.1041
   24MOL0     H 3207   7.284   3.304  10.374  1.8238 -0.8991  0.1759
   24MOL0     H 3208   7.093   3.261  10.204 -0.7383 -1.6943 -0.4649
   24MOL0     H 3209   7.062   3.117  10.295 -1.0492  0.1707  3.1477
   24MOL0     H 3210   7.079   3.397  10.404  0.3270  0.0289  2.8668
   24MOL0     H 3211   7.050   3.254  10.507  0.9824 -0.3107 -0.0574
   24MOL0     H 3212   6.868   3.414  10.446 -0.6130 -0.7804 -0.3123
   24MOL0     H 3213   6.879   3.349  10.281  1.8261  2.1948 -0.3637
   24MOL0     H 3214   6.685   3.270  10.447  0.2692 -0.1883  0.8901
   24MOL0     H 3215   6.813   3.170  10.510  3.2662 -0.5383 -0.5191
   24MOL0     H 3216   6.700   3.177  10.222 -1.2923 -2.1286 -1.7208
   24MOL0     H 3217   6.858   3.091  10.254 -0.1839 -0.2590  1.8262
   24MOL0     H 3218   6.657   2.931  10.255 -0.0138 -3.7067  0.7566
   24MOL0     H 3219   6.582   3.024  10.379  0.2808  2.1078 -1.0509
   24MOL0     H 3220   6.659   2.831  10.459  0.2716 -0.7747 -0.9578
   24MOL0     H 3221   6.767   2.961  10.530  0.5924  3.0867 -0.6598
   24MOL0     H 3222   7.315   3.166  10.000  0.9610 -1.6178  0.5441
   24MOL0     H 3223   7.456   3.315   9.851 -2.0358  3.9776  1.1767
   24MOL0     H 3224   7.924   3.732  10.058 -0.2726 -0.7702  0.1259
   24MOL0     H 3225   8.151   3.778   9.979 -2.0810  1.2541 -0.9029
   24MOL0     H 3226  10.041   3.961   9.778  2.7771  1.0359  0.1072
   24MOL0     H 3227  10.256   3.932   9.648 -0.0724 -1.5144 -2.4868
   24MOL0     H 3228  10.659   3.965   9.503  0.9218  0.3555 -1.8601
   24MOL0     H 3229  10.889   3.936   9.453 -0.0744  1.5335  1.7448
   24MOL0     H 3230  11.105   3.676   9.652 -0.9095  0.0794  0.3283
   24MOL0     H 3231  11.087   3.543   9.537 -2.4230  0.8655 -1.6319
   24MOL0     H 3232  11.319   3.607   9.584  0.5724 -0.3939 -0.3864
   24MOL0     H 3233  11.281   3.775   9.552  3.2495 -0.1127 -2.2743
   24MOL0     H 3234  11.422   3.675   9.387  0.0952 -2.9608  2.1938
   24MOL0     H 3235  11.265   3.753   9.330 -0.8073  1.0068  1.4211
   24MOL0     H 3236  11.156   3.513   9.321 -0.5335  0.9438 -1.2338
   24MOL0     H 3237  11.317   3.451   9.375  0.6342  0.0472  0.3272
   24MOL0     H 3238  11.350   3.515   8.956  2.0202 -1.2082  0.1707
   24MOL0     H 3239  10.870   3.533   9.579 -1.2821 -0.5453 -0.6531
   24MOL0     H 3240  10.647   3.555   9.665  3.4551 -1.7295 -0.4188
   25MOL0     O 3241   5.079  10.906   7.637 -0.3008 -0.1054 -0.0713
   25MOL0     C 3242   5.052  10.936   7.747  0.2457  0.0684 -0.1340
   25MOL0     O 3243   4.921  10.955   7.786  0.0296  0.1162 -0.0526
   25MOL0     C 3244   4.827  10.966   7.679 -0.2248 -0.1089 -0.2113
   25MOL0     C 3245   4.759  10.846   7.638  0.5681 -0.4120  0.2053
   25MOL0     C 3246   4.654  10.854   7.554  0.1468  0.5748 -0.4817
   25MOL0     C 3247   4.626  10.970   7.482 -0.8999 -0.6416 -0.0041
   25MOL0     O 3248   4.530  10.988   7.394 -0.0237  0.2954 -0.3758
   25MOL0     C 3249   4.462  10.876   7.334 -0.3842  1.1513  0.5950
   25MOL0     C 3250   4.402  10.899   7.190  0.5322  0.2598 -0.9006
   25MOL0     C 3251   4.255  10.956   7.208 -0.2730  0.1101  0.3623
   25MOL0     C 3252   4.161  10.943   7.091 -0.0556  0.1962 -0.4226
   25MOL0     C 3253   4.108  10.800   7.094 -0.4006  0.7660 -0.1476
   25MOL0     C 3254   4.013  10.763   6.984  0.3528  0.2337  0.5413
   25MOL0     C 3255   3.870  10.810   7.013  0.3931 -0.7500 -0.7282
   25MOL0     C 3256   3.808  10.735   7.129  0.0522  0.0610 -0.5916
   25MOL0     N 3257   3.665  10.716   7.110 -0.7943 -0.1151 -0.0363
   25MOL0     C 3258   3.611  10.623   7.028 -0.4106  0.3090 -0.3694
   25MOL0     C 3259   3.482  10.636   7.037  0.2777  0.2824  0.1567
   25MOL0     C 3260   3.381  10.556   6.965 -0.2025 -1.3545 -0.2073
   25MOL0     C 3261   3.377  10.590   6.807  0.6062 -0.2112 -0.6993
   25MOL0     C 3262   3.297  10.475   6.743 -0.8317  0.1542  0.1012
   25MOL0     C 3263   3.158  10.438   6.795 -0.1688 -0.6713 -0.4457
   25MOL0     O 3264   3.086  10.362   6.698 -0.3561  0.3774 -0.3301
   25MOL0     C 3265   2.953  10.338   6.712  0.2065  0.2122 -0.1193
   25MOL0     C 3266   2.881  10.315   6.593 -0.6112 -0.1450  0.7904
   25MOL0     C 3267   2.745  10.301   6.594  1.1047  0.3654  0.1153
   25MOL0     C 3268   2.679  10.275   6.465  0.5237 -0.1045  0.6833
   25MOL0     C 3269   2.678  10.295   6.716 -0.1607 -0.1317  0.0014
   25MOL0     C 3270   2.534  10.259   6.745  0.0811  0.8943 -0.0423
   25MOL0     O 3271   2.491  10.215   6.871 -0.0546  0.5266  0.5359
   25MOL0     C 3272   2.365  10.168   6.863  0.3323  0.6318 -0.7070
   25MOL0     C 3273   2.330  10.040   6.817 -0.1872  0.1616  0.1890
   25MOL0     C 3274   2.188  10.004   6.797  0.2957 -0.1691 -0.5458
   25MOL0     C 3275   2.089  10.089   6.839 -1.1228 -0.1314 -0.3389
   25MOL0     O 3276   1.965  10.041   6.815  0.2217  0.4648 -0.3251
   25MOL0     C 3277   1.850  10.120   6.873 -0.5142 -0.0096  0.3124
   25MOL0     C 3278   1.821  10.073   7.023  0.3415 -0.0238 -0.0384
   25MOL0     C 3279   1.847  10.179   7.130 -0.7103 -0.4147  0.7252
   25MOL0     C 3280   1.789  10.144   7.271  0.6988  0.1494 -0.0001
   25MOL0     C 3281   1.810  10.267   7.355  0.1061 -0.1831 -0.1818
   25MOL0     C 3282   1.762  10.223   7.491  1.1663  0.0124 -0.5804
   25MOL0     C 3283   1.801  10.331   7.597 -0.8887 -0.6446 -0.0354
   25MOL0     C 3284   1.736  10.293   7.730  0.2485 -0.4476  0.9597
   25MOL0    Cl 3285   1.829  10.393   7.850  0.6723 -0.1837 -0.0193
   25MOL0     C 3286   2.126  10.216   6.885 -0.2414 -0.4253 -0.1460
   25MOL0     C 3287   2.258  10.254   6.899  0.9045 -0.0267 -0.1132
   25MOL0     O 3288   2.461  10.279   6.650 -0.2532  0.2014 -0.5599
   25MOL0     C 3289   2.754  10.319   6.837  0.7734  0.2646  0.9673
   25MOL0     C 3290   2.887  10.338   6.833  0.1089 -0.0361 -0.5357
   25MOL0     N 3291   3.457  10.740   7.132 -0.6895 -0.3670  0.1182
   25MOL0     N 3292   3.576  10.788   7.166 -0.7842  0.3678 -0.0392
   25MOL0     C 3293   4.704  11.080   7.510 -0.6591 -0.4639 -0.3550
   25MOL0     C 3294   4.809  11.081   7.605  0.3413  0.4953  0.8775
   25MOL0     C 3295   5.162  10.941   7.844  0.2189 -1.7126 -0.1099
   25MOL0     C 3296   5.258  10.844   7.858 -0.5812  0.3239  0.4459
   25MOL0     C 3297   5.348  10.849   7.963 -0.2758 -0.3303  0.5813
   25MOL0     C 3298   5.352  10.950   8.052  0.7223 -0.4573 -0.4851
   25MOL0     O 3299   5.453  10.945   8.145  0.3283  0.3204  0.1122
   25MOL0     C 3300   5.544  11.055   8.112  0.1934  0.1720  0.3513
   25MOL0     C 3301   5.662  10.973   8.053  0.3978  0.2620  0.0293
   25MOL0     C 3302   5.723  10.888   8.172  0.5022  0.0494 -0.1122
   25MOL0     C 3303   5.875  10.858   8.147  0.1453  0.1969  0.7437
   25MOL0     C 3304   5.891  10.781   8.022  0.6078 -0.7303  0.4209
   25MOL0     C 3305   5.890  10.733   7.910 -0.0769  1.0674 -0.6676
   25MOL0     C 3306   5.261  11.053   8.043  0.4908 -0.2773 -0.2386
   25MOL0     C 3307   5.160  11.045   7.938  0.4006  0.3589  0.2598
   25MOL0     H 3308   4.772  10.749   7.683 -2.6895 -0.9900  0.1324
   25MOL0     H 3309   4.580  10.775   7.546  0.8000  0.0044 -0.9509
   25MOL0     H 3310   4.526  10.788   7.323 -0.6233  1.0607 -0.1455
   25MOL0     H 3311   4.386  10.846   7.406  1.6140  0.7606  2.6762
   25MOL0     H 3312   4.461  10.975   7.138  0.7270 -0.0054 -1.0671
   25MOL0     H 3313   4.399  10.805   7.134 -0.3417 -0.1824 -0.1297
   25MOL0     H 3314   4.203  10.904   7.290 -0.7614  0.6250  0.3860
   25MOL0     H 3315   4.268  11.060   7.240  2.3454 -0.8236  2.7456
   25MOL0     H 3316   4.068  10.997   7.112  0.4096  2.6402 -3.8107
   25MOL0     H 3317   4.212  10.977   7.000  3.4213 -1.1583  0.8290
   25MOL0     H 3318   4.185  10.722   7.097 -0.1258  1.0219  3.9016
   25MOL0     H 3319   4.060  10.787   7.191  0.9618  1.2615  0.6101
   25MOL0     H 3320   4.052  10.813   6.895 -1.1406  2.0789  0.8688
   25MOL0     H 3321   4.011  10.654   6.975  1.7592  0.1004  1.5701
   25MOL0     H 3322   3.872  10.917   7.031 -1.8776 -0.8098  0.2038
   25MOL0     H 3323   3.810  10.799   6.922  1.0245 -0.7934 -1.1472
   25MOL0     H 3324   3.821  10.797   7.218  0.3720 -2.4805  1.2601
   25MOL0     H 3325   3.849  10.634   7.136 -0.8293 -0.3025 -0.4861
   25MOL0     H 3326   3.665  10.543   6.977 -3.9493 -1.8119 -1.1429
   25MOL0     H 3327   3.415  10.452   6.959 -3.9338 -2.6411 -2.1043
   25MOL0     H 3328   3.286  10.550   7.018 -0.2672  2.3729  0.3564
   25MOL0     H 3329   3.478  10.608   6.771  1.1237 -1.8071 -0.1409
   25MOL0     H 3330   3.324  10.680   6.775  1.0658  0.2688 -0.1355
   25MOL0     H 3331   3.367  10.391   6.745 -0.3583  0.5287 -0.3980
   25MOL0     H 3332   3.282  10.497   6.637 -1.5701 -1.4081 -0.1577
   25MOL0     H 3333   3.115  10.536   6.818  1.8555  0.0356  0.6513
   25MOL0     H 3334   3.162  10.395   6.896 -1.1637 -1.2389 -0.6334
   25MOL0     H 3335   2.937  10.305   6.500  0.2914 -1.5201  1.4495
   25MOL0     H 3336   2.758  10.238   6.398  1.1557  1.5262  0.4930
   25MOL0     H 3337   2.602  10.197   6.469 -0.9950  1.2105 -1.3415
   25MOL0     H 3338   2.634  10.364   6.420  0.3493 -1.0434 -1.1159
   25MOL0     H 3339   2.403   9.960   6.807  1.4245  1.4541  1.1703
   25MOL0     H 3340   2.153   9.903   6.777  1.1679 -0.8236  1.0198
   25MOL0     H 3341   1.865  10.228   6.863 -2.7053  0.2890 -0.3658
   25MOL0     H 3342   1.765  10.092   6.809  0.1750  0.0643 -0.6534
   25MOL0     H 3343   1.714  10.051   7.029  0.3461  0.3535  2.3396
   25MOL0     H 3344   1.863   9.972   7.034 -1.8045 -0.9508 -0.0256
   25MOL0     H 3345   1.785  10.254   7.079  0.8639  0.8093  0.5181
   25MOL0     H 3346   1.952  10.210   7.136 -0.6494  0.0019 -1.4719
   25MOL0     H 3347   1.684  10.115   7.268  0.9203 -0.6994  0.0379
   25MOL0     H 3348   1.838  10.055   7.312 -1.8116 -1.0614  0.5382
   25MOL0     H 3349   1.765  10.354   7.308  2.0189  0.4728 -0.8992
   25MOL0     H 3350   1.916  10.291   7.365  0.8293 -3.5740  2.3861
   25MOL0     H 3351   1.654  10.208   7.501  1.3929 -0.6449  1.0975
   25MOL0     H 3352   1.797  10.125   7.524  1.2742  0.4924  0.8108
   25MOL0     H 3353   1.764  10.427   7.561  1.4551  0.0127 -0.9079
   25MOL0     H 3354   1.910  10.333   7.604 -0.8965  0.1554 -0.0618
   25MOL0     H 3355   1.759  10.187   7.744  1.6470 -0.1239  1.3413
   25MOL0     H 3356   1.630  10.317   7.724  0.2283 -0.6489  0.4098
   25MOL0     H 3357   2.054  10.294   6.911  1.9063  1.4402  0.5325
   25MOL0     H 3358   2.293  10.348   6.941  1.8019  0.7091 -2.3301
   25MOL0     H 3359   2.713  10.330   6.937 -0.0573 -0.1091  0.6793
   25MOL0     H 3360   2.932  10.372   6.926  4.0071 -0.2599 -2.1561
   25MOL0     H 3361   4.701  11.173   7.454  2.5529 -0.5577 -0.8786
   25MOL0     H 3362   4.861  11.174   7.624  1.0493  0.1156  0.8110
   25MOL0     H 3363   5.270  10.759   7.792  3.2575  1.1586 -0.1751
   25MOL0     H 3364   5.428  10.776   7.963 -0.6039 -0.6893  0.7906
   25MOL0     H 3365   5.513  11.128   8.037  1.0255 -0.6275 -0.8178
   25MOL0     H 3366   5.586  11.114   8.194 -1.0418  1.9675 -0.2507
   25MOL0     H 3367   5.732  11.052   8.024  1.4031 -0.6237 -0.0167
   25MOL0     H 3368   5.626  10.903   7.977 -0.9647  3.2672 -2.2882
   25MOL0     H 3369   5.672  10.791   8.180 -0.7312  0.8284  3.8633
   25MOL0     H 3370   5.723  10.947   8.265  1.2325 -0.9562  0.5513
   25MOL0     H 3371   5.925  10.796   8.221  1.0849 -2.6265 -2.0626
   25MOL0     H 3372   5.937  10.948   8.143  0.6071 -0.1668 -1.2372
   25MOL0     H 3373   5.903  10.679   7.818 -0.7165  0.3385 -0.3424
   25MOL0     H 3374   5.274  11.121   8.126  0.2695 -2.5856  1.7979
   25MOL0     H 3375   5.087  11.125   7.931 -2.5647 -2.1630  0.2007
   26MOL0     O 3376   5.181  10.430   0.440 -0.2307 -0.4342 -0.7030
   26MOL0     C 3377   5.230  10.416   0.328 -0.3385 -0.3812 -0.3107
   26MOL0     O 3378   5.173  10.465   0.214  0.4962 -0.0060 -0.4564
   26MOL0     C 3379   5.036  10.480   0.221  0.4606 -0.3354  0.0486
   26MOL0     C 3380   4.989  10.607   0.229 -0.0276 -0.1406 -0.2374
   26MOL0     C 3381   4.853  10.646   0.235 -0.3521  0.7213  0.4551
   26MOL0     C 3382   4.761  10.549   0.256 -0.1438  1.0313 -0.4958
   26MOL0     O 3383   4.623  10.585   0.265 -0.7389 -0.7418 -0.3958
   26MOL0     C 3384   4.544  10.505   0.353  0.6971  0.4972  0.2907
   26MOL0     C 3385   4.395  10.530   0.300  0.0244 -0.1361 -0.7537
   26MOL0     C 3386   4.346  10.445   0.183  0.2604  0.2833 -0.7658
   26MOL0     C 3387   4.194  10.443   0.177  0.5429  0.2134  0.1234
   26MOL0     C 3388   4.124  10.431   0.037 -0.4051  0.6559 -0.3597
   26MOL0     C 3389   3.981  10.377   0.042  0.4473 -0.5829 -0.9232
   26MOL0     C 3390   3.875  10.485   0.089 -0.0293  0.2430 -0.1103
   26MOL0     C 3391   3.734  10.437   0.059 -0.2308 -0.5667 -0.2434
   26MOL0     N 3392   3.641  10.532   0.127 -0.5180 -0.4131  0.5996
   26MOL0     C 3393   3.603  10.520   0.262 -0.1166 -0.6408  0.4242
   26MOL0     C 3394   3.499  10.606   0.273 -0.0605 -0.7447  0.0120
   26MOL0     C 3395   3.436  10.646   0.405 -0.2957 -0.0533  0.9818
   26MOL0     C 3396   3.485  10.584   0.528 -0.0213  0.5920 -0.1292
   26MOL0     C 3397   3.425  10.647   0.650  0.4518  1.0159 -0.0753
   26MOL0     C 3398   3.471  10.552   0.772  0.0554 -0.1590 -0.8105
   26MOL0     O 3399   3.401  10.597   0.890 -0.7973 -0.2820  0.3542
   26MOL0     C 3400   3.269  10.545   0.909  0.0540 -0.1080  0.4204
   26MOL0     C 3401   3.204  10.579   1.023 -0.9300 -0.3781 -0.7302
   26MOL0     C 3402   3.081  10.531   1.070 -0.1165 -0.4845 -0.5836
   26MOL0     C 3403   3.034  10.571   1.219 -0.6117  0.4094 -0.0396
   26MOL0     C 3404   3.010  10.439   0.985 -0.0574 -0.1442  0.2759
   26MOL0     C 3405   2.881  10.369   1.009  0.0472 -0.2554  0.5129
   26MOL0     O 3406   2.847  10.266   0.923  0.0882 -0.3552 -0.4708
   26MOL0     C 3407   2.755  10.165   0.968  0.1222  0.0808  0.0793
   26MOL0     C 3408   2.727  10.070   0.872 -0.3311  0.0288 -0.5067
   26MOL0     C 3409   2.632   9.965   0.905  0.0508 -0.2981 -0.9891
   26MOL0     C 3410   2.563   9.952   1.022 -0.5915 -0.0159  0.0372
   26MOL0     O 3411   2.467   9.849   1.038 -0.1196  0.0013 -0.1349
   26MOL0     C 3412   2.373   9.832   0.933  0.8311  0.3262  0.1120
   26MOL0     C 3413   2.408   9.741   0.814 -0.3557  0.6602  0.8692
   26MOL0     C 3414   2.494   9.628   0.847 -0.7142  0.4294 -0.9335
   26MOL0     C 3415   2.414   9.502   0.899 -0.3808 -0.7942 -0.3974
   26MOL0     C 3416   2.502   9.397   0.966 -0.3041  0.2082 -0.5431
   26MOL0     C 3417   2.609   9.342   0.866  0.7853  0.0959  0.3741
   26MOL0     C 3418   2.716   9.269   0.944 -0.2743  0.2992  0.3078
   26MOL0     C 3419   2.864   9.300   0.912 -0.6175 -0.0810 -0.4334
   26MOL0    Cl 3420   2.892   9.308   0.735  0.1485  0.3539  0.1392
   26MOL0     C 3421   2.597  10.045   1.122 -0.5326  0.5127 -0.0028
   26MOL0     C 3422   2.698  10.142   1.100 -0.5567 -0.2182 -0.5414
   26MOL0     O 3423   2.814  10.410   1.105 -0.7090  0.5131 -0.0823
   26MOL0     C 3424   3.073  10.407   0.857  0.1009 -0.2697 -0.2129
   26MOL0     C 3425   3.205  10.452   0.823 -0.1854  0.0501  0.0067
   26MOL0     N 3426   3.465  10.662   0.153  0.3028 -0.2656 -0.4789
   26MOL0     N 3427   3.549  10.610   0.067 -0.4630  0.4471 -0.0139
   26MOL0     C 3428   4.804  10.407   0.244  0.2787 -0.0074  0.8271
   26MOL0     C 3429   4.942  10.378   0.226  0.2243 -0.0073  0.9306
   26MOL0     C 3430   5.369  10.359   0.317  0.3985  0.0266  0.1608
   26MOL0     C 3431   5.436  10.374   0.195  0.1789  0.3301  1.3359
   26MOL0     C 3432   5.572  10.350   0.192  0.1227  0.3431 -0.4034
   26MOL0     C 3433   5.646  10.298   0.297  0.2007 -0.0330 -0.3311
   26MOL0     O 3434   5.775  10.279   0.274  0.3910 -0.2642  0.2144
   26MOL0     C 3435   5.860  10.217   0.372  0.5930 -0.2070  0.3455
   26MOL0     C 3436   6.007  10.225   0.333 -0.5809  0.0786 -0.8658
   26MOL0     C 3437   6.041  10.144   0.203  0.8866  0.5054  0.3335
   26MOL0     C 3438   6.188  10.177   0.162  0.0107  0.0595  0.1577
   26MOL0     C 3439   6.280  10.132   0.270  0.0197  0.1678  0.1657
   26MOL0     C 3440   6.362  10.079   0.341 -0.0885 -0.4337  0.2546
   26MOL0     C 3441   5.574  10.280   0.417  0.0302 -0.1317 -1.2537
   26MOL0     C 3442   5.438  10.317   0.427 -0.3071  0.2682  0.0945
   26MOL0     H 3443   5.062  10.687   0.232 -0.8757  0.6325  0.2575
   26MOL0     H 3444   4.826  10.750   0.242  0.6538  0.8750  2.9063
   26MOL0     H 3445   4.589  10.406   0.366  2.2999  1.2826  0.9342
   26MOL0     H 3446   4.550  10.541   0.456 -0.2751  2.7145 -0.3728
   26MOL0     H 3447   4.326  10.514   0.384  0.8588  2.9038  0.6789
   26MOL0     H 3448   4.373  10.636   0.283 -0.0164  0.2722  1.4452
   26MOL0     H 3449   4.376  10.479   0.084  0.5052 -0.4502 -0.9466
   26MOL0     H 3450   4.377  10.342   0.200 -0.7294  0.0616 -0.2320
   26MOL0     H 3451   4.159  10.369   0.250 -0.5113  0.8632  0.3021
   26MOL0     H 3452   4.159  10.541   0.212  0.5447  0.2900 -0.0892
   26MOL0     H 3453   4.136  10.523  -0.021 -0.4506  0.3988 -0.7773
   26MOL0     H 3454   4.185  10.360  -0.019 -0.8669  0.2179 -0.3163
   26MOL0     H 3455   3.973  10.347  -0.063  1.6904 -1.2323 -0.8560
   26MOL0     H 3456   3.972  10.297   0.116 -0.0857  0.2594 -0.0534
   26MOL0     H 3457   3.885  10.485   0.198  0.3440  1.7045 -0.1213
   26MOL0     H 3458   3.899  10.584   0.049  0.6079 -0.5797 -1.8833
   26MOL0     H 3459   3.710  10.334   0.086  0.5490 -0.8405 -0.5577
   26MOL0     H 3460   3.713  10.448  -0.048  0.2364 -0.6109 -0.3409
   26MOL0     H 3461   3.656  10.463   0.338  0.5367 -0.0614  0.4068
   26MOL0     H 3462   3.444  10.756   0.407 -0.8871  0.1130 -1.9380
   26MOL0     H 3463   3.332  10.617   0.390 -0.1231  0.9694 -3.6092
   26MOL0     H 3464   3.594  10.584   0.542 -0.0408 -0.4732  0.1426
   26MOL0     H 3465   3.455  10.478   0.531 -0.8272  0.8312  1.4071
   26MOL0     H 3466   3.317  10.634   0.642  0.5062  1.5656 -2.2455
   26MOL0     H 3467   3.454  10.752   0.663  0.0821  1.1166 -0.0575
   26MOL0     H 3468   3.577  10.574   0.788  0.4083 -3.2428  2.1784
   26MOL0     H 3469   3.468  10.443   0.760  0.6786 -0.8736  3.6618
   26MOL0     H 3470   3.271  10.623   1.096 -1.8621  0.9391 -0.6308
   26MOL0     H 3471   3.112  10.635   1.261 -1.0001 -0.5708  2.3697
   26MOL0     H 3472   2.947  10.636   1.210 -0.0862  1.2464  0.7098
   26MOL0     H 3473   3.019  10.480   1.278  3.1573 -1.6791 -1.9144
   26MOL0     H 3474   2.768  10.084   0.773 -0.6307  0.5386 -0.5600
   26MOL0     H 3475   2.603   9.887   0.835  3.4726 -0.1938 -2.7148
   26MOL0     H 3476   2.290   9.788   0.990 -0.5871  3.4188  0.6453
   26MOL0     H 3477   2.338   9.931   0.901  0.0551 -0.0233 -0.1580
   26MOL0     H 3478   2.323   9.685   0.773  1.6951 -1.4676 -0.7921
   26MOL0     H 3479   2.455   9.799   0.734 -1.4892 -2.0501 -1.9847
   26MOL0     H 3480   2.564   9.664   0.922 -1.1296 -1.7178  0.5748
   26MOL0     H 3481   2.560   9.607   0.763 -0.8352 -3.4876 -0.2474
   26MOL0     H 3482   2.334   9.523   0.970 -1.2958 -0.1455 -1.5961
   26MOL0     H 3483   2.372   9.461   0.807  2.8579  0.1581 -2.4584
   26MOL0     H 3484   2.439   9.314   0.999  0.1920 -0.8320 -2.0953
   26MOL0     H 3485   2.555   9.445   1.049  0.8989  2.9319 -2.7214
   26MOL0     H 3486   2.561   9.280   0.789 -1.0122 -1.2404  2.4451
   26MOL0     H 3487   2.661   9.430   0.827  0.1387 -0.3085 -1.5090
   26MOL0     H 3488   2.703   9.165   0.911 -1.2831 -0.1561  2.0307
   26MOL0     H 3489   2.701   9.267   1.052 -0.1438 -1.2169  0.3267
   26MOL0     H 3490   2.930   9.225   0.955  0.2628  0.0487 -1.5243
   26MOL0     H 3491   2.894   9.394   0.957  2.6558 -0.2571 -1.9668
   26MOL0     H 3492   2.546  10.034   1.217 -1.1846 -0.0778 -0.4128
   26MOL0     H 3493   2.721  10.198   1.190 -1.0622 -1.6536  0.5084
   26MOL0     H 3494   3.025  10.342   0.785  1.4723  0.8423 -2.2150
   26MOL0     H 3495   3.259  10.419   0.734  0.4565 -1.2441  0.8345
   26MOL0     H 3496   4.731  10.329   0.261 -1.5374  0.8122 -2.3600
   26MOL0     H 3497   4.976  10.277   0.205  1.1099  0.8022 -1.9666
   26MOL0     H 3498   5.379  10.404   0.107 -3.0987 -2.7770  2.1550
   26MOL0     H 3499   5.620  10.365   0.096  0.5749 -0.6872 -0.3539
   26MOL0     H 3500   5.843  10.248   0.476 -2.4789 -0.3137 -0.0131
   26MOL0     H 3501   5.833  10.111   0.382  0.7083 -0.2216  0.5207
   26MOL0     H 3502   6.071  10.189   0.414  3.4140  0.9571 -3.3788
   26MOL0     H 3503   6.040  10.328   0.325  2.4739 -0.7976 -0.6261
   26MOL0     H 3504   5.964  10.182   0.135  0.6993  3.1340  1.8543
   26MOL0     H 3505   6.028  10.036   0.213  1.5147  0.1861 -1.9291
   26MOL0     H 3506   6.214  10.282   0.147  0.3645  0.0080  0.3707
   26MOL0     H 3507   6.214  10.108   0.081 -0.7487  1.1279 -1.0251
   26MOL0     H 3508   6.431  10.024   0.401  2.3714 -0.9429 -2.8063
   26MOL0     H 3509   5.629  10.248   0.505 -0.9056 -2.4136 -1.4250
   26MOL0     H 3510   5.384  10.315   0.521 -2.5783  2.9218 -0.9930
   27MOL0     O 3511   3.771   1.050   6.245  0.5696 -0.0372  0.0495
   27MOL0     C 3512   3.838   0.955   6.208 -0.6498  0.1923  0.5768
   27MOL0     O 3513   3.799   0.824   6.193  0.2547  0.3917  0.2991
   27MOL0     C 3514   3.672   0.786   6.231 -0.5203  0.1737 -0.1248
   27MOL0     C 3515   3.573   0.824   6.142 -0.2171  0.7462  0.4109
   27MOL0     C 3516   3.438   0.779   6.167  0.0713 -0.9076 -0.8542
   27MOL0     C 3517   3.408   0.709   6.285  0.4975  0.2701  0.5964
   27MOL0     O 3518   3.278   0.677   6.312 -0.4416 -0.7315 -0.5321
   27MOL0     C 3519   3.243   0.574   6.414 -0.5208  0.1801 -0.0804
   27MOL0     C 3520   3.107   0.516   6.390  1.1231 -0.1477  0.1864
   27MOL0     C 3521   3.013   0.638   6.401 -0.0118  0.7173 -0.4097
   27MOL0     C 3522   2.872   0.567   6.399 -0.3855  0.4379  0.6249
   27MOL0     C 3523   2.766   0.674   6.433 -0.4332 -0.2784 -0.9758
   27MOL0     C 3524   2.626   0.624   6.406  0.1281  0.7056  0.6432
   27MOL0     C 3525   2.521   0.715   6.470 -0.3519 -0.0024  0.0679
   27MOL0     C 3526   2.518   0.724   6.622  0.5928 -0.5015  1.4979
   27MOL0     N 3527   2.390   0.793   6.645  0.0137 -0.0185 -0.3717
   27MOL0     C 3528   2.270   0.727   6.681 -0.0365 -0.2006  0.1002
   27MOL0     C 3529   2.193   0.823   6.725  0.3248  0.0079 -1.0164
   27MOL0     C 3530   2.050   0.815   6.779  0.5720  0.9028 -0.2703
   27MOL0     C 3531   1.949   0.848   6.666  0.0908 -0.3366  0.9272
   27MOL0     C 3532   1.805   0.808   6.708 -0.3502  0.5218 -0.8508
   27MOL0     C 3533   1.717   0.772   6.583  0.4768 -0.1949 -0.1868
   27MOL0     O 3534   1.580   0.808   6.612  0.1371  0.0314  0.4440
   27MOL0     C 3535   1.518   0.739   6.715 -0.3015  0.1480  0.6852
   27MOL0     C 3536   1.562   0.612   6.769 -0.0141 -0.5721 -0.2635
   27MOL0     C 3537   1.485   0.541   6.874 -0.5116 -0.2429 -0.2360
   27MOL0     C 3538   1.547   0.404   6.919  1.1555 -0.2790  0.1695
   27MOL0     C 3539   1.361   0.592   6.916  0.0031 -0.9307 -0.6233
   27MOL0     C 3540   1.267   0.537   7.009 -0.0209 -0.9249 -0.4582
   27MOL0     O 3541   1.148   0.586   7.006  0.2687 -0.1218  0.0982
   27MOL0     C 3542   1.043   0.538   7.081 -0.4583  1.3236  0.4195
   27MOL0     C 3543   0.947   0.620   7.142  0.1152 -1.2285  0.7950
   27MOL0     C 3544   0.835   0.572   7.208  0.6432 -0.1220  0.2037
   27MOL0     C 3545   0.817   0.434   7.218  0.2383  0.0183 -0.5876
   27MOL0     O 3546   0.698   0.385   7.266 -0.1318  0.2323 -0.3049
   27MOL0     C 3547   0.581   0.435   7.196 -0.3347 -0.2592  0.7700
   27MOL0     C 3548   0.459   0.368   7.224 -0.2487  0.1119 -0.1032
   27MOL0     C 3549   0.411   0.378   7.374 -0.2742 -0.0695  0.1588
   27MOL0     C 3550   0.263   0.349   7.411  0.6553 -0.4356  0.1943
   27MOL0     C 3551   0.256   0.364   7.558 -0.3049 -0.5009 -0.8681
   27MOL0     C 3552   0.126   0.309   7.610  0.1183 -0.4785 -0.0567
   27MOL0     C 3553   0.123   0.157   7.603 -0.1066  0.1717  0.4637
   27MOL0     C 3554  -0.010   0.080   7.646 -0.3476  0.0884 -0.2709
   27MOL0    Cl 3555  -0.062   0.130   7.816  0.4337 -0.4788  0.1272
   27MOL0     C 3556   0.910   0.344   7.167  0.5873  0.0826 -0.2339
   27MOL0     C 3557   1.026   0.396   7.093  0.2997  0.9443 -0.5717
   27MOL0     O 3558   1.311   0.459   7.092 -0.0692 -0.1959  0.4687
   27MOL0     C 3559   1.326   0.712   6.854 -0.1683 -1.1329 -0.3804
   27MOL0     C 3560   1.402   0.791   6.760  0.2901  0.2002 -0.2497
   27MOL0     N 3561   2.270   0.942   6.720  0.6408  0.4494  0.4150
   27MOL0     N 3562   2.384   0.929   6.669 -0.5599 -0.2838  1.3813
   27MOL0     C 3563   3.517   0.681   6.367 -0.1984  0.7907 -0.5632
   27MOL0     C 3564   3.651   0.716   6.344 -0.2136  1.3120 -0.0256
   27MOL0     C 3565   3.979   0.985   6.171  0.8738 -0.4199 -0.8054
   27MOL0     C 3566   4.053   0.909   6.088  0.6547  0.2996 -0.0592
   27MOL0     C 3567   4.190   0.936   6.064 -0.5970  0.1413  0.6863
   27MOL0     C 3568   4.262   1.044   6.126  1.0474 -0.1503  0.4457
   27MOL0     O 3569   4.395   1.079   6.105 -0.7776  0.0418 -0.0890
   27MOL0     C 3570   4.464   1.025   5.994  0.2756  0.3906 -0.4968
   27MOL0     C 3571   4.606   1.083   5.990  0.0694 -0.4335 -0.7936
   27MOL0     C 3572   4.684   1.040   5.869 -0.9049  0.2288  0.6614
   27MOL0     C 3573   4.716   0.885   5.871  0.3625  0.5828  0.0451
   27MOL0     C 3574   4.843   0.868   5.791  0.3711  0.4204  0.4936
   27MOL0     C 3575   4.940   0.828   5.719  0.1829  0.1650 -0.7710
   27MOL0     C 3576   4.183   1.122   6.221  1.1164  0.3420 -1.0287
   27MOL0     C 3577   4.049   1.094   6.239  0.7535 -0.2310  0.0552
   27MOL0     H 3578   3.604   0.886   6.059  3.1357  1.1758  1.8066
   27MOL0     H 3579   3.358   0.815   6.102 -1.5212 -2.0242  0.3813
   27MOL0     H 3580   3.314   0.491   6.403  0.2145  0.2455  3.1939
   27MOL0     H 3581   3.241   0.619   6.513 -3.9553 -0.8697  0.4673
   27MOL0     H 3582   3.104   0.465   6.293 -0.3761  0.2767 -0.0238
   27MOL0     H 3583   3.082   0.451   6.475 -1.4120  0.2972 -0.1314
   27MOL0     H 3584   3.034   0.681   6.499 -1.0709 -0.4199  0.3402
   27MOL0     H 3585   3.027   0.709   6.318  1.2203 -0.6181 -1.3823
   27MOL0     H 3586   2.854   0.523   6.301  0.0682  0.6402  0.4522
   27MOL0     H 3587   2.867   0.485   6.472 -3.0689  1.0309  1.2287
   27MOL0     H 3588   2.782   0.708   6.536  0.8494 -0.3293 -1.1429
   27MOL0     H 3589   2.779   0.757   6.364  1.6308  0.3335  0.0820
   27MOL0     H 3590   2.605   0.609   6.300 -1.8852 -3.0406  1.3940
   27MOL0     H 3591   2.617   0.527   6.456 -2.0602 -0.5367 -1.8817
   27MOL0     H 3592   2.527   0.817   6.432 -4.0000  0.1668 -0.4382
   27MOL0     H 3593   2.422   0.681   6.438  0.4545 -1.0416 -1.4459
   27MOL0     H 3594   2.605   0.781   6.655 -0.1592  3.4065 -2.3548
   27MOL0     H 3595   2.524   0.630   6.678 -0.4157  0.1052  2.6717
   27MOL0     H 3596   2.248   0.621   6.682  3.0227 -0.9251  1.0279
   27MOL0     H 3597   2.034   0.710   6.802  0.7532  0.6944 -1.0536
   27MOL0     H 3598   2.042   0.884   6.864  2.4066 -1.3620  1.8747
   27MOL0     H 3599   1.977   0.808   6.569 -0.1855  0.4447  0.5150
   27MOL0     H 3600   1.943   0.953   6.638 -2.8739 -1.0387 -1.5801
   27MOL0     H 3601   1.763   0.898   6.754  1.6619  1.0488  0.0660
   27MOL0     H 3602   1.808   0.731   6.786  0.5196  1.3529 -0.0261
   27MOL0     H 3603   1.743   0.670   6.554  0.0657 -0.3650  0.0362
   27MOL0     H 3604   1.757   0.828   6.498  1.2958 -0.4745  0.0010
   27MOL0     H 3605   1.653   0.569   6.729 -0.7175  1.4960 -4.7347
   27MOL0     H 3606   1.557   0.392   7.027  2.1351 -1.7994 -0.0583
   27MOL0     H 3607   1.472   0.334   6.879 -0.0654  1.3918 -0.5900
   27MOL0     H 3608   1.641   0.392   6.865  0.4921  0.0301 -1.1072
   27MOL0     H 3609   0.957   0.727   7.127  0.4891 -1.6768 -3.3388
   27MOL0     H 3610   0.761   0.634   7.258 -0.5123  0.2860 -1.9176
   27MOL0     H 3611   0.570   0.541   7.220  0.6662  0.4600 -1.5998
   27MOL0     H 3612   0.601   0.435   7.088 -2.6869 -0.2288  0.2718
   27MOL0     H 3613   0.378   0.411   7.163 -0.5153 -1.5615 -0.9896
   27MOL0     H 3614   0.464   0.263   7.195 -4.1541 -0.1379 -0.4818
   27MOL0     H 3615   0.430   0.481   7.407 -2.5626 -0.2080  2.1730
   27MOL0     H 3616   0.482   0.311   7.425 -2.0474 -2.8477 -0.7848
   27MOL0     H 3617   0.185   0.411   7.367  0.5320 -0.5215  0.2926
   27MOL0     H 3618   0.241   0.247   7.378 -0.3268 -0.4274  0.8123
   27MOL0     H 3619   0.265   0.467   7.593 -3.2858 -1.5930  3.9620
   27MOL0     H 3620   0.334   0.303   7.605 -0.9558  0.2831  1.3117
   27MOL0     H 3621   0.130   0.338   7.715  4.3870  2.1513 -0.6829
   27MOL0     H 3622   0.043   0.367   7.567  1.7004  1.6406 -0.4303
   27MOL0     H 3623   0.196   0.114   7.673 -0.5483 -0.6399  0.4418
   27MOL0     H 3624   0.151   0.113   7.507  2.0492 -0.5933  1.3767
   27MOL0     H 3625  -0.006  -0.030   7.643 -1.1726  0.0637 -3.3958
   27MOL0     H 3626  -0.081   0.108   7.568 -1.3899  0.5905  0.8212
   27MOL0     H 3627   0.899   0.236   7.166 -0.2511  0.0410 -4.0706
   27MOL0     H 3628   1.096   0.329   7.043  0.3335  0.4864  0.0755
   27MOL0     H 3629   1.230   0.762   6.862  0.4432 -0.0676  0.6561
   27MOL0     H 3630   1.368   0.889   6.728  0.4272  0.1516 -0.5511
   27MOL0     H 3631   3.515   0.617   6.455  1.2493  1.6378  0.1245
   27MOL0     H 3632   3.736   0.687   6.405 -2.2954  0.8264  2.8841
   27MOL0     H 3633   4.007   0.819   6.049 -1.0289  0.9412  0.3468
   27MOL0     H 3634   4.250   0.876   5.995 -1.1525  0.2136  0.1323
   27MOL0     H 3635   4.476   0.917   5.986 -1.3845 -0.4410  4.5886
   27MOL0     H 3636   4.418   1.049   5.897 -0.1693 -3.2776 -1.3176
   27MOL0     H 3637   4.658   1.056   6.083 -1.9195  1.6473  1.0436
   27MOL0     H 3638   4.606   1.192   5.990 -0.0682 -0.4272 -0.1493
   27MOL0     H 3639   4.770   1.106   5.860  0.4071 -1.4244  0.4661
   27MOL0     H 3640   4.626   1.047   5.777  0.1628 -1.0794 -0.1549
   27MOL0     H 3641   4.636   0.834   5.818 -0.5322 -0.7659  2.5380
   27MOL0     H 3642   4.706   0.840   5.971  0.2247 -4.8638 -2.1037
   27MOL0     H 3643   5.037   0.798   5.686 -0.0962  1.8248 -3.4385
   27MOL0     H 3644   4.221   1.209   6.275 -3.0644  1.0413  1.2395
   27MOL0     H 3645   3.995   1.147   6.317  3.3950  1.5446  0.8209
   28MOL0     O 3646   3.809   0.490   1.507 -0.0210 -0.4000 -0.7439
   28MOL0     C 3647   3.853   0.449   1.618 -0.2417  0.3495  0.1442
   28MOL0     O 3648   3.784   0.445   1.739  0.3635 -0.3326 -0.1792
   28MOL0     C 3649   3.652   0.470   1.734  0.6299  0.1056  0.2915
   28MOL0     C 3650   3.592   0.580   1.674 -0.2136  0.6167  0.1505
   28MOL0     C 3651   3.453   0.586   1.664 -0.7832 -0.7448  0.1736
   28MOL0     C 3652   3.376   0.483   1.721  0.4130 -1.1147 -1.5668
   28MOL0     O 3653   3.236   0.487   1.709  0.1320  0.0598 -0.1645
   28MOL0     C 3654   3.194   0.436   1.584 -0.8148  0.4205 -0.8582
   28MOL0     C 3655   3.050   0.376   1.603 -0.4673  0.1346  0.0067
   28MOL0     C 3656   2.951   0.494   1.606  0.1355  0.3858 -0.1306
   28MOL0     C 3657   2.815   0.436   1.664 -0.5390 -0.5468  0.6732
   28MOL0     C 3658   2.743   0.357   1.559 -0.5002 -0.5061 -0.0780
   28MOL0     C 3659   2.609   0.321   1.610 -0.1402  0.4199  0.1520
   28MOL0     C 3660   2.535   0.239   1.495 -0.1198 -1.4666  0.1493
   28MOL0     C 3661   2.418   0.165   1.556  1.3521  0.2802 -0.2948
   28MOL0     N 3662   2.324   0.117   1.453  0.2167  0.0826 -0.1228
   28MOL0     C 3663   2.222   0.023   1.487  0.0268  0.1196  0.2526
   28MOL0     C 3664   2.137   0.033   1.386  0.8829  0.0742 -0.1128
   28MOL0     C 3665   1.999  -0.034   1.365 -0.2953 -0.3709 -0.8992
   28MOL0     C 3666   1.885   0.047   1.424  0.7494  0.1470 -0.4988
   28MOL0     C 3667   1.760   0.029   1.332 -0.5074  1.7033  0.1253
   28MOL0     C 3668   1.646   0.090   1.407 -0.2963 -0.1205  0.4392
   28MOL0     O 3669   1.614   0.017   1.521  0.3811 -0.2011 -0.3239
   28MOL0     C 3670   1.486   0.010   1.572  0.2982  0.3975  0.4873
   28MOL0     C 3671   1.469  -0.042   1.699 -0.3437  0.8442  0.3174
   28MOL0     C 3672   1.347  -0.056   1.766  0.3266 -0.1841 -0.3504
   28MOL0     C 3673   1.355  -0.132   1.893 -0.1723  0.1856  0.4517
   28MOL0     C 3674   1.228  -0.005   1.708  0.0589  0.6718  0.9251
   28MOL0     C 3675   1.083  -0.016   1.748 -0.8010  0.8217  0.0996
   28MOL0     O 3676   0.984   0.030   1.671 -0.3253  0.0030  0.9468
   28MOL0     C 3677   0.857   0.025   1.713  0.0616  0.1286  0.7410
   28MOL0     C 3678   0.789   0.140   1.738  0.1202 -1.2439 -0.5951
   28MOL0     C 3679   0.656   0.147   1.778  0.1332  0.3295 -0.0321
   28MOL0     C 3680   0.581   0.022   1.795  0.6087  0.7389  0.4293
   28MOL0     O 3681   0.448   0.015   1.839 -0.4572 -0.5077 -0.0147
   28MOL0     C 3682   0.375   0.140   1.838 -0.5600  0.2285 -0.1741
   28MOL0     C 3683   0.229   0.129   1.872  0.2542 -0.5395  0.2673
   28MOL0     C 3684   0.167   0.006   1.789 -0.7255 -0.1986  0.1302
   28MOL0     C 3685   0.015   0.019   1.796  0.3691  0.1902 -0.0382
   28MOL0     C 3686  -0.040  -0.098   1.716  0.1406 -0.3484 -1.3052
   28MOL0     C 3687  -0.190  -0.091   1.707  0.6615 -0.5005  0.6117
   28MOL0     C 3688  -0.243  -0.173   1.590  0.1565  0.7564 -0.0718
   28MOL0     C 3689  -0.396  -0.179   1.603 -0.8091 -0.4876  0.1673
   28MOL0    Cl 3690  -0.478  -0.259   1.467  0.1382 -0.3684 -0.2597
   28MOL0     C 3691   0.648  -0.097   1.755  0.3973  0.0089 -0.8615
   28MOL0     C 3692   0.781  -0.098   1.719  0.0636 -1.3043 -0.7134
   28MOL0     O 3693   1.067  -0.063   1.859 -0.2373 -0.4584 -0.2526
   28MOL0     C 3694   1.248   0.056   1.582 -0.7410 -0.5537 -0.2637
   28MOL0     C 3695   1.372   0.070   1.509  0.0645 -0.4057 -0.4908
   28MOL0     N 3696   2.183   0.131   1.301  0.3213  0.7093  0.2308
   28MOL0     N 3697   2.288   0.187   1.342 -0.4139 -0.5814 -0.5653
   28MOL0     C 3698   3.437   0.377   1.791  0.4602 -0.2322  0.2485
   28MOL0     C 3699   3.575   0.373   1.791  0.7575 -0.0803  0.1150
   28MOL0     C 3700   3.997   0.406   1.627  0.4444  0.0316  0.2299
   28MOL0     C 3701   4.071   0.381   1.511 -0.1792 -0.5689  0.2535
   28MOL0     C 3702   4.204   0.337   1.513 -0.2756 -0.0002  0.4088
   28MOL0     C 3703   4.263   0.306   1.637 -1.2157  0.1348 -0.6703
   28MOL0     O 3704   4.392   0.249   1.652 -0.1432 -0.7200 -0.5737
   28MOL0     C 3705   4.470   0.247   1.774  0.0588  0.5972  0.0787
   28MOL0     C 3706   4.456   0.117   1.857  0.3325 -0.2592 -0.4337
   28MOL0     C 3707   4.574   0.104   1.954  0.9617  0.2808  0.2528
   28MOL0     C 3708   4.723   0.131   1.918  0.1332 -0.0734  0.8345
   28MOL0     C 3709   4.818   0.124   2.026 -0.1521 -0.0662  0.0911
   28MOL0     C 3710   4.906   0.121   2.111 -0.2600 -0.0939  0.0422
   28MOL0     C 3711   4.191   0.338   1.761 -0.2180 -0.5789  0.6061
   28MOL0     C 3712   4.063   0.377   1.751  0.0352 -0.4167  0.6937
   28MOL0     H 3713   3.641   0.661   1.621  4.3249 -1.7775  0.2182
   28MOL0     H 3714   3.408   0.668   1.610  1.2894  0.4501  0.1253
   28MOL0     H 3715   3.195   0.516   1.509  1.1283 -0.4123 -1.8019
   28MOL0     H 3716   3.255   0.354   1.546 -0.9417 -0.6079  1.0229
   28MOL0     H 3717   3.022   0.312   1.519 -0.4165  2.4578 -1.8938
   28MOL0     H 3718   3.044   0.313   1.692 -0.8593  0.3738  0.1505
   28MOL0     H 3719   2.980   0.577   1.672 -1.9565 -0.6682  2.2689
   28MOL0     H 3720   2.938   0.545   1.510  0.1715 -3.0576 -2.0927
   28MOL0     H 3721   2.835   0.379   1.756  3.1948  1.0606  1.0610
   28MOL0     H 3722   2.760   0.528   1.684 -1.6094 -1.3781  1.6778
   28MOL0     H 3723   2.728   0.416   1.468  0.2911  0.4981  0.4192
   28MOL0     H 3724   2.793   0.264   1.533  1.4378 -0.2455  2.3592
   28MOL0     H 3725   2.629   0.253   1.694  2.7496  2.8791  1.6277
   28MOL0     H 3726   2.555   0.410   1.642  0.3368  2.1011 -3.2706
   28MOL0     H 3727   2.505   0.316   1.424 -1.1859  0.3388  2.4241
   28MOL0     H 3728   2.596   0.164   1.445 -1.2027 -1.9044 -0.5586
   28MOL0     H 3729   2.358   0.221   1.628 -2.0822 -1.3564 -1.6402
   28MOL0     H 3730   2.462   0.077   1.603 -1.8279 -0.6033  1.2934
   28MOL0     H 3731   2.202  -0.035   1.576 -1.5704  1.3686  0.7641
   28MOL0     H 3732   1.980  -0.066   1.262  1.8172  1.0593 -1.8074
   28MOL0     H 3733   2.014  -0.126   1.421  1.0730  0.4752  0.2046
   28MOL0     H 3734   1.910   0.152   1.407 -0.2681  0.4736 -0.0804
   28MOL0     H 3735   1.863   0.019   1.527 -1.0608  0.0060 -0.8778
   28MOL0     H 3736   1.751  -0.079   1.314  2.1973  0.5523  4.1190
   28MOL0     H 3737   1.770   0.083   1.237 -1.9933  0.3969 -0.8212
   28MOL0     H 3738   1.571   0.110   1.330  0.8090  0.4839 -0.5171
   28MOL0     H 3739   1.685   0.187   1.440 -3.0342  0.9804  0.6978
   28MOL0     H 3740   1.557  -0.084   1.748 -0.2745  1.7430  0.9948
   28MOL0     H 3741   1.301  -0.083   1.975 -0.7356  0.1250  0.1214
   28MOL0     H 3742   1.323  -0.237   1.887  2.1501 -0.5532 -0.3963
   28MOL0     H 3743   1.457  -0.150   1.928  0.8424  1.7105 -1.5270
   28MOL0     H 3744   0.847   0.229   1.716  0.8645 -2.2364 -3.0695
   28MOL0     H 3745   0.607   0.243   1.792  0.4554  0.4349  0.3827
   28MOL0     H 3746   0.421   0.215   1.902 -0.1686  3.4190 -3.7992
   28MOL0     H 3747   0.368   0.182   1.737 -0.5540 -2.5721 -1.4473
   28MOL0     H 3748   0.205   0.120   1.978 -0.6349 -1.4388  0.0086
   28MOL0     H 3749   0.182   0.220   1.833  1.1564  1.5173  3.5595
   28MOL0     H 3750   0.196  -0.091   1.832 -0.3653  0.5094  1.5516
   28MOL0     H 3751   0.212   0.009   1.690 -1.4644  2.8139 -0.2056
   28MOL0     H 3752  -0.018   0.025   1.900 -1.2171  0.2867 -0.5223
   28MOL0     H 3753  -0.027   0.108   1.748 -1.9989 -1.0060 -0.3379
   28MOL0     H 3754  -0.013  -0.192   1.765 -3.3040 -0.3438  0.8645
   28MOL0     H 3755   0.008  -0.105   1.617  1.7152  3.8979 -1.0499
   28MOL0     H 3756  -0.226  -0.119   1.806  1.0667  0.5248  1.0652
   28MOL0     H 3757  -0.207   0.016   1.689  2.7446 -0.1173  0.6613
   28MOL0     H 3758  -0.183  -0.264   1.597 -0.1306  0.5674 -0.0920
   28MOL0     H 3759  -0.234  -0.123   1.492 -0.4105 -0.0019 -0.5225
   28MOL0     H 3760  -0.425  -0.074   1.591  2.9872  0.7429  0.2162
   28MOL0     H 3761  -0.432  -0.221   1.697  0.0653 -1.1503  0.2190
   28MOL0     H 3762   0.591  -0.188   1.768  0.4213 -0.0928 -1.4531
   28MOL0     H 3763   0.837  -0.189   1.701  1.1441 -1.5120  2.9500
   28MOL0     H 3764   1.161   0.089   1.525 -0.2337  0.9648 -0.1875
   28MOL0     H 3765   1.377   0.124   1.415  0.4975  1.9629  0.8241
   28MOL0     H 3766   3.375   0.308   1.846  2.7697 -1.7083  1.1614
   28MOL0     H 3767   3.628   0.284   1.823  0.5786 -0.5208 -0.7778
   28MOL0     H 3768   4.029   0.394   1.412  1.9748  0.9196 -0.5417
   28MOL0     H 3769   4.259   0.323   1.421 -0.3488 -2.1209  0.6210
   28MOL0     H 3770   4.575   0.255   1.747 -0.4247 -0.4182 -2.3250
   28MOL0     H 3771   4.453   0.344   1.822  2.8334  3.1670 -3.5980
   28MOL0     H 3772   4.452   0.027   1.795  0.4269  0.8690 -2.1397
   28MOL0     H 3773   4.373   0.137   1.925  2.4592  2.7026  1.5579
   28MOL0     H 3774   4.566   0.007   2.004  0.2758 -0.7339 -1.7151
   28MOL0     H 3775   4.546   0.169   2.037 -0.4508 -0.8235  0.6685
   28MOL0     H 3776   4.734   0.234   1.884 -0.1029 -0.9704 -2.3390
   28MOL0     H 3777   4.743   0.072   1.827 -1.3992  1.9344 -0.9168
   28MOL0     H 3778   4.994   0.112   2.172 -0.2721  1.2466  0.2872
   28MOL0     H 3779   4.239   0.320   1.857 -1.1158  1.2252  1.4374
   28MOL0     H 3780   4.011   0.401   1.844 -1.3561 -1.2218  0.1585
   29MOL0     O 3781   5.371   6.167  10.074 -0.4810  0.0006 -0.1292
   29MOL0     C 3782   5.395   6.226   9.973  0.8256  1.2918 -0.8628
   29MOL0     O 3783   5.294   6.251   9.879  0.1327 -0.9245  0.0403
   29MOL0     C 3784   5.158   6.248   9.911  0.6127  0.1856 -0.7925
   29MOL0     C 3785   5.081   6.292   9.805  0.1121 -0.7456  0.5173
   29MOL0     C 3786   4.943   6.300   9.822  0.4793  0.2043 -0.0206
   29MOL0     C 3787   4.877   6.254   9.931 -0.3876 -0.5081  0.1107
   29MOL0     O 3788   4.742   6.253   9.932 -0.0867 -0.4816 -0.4746
   29MOL0     C 3789   4.678   6.199   9.818 -0.1129  0.8972 -0.0557
   29MOL0     C 3790   4.532   6.179   9.849 -0.4529 -0.0949 -0.2156
   29MOL0     C 3791   4.518   6.043   9.928 -1.1574  0.4381 -0.2585
   29MOL0     C 3792   4.375   6.001   9.954 -0.5974  0.3963  0.1140
   29MOL0     C 3793   4.378   5.862  10.027 -0.2427  0.6801 -0.6177
   29MOL0     C 3794   4.227   5.829  10.060  0.7712 -0.0021 -0.3481
   29MOL0     C 3795   4.204   5.676  10.072 -1.0851  0.0564  0.5732
   29MOL0     C 3796   4.239   5.606   9.945  0.5578  1.1269  0.0845
   29MOL0     N 3797   4.169   5.650   9.829  0.1269 -0.3071 -0.0714
   29MOL0     C 3798   4.028   5.672   9.817  0.4129  0.1496  0.9596
   29MOL0     C 3799   4.000   5.661   9.680  0.6190  0.1367 -0.7247
   29MOL0     C 3800   3.865   5.683   9.625 -0.3952 -0.0233 -0.2501
   29MOL0     C 3801   3.835   5.566   9.541 -0.0320  0.5292 -0.1652
   29MOL0     C 3802   3.689   5.584   9.494  0.5943  0.0964 -0.0061
   29MOL0     C 3803   3.626   5.465   9.438 -1.0096  0.3504  0.4575
   29MOL0     O 3804   3.490   5.462   9.441  0.6284  0.3548 -0.0032
   29MOL0     C 3805   3.416   5.435   9.328  0.1320  0.0386 -0.2949
   29MOL0     C 3806   3.371   5.300   9.305  0.4359 -0.9146 -0.2737
   29MOL0     C 3807   3.304   5.261   9.190 -0.3130  0.4752 -0.1991
   29MOL0     C 3808   3.265   5.121   9.172  0.4290  0.1474  0.5211
   29MOL0     C 3809   3.277   5.364   9.087 -0.5173  0.4603 -0.3245
   29MOL0     C 3810   3.209   5.340   8.960 -0.2571 -0.6618 -0.0812
   29MOL0     O 3811   3.086   5.274   8.958  0.5963 -0.7202  0.3665
   29MOL0     C 3812   3.052   5.202   8.841 -0.7249 -1.7519  0.3379
   29MOL0     C 3813   2.924   5.225   8.786 -0.5737  0.5841 -0.0100
   29MOL0     C 3814   2.893   5.145   8.671 -0.3690 -0.9176 -0.3990
   29MOL0     C 3815   2.982   5.054   8.612  0.6619  0.2010 -0.4454
   29MOL0     O 3816   2.952   4.962   8.515 -0.1335 -0.5697 -0.3597
   29MOL0     C 3817   2.813   4.934   8.495 -0.2948  0.2939  0.0704
   29MOL0     C 3818   2.738   5.020   8.400  0.1517  0.1136 -0.7453
   29MOL0     C 3819   2.596   4.962   8.388 -1.3897  0.3661 -0.3356
   29MOL0     C 3820   2.500   5.054   8.318 -0.0582 -1.0069  0.3854
   29MOL0     C 3821   2.364   4.996   8.311  1.5602  0.0086  0.3728
   29MOL0     C 3822   2.277   5.055   8.199 -0.1170 -0.8328 -0.9235
   29MOL0     C 3823   2.325   5.004   8.064 -0.4934 -0.4645  0.0704
   29MOL0     C 3824   2.245   5.074   7.959 -0.2155 -1.1266  0.4926
   29MOL0    Cl 3825   2.087   5.000   7.963  0.3585  0.6145 -0.2140
   29MOL0     C 3826   3.098   5.037   8.668 -0.2790 -0.3293  0.6055
   29MOL0     C 3827   3.136   5.103   8.786  0.3212 -0.6549  0.9104
   29MOL0     O 3828   3.266   5.385   8.860 -0.2574  0.4815  0.0996
   29MOL0     C 3829   3.329   5.489   9.110 -0.5367 -0.1847 -0.4196
   29MOL0     C 3830   3.399   5.523   9.228  0.4164 -0.3688  0.6173
   29MOL0     N 3831   4.119   5.626   9.618  0.7040  0.1635  0.5513
   29MOL0     N 3832   4.217   5.632   9.701 -0.4225 -0.1675 -0.5881
   29MOL0     C 3833   4.954   6.209  10.043 -0.8848  0.2371 -0.1325
   29MOL0     C 3834   5.095   6.202  10.032 -0.2517 -0.0593 -0.0718
   29MOL0     C 3835   5.528   6.277   9.957  0.0690  0.1023 -0.2225
   29MOL0     C 3836   5.621   6.273  10.063 -0.5936 -0.5178  0.1646
   29MOL0     C 3837   5.739   6.338  10.056 -0.2637 -0.1560 -0.5101
   29MOL0     C 3838   5.775   6.413   9.941 -0.6685  0.5597 -0.3448
   29MOL0     O 3839   5.883   6.497   9.933  0.2427 -0.6757 -0.1165
   29MOL0     C 3840   5.979   6.505  10.032 -0.6212 -0.2819  0.3215
   29MOL0     C 3841   6.085   6.601   9.970  0.6707 -0.2399 -0.4203
   29MOL0     C 3842   6.182   6.539   9.871 -0.6085  0.9907  0.4134
   29MOL0     C 3843   6.112   6.441   9.775  1.4570 -0.7782 -0.6391
   29MOL0     C 3844   6.197   6.402   9.672 -0.2288 -0.0389  0.5449
   29MOL0     C 3845   6.270   6.385   9.574  0.0146  0.5037  0.0072
   29MOL0     C 3846   5.684   6.420   9.830  0.6628 -0.2368  0.2923
   29MOL0     C 3847   5.563   6.353   9.840  1.1045  0.4541  0.6321
   29MOL0     H 3848   5.138   6.316   9.716  1.2994  1.2311  1.7382
   29MOL0     H 3849   4.891   6.339   9.735  0.8319  0.4841 -0.1116
   29MOL0     H 3850   4.689   6.258   9.727 -1.6823  0.0664 -0.8278
   29MOL0     H 3851   4.727   6.103   9.804 -0.9377  0.2938  1.0543
   29MOL0     H 3852   4.497   6.265   9.907  0.7487  1.2900 -1.4530
   29MOL0     H 3853   4.453   6.177   9.773 -2.3638 -0.4052  1.6807
   29MOL0     H 3854   4.561   5.964   9.866 -0.1937 -0.2371  1.2156
   29MOL0     H 3855   4.581   6.055  10.017  1.7500 -1.0322 -1.9510
   29MOL0     H 3856   4.327   6.073  10.021  2.6668  1.1400  1.8483
   29MOL0     H 3857   4.327   6.000   9.856  0.9098  0.8855 -0.6545
   29MOL0     H 3858   4.430   5.794   9.959  1.8198  0.1236  1.3488
   29MOL0     H 3859   4.433   5.869  10.122 -0.1807 -1.0544 -0.4875
   29MOL0     H 3860   4.183   5.883  10.144  2.1256  0.5100  0.0562
   29MOL0     H 3861   4.171   5.874   9.977  1.9113  0.3862 -0.9277
   29MOL0     H 3862   4.265   5.632  10.152 -1.2811 -2.0297 -0.3636
   29MOL0     H 3863   4.103   5.661  10.112 -1.2169  1.8265  0.9870
   29MOL0     H 3864   4.214   5.501   9.962  0.0033  0.6555 -3.0587
   29MOL0     H 3865   4.345   5.608   9.920  1.6769 -0.3023  3.9436
   29MOL0     H 3866   3.951   5.692   9.890 -1.7256  2.3538 -1.6819
   29MOL0     H 3867   3.801   5.687   9.713  1.1610  1.1116  0.9031
   29MOL0     H 3868   3.864   5.776   9.568 -1.1325  0.2631  0.2108
   29MOL0     H 3869   3.840   5.468   9.589 -0.0561  0.1884 -0.8410
   29MOL0     H 3870   3.905   5.569   9.457 -0.5976  1.2867 -0.6278
   29MOL0     H 3871   3.690   5.666   9.421  1.2211 -1.5074 -1.8926
   29MOL0     H 3872   3.625   5.619   9.576 -1.0568  0.9192 -1.5729
   29MOL0     H 3873   3.666   5.381   9.496 -0.1661  1.4970  1.6135
   29MOL0     H 3874   3.667   5.459   9.337  0.4047  0.9751  0.9622
   29MOL0     H 3875   3.399   5.230   9.384  1.9833 -0.4654 -0.3947
   29MOL0     H 3876   3.172   5.121   9.115  1.1926 -0.5016 -0.7710
   29MOL0     H 3877   3.346   5.071   9.117  1.7962  3.1172 -0.3936
   29MOL0     H 3878   3.263   5.076   9.271  0.4022  1.3306  1.0792
   29MOL0     H 3879   2.860   5.284   8.851  1.6524  1.7329  1.2582
   29MOL0     H 3880   2.795   5.171   8.633 -0.4104  0.5286  0.6208
   29MOL0     H 3881   2.811   4.834   8.450  1.5134  1.0953 -1.9597
   29MOL0     H 3882   2.755   4.943   8.588  0.4147  0.1756  0.5323
   29MOL0     H 3883   2.734   5.124   8.434  0.7637  0.0865 -0.5676
   29MOL0     H 3884   2.782   5.023   8.300  0.3395  0.4474 -0.6569
   29MOL0     H 3885   2.561   4.948   8.491  4.4186  1.3016  2.1937
   29MOL0     H 3886   2.608   4.867   8.334 -1.2435  1.5072 -2.4299
   29MOL0     H 3887   2.493   5.139   8.387  3.2892 -2.7341  3.1708
   29MOL0     H 3888   2.543   5.078   8.220  0.8220  1.0315  1.2124
   29MOL0     H 3889   2.316   5.001   8.408  0.8351 -1.8328  0.1619
   29MOL0     H 3890   2.374   4.889   8.291  0.7861 -0.3600  1.8260
   29MOL0     H 3891   2.171   5.036   8.219 -0.5890  3.0648  1.3823
   29MOL0     H 3892   2.277   5.164   8.198 -1.5415 -0.8138 -2.0199
   29MOL0     H 3893   2.308   4.896   8.053  3.6301 -1.0264 -4.0257
   29MOL0     H 3894   2.433   5.020   8.051 -0.9299  1.9846 -0.9659
   29MOL0     H 3895   2.299   5.070   7.863  0.2460  0.4286  0.6479
   29MOL0     H 3896   2.245   5.181   7.982  0.9485 -0.3669 -2.5079
   29MOL0     H 3897   3.166   4.966   8.621  0.1815 -0.7967  1.9372
   29MOL0     H 3898   3.227   5.090   8.844 -0.0008 -0.4350  1.4671
   29MOL0     H 3899   3.309   5.561   9.032  1.2083  2.6016  1.5282
   29MOL0     H 3900   3.438   5.623   9.244 -1.7863  1.3156 -3.2052
   29MOL0     H 3901   4.918   6.157  10.132 -1.2490  0.6139 -0.0570
   29MOL0     H 3902   5.146   6.156  10.116 -1.8222  1.9297  2.0852
   29MOL0     H 3903   5.607   6.216  10.155  1.0365  2.0940  2.1809
   29MOL0     H 3904   5.800   6.342  10.146 -0.9175  0.1338 -0.0662
   29MOL0     H 3905   5.944   6.553  10.124  0.3014 -1.6126  1.4282
   29MOL0     H 3906   6.023   6.410  10.065  3.3428  0.2807 -2.6339
   29MOL0     H 3907   6.126   6.661  10.052 -0.7221  3.4691 -2.2064
   29MOL0     H 3908   6.026   6.676   9.917 -2.0227 -2.7748 -1.3188
   29MOL0     H 3909   6.250   6.473   9.925 -1.2304 -1.0431 -1.1690
   29MOL0     H 3910   6.243   6.613   9.818  0.5691 -0.0890  0.2179
   29MOL0     H 3911   6.021   6.490   9.738  0.7383 -0.5174  1.3359
   29MOL0     H 3912   6.088   6.357   9.840 -1.3992  0.8743  0.6609
   29MOL0     H 3913   6.342   6.358   9.499 -0.1943 -3.1492  0.9630
   29MOL0     H 3914   5.711   6.473   9.739  0.1741  1.4995  1.1174
   29MOL0     H 3915   5.495   6.377   9.759  0.3149  2.6677  1.8498
   30MOL0     O 3916   0.060  11.119   7.562  0.3086 -0.8153 -0.0385
   30MOL0     C 3917   0.085  11.184   7.465  0.5199 -0.1363 -0.1795
   30MOL0     O 3918   0.009  11.195   7.352 -0.7129  0.0301  0.2920
   30MOL0     C 3919  -0.113  11.138   7.351 -0.2051 -0.3617 -0.1589
   30MOL0     C 3920  -0.155  11.098   7.220 -0.9142  0.1638  0.3581
   30MOL0     C 3921  -0.282  11.056   7.193  0.5422  0.4383 -0.0681
   30MOL0     C 3922  -0.373  11.045   7.294  0.6564  0.2518 -0.6093
   30MOL0     O 3923  -0.503  10.992   7.267 -0.7336 -0.0116  0.0016
   30MOL0     C 3924  -0.568  10.905   7.357  0.1682  0.0017 -0.7489
   30MOL0     C 3925  -0.679  10.842   7.281  0.8987  0.4400  0.5327
   30MOL0     C 3926  -0.770  10.746   7.374 -0.0655 -0.1717  0.2206
   30MOL0     C 3927  -0.906  10.724   7.306 -0.5983  0.7464  0.0866
   30MOL0     C 3928  -0.985  10.624   7.390  0.4012 -0.1108  0.3754
   30MOL0     C 3929  -1.114  10.573   7.305  0.0643  0.1913  0.9765
   30MOL0     C 3930  -1.242  10.562   7.399  0.5611 -0.1641 -0.2057
   30MOL0     C 3931  -1.333  10.679   7.399  0.2796 -0.6534  0.4585
   30MOL0     N 3932  -1.461  10.677   7.473  0.4460 -0.0004  0.6730
   30MOL0     C 3933  -1.493  10.734   7.590 -0.0650 -0.6521 -0.0840
   30MOL0     C 3934  -1.615  10.699   7.624 -0.5826  0.0940  0.1654
   30MOL0     C 3935  -1.675  10.734   7.755 -0.0719 -0.0098 -0.0153
   30MOL0     C 3936  -1.831  10.704   7.772  0.2778  0.6749 -0.1068
   30MOL0     C 3937  -1.925  10.741   7.658  1.1265 -0.5551  0.8174
   30MOL0     C 3938  -2.069  10.700   7.694 -0.9309 -0.5713 -0.5336
   30MOL0     O 3939  -2.137  10.751   7.578 -0.8520  0.6523 -0.3384
   30MOL0     C 3940  -2.273  10.737   7.572 -0.3058  0.1222 -0.4420
   30MOL0     C 3941  -2.327  10.792   7.460  0.3712 -0.0981 -0.2374
   30MOL0     C 3942  -2.465  10.795   7.437  0.4122 -0.6270 -0.4454
   30MOL0     C 3943  -2.510  10.872   7.311 -0.0857  0.2348  0.5066
   30MOL0     C 3944  -2.552  10.737   7.535 -0.2764 -0.7262  0.2446
   30MOL0     C 3945  -2.700  10.735   7.523 -0.4323  0.3313 -0.2497
   30MOL0     O 3946  -2.751  10.838   7.458 -0.4524 -0.5491 -0.5867
   30MOL0     C 3947  -2.888  10.841   7.455 -0.0627  0.4841 -0.0475
   30MOL0     C 3948  -2.969  10.862   7.564 -0.2756  0.9118  0.1774
   30MOL0     C 3949  -3.098  10.831   7.559  0.4373 -0.0765  1.2125
   30MOL0     C 3950  -3.171  10.794   7.444  0.4140  1.2911  0.0653
   30MOL0     O 3951  -3.307  10.763   7.432 -0.3119 -0.2212 -0.0407
   30MOL0     C 3952  -3.405  10.822   7.531 -0.0686  0.9948 -0.5106
   30MOL0     C 3953  -3.544  10.799   7.474  0.2986 -0.5687 -0.5244
   30MOL0     C 3954  -3.573  10.662   7.424  0.7102  0.2049 -0.6411
   30MOL0     C 3955  -3.644  10.662   7.289 -1.4841 -0.3240 -0.5561
   30MOL0     C 3956  -3.793  10.720   7.298  0.1059 -0.7802 -0.0260
   30MOL0     C 3957  -3.857  10.689   7.166  0.1413 -0.0461  0.3738
   30MOL0     C 3958  -4.011  10.718   7.163 -0.5512  0.1569 -0.2662
   30MOL0     C 3959  -4.047  10.843   7.089  0.0354 -0.1103  0.5929
   30MOL0    Cl 3960  -4.009  10.984   7.199 -0.6334 -0.2137  0.2712
   30MOL0     C 3961  -3.091  10.800   7.324  0.7618 -0.3872 -0.5874
   30MOL0     C 3962  -2.951  10.827   7.327 -0.2032  0.8616 -0.3158
   30MOL0     O 3963  -2.758  10.663   7.604 -0.6937  1.2351 -0.3256
   30MOL0     C 3964  -2.484  10.685   7.639 -0.5085  1.1499 -1.0952
   30MOL0     C 3965  -2.350  10.685   7.667  0.2995  0.8005  0.6920
   30MOL0     N 3966  -1.664  10.623   7.520 -0.2290 -0.6350 -0.2398
   30MOL0     N 3967  -1.574  10.618   7.434 -0.0535  1.1176 -0.4908
   30MOL0     C 3968  -0.340  11.088   7.421 -0.3825  0.1359 -0.5664
   30MOL0     C 3969  -0.213  11.134   7.449 -0.6414 -0.1417 -0.6135
   30MOL0     C 3970   0.227  11.234   7.465 -0.0211 -0.0474  0.1902
   30MOL0     C 3971   0.309  11.244   7.575 -0.6863  0.0980  0.0650
   30MOL0     C 3972   0.442  11.287   7.564  0.2477 -0.2922  0.3775
   30MOL0     C 3973   0.497  11.337   7.438  0.0908 -0.4173 -0.4480
   30MOL0     O 3974   0.629  11.384   7.416  0.3493 -0.4502  0.5874
   30MOL0     C 3975   0.691  11.459   7.519 -0.4310 -0.0235 -0.1276
   30MOL0     C 3976   0.846  11.502   7.508  0.4804  0.1771  0.1286
   30MOL0     C 3977   0.940  11.385   7.500 -0.2389 -0.3812  0.5528
   30MOL0     C 3978   1.089  11.416   7.514 -0.6578 -0.1568 -0.0346
   30MOL0     C 3979   1.134  11.526   7.431  0.6430  0.2850 -0.0717
   30MOL0     C 3980   1.157  11.612   7.353 -0.1422 -0.5433  0.0477
   30MOL0     C 3981   0.404  11.333   7.335  0.2366 -0.2323  0.1913
   30MOL0     C 3982   0.273  11.288   7.349  0.2949  1.0626  0.1024
   30MOL0     H 3983  -0.081  11.104   7.141 -1.2583 -1.8015 -0.1792
   30MOL0     H 3984  -0.305  11.021   7.092  0.6183  0.5227 -0.1140
   30MOL0     H 3985  -0.495  10.831   7.392 -1.5974 -2.0128 -1.0703
   30MOL0     H 3986  -0.607  10.965   7.439  1.8127 -0.8284  0.7033
   30MOL0     H 3987  -0.735  10.928   7.243 -1.5065 -1.8356 -1.4593
   30MOL0     H 3988  -0.649  10.788   7.191  5.9745 -2.2108  3.3205
   30MOL0     H 3989  -0.715  10.654   7.397 -2.0055 -1.6977 -0.8914
   30MOL0     H 3990  -0.775  10.803   7.467  0.7588  1.2142 -0.5565
   30MOL0     H 3991  -0.963  10.818   7.298 -5.0901 -1.4110  2.5520
   30MOL0     H 3992  -0.890  10.685   7.205  0.8953  2.3065 -0.3102
   30MOL0     H 3993  -0.929  10.534   7.413 -1.0536 -1.0057  0.5754
   30MOL0     H 3994  -1.011  10.674   7.484  3.3102  0.6412  0.8573
   30MOL0     H 3995  -1.140  10.651   7.233  0.9941  1.1749  1.6879
   30MOL0     H 3996  -1.085  10.488   7.242 -2.3553  2.0081 -3.0456
   30MOL0     H 3997  -1.294  10.470   7.372  0.1112  0.1192 -0.3053
   30MOL0     H 3998  -1.212  10.556   7.504 -0.7687  4.0573  0.6042
   30MOL0     H 3999  -1.357  10.706   7.295  4.3484 -0.1998 -0.5600
   30MOL0     H 4000  -1.284  10.773   7.426  3.6086 -1.0703 -3.1484
   30MOL0     H 4001  -1.427  10.784   7.660 -1.8544 -1.0608  1.9973
   30MOL0     H 4002  -1.627  10.686   7.841 -1.0336 -0.0229  0.5377
   30MOL0     H 4003  -1.649  10.839   7.771  3.0284 -0.4845 -1.2163
   30MOL0     H 4004  -1.874  10.754   7.860 -2.1025 -0.5574 -0.5015
   30MOL0     H 4005  -1.831  10.596   7.790  1.9064  0.3608 -1.7255
   30MOL0     H 4006  -1.902  10.675   7.574  0.6145 -2.4307  2.0866
   30MOL0     H 4007  -1.934  10.848   7.637 -3.1961 -1.4898 -4.1778
   30MOL0     H 4008  -2.097  10.742   7.791 -0.6035  1.4962 -1.2691
   30MOL0     H 4009  -2.075  10.591   7.701  2.6181 -0.9125 -0.8657
   30MOL0     H 4010  -2.261  10.839   7.387 -0.8073  2.0420  0.0011
   30MOL0     H 4011  -2.564  10.798   7.251  1.5485 -0.0804 -0.6261
   30MOL0     H 4012  -2.570  10.960   7.338  1.0542  0.9250  0.8458
   30MOL0     H 4013  -2.424  10.899   7.250  2.4166 -1.4952  3.0281
   30MOL0     H 4014  -2.905  10.883   7.649 -1.4040 -1.6521  1.7850
   30MOL0     H 4015  -3.160  10.826   7.648  1.9798  1.4847  2.4358
   30MOL0     H 4016  -3.393  10.781   7.631 -0.5907 -0.1274 -0.8934
   30MOL0     H 4017  -3.389  10.930   7.538  0.9394  0.9435 -1.6363
   30MOL0     H 4018  -3.604  10.819   7.563  4.7213  1.5247  2.3492
   30MOL0     H 4019  -3.567  10.872   7.396  0.2408  0.4269  0.3983
   30MOL0     H 4020  -3.629  10.612   7.503  3.4553 -2.4040 -0.1605
   30MOL0     H 4021  -3.487  10.594   7.420  0.2897 -0.2852 -2.0336
   30MOL0     H 4022  -3.582  10.718   7.218 -0.4653  1.5511  1.6837
   30MOL0     H 4023  -3.643  10.558   7.256 -0.3477 -1.3334  2.4294
   30MOL0     H 4024  -3.794  10.828   7.316 -1.8742 -0.8240  0.3319
   30MOL0     H 4025  -3.837  10.669   7.384  1.8723  1.2121  2.2120
   30MOL0     H 4026  -3.799  10.750   7.096 -0.0587 -0.4388 -0.1454
   30MOL0     H 4027  -3.851  10.582   7.148  0.9187  0.0198  0.2092
   30MOL0     H 4028  -4.053  10.724   7.263  1.3769  0.9326  0.5607
   30MOL0     H 4029  -4.056  10.648   7.092  2.0241 -0.5318 -1.3550
   30MOL0     H 4030  -4.154  10.843   7.067  0.0688  1.9599  0.2468
   30MOL0     H 4031  -3.980  10.845   7.002 -2.2783 -0.9890 -1.3358
   30MOL0     H 4032  -3.146  10.795   7.230 -1.6093  0.6374  0.6677
   30MOL0     H 4033  -2.878  10.814   7.248  1.5138 -1.0082  1.4650
   30MOL0     H 4034  -2.542  10.642   7.720 -0.0545  1.2784 -0.6887
   30MOL0     H 4035  -2.314  10.646   7.761 -0.2700 -1.4178  0.0424
   30MOL0     H 4036  -0.416  11.078   7.498 -0.5908 -1.3374 -0.9389
   30MOL0     H 4037  -0.197  11.176   7.547 -2.6521  2.2262 -1.2261
   30MOL0     H 4038   0.287  11.222   7.679  2.0908 -2.4733  0.2475
   30MOL0     H 4039   0.504  11.286   7.653  0.8350  1.0179  0.0100
   30MOL0     H 4040   0.628  11.544   7.546  1.7858  1.0403  2.0841
   30MOL0     H 4041   0.685  11.394   7.607  0.6041  1.2589  0.9216
   30MOL0     H 4042   0.866  11.554   7.603 -2.2442  0.1054  0.8412
   30MOL0     H 4043   0.854  11.573   7.426 -0.6434 -0.5392 -0.6310
   30MOL0     H 4044   0.910  11.331   7.409  1.5773  2.0138 -1.6177
   30MOL0     H 4045   0.922  11.330   7.593  1.1076 -1.6856  0.0724
   30MOL0     H 4046   1.144  11.325   7.487 -4.0714 -1.9832 -1.4432
   30MOL0     H 4047   1.105  11.440   7.619 -1.6744 -3.0445  0.8762
   30MOL0     H 4048   1.174  11.697   7.290 -1.2840 -0.7683 -0.6050
   30MOL0     H 4049   0.428  11.367   7.235  2.8505  0.9106  1.1284
   30MOL0     H 4050   0.218  11.299   7.256 -0.4028  0.0755  0.3818
   31MOL0     O 4051  10.343   5.363  10.159  0.8732  0.1936 -1.2085
   31MOL0     C 4052  10.417   5.344  10.066  0.2851  0.0333 -0.4346
   31MOL0     O 4053  10.403   5.244   9.977 -0.7234  0.1731  0.0211
   31MOL0     C 4054  10.285   5.196   9.940  0.0993  0.3774  0.0208
   31MOL0     C 4055  10.224   5.254   9.823 -0.1962  0.3178  0.8231
   31MOL0     C 4056  10.091   5.215   9.808 -0.2615  0.6957 -0.0151
   31MOL0     C 4057  10.017   5.120   9.883 -0.6112 -0.0002 -0.4318
   31MOL0     O 4058   9.895   5.079   9.850  0.2400  0.2444 -0.1137
   31MOL0     C 4059   9.804   5.021   9.951 -0.1957 -0.3497  0.1768
   31MOL0     C 4060   9.667   4.996   9.890 -0.7635  0.6842  1.3808
   31MOL0     C 4061   9.611   5.112   9.817  0.1246  0.9333  0.6785
   31MOL0     C 4062   9.474   5.068   9.759 -0.6126 -0.6383 -0.4827
   31MOL0     C 4063   9.482   4.977   9.635  0.0907  0.0408 -0.4606
   31MOL0     C 4064   9.349   4.935   9.587  0.0268  0.2776 -0.2386
   31MOL0     C 4065   9.266   5.039   9.498  0.2117 -0.2158 -0.3772
   31MOL0     C 4066   9.119   4.994   9.461  0.8051  0.3961 -0.2172
   31MOL0     N 4067   9.030   5.013   9.583 -0.4631  0.3782  0.5783
   31MOL0     C 4068   8.945   5.120   9.612 -0.4425  0.1831  0.2662
   31MOL0     C 4069   8.898   5.105   9.738 -0.4026  0.0839  0.6425
   31MOL0     C 4070   8.820   5.198   9.815 -0.5462 -0.9401 -0.1803
   31MOL0     C 4071   8.677   5.223   9.764 -0.1632 -0.2460  0.3570
   31MOL0     C 4072   8.577   5.150   9.853 -0.2124  0.6493  0.1506
   31MOL0     C 4073   8.602   4.996   9.857 -0.5843 -0.7386  0.4841
   31MOL0     O 4074   8.529   4.927   9.959  0.4271  0.2946  0.3564
   31MOL0     C 4075   8.402   4.901   9.917 -0.0647  0.1811  0.5209
   31MOL0     C 4076   8.288   4.969   9.978  0.8408 -0.2788  0.3643
   31MOL0     C 4077   8.158   4.928   9.949  0.1808 -0.4182 -0.0187
   31MOL0     C 4078   8.049   5.005  10.019 -0.2279  0.8776 -0.2959
   31MOL0     C 4079   8.135   4.820   9.858 -0.4391 -0.2242 -0.5743
   31MOL0     C 4080   8.000   4.782   9.806  0.2513  0.1147 -0.3007
   31MOL0     O 4081   7.969   4.649   9.807 -0.4953 -0.4978 -0.0137
   31MOL0     C 4082   7.848   4.593   9.775 -0.0391  0.9910 -0.9381
   31MOL0     C 4083   7.859   4.459   9.729  0.8525  0.7022  0.3501
   31MOL0     C 4084   7.746   4.389   9.682 -0.6360  0.0671  0.9368
   31MOL0     C 4085   7.616   4.441   9.683  0.9335  0.2258 -0.7481
   31MOL0     O 4086   7.502   4.366   9.644  0.0900 -0.1834  0.4571
   31MOL0     C 4087   7.522   4.278   9.533  0.2322  0.8107  0.6488
   31MOL0     C 4088   7.386   4.226   9.472 -0.0478  0.6007 -0.3977
   31MOL0     C 4089   7.397   4.163   9.331  0.4064  0.5885 -0.1424
   31MOL0     C 4090   7.267   4.095   9.274  0.2825 -0.7457  0.5133
   31MOL0     C 4091   7.306   4.020   9.148  0.7878  0.0194 -0.2005
   31MOL0     C 4092   7.229   3.891   9.137 -1.2732 -0.0334 -0.2662
   31MOL0     C 4093   7.263   3.814   9.012 -0.1399 -0.0029  1.1025
   31MOL0     C 4094   7.217   3.672   9.012 -0.1756  0.9238 -0.8376
   31MOL0    Cl 4095   7.040   3.672   9.037  0.3200  0.0945  0.4492
   31MOL0     C 4096   7.609   4.571   9.741 -0.1029 -0.2942  0.0490
   31MOL0     C 4097   7.718   4.648   9.776 -0.7516 -0.4558  0.3323
   31MOL0     O 4098   7.920   4.868   9.777 -0.4803  0.3604 -0.1091
   31MOL0     C 4099   8.244   4.751   9.804  0.7804 -0.2114  0.2266
   31MOL0     C 4100   8.377   4.790   9.829 -0.5929 -0.1605 -0.1517
   31MOL0     N 4101   8.949   4.984   9.784  0.1584  1.0283  0.2792
   31MOL0     N 4102   9.029   4.936   9.692  0.0258 -0.5455 -0.1676
   31MOL0     C 4103  10.087   5.071  10.000 -0.3550  0.1855 -0.2549
   31MOL0     C 4104  10.219   5.109  10.026  0.1139 -0.8533  0.3546
   31MOL0     C 4105  10.545   5.415  10.060 -0.1245  0.3476  0.5035
   31MOL0     C 4106  10.557   5.523  10.151 -0.6840 -0.4538 -0.4951
   31MOL0     C 4107  10.680   5.585  10.168 -0.8564 -0.5740  0.0690
   31MOL0     C 4108  10.790   5.540  10.081  0.5664  0.5257 -0.6662
   31MOL0     O 4109  10.909   5.602  10.087 -0.0387 -0.0448 -0.3402
   31MOL0     C 4110  10.988   5.588  10.206  0.4356 -0.5338  0.0580
   31MOL0     C 4111  11.075   5.713  10.226 -0.3479  0.1008  0.4026
   31MOL0     C 4112  10.997   5.843  10.232  0.0251 -0.1153  0.0891
   31MOL0     C 4113  11.063   5.963  10.283  0.3256 -1.1461 -0.5801
   31MOL0     C 4114  11.031   5.980  10.428  0.4476  0.2922 -0.5528
   31MOL0     C 4115  11.012   5.988  10.553  0.0199 -0.4535  0.0536
   31MOL0     C 4116  10.764   5.440   9.985 -0.2009  0.0539  0.3200
   31MOL0     C 4117  10.645   5.382   9.966  0.7678  0.0346 -0.0633
   31MOL0     H 4118  10.268   5.319   9.748 -1.6931  1.3446  0.7823
   31MOL0     H 4119  10.053   5.248   9.712 -1.2323  1.4452  0.6169
   31MOL0     H 4120   9.850   4.926   9.979  0.1974 -0.4762 -0.8482
   31MOL0     H 4121   9.801   5.088  10.038 -0.1027  0.0885 -0.1546
   31MOL0     H 4122   9.686   4.909   9.827  1.1383 -0.4363  3.3674
   31MOL0     H 4123   9.601   4.972   9.974 -0.7856 -0.8871  0.9403
   31MOL0     H 4124   9.588   5.186   9.894 -5.6434  0.3306 -0.0364
   31MOL0     H 4125   9.677   5.156   9.742  0.3390  0.4880  0.6043
   31MOL0     H 4126   9.419   5.023   9.842 -1.9317  1.8156  0.0980
   31MOL0     H 4127   9.404   5.148   9.731 -1.8963 -1.4509  0.2830
   31MOL0     H 4128   9.533   5.020   9.548  0.2910 -0.8575 -0.7976
   31MOL0     H 4129   9.523   4.880   9.664 -1.4708 -1.2339 -2.2395
   31MOL0     H 4130   9.361   4.841   9.531  2.5431  0.4474 -0.0785
   31MOL0     H 4131   9.290   4.919   9.678  0.4774 -0.3689 -0.0542
   31MOL0     H 4132   9.256   5.131   9.557 -0.1463 -1.5219  1.6971
   31MOL0     H 4133   9.321   5.062   9.407 -0.2574 -2.3031 -1.2289
   31MOL0     H 4134   9.118   4.886   9.444 -1.4293 -0.0404  2.0558
   31MOL0     H 4135   9.085   5.040   9.367  0.5651 -0.1500 -0.4009
   31MOL0     H 4136   8.917   5.206   9.552  1.6883 -0.8983 -2.5014
   31MOL0     H 4137   8.813   5.171   9.921  0.4039 -0.2415  0.0764
   31MOL0     H 4138   8.865   5.298   9.818 -6.0683  1.9433  0.4716
   31MOL0     H 4139   8.669   5.193   9.660  2.4470 -0.7326  0.2191
   31MOL0     H 4140   8.644   5.327   9.774 -0.0253 -0.3858  2.9134
   31MOL0     H 4141   8.477   5.159   9.811 -0.2410 -1.7260 -0.4586
   31MOL0     H 4142   8.572   5.188   9.956  0.2972  0.9766  0.0593
   31MOL0     H 4143   8.710   4.987   9.869 -0.3166  1.2750 -0.0808
   31MOL0     H 4144   8.598   4.951   9.757 -0.0150 -1.8598  0.9453
   31MOL0     H 4145   8.307   5.053  10.045  0.0043 -0.4259  0.7940
   31MOL0     H 4146   8.009   5.098   9.977 -0.3276  0.6990 -0.6008
   31MOL0     H 4147   7.972   4.928  10.027  3.1760 -3.0467 -1.7461
   31MOL0     H 4148   8.073   5.017  10.125 -0.0715 -0.6320 -0.1370
   31MOL0     H 4149   7.954   4.407   9.716  0.1738 -0.0982 -1.7819
   31MOL0     H 4150   7.776   4.292   9.644 -0.7102  0.3823  0.0440
   31MOL0     H 4151   7.587   4.331   9.463  0.3967 -0.8686 -0.5162
   31MOL0     H 4152   7.576   4.192   9.573  0.7875  0.9879  0.2932
   31MOL0     H 4153   7.325   4.161   9.535 -0.6248  0.5954 -0.9458
   31MOL0     H 4154   7.317   4.308   9.448 -0.8278  0.0069 -0.2095
   31MOL0     H 4155   7.473   4.087   9.350 -1.3793 -1.0906  0.6011
   31MOL0     H 4156   7.433   4.238   9.260 -1.6968  0.4007 -1.4756
   31MOL0     H 4157   7.227   4.025   9.349  0.1603 -2.0581 -0.7379
   31MOL0     H 4158   7.189   4.168   9.256  0.3428 -1.3357 -2.5623
   31MOL0     H 4159   7.411   3.991   9.157  0.5220 -1.5157 -1.5759
   31MOL0     H 4160   7.287   4.090   9.067 -1.2837  0.7130  0.8116
   31MOL0     H 4161   7.253   3.832   9.226  1.7097  0.2645 -0.7763
   31MOL0     H 4162   7.120   3.895   9.151 -1.3602 -1.9865 -0.0727
   31MOL0     H 4163   7.371   3.808   8.997 -0.0944  2.2041  0.2783
   31MOL0     H 4164   7.219   3.854   8.920 -0.2020 -2.8943 -0.2531
   31MOL0     H 4165   7.271   3.616   9.089 -1.3487  0.2674 -0.4662
   31MOL0     H 4166   7.237   3.629   8.913 -0.2034  2.2317 -1.4343
   31MOL0     H 4167   7.505   4.600   9.747  0.0921  0.4066  0.0506
   31MOL0     H 4168   7.698   4.748   9.813  1.2552  0.5828 -1.1948
   31MOL0     H 4169   8.228   4.673   9.730  2.3408 -0.9533  0.6110
   31MOL0     H 4170   8.463   4.744   9.783 -0.5387  1.4546 -1.8114
   31MOL0     H 4171  10.049   4.997  10.070  0.4537 -2.9699 -2.9242
   31MOL0     H 4172  10.271   5.093  10.120 -0.1085 -0.1121  0.6129
   31MOL0     H 4173  10.482   5.555  10.222  0.6973 -0.3841  1.0042
   31MOL0     H 4174  10.693   5.670  10.234 -0.7999 -2.3549  2.4502
   31MOL0     H 4175  10.925   5.571  10.294 -1.6220 -3.3334 -1.7767
   31MOL0     H 4176  11.048   5.498  10.189  1.0138 -0.7173  2.7119
   31MOL0     H 4177  11.146   5.719  10.144  0.7899 -0.7769  1.2907
   31MOL0     H 4178  11.125   5.691  10.321 -1.8354 -5.6579  0.2379
   31MOL0     H 4179  10.911   5.816  10.294  0.2541  0.4189  0.6438
   31MOL0     H 4180  10.970   5.856  10.127 -2.9141  0.7804  0.8799
   31MOL0     H 4181  11.023   6.047  10.226  3.5032  0.3046 -0.9189
   31MOL0     H 4182  11.172   5.965  10.271  0.5029  0.9373  0.8841
   31MOL0     H 4183  10.989   6.010  10.655  1.3636  0.9944  0.0789
   31MOL0     H 4184  10.835   5.425   9.903 -0.4455  1.6117 -0.2159
   31MOL0     H 4185  10.638   5.306   9.889  1.1379  0.5750 -0.6365
   32MOL0     O 4186   7.505   5.334   8.860  0.8223  0.4165  0.1304
   32MOL0     C 4187   7.520   5.344   8.979 -0.1604  0.2826 -0.8218
   32MOL0     O 4188   7.647   5.361   9.039  0.1108 -0.2966  0.6584
   32MOL0     C 4189   7.755   5.357   8.956  0.1963  0.2337  0.2188
   32MOL0     C 4190   7.803   5.482   8.917 -0.3215  0.5766  0.7997
   32MOL0     C 4191   7.911   5.488   8.824  0.4291 -0.4056 -1.0543
   32MOL0     C 4192   7.995   5.379   8.817 -0.8905 -0.9831 -0.7853
   32MOL0     O 4193   8.118   5.399   8.751  0.8118 -0.2687 -0.0845
   32MOL0     C 4194   8.168   5.282   8.686 -0.5402  0.6238 -0.2816
   32MOL0     C 4195   8.287   5.313   8.588  0.2283 -0.1251  0.6350
   32MOL0     C 4196   8.399   5.388   8.653  0.0234  0.0874 -0.4272
   32MOL0     C 4197   8.476   5.291   8.739 -0.4377  0.6527  0.2837
   32MOL0     C 4198   8.585   5.367   8.818 -0.0671  0.5198 -0.5923
   32MOL0     C 4199   8.672   5.276   8.895  0.1090 -0.2445 -0.0598
   32MOL0     C 4200   8.798   5.331   8.975  0.0504 -0.1579 -0.1657
   32MOL0     C 4201   8.756   5.368   9.118 -0.7132 -0.4286  0.1551
   32MOL0     N 4202   8.696   5.261   9.200  0.8004 -0.6559 -0.3937
   32MOL0     C 4203   8.563   5.242   9.222  0.5044 -0.3550  0.2089
   32MOL0     C 4204   8.555   5.128   9.310  0.3116 -0.3943  0.9609
   32MOL0     C 4205   8.416   5.074   9.346 -0.3026  0.1229  0.6323
   32MOL0     C 4206   8.397   5.066   9.499 -0.2263  0.3522  0.4637
   32MOL0     C 4207   8.240   5.069   9.528  0.1210  0.7461  0.0372
   32MOL0     C 4208   8.182   4.951   9.451 -0.6323  1.0402 -0.1406
   32MOL0     O 4209   8.229   4.832   9.512  0.4533  0.5879 -0.6543
   32MOL0     C 4210   8.153   4.721   9.480 -1.0201  0.2868 -0.1116
   32MOL0     C 4211   8.229   4.606   9.456 -0.0674  0.4753  0.0168
   32MOL0     C 4212   8.164   4.483   9.433  0.1396 -0.6324  0.2327
   32MOL0     C 4213   8.250   4.352   9.439 -0.3169 -0.0227  0.2825
   32MOL0     C 4214   8.026   4.481   9.403 -0.6326  0.3156 -0.1896
   32MOL0     C 4215   7.957   4.352   9.373 -0.0487  0.7133  0.1215
   32MOL0     O 4216   7.902   4.355   9.257  0.5576  0.2499  0.4213
   32MOL0     C 4217   7.825   4.248   9.204  0.4081  0.3573 -0.4348
   32MOL0     C 4218   7.824   4.258   9.064  0.6932  0.0586 -0.6324
   32MOL0     C 4219   7.745   4.176   8.986  0.4800  0.0821  0.5052
   32MOL0     C 4220   7.674   4.071   9.054  0.0289 -0.4541  0.2135
   32MOL0     O 4221   7.586   3.985   8.990  0.4787 -0.9334 -0.3730
   32MOL0     C 4222   7.593   3.956   8.850 -0.7648 -0.7692  0.9370
   32MOL0     C 4223   7.731   3.888   8.837 -0.3327 -0.3194  0.4076
   32MOL0     C 4224   7.788   3.878   8.689 -0.3918  0.4612 -0.1434
   32MOL0     C 4225   7.860   4.005   8.631  0.0579 -0.1173  0.3903
   32MOL0     C 4226   7.858   3.995   8.476 -0.7996  0.0596 -0.4188
   32MOL0     C 4227   7.719   4.013   8.414 -0.0288 -0.6060 -0.3871
   32MOL0     C 4228   7.638   4.137   8.469  0.4668 -0.4516 -0.1475
   32MOL0     C 4229   7.518   4.179   8.369  0.2016  0.5258 -0.3621
   32MOL0    Cl 4230   7.447   4.344   8.390  0.5106 -0.0484 -0.1971
   32MOL0     C 4231   7.684   4.053   9.196  0.2314  0.2010  0.0597
   32MOL0     C 4232   7.748   4.151   9.270  0.1584  0.3932  0.0285
   32MOL0     O 4233   7.966   4.249   9.444 -0.7477  0.9999 -0.1481
   32MOL0     C 4234   7.953   4.597   9.429 -0.2732  0.4598  0.3448
   32MOL0     C 4235   8.014   4.714   9.463 -0.2833  0.9984  0.0899
   32MOL0     N 4236   8.683   5.082   9.333  0.0709 -0.6462  0.0136
   32MOL0     N 4237   8.759   5.168   9.273  0.1743  0.2833  0.2070
   32MOL0     C 4238   7.958   5.258   8.876 -0.7989  0.0855 -0.4423
   32MOL0     C 4239   7.839   5.243   8.941  0.1429  0.1402 -0.0843
   32MOL0     C 4240   7.396   5.333   9.064 -0.1924 -0.2293 -0.0442
   32MOL0     C 4241   7.408   5.297   9.197  0.0969 -0.2127 -0.3438
   32MOL0     C 4242   7.299   5.261   9.270 -0.4772 -0.2608  0.0611
   32MOL0     C 4243   7.175   5.299   9.220 -0.1906  0.5366  0.5384
   32MOL0     O 4244   7.071   5.277   9.305  0.0078  0.3855 -0.6090
   32MOL0     C 4245   6.935   5.293   9.258  0.4390 -0.2179  0.0583
   32MOL0     C 4246   6.888   5.171   9.181  0.1631  0.2982 -0.5154
   32MOL0     C 4247   6.906   5.039   9.266  0.5365 -1.0910 -0.0511
   32MOL0     C 4248   6.851   4.916   9.191  0.0856  0.6192 -0.2005
   32MOL0     C 4249   6.961   4.833   9.139 -0.1643  0.5751 -0.0608
   32MOL0     C 4250   7.055   4.762   9.105  0.8062  0.1323 -0.2724
   32MOL0     C 4251   7.160   5.328   9.078  0.4183  0.6967 -0.3480
   32MOL0     C 4252   7.280   5.346   8.998  1.0427  0.1219 -0.3162
   32MOL0     H 4253   7.741   5.571   8.919  0.8446  1.5000 -1.1235
   32MOL0     H 4254   7.942   5.574   8.767 -2.0799 -0.2531 -2.3285
   32MOL0     H 4255   8.198   5.215   8.767 -1.4877  1.4586  0.8025
   32MOL0     H 4256   8.098   5.236   8.616  1.4806 -0.7337 -1.5099
   32MOL0     H 4257   8.321   5.217   8.548  0.2960 -0.1275  0.6992
   32MOL0     H 4258   8.251   5.362   8.497  0.8772 -0.2228  0.3236
   32MOL0     H 4259   8.463   5.442   8.582 -1.1341 -0.1645 -1.7080
   32MOL0     H 4260   8.358   5.464   8.720  2.6476  2.5003 -1.3399
   32MOL0     H 4261   8.407   5.241   8.807  0.0810  1.0191  1.0940
   32MOL0     H 4262   8.518   5.212   8.675 -0.0528 -0.5433  1.9536
   32MOL0     H 4263   8.651   5.430   8.758  0.7469  2.8760  2.5337
   32MOL0     H 4264   8.537   5.428   8.895 -0.7225 -0.9564  0.2214
   32MOL0     H 4265   8.615   5.214   8.965  0.8071  1.7267  2.3727
   32MOL0     H 4266   8.708   5.205   8.820 -1.0924  1.3799 -2.3034
   32MOL0     H 4267   8.859   5.241   8.981 -2.0925 -1.6594  0.1318
   32MOL0     H 4268   8.843   5.406   8.909 -1.6116  0.9495 -0.1113
   32MOL0     H 4269   8.689   5.454   9.114  2.6189  2.4279 -0.1183
   32MOL0     H 4270   8.835   5.423   9.171 -2.8188  0.6007  2.4429
   32MOL0     H 4271   8.482   5.285   9.163 -0.9713 -1.4941  1.3304
   32MOL0     H 4272   8.349   5.149   9.305 -2.6863 -2.1577  0.1329
   32MOL0     H 4273   8.410   4.975   9.301  1.8454  0.4301 -0.4593
   32MOL0     H 4274   8.454   5.146   9.546  0.8547  1.8183 -3.0409
   32MOL0     H 4275   8.442   4.977   9.545 -1.8308 -0.3235  0.8087
   32MOL0     H 4276   8.195   5.163   9.497  1.2639  1.4384  0.3907
   32MOL0     H 4277   8.243   5.049   9.635 -0.4168  0.5147  0.0131
   32MOL0     H 4278   8.202   4.944   9.344  0.1760 -3.8072  0.0861
   32MOL0     H 4279   8.075   4.953   9.470 -1.1053 -4.3661 -0.6222
   32MOL0     H 4280   8.337   4.607   9.466  0.0239  1.6033 -0.8672
   32MOL0     H 4281   8.220   4.289   9.524 -1.4087 -1.3321 -1.0259
   32MOL0     H 4282   8.217   4.290   9.355 -4.2787  1.5532  0.4672
   32MOL0     H 4283   8.359   4.359   9.428 -0.4352 -0.0236 -1.0563
   32MOL0     H 4284   7.879   4.341   9.020  0.1741  1.5000  1.3381
   32MOL0     H 4285   7.739   4.179   8.878  0.5981  0.5964  0.5138
   32MOL0     H 4286   7.507   3.900   8.812 -1.5468  1.5930 -1.0598
   32MOL0     H 4287   7.600   4.048   8.792 -3.0783 -2.3104 -2.0663
   32MOL0     H 4288   7.812   3.951   8.876  1.8680 -2.2232 -0.8081
   32MOL0     H 4289   7.737   3.793   8.891  0.4322 -0.6051 -0.1711
   32MOL0     H 4290   7.693   3.872   8.634 -1.5758  2.4624  1.5514
   32MOL0     H 4291   7.856   3.793   8.675  1.1777  1.9382 -2.0255
   32MOL0     H 4292   7.820   4.098   8.672  1.2178  0.6788 -0.2096
   32MOL0     H 4293   7.966   4.013   8.659 -0.1118  3.0491  0.4040
   32MOL0     H 4294   7.898   3.900   8.441  2.3360  0.3911  1.7910
   32MOL0     H 4295   7.918   4.073   8.427  2.2297 -2.3291 -0.7724
   32MOL0     H 4296   7.736   4.026   8.307 -0.3133  1.7627 -0.2105
   32MOL0     H 4297   7.655   3.926   8.428 -1.0876  0.4094  1.3809
   32MOL0     H 4298   7.704   4.224   8.477  0.4737 -0.5072  0.4617
   32MOL0     H 4299   7.600   4.125   8.571 -0.0265  0.1364 -0.2584
   32MOL0     H 4300   7.441   4.102   8.380 -0.7551  1.4349 -0.5582
   32MOL0     H 4301   7.560   4.171   8.268  2.5097  1.2265  0.4810
   32MOL0     H 4302   7.638   3.966   9.242 -1.0760  1.4702  1.2312
   32MOL0     H 4303   7.724   4.147   9.376 -0.2977 -2.6996 -0.0962
   32MOL0     H 4304   7.846   4.599   9.442 -0.3506  0.0069 -0.1727
   32MOL0     H 4305   7.959   4.803   9.489 -0.5447  0.5348  1.2010
   32MOL0     H 4306   8.016   5.166   8.874  0.7270  1.0201 -0.6707
   32MOL0     H 4307   7.819   5.157   9.004  3.9427 -1.4778 -0.8401
   32MOL0     H 4308   7.504   5.296   9.248  0.4423  2.7176 -0.7898
   32MOL0     H 4309   7.314   5.215   9.367 -0.0122  1.0004  0.6135
   32MOL0     H 4310   6.863   5.302   9.340 -0.8229  0.5970 -1.0993
   32MOL0     H 4311   6.927   5.388   9.204  1.6292 -0.9289 -1.4485
   32MOL0     H 4312   6.939   5.160   9.086  0.9735  3.1420 -0.4903
   32MOL0     H 4313   6.782   5.187   9.157 -0.4605 -0.9521  1.1687
   32MOL0     H 4314   6.846   5.040   9.358  0.2041  0.3649 -0.2586
   32MOL0     H 4315   7.010   5.028   9.298  0.9066  0.7869 -0.4837
   32MOL0     H 4316   6.779   4.933   9.110 -0.6492 -0.8271  0.1268
   32MOL0     H 4317   6.798   4.854   9.263  1.4583  1.0522  1.2370
   32MOL0     H 4318   7.137   4.703   9.070  1.3229 -0.2402  1.4441
   32MOL0     H 4319   7.063   5.356   9.036  1.1476 -0.0072 -2.6583
   32MOL0     H 4320   7.276   5.404   8.906  2.4002  0.2112 -0.3518
   33MOL0     O 4321   5.556   8.748   9.896  0.5934  0.6484  0.3685
   33MOL0     C 4322   5.509   8.820   9.806 -0.2076  0.9224  0.2987
   33MOL0     O 4323   5.383   8.832   9.776  0.6747 -0.5124  0.5642
   33MOL0     C 4324   5.277   8.752   9.833  0.3046  0.4836 -0.0254
   33MOL0     C 4325   5.146   8.800   9.829  0.5374 -0.5703 -0.3340
   33MOL0     C 4326   5.038   8.717   9.853  0.4975 -0.5146  0.0617
   33MOL0     C 4327   5.051   8.578   9.882 -0.2329 -0.1453  0.7507
   33MOL0     O 4328   4.951   8.486   9.876 -0.2814  0.4144 -0.5520
   33MOL0     C 4329   4.840   8.525   9.800  0.2432  0.3137  0.4925
   33MOL0     C 4330   4.750   8.397   9.795 -0.1954 -0.5594  0.2501
   33MOL0     C 4331   4.708   8.369   9.939 -1.0989 -0.6617 -1.1157
   33MOL0     C 4332   4.598   8.266   9.937 -0.0511 -0.1156 -0.0240
   33MOL0     C 4333   4.459   8.316   9.894 -0.1891 -0.4693 -0.2542
   33MOL0     C 4334   4.360   8.203   9.901  0.1450  0.2426  0.2954
   33MOL0     C 4335   4.223   8.234   9.835  0.3293 -0.6242 -0.0586
   33MOL0     C 4336   4.148   8.370   9.881 -0.1048  0.4247  0.3338
   33MOL0     N 4337   4.020   8.390   9.807  0.2732 -0.2606  0.1022
   33MOL0     C 4338   3.987   8.502   9.724  0.0298  0.4220 -0.1537
   33MOL0     C 4339   3.843   8.488   9.711 -1.7167  0.1564  0.3466
   33MOL0     C 4340   3.750   8.583   9.636  0.3108 -0.4474 -0.2825
   33MOL0     C 4341   3.792   8.727   9.682  1.3056  0.7418 -0.3890
   33MOL0     C 4342   3.672   8.824   9.653 -0.5803  0.6393  0.2831
   33MOL0     C 4343   3.712   8.964   9.624  0.7573  0.5344 -0.8098
   33MOL0     O 4344   3.823   9.007   9.707 -0.1441  0.3316  0.4489
   33MOL0     C 4345   3.937   9.051   9.648  0.3111  0.0468 -0.1114
   33MOL0     C 4346   4.019   9.142   9.724 -0.6004 -1.0343  0.4822
   33MOL0     C 4347   4.143   9.195   9.680  0.6208  0.1991  0.3861
   33MOL0     C 4348   4.224   9.277   9.780  0.8325  0.2954  0.0727
   33MOL0     C 4349   4.177   9.176   9.539  0.5895 -0.2774  0.1193
   33MOL0     C 4350   4.291   9.231   9.478 -0.8864 -0.5265 -0.0320
   33MOL0     O 4351   4.303   9.370   9.522  0.7540  0.6932 -0.8254
   33MOL0     C 4352   4.401   9.450   9.473 -0.2157  0.9938 -0.8738
   33MOL0     C 4353   4.537   9.416   9.478  0.6285  1.0356  0.0524
   33MOL0     C 4354   4.634   9.487   9.409  0.6835  0.3300 -0.2799
   33MOL0     C 4355   4.593   9.602   9.339 -0.2617  0.2080  0.0930
   33MOL0     O 4356   4.695   9.660   9.268  0.1280  0.2037 -0.7091
   33MOL0     C 4357   4.659   9.750   9.165  0.1484 -0.9234 -0.7241
   33MOL0     C 4358   4.776   9.786   9.063  0.1741  0.4715 -0.4355
   33MOL0     C 4359   4.719   9.879   8.954 -0.2703 -1.5672  0.1689
   33MOL0     C 4360   4.813   9.869   8.831  0.2303  0.6104  0.0612
   33MOL0     C 4361   4.749   9.952   8.721  0.5069 -0.2005  0.8731
   33MOL0     C 4362   4.831   9.976   8.596 -0.1077 -0.6259  0.3321
   33MOL0     C 4363   4.948  10.076   8.614  0.5503  0.3187  1.2832
   33MOL0     C 4364   5.019  10.113   8.476  0.5213  0.6694 -1.1601
   33MOL0    Cl 4365   5.110  10.257   8.486  0.2831 -0.5535 -0.2110
   33MOL0     C 4366   4.463   9.647   9.339  0.0729  0.4565  0.3266
   33MOL0     C 4367   4.366   9.568   9.403  0.1785  1.0265 -0.1567
   33MOL0     O 4368   4.362   9.178   9.395  0.5599  0.3474  0.0758
   33MOL0     C 4369   4.099   9.075   9.471 -0.7224  0.3073  0.2319
   33MOL0     C 4370   3.988   9.009   9.526  0.0889  0.4868 -0.5008
   33MOL0     N 4371   3.799   8.372   9.769  0.3974  0.4953  0.3013
   33MOL0     N 4372   3.905   8.319   9.826 -0.3670  0.2524 -0.7044
   33MOL0     C 4373   5.181   8.533   9.905 -0.4968 -0.2980  0.1963
   33MOL0     C 4374   5.298   8.616   9.877 -0.2013  0.0607  0.6577
   33MOL0     C 4375   5.608   8.905   9.737 -0.0973 -0.6211  0.7350
   33MOL0     C 4376   5.578   9.020   9.657  1.5265 -0.5737 -0.6125
   33MOL0     C 4377   5.673   9.101   9.603 -0.3066 -0.7504  0.0808
   33MOL0     C 4378   5.811   9.068   9.615 -0.3211  0.4600 -0.4148
   33MOL0     O 4379   5.911   9.148   9.563 -0.5932  0.3530 -0.1057
   33MOL0     C 4380   5.888   9.212   9.433 -0.0830  0.2155 -0.0934
   33MOL0     C 4381   6.006   9.294   9.378 -0.0848  0.1161  1.0052
   33MOL0     C 4382   6.139   9.220   9.377  0.8488 -0.4955 -0.0345
   33MOL0     C 4383   6.236   9.271   9.270  0.8327 -0.4234 -0.3118
   33MOL0     C 4384   6.356   9.187   9.273 -0.1365 -0.1058  1.0553
   33MOL0     C 4385   6.461   9.125   9.262 -0.4965 -0.4146 -0.1758
   33MOL0     C 4386   5.843   8.953   9.682  0.2792 -0.3233  0.2343
   33MOL0     C 4387   5.740   8.881   9.740 -0.3195  0.8656  0.2731
   33MOL0     H 4388   5.124   8.905   9.819 -1.4239 -1.0047 -0.8384
   33MOL0     H 4389   4.940   8.763   9.838  0.5526 -0.0039  1.1647
   33MOL0     H 4390   4.792   8.613   9.843  2.4251  2.1175 -0.5485
   33MOL0     H 4391   4.865   8.558   9.699  0.1693 -1.8234 -0.2899
   33MOL0     H 4392   4.657   8.411   9.739  0.8761 -0.2933 -1.5360
   33MOL0     H 4393   4.802   8.306   9.764 -1.9172 -1.4369 -0.1918
   33MOL0     H 4394   4.784   8.314   9.995 -0.8831  1.1645  0.5170
   33MOL0     H 4395   4.670   8.459   9.990  2.4450  1.1328 -1.3736
   33MOL0     H 4396   4.622   8.174   9.882  0.4621 -0.5064  0.8297
   33MOL0     H 4397   4.583   8.237  10.042 -1.3598  2.6376  0.6272
   33MOL0     H 4398   4.425   8.401   9.953 -0.7041  0.5512 -1.9302
   33MOL0     H 4399   4.451   8.343   9.788 -1.5097 -0.2078 -0.0973
   33MOL0     H 4400   4.392   8.108   9.856 -3.2040  0.1004 -2.2053
   33MOL0     H 4401   4.343   8.182  10.007 -0.9503  1.4066  0.3727
   33MOL0     H 4402   4.247   8.252   9.730  1.5917  1.4629  0.5241
   33MOL0     H 4403   4.158   8.148   9.848  1.9867 -1.4893  4.4406
   33MOL0     H 4404   4.209   8.460   9.865  2.8941 -1.7128 -1.2579
   33MOL0     H 4405   4.132   8.365   9.989 -0.8789 -2.1100  0.1635
   33MOL0     H 4406   4.050   8.583   9.690  1.5540  0.4761  2.4742
   33MOL0     H 4407   3.755   8.562   9.529  2.0952 -2.6488  0.1493
   33MOL0     H 4408   3.645   8.565   9.662 -0.9423  3.5100 -1.9203
   33MOL0     H 4409   3.883   8.748   9.625  4.9851 -3.7600  2.9532
   33MOL0     H 4410   3.818   8.724   9.788 -0.6993  2.9847  0.2429
   33MOL0     H 4411   3.599   8.824   9.734  0.3846  0.8279  1.1861
   33MOL0     H 4412   3.617   8.786   9.567 -2.7838 -1.7932  2.5816
   33MOL0     H 4413   3.628   9.031   9.641  1.6459  1.0394  2.1428
   33MOL0     H 4414   3.730   8.965   9.516 -3.3638  1.3869 -1.6487
   33MOL0     H 4415   3.988   9.168   9.824  3.3386 -2.2275  2.2096
   33MOL0     H 4416   4.210   9.382   9.751 -0.1198 -0.2856 -1.6827
   33MOL0     H 4417   4.183   9.266   9.881 -0.6890  0.5240 -0.4925
   33MOL0     H 4418   4.333   9.276   9.782  0.9875  4.0287  1.5842
   33MOL0     H 4419   4.559   9.330   9.541 -2.6874  0.4094  0.5629
   33MOL0     H 4420   4.732   9.442   9.418  0.6407  0.2538 -0.1960
   33MOL0     H 4421   4.572   9.718   9.107 -0.9595  2.5831 -1.2482
   33MOL0     H 4422   4.632   9.846   9.210 -3.2373 -1.9314 -0.2865
   33MOL0     H 4423   4.856   9.833   9.121 -0.3851  0.9892 -0.0697
   33MOL0     H 4424   4.809   9.691   9.021  1.0800  0.0088  1.2279
   33MOL0     H 4425   4.730   9.983   8.987  1.2650 -0.7982 -2.4511
   33MOL0     H 4426   4.615   9.859   8.926 -0.9126  0.7075  0.7243
   33MOL0     H 4427   4.912   9.908   8.858  0.6601 -1.5903  1.9692
   33MOL0     H 4428   4.829   9.763   8.811 -3.4496  0.1712 -1.1100
   33MOL0     H 4429   4.715  10.050   8.755 -2.6361 -0.4091 -1.1869
   33MOL0     H 4430   4.651   9.904   8.714  0.0180 -0.2836  5.5883
   33MOL0     H 4431   4.879   9.888   8.552  1.1377  0.5336 -0.7044
   33MOL0     H 4432   4.765  10.017   8.520  3.3017  1.1004 -1.9132
   33MOL0     H 4433   5.023  10.047   8.688  0.8255  0.7267  1.1708
   33MOL0     H 4434   4.891  10.169   8.629 -1.3238 -0.6074  0.3425
   33MOL0     H 4435   4.953  10.109   8.389  0.9774  0.9354 -1.5197
   33MOL0     H 4436   5.094  10.034   8.464  0.6173  0.3871  0.8132
   33MOL0     H 4437   4.445   9.743   9.292 -2.0007 -1.5765 -3.4506
   33MOL0     H 4438   4.262   9.599   9.406 -0.3652 -0.6833 -0.6661
   33MOL0     H 4439   4.121   9.044   9.370  1.7952  0.9118  0.5233
   33MOL0     H 4440   3.946   8.932   9.462  0.4430 -0.0563 -0.0902
   33MOL0     H 4441   5.190   8.429   9.935  2.3279 -0.3877 -0.6743
   33MOL0     H 4442   5.397   8.571   9.885 -1.3562 -2.4427  1.8007
   33MOL0     H 4443   5.476   9.045   9.629  0.9328 -1.7054  0.4249
   33MOL0     H 4444   5.641   9.197   9.562 -0.3968  0.5834  3.0465
   33MOL0     H 4445   5.868   9.134   9.360  4.5175 -0.2851 -1.1486
   33MOL0     H 4446   5.796   9.270   9.435 -0.1892  0.0414  0.9880
   33MOL0     H 4447   6.013   9.386   9.437  0.9433  0.5297  0.2723
   33MOL0     H 4448   5.982   9.320   9.275 -0.8849 -3.2502  0.2198
   33MOL0     H 4449   6.114   9.116   9.353 -1.7840 -0.1876  0.9453
   33MOL0     H 4450   6.197   9.230   9.469  2.2736  1.3096 -1.0665
   33MOL0     H 4451   6.257   9.378   9.282  3.7559 -1.0757  1.3300
   33MOL0     H 4452   6.186   9.273   9.173  0.6786  1.8568 -0.2409
   33MOL0     H 4453   6.548   9.062   9.258  0.3772  0.6956  0.5021
   33MOL0     H 4454   5.947   8.932   9.706  0.7605  0.3532 -1.1923
   33MOL0     H 4455   5.772   8.794   9.797 -0.9294  0.2531 -0.3053
   34MOL0     O 4456   6.766   3.672   0.975 -0.5441  0.7917 -0.0559
   34MOL0     C 4457   6.786   3.552   0.927  0.0643 -0.5373 -0.8111
   34MOL0     O 4458   6.908   3.498   0.890 -0.0811 -0.0712  0.4093
   34MOL0     C 4459   7.016   3.583   0.896  0.5307 -0.6114  0.8979
   34MOL0     C 4460   7.131   3.549   0.974  0.0380 -0.2088  0.1286
   34MOL0     C 4461   7.234   3.643   0.988 -0.7851 -0.2588 -0.0234
   34MOL0     C 4462   7.237   3.769   0.926  0.7780 -1.0573  0.1767
   34MOL0     O 4463   7.343   3.852   0.929  0.1548  0.0771 -0.6196
   34MOL0     C 4464   7.369   3.909   1.052 -0.6387 -0.2207 -1.0412
   34MOL0     C 4465   7.484   4.017   1.059 -0.6769 -0.7201 -0.0637
   34MOL0     C 4466   7.517   4.056   1.203  0.1840 -0.0582 -0.5129
   34MOL0     C 4467   7.646   4.137   1.218  0.0899 -0.7003  0.4422
   34MOL0     C 4468   7.666   4.138   1.368  0.2857  0.6044  0.2172
   34MOL0     C 4469   7.777   4.238   1.398  0.1933 -0.0966 -0.0385
   34MOL0     C 4470   7.831   4.215   1.544  0.0712 -0.2620  0.9290
   34MOL0     C 4471   7.724   4.202   1.661 -0.1203  0.8438 -0.0587
   34MOL0     N 4472   7.650   4.324   1.668  0.1336  0.5764 -0.2579
   34MOL0     C 4473   7.524   4.333   1.722 -0.6865 -0.0680 -0.0424
   34MOL0     C 4474   7.503   4.459   1.729 -0.7427 -0.0404 -0.2519
   34MOL0     C 4475   7.380   4.534   1.765 -1.0264  0.3542 -0.2854
   34MOL0     C 4476   7.311   4.618   1.657 -0.1775 -0.2928 -0.7765
   34MOL0     C 4477   7.159   4.653   1.695 -0.1681 -0.3240 -0.9161
   34MOL0     C 4478   7.077   4.530   1.700  0.0386 -0.2596  0.4651
   34MOL0     O 4479   6.930   4.550   1.698 -0.7493  0.1664 -1.0843
   34MOL0     C 4480   6.846   4.446   1.672  1.0342 -1.2060 -0.2698
   34MOL0     C 4481   6.875   4.330   1.601 -0.1593  0.9897 -0.7450
   34MOL0     C 4482   6.768   4.237   1.588  0.5317  0.0257  0.5560
   34MOL0     C 4483   6.802   4.099   1.544 -0.3613 -0.5986  0.1011
   34MOL0     C 4484   6.632   4.283   1.609  0.6829 -0.6740 -0.3835
   34MOL0     C 4485   6.508   4.208   1.584  0.5439  0.9965  0.7027
   34MOL0     O 4486   6.392   4.274   1.547  0.1596 -0.5370  0.1426
   34MOL0     C 4487   6.280   4.193   1.549  0.4526 -0.0628 -0.6496
   34MOL0     C 4488   6.220   4.161   1.668 -0.3656 -0.1130 -0.2648
   34MOL0     C 4489   6.111   4.075   1.670 -0.8715  0.0987  0.7393
   34MOL0     C 4490   6.055   4.014   1.552 -0.3324  0.0934  0.0507
   34MOL0     O 4491   5.957   3.919   1.565 -0.7775 -0.7574  0.1809
   34MOL0     C 4492   5.861   3.893   1.462 -0.8938  0.3446  0.1329
   34MOL0     C 4493   5.739   3.827   1.528 -0.2985 -0.2154  0.1445
   34MOL0     C 4494   5.645   3.771   1.424  0.5060 -0.0278  0.3351
   34MOL0     C 4495   5.514   3.711   1.480  0.2656  0.3653  0.4027
   34MOL0     C 4496   5.530   3.561   1.495  0.0761 -0.7076 -1.2524
   34MOL0     C 4497   5.535   3.485   1.367  1.1239 -0.2194  0.0286
   34MOL0     C 4498   5.506   3.332   1.392 -0.8198  0.0300 -0.0866
   34MOL0     C 4499   5.569   3.237   1.289 -0.3142 -0.2179  1.3228
   34MOL0    Cl 4500   5.562   3.064   1.337  0.5744 -0.5858 -0.0302
   34MOL0     C 4501   6.123   4.046   1.433  0.5686  1.1016 -1.2044
   34MOL0     C 4502   6.232   4.136   1.433 -0.4697  0.2654  0.1019
   34MOL0     O 4503   6.519   4.085   1.589  0.7078  0.6546  0.7559
   34MOL0     C 4504   6.607   4.410   1.677  1.0079 -0.0732  0.1170
   34MOL0     C 4505   6.717   4.488   1.704  0.3064  0.8141 -0.8250
   34MOL0     N 4506   7.616   4.535   1.708 -0.6357  0.2921 -0.0854
   34MOL0     N 4507   7.709   4.450   1.679  0.5213 -0.1253 -0.1108
   34MOL0     C 4508   7.128   3.797   0.844  0.5391 -0.0211 -0.7440
   34MOL0     C 4509   7.022   3.711   0.840  0.5038  0.8224  1.1561
   34MOL0     C 4510   6.670   3.471   0.928  1.1063  0.4470  0.6951
   34MOL0     C 4511   6.541   3.514   0.962 -0.1575  0.1795 -0.0794
   34MOL0     C 4512   6.423   3.441   0.935 -0.0761 -0.4874 -0.2503
   34MOL0     C 4513   6.430   3.307   0.904 -0.4497 -1.1813 -0.3123
   34MOL0     O 4514   6.326   3.218   0.876 -0.1377 -0.2208  0.7761
   34MOL0     C 4515   6.188   3.249   0.879  1.1397 -0.2298 -0.0545
   34MOL0     C 4516   6.130   3.285   1.016 -0.2936 -0.6839 -0.2664
   34MOL0     C 4517   5.981   3.276   1.021  0.4504  0.1247 -0.2381
   34MOL0     C 4518   5.910   3.275   1.146  0.1886 -0.1818 -0.2069
   34MOL0     C 4519   5.907   3.413   1.196 -0.3841 -0.9750  0.6498
   34MOL0     C 4520   5.901   3.522   1.248 -0.4722  0.0017  0.1882
   34MOL0     C 4521   6.559   3.250   0.903 -0.5311 -0.5420 -0.2519
   34MOL0     C 4522   6.675   3.326   0.908 -0.6483  0.1172 -0.5679
   34MOL0     H 4523   7.166   3.459   1.022 -0.5495  0.4293  1.8275
   34MOL0     H 4524   7.322   3.613   1.044 -0.0843  0.6992 -0.5807
   34MOL0     H 4525   7.286   3.960   1.102 -0.3485 -0.7911  0.0783
   34MOL0     H 4526   7.403   3.833   1.124  1.0951  1.6643  0.2433
   34MOL0     H 4527   7.565   3.964   1.009 -0.3667 -1.0097  0.7231
   34MOL0     H 4528   7.446   4.107   1.010  0.5475  1.0716  2.0348
   34MOL0     H 4529   7.433   4.115   1.240 -0.3872 -1.1587 -0.0110
   34MOL0     H 4530   7.528   3.965   1.262  1.3901 -0.8661 -1.9103
   34MOL0     H 4531   7.726   4.084   1.166 -0.3125  0.0904 -1.0485
   34MOL0     H 4532   7.633   4.237   1.174 -0.3994 -2.2691 -3.3953
   34MOL0     H 4533   7.573   4.159   1.422  0.1362 -1.2828  0.7646
   34MOL0     H 4534   7.700   4.037   1.389  1.1946  0.7534 -0.4670
   34MOL0     H 4535   7.856   4.213   1.327  0.2738  2.5043 -0.9668
   34MOL0     H 4536   7.739   4.339   1.384 -1.0227 -0.1482  2.2676
   34MOL0     H 4537   7.894   4.125   1.541 -1.0196 -1.0741 -2.1382
   34MOL0     H 4538   7.901   4.296   1.563 -0.0897  1.1516 -3.4086
   34MOL0     H 4539   7.781   4.195   1.754 -0.5746  0.7858  0.2203
   34MOL0     H 4540   7.656   4.117   1.646 -1.3201  1.8266 -0.4009
   34MOL0     H 4541   7.458   4.249   1.741 -2.0850  0.9719 -0.1220
   34MOL0     H 4542   7.318   4.454   1.807 -2.1331  0.5278 -1.5554
   34MOL0     H 4543   7.409   4.596   1.851 -1.2639  0.3029 -0.1681
   34MOL0     H 4544   7.305   4.550   1.571 -1.9388 -2.5173  0.9692
   34MOL0     H 4545   7.371   4.703   1.623  0.9172 -0.7585 -0.0451
   34MOL0     H 4546   7.119   4.717   1.616 -3.2737 -2.1945 -1.0414
   34MOL0     H 4547   7.156   4.722   1.780 -0.9680  2.4819 -3.0819
   34MOL0     H 4548   7.090   4.466   1.788  0.4959 -0.8318 -0.0107
   34MOL0     H 4549   7.098   4.472   1.610 -1.1747  1.6497 -1.1378
   34MOL0     H 4550   6.979   4.314   1.571  0.6786  2.4923  1.1542
   34MOL0     H 4551   6.778   4.025   1.620 -0.2660 -2.2477 -1.4123
   34MOL0     H 4552   6.745   4.071   1.454  3.1090 -1.8532 -1.9039
   34MOL0     H 4553   6.909   4.099   1.521 -0.0820 -2.5207  1.2200
   34MOL0     H 4554   6.269   4.204   1.755  2.1278 -0.5107 -1.3969
   34MOL0     H 4555   6.066   4.053   1.766 -4.1304 -1.2425 -0.9210
   34MOL0     H 4556   5.838   3.977   1.396  3.2462 -0.8878 -3.3217
   34MOL0     H 4557   5.909   3.824   1.392 -0.2605  0.0220  0.8700
   34MOL0     H 4558   5.783   3.751   1.593  2.3505  1.1495  0.0841
   34MOL0     H 4559   5.684   3.901   1.588  0.3539  0.3234  0.0870
   34MOL0     H 4560   5.686   3.701   1.350 -0.2306  2.6871 -2.9078
   34MOL0     H 4561   5.604   3.851   1.361  1.7403  1.9633  1.9331
   34MOL0     H 4562   5.505   3.773   1.570 -1.8166  1.1029 -0.2527
   34MOL0     H 4563   5.436   3.744   1.411  1.1015 -0.2952 -0.8878
   34MOL0     H 4564   5.457   3.527   1.569  2.5174 -0.7835  1.2852
   34MOL0     H 4565   5.625   3.545   1.547 -0.9806  1.0602  1.4351
   34MOL0     H 4566   5.460   3.522   1.295  2.0006 -2.9033 -2.4401
   34MOL0     H 4567   5.632   3.490   1.317  0.6862 -2.2184 -1.1394
   34MOL0     H 4568   5.401   3.311   1.413 -0.4568 -0.4517  1.4183
   34MOL0     H 4569   5.564   3.319   1.484  1.0562 -0.7179 -1.3081
   34MOL0     H 4570   5.673   3.266   1.273 -0.8056  0.1918 -1.9279
   34MOL0     H 4571   5.523   3.254   1.191 -0.1398 -1.7356  0.9470
   34MOL0     H 4572   6.085   3.992   1.347 -2.0934 -2.1474  1.7225
   34MOL0     H 4573   6.293   4.143   1.343 -1.1290 -3.1730 -0.7628
   34MOL0     H 4574   6.509   4.440   1.712 -1.1480 -4.5676 -1.3579
   34MOL0     H 4575   6.706   4.590   1.739 -4.0836  0.3509 -0.2440
   34MOL0     H 4576   7.131   3.892   0.792 -1.4673  0.2976 -0.3731
   34MOL0     H 4577   6.939   3.732   0.774  0.7922 -0.9774  0.1751
   34MOL0     H 4578   6.527   3.618   0.991  1.1741 -0.0381  1.4497
   34MOL0     H 4579   6.333   3.500   0.945  0.1100 -0.3220  0.6086
   34MOL0     H 4580   6.180   3.326   0.801  0.6817 -0.2008  0.0201
   34MOL0     H 4581   6.141   3.156   0.847  0.3952  0.3804 -0.7880
   34MOL0     H 4582   6.162   3.387   1.041 -1.7148 -0.1713 -0.4355
   34MOL0     H 4583   6.169   3.208   1.082 -0.1946 -0.7961 -0.4551
   34MOL0     H 4584   5.944   3.181   0.981  0.2393  0.6465 -1.3246
   34MOL0     H 4585   5.937   3.351   0.953 -0.0825  0.9783  1.0075
   34MOL0     H 4586   5.959   3.207   1.216  1.4606  0.4177 -0.4884
   34MOL0     H 4587   5.808   3.238   1.134  1.2389 -3.4073 -0.0086
   34MOL0     H 4588   5.931   3.615   1.293 -2.5099  0.9792 -0.3612
   34MOL0     H 4589   6.580   3.144   0.900  0.8806 -0.5308  3.2481
   34MOL0     H 4590   6.770   3.274   0.897  0.1124  1.5281 -0.9567
   35MOL0     O 4591   0.492   7.779   7.525 -0.2863 -0.2382 -0.5580
   35MOL0     C 4592   0.434   7.784   7.631  0.2105 -0.9365  0.2388
   35MOL0     O 4593   0.321   7.853   7.649  0.0178 -0.1962  0.0232
   35MOL0     C 4594   0.248   7.909   7.553  0.8126 -1.1779 -0.1562
   35MOL0     C 4595   0.112   7.896   7.561 -0.3844 -0.1286  0.0529
   35MOL0     C 4596   0.028   7.952   7.470  0.0815 -0.5772  0.4967
   35MOL0     C 4597   0.083   8.031   7.371  0.2610  0.1266 -0.6042
   35MOL0     O 4598  -0.003   8.086   7.285 -0.2699  0.0263 -0.0157
   35MOL0     C 4599   0.025   8.225   7.261  0.0195 -0.2699  0.7843
   35MOL0     C 4600  -0.097   8.298   7.193  0.1149 -0.4686 -0.1247
   35MOL0     C 4601  -0.229   8.279   7.275  0.0972  0.4311  0.3278
   35MOL0     C 4602  -0.332   8.359   7.197 -0.8182 -0.0042 -0.1298
   35MOL0     C 4603  -0.456   8.348   7.275  0.7052 -0.0664 -0.4236
   35MOL0     C 4604  -0.521   8.202   7.257 -0.6612  0.2994  0.3373
   35MOL0     C 4605  -0.665   8.200   7.299 -0.4889 -0.4714 -0.6755
   35MOL0     C 4606  -0.715   8.063   7.299 -0.1596 -0.8126  0.1673
   35MOL0     N 4607  -0.852   8.058   7.340 -0.1999  0.4997  0.0782
   35MOL0     C 4608  -0.896   8.063   7.474  0.4252 -0.8683 -0.7070
   35MOL0     C 4609  -1.032   8.054   7.466 -0.8583 -0.6999  0.4302
   35MOL0     C 4610  -1.122   8.066   7.583  0.4746 -0.2317 -0.6170
   35MOL0     C 4611  -1.243   8.154   7.574  0.1141  0.1870 -0.3119
   35MOL0     C 4612  -1.340   8.122   7.688 -0.3772  0.0947  0.2470
   35MOL0     C 4613  -1.459   8.213   7.663 -0.0643  0.1883  0.2974
   35MOL0     O 4614  -1.553   8.201   7.762 -0.2800  0.6153  0.0807
   35MOL0     C 4615  -1.680   8.230   7.731  0.4493 -0.2092 -0.0898
   35MOL0     C 4616  -1.730   8.314   7.634  0.7330 -0.0940  0.4781
   35MOL0     C 4617  -1.867   8.338   7.620  0.3639  0.0011  1.1944
   35MOL0     C 4618  -1.921   8.437   7.510  0.4989 -0.3919 -0.7750
   35MOL0     C 4619  -1.959   8.269   7.700 -0.3290  0.0924  0.6396
   35MOL0     C 4620  -2.103   8.298   7.692  0.1584 -0.7187 -1.3347
   35MOL0     O 4621  -2.135   8.431   7.700  0.4580 -0.0250  0.3888
   35MOL0     C 4622  -2.270   8.460   7.713 -1.0017 -0.2960  0.3099
   35MOL0     C 4623  -2.333   8.512   7.607  0.3204  0.5909  0.2798
   35MOL0     C 4624  -2.463   8.557   7.611  0.2146 -0.8266  0.5438
   35MOL0     C 4625  -2.546   8.536   7.722 -0.4910  0.2677 -0.0984
   35MOL0     O 4626  -2.670   8.591   7.735  0.3057 -0.6225  0.2212
   35MOL0     C 4627  -2.777   8.562   7.633 -0.7977 -0.4714 -0.2635
   35MOL0     C 4628  -2.817   8.418   7.640 -0.3308 -0.3147 -0.5607
   35MOL0     C 4629  -2.736   8.330   7.552  0.6535  0.8316 -0.3289
   35MOL0     C 4630  -2.775   8.187   7.565 -0.0167 -0.4487 -0.5254
   35MOL0     C 4631  -2.694   8.092   7.479  0.7220  0.2582  0.4091
   35MOL0     C 4632  -2.560   8.061   7.552  0.5205 -0.3929  0.0348
   35MOL0     C 4633  -2.482   7.951   7.475  0.1314 -0.5254  0.0692
   35MOL0     C 4634  -2.454   7.970   7.323  0.2704  0.1724 -0.6240
   35MOL0    Cl 4635  -2.342   8.123   7.318 -0.0535  0.2785 -0.4042
   35MOL0     C 4636  -2.478   8.479   7.837 -0.6854  0.5953  0.1711
   35MOL0     C 4637  -2.340   8.448   7.830  0.5467 -0.8897 -0.4753
   35MOL0     O 4638  -2.180   8.205   7.700 -0.7365 -0.1893 -0.3439
   35MOL0     C 4639  -1.913   8.180   7.797 -0.5376 -0.0653 -0.7344
   35MOL0     C 4640  -1.776   8.157   7.806  0.6448  0.1072  0.2516
   35MOL0     N 4641  -1.065   8.033   7.336 -0.5777  0.1053  0.5335
   35MOL0     N 4642  -0.958   8.047   7.261 -0.6564  0.1446  0.6926
   35MOL0     C 4643   0.227   8.043   7.362  0.1038  0.1376 -0.1506
   35MOL0     C 4644   0.306   7.980   7.457  0.1465  0.6573 -0.0581
   35MOL0     C 4645   0.476   7.697   7.745  0.6630  1.0309  0.2626
   35MOL0     C 4646   0.430   7.725   7.871  0.5227 -0.0586  0.1155
   35MOL0     C 4647   0.468   7.651   7.979 -0.0645  0.8832  0.4276
   35MOL0     C 4648   0.558   7.543   7.956 -0.2555  0.4906  0.6368
   35MOL0     O 4649   0.590   7.463   8.066  0.2014 -0.7501 -1.0311
   35MOL0     C 4650   0.539   7.333   8.062 -0.2070  0.6318  0.3887
   35MOL0     C 4651   0.585   7.227   8.168 -0.4281  0.2581 -0.2131
   35MOL0     C 4652   0.732   7.247   8.214  0.1696 -0.2851  0.1033
   35MOL0     C 4653   0.837   7.148   8.148  0.1686 -0.0306 -0.0974
   35MOL0     C 4654   0.816   7.006   8.201 -0.4512 -0.1295  0.4300
   35MOL0     C 4655   0.806   6.899   8.259  0.8107  0.2874 -0.5069
   35MOL0     C 4656   0.610   7.513   7.830  0.1919  0.1609 -0.0517
   35MOL0     C 4657   0.564   7.587   7.725 -0.8353  0.1322  0.0367
   35MOL0     H 4658   0.077   7.848   7.652 -3.7572 -2.4957 -2.2291
   35MOL0     H 4659  -0.080   7.950   7.477 -0.0199 -0.2261 -0.6411
   35MOL0     H 4660   0.058   8.278   7.350 -0.1331 -0.6905  1.0937
   35MOL0     H 4661   0.106   8.222   7.188  0.1404 -0.5108  0.9299
   35MOL0     H 4662  -0.080   8.405   7.184 -0.5223 -0.4671 -1.6793
   35MOL0     H 4663  -0.106   8.250   7.095  0.9155  0.1840 -0.5259
   35MOL0     H 4664  -0.250   8.171   7.274  2.7459 -0.1482  0.3536
   35MOL0     H 4665  -0.229   8.311   7.379  1.1666 -0.2456  0.5472
   35MOL0     H 4666  -0.301   8.463   7.185  2.8969 -0.9717  0.0264
   35MOL0     H 4667  -0.353   8.314   7.099 -3.8233  2.1181 -0.6272
   35MOL0     H 4668  -0.441   8.369   7.381 -0.5103  2.9953 -0.7694
   35MOL0     H 4669  -0.526   8.417   7.226  1.2403 -0.2420 -1.4572
   35MOL0     H 4670  -0.512   8.170   7.152  1.8644 -1.2001  0.9310
   35MOL0     H 4671  -0.464   8.130   7.316 -2.1304 -2.8561 -1.8056
   35MOL0     H 4672  -0.678   8.241   7.399  0.4763  0.4600 -0.9171
   35MOL0     H 4673  -0.737   8.250   7.233 -1.8983 -2.0386 -0.4124
   35MOL0     H 4674  -0.646   8.001   7.358 -1.0244 -1.9428  0.0273
   35MOL0     H 4675  -0.698   8.024   7.199  1.0762 -3.5125  1.3321
   35MOL0     H 4676  -0.845   8.074   7.569 -3.8801  3.8851  1.5288
   35MOL0     H 4677  -1.157   7.964   7.602  1.1245 -0.1501  1.2268
   35MOL0     H 4678  -1.071   8.084   7.678  2.7459  0.8243 -1.9688
   35MOL0     H 4679  -1.299   8.142   7.480  0.1499  1.3809 -0.4980
   35MOL0     H 4680  -1.199   8.254   7.580 -0.0880  0.1930  3.3214
   35MOL0     H 4681  -1.299   8.163   7.781  0.6117  2.1664 -1.0311
   35MOL0     H 4682  -1.367   8.017   7.697  0.8068 -0.0769  2.2651
   35MOL0     H 4683  -1.511   8.176   7.574 -1.0516 -3.1278  2.0637
   35MOL0     H 4684  -1.436   8.317   7.641 -2.2449  0.4855 -0.9455
   35MOL0     H 4685  -1.651   8.365   7.579  4.4020 -0.0573  5.1603
   35MOL0     H 4686  -1.848   8.472   7.437  0.7982 -2.9554 -1.8019
   35MOL0     H 4687  -1.994   8.391   7.443 -0.4063 -1.5499  0.9160
   35MOL0     H 4688  -1.961   8.525   7.562 -2.7579 -0.5395 -2.7548
   35MOL0     H 4689  -2.277   8.512   7.514 -1.8658  1.8791 -1.1323
   35MOL0     H 4690  -2.481   8.612   7.519  1.5779  2.5990  2.1452
   35MOL0     H 4691  -2.860   8.630   7.654 -1.5258 -1.1394 -0.9177
   35MOL0     H 4692  -2.750   8.596   7.533 -0.8330  0.4833  0.0481
   35MOL0     H 4693  -2.806   8.384   7.743  0.2694 -0.4089 -0.6486
   35MOL0     H 4694  -2.924   8.413   7.619  0.2541 -4.4479 -3.9715
   35MOL0     H 4695  -2.630   8.333   7.578  1.6276 -0.7874 -3.6285
   35MOL0     H 4696  -2.743   8.358   7.447  1.3279  2.6046  0.0697
   35MOL0     H 4697  -2.780   8.155   7.669 -2.0670 -2.0810 -1.0579
   35MOL0     H 4698  -2.879   8.176   7.533  0.3703 -1.0995 -1.6342
   35MOL0     H 4699  -2.671   8.139   7.383  0.1059  2.0864  1.0945
   35MOL0     H 4700  -2.747   7.999   7.459  0.9870  0.2712 -0.3675
   35MOL0     H 4701  -2.505   8.154   7.568 -1.4018  0.6314  1.0285
   35MOL0     H 4702  -2.586   8.018   7.649 -1.5150  0.9004  0.1252
   35MOL0     H 4703  -2.539   7.857   7.483 -2.5872  0.9419 -0.6751
   35MOL0     H 4704  -2.386   7.930   7.522 -0.7406 -2.4268  1.1093
   35MOL0     H 4705  -2.538   7.973   7.254  0.7503 -0.4027 -1.2399
   35MOL0     H 4706  -2.393   7.885   7.291  1.2055  0.1915  0.9949
   35MOL0     H 4707  -2.521   8.458   7.935 -0.4713  0.9507  0.3440
   35MOL0     H 4708  -2.308   8.411   7.928 -4.3921 -0.9327  1.3929
   35MOL0     H 4709  -1.985   8.131   7.862 -1.6610 -1.3102 -2.8043
   35MOL0     H 4710  -1.738   8.102   7.891  0.3667 -0.6143 -0.0909
   35MOL0     H 4711   0.279   8.101   7.286  1.0881  0.4800  0.7489
   35MOL0     H 4712   0.410   8.006   7.468  0.5150 -0.8347  0.1630
   35MOL0     H 4713   0.354   7.802   7.881  1.2906  0.9270 -1.3601
   35MOL0     H 4714   0.438   7.666   8.082 -1.8734 -0.6779  0.1903
   35MOL0     H 4715   0.430   7.344   8.062 -0.6863 -2.9852 -0.7858
   35MOL0     H 4716   0.558   7.285   7.966 -1.2127  0.2479  0.3634
   35MOL0     H 4717   0.580   7.130   8.117  4.2457 -0.2634 -0.1147
   35MOL0     H 4718   0.510   7.239   8.247  0.3810  2.7045  0.2588
   35MOL0     H 4719   0.746   7.232   8.321  2.0698  1.2634  0.1295
   35MOL0     H 4720   0.760   7.349   8.185 -1.2518 -0.2741 -1.3838
   35MOL0     H 4721   0.943   7.169   8.161  0.1801 -0.3802  0.3991
   35MOL0     H 4722   0.824   7.146   8.040  0.5286  1.9461 -0.2136
   35MOL0     H 4723   0.813   6.799   8.297 -0.3701  1.2247  2.4722
   35MOL0     H 4724   0.684   7.439   7.803  5.8493  4.6679  1.1664
   35MOL0     H 4725   0.623   7.570   7.635  2.1720  0.0486  1.9028
   36MOL0     O 4726   1.742   7.643  10.877 -0.8111  0.4476  0.0122
   36MOL0     C 4727   1.805   7.537  10.851 -0.0834 -0.8002 -1.5528
   36MOL0     O 4728   1.755   7.424  10.796 -0.8050  0.5323  0.0874
   36MOL0     C 4729   1.619   7.404  10.795 -0.5631 -0.4850 -0.5119
   36MOL0     C 4730   1.526   7.449  10.887  0.5131 -0.3361  0.2352
   36MOL0     C 4731   1.399   7.402  10.887 -0.2326  0.4912  0.4279
   36MOL0     C 4732   1.349   7.313  10.790  1.6830  0.3799  0.1605
   36MOL0     O 4733   1.215   7.272  10.780 -0.0103 -0.9241 -0.1705
   36MOL0     C 4734   1.116   7.372  10.801  0.4685  0.1973  0.1617
   36MOL0     C 4735   0.978   7.299  10.845 -0.7407  0.2744 -0.7713
   36MOL0     C 4736   1.007   7.223  10.979  0.3491  0.0222 -0.3485
   36MOL0     C 4737   0.868   7.190  11.043 -0.5490 -0.4759 -0.0015
   36MOL0     C 4738   0.879   7.104  11.165 -0.7051  0.2085 -0.2990
   36MOL0     C 4739   0.954   6.965  11.149  0.6163  1.2066  0.2944
   36MOL0     C 4740   1.002   6.917  11.291  0.2126 -0.1138 -1.2040
   36MOL0     C 4741   1.032   6.770  11.295  0.0060 -0.2333 -0.2854
   36MOL0     N 4742   0.913   6.689  11.291 -0.0120  0.2776  0.2185
   36MOL0     C 4743   0.836   6.661  11.398  1.5634  0.2648 -0.2854
   36MOL0     C 4744   0.732   6.593  11.354  0.1816 -0.3059  0.2926
   36MOL0     C 4745   0.611   6.548  11.428 -0.3875 -1.0511  0.0948
   36MOL0     C 4746   0.525   6.466  11.338 -0.2430 -0.5807 -0.0310
   36MOL0     C 4747   0.398   6.416  11.416  0.0600  0.0260 -0.6878
   36MOL0     C 4748   0.298   6.521  11.460 -0.5089 -0.3267 -0.1597
   36MOL0     O 4749   0.194   6.449  11.520  0.6478  0.7894  0.5490
   36MOL0     C 4750   0.059   6.475  11.485 -0.0205  1.1931 -0.5247
   36MOL0     C 4751   0.012   6.469  11.353  1.2071 -0.3874 -0.9881
   36MOL0     C 4752  -0.120   6.502  11.317  0.4171  0.7164 -1.3016
   36MOL0     C 4753  -0.147   6.511  11.173 -0.4268  0.4620 -0.6623
   36MOL0     C 4754  -0.208   6.544  11.426 -0.5326  0.4122  0.3766
   36MOL0     C 4755  -0.333   6.599  11.406  0.6461 -0.4758  0.6354
   36MOL0     O 4756  -0.357   6.716  11.479  0.3338  0.5378  0.6183
   36MOL0     C 4757  -0.488   6.763  11.480 -0.1223 -0.2966 -0.6528
   36MOL0     C 4758  -0.535   6.865  11.402  0.8047 -0.2149 -0.3269
   36MOL0     C 4759  -0.665   6.917  11.415 -0.5487  0.2912  0.8357
   36MOL0     C 4760  -0.761   6.868  11.509 -0.5013 -0.5477  0.0339
   36MOL0     O 4761  -0.885   6.931  11.528 -0.3539  0.6917  0.0500
   36MOL0     C 4762  -0.961   6.875  11.637  0.1123 -0.5287  0.0513
   36MOL0     C 4763  -1.096   6.947  11.642  0.6721 -0.5414  1.0924
   36MOL0     C 4764  -1.174   6.904  11.768  0.9309 -0.5126 -0.4263
   36MOL0     C 4765  -1.108   6.958  11.899 -0.0447  0.3936 -0.4152
   36MOL0     C 4766  -1.211   7.004  12.008 -0.0868  0.8376 -0.2401
   36MOL0     C 4767  -1.306   6.887  12.041 -0.5025 -0.2456  0.5091
   36MOL0     C 4768  -1.388   6.898  12.173  0.5323  0.7255  0.3611
   36MOL0     C 4769  -1.487   6.780  12.181  0.0976 -0.4110  0.4782
   36MOL0    Cl 4770  -1.607   6.781  12.041  0.3637 -0.0547 -0.4433
   36MOL0     C 4771  -0.714   6.757  11.584  1.0795 -1.1063 -0.7028
   36MOL0     C 4772  -0.576   6.716  11.574  0.6523 -0.0031 -0.3070
   36MOL0     O 4773  -0.418   6.541  11.329 -0.4400 -0.6705 -0.5839
   36MOL0     C 4774  -0.162   6.531  11.557  0.3385 -0.7154  0.1737
   36MOL0     C 4775  -0.029   6.483  11.586 -0.4118 -0.7202  0.1724
   36MOL0     N 4776   0.754   6.565  11.220 -0.1698  0.0919  0.1122
   36MOL0     N 4777   0.855   6.627  11.177  0.5178  0.2701  0.2690
   36MOL0     C 4778   1.441   7.277  10.693  0.4342  0.5211  0.1602
   36MOL0     C 4779   1.575   7.317  10.707  0.0648 -0.0183  0.5572
   36MOL0     C 4780   1.947   7.549  10.858 -0.1701 -0.2772 -0.2062
   36MOL0     C 4781   2.024   7.440  10.811 -0.4156  0.7259  1.0239
   36MOL0     C 4782   2.166   7.442  10.832 -0.1384 -0.1892  0.3537
   36MOL0     C 4783   2.231   7.556  10.873 -0.9827 -0.0083 -0.5328
   36MOL0     O 4784   2.367   7.566  10.873 -0.1925  0.4455  0.8292
   36MOL0     C 4785   2.433   7.669  10.955  0.7458  0.0246 -0.2018
   36MOL0     C 4786   2.577   7.686  10.910  0.2154  0.4213  0.1713
   36MOL0     C 4787   2.661   7.563  10.945  0.4360 -0.0243  0.4300
   36MOL0     C 4788   2.808   7.577  10.913 -0.5387 -0.2620 -0.1957
   36MOL0     C 4789   2.872   7.469  10.829  0.0625 -0.0285 -0.3064
   36MOL0     C 4790   2.909   7.375  10.763 -0.3503  0.3350 -0.5503
   36MOL0     C 4791   2.145   7.657  10.926  0.2521  0.0462  0.0353
   36MOL0     C 4792   2.010   7.659  10.916 -1.1636 -0.8472 -0.1673
   36MOL0     H 4793   1.552   7.526  10.959  1.2993  0.1358 -0.5217
   36MOL0     H 4794   1.334   7.450  10.959 -0.3851  2.1092 -0.7570
   36MOL0     H 4795   1.149   7.444  10.877 -1.5347  1.1131  0.2232
   36MOL0     H 4796   1.093   7.424  10.708  0.9372  2.0829  1.0497
   36MOL0     H 4797   0.896   7.371  10.859 -1.8460 -0.9734 -0.5888
   36MOL0     H 4798   0.936   7.233  10.769 -1.5768 -2.6244  1.9599
   36MOL0     H 4799   1.056   7.129  10.950  1.2055  0.8172 -1.5529
   36MOL0     H 4800   1.059   7.283  11.053 -0.9408  0.0371  0.5767
   36MOL0     H 4801   0.809   7.280  11.056 -0.1350  0.3581 -3.0400
   36MOL0     H 4802   0.820   7.141  10.957  0.4466  1.3616 -1.6861
   36MOL0     H 4803   0.939   7.162  11.235  0.8204 -2.2450  0.5547
   36MOL0     H 4804   0.779   7.093  11.208  0.2280 -1.5431  1.5995
   36MOL0     H 4805   0.877   6.904  11.100  1.1877  1.6171 -1.1880
   36MOL0     H 4806   1.041   6.973  11.083 -0.0840 -2.4064 -1.3085
   36MOL0     H 4807   1.097   6.969  11.309 -1.5178  2.5707  1.1670
   36MOL0     H 4808   0.916   6.931  11.358 -0.1330 -1.0989 -1.4274
   36MOL0     H 4809   1.079   6.743  11.390 -0.4252 -2.4644 -0.6365
   36MOL0     H 4810   1.107   6.739  11.222  3.4415 -0.9533  3.2354
   36MOL0     H 4811   0.849   6.678  11.504  0.5851 -0.5630 -0.0100
   36MOL0     H 4812   0.628   6.494  11.522  2.7692 -2.3596 -1.0779
   36MOL0     H 4813   0.558   6.638  11.462  3.2565 -0.1488  4.3006
   36MOL0     H 4814   0.586   6.380  11.309  2.5687  0.5159  2.2475
   36MOL0     H 4815   0.487   6.517  11.249 -2.4849 -1.9818  0.0390
   36MOL0     H 4816   0.433   6.361  11.504 -4.1652 -0.7181  0.7571
   36MOL0     H 4817   0.345   6.336  11.362 -1.4556 -1.6423  2.9136
   36MOL0     H 4818   0.262   6.581  11.376  0.4285  1.8722  0.9354
   36MOL0     H 4819   0.354   6.586  11.528  0.2499  1.5772 -2.4854
   36MOL0     H 4820   0.082   6.441  11.275  0.1114 -5.2737 -0.5165
   36MOL0     H 4821  -0.217   6.593  11.154 -1.4491 -0.7778 -2.4891
   36MOL0     H 4822  -0.057   6.535  11.115  0.1000  1.6684  0.5797
   36MOL0     H 4823  -0.192   6.415  11.148  0.2307 -0.0672  0.1256
   36MOL0     H 4824  -0.475   6.878  11.313  0.3787 -4.2603 -1.3611
   36MOL0     H 4825  -0.706   6.998  11.356  0.7474 -0.4702 -1.2431
   36MOL0     H 4826  -0.980   6.767  11.636 -1.0955 -0.3836  2.1170
   36MOL0     H 4827  -0.906   6.888  11.731  2.4904 -1.2513 -1.1515
   36MOL0     H 4828  -1.086   7.056  11.634 -0.1027 -0.3136  2.8096
   36MOL0     H 4829  -1.161   6.929  11.556  0.9199  0.3869  0.6960
   36MOL0     H 4830  -1.169   6.796  11.786  2.3262 -0.1038  2.0154
   36MOL0     H 4831  -1.275   6.945  11.757  1.2607  1.2228  2.1484
   36MOL0     H 4832  -1.042   6.876  11.930  0.3753  0.9667  0.2501
   36MOL0     H 4833  -1.046   7.043  11.868 -1.4596  0.4912 -3.3183
   36MOL0     H 4834  -1.275   7.090  11.986 -0.3748  0.5435 -0.5788
   36MOL0     H 4835  -1.163   7.039  12.099  1.2409  1.3619 -1.1036
   36MOL0     H 4836  -1.366   6.859  11.954  1.8468  0.7380 -1.5551
   36MOL0     H 4837  -1.242   6.800  12.055  1.3693  1.1159  0.7669
   36MOL0     H 4838  -1.441   6.994  12.174  0.2064  0.5900 -1.1289
   36MOL0     H 4839  -1.323   6.882  12.260  0.7415 -0.6978 -0.0310
   36MOL0     H 4840  -1.542   6.781  12.275 -0.3407 -0.1787  0.2192
   36MOL0     H 4841  -1.428   6.688  12.179  0.2285 -0.3237  0.1099
   36MOL0     H 4842  -0.786   6.694  11.634 -0.0124  0.0893 -0.7367
   36MOL0     H 4843  -0.557   6.635  11.644 -0.2392  0.8119  0.9375
   36MOL0     H 4844  -0.218   6.574  11.639  0.9630 -1.0315  0.7804
   36MOL0     H 4845  -0.005   6.477  11.692 -1.3700  1.9115  0.6180
   36MOL0     H 4846   1.393   7.213  10.621 -1.7559 -1.8499  3.4324
   36MOL0     H 4847   1.637   7.279  10.626  1.3584 -3.4815  2.9016
   36MOL0     H 4848   1.989   7.342  10.779 -0.4181  1.0114  0.1200
   36MOL0     H 4849   2.230   7.359  10.807 -2.1788 -1.8610  0.3626
   36MOL0     H 4850   2.373   7.760  10.968 -0.8906 -1.4091  4.2338
   36MOL0     H 4851   2.436   7.637  11.059  1.3585 -0.6973 -0.4350
   36MOL0     H 4852   2.608   7.782  10.953  1.6168  0.7534 -1.4962
   36MOL0     H 4853   2.573   7.705  10.803  1.1119  5.3182  0.7822
   36MOL0     H 4854   2.621   7.483  10.883 -0.9653  0.7177  0.3375
   36MOL0     H 4855   2.663   7.527  11.049  1.0556 -1.1159  0.0546
   36MOL0     H 4856   2.864   7.576  11.007  2.3007 -2.1601 -1.7831
   36MOL0     H 4857   2.832   7.670  10.861 -0.9032 -1.1761 -2.0528
   36MOL0     H 4858   2.935   7.293  10.700 -0.0341  0.5562 -0.7066
   36MOL0     H 4859   2.186   7.751  10.962  1.2962  0.0766 -1.1681
   36MOL0     H 4860   1.951   7.743  10.954 -2.0688 -0.7762 -1.6709
   37MOL0     O 4861   7.867   7.543   9.058  0.5921  0.1810 -0.7050
   37MOL0     C 4862   7.954   7.560   8.968 -0.6150  0.6859  0.2622
   37MOL0     O 4863   7.929   7.604   8.844 -0.2783  0.2900 -1.1314
   37MOL0     C 4864   7.809   7.650   8.816  0.1742  0.5838 -0.1114
   37MOL0     C 4865   7.807   7.775   8.755  0.1546 -0.7253 -0.1816
   37MOL0     C 4866   7.685   7.842   8.729 -0.0951  0.3234 -0.4466
   37MOL0     C 4867   7.564   7.779   8.750  0.2008 -0.8079  0.7790
   37MOL0     O 4868   7.446   7.840   8.729 -1.0303 -0.1716  0.2107
   37MOL0     C 4869   7.440   7.962   8.666 -0.9821 -0.5333  0.0941
   37MOL0     C 4870   7.308   8.009   8.598 -0.0708  0.3327 -0.2969
   37MOL0     C 4871   7.233   7.896   8.522  0.0532  0.7327  0.3571
   37MOL0     C 4872   7.143   7.804   8.609  0.0861  0.1045  0.3888
   37MOL0     C 4873   7.029   7.864   8.679 -0.2298 -0.4249  0.1053
   37MOL0     C 4874   6.925   7.940   8.590  0.2618 -0.0696 -0.0290
   37MOL0     C 4875   6.944   8.090   8.577  0.1028 -0.0702  0.1978
   37MOL0     C 4876   6.828   8.150   8.492  0.6514 -0.2432  0.0628
   37MOL0     N 4877   6.694   8.130   8.550  0.0452  0.0081  0.0711
   37MOL0     C 4878   6.642   8.199   8.658  0.2342 -0.2215  0.1590
   37MOL0     C 4879   6.529   8.138   8.690  0.4477  0.4399  0.3452
   37MOL0     C 4880   6.455   8.169   8.813  0.8111  0.0958 -0.4803
   37MOL0     C 4881   6.352   8.285   8.793  0.4385  0.3821  0.3791
   37MOL0     C 4882   6.280   8.313   8.926  0.4286 -0.2786  0.3820
   37MOL0     C 4883   6.141   8.246   8.915  0.7031 -0.5934 -0.3373
   37MOL0     O 4884   6.068   8.272   9.038  0.7775  0.1363 -0.1552
   37MOL0     C 4885   5.926   8.247   9.030 -0.1599  0.1385 -0.7433
   37MOL0     C 4886   5.867   8.123   8.998 -0.3169  0.1351 -1.0746
   37MOL0     C 4887   5.733   8.091   9.003  0.5139 -0.6023 -0.1221
   37MOL0     C 4888   5.683   7.946   8.985  0.2130  0.1568  0.6839
   37MOL0     C 4889   5.644   8.194   9.050  0.2395  0.3415  0.4441
   37MOL0     C 4890   5.494   8.182   9.038  1.0829  0.3910 -0.5088
   37MOL0     O 4891   5.423   8.279   9.111  0.9571  0.6084  0.1465
   37MOL0     C 4892   5.293   8.300   9.082 -0.3744  0.5093  0.7420
   37MOL0     C 4893   5.197   8.208   9.127  0.4556 -0.4251 -0.2289
   37MOL0     C 4894   5.069   8.218   9.092 -0.0543 -1.0326 -0.6772
   37MOL0     C 4895   5.021   8.325   9.018  0.0889  0.0867 -0.8372
   37MOL0     O 4896   4.887   8.334   8.984  0.1247  0.1162 -0.2037
   37MOL0     C 4897   4.830   8.462   8.954  0.1551  0.2897 -0.3384
   37MOL0     C 4898   4.688   8.455   8.890 -1.1676 -0.8531 -0.1115
   37MOL0     C 4899   4.590   8.383   8.980  0.6088 -0.1597 -0.3246
   37MOL0     C 4900   4.448   8.440   8.953  0.5786  0.0656  0.2629
   37MOL0     C 4901   4.351   8.355   9.030  0.2928  0.6338  0.4723
   37MOL0     C 4902   4.221   8.365   8.958  0.3013 -0.4151 -0.3627
   37MOL0     C 4903   4.117   8.306   9.051  0.4513  0.3613 -0.5643
   37MOL0     C 4904   3.983   8.321   8.990 -0.1041  0.9190  0.1757
   37MOL0    Cl 4905   3.847   8.257   9.096  0.2028  0.2518 -0.1010
   37MOL0     C 4906   5.119   8.421   8.979 -0.7647 -0.2958 -0.1747
   37MOL0     C 4907   5.257   8.409   9.013  0.0465  0.1661  0.4820
   37MOL0     O 4908   5.439   8.105   8.963 -0.2961  0.0785  0.5483
   37MOL0     C 4909   5.691   8.319   9.085  0.2770 -0.3337 -0.6591
   37MOL0     C 4910   5.831   8.343   9.077  0.0776  0.2434  0.3164
   37MOL0     N 4911   6.519   8.022   8.610 -0.3355 -0.3925  0.2699
   37MOL0     N 4912   6.610   8.024   8.521 -0.0110 -0.1784 -0.0381
   37MOL0     C 4913   7.570   7.649   8.803  0.7741 -0.5303  0.0529
   37MOL0     C 4914   7.686   7.594   8.852  0.5262  0.3483  0.0290
   37MOL0     C 4915   8.095   7.509   9.003 -1.0758 -0.1037  0.3501
   37MOL0     C 4916   8.213   7.539   8.915 -0.2682 -0.6019 -0.5442
   37MOL0     C 4917   8.342   7.486   8.943  0.0642 -0.1315 -1.1618
   37MOL0     C 4918   8.350   7.402   9.058 -0.9852  1.2091 -0.1206
   37MOL0     O 4919   8.467   7.344   9.103 -0.5988  0.3237 -0.7486
   37MOL0     C 4920   8.587   7.346   9.023 -1.2598  0.2439 -0.2325
   37MOL0     C 4921   8.719   7.299   9.091  0.3061 -0.2944 -0.2325
   37MOL0     C 4922   8.692   7.170   9.171 -0.1378 -0.3490  0.7179
   37MOL0     C 4923   8.663   7.037   9.094  0.1713  0.7431 -0.4274
   37MOL0     C 4924   8.760   7.016   8.980 -0.4910 -0.3092 -0.8782
   37MOL0     C 4925   8.847   7.015   8.899 -0.2941  0.1737 -0.4161
   37MOL0     C 4926   8.236   7.382   9.141 -0.1180  0.3343  0.4797
   37MOL0     C 4927   8.108   7.436   9.117 -0.3043 -0.1645 -0.0155
   37MOL0     H 4928   7.908   7.805   8.727 -0.0097 -1.8006 -2.2044
   37MOL0     H 4929   7.697   7.945   8.695 -1.1436  1.3764  2.0889
   37MOL0     H 4930   7.467   8.045   8.732  0.3291 -0.5093 -0.4371
   37MOL0     H 4931   7.517   7.958   8.588  0.9359  0.4147  1.8119
   37MOL0     H 4932   7.247   8.045   8.681  1.5617 -1.0498  1.6013
   37MOL0     H 4933   7.338   8.090   8.530 -1.3695  0.0238 -1.2854
   37MOL0     H 4934   7.176   7.948   8.444  0.0548 -0.5104 -0.4959
   37MOL0     H 4935   7.309   7.832   8.476 -1.9875  0.0787 -2.3705
   37MOL0     H 4936   7.092   7.725   8.553 -0.9338 -0.3554  1.8840
   37MOL0     H 4937   7.210   7.764   8.685 -1.1206  1.1942  2.1039
   37MOL0     H 4938   6.970   7.802   8.747  3.5170 -0.3765  3.7821
   37MOL0     H 4939   7.084   7.933   8.744  0.4990 -0.4094 -0.5129
   37MOL0     H 4940   6.922   7.891   8.492  1.1571 -2.2418  0.9514
   37MOL0     H 4941   6.827   7.925   8.636  0.9143  0.1607  1.5105
   37MOL0     H 4942   6.952   8.140   8.673 -0.9699  2.7496 -1.0747
   37MOL0     H 4943   7.038   8.104   8.522 -0.1733  1.2327  0.0145
   37MOL0     H 4944   6.818   8.103   8.393 -0.1727  1.0997 -0.5170
   37MOL0     H 4945   6.846   8.255   8.471 -0.8525  0.3507  1.5496
   37MOL0     H 4946   6.688   8.284   8.707 -0.7788  1.0975 -1.0814
   37MOL0     H 4947   6.410   8.082   8.860 -0.4910  1.8703  1.7897
   37MOL0     H 4948   6.532   8.207   8.882  1.2496 -2.9642  0.8521
   37MOL0     H 4949   6.284   8.252   8.714  0.9386 -1.7242  0.7688
   37MOL0     H 4950   6.406   8.375   8.761 -0.0233  0.2835 -0.7039
   37MOL0     H 4951   6.265   8.421   8.928 -2.8037 -0.6254  0.4858
   37MOL0     H 4952   6.344   8.292   9.012  1.0110 -1.5087 -0.3338
   37MOL0     H 4953   6.158   8.138   8.911 -1.6681 -1.2714  3.2668
   37MOL0     H 4954   6.075   8.275   8.832 -0.4318  0.0395  0.7398
   37MOL0     H 4955   5.947   8.054   8.971  3.1419  2.7877  1.4393
   37MOL0     H 4956   5.768   7.878   8.980 -0.5004 -0.6853 -1.7505
   37MOL0     H 4957   5.617   7.924   9.070 -0.4601  1.0630  0.4103
   37MOL0     H 4958   5.634   7.927   8.889  0.4153  0.5089  0.5102
   37MOL0     H 4959   5.228   8.121   9.184 -1.9577 -1.6281 -0.6544
   37MOL0     H 4960   5.003   8.135   9.114  0.7495 -1.3433  0.6661
   37MOL0     H 4961   4.833   8.522   9.046  0.8411  0.9414 -0.7713
   37MOL0     H 4962   4.889   8.518   8.881 -0.4715  1.9859  0.4064
   37MOL0     H 4963   4.649   8.555   8.869  1.5131  1.1989  3.5025
   37MOL0     H 4964   4.699   8.388   8.804  1.6584 -2.5240  1.4080
   37MOL0     H 4965   4.618   8.407   9.083  0.8925 -1.5039 -0.0662
   37MOL0     H 4966   4.592   8.274   8.974 -0.0098 -0.1466 -0.8500
   37MOL0     H 4967   4.436   8.547   8.974  0.2726 -0.0279  0.5765
   37MOL0     H 4968   4.435   8.429   8.845  2.9028  2.4218 -0.3587
   37MOL0     H 4969   4.356   8.401   9.130  1.1408  3.2822 -0.6901
   37MOL0     H 4970   4.388   8.253   9.036  0.8986  0.6439 -2.0715
   37MOL0     H 4971   4.199   8.471   8.942 -0.2389 -0.3317  0.8100
   37MOL0     H 4972   4.222   8.329   8.855 -1.8451 -0.0651 -0.5642
   37MOL0     H 4973   4.117   8.355   9.148 -4.2375  1.5585 -0.9133
   37MOL0     H 4974   4.139   8.201   9.074 -2.3142 -0.8212 -2.6260
   37MOL0     H 4975   3.987   8.273   8.891  0.5027  1.7185 -0.1968
   37MOL0     H 4976   3.965   8.423   8.956  1.4012 -0.1343 -4.5518
   37MOL0     H 4977   5.115   8.519   8.932 -0.6340  0.6024  1.6333
   37MOL0     H 4978   5.341   8.473   8.985  0.4966  0.3943  2.1949
   37MOL0     H 4979   5.627   8.403   9.108 -3.4380 -2.4455 -2.3648
   37MOL0     H 4980   5.866   8.438   9.115 -1.4012  1.0078 -0.1456
   37MOL0     H 4981   7.478   7.595   8.820 -1.5383  3.3360  1.0145
   37MOL0     H 4982   7.682   7.506   8.915 -0.5987  0.6467  0.4041
   37MOL0     H 4983   8.198   7.588   8.819 -2.1121 -0.0670 -0.0398
   37MOL0     H 4984   8.437   7.511   8.897 -0.3256 -0.6103 -2.2402
   37MOL0     H 4985   8.568   7.277   8.941 -1.8930  1.8306 -1.4912
   37MOL0     H 4986   8.607   7.446   8.983  2.2220  0.5810  1.9090
   37MOL0     H 4987   8.748   7.374   9.166  0.4176 -0.8477  0.2872
   37MOL0     H 4988   8.802   7.290   9.020  1.7306  0.8474  1.2047
   37MOL0     H 4989   8.612   7.194   9.240 -0.5831  3.5258 -0.8969
   37MOL0     H 4990   8.785   7.152   9.227  2.1249 -0.8144 -2.8076
   37MOL0     H 4991   8.562   7.048   9.053  0.4628  4.5322 -0.4782
   37MOL0     H 4992   8.667   6.948   9.157 -0.1871  0.4382 -0.8328
   37MOL0     H 4993   8.932   7.021   8.834 -1.0000 -1.1125 -1.5044
   37MOL0     H 4994   8.235   7.324   9.232  0.0996  0.2302  0.4158
   37MOL0     H 4995   8.031   7.411   9.189 -0.0137 -1.3785 -0.0972
   38MOL0     O 4996   1.449   7.341   0.539  0.7291  0.2834  0.1509
   38MOL0     C 4997   1.464   7.293   0.653  0.1749 -0.0898 -0.2358
   38MOL0     O 4998   1.370   7.289   0.754 -0.3978  0.3605  0.2244
   38MOL0     C 4999   1.244   7.243   0.724 -0.3515 -0.1798 -0.7626
   38MOL0     C 5000   1.181   7.230   0.604 -0.0880 -0.5630  0.5746
   38MOL0     C 5001   1.052   7.186   0.594  0.2650  0.4075 -0.0669
   38MOL0     C 5002   0.983   7.155   0.713  0.4089 -0.3852 -0.0728
   38MOL0     O 5003   0.846   7.110   0.698 -0.0762 -0.2184  0.2547
   38MOL0     C 5004   0.791   7.028   0.806  0.0839 -0.3464  0.2958
   38MOL0     C 5005   0.645   6.990   0.789  0.5940  0.7278 -0.1347
   38MOL0     C 5006   0.560   7.114   0.778 -0.6049  1.4071  0.1413
   38MOL0     C 5007   0.422   7.073   0.830 -0.9647  0.7419  0.7926
   38MOL0     C 5008   0.313   7.146   0.753  0.0449 -0.0527  0.1225
   38MOL0     C 5009   0.177   7.092   0.793  0.8578 -0.6675 -0.2996
   38MOL0     C 5010   0.148   7.058   0.937  0.2125 -0.4253  0.9144
   38MOL0     C 5011   0.027   6.962   0.943 -0.3844 -0.9577 -1.1331
   38MOL0     N 5012  -0.098   7.036   0.926  0.1214  0.3645 -0.7171
   38MOL0     C 5013  -0.172   7.087   1.024  0.0811 -0.0158  0.2199
   38MOL0     C 5014  -0.296   7.098   0.973  0.0920  1.5428 -0.4996
   38MOL0     C 5015  -0.416   7.153   1.045 -0.2885 -0.1540 -0.1468
   38MOL0     C 5016  -0.528   7.050   1.071  0.8583  0.0680  0.5642
   38MOL0     C 5017  -0.612   7.058   1.210 -0.5300 -0.9339 -1.0968
   38MOL0     C 5018  -0.692   7.187   1.209  0.1003 -0.4111 -0.6977
   38MOL0     O 5019  -0.785   7.194   1.322 -0.2732 -0.1252 -0.6032
   38MOL0     C 5020  -0.904   7.146   1.302 -0.8028  0.0964 -0.1489
   38MOL0     C 5021  -0.988   7.147   1.184  0.1803  0.2985 -0.0928
   38MOL0     C 5022  -1.116   7.088   1.192 -1.1641 -0.6475 -0.1967
   38MOL0     C 5023  -1.192   7.095   1.060  0.9174  0.1137  0.3112
   38MOL0     C 5024  -1.157   7.029   1.306  0.1522  1.2008 -0.4936
   38MOL0     C 5025  -1.298   6.988   1.326  0.2106  0.8881 -0.4626
   38MOL0     O 5026  -1.387   7.017   1.230 -0.2245 -0.1449 -0.3815
   38MOL0     C 5027  -1.519   6.991   1.237 -0.6681  1.0822 -0.4358
   38MOL0     C 5028  -1.581   6.875   1.181 -0.3620  0.4005  0.4057
   38MOL0     C 5029  -1.714   6.848   1.194  0.1011  0.4710 -0.0409
   38MOL0     C 5030  -1.782   6.911   1.293 -0.0091 -0.3701 -0.1009
   38MOL0     O 5031  -1.910   6.875   1.339 -1.0432 -0.4119  0.5131
   38MOL0     C 5032  -2.010   6.822   1.249  0.0101 -0.3829 -0.1807
   38MOL0     C 5033  -2.132   6.891   1.292 -0.8297  0.5585 -0.1682
   38MOL0     C 5034  -2.133   7.037   1.253  0.4256  0.3763 -0.2077
   38MOL0     C 5035  -2.258   7.096   1.315 -0.0608 -0.1030 -0.4305
   38MOL0     C 5036  -2.316   7.211   1.234  0.0083 -0.0508  0.3772
   38MOL0     C 5037  -2.237   7.339   1.218  0.0513 -0.4693 -0.1965
   38MOL0     C 5038  -2.174   7.390   1.345 -0.0030  0.3278 -0.3101
   38MOL0     C 5039  -2.110   7.524   1.319  0.4571  0.4441  0.9060
   38MOL0    Cl 5040  -2.079   7.605   1.474 -0.1378 -0.2376  0.2034
   38MOL0     C 5041  -1.726   7.034   1.345  0.2474 -0.1960  0.2447
   38MOL0     C 5042  -1.601   7.078   1.310 -0.3855 -0.3015  0.1465
   38MOL0     O 5043  -1.325   6.926   1.425  0.2567  0.1036 -0.5925
   38MOL0     C 5044  -1.077   7.034   1.424 -0.7768 -0.0218  0.6078
   38MOL0     C 5045  -0.948   7.091   1.418 -0.4580  0.6424 -0.0073
   38MOL0     N 5046  -0.290   7.052   0.844 -0.0012  0.1448  0.9747
   38MOL0     N 5047  -0.171   7.011   0.818 -0.4263 -1.0377 -0.0640
   38MOL0     C 5048   1.050   7.147   0.832 -0.4881  0.4947 -0.5186
   38MOL0     C 5049   1.180   7.207   0.842  0.2745 -0.1381 -0.1906
   38MOL0     C 5050   1.591   7.242   0.694  0.0850 -0.5297 -1.9079
   38MOL0     C 5051   1.636   7.218   0.825 -0.5017 -0.2409 -0.3176
   38MOL0     C 5052   1.768   7.170   0.860  0.9719 -0.4094 -0.2493
   38MOL0     C 5053   1.859   7.159   0.759  0.9037  0.0702  0.6426
   38MOL0     O 5054   1.979   7.119   0.794  0.0035  0.3473 -0.3067
   38MOL0     C 5055   2.059   7.064   0.685 -0.5814 -0.1006 -0.1614
   38MOL0     C 5056   2.185   7.017   0.750 -0.5040 -0.0909  0.1311
   38MOL0     C 5057   2.172   6.889   0.827  0.1441  0.8421 -0.3945
   38MOL0     C 5058   2.136   6.919   0.968  0.4912  1.1557 -0.9510
   38MOL0     C 5059   2.170   6.795   1.038  0.9143 -0.8428 -0.4975
   38MOL0     C 5060   2.203   6.701   1.100  0.3643  0.3546  0.0563
   38MOL0     C 5061   1.815   7.181   0.624 -0.6226  0.5082 -0.2749
   38MOL0     C 5062   1.686   7.222   0.592  0.1600 -0.7064 -0.5616
   38MOL0     H 5063   1.226   7.257   0.509 -2.6919 -4.3298 -1.9889
   38MOL0     H 5064   1.005   7.167   0.498  0.6098 -1.3208  0.0786
   38MOL0     H 5065   0.852   6.938   0.803  0.0869 -0.3304 -0.9679
   38MOL0     H 5066   0.806   7.078   0.902  1.5292  3.1593 -1.5466
   38MOL0     H 5067   0.627   6.926   0.702 -0.9684  0.9586 -0.0070
   38MOL0     H 5068   0.620   6.928   0.875  1.3094 -1.1550 -1.2139
   38MOL0     H 5069   0.602   7.201   0.829 -0.0918  1.9689 -1.2005
   38MOL0     H 5070   0.559   7.122   0.669  2.6365 -2.3541 -0.4126
   38MOL0     H 5071   0.407   6.965   0.815  2.9346  0.3007 -1.4660
   38MOL0     H 5072   0.426   7.103   0.935  2.9970 -0.8261  1.2712
   38MOL0     H 5073   0.326   7.254   0.763  0.9967  0.1104 -2.2446
   38MOL0     H 5074   0.320   7.136   0.645  1.0044  1.4953  0.0030
   38MOL0     H 5075   0.098   7.162   0.762 -0.8278 -1.4094  2.0317
   38MOL0     H 5076   0.164   7.003   0.731 -0.9373 -0.0914 -0.8253
   38MOL0     H 5077   0.230   7.001   0.982  1.3899  0.3352 -0.1793
   38MOL0     H 5078   0.124   7.147   0.995  0.4041  0.0927  0.2205
   38MOL0     H 5079   0.025   6.904   1.036  0.0761 -0.7462 -0.9889
   38MOL0     H 5080   0.029   6.880   0.870  1.7482 -1.3266 -0.7209
   38MOL0     H 5081  -0.151   7.117   1.126 -2.4341  1.7987  0.3085
   38MOL0     H 5082  -0.394   7.206   1.138 -0.2212  0.6792 -0.6274
   38MOL0     H 5083  -0.450   7.236   0.982 -1.4592 -1.0967 -0.7962
   38MOL0     H 5084  -0.482   6.951   1.068  1.2083  0.1385 -3.8254
   38MOL0     H 5085  -0.599   7.047   0.988  0.7468 -0.5930  0.6778
   38MOL0     H 5086  -0.559   7.063   1.305  0.8423  3.6041 -1.8866
   38MOL0     H 5087  -0.690   6.981   1.212 -0.4201 -1.0384 -0.7271
   38MOL0     H 5088  -0.748   7.186   1.115  0.0568 -0.8885 -0.6728
   38MOL0     H 5089  -0.627   7.274   1.200 -0.3840 -0.1488 -1.9252
   38MOL0     H 5090  -0.964   7.201   1.093 -4.6641  1.2816 -1.0669
   38MOL0     H 5091  -1.212   6.992   1.029 -1.3476  0.3136  0.8814
   38MOL0     H 5092  -1.288   7.149   1.056  1.2946  0.7786  0.0425
   38MOL0     H 5093  -1.133   7.142   0.981  1.3018  0.3213  0.7195
   38MOL0     H 5094  -1.516   6.803   1.132 -1.7547 -1.7076  1.5055
   38MOL0     H 5095  -1.748   6.759   1.143  0.9831 -1.7661  2.9839
   38MOL0     H 5096  -1.981   6.822   1.143 -0.3643 -1.0511 -0.2908
   38MOL0     H 5097  -2.029   6.716   1.271 -0.9009  0.0354  1.1607
   38MOL0     H 5098  -2.218   6.843   1.245 -1.7997  0.7830  1.3158
   38MOL0     H 5099  -2.157   6.870   1.397  0.5492  1.7599  0.4378
   38MOL0     H 5100  -2.147   7.045   1.145 -0.0483  1.6664 -0.0648
   38MOL0     H 5101  -2.044   7.097   1.274  1.2438  0.9292 -4.4376
   38MOL0     H 5102  -2.335   7.019   1.317 -0.8768  0.5593 -3.0491
   38MOL0     H 5103  -2.242   7.133   1.417 -1.1338  0.4263 -0.4390
   38MOL0     H 5104  -2.396   7.250   1.297 -0.7485  1.8608 -1.6745
   38MOL0     H 5105  -2.351   7.171   1.139 -3.0725  1.6647  0.6519
   38MOL0     H 5106  -2.161   7.325   1.140  2.1088  1.3024  1.3562
   38MOL0     H 5107  -2.308   7.412   1.178 -1.0660  0.5621  3.3458
   38MOL0     H 5108  -2.097   7.327   1.390  0.9286  0.7579 -1.2729
   38MOL0     H 5109  -2.255   7.405   1.418  1.6811 -0.1700  1.7584
   38MOL0     H 5110  -2.181   7.577   1.255  1.4939 -0.2110 -0.8901
   38MOL0     H 5111  -2.019   7.512   1.258  0.0418  4.8749 -0.9355
   38MOL0     H 5112  -1.797   7.089   1.406 -1.5860  1.4893 -3.1329
   38MOL0     H 5113  -1.559   7.174   1.337 -1.6508  1.2713 -2.9311
   38MOL0     H 5114  -1.109   6.998   1.521 -1.2012 -1.4189 -0.0204
   38MOL0     H 5115  -0.907   7.110   1.517 -4.3975  2.0428  1.5994
   38MOL0     H 5116   0.993   7.124   0.921  0.9051 -3.3096 -0.4254
   38MOL0     H 5117   1.217   7.214   0.943 -1.7885 -0.6674  0.6431
   38MOL0     H 5118   1.565   7.240   0.905 -2.5664  1.6101 -2.4926
   38MOL0     H 5119   1.801   7.132   0.956  1.2533 -0.0817 -0.2106
   38MOL0     H 5120   2.010   6.973   0.651  2.1020 -1.6160 -0.2833
   38MOL0     H 5121   2.072   7.130   0.599  1.6424  0.0925  0.2609
   38MOL0     H 5122   2.229   7.093   0.815 -1.5700  0.3916  0.3132
   38MOL0     H 5123   2.256   6.995   0.669 -0.9272  0.1786 -0.3247
   38MOL0     H 5124   2.269   6.839   0.819  0.0560  0.8420 -1.5388
   38MOL0     H 5125   2.090   6.835   0.780  0.5983  0.6445 -0.9614
   38MOL0     H 5126   2.033   6.950   0.986  0.2807  0.6639 -1.2814
   38MOL0     H 5127   2.198   7.000   1.006  1.3491  0.2459 -0.3510
   38MOL0     H 5128   2.248   6.625   1.160  2.3281  1.7706  0.4704
   38MOL0     H 5129   1.874   7.148   0.539  0.3853  0.9931  0.2160
   38MOL0     H 5130   1.662   7.221   0.486  0.0641  0.4357 -0.5676
   39MOL0     O 5131   2.512   0.441   8.504 -0.1838 -0.6219 -0.4069
   39MOL0     C 5132   2.426   0.526   8.477  0.2702 -0.1431  0.3537
   39MOL0     O 5133   2.444   0.635   8.394  0.3811 -0.6243  0.3124
   39MOL0     C 5134   2.572   0.661   8.364 -0.1466 -0.3341  0.0888
   39MOL0     C 5135   2.619   0.779   8.415  0.5991 -0.8186 -0.0246
   39MOL0     C 5136   2.749   0.823   8.404 -0.2707 -0.6837  0.0831
   39MOL0     C 5137   2.842   0.745   8.341  0.5909 -0.0624 -0.5678
   39MOL0     O 5138   2.969   0.779   8.317  0.4618  0.9723 -0.0964
   39MOL0     C 5139   2.994   0.885   8.227 -0.2878 -0.4310  0.0127
   39MOL0     C 5140   3.078   1.001   8.285  1.0784  0.0948 -0.2530
   39MOL0     C 5141   3.211   0.948   8.344 -0.1167  0.0185 -0.7495
   39MOL0     C 5142   3.281   1.063   8.396 -0.5242 -1.3420 -0.8394
   39MOL0     C 5143   3.434   1.060   8.400  0.2968 -0.2010 -0.2552
   39MOL0     C 5144   3.476   0.926   8.460 -0.2703 -0.1106  0.0302
   39MOL0     C 5145   3.627   0.926   8.493 -0.1715  0.2966 -1.3580
   39MOL0     C 5146   3.637   0.952   8.646 -0.3511  0.0121 -0.2088
   39MOL0     N 5147   3.597   0.849   8.750 -0.4080 -0.1878  0.3035
   39MOL0     C 5148   3.609   0.858   8.887  0.0397 -0.5210  0.4455
   39MOL0     C 5149   3.548   0.740   8.937 -1.3288 -0.4969 -0.4743
   39MOL0     C 5150   3.538   0.705   9.078  0.3212 -0.1158  0.1704
   39MOL0     C 5151   3.660   0.631   9.114  0.4982 -0.9446  0.4301
   39MOL0     C 5152   3.629   0.480   9.071  0.3360  0.3885 -0.9072
   39MOL0     C 5153   3.586   0.409   9.202  0.2992  0.2608  0.1696
   39MOL0     O 5154   3.479   0.319   9.182 -0.4577 -0.3472  0.2969
   39MOL0     C 5155   3.343   0.361   9.190  0.3403  0.1531 -0.0712
   39MOL0     C 5156   3.266   0.304   9.085  0.0266  0.1248  0.3692
   39MOL0     C 5157   3.126   0.317   9.082  0.2710  0.8139  1.3035
   39MOL0     C 5158   3.054   0.228   8.979  0.0112  0.5995 -0.6306
   39MOL0     C 5159   3.058   0.381   9.184 -0.4498 -0.2608 -1.0196
   39MOL0     C 5160   2.910   0.398   9.191 -1.5927  0.0887  0.2618
   39MOL0     O 5161   2.839   0.293   9.146 -0.1787 -0.1894 -0.7772
   39MOL0     C 5162   2.703   0.312   9.108 -0.2685 -0.7387 -0.3869
   39MOL0     C 5163   2.666   0.325   8.973 -0.8206 -0.8375 -0.1125
   39MOL0     C 5164   2.532   0.353   8.942  0.2402 -0.0671 -0.6720
   39MOL0     C 5165   2.433   0.348   9.030  0.2301 -0.1775  0.3875
   39MOL0     O 5166   2.300   0.372   9.011  0.5275 -0.1567  1.2280
   39MOL0     C 5167   2.243   0.489   9.078 -0.4065  0.0255 -0.4046
   39MOL0     C 5168   2.256   0.612   8.989 -0.4461  0.6343  0.3264
   39MOL0     C 5169   2.219   0.733   9.085 -0.5840  0.9903  0.7337
   39MOL0     C 5170   2.193   0.856   9.010  0.7162 -0.5127  0.6206
   39MOL0     C 5171   2.163   0.966   9.106  0.7304  0.6149  0.0688
   39MOL0     C 5172   2.144   1.101   9.039  0.0815 -0.5160  0.2712
   39MOL0     C 5173   2.100   1.215   9.143 -0.9466 -0.7246 -0.3572
   39MOL0     C 5174   1.963   1.190   9.192 -1.1260 -0.7823  0.0555
   39MOL0    Cl 5175   1.869   1.184   9.044 -0.4203 -0.1152  0.0244
   39MOL0     C 5176   2.477   0.313   9.161  0.0045 -0.5914  0.2208
   39MOL0     C 5177   2.601   0.293   9.199  0.6023  0.2814 -0.3957
   39MOL0     O 5178   2.863   0.507   9.230  0.4048  0.2199 -0.0173
   39MOL0     C 5179   3.133   0.441   9.290  0.2087 -0.4849 -0.3789
   39MOL0     C 5180   3.276   0.432   9.296 -0.0696  0.2577  0.3979
   39MOL0     N 5181   3.516   0.664   8.828 -0.8199  0.2112 -0.3146
   39MOL0     N 5182   3.536   0.734   8.723  0.8444  0.0100  0.6070
   39MOL0     C 5183   2.803   0.619   8.298  0.2429  0.2584  1.2028
   39MOL0     C 5184   2.665   0.579   8.317  0.0133  0.2576 -0.4016
   39MOL0     C 5185   2.289   0.496   8.527  0.2348  0.7069  0.7991
   39MOL0     C 5186   2.268   0.368   8.572  0.0676 -0.6472 -0.4716
   39MOL0     C 5187   2.145   0.334   8.624 -0.5444 -1.3053 -0.2158
   39MOL0     C 5188   2.032   0.419   8.607  1.2278  1.2451 -0.1692
   39MOL0     O 5189   1.900   0.384   8.636  0.3815 -0.3842  0.0688
   39MOL0     C 5190   1.868   0.258   8.693  0.1375 -0.1276 -0.2101
   39MOL0     C 5191   1.721   0.235   8.685  1.0596 -0.3315  0.3146
   39MOL0     C 5192   1.655   0.242   8.546 -0.9300 -0.3102  0.7465
   39MOL0     C 5193   1.693   0.110   8.466  0.2703  0.6430 -0.1847
   39MOL0     C 5194   1.584   0.008   8.502  0.5905  0.1649  0.8068
   39MOL0     C 5195   1.495  -0.067   8.542  0.8710  1.0460 -0.4362
   39MOL0     C 5196   2.049   0.549   8.556 -0.0456 -0.6957 -0.0317
   39MOL0     C 5197   2.175   0.587   8.510 -0.6901 -0.8881  0.1448
   39MOL0     H 5198   2.548   0.856   8.444 -0.9562 -0.9700 -3.0958
   39MOL0     H 5199   2.774   0.919   8.449 -0.1676 -0.1913 -0.9821
   39MOL0     H 5200   3.066   0.847   8.154 -1.0573 -2.4450  0.2373
   39MOL0     H 5201   2.904   0.929   8.184  0.2683  1.5193  0.6849
   39MOL0     H 5202   3.101   1.070   8.204 -1.6139  1.7439  0.2532
   39MOL0     H 5203   3.026   1.064   8.357  0.8358 -0.2669 -0.1080
   39MOL0     H 5204   3.189   0.876   8.424 -0.8902 -0.2123 -1.1524
   39MOL0     H 5205   3.264   0.897   8.263 -0.1271 -0.5494 -0.4068
   39MOL0     H 5206   3.260   1.155   8.340  2.9036 -0.3765 -0.7846
   39MOL0     H 5207   3.246   1.086   8.497  1.6821  2.3127 -0.7293
   39MOL0     H 5208   3.469   1.075   8.297 -1.4186 -4.1641 -1.5791
   39MOL0     H 5209   3.463   1.143   8.466  0.0353  1.1863 -1.8008
   39MOL0     H 5210   3.418   0.912   8.552 -1.7073  0.8076 -0.6946
   39MOL0     H 5211   3.447   0.843   8.395 -1.1893  1.3205 -1.4892
   39MOL0     H 5212   3.683   0.836   8.466  0.2055  0.2701 -0.5233
   39MOL0     H 5213   3.680   1.011   8.448  2.3858  1.1051  2.6462
   39MOL0     H 5214   3.580   1.042   8.671 -1.0931 -0.1752 -1.1874
   39MOL0     H 5215   3.742   0.971   8.673 -0.4781  1.4876 -0.6658
   39MOL0     H 5216   3.668   0.931   8.943 -0.4240  0.5116 -0.3771
   39MOL0     H 5217   3.523   0.791   9.145 -0.6185 -0.6355  0.6446
   39MOL0     H 5218   3.446   0.648   9.090  0.1574  0.2545  0.7270
   39MOL0     H 5219   3.683   0.640   9.220  1.8871 -2.3316  0.2806
   39MOL0     H 5220   3.756   0.663   9.072 -0.0104 -3.1770 -2.8501
   39MOL0     H 5221   3.719   0.435   9.028  1.0763 -0.1548  1.0777
   39MOL0     H 5222   3.555   0.473   8.991 -2.1762 -1.0444  1.3826
   39MOL0     H 5223   3.556   0.480   9.279 -0.1509  1.9134 -1.4603
   39MOL0     H 5224   3.671   0.351   9.238  0.1137 -0.9206 -1.1885
   39MOL0     H 5225   3.319   0.252   9.005 -1.6190 -2.5027  0.8770
   39MOL0     H 5226   2.961   0.258   8.931 -1.2075 -0.9777  0.6263
   39MOL0     H 5227   3.125   0.222   8.896 -2.0531  0.1129 -2.4360
   39MOL0     H 5228   3.043   0.125   9.013 -1.5475  0.8689 -0.2567
   39MOL0     H 5229   2.734   0.338   8.890  0.5953  1.6022  1.3321
   39MOL0     H 5230   2.488   0.379   8.846  2.3495  4.2925 -0.6704
   39MOL0     H 5231   2.139   0.490   9.111 -0.2178  0.6137  0.2036
   39MOL0     H 5232   2.301   0.506   9.169  0.5949 -2.4677 -0.4946
   39MOL0     H 5233   2.359   0.622   8.954 -1.0631  0.4614 -1.6437
   39MOL0     H 5234   2.192   0.609   8.900  0.1808  1.2266 -0.1542
   39MOL0     H 5235   2.297   0.739   9.162 -1.2104  1.5418  1.3383
   39MOL0     H 5236   2.136   0.702   9.149  0.2944 -2.2228  0.4861
   39MOL0     H 5237   2.278   0.890   8.950 -0.9127  2.2119 -0.3395
   39MOL0     H 5238   2.104   0.838   8.949  1.4588 -0.6871 -0.4407
   39MOL0     H 5239   2.248   0.980   9.175 -0.0081 -4.6064  2.5255
   39MOL0     H 5240   2.081   0.934   9.171 -0.1182  1.1581 -0.7141
   39MOL0     H 5241   2.238   1.134   8.995 -0.1095  1.9919  1.5458
   39MOL0     H 5242   2.080   1.097   8.950 -0.7726 -0.9289  0.8865
   39MOL0     H 5243   2.104   1.316   9.102 -1.5149  0.2807  1.8744
   39MOL0     H 5244   2.174   1.221   9.223 -0.2476 -2.7470 -0.8030
   39MOL0     H 5245   1.922   1.264   9.261  1.9217  0.3840  0.7680
   39MOL0     H 5246   1.950   1.092   9.239 -2.0963 -0.3472  0.7321
   39MOL0     H 5247   2.399   0.302   9.236 -0.3385 -1.2211 -0.2107
   39MOL0     H 5248   2.624   0.264   9.301 -0.5755 -2.3962 -0.7993
   39MOL0     H 5249   3.090   0.506   9.367  0.5821 -2.4816  1.5926
   39MOL0     H 5250   3.336   0.473   9.377  0.5705 -0.7016  0.4324
   39MOL0     H 5251   2.868   0.548   8.247 -2.6952 -2.9192  1.5422
   39MOL0     H 5252   2.637   0.480   8.285  0.8524  0.2706 -1.2452
   39MOL0     H 5253   2.354   0.302   8.574  2.5843  2.2006 -2.8429
   39MOL0     H 5254   2.138   0.234   8.665 -1.6331 -0.9067  0.5911
   39MOL0     H 5255   1.915   0.171   8.646 -1.2120  0.7425 -3.4797
   39MOL0     H 5256   1.884   0.257   8.801 -1.4604  1.5925  0.0889
   39MOL0     H 5257   1.674   0.309   8.751 -0.3273 -0.7462 -0.1710
   39MOL0     H 5258   1.696   0.136   8.725 -0.5588  0.7211  2.1042
   39MOL0     H 5259   1.696   0.331   8.498 -0.2842  1.7910  4.7265
   39MOL0     H 5260   1.546   0.255   8.542 -0.7010  1.8547  0.1951
   39MOL0     H 5261   1.793   0.073   8.490 -0.2214 -1.3664 -1.0568
   39MOL0     H 5262   1.673   0.108   8.359  1.5244 -1.3540 -0.4323
   39MOL0     H 5263   1.418  -0.136   8.568  1.3184  0.2890 -1.1003
   39MOL0     H 5264   1.958   0.608   8.553 -0.1413 -0.8687 -0.6117
   39MOL0     H 5265   2.194   0.679   8.455  1.7250 -0.7108  1.1650
   40MOL0     O 5266   1.434   9.863   6.394 -0.4663 -0.5817  0.1026
   40MOL0     C 5267   1.515   9.887   6.298  0.2316  0.5318 -1.1664
   40MOL0     O 5268   1.485   9.863   6.173 -0.4708 -0.1522  0.7018
   40MOL0     C 5269   1.366   9.803   6.148  0.5883  0.3814  0.8232
   40MOL0     C 5270   1.250   9.889   6.157  0.4868  0.3783 -0.0884
   40MOL0     C 5271   1.120   9.832   6.147 -0.0177 -0.9857 -0.2109
   40MOL0     C 5272   1.104   9.688   6.141  0.8599  0.5314 -0.1253
   40MOL0     O 5273   0.978   9.621   6.139 -0.4668 -0.0343 -0.1977
   40MOL0     C 5274   0.852   9.692   6.142 -0.1232 -0.0099  0.9736
   40MOL0     C 5275   0.812   9.710   6.287 -0.1629 -0.8988  0.6646
   40MOL0     C 5276   0.673   9.780   6.319 -0.0043  1.5941  0.6873
   40MOL0     C 5277   0.554   9.697   6.254 -0.8596  0.5483  0.2162
   40MOL0     C 5278   0.414   9.754   6.271 -0.0933 -0.2070 -0.4762
   40MOL0     C 5279   0.313   9.666   6.203  0.5501  0.5506  0.0027
   40MOL0     C 5280   0.170   9.716   6.224 -0.6873 -0.1918 -1.4296
   40MOL0     C 5281   0.076   9.641   6.128 -0.0086  0.0949 -0.8382
   40MOL0     N 5282  -0.073   9.649   6.156  0.5307  0.5871  0.3732
   40MOL0     C 5283  -0.151   9.748   6.122 -0.4374 -0.1660 -0.1601
   40MOL0     C 5284  -0.270   9.702   6.140  0.3063  0.7583  0.1936
   40MOL0     C 5285  -0.394   9.781   6.126  0.1619  0.5516 -0.3133
   40MOL0     C 5286  -0.533   9.709   6.102 -0.3560 -0.0901 -0.3294
   40MOL0     C 5287  -0.647   9.818   6.117 -0.2797 -0.1717  0.3509
   40MOL0     C 5288  -0.789   9.760   6.125  0.9781  0.6281 -0.0523
   40MOL0     O 5289  -0.892   9.863   6.119  0.2478  0.1189  0.3291
   40MOL0     C 5290  -1.024   9.823   6.108  0.5424 -0.2847 -0.5467
   40MOL0     C 5291  -1.109   9.931   6.112  0.1540 -0.3530 -0.2530
   40MOL0     C 5292  -1.249   9.913   6.109 -0.5137  0.0699 -0.0377
   40MOL0     C 5293  -1.336  10.031   6.099 -0.9796 -0.2896 -0.4021
   40MOL0     C 5294  -1.301   9.779   6.120 -0.4998 -0.2153  0.3015
   40MOL0     C 5295  -1.443   9.744   6.130 -0.1662 -1.1047  0.0662
   40MOL0     O 5296  -1.481   9.618   6.104 -0.1795  0.7418 -0.2889
   40MOL0     C 5297  -1.615   9.581   6.096  0.2056  0.5814  1.0865
   40MOL0     C 5298  -1.649   9.453   6.142 -0.4879 -0.8261 -0.8979
   40MOL0     C 5299  -1.774   9.405   6.116 -0.8017 -0.3406 -0.6957
   40MOL0     C 5300  -1.866   9.488   6.060 -0.0344  0.1034 -0.0870
   40MOL0     O 5301  -1.994   9.448   6.034  0.6128  0.3698 -0.3981
   40MOL0     C 5302  -2.050   9.365   6.136 -0.8390  0.6602  0.2502
   40MOL0     C 5303  -2.204   9.378   6.145  0.0708 -0.0615  0.0711
   40MOL0     C 5304  -2.268   9.268   6.234  0.6500  0.5874 -0.8457
   40MOL0     C 5305  -2.418   9.265   6.232 -0.0656  0.5437  0.1993
   40MOL0     C 5306  -2.474   9.164   6.338 -0.3701  0.3736  0.0174
   40MOL0     C 5307  -2.627   9.185   6.362  0.5821 -0.2198  0.9890
   40MOL0     C 5308  -2.681   9.096   6.474  0.2987 -0.4137  0.2521
   40MOL0     C 5309  -2.815   9.136   6.543 -0.0639 -0.9236 -0.4611
   40MOL0    Cl 5310  -2.882   8.998   6.641  0.2140 -0.4310 -0.1844
   40MOL0     C 5311  -1.840   9.618   6.012  0.3376  0.5165 -0.0944
   40MOL0     C 5312  -1.708   9.656   6.018  0.9655  0.5946  0.5792
   40MOL0     O 5313  -1.526   9.835   6.157  0.3502  0.1151 -0.0780
   40MOL0     C 5314  -1.211   9.672   6.123  0.1692  0.6450  0.4551
   40MOL0     C 5315  -1.073   9.690   6.108  0.5344  0.1261 -0.1130
   40MOL0     N 5316  -0.258   9.567   6.179 -0.2940  0.2147  0.8943
   40MOL0     N 5317  -0.138   9.532   6.171 -1.0877  0.2353  0.0607
   40MOL0     C 5318   1.218   9.607   6.135 -0.6293 -0.5254 -0.2907
   40MOL0     C 5319   1.343   9.664   6.132  0.1487 -0.1103  0.1931
   40MOL0     C 5320   1.653   9.943   6.336 -0.0146  0.7640  0.7261
   40MOL0     C 5321   1.680   9.971   6.465 -0.6352  0.0343 -0.3114
   40MOL0     C 5322   1.802  10.038   6.488 -0.0314  0.2276 -0.0352
   40MOL0     C 5323   1.904  10.047   6.399  0.1659  0.4512  0.1942
   40MOL0     O 5324   2.020  10.105   6.440 -0.4162 -0.3409 -0.3173
   40MOL0     C 5325   2.144  10.052   6.395  0.6131 -0.5368  0.1606
   40MOL0     C 5326   2.259  10.152   6.436  0.4662  0.1386 -0.5695
   40MOL0     C 5327   2.266  10.291   6.366  0.1883  0.6199  0.6113
   40MOL0     C 5328   2.284  10.269   6.219 -0.1956 -0.3808 -0.1640
   40MOL0     C 5329   2.419  10.206   6.193  0.5536  0.4343 -0.2077
   40MOL0     C 5330   2.528  10.155   6.170 -0.0776 -0.9172 -0.3394
   40MOL0     C 5331   1.877  10.013   6.264 -0.0340  0.8988 -0.1533
   40MOL0     C 5332   1.753   9.971   6.233  0.4039 -0.1058 -0.7545
   40MOL0     H 5333   1.253   9.996   6.176  1.2827  1.0216 -3.3503
   40MOL0     H 5334   1.040   9.901   6.172  0.6883 -0.3528  0.3656
   40MOL0     H 5335   0.866   9.787   6.090  3.2049  0.7610  2.9357
   40MOL0     H 5336   0.780   9.636   6.082  2.3094 -0.4397 -1.8248
   40MOL0     H 5337   0.826   9.610   6.328  1.6285 -1.2778 -0.7380
   40MOL0     H 5338   0.898   9.765   6.327 -0.4972 -1.2298  1.8611
   40MOL0     H 5339   0.662   9.793   6.427 -0.6921  1.2773  0.6644
   40MOL0     H 5340   0.666   9.886   6.292 -1.8466  2.0156  2.6024
   40MOL0     H 5341   0.579   9.693   6.148  4.3590 -0.0251  1.1794
   40MOL0     H 5342   0.555   9.597   6.299 -0.1829  1.3329  2.0594
   40MOL0     H 5343   0.386   9.761   6.376 -0.1878  2.9252 -0.6102
   40MOL0     H 5344   0.401   9.856   6.231 -4.5451  0.1440  1.3604
   40MOL0     H 5345   0.343   9.661   6.098  2.3218  3.6230  0.2408
   40MOL0     H 5346   0.320   9.565   6.243 -0.3683  0.6127  0.3373
   40MOL0     H 5347   0.135   9.687   6.323  0.2251 -0.4214 -1.1668
   40MOL0     H 5348   0.159   9.823   6.208  1.0669  0.3095  0.2852
   40MOL0     H 5349   0.096   9.534   6.121 -0.2278  0.0862 -1.4122
   40MOL0     H 5350   0.088   9.690   6.031  1.0505  0.7318 -0.4064
   40MOL0     H 5351  -0.112   9.848   6.105 -2.3845  0.4203 -1.4550
   40MOL0     H 5352  -0.396   9.820   6.228 -0.6871 -3.3591  1.3529
   40MOL0     H 5353  -0.376   9.865   6.059 -1.6128  2.2961  1.2564
   40MOL0     H 5354  -0.543   9.627   6.173  0.9005 -3.4055 -3.6485
   40MOL0     H 5355  -0.533   9.660   6.004  1.9574 -2.5897  0.8055
   40MOL0     H 5356  -0.632   9.891   6.037  1.2515  1.6008  2.1451
   40MOL0     H 5357  -0.623   9.859   6.216  0.3781  0.3144 -0.0022
   40MOL0     H 5358  -0.788   9.691   6.210 -0.5857  0.2580 -0.3019
   40MOL0     H 5359  -0.806   9.701   6.034  0.4436  1.3359 -0.4175
   40MOL0     H 5360  -1.070  10.032   6.115  1.2018 -0.5589 -3.2448
   40MOL0     H 5361  -1.374  10.023   5.997  1.3984  1.5535 -1.5270
   40MOL0     H 5362  -1.410  10.038   6.180  1.7935 -1.6990  2.4605
   40MOL0     H 5363  -1.280  10.125   6.105  0.8910 -1.4364  2.3533
   40MOL0     H 5364  -1.570   9.402   6.196 -1.1467  1.3291  2.3946
   40MOL0     H 5365  -1.798   9.302   6.140 -0.9445 -0.1811 -0.1439
   40MOL0     H 5366  -2.026   9.262   6.109 -0.5686  1.3825 -2.5854
   40MOL0     H 5367  -2.000   9.378   6.232  2.3775 -1.5278 -0.9785
   40MOL0     H 5368  -2.233   9.473   6.190 -0.7346 -0.8202  1.2002
   40MOL0     H 5369  -2.242   9.359   6.044  2.3454 -2.4076 -0.4558
   40MOL0     H 5370  -2.252   9.299   6.338 -2.3593  1.4280 -0.5305
   40MOL0     H 5371  -2.223   9.170   6.215 -0.6795 -0.6447  1.8333
   40MOL0     H 5372  -2.454   9.363   6.264  1.2856  1.3231 -0.5469
   40MOL0     H 5373  -2.458   9.238   6.134 -1.8730 -0.1364  1.0924
   40MOL0     H 5374  -2.433   9.182   6.438 -2.0230  0.8753  0.6346
   40MOL0     H 5375  -2.459   9.060   6.308 -0.0141  1.1298 -2.6916
   40MOL0     H 5376  -2.652   9.287   6.394 -2.7309 -1.0328  1.3617
   40MOL0     H 5377  -2.683   9.166   6.270  1.7351 -0.3451  0.3059
   40MOL0     H 5378  -2.606   9.080   6.553 -0.4843  0.9867  1.3295
   40MOL0     H 5379  -2.697   8.999   6.427  3.3129 -0.9531  0.0997
   40MOL0     H 5380  -2.893   9.165   6.472 -1.4262 -0.8966  1.0026
   40MOL0     H 5381  -2.787   9.217   6.612 -0.8352 -0.3420 -0.8062
   40MOL0     H 5382  -1.922   9.667   5.959  1.0386  0.1057 -1.6062
   40MOL0     H 5383  -1.671   9.747   5.971  2.7614 -0.6762 -0.5968
   40MOL0     H 5384  -1.253   9.572   6.122  0.5839  0.4735  0.0031
   40MOL0     H 5385  -1.008   9.603   6.113  1.2332  0.5059 -2.0359
   40MOL0     H 5386   1.215   9.498   6.144 -0.3241 -0.4304  1.1487
   40MOL0     H 5387   1.439   9.617   6.116 -0.4508 -0.3108 -3.7256
   40MOL0     H 5388   1.610   9.952   6.545  0.6202  2.3247  1.4551
   40MOL0     H 5389   1.815  10.075   6.589 -2.9339  0.0865  0.4734
   40MOL0     H 5390   2.159   9.959   6.451  1.6371  2.2115  4.9244
   40MOL0     H 5391   2.154  10.025   6.289  2.0355 -0.2039  0.1822
   40MOL0     H 5392   2.351  10.096   6.421  0.5656  0.0845  0.2324
   40MOL0     H 5393   2.245  10.170   6.543  2.0478 -2.9486  0.2714
   40MOL0     H 5394   2.346  10.348   6.414  1.5164 -0.8941  0.2626
   40MOL0     H 5395   2.173  10.345   6.390 -0.2717 -0.5539  1.5330
   40MOL0     H 5396   2.282  10.368   6.172  1.3599 -0.9049 -1.4202
   40MOL0     H 5397   2.201  10.210   6.179  1.1026 -1.3477 -1.5704
   40MOL0     H 5398   2.632  10.142   6.147  0.4574  1.1271  0.6877
   40MOL0     H 5399   1.955  10.020   6.188  2.4559  0.4875  2.2115
   40MOL0     H 5400   1.726   9.939   6.133 -0.1685  0.9518 -0.9510
   41MOL0     O 5401   9.902   3.042  10.125 -0.5355  0.7693 -0.1569
   41MOL0     C 5402   9.990   3.130  10.145  0.7883  0.8948  0.2711
   41MOL0     O 5403   9.973   3.246  10.215  0.1976  0.1768  0.9171
   41MOL0     C 5404   9.850   3.297  10.243 -0.5811 -0.2040 -0.8242
   41MOL0     C 5405   9.736   3.274  10.163  0.2516 -0.0143  0.7777
   41MOL0     C 5406   9.612   3.328  10.190  0.6395 -0.9231 -0.0106
   41MOL0     C 5407   9.597   3.421  10.301  0.0563 -0.3378 -0.6802
   41MOL0     O 5408   9.475   3.494  10.320 -0.4229  0.1021 -0.1542
   41MOL0     C 5409   9.350   3.461  10.263 -0.0084  1.0989  0.7620
   41MOL0     C 5410   9.243   3.538  10.340  0.2539 -0.2094 -0.4240
   41MOL0     C 5411   9.110   3.490  10.284  0.6390  0.4781 -0.4625
   41MOL0     C 5412   8.980   3.573  10.333 -0.8489  0.2530  0.0094
   41MOL0     C 5413   8.860   3.512  10.269  0.2801  0.5721 -0.0045
   41MOL0     C 5414   8.739   3.563  10.354 -1.3061  0.0386  0.6340
   41MOL0     C 5415   8.713   3.493  10.490 -0.1040  0.1860 -0.4838
   41MOL0     C 5416   8.643   3.352  10.475 -0.0704  0.2527  0.2526
   41MOL0     N 5417   8.610   3.297  10.606 -0.1502 -0.3395  0.0259
   41MOL0     C 5418   8.481   3.269  10.641 -0.1340  0.0931 -1.0199
   41MOL0     C 5419   8.482   3.245  10.775 -0.4086 -0.0445  0.6932
   41MOL0     C 5420   8.364   3.210  10.856 -0.1602  0.0458  0.4862
   41MOL0     C 5421   8.370   3.258  11.001  0.3000  0.2781  0.1497
   41MOL0     C 5422   8.263   3.188  11.087 -0.4040 -1.2111  0.1545
   41MOL0     C 5423   8.238   3.268  11.214 -0.0151 -0.2165 -1.0159
   41MOL0     O 5424   8.130   3.210  11.286  0.5871  0.1373  0.3800
   41MOL0     C 5425   8.000   3.243  11.251  0.2290 -0.2939 -0.1505
   41MOL0     C 5426   7.964   3.314  11.135  0.5314 -0.0247 -0.3661
   41MOL0     C 5427   7.822   3.327  11.102 -1.1707  0.1131 -0.6934
   41MOL0     C 5428   7.784   3.393  10.974 -1.2837  0.2947 -0.8308
   41MOL0     C 5429   7.724   3.251  11.175  0.5271 -0.2310  0.4290
   41MOL0     C 5430   7.579   3.239  11.144  0.3042 -0.3318 -0.0971
   41MOL0     O 5431   7.531   3.295  11.028  0.4077  0.2252  0.2686
   41MOL0     C 5432   7.393   3.309  11.001 -0.2969  0.1556  1.1179
   41MOL0     C 5433   7.365   3.337  10.869  0.1669  0.2100 -0.5934
   41MOL0     C 5434   7.229   3.339  10.826 -0.0965  0.2876  0.0297
   41MOL0     C 5435   7.120   3.329  10.907 -0.4439 -0.8465  0.5886
   41MOL0     O 5436   6.996   3.336  10.860  0.0598  0.5645 -0.5556
   41MOL0     C 5437   6.883   3.320  10.940 -0.0027 -0.4106  0.4643
   41MOL0     C 5438   6.750   3.339  10.851 -0.7148 -0.4615  0.3178
   41MOL0     C 5439   6.760   3.473  10.777  0.4931 -0.2885 -0.6678
   41MOL0     C 5440   6.633   3.533  10.719  0.2006  0.2767 -0.5673
   41MOL0     C 5441   6.524   3.529  10.823  0.4763  0.5203  0.7113
   41MOL0     C 5442   6.398   3.613  10.787 -0.2986 -0.2474 -0.5307
   41MOL0     C 5443   6.338   3.546  10.650 -0.6088  0.2077 -0.2193
   41MOL0     C 5444   6.205   3.611  10.612 -0.2388  0.0453 -0.1706
   41MOL0    Cl 5445   6.067   3.567  10.731  0.1753 -0.0896 -0.1000
   41MOL0     C 5446   7.148   3.314  11.043 -0.2777 -0.0107 -0.4319
   41MOL0     C 5447   7.284   3.293  11.090 -0.1768  0.2024  1.1058
   41MOL0     O 5448   7.510   3.179  11.228  0.2878 -0.1706  0.2199
   41MOL0     C 5449   7.770   3.179  11.287  0.1467  0.6333 -0.7913
   41MOL0     C 5450   7.897   3.172  11.324 -0.4142  0.2961 -0.5355
   41MOL0     N 5451   8.612   3.251  10.816 -0.8194  0.1831  0.7927
   41MOL0     N 5452   8.689   3.277  10.712  0.6670  0.0725 -0.2099
   41MOL0     C 5453   9.708   3.445  10.388 -0.7243  1.0421 -0.7622
   41MOL0     C 5454   9.830   3.376  10.356 -0.2006 -0.4842  0.0059
   41MOL0     C 5455  10.124   3.106  10.081  0.1821  0.3753  0.3597
   41MOL0     C 5456  10.155   2.982  10.031 -0.1141  0.3705  0.0914
   41MOL0     C 5457  10.277   2.969   9.959 -0.4875 -0.4683  0.2476
   41MOL0     C 5458  10.364   3.081   9.955  0.2147  0.6242  0.5026
   41MOL0     O 5459  10.479   3.049   9.895  0.3446 -1.4901 -0.5791
   41MOL0     C 5460  10.563   3.164   9.853  0.7756 -0.4966  0.0100
   41MOL0     C 5461  10.500   3.239   9.730 -0.5273 -0.4436 -0.1246
   41MOL0     C 5462  10.512   3.146   9.611  0.4953  0.1248  0.7861
   41MOL0     C 5463  10.464   3.216   9.482  0.1969 -0.4134 -0.0240
   41MOL0     C 5464  10.535   3.172   9.364  1.3747  0.4184 -0.4101
   41MOL0     C 5465  10.597   3.139   9.265  0.3614  0.2365  0.8376
   41MOL0     C 5466  10.321   3.210   9.994  1.8522 -0.4850 -0.8165
   41MOL0     C 5467  10.196   3.222  10.051 -0.0827  0.2669 -0.4730
   41MOL0     H 5468   9.732   3.211  10.075 -0.8310  0.9668  0.1097
   41MOL0     H 5469   9.535   3.312  10.115  0.3425 -0.0302  0.0989
   41MOL0     H 5470   9.341   3.500  10.161 -0.4923  0.5002  0.5655
   41MOL0     H 5471   9.338   3.352  10.258  1.0344  1.0170 -0.4132
   41MOL0     H 5472   9.238   3.519  10.448  0.6560  3.1392  0.2928
   41MOL0     H 5473   9.256   3.645  10.322 -0.1827 -0.0151  0.3557
   41MOL0     H 5474   9.116   3.492  10.175  0.8057  0.4406 -0.4527
   41MOL0     H 5475   9.097   3.384  10.306  2.3009  0.2347 -0.5678
   41MOL0     H 5476   8.984   3.576  10.443 -0.8062 -0.0302  0.0183
   41MOL0     H 5477   8.993   3.675  10.298 -0.4853 -0.9010 -3.6578
   41MOL0     H 5478   8.856   3.551  10.167  0.8155 -1.5887 -0.9032
   41MOL0     H 5479   8.861   3.403  10.273  0.6668  0.4801 -1.8308
   41MOL0     H 5480   8.767   3.667  10.376  2.0713 -0.5628 -0.2880
   41MOL0     H 5481   8.649   3.567  10.293 -0.8382  1.4703 -0.0047
   41MOL0     H 5482   8.807   3.487  10.545 -0.7240 -2.9526  0.3990
   41MOL0     H 5483   8.649   3.569  10.536  1.0486  1.6282 -1.1658
   41MOL0     H 5484   8.704   3.275  10.429 -0.6318 -1.6970  2.5394
   41MOL0     H 5485   8.556   3.358  10.410  0.2096  2.4907  0.0125
   41MOL0     H 5486   8.402   3.276  10.567  0.6364  2.3710 -1.7372
   41MOL0     H 5487   8.275   3.246  10.803  0.8832  0.3537 -1.1277
   41MOL0     H 5488   8.349   3.102  10.859 -2.0354  0.2768  0.5664
   41MOL0     H 5489   8.358   3.366  11.004  0.6514  0.2996  2.5296
   41MOL0     H 5490   8.470   3.239  11.042  0.3522  2.5976  1.2167
   41MOL0     H 5491   8.292   3.086  11.113 -1.3284 -1.5493 -0.1216
   41MOL0     H 5492   8.170   3.182  11.030 -0.9177 -4.6895  1.1432
   41MOL0     H 5493   8.220   3.373  11.188 -0.4725  0.7552  2.6296
   41MOL0     H 5494   8.331   3.275  11.271  1.0561 -1.9155 -2.4593
   41MOL0     H 5495   8.037   3.355  11.065  2.6292 -2.1579  0.4359
   41MOL0     H 5496   7.872   3.449  10.943 -0.7288 -1.0747 -1.8700
   41MOL0     H 5497   7.766   3.308  10.906  0.0396 -0.2988 -0.4671
   41MOL0     H 5498   7.696   3.456  10.984 -2.2302 -0.8503 -1.5941
   41MOL0     H 5499   7.441   3.352  10.794 -0.5202 -2.6747 -1.9835
   41MOL0     H 5500   7.204   3.357  10.721 -0.6846 -1.9451 -0.2625
   41MOL0     H 5501   6.874   3.219  10.983 -1.7592 -0.3923  0.2175
   41MOL0     H 5502   6.881   3.397  11.018 -1.0364  1.9716 -1.7552
   41MOL0     H 5503   6.731   3.262  10.776  0.5186 -0.0463 -0.4507
   41MOL0     H 5504   6.669   3.332  10.924 -0.0510  3.7274  1.7585
   41MOL0     H 5505   6.832   3.481  10.695  0.4501 -1.1286 -0.7937
   41MOL0     H 5506   6.804   3.546  10.845  1.6403  1.2911 -2.9571
   41MOL0     H 5507   6.643   3.629  10.668  0.6842  0.6072  0.1462
   41MOL0     H 5508   6.589   3.475  10.637 -2.3495  1.4665 -0.1494
   41MOL0     H 5509   6.567   3.557  10.919  1.5604  0.9308  0.1277
   41MOL0     H 5510   6.485   3.427  10.827 -3.3788  1.6788 -1.8664
   41MOL0     H 5511   6.327   3.604  10.869 -0.9899  1.4708 -0.9054
   41MOL0     H 5512   6.418   3.717  10.762 -2.5653  0.0250 -1.3608
   41MOL0     H 5513   6.317   3.440  10.667 -0.6672  0.2025 -0.3214
   41MOL0     H 5514   6.401   3.559  10.561 -2.1703  0.4186 -1.3283
   41MOL0     H 5515   6.166   3.574  10.517 -3.3285 -1.5659  1.5906
   41MOL0     H 5516   6.226   3.719  10.612 -0.5782  0.1327  1.3381
   41MOL0     H 5517   7.068   3.311  11.116  1.5383 -1.8944  1.6486
   41MOL0     H 5518   7.286   3.261  11.194 -1.9489 -1.5360  0.6878
   41MOL0     H 5519   7.703   3.120  11.349  1.9194 -0.5200  0.1180
   41MOL0     H 5520   7.930   3.104  11.402 -0.9910  1.4733  0.7801
   41MOL0     H 5521   9.674   3.506  10.471  1.3069  4.4618 -2.1759
   41MOL0     H 5522   9.916   3.390  10.421 -0.2332  0.7996 -0.1975
   41MOL0     H 5523  10.081   2.905  10.048 -0.5249  0.9274  0.8876
   41MOL0     H 5524  10.314   2.874   9.924 -1.5737 -1.3948  1.5158
   41MOL0     H 5525  10.599   3.229   9.934 -0.8781 -0.2817  0.6122
   41MOL0     H 5526  10.656   3.121   9.816  0.5527  0.3693 -1.6346
   41MOL0     H 5527  10.566   3.325   9.718  1.9060 -1.7248  2.6575
   41MOL0     H 5528  10.402   3.282   9.752  1.0958  4.9803 -2.0505
   41MOL0     H 5529  10.458   3.051   9.624  1.7594 -1.4752 -3.8292
   41MOL0     H 5530  10.615   3.116   9.592  0.0256 -0.8276 -0.3609
   41MOL0     H 5531  10.481   3.323   9.498 -3.1967  0.3849 -0.8709
   41MOL0     H 5532  10.357   3.203   9.464  0.7381 -2.2330 -2.5605
   41MOL0     H 5533  10.638   3.118   9.168  0.2765  0.6667  0.7050
   41MOL0     H 5534  10.389   3.295   9.982 -1.6746  2.3529 -2.4296
   41MOL0     H 5535  10.153   3.321  10.061  0.5143  0.6775 -1.8209
   42MOL0     O 5536   8.494   5.434   5.461 -0.1569  0.1587 -0.3591
   42MOL0     C 5537   8.570   5.380   5.534 -0.1606 -0.8745  0.0468
   42MOL0     O 5538   8.543   5.329   5.651 -0.3292  0.0227 -0.4324
   42MOL0     C 5539   8.418   5.348   5.718 -0.9139  0.0830 -0.6216
   42MOL0     C 5540   8.391   5.251   5.823  0.0196  0.6229 -0.1723
   42MOL0     C 5541   8.277   5.254   5.901 -0.6522  0.2117 -0.2667
   42MOL0     C 5542   8.188   5.361   5.879 -0.6882  0.1576 -0.0472
   42MOL0     O 5543   8.079   5.368   5.958  0.1583 -1.0524  0.0001
   42MOL0     C 5544   7.989   5.257   5.930  0.7935 -0.0404  0.0941
   42MOL0     C 5545   7.849   5.313   5.909  0.3734  0.2628 -0.0848
   42MOL0     C 5546   7.744   5.206   5.956 -0.6350  0.8770 -0.3378
   42MOL0     C 5547   7.620   5.194   5.871  0.1223 -0.0550 -0.1601
   42MOL0     C 5548   7.510   5.119   5.951  0.5133 -0.2024  0.3490
   42MOL0     C 5549   7.451   5.188   6.065  0.2788 -0.2183  0.6995
   42MOL0     C 5550   7.359   5.101   6.158 -0.4313  0.2742  0.1404
   42MOL0     C 5551   7.329   5.176   6.292 -0.8071  0.1848 -0.5392
   42MOL0     N 5552   7.284   5.081   6.399 -0.2518 -0.0777 -0.2505
   42MOL0     C 5553   7.151   5.029   6.397  0.1753  0.0053 -1.5402
   42MOL0     C 5554   7.147   4.957   6.512 -0.2112  0.2712 -0.3983
   42MOL0     C 5555   7.020   4.913   6.591  0.2954  0.0472 -1.0065
   42MOL0     C 5556   7.014   4.758   6.593  0.5707  0.0165 -0.5094
   42MOL0     C 5557   6.980   4.689   6.460 -0.1810  0.0909 -0.5509
   42MOL0     C 5558   6.997   4.540   6.452  0.5494 -0.2090  0.0020
   42MOL0     O 5559   6.898   4.458   6.513 -0.5036  0.0478  0.3180
   42MOL0     C 5560   6.943   4.370   6.604  0.2127 -0.1682  0.2011
   42MOL0     C 5561   6.954   4.230   6.582 -0.3133 -0.6679 -0.1482
   42MOL0     C 5562   7.022   4.143   6.672  0.5636 -0.4970 -0.0192
   42MOL0     C 5563   7.022   3.998   6.623  1.2859 -0.0483 -0.7151
   42MOL0     C 5564   7.087   4.193   6.790  0.4887  0.7381  1.1597
   42MOL0     C 5565   7.144   4.102   6.899  1.0515  0.3373  0.1621
   42MOL0     O 5566   7.181   3.966   6.874  0.2563 -0.3177 -0.2682
   42MOL0     C 5567   7.227   3.893   6.982 -0.1111  0.7087  0.1752
   42MOL0     C 5568   7.181   3.767   7.004  1.4898 -0.8869 -0.1667
   42MOL0     C 5569   7.247   3.684   7.095  0.4869  0.3440  0.7070
   42MOL0     C 5570   7.347   3.729   7.176 -0.8206 -0.1048  0.0098
   42MOL0     O 5571   7.400   3.645   7.272 -0.4666 -0.3386 -0.5959
   42MOL0     C 5572   7.447   3.703   7.402 -0.2157 -0.1551 -0.1360
   42MOL0     C 5573   7.596   3.684   7.418  1.2815 -0.0189 -0.0837
   42MOL0     C 5574   7.645   3.763   7.543  0.4658 -0.0382  0.0984
   42MOL0     C 5575   7.590   3.726   7.677 -0.1788  0.4701 -0.1039
   42MOL0     C 5576   7.625   3.591   7.730  0.7863  0.6026  0.1966
   42MOL0     C 5577   7.548   3.557   7.856  0.1700 -0.4948 -0.9532
   42MOL0     C 5578   7.411   3.493   7.829 -1.2806  0.2039 -0.6067
   42MOL0     C 5579   7.319   3.509   7.954  0.0047 -0.0050  1.0974
   42MOL0    Cl 5580   7.155   3.485   7.884  0.0504  0.1374 -0.3017
   42MOL0     C 5581   7.389   3.856   7.158  0.4177 -0.2746 -0.0825
   42MOL0     C 5582   7.336   3.940   7.060  0.2670  0.3569  0.5835
   42MOL0     O 5583   7.120   4.143   7.018  0.4814 -0.0176  0.8597
   42MOL0     C 5584   7.061   4.327   6.815 -1.0809 -0.7384 -0.0859
   42MOL0     C 5585   6.999   4.419   6.728  0.7987 -0.0016  0.2549
   42MOL0     N 5586   7.271   4.960   6.575 -0.0668  0.2930  0.1107
   42MOL0     N 5587   7.351   5.021   6.507  0.6622  0.5527 -0.5186
   42MOL0     C 5588   8.207   5.448   5.776 -0.2615  0.2882 -0.0064
   42MOL0     C 5589   8.328   5.450   5.695 -0.1080  0.6023 -0.1367
   42MOL0     C 5590   8.717   5.373   5.494  0.7512 -0.2671  0.4381
   42MOL0     C 5591   8.770   5.405   5.366 -0.4359 -0.8854  0.4672
   42MOL0     C 5592   8.898   5.369   5.327 -0.4262  0.3804  0.1612
   42MOL0     C 5593   8.991   5.310   5.412  0.5999  0.1879 -0.6955
   42MOL0     O 5594   9.123   5.304   5.379  0.2291 -0.6110 -0.7183
   42MOL0     C 5595   9.225   5.300   5.478 -0.4068  0.4155 -0.7548
   42MOL0     C 5596   9.357   5.324   5.406  0.6523  0.9662  0.2688
   42MOL0     C 5597   9.375   5.470   5.378  0.6019 -0.8530  0.1695
   42MOL0     C 5598   9.515   5.485   5.322  0.2368 -0.6500 -0.7123
   42MOL0     C 5599   9.619   5.507   5.426  0.5700 -0.0919  0.2566
   42MOL0     C 5600   9.703   5.542   5.504 -0.1767  0.6680 -0.3000
   42MOL0     C 5601   8.945   5.279   5.540 -0.8655  1.3580 -0.2340
   42MOL0     C 5602   8.806   5.311   5.577 -0.5258  0.5669 -0.1655
   42MOL0     H 5603   8.466   5.176   5.845  2.1797  1.7782 -2.9958
   42MOL0     H 5604   8.263   5.179   5.978 -0.2719 -0.2178 -0.6142
   42MOL0     H 5605   8.016   5.201   5.840  2.1323  2.3865 -1.1159
   42MOL0     H 5606   7.985   5.187   6.014  3.0203 -1.8534 -1.1650
   42MOL0     H 5607   7.837   5.411   5.956  0.4558  0.5887 -0.7351
   42MOL0     H 5608   7.846   5.334   5.802  0.0014  2.1167  0.2499
   42MOL0     H 5609   7.773   5.100   5.954 -2.4966  0.2162  2.0885
   42MOL0     H 5610   7.727   5.235   6.060 -1.0482  0.1393 -0.1885
   42MOL0     H 5611   7.588   5.293   5.838 -0.2990  1.0802  3.2086
   42MOL0     H 5612   7.632   5.129   5.784  1.1013  1.9783 -1.6237
   42MOL0     H 5613   7.426   5.101   5.883 -0.0869 -3.1637  1.6844
   42MOL0     H 5614   7.543   5.018   5.980 -1.4810 -1.1607 -0.5130
   42MOL0     H 5615   7.535   5.225   6.124  0.3388  1.9315 -0.6150
   42MOL0     H 5616   7.400   5.278   6.030 -0.7731 -0.4956  1.4696
   42MOL0     H 5617   7.262   5.091   6.109 -0.2430 -0.7931 -0.0396
   42MOL0     H 5618   7.390   4.998   6.176 -1.5255 -0.2152 -0.6470
   42MOL0     H 5619   7.254   5.254   6.277 -1.5845 -0.4327  0.1025
   42MOL0     H 5620   7.416   5.227   6.335 -1.7434 -0.4289  2.3428
   42MOL0     H 5621   7.068   5.057   6.334 -0.1054 -0.3494 -1.3354
   42MOL0     H 5622   7.028   4.950   6.693  0.1585 -3.2267  0.3388
   42MOL0     H 5623   6.921   4.940   6.555 -1.7029 -1.2126  2.9985
   42MOL0     H 5624   6.924   4.730   6.648 -0.7381  0.6661 -2.2166
   42MOL0     H 5625   7.108   4.719   6.633  0.4153 -0.4251 -0.5694
   42MOL0     H 5626   7.033   4.726   6.372  1.2084 -2.2882 -0.7874
   42MOL0     H 5627   6.876   4.723   6.453  0.8769  4.2892  0.9395
   42MOL0     H 5628   7.097   4.517   6.490  0.4188  1.7575  1.7401
   42MOL0     H 5629   6.977   4.521   6.346 -3.5579  0.2762  0.5150
   42MOL0     H 5630   6.900   4.198   6.493  1.4030 -1.4282 -0.9646
   42MOL0     H 5631   6.981   3.946   6.709  0.9682  1.6803  0.2217
   42MOL0     H 5632   6.950   3.986   6.542  1.0223  0.3895 -0.5448
   42MOL0     H 5633   7.119   3.955   6.596  2.7377  0.9582  2.3751
   42MOL0     H 5634   7.104   3.739   6.933  2.9425 -1.5569 -1.5285
   42MOL0     H 5635   7.204   3.584   7.097  1.5175 -0.2012 -1.3985
   42MOL0     H 5636   7.415   3.808   7.401 -1.7676 -0.6003 -0.8226
   42MOL0     H 5637   7.389   3.660   7.485  0.0900 -0.9004 -0.2994
   42MOL0     H 5638   7.627   3.580   7.434 -0.9812 -0.5446  1.4522
   42MOL0     H 5639   7.636   3.720   7.323  2.9072 -0.9985  0.2056
   42MOL0     H 5640   7.633   3.870   7.524  1.3939  0.6125  2.6966
   42MOL0     H 5641   7.754   3.764   7.555  0.4746  3.7143  1.2967
   42MOL0     H 5642   7.628   3.803   7.745  2.2933 -0.7293 -0.0367
   42MOL0     H 5643   7.481   3.731   7.680 -0.1691  1.9101 -1.1159
   42MOL0     H 5644   7.731   3.578   7.754  0.1493 -2.7578  1.8653
   42MOL0     H 5645   7.615   3.518   7.649  1.1409 -0.3799  1.0182
   42MOL0     H 5646   7.606   3.485   7.915 -0.7431 -0.9462 -0.5963
   42MOL0     H 5647   7.540   3.646   7.919  1.7931  0.3156 -1.8286
   42MOL0     H 5648   7.435   3.387   7.819 -1.3878 -0.2954  3.1901
   42MOL0     H 5649   7.370   3.536   7.737  1.7482 -0.5771 -2.4676
   42MOL0     H 5650   7.331   3.605   8.004  0.7821 -1.0119  2.9812
   42MOL0     H 5651   7.347   3.433   8.028 -0.4355 -1.0294  0.2379
   42MOL0     H 5652   7.465   3.902   7.220  0.5959  1.2196 -1.3588
   42MOL0     H 5653   7.365   4.043   7.044  0.4220  0.2857  0.3848
   42MOL0     H 5654   7.109   4.362   6.906 -0.2168  0.2355 -0.9015
   42MOL0     H 5655   6.983   4.523   6.755 -0.9996 -0.7515  2.4333
   42MOL0     H 5656   8.139   5.532   5.770  1.3979  1.9913  2.7616
   42MOL0     H 5657   8.364   5.525   5.626 -0.0792  0.0181 -0.7588
   42MOL0     H 5658   8.699   5.449   5.296  0.9049  0.1830 -0.2663
   42MOL0     H 5659   8.942   5.389   5.230  0.9048 -2.7890 -0.0077
   42MOL0     H 5660   9.205   5.370   5.559 -1.0715  0.8649 -1.2920
   42MOL0     H 5661   9.220   5.204   5.530 -0.3440  2.7146  4.0410
   42MOL0     H 5662   9.382   5.253   5.327  2.0301  3.1965 -1.4134
   42MOL0     H 5663   9.427   5.291   5.483 -0.0610 -1.2074  0.0695
   42MOL0     H 5664   9.377   5.521   5.474  0.2883 -2.6951  1.2095
   42MOL0     H 5665   9.294   5.514   5.319 -0.4777 -2.8595  0.0489
   42MOL0     H 5666   9.515   5.576   5.261  1.7606  0.4686  0.8380
   42MOL0     H 5667   9.535   5.403   5.252 -1.4162 -1.1796 -0.6032
   42MOL0     H 5668   9.775   5.564   5.580  0.0990 -2.1725  0.3660
   42MOL0     H 5669   9.016   5.255   5.618 -0.4968  2.4736 -0.2170
   42MOL0     H 5670   8.775   5.283   5.677 -1.9942  1.2817 -0.4070
   43MOL0     O 5671  10.798   2.283   1.667  0.2465  0.1979 -0.5167
   43MOL0     C 5672  10.819   2.238   1.554 -0.1651  0.1296  0.6290
   43MOL0     O 5673  10.728   2.252   1.449  0.4099  0.5133  0.1641
   43MOL0     C 5674  10.595   2.251   1.475  0.6489  0.4512  1.2972
   43MOL0     C 5675  10.514   2.350   1.414 -0.8535  0.7930 -0.1909
   43MOL0     C 5676  10.375   2.352   1.441 -0.6566 -0.1280  1.6037
   43MOL0     C 5677  10.312   2.259   1.524 -0.3907 -0.3269  0.7769
   43MOL0     O 5678  10.181   2.280   1.537  0.2972  0.3515  0.7189
   43MOL0     C 5679  10.114   2.199   1.633 -0.2950  0.1522 -0.0755
   43MOL0     C 5680  10.068   2.069   1.561  0.0972 -0.0830  0.6110
   43MOL0     C 5681  10.016   2.079   1.416  0.0385 -0.0911 -0.1986
   43MOL0     C 5682   9.898   2.176   1.399 -1.1075 -0.1992 -0.7252
   43MOL0     C 5683   9.778   2.112   1.447  0.0957 -0.4274  0.3914
   43MOL0     C 5684   9.653   2.182   1.400  0.1026 -0.6071  0.1805
   43MOL0     C 5685   9.532   2.098   1.425 -1.2970 -0.4206  0.0089
   43MOL0     C 5686   9.405   2.169   1.393  0.3498  0.6130 -0.1335
   43MOL0     N 5687   9.287   2.078   1.373  0.8336 -0.4156  0.0795
   43MOL0     C 5688   9.258   2.010   1.260  0.0321  0.2868 -0.8246
   43MOL0     C 5689   9.167   1.919   1.297 -1.2847  0.8962  0.7833
   43MOL0     C 5690   9.104   1.836   1.198  1.4981  0.5201  0.2305
   43MOL0     C 5691   9.186   1.713   1.181 -0.6798  0.1056  0.8555
   43MOL0     C 5692   9.118   1.611   1.087  0.7656 -0.1425  0.3447
   43MOL0     C 5693   9.144   1.647   0.940  0.1345 -0.3434  0.2320
   43MOL0     O 5694   9.087   1.551   0.847  0.6655 -0.4990 -0.0334
   43MOL0     C 5695   8.963   1.569   0.809  0.3236  0.5891 -0.3899
   43MOL0     C 5696   8.915   1.478   0.711 -0.2209 -0.1807  0.6637
   43MOL0     C 5697   8.788   1.501   0.646  0.0509 -0.4719  0.9138
   43MOL0     C 5698   8.762   1.412   0.521 -0.5252  0.0348  0.0325
   43MOL0     C 5699   8.708   1.617   0.679  0.2129 -0.0252 -0.3521
   43MOL0     C 5700   8.582   1.662   0.620  0.4258  0.1369 -0.2314
   43MOL0     O 5701   8.546   1.625   0.495  0.2117  0.0141 -0.1217
   43MOL0     C 5702   8.423   1.654   0.447 -0.9342  0.2907 -0.3021
   43MOL0     C 5703   8.373   1.570   0.345  0.4351  0.5460 -0.5921
   43MOL0     C 5704   8.249   1.587   0.288  0.2735  0.2130 -0.6093
   43MOL0     C 5705   8.168   1.692   0.321  0.2182  0.8320  0.5787
   43MOL0     O 5706   8.048   1.708   0.255 -1.2930 -0.8327 -0.3012
   43MOL0     C 5707   7.936   1.754   0.330 -1.0385 -1.0094 -0.8657
   43MOL0     C 5708   7.899   1.656   0.442 -0.0344  0.4272  0.0247
   43MOL0     C 5709   7.765   1.651   0.519 -0.2276 -0.5693  0.9215
   43MOL0     C 5710   7.753   1.785   0.602  0.0611 -0.4836 -0.6197
   43MOL0     C 5711   7.650   1.780   0.720  0.3258 -0.1452  0.0266
   43MOL0     C 5712   7.502   1.767   0.657  0.5371  0.4584 -0.2249
   43MOL0     C 5713   7.399   1.792   0.772  0.5508  0.2495 -0.2493
   43MOL0     C 5714   7.257   1.773   0.729 -0.6146  0.7253 -0.4701
   43MOL0    Cl 5715   7.194   1.876   0.593  0.2535 -0.0392  0.8568
   43MOL0     C 5716   8.205   1.782   0.418 -0.7555  0.4206 -0.3884
   43MOL0     C 5717   8.341   1.766   0.473 -0.5556 -0.5383  0.2904
   43MOL0     O 5718   8.514   1.740   0.694  0.4904 -0.0120  1.0121
   43MOL0     C 5719   8.761   1.693   0.782 -0.2711 -0.1051 -0.6229
   43MOL0     C 5720   8.883   1.674   0.840  0.0288 -0.3137 -0.0387
   43MOL0     N 5721   9.140   1.926   1.430  0.1993 -1.0080 -0.0376
   43MOL0     N 5722   9.214   2.022   1.475  1.1985  0.3307 -0.9551
   43MOL0     C 5723  10.395   2.153   1.578 -0.0997 -0.6516  0.1358
   43MOL0     C 5724  10.534   2.156   1.555  0.4824 -1.1622 -0.4493
   43MOL0     C 5725  10.944   2.165   1.524  0.4330  0.1944  0.0807
   43MOL0     C 5726  11.052   2.165   1.608 -0.6318  0.0448 -0.0443
   43MOL0     C 5727  11.171   2.096   1.582 -0.0666  0.0403 -0.1574
   43MOL0     C 5728  11.185   2.034   1.466  0.6093 -0.0206  0.9076
   43MOL0     O 5729  11.296   1.971   1.423 -0.0621  0.2443 -0.2651
   43MOL0     C 5730  11.431   1.995   1.478 -0.5275 -0.1251  0.3936
   43MOL0     C 5731  11.527   1.942   1.372 -0.2291  0.2008  0.5610
   43MOL0     C 5732  11.498   1.794   1.340 -0.7235 -0.3090 -0.0176
   43MOL0     C 5733  11.555   1.739   1.216 -0.4439 -0.0126  0.6977
   43MOL0     C 5734  11.450   1.717   1.120 -0.4636 -0.4872  0.0596
   43MOL0     C 5735  11.362   1.701   1.040 -0.3664 -0.3455 -0.3465
   43MOL0     C 5736  11.078   2.038   1.376  0.2630 -0.3997 -0.0437
   43MOL0     C 5737  10.958   2.101   1.405  0.1909  0.3756 -0.1724
   43MOL0     H 5738  10.550   2.431   1.351 -0.4026 -0.4170 -1.5461
   43MOL0     H 5739  10.323   2.439   1.404  0.1024 -0.0925  0.5630
   43MOL0     H 5740  10.176   2.177   1.720 -0.0566  2.4634  0.3983
   43MOL0     H 5741  10.035   2.263   1.672 -0.2947 -0.3810  0.8258
   43MOL0     H 5742  10.156   2.006   1.544  2.0969  2.9799 -1.3701
   43MOL0     H 5743   9.994   2.025   1.628  0.2127  2.3136  2.4627
   43MOL0     H 5744  10.100   2.115   1.356  0.0008  2.8871  1.3518
   43MOL0     H 5745   9.979   1.984   1.375 -1.7417 -0.0236  1.1177
   43MOL0     H 5746   9.929   2.260   1.462  1.4284  0.2699 -2.4484
   43MOL0     H 5747   9.894   2.214   1.296 -2.7661  1.5374 -0.0909
   43MOL0     H 5748   9.775   2.008   1.415  0.8752 -0.0768 -0.8929
   43MOL0     H 5749   9.774   2.116   1.557 -1.5760  1.7935  0.3255
   43MOL0     H 5750   9.651   2.270   1.464  0.1835 -0.3485 -0.1705
   43MOL0     H 5751   9.660   2.209   1.294  1.9225  0.5305  0.5364
   43MOL0     H 5752   9.546   2.014   1.356  0.3302 -1.0096  1.0015
   43MOL0     H 5753   9.522   2.069   1.530 -1.8570  1.3045  0.4623
   43MOL0     H 5754   9.404   2.236   1.306  2.2118 -1.8846 -2.2029
   43MOL0     H 5755   9.384   2.244   1.471 -0.5157 -0.6481  0.8849
   43MOL0     H 5756   9.301   2.024   1.161  0.6819 -0.6271 -0.6848
   43MOL0     H 5757   9.007   1.804   1.238 -0.5232  1.5723 -3.3160
   43MOL0     H 5758   9.088   1.896   1.108  3.0476  0.3612 -0.1756
   43MOL0     H 5759   9.212   1.655   1.270 -0.4590  1.7432  1.8947
   43MOL0     H 5760   9.280   1.744   1.135 -0.7933 -0.1469  0.4476
   43MOL0     H 5761   9.014   1.607   1.121  0.5976 -2.0583 -0.2610
   43MOL0     H 5762   9.160   1.510   1.090  0.2011 -0.4164 -0.4602
   43MOL0     H 5763   9.254   1.651   0.933  0.2012 -2.1998 -0.2745
   43MOL0     H 5764   9.107   1.748   0.919  1.1365  0.2502  1.1752
   43MOL0     H 5765   8.979   1.393   0.690 -2.6937 -1.5327 -2.1278
   43MOL0     H 5766   8.770   1.467   0.427 -0.8198  1.0576  0.5921
   43MOL0     H 5767   8.832   1.328   0.524  2.0786  2.0932  1.9018
   43MOL0     H 5768   8.657   1.383   0.530 -1.3335  2.0835 -1.8138
   43MOL0     H 5769   8.419   1.477   0.312 -1.6598 -1.6791  2.2576
   43MOL0     H 5770   8.220   1.515   0.211  1.0150 -1.2064  0.3999
   43MOL0     H 5771   7.947   1.856   0.369  2.0099 -0.1523 -3.5763
   43MOL0     H 5772   7.852   1.762   0.260 -1.8950 -1.4179  0.0927
   43MOL0     H 5773   7.913   1.555   0.402 -6.9720 -0.1095 -2.3580
   43MOL0     H 5774   7.980   1.666   0.515  0.7351  2.3053 -1.0116
   43MOL0     H 5775   7.779   1.563   0.583  1.2881 -1.2594 -0.2716
   43MOL0     H 5776   7.692   1.631   0.439  1.7899 -0.3564 -1.0875
   43MOL0     H 5777   7.844   1.815   0.654 -0.2541 -3.6150  2.0821
   43MOL0     H 5778   7.721   1.867   0.537 -4.8626  1.4109  3.4958
   43MOL0     H 5779   7.655   1.873   0.777  1.3983  0.5523 -1.1569
   43MOL0     H 5780   7.675   1.695   0.784  0.7680  0.0449  0.1063
   43MOL0     H 5781   7.495   1.833   0.570  1.0422 -0.0639 -0.6636
   43MOL0     H 5782   7.490   1.663   0.627  2.3828 -0.6235  2.3704
   43MOL0     H 5783   7.407   1.895   0.808 -1.2973  0.1726  0.4537
   43MOL0     H 5784   7.417   1.727   0.858  0.7525  2.5102  1.5016
   43MOL0     H 5785   7.192   1.798   0.813 -0.8204  0.1793 -0.4578
   43MOL0     H 5786   7.235   1.666   0.716 -0.9138  0.7696 -0.3300
   43MOL0     H 5787   8.137   1.850   0.467 -2.4380  2.1217 -4.5563
   43MOL0     H 5788   8.367   1.838   0.550 -3.0673 -0.2434  0.9470
   43MOL0     H 5789   8.708   1.782   0.816  1.1337  0.5026  0.0428
   43MOL0     H 5790   8.907   1.748   0.915 -2.5879  0.5241  0.0676
   43MOL0     H 5791  10.347   2.088   1.651 -2.2440  0.0759 -0.5393
   43MOL0     H 5792  10.595   2.074   1.590  1.3903 -0.4690 -0.3587
   43MOL0     H 5793  11.049   2.229   1.696  0.4706 -0.7725  0.6219
   43MOL0     H 5794  11.249   2.106   1.656  2.6146  2.6479 -3.0222
   43MOL0     H 5795  11.433   2.102   1.502 -0.1074 -0.2475  0.8998
   43MOL0     H 5796  11.453   1.943   1.571 -1.3969  1.2891  1.4292
   43MOL0     H 5797  11.631   1.954   1.403 -0.6440 -1.2146  2.6621
   43MOL0     H 5798  11.509   2.004   1.283  0.8196  0.4166  0.4839
   43MOL0     H 5799  11.395   1.761   1.358 -0.3191 -0.8649  1.4614
   43MOL0     H 5800  11.531   1.735   1.426 -2.1929 -1.6731 -0.3326
   43MOL0     H 5801  11.600   1.642   1.240 -2.6481 -1.7135 -1.5264
   43MOL0     H 5802  11.639   1.795   1.173  0.8500 -0.5916  2.3751
   43MOL0     H 5803  11.298   1.689   0.955 -0.1321  3.5923 -1.2941
   43MOL0     H 5804  11.082   1.984   1.281  1.1070  0.5381 -0.5525
   43MOL0     H 5805  10.880   2.096   1.331 -2.5206 -3.4733  2.5261
   44MOL0     O 5806  10.015   9.197  10.103  0.2606  0.5176 -0.9234
   44MOL0     C 5807  10.136   9.176  10.094  0.6679  0.3684 -0.3745
   44MOL0     O 5808  10.214   9.122  10.195  0.7157 -0.2690 -0.6788
   44MOL0     C 5809  10.161   9.103  10.319  0.0850  0.6331 -0.2457
   44MOL0     C 5810  10.096   9.205  10.392  0.2543 -0.1637 -0.2287
   44MOL0     C 5811  10.038   9.179  10.517 -0.3945 -0.0029  0.3975
   44MOL0     C 5812  10.051   9.050  10.577  0.0884  0.3548  0.9429
   44MOL0     O 5813  10.005   9.010  10.706  0.2454 -0.3646  0.6200
   44MOL0     C 5814   9.989   9.111  10.804  0.5608 -0.6328 -0.6432
   44MOL0     C 5815   9.999   9.054  10.949  0.3419 -0.8754  0.5253
   44MOL0     C 5816  10.127   8.974  10.975 -0.4937  0.9000  0.3339
   44MOL0     C 5817  10.255   9.055  10.984  1.0431 -0.5043  0.0051
   44MOL0     C 5818  10.354   8.988  10.884  0.0070 -1.1107  0.0951
   44MOL0     C 5819  10.486   9.059  10.892  0.4550 -0.0596 -0.2303
   44MOL0     C 5820  10.578   9.034  10.769  1.5548  1.0844  1.0149
   44MOL0     C 5821  10.712   9.103  10.803 -0.0592 -0.5087  0.0813
   44MOL0     N 5822  10.811   9.097  10.692  1.2094  0.4526 -0.2552
   44MOL0     C 5823  10.872   8.985  10.645  0.2045  0.0889  0.6828
   44MOL0     C 5824  10.974   9.033  10.573 -0.3570  0.1866  0.9321
   44MOL0     C 5825  11.064   8.934  10.501 -0.4250  0.0507  0.6392
   44MOL0     C 5826  11.210   8.974  10.524  0.3068 -0.0955 -0.0643
   44MOL0     C 5827  11.316   8.869  10.500  0.2500  0.1528  0.8363
   44MOL0     C 5828  11.449   8.939  10.466 -0.8512 -0.2003  0.0862
   44MOL0     O 5829  11.478   9.038  10.565 -0.4327 -0.3527 -0.2969
   44MOL0     C 5830  11.505   8.993  10.696  0.8599  0.5982 -0.2189
   44MOL0     C 5831  11.447   9.076  10.800  0.0126 -0.5740  0.7931
   44MOL0     C 5832  11.495   9.075  10.927 -0.2649 -0.3225  0.4978
   44MOL0     C 5833  11.457   9.190  11.015 -0.0402  0.9777  0.8479
   44MOL0     C 5834  11.576   8.964  10.974 -0.1874 -0.4685  0.0930
   44MOL0     C 5835  11.620   8.933  11.111 -0.1996  0.7793 -0.4844
   44MOL0     O 5836  11.746   8.859  11.124  0.8588  0.0576  0.9547
   44MOL0     C 5837  11.810   8.868  11.244  0.3958  0.1240 -0.1513
   44MOL0     C 5838  11.759   8.835  11.374 -0.7079 -0.9928 -0.3457
   44MOL0     C 5839  11.835   8.849  11.488  0.2732  0.0444  0.0302
   44MOL0     C 5840  11.971   8.881  11.477 -0.4809  0.1984  0.0548
   44MOL0     O 5841  12.051   8.897  11.585 -0.4358 -0.2067 -0.7036
   44MOL0     C 5842  12.053   8.780  11.662 -0.5013  0.7195  0.4218
   44MOL0     C 5843  12.141   8.671  11.588 -0.2244 -0.3857 -0.4466
   44MOL0     C 5844  12.219   8.578  11.686 -0.5077  0.3202  0.1995
   44MOL0     C 5845  12.299   8.473  11.598 -0.0860  0.4739 -0.2013
   44MOL0     C 5846  12.399   8.392  11.675  0.2075  0.2854  1.3428
   44MOL0     C 5847  12.544   8.442  11.688  0.2614 -1.0070  1.2292
   44MOL0     C 5848  12.637   8.341  11.739  0.3601 -1.0163 -0.5377
   44MOL0     C 5849  12.777   8.391  11.779  0.1947 -0.7489  0.6036
   44MOL0    Cl 5850  12.823   8.545  11.690  0.6278 -0.3820  0.4973
   44MOL0     C 5851  12.015   8.922  11.350 -0.6835 -0.5257  1.0412
   44MOL0     C 5852  11.940   8.918  11.241 -0.5998 -0.4695 -0.4657
   44MOL0     O 5853  11.552   8.971  11.209 -0.5827  0.1906  0.0885
   44MOL0     C 5854  11.603   8.864  10.877 -0.3644 -0.8102  0.5458
   44MOL0     C 5855  11.575   8.880  10.737 -0.0171 -0.3603  0.2565
   44MOL0     N 5856  10.980   9.170  10.585 -0.3673  0.5245  0.2061
   44MOL0     N 5857  10.879   9.207  10.665 -0.3509  0.1100  0.4400
   44MOL0     C 5858  10.114   8.954  10.508  0.6785  0.4688  0.7234
   44MOL0     C 5859  10.160   8.974  10.371  0.0182 -0.3114  0.0243
   44MOL0     C 5860  10.214   9.216   9.975  0.1429  0.3512 -1.1702
   44MOL0     C 5861  10.351   9.190   9.966 -0.1953  0.1605  0.4685
   44MOL0     C 5862  10.430   9.241   9.862 -0.1140 -0.8593 -0.1194
   44MOL0     C 5863  10.372   9.304   9.750 -0.8496 -0.0268  0.3201
   44MOL0     O 5864  10.462   9.359   9.658  0.0525  0.5437  0.2358
   44MOL0     C 5865  10.415   9.430   9.541 -0.1581  0.1090 -0.3353
   44MOL0     C 5866  10.402   9.573   9.580  0.3972  0.2361 -0.3499
   44MOL0     C 5867  10.372   9.654   9.451  0.7045  0.8125  0.2143
   44MOL0     C 5868  10.396   9.798   9.482  0.5878 -0.2525  0.2311
   44MOL0     C 5869  10.539   9.831   9.470  0.4005  0.1334 -0.0613
   44MOL0     C 5870  10.664   9.837   9.451  0.9338 -1.2057 -0.0291
   44MOL0     C 5871  10.234   9.324   9.756 -0.6492  0.3505  0.6376
   44MOL0     C 5872  10.157   9.295   9.872 -0.2302  0.1402 -0.6497
   44MOL0     H 5873  10.102   9.308  10.359 -0.0135 -0.0740 -0.0027
   44MOL0     H 5874   9.980   9.258  10.564 -0.6913 -0.2351  0.4211
   44MOL0     H 5875  10.072   9.181  10.788 -1.7484  2.4112 -0.2311
   44MOL0     H 5876   9.893   9.162  10.798  1.1569  1.1332  2.4078
   44MOL0     H 5877   9.981   9.140  11.014  0.1461 -2.8115  3.2306
   44MOL0     H 5878   9.916   8.983  10.947  1.8560 -2.7486 -2.3080
   44MOL0     H 5879  10.101   8.915  11.063 -5.2715  0.1699 -1.2859
   44MOL0     H 5880  10.147   8.897  10.899  0.1213  1.3853 -0.0046
   44MOL0     H 5881  10.239   9.162  10.964  4.7923  0.1903  0.0124
   44MOL0     H 5882  10.288   9.049  11.088 -1.7118  5.3718  1.7018
   44MOL0     H 5883  10.377   8.882  10.896  2.5487 -0.3694  2.8278
   44MOL0     H 5884  10.309   9.011  10.787 -0.0890 -0.7279  0.2289
   44MOL0     H 5885  10.476   9.167  10.899 -1.1718 -0.2141  0.2988
   44MOL0     H 5886  10.537   9.039  10.987 -0.4305 -0.9771  0.0775
   44MOL0     H 5887  10.590   8.926  10.758  0.9034  1.0642  0.4254
   44MOL0     H 5888  10.525   9.068  10.680 -1.4850 -2.5274  1.2095
   44MOL0     H 5889  10.760   9.058  10.891 -1.0949  1.2162  1.5829
   44MOL0     H 5890  10.703   9.209  10.829  1.0710 -0.5420  0.6795
   44MOL0     H 5891  10.846   8.881  10.658  0.5062 -0.0672  0.0816
   44MOL0     H 5892  11.048   8.834  10.542 -0.4622 -0.6359 -0.9726
   44MOL0     H 5893  11.054   8.935  10.392  3.4881  0.7221  0.1271
   44MOL0     H 5894  11.210   8.993  10.632 -2.5885  1.1140 -0.2161
   44MOL0     H 5895  11.232   9.067  10.471 -0.4644  0.3124  0.3194
   44MOL0     H 5896  11.280   8.792  10.432  0.0193 -0.7387  1.9408
   44MOL0     H 5897  11.330   8.817  10.596  0.1512 -0.5909  0.4546
   44MOL0     H 5898  11.435   9.001  10.377  0.1423  0.8579  0.6362
   44MOL0     H 5899  11.518   8.858  10.437 -1.1755  0.0577 -1.5376
   44MOL0     H 5900  11.398   9.162  10.756 -0.5188 -1.8568 -1.2454
   44MOL0     H 5901  11.523   9.197  11.102  0.1975 -0.9768  0.8789
   44MOL0     H 5902  11.453   9.281  10.956 -1.0287 -0.1159 -0.8555
   44MOL0     H 5903  11.360   9.168  11.061  1.3516 -1.8539  2.7676
   44MOL0     H 5904  11.670   8.776  11.390  0.4520 -2.7200  0.0780
   44MOL0     H 5905  11.786   8.831  11.584 -0.6031  3.7031  0.4234
   44MOL0     H 5906  12.108   8.819  11.748  1.7919  2.2434 -1.5883
   44MOL0     H 5907  11.954   8.747  11.694 -0.6251  2.2488  1.7175
   44MOL0     H 5908  12.085   8.603  11.522 -2.6915  1.2233 -0.1523
   44MOL0     H 5909  12.210   8.729  11.527  0.5881 -0.3995  0.4539
   44MOL0     H 5910  12.139   8.527  11.741 -0.1212 -2.7113 -1.8371
   44MOL0     H 5911  12.286   8.631  11.753  0.6410  0.0785 -0.7287
   44MOL0     H 5912  12.224   8.411  11.548 -0.0320  1.4185 -1.5164
   44MOL0     H 5913  12.345   8.531  11.517  0.5435 -3.0309 -2.5496
   44MOL0     H 5914  12.418   8.302  11.616 -0.1707  0.5233  0.8576
   44MOL0     H 5915  12.357   8.369  11.774 -2.9214  1.8055  0.4964
   44MOL0     H 5916  12.586   8.478  11.593 -0.1010  1.8542  2.0402
   44MOL0     H 5917  12.549   8.530  11.753  2.4616 -0.9561  1.0576
   44MOL0     H 5918  12.654   8.287  11.645  3.9868  1.7186 -1.6776
   44MOL0     H 5919  12.589   8.283  11.818 -1.1649 -0.3122 -0.8900
   44MOL0     H 5920  12.853   8.313  11.769 -0.4070 -1.2335 -0.2760
   44MOL0     H 5921  12.760   8.403  11.887 -1.1005  1.1042  0.2435
   44MOL0     H 5922  12.119   8.952  11.347 -0.8997  0.3504  1.8564
   44MOL0     H 5923  11.981   8.933  11.141  0.0895  0.1438 -0.0958
   44MOL0     H 5924  11.649   8.770  10.905  0.8269 -1.8192 -3.8787
   44MOL0     H 5925  11.614   8.802  10.673  0.8981  0.4513 -0.1937
   44MOL0     H 5926  10.132   8.858  10.554 -1.2314 -0.7785 -0.9606
   44MOL0     H 5927  10.217   8.896  10.322  0.4261 -0.6255  0.9607
   44MOL0     H 5928  10.399   9.132  10.043  0.1483 -3.2275 -2.0575
   44MOL0     H 5929  10.537   9.226   9.873 -0.0756  0.1228  1.1315
   44MOL0     H 5930  10.475   9.412   9.451 -1.2522 -0.9791 -0.8873
   44MOL0     H 5931  10.310   9.406   9.520  0.3298 -1.9957 -0.5611
   44MOL0     H 5932  10.502   9.599   9.614  1.7521 -3.7254 -0.7797
   44MOL0     H 5933  10.329   9.586   9.661  0.4615  1.9370 -0.5349
   44MOL0     H 5934  10.269   9.636   9.418 -0.3939 -1.2193  4.2093
   44MOL0     H 5935  10.439   9.618   9.372 -1.8023 -1.9982 -0.8396
   44MOL0     H 5936  10.370   9.829   9.583  0.0858 -0.0510  0.0455
   44MOL0     H 5937  10.337   9.854   9.408 -0.6624  1.0722  2.1504
   44MOL0     H 5938  10.758   9.844   9.400  0.3136  0.2468 -1.0487
   44MOL0     H 5939  10.181   9.372   9.674 -0.2273  0.0276  0.1690
   44MOL0     H 5940  10.051   9.307   9.887 -0.5824  0.1317 -2.8082
   45MOL0     O 5941   7.808  10.622   5.806  0.4521 -0.5416  0.8309
   45MOL0     C 5942   7.865  10.700   5.882 -0.5652 -0.2208  0.0690
   45MOL0     O 5943   7.807  10.786   5.974 -0.0129 -0.2182 -0.0345
   45MOL0     C 5944   7.666  10.781   5.993  0.8448 -0.2059  0.6679
   45MOL0     C 5945   7.592  10.897   6.024 -0.3990 -0.1937 -0.0828
   45MOL0     C 5946   7.465  10.894   6.080  0.7809  0.0975 -0.0431
   45MOL0     C 5947   7.387  10.772   6.077 -0.3659 -0.1100 -0.9049
   45MOL0     O 5948   7.257  10.778   6.112 -0.0414  0.2017 -0.4113
   45MOL0     C 5949   7.176  10.666   6.075  0.2533  0.0182  0.1563
   45MOL0     C 5950   7.034  10.721   6.051  1.2388 -0.3929  0.6210
   45MOL0     C 5951   6.962  10.729   6.192 -0.0705 -1.0790 -0.1279
   45MOL0     C 5952   6.843  10.818   6.183 -0.7396  0.3177  0.8614
   45MOL0     C 5953   6.799  10.888   6.313 -0.0417  0.0481 -0.1530
   45MOL0     C 5954   6.677  10.977   6.287 -0.5228  0.0951  0.4448
   45MOL0     C 5955   6.642  11.048   6.415  0.0477 -0.3255 -1.0171
   45MOL0     C 5956   6.572  10.958   6.521 -0.4188 -0.8490  0.3298
   45MOL0     N 5957   6.510  11.055   6.608 -0.1533 -0.5228 -0.0371
   45MOL0     C 5958   6.382  11.101   6.612  0.7567 -0.9040 -1.2078
   45MOL0     C 5959   6.372  11.208   6.703 -0.0565  0.1440  0.3458
   45MOL0     C 5960   6.252  11.283   6.753 -0.0930 -0.2536 -0.0875
   45MOL0     C 5961   6.280  11.424   6.711  0.2920  0.0691  1.0745
   45MOL0     C 5962   6.173  11.526   6.744 -0.6558 -0.3310 -0.3604
   45MOL0     C 5963   6.224  11.661   6.682 -0.9800 -0.3520 -0.2257
   45MOL0     O 5964   6.199  11.655   6.543 -0.4791 -0.1875 -0.1870
   45MOL0     C 5965   6.121  11.754   6.497 -0.9402  0.2425 -0.1368
   45MOL0     C 5966   6.164  11.809   6.368  0.0963 -0.5382 -0.1592
   45MOL0     C 5967   6.082  11.904   6.298  0.4810  0.0814  0.2439
   45MOL0     C 5968   6.128  11.960   6.168 -0.8541  0.3461  0.3724
   45MOL0     C 5969   5.952  11.939   6.353  0.1718  0.2238  0.0525
   45MOL0     C 5970   5.862  12.040   6.288  0.6461  0.2376 -0.0003
   45MOL0     O 5971   5.777  12.106   6.371 -0.8491 -0.8093 -0.4491
   45MOL0     C 5972   5.689  12.203   6.334 -0.4637  0.0006  0.9410
   45MOL0     C 5973   5.584  12.229   6.430 -0.4849 -0.8949  0.7978
   45MOL0     C 5974   5.497  12.333   6.402 -0.1090  0.8194 -0.3660
   45MOL0     C 5975   5.493  12.418   6.291 -0.1169  0.6642  0.5473
   45MOL0     O 5976   5.393  12.505   6.278 -0.3870 -0.7030 -0.1104
   45MOL0     C 5977   5.394  12.582   6.168  0.6543 -0.8798  0.4432
   45MOL0     C 5978   5.473  12.715   6.174 -0.3620 -0.5980 -0.0475
   45MOL0     C 5979   5.406  12.806   6.283  0.0879  0.4637 -0.5964
   45MOL0     C 5980   5.460  12.952   6.286  0.0422 -0.2459  0.2686
   45MOL0     C 5981   5.371  13.049   6.379 -0.0591  0.7491  0.6514
   45MOL0     C 5982   5.217  13.061   6.330 -0.2572 -0.7088 -0.7584
   45MOL0     C 5983   5.197  13.126   6.194 -0.2097  0.1825  0.3184
   45MOL0     C 5984   5.053  13.140   6.151 -0.0921  0.0938 -0.4790
   45MOL0    Cl 5985   4.980  13.256   6.266  0.4447 -0.2465  0.0455
   45MOL0     C 5986   5.592  12.384   6.190  0.2544 -0.5299  0.1689
   45MOL0     C 5987   5.687  12.284   6.216  0.4760  0.2238 -1.1958
   45MOL0     O 5988   5.853  12.037   6.169 -0.0381 -0.0411  0.0407
   45MOL0     C 5989   5.922  11.895   6.481  0.3306 -0.8999  0.0365
   45MOL0     C 5990   6.004  11.808   6.552 -0.7947  0.2621 -0.6022
   45MOL0     N 5991   6.497  11.203   6.765 -0.5851  0.6114 -0.3089
   45MOL0     N 5992   6.572  11.113   6.712 -0.6310  0.5788  0.3173
   45MOL0     C 5993   7.456  10.658   6.037 -0.0371 -0.2989 -0.5856
   45MOL0     C 5994   7.597  10.664   6.003 -0.4702  1.3263  0.8451
   45MOL0     C 5995   8.019  10.700   5.881  0.0051  0.1364  0.4153
   45MOL0     C 5996   8.094  10.793   5.948 -0.1170  0.0056 -0.0721
   45MOL0     C 5997   8.234  10.786   5.939  0.4386  0.1301 -0.6261
   45MOL0     C 5998   8.293  10.691   5.851 -0.1723 -0.3818  0.1932
   45MOL0     O 5999   8.426  10.697   5.861  0.4866  0.6511 -1.1264
   45MOL0     C 6000   8.502  10.681   5.734 -0.0441 -0.6409 -0.0046
   45MOL0     C 6001   8.476  10.815   5.650  0.7793  0.5864  0.0637
   45MOL0     C 6002   8.522  10.936   5.739 -0.9131  0.3862  0.7478
   45MOL0     C 6003   8.510  11.073   5.656 -0.5868 -0.2081 -0.5640
   45MOL0     C 6004   8.374  11.112   5.630  1.0740  0.1118  0.1729
   45MOL0     C 6005   8.259  11.134   5.589 -0.1055  0.0911 -0.0023
   45MOL0     C 6006   8.228  10.603   5.770  0.0531 -0.8844 -0.1884
   45MOL0     C 6007   8.089  10.614   5.793  0.5940  0.3406  0.8852
   45MOL0     H 6008   7.651  10.988   6.033 -0.5194 -0.1792  0.6277
   45MOL0     H 6009   7.417  10.988   6.103 -0.7788 -0.8538  0.7736
   45MOL0     H 6010   7.219  10.618   5.986  2.3238  2.0996 -0.0402
   45MOL0     H 6011   7.179  10.591   6.155  1.2912 -0.2730 -0.1489
   45MOL0     H 6012   7.045  10.822   6.010  1.4646 -0.2044  1.1316
   45MOL0     H 6013   6.975  10.654   5.986 -1.3539  0.4329  1.9718
   45MOL0     H 6014   6.930  10.630   6.227 -4.5232  0.0462 -0.3875
   45MOL0     H 6015   7.027  10.783   6.262 -1.4046  1.2897 -0.6195
   45MOL0     H 6016   6.866  10.896   6.110 -0.4065 -0.9779 -0.4674
   45MOL0     H 6017   6.761  10.760   6.140  0.7368 -0.4168 -1.1153
   45MOL0     H 6018   6.780  10.807   6.385 -2.0346  2.1467  1.8480
   45MOL0     H 6019   6.867  10.952   6.370  0.6722 -2.1453  1.6415
   45MOL0     H 6020   6.689  11.044   6.201  0.3992 -0.2259  0.3140
   45MOL0     H 6021   6.592  10.914   6.259 -0.9540  0.3231  1.2197
   45MOL0     H 6022   6.722  11.094   6.474 -0.3513 -2.5540  1.4914
   45MOL0     H 6023   6.583  11.135   6.387 -0.4831 -0.4658 -0.3519
   45MOL0     H 6024   6.649  10.903   6.576  1.1881  0.7724 -0.2138
   45MOL0     H 6025   6.500  10.895   6.468  2.1324 -1.2110 -3.0567
   45MOL0     H 6026   6.298  11.065   6.553  0.5727 -3.7099  0.5688
   45MOL0     H 6027   6.163  11.231   6.715  1.3313 -1.6457 -1.7673
   45MOL0     H 6028   6.245  11.284   6.862  0.8661  0.4525 -0.0232
   45MOL0     H 6029   6.297  11.421   6.603 -3.8833 -0.3259  0.2743
   45MOL0     H 6030   6.377  11.456   6.751  0.7694  1.6022 -1.1300
   45MOL0     H 6031   6.155  11.549   6.849 -0.5313 -0.0634 -0.3984
   45MOL0     H 6032   6.076  11.502   6.699 -0.0227 -0.0926 -1.9262
   45MOL0     H 6033   6.332  11.671   6.692 -1.2992  3.1558  1.0192
   45MOL0     H 6034   6.187  11.754   6.727 -0.5532 -0.6051  0.6893
   45MOL0     H 6035   6.251  11.770   6.317 -0.1636  1.0391 -1.9237
   45MOL0     H 6036   6.079  11.917   6.080  2.9778  1.9378 -2.8098
   45MOL0     H 6037   6.110  12.068   6.161 -0.9104  0.2489 -1.3374
   45MOL0     H 6038   6.233  11.934   6.156 -0.2624  2.4583  0.6203
   45MOL0     H 6039   5.579  12.176   6.525 -2.0353  0.3004  1.4237
   45MOL0     H 6040   5.424  12.348   6.482 -2.0725 -1.5599 -1.5560
   45MOL0     H 6041   5.428  12.527   6.080  2.2253 -2.0205  1.7102
   45MOL0     H 6042   5.290  12.612   6.151  1.0090 -1.3661 -3.5406
   45MOL0     H 6043   5.577  12.698   6.204 -0.8595 -3.2899  0.4167
   45MOL0     H 6044   5.453  12.759   6.076 -2.6338 -1.1635  0.1101
   45MOL0     H 6045   5.427  12.757   6.378  0.1336  2.4805  0.4850
   45MOL0     H 6046   5.298  12.816   6.266  0.1836  1.6386 -0.6264
   45MOL0     H 6047   5.561  12.961   6.328  1.4544 -1.7774 -2.5261
   45MOL0     H 6048   5.461  12.991   6.184  0.8416 -2.8245 -0.7863
   45MOL0     H 6049   5.414  13.149   6.389  1.6631  0.4581 -2.5306
   45MOL0     H 6050   5.366  13.008   6.480  0.4863 -0.8730  0.0513
   45MOL0     H 6051   5.163  12.966   6.330  0.4825 -1.1389 -0.3342
   45MOL0     H 6052   5.162  13.117   6.408  0.7115 -0.5554 -0.1685
   45MOL0     H 6053   5.252  13.074   6.116  1.0695 -1.8640  2.4701
   45MOL0     H 6054   5.223  13.233   6.199  0.4969 -0.0426  2.2281
   45MOL0     H 6055   4.997  13.046   6.149 -0.8041  0.5022 -2.7370
   45MOL0     H 6056   5.057  13.172   6.046  0.4752 -0.6987 -0.7101
   45MOL0     H 6057   5.596  12.435   6.095 -1.6027 -0.2145  0.2181
   45MOL0     H 6058   5.769  12.269   6.146  0.6742  3.3528 -1.7800
   45MOL0     H 6059   5.839  11.947   6.529  1.4720  2.1929 -1.1174
   45MOL0     H 6060   5.981  11.787   6.656 -1.9200 -0.3955 -0.9676
   45MOL0     H 6061   7.405  10.563   6.048 -1.0901  0.1372 -1.5253
   45MOL0     H 6062   7.654  10.573   5.989 -1.6757  0.8382 -1.5677
   45MOL0     H 6063   8.043  10.858   6.018  0.2538  1.3964 -1.0459
   45MOL0     H 6064   8.298  10.856   5.993  1.4263 -3.2699  3.0948
   45MOL0     H 6065   8.608  10.668   5.754  0.1352  2.4165  1.5700
   45MOL0     H 6066   8.459  10.600   5.674 -1.4816  1.4292 -1.9701
   45MOL0     H 6067   8.371  10.834   5.628  0.8240 -0.4263 -1.0776
   45MOL0     H 6068   8.532  10.820   5.556  1.3928 -0.4261  0.3632
   45MOL0     H 6069   8.627  10.918   5.764 -0.4715  1.1740 -0.4475
   45MOL0     H 6070   8.464  10.936   5.832 -1.2558 -3.8323  0.7158
   45MOL0     H 6071   8.572  11.072   5.566 -1.2176 -1.4673 -1.0098
   45MOL0     H 6072   8.559  11.155   5.708  3.3275 -1.7547 -1.4508
   45MOL0     H 6073   8.167  11.163   5.543 -0.9437 -1.1070  0.8435
   45MOL0     H 6074   8.266  10.542   5.689 -1.3096 -0.5979 -1.0747
   45MOL0     H 6075   8.029  10.554   5.726 -2.3124  2.5147  1.3121
   46MOL0     O 6076   7.430   5.375   1.994 -0.5600  0.6704 -0.1424
   46MOL0     C 6077   7.519   5.427   2.064 -0.2346  0.2050  0.0751
   46MOL0     O 6078   7.514   5.442   2.205 -0.4608 -0.4396 -0.0032
   46MOL0     C 6079   7.401   5.413   2.281 -0.5830 -0.8107  0.3658
   46MOL0     C 6080   7.425   5.341   2.401 -0.4196  0.1703 -0.4900
   46MOL0     C 6081   7.316   5.299   2.483  0.8547 -0.5636  0.1048
   46MOL0     C 6082   7.187   5.341   2.456  0.4644  0.0363 -0.2224
   46MOL0     O 6083   7.092   5.310   2.548  0.5931  0.3741 -0.7594
   46MOL0     C 6084   6.960   5.356   2.526  0.3581 -0.2420  0.2643
   46MOL0     C 6085   6.866   5.280   2.620  1.0440 -0.4503 -0.3397
   46MOL0     C 6086   6.882   5.119   2.615 -0.0560 -0.4587 -0.2699
   46MOL0     C 6087   6.768   5.041   2.684 -0.6822  0.3857  0.1603
   46MOL0     C 6088   6.717   5.079   2.812 -0.9870 -0.6914 -0.5564
   46MOL0     C 6089   6.828   5.090   2.919 -0.3253 -0.3114 -0.4454
   46MOL0     C 6090   6.780   5.125   3.058 -0.4700  0.4923 -0.3344
   46MOL0     C 6091   6.709   5.253   3.085  0.6135  0.4082  0.7308
   46MOL0     N 6092   6.789   5.375   3.093  0.3913 -0.0786 -0.4439
   46MOL0     C 6093   6.895   5.384   3.171 -0.2116 -0.5587  0.1200
   46MOL0     C 6094   6.963   5.491   3.116 -0.4826 -0.0129  0.3086
   46MOL0     C 6095   7.081   5.567   3.166 -0.8208  0.2947  0.1235
   46MOL0     C 6096   7.059   5.601   3.318 -0.9548 -0.0978 -0.6046
   46MOL0     C 6097   7.154   5.712   3.375 -0.4281 -0.6878 -0.3221
   46MOL0     C 6098   7.299   5.697   3.329 -0.0935 -0.3345 -0.6896
   46MOL0     O 6099   7.327   5.555   3.341  0.2883 -0.5653 -0.4847
   46MOL0     C 6100   7.440   5.507   3.280 -0.3779  0.5568  0.1775
   46MOL0     C 6101   7.541   5.572   3.206  0.0076  0.4719 -0.4977
   46MOL0     C 6102   7.643   5.502   3.139  0.1791 -0.1244 -0.2281
   46MOL0     C 6103   7.745   5.574   3.060  0.2308  0.4689 -0.6553
   46MOL0     C 6104   7.642   5.359   3.134  0.5156 -0.0453 -0.2075
   46MOL0     C 6105   7.726   5.279   3.048 -0.6628 -0.4147  0.5712
   46MOL0     O 6106   7.683   5.162   2.995  0.3371  0.9056 -0.0766
   46MOL0     C 6107   7.781   5.085   2.933 -0.1368  0.4252 -0.9526
   46MOL0     C 6108   7.828   4.982   3.001  0.0273  0.5036  0.4108
   46MOL0     C 6109   7.914   4.890   2.929 -0.9856 -0.3827 -1.4279
   46MOL0     C 6110   7.960   4.914   2.799 -0.1351  0.2082 -0.2100
   46MOL0     O 6111   8.045   4.822   2.742  0.2114 -0.0961  0.5434
   46MOL0     C 6112   8.155   4.862   2.657  0.4972  0.7750  0.4298
   46MOL0     C 6113   8.295   4.851   2.724 -0.5636 -0.4009  0.0514
   46MOL0     C 6114   8.407   4.867   2.620  0.4142 -0.4213 -0.7313
   46MOL0     C 6115   8.405   5.014   2.567 -0.9727 -0.4726  0.4798
   46MOL0     C 6116   8.540   5.044   2.499 -0.3708  0.6263 -0.0873
   46MOL0     C 6117   8.523   5.179   2.427  0.5166 -0.4264  0.4415
   46MOL0     C 6118   8.488   5.301   2.507  0.2362 -0.0858  0.2638
   46MOL0     C 6119   8.579   5.331   2.627 -0.4694 -0.6952  0.1216
   46MOL0    Cl 6120   8.516   5.469   2.726 -0.5315  0.8843 -0.3569
   46MOL0     C 6121   7.909   5.025   2.734 -0.0723  0.3559 -0.2085
   46MOL0     C 6122   7.818   5.114   2.800 -0.2702  0.8491 -0.0048
   46MOL0     O 6123   7.848   5.310   3.055  0.4699  0.5987 -0.5867
   46MOL0     C 6124   7.549   5.300   3.223 -0.4664  0.3524 -0.1324
   46MOL0     C 6125   7.449   5.370   3.289  0.3158  0.0301  0.8922
   46MOL0     N 6126   6.899   5.544   3.006  0.0810  0.2333  0.0450
   46MOL0     N 6127   6.793   5.471   2.997  0.0578 -0.2790 -0.0872
   46MOL0     C 6128   7.166   5.418   2.339 -0.4169 -0.3771 -0.4239
   46MOL0     C 6129   7.273   5.452   2.252  0.3976 -0.2680 -0.0017
   46MOL0     C 6130   7.639   5.480   2.004 -0.4731  0.0962  0.7098
   46MOL0     C 6131   7.655   5.508   1.862 -0.1384  0.3159 -0.3993
   46MOL0     C 6132   7.779   5.547   1.813  1.4424 -0.6694  0.0885
   46MOL0     C 6133   7.887   5.545   1.894 -0.5733  0.2526 -0.1204
   46MOL0     O 6134   8.007   5.590   1.843 -0.5226  0.1499  0.2041
   46MOL0     C 6135   8.104   5.486   1.809  0.0775  0.1900 -0.6573
   46MOL0     C 6136   8.200   5.469   1.922  0.2528 -0.6189 -0.8986
   46MOL0     C 6137   8.267   5.609   1.945  0.5614  0.3404 -0.6370
   46MOL0     C 6138   8.373   5.596   2.059 -0.2948 -0.4616 -0.8900
   46MOL0     C 6139   8.308   5.581   2.195 -1.2868 -0.1370  0.1281
   46MOL0     C 6140   8.248   5.553   2.297 -0.0124 -0.9900  0.6292
   46MOL0     C 6141   7.868   5.520   2.028 -0.0034  0.7154  0.0168
   46MOL0     C 6142   7.749   5.490   2.086  0.1729 -0.2730  0.4446
   46MOL0     H 6143   7.527   5.330   2.435 -0.5899 -0.1636 -0.0796
   46MOL0     H 6144   7.333   5.247   2.576  1.8936 -0.7269 -0.1614
   46MOL0     H 6145   6.953   5.460   2.560 -0.9991 -0.3763  0.4587
   46MOL0     H 6146   6.924   5.347   2.423  0.5250  0.4590  0.1409
   46MOL0     H 6147   6.895   5.322   2.717  0.8425 -0.9009 -0.0827
   46MOL0     H 6148   6.761   5.295   2.596  0.2367 -2.3098  1.7092
   46MOL0     H 6149   6.882   5.079   2.513  0.4434 -1.0705 -0.0354
   46MOL0     H 6150   6.975   5.088   2.662  1.6678 -0.8265 -3.5944
   46MOL0     H 6151   6.678   5.039   2.622 -0.7770  1.6198  0.2380
   46MOL0     H 6152   6.797   4.936   2.692  2.2726  1.0298 -0.6193
   46MOL0     H 6153   6.676   5.180   2.808  0.1834 -0.1536  0.3830
   46MOL0     H 6154   6.640   5.015   2.857  0.5657 -1.3365  1.2868
   46MOL0     H 6155   6.874   4.992   2.915  1.2911  0.3576  0.7132
   46MOL0     H 6156   6.902   5.168   2.897  0.3543  0.2199  3.0298
   46MOL0     H 6157   6.704   5.052   3.087  0.7571 -1.7180 -2.3218
   46MOL0     H 6158   6.864   5.110   3.127 -1.8960 -1.3747  1.1049
   46MOL0     H 6159   6.658   5.238   3.181  0.8272 -1.6411  0.5665
   46MOL0     H 6160   6.635   5.276   3.008  2.4586 -1.8962 -1.9355
   46MOL0     H 6161   6.917   5.330   3.262 -1.0675  0.2679  0.8375
   46MOL0     H 6162   7.175   5.513   3.151 -0.7241  0.8803 -1.5989
   46MOL0     H 6163   7.082   5.657   3.106  0.3076  1.6609  2.0589
   46MOL0     H 6164   7.077   5.509   3.375  0.4257 -2.3015 -4.2871
   46MOL0     H 6165   6.956   5.633   3.340 -1.6203 -0.6900 -2.6121
   46MOL0     H 6166   7.144   5.725   3.483 -0.8344 -1.2380 -0.2880
   46MOL0     H 6167   7.108   5.799   3.327 -2.4133 -0.4112  1.8851
   46MOL0     H 6168   7.359   5.765   3.390 -1.9398  1.0196 -0.2886
   46MOL0     H 6169   7.311   5.737   3.228 -0.7438  0.9407 -0.2731
   46MOL0     H 6170   7.544   5.681   3.201  2.4831  0.6000  1.5687
   46MOL0     H 6171   7.839   5.568   3.117  0.8769 -4.2627 -1.8417
   46MOL0     H 6172   7.773   5.523   2.968 -2.5260 -1.9668 -0.2776
   46MOL0     H 6173   7.704   5.669   3.025  1.2643  0.3795 -2.1940
   46MOL0     H 6174   7.793   4.940   3.096  0.4098 -1.2360 -0.1805
   46MOL0     H 6175   7.956   4.802   2.976  1.2191  0.8896 -0.8694
   46MOL0     H 6176   8.139   4.809   2.563  0.7798  3.2615 -1.1105
   46MOL0     H 6177   8.130   4.959   2.614 -1.0306 -0.5374 -1.8448
   46MOL0     H 6178   8.302   4.921   2.808  0.2748 -1.4395  0.8863
   46MOL0     H 6179   8.321   4.753   2.765 -0.4997 -0.9569 -1.2669
   46MOL0     H 6180   8.390   4.796   2.539  0.7620  3.1331 -4.2270
   46MOL0     H 6181   8.498   4.842   2.676 -0.0656 -0.7079 -0.0696
   46MOL0     H 6182   8.328   5.037   2.493 -1.0208  1.3296  1.0309
   46MOL0     H 6183   8.389   5.083   2.650 -0.9659 -1.2645  1.1447
   46MOL0     H 6184   8.565   4.972   2.421 -1.8614  0.1649 -0.1711
   46MOL0     H 6185   8.621   5.039   2.572 -0.9256 -1.0299  0.4711
   46MOL0     H 6186   8.617   5.213   2.381  0.0962 -0.2184 -0.2786
   46MOL0     H 6187   8.449   5.170   2.347  1.2513  1.3584 -0.5011
   46MOL0     H 6188   8.386   5.278   2.542  0.0056  0.9268  0.2670
   46MOL0     H 6189   8.471   5.390   2.446 -4.3222 -1.1449 -0.3898
   46MOL0     H 6190   8.676   5.353   2.581 -1.1725  0.9098 -0.6709
   46MOL0     H 6191   8.604   5.242   2.686  1.1745  0.2228  0.8592
   46MOL0     H 6192   7.937   5.050   2.632 -1.5544  0.2116 -0.6804
   46MOL0     H 6193   7.784   5.205   2.752 -2.1242  2.3698  3.7063
   46MOL0     H 6194   7.536   5.192   3.227  1.6951  0.0641  2.6358
   46MOL0     H 6195   7.368   5.322   3.344 -0.2828  0.7588  0.6624
   46MOL0     H 6196   7.064   5.453   2.327 -1.3528 -2.9143 -0.4349
   46MOL0     H 6197   7.251   5.516   2.167 -1.7232  0.2172  0.8598
   46MOL0     H 6198   7.564   5.508   1.803 -0.4872  2.7883  0.0456
   46MOL0     H 6199   7.789   5.583   1.711  0.5892  0.6592  0.4582
   46MOL0     H 6200   8.058   5.393   1.773  0.0018 -0.4523  1.0169
   46MOL0     H 6201   8.156   5.522   1.720 -0.9399  2.6732 -0.3211
   46MOL0     H 6202   8.273   5.397   1.886  1.0368  0.5371 -1.6810
   46MOL0     H 6203   8.159   5.417   2.010  3.4279 -3.0327 -0.6635
   46MOL0     H 6204   8.192   5.681   1.977 -0.8511 -1.3718  0.0709
   46MOL0     H 6205   8.317   5.646   1.855 -0.3413  2.8789 -0.1622
   46MOL0     H 6206   8.433   5.688   2.057  0.4953 -0.5820  3.9035
   46MOL0     H 6207   8.450   5.519   2.047  1.8591  1.0502  1.9782
   46MOL0     H 6208   8.190   5.529   2.384 -0.1276 -0.4014  0.7159
   46MOL0     H 6209   7.957   5.519   2.090  2.7794  1.9842 -3.5731
   46MOL0     H 6210   7.758   5.475   2.193  0.8332  1.3379  0.6439
   47MOL0     O 6211   3.881   4.136   3.170  0.2198 -0.4700 -0.1439
   47MOL0     C 6212   3.932   4.068   3.258 -0.7432 -0.7042 -0.9261
   47MOL0     O 6213   3.937   3.936   3.272  0.0552 -0.0852  0.4246
   47MOL0     C 6214   3.855   3.842   3.204  0.1887  0.1141  0.1008
   47MOL0     C 6215   3.741   3.876   3.120 -0.1154 -0.6654 -0.5815
   47MOL0     C 6216   3.672   3.776   3.055  0.9025 -0.7599  0.1956
   47MOL0     C 6217   3.703   3.639   3.066 -0.2071 -0.7950  0.3985
   47MOL0     O 6218   3.621   3.550   2.994 -0.1901 -0.1369  0.2265
   47MOL0     C 6219   3.599   3.422   3.061 -0.6760 -0.3607  0.6281
   47MOL0     C 6220   3.450   3.419   3.117  0.2226 -0.6859 -0.2077
   47MOL0     C 6221   3.411   3.526   3.216 -0.7184 -0.3790 -0.4406
   47MOL0     C 6222   3.261   3.561   3.206 -0.1612 -0.7052  0.3371
   47MOL0     C 6223   3.165   3.436   3.217  0.1344 -0.1701 -0.6188
   47MOL0     C 6224   3.026   3.488   3.191 -0.2926  0.4577  0.4020
   47MOL0     C 6225   2.926   3.381   3.234 -0.1649  0.2726  0.0816
   47MOL0     C 6226   2.793   3.437   3.197  0.9030  0.0295  0.2041
   47MOL0     N 6227   2.689   3.338   3.220 -0.1287  0.3029 -0.3614
   47MOL0     C 6228   2.647   3.236   3.140  0.2508  0.2646  0.6341
   47MOL0     C 6229   2.541   3.177   3.195 -0.3842  0.0224 -0.5449
   47MOL0     C 6230   2.469   3.058   3.138 -0.1689 -0.2965  0.4896
   47MOL0     C 6231   2.527   2.931   3.221  0.0081 -0.4366  0.2337
   47MOL0     C 6232   2.490   2.796   3.181 -0.0998  0.5072 -0.4769
   47MOL0     C 6233   2.340   2.764   3.191 -0.0001  0.1829  0.6141
   47MOL0     O 6234   2.298   2.783   3.328  0.4150  0.1684 -0.6723
   47MOL0     C 6235   2.181   2.844   3.359  0.0581  0.3960 -0.2433
   47MOL0     C 6236   2.174   2.936   3.464 -0.2731 -0.1474 -0.5045
   47MOL0     C 6237   2.061   3.021   3.490 -0.7235 -0.1267  0.5420
   47MOL0     C 6238   2.074   3.131   3.590 -0.6029 -0.4879 -0.0335
   47MOL0     C 6239   1.954   2.998   3.408  0.6749 -0.3102 -0.0579
   47MOL0     C 6240   1.826   3.074   3.421 -0.2967  0.0983 -0.7998
   47MOL0     O 6241   1.829   3.210   3.448  0.3752  0.5099 -0.4019
   47MOL0     C 6242   1.715   3.278   3.425  0.3556 -0.1556 -0.7723
   47MOL0     C 6243   1.676   3.358   3.537  1.3420  0.3943 -0.7952
   47MOL0     C 6244   1.558   3.429   3.524  0.0045  0.4571 -0.1318
   47MOL0     C 6245   1.473   3.415   3.417  0.1287 -0.6390 -0.7340
   47MOL0     O 6246   1.336   3.453   3.407  0.1455  0.2077 -0.1641
   47MOL0     C 6247   1.265   3.518   3.518 -0.5088  0.1333 -0.0960
   47MOL0     C 6248   1.152   3.617   3.476 -0.4561 -0.6631 -0.6070
   47MOL0     C 6249   1.036   3.557   3.391 -0.2104 -0.4002 -0.0451
   47MOL0     C 6250   0.967   3.431   3.459  0.4083 -0.8440 -0.4980
   47MOL0     C 6251   0.859   3.380   3.375 -0.5082  0.2716 -0.1136
   47MOL0     C 6252   0.817   3.241   3.418 -0.3782 -0.0767  0.3832
   47MOL0     C 6253   0.920   3.128   3.461  0.5589 -0.5791 -0.2986
   47MOL0     C 6254   0.850   2.993   3.475  0.5086 -0.7084  0.2010
   47MOL0    Cl 6255   0.703   2.999   3.583  0.1298  0.2355  0.5014
   47MOL0     C 6256   1.514   3.343   3.308 -0.6448  0.6482  0.5779
   47MOL0     C 6257   1.638   3.273   3.306  0.6837  0.7564 -0.1496
   47MOL0     O 6258   1.730   3.009   3.384 -0.0586 -0.3026 -0.6641
   47MOL0     C 6259   1.949   2.878   3.323  0.5513 -0.0204  0.6611
   47MOL0     C 6260   2.067   2.813   3.286 -0.2147 -0.4805 -0.3184
   47MOL0     N 6261   2.521   3.248   3.314 -0.1915 -0.0717  0.6497
   47MOL0     N 6262   2.602   3.349   3.329 -0.7027 -0.6706 -0.1375
   47MOL0     C 6263   3.818   3.601   3.138  0.3031  0.0845  0.4137
   47MOL0     C 6264   3.887   3.704   3.212 -0.1458 -0.7823  0.5175
   47MOL0     C 6265   4.019   4.145   3.341  0.0810  0.1572 -0.2927
   47MOL0     C 6266   4.024   4.288   3.332  0.2214  0.6200  0.7546
   47MOL0     C 6267   4.105   4.357   3.418  0.1131 -0.2226  0.2658
   47MOL0     C 6268   4.191   4.295   3.513 -0.0598 -0.7633 -0.2203
   47MOL0     O 6269   4.257   4.377   3.601  0.4390  0.2901 -0.6968
   47MOL0     C 6270   4.369   4.318   3.676 -0.6330  0.3164  0.5884
   47MOL0     C 6271   4.417   4.427   3.775 -0.4863 -0.1449 -0.4733
   47MOL0     C 6272   4.550   4.378   3.831  0.5775 -0.0162 -0.3113
   47MOL0     C 6273   4.617   4.488   3.910 -0.2630 -0.0079 -0.3365
   47MOL0     C 6274   4.753   4.436   3.949  0.5253 -0.9900  0.0609
   47MOL0     C 6275   4.853   4.400   4.009 -0.7908  0.4085  0.9609
   47MOL0     C 6276   4.200   4.155   3.506 -0.1477  0.3947 -0.1800
   47MOL0     C 6277   4.109   4.087   3.421 -1.8013 -0.2131 -0.7544
   47MOL0     H 6278   3.711   3.978   3.099 -2.7784 -1.6544 -1.9838
   47MOL0     H 6279   3.591   3.804   2.988  0.2704  0.6643  1.4864
   47MOL0     H 6280   3.625   3.347   2.986  0.9114  0.1533  0.6249
   47MOL0     H 6281   3.663   3.402   3.148 -0.2002  0.0324  0.3682
   47MOL0     H 6282   3.377   3.432   3.037 -1.0890  2.3258  1.3171
   47MOL0     H 6283   3.435   3.325   3.171  0.2259 -2.6070 -3.3333
   47MOL0     H 6284   3.434   3.501   3.320  2.1377  1.6702 -0.4763
   47MOL0     H 6285   3.472   3.615   3.198 -0.4648 -0.2796  0.8581
   47MOL0     H 6286   3.239   3.637   3.281 -2.3176  1.6231 -2.4543
   47MOL0     H 6287   3.238   3.615   3.114 -1.3136  1.6239  1.9057
   47MOL0     H 6288   3.190   3.368   3.135 -3.1207 -0.2669 -1.6728
   47MOL0     H 6289   3.172   3.401   3.321  2.1676  1.7688 -0.0132
   47MOL0     H 6290   3.005   3.576   3.252 -2.5309  0.9405 -0.9438
   47MOL0     H 6291   3.018   3.516   3.085 -0.4333  2.0898  0.8128
   47MOL0     H 6292   2.940   3.291   3.172 -0.5621  1.1374 -1.3046
   47MOL0     H 6293   2.926   3.363   3.342  2.4228  0.9290  0.2721
   47MOL0     H 6294   2.790   3.473   3.094 -0.2580  1.0164  0.5745
   47MOL0     H 6295   2.771   3.525   3.258  0.6088  0.5336 -0.6217
   47MOL0     H 6296   2.685   3.209   3.042  1.7824  1.2423  0.9230
   47MOL0     H 6297   2.360   3.056   3.145 -0.3603 -2.1505 -1.5145
   47MOL0     H 6298   2.492   3.050   3.031  0.7409 -1.2066  0.7306
   47MOL0     H 6299   2.486   2.942   3.322 -2.3429 -1.3520 -0.5593
   47MOL0     H 6300   2.635   2.946   3.214 -0.1244  0.1519 -0.7672
   47MOL0     H 6301   2.549   2.727   3.243 -0.5637  2.3674  2.2313
   47MOL0     H 6302   2.516   2.777   3.076  0.0747 -1.6198 -0.0950
   47MOL0     H 6303   2.317   2.663   3.153 -0.4372  1.1533 -1.9002
   47MOL0     H 6304   2.277   2.830   3.131 -1.0632  0.9973  2.5476
   47MOL0     H 6305   2.265   2.949   3.522  0.4664  0.0689 -1.6716
   47MOL0     H 6306   2.129   3.210   3.538 -0.0980  1.1644  2.8281
   47MOL0     H 6307   1.974   3.156   3.625 -0.5525 -0.8480  0.3782
   47MOL0     H 6308   2.128   3.099   3.680  1.0547  1.3317 -0.3115
   47MOL0     H 6309   1.734   3.361   3.629  4.3651  0.4202 -2.5411
   47MOL0     H 6310   1.529   3.494   3.606 -3.6024 -3.7144  2.3297
   47MOL0     H 6311   1.219   3.441   3.580 -1.3696 -0.4133 -1.3663
   47MOL0     H 6312   1.340   3.575   3.573  1.7558  0.5453 -3.2984
   47MOL0     H 6313   1.106   3.660   3.566  0.0856  0.6149 -0.9129
   47MOL0     H 6314   1.199   3.705   3.430  0.9144 -1.6481 -1.1573
   47MOL0     H 6315   1.079   3.537   3.292  3.3440  0.6737  1.1290
   47MOL0     H 6316   0.954   3.629   3.380 -0.4485 -0.8025 -0.9965
   47MOL0     H 6317   1.042   3.354   3.479 -0.4296 -1.6938 -0.5684
   47MOL0     H 6318   0.929   3.462   3.556  0.6598 -1.2494 -0.2650
   47MOL0     H 6319   0.896   3.364   3.274 -4.0908 -0.3116 -1.4859
   47MOL0     H 6320   0.773   3.447   3.367  0.7033  1.6476 -3.5954
   47MOL0     H 6321   0.745   3.261   3.498  1.9588  2.9867  1.9312
   47MOL0     H 6322   0.767   3.195   3.332  0.9549  2.5570 -1.9670
   47MOL0     H 6323   0.970   3.158   3.554  0.5073 -1.7695  0.1300
   47MOL0     H 6324   0.988   3.110   3.378 -0.6736 -0.0700 -1.4683
   47MOL0     H 6325   0.910   2.911   3.515  0.3944 -1.0898 -0.4079
   47MOL0     H 6326   0.825   2.954   3.376 -1.5933  2.8976 -0.8804
   47MOL0     H 6327   1.448   3.325   3.224 -1.0249  1.5638  0.6709
   47MOL0     H 6328   1.667   3.208   3.224  1.6223  0.8259  0.1157
   47MOL0     H 6329   1.862   2.850   3.266  0.9930 -0.7824  0.3339
   47MOL0     H 6330   2.065   2.725   3.222 -0.4208  0.1841 -1.2525
   47MOL0     H 6331   3.855   3.500   3.146  0.3176 -0.0364 -0.8803
   47MOL0     H 6332   3.969   3.683   3.280  0.2473 -2.1477 -0.3497
   47MOL0     H 6333   3.968   4.340   3.256 -1.1037  0.7823  1.7996
   47MOL0     H 6334   4.106   4.465   3.416  1.5337 -0.2070  0.6529
   47MOL0     H 6335   4.349   4.226   3.732  1.6984  0.8024  2.3362
   47MOL0     H 6336   4.446   4.283   3.607 -1.0989 -0.0699  0.2485
   47MOL0     H 6337   4.348   4.439   3.859  0.8095 -0.5797  0.7012
   47MOL0     H 6338   4.425   4.527   3.732 -1.9914 -0.2103 -0.9423
   47MOL0     H 6339   4.616   4.354   3.747  0.3369  1.8848 -1.1001
   47MOL0     H 6340   4.539   4.284   3.885  1.8362 -1.2948 -2.1562
   47MOL0     H 6341   4.558   4.526   3.994  1.5439  0.0227  0.9794
   47MOL0     H 6342   4.637   4.572   3.844 -1.0059 -0.2000 -0.8240
   47MOL0     H 6343   4.937   4.369   4.069  1.1166 -1.7587 -2.4675
   47MOL0     H 6344   4.285   4.120   3.564  0.5371 -0.8621 -1.8616
   47MOL0     H 6345   4.133   3.981   3.416  5.6863  0.9335 -0.8554
   48MOL0     O 6346   8.873   4.812   8.538  0.3800  0.3249 -0.7278
   48MOL0     C 6347   8.852   4.925   8.589 -0.0395  0.3843  0.6479
   48MOL0     O 6348   8.736   4.999   8.566 -0.2286  0.3506 -0.4762
   48MOL0     C 6349   8.626   4.939   8.499  0.1048 -0.5310  0.5756
   48MOL0     C 6350   8.564   4.819   8.525 -0.5811 -0.5341  0.4709
   48MOL0     C 6351   8.446   4.785   8.452 -0.4207  0.0123 -0.0798
   48MOL0     C 6352   8.393   4.871   8.357  0.2384 -0.1408  0.6652
   48MOL0     O 6353   8.278   4.863   8.292 -0.0136 -0.0248  0.2561
   48MOL0     C 6354   8.174   4.786   8.355 -0.5645 -0.1605 -1.0274
   48MOL0     C 6355   8.037   4.839   8.306 -1.1524 -0.3004 -0.0828
   48MOL0     C 6356   7.915   4.762   8.361 -0.5812  0.5433 -1.3588
   48MOL0     C 6357   7.787   4.830   8.320  0.9667 -0.3467  0.2788
   48MOL0     C 6358   7.676   4.747   8.380 -0.4996  0.7203 -0.0111
   48MOL0     C 6359   7.542   4.794   8.326  0.4245 -0.7228 -0.3117
   48MOL0     C 6360   7.432   4.739   8.415 -0.0023 -1.0262 -0.5643
   48MOL0     C 6361   7.294   4.773   8.354 -0.5707 -0.3853  0.4622
   48MOL0     N 6362   7.190   4.696   8.418  0.2726  0.2940  0.0510
   48MOL0     C 6363   7.101   4.621   8.354  0.1056  1.2698 -0.4370
   48MOL0     C 6364   7.014   4.585   8.451 -0.1042  0.9628  1.2131
   48MOL0     C 6365   6.906   4.489   8.420  0.2072  0.4595 -0.2631
   48MOL0     C 6366   6.808   4.531   8.304 -0.4148  0.3251  0.0243
   48MOL0     C 6367   6.685   4.445   8.292  0.4920 -0.4402 -0.1925
   48MOL0     C 6368   6.601   4.422   8.420  0.2900  0.1182  0.0215
   48MOL0     O 6369   6.478   4.349   8.409  0.6415  0.2395  0.4009
   48MOL0     C 6370   6.359   4.414   8.370 -0.2874 -0.0203 -1.1102
   48MOL0     C 6371   6.317   4.544   8.406  0.1861 -0.5134  1.2274
   48MOL0     C 6372   6.200   4.603   8.366 -0.0039  0.0301  0.1940
   48MOL0     C 6373   6.174   4.751   8.389  0.0367  0.3550  0.7240
   48MOL0     C 6374   6.111   4.519   8.288 -0.6177 -0.2961 -0.4840
   48MOL0     C 6375   5.983   4.570   8.241 -0.3478 -0.2091  0.0730
   48MOL0     O 6376   5.963   4.705   8.203 -0.3510 -0.5967 -0.3710
   48MOL0     C 6377   5.838   4.753   8.182 -1.0781 -0.3313 -0.2735
   48MOL0     C 6378   5.762   4.767   8.299  0.7737 -0.6768 -0.6600
   48MOL0     C 6379   5.624   4.809   8.286 -0.5750  0.4017  0.5573
   48MOL0     C 6380   5.566   4.830   8.155  0.4938  0.1820 -0.1305
   48MOL0     O 6381   5.439   4.861   8.145  0.1696  0.1767 -0.3057
   48MOL0     C 6382   5.344   4.785   8.224 -0.7142 -0.3450 -0.2772
   48MOL0     C 6383   5.225   4.742   8.132 -0.4260  0.1054  0.4129
   48MOL0     C 6384   5.163   4.865   8.068  0.5793 -0.4511  0.7694
   48MOL0     C 6385   5.090   4.963   8.167 -0.5902 -0.1597  0.3459
   48MOL0     C 6386   4.978   4.903   8.254  0.4832  0.8044  0.1973
   48MOL0     C 6387   4.874   5.006   8.315 -0.3201 -0.1535 -0.5348
   48MOL0     C 6388   4.823   5.116   8.233 -0.1311  0.4408  0.4275
   48MOL0     C 6389   4.772   5.076   8.091 -0.1601 -0.5160  0.6642
   48MOL0    Cl 6390   4.678   5.213   8.021  0.3747 -0.0592  0.1867
   48MOL0     C 6391   5.644   4.806   8.037  0.5301  0.4461 -0.2763
   48MOL0     C 6392   5.775   4.778   8.059  0.3389  1.0664  0.7366
   48MOL0     O 6393   5.895   4.483   8.210 -0.7190  0.3294 -0.0872
   48MOL0     C 6394   6.144   4.383   8.267 -0.2726 -0.8510 -0.4450
   48MOL0     C 6395   6.269   4.333   8.299 -0.2307 -0.2158  0.5199
   48MOL0     N 6396   7.051   4.639   8.562 -0.0571 -0.8930 -0.4591
   48MOL0     N 6397   7.155   4.711   8.548 -0.8623  0.1314 -0.2355
   48MOL0     C 6398   8.450   4.990   8.336  0.1776  0.2558  0.6239
   48MOL0     C 6399   8.572   5.013   8.396 -0.6821  0.0293  0.2458
   48MOL0     C 6400   8.958   4.997   8.658 -0.3535 -0.4339  0.5585
   48MOL0     C 6401   8.951   5.134   8.689  0.7103  0.2515  0.8312
   48MOL0     C 6402   9.059   5.200   8.753 -0.3770  0.4081  0.8059
   48MOL0     C 6403   9.169   5.131   8.799  0.6876  0.2232  0.6816
   48MOL0     O 6404   9.287   5.189   8.835  0.6942  0.5505 -0.3279
   48MOL0     C 6405   9.296   5.332   8.864  0.2860 -0.2568  0.6999
   48MOL0     C 6406   9.306   5.402   8.728 -0.1107 -0.6757 -0.5717
   48MOL0     C 6407   9.461   5.401   8.685  0.5411 -0.0259 -1.3206
   48MOL0     C 6408   9.479   5.492   8.565 -0.0471 -0.7246  0.2881
   48MOL0     C 6409   9.470   5.639   8.608 -0.5984  0.8231  0.0047
   48MOL0     C 6410   9.460   5.754   8.637 -0.3547  0.4538  0.4845
   48MOL0     C 6411   9.174   4.992   8.764  0.7259 -0.3214 -0.9449
   48MOL0     C 6412   9.074   4.926   8.692  0.5613 -0.6854  0.1142
   48MOL0     H 6413   8.616   4.758   8.599 -0.7712 -0.7782  0.4035
   48MOL0     H 6414   8.403   4.689   8.478 -1.3773  0.8114  1.4327
   48MOL0     H 6415   8.179   4.681   8.327 -0.1142 -0.9547  1.7357
   48MOL0     H 6416   8.188   4.779   8.464  0.1250 -0.5410 -1.1404
   48MOL0     H 6417   8.036   4.947   8.318 -2.1060 -0.1279 -1.4309
   48MOL0     H 6418   8.034   4.819   8.198 -0.6430 -0.4647 -0.0672
   48MOL0     H 6419   7.916   4.658   8.327 -1.3485  0.0960 -0.0790
   48MOL0     H 6420   7.926   4.769   8.470  2.0099  2.0604 -1.6236
   48MOL0     H 6421   7.776   4.931   8.361  1.6674  0.7329 -2.0201
   48MOL0     H 6422   7.767   4.828   8.212 -0.6591 -1.6416  0.5607
   48MOL0     H 6423   7.688   4.638   8.368 -3.4419  0.2306  0.6736
   48MOL0     H 6424   7.677   4.763   8.488  0.5159 -1.3701  0.3470
   48MOL0     H 6425   7.538   4.903   8.319  0.2007 -0.7625 -0.9547
   48MOL0     H 6426   7.519   4.771   8.221 -0.7223 -0.9865 -0.0157
   48MOL0     H 6427   7.437   4.631   8.429 -2.0644 -1.2284 -0.9704
   48MOL0     H 6428   7.428   4.776   8.518  3.6765 -0.2985 -0.5708
   48MOL0     H 6429   7.294   4.760   8.246 -1.8451  2.7814 -0.0455
   48MOL0     H 6430   7.273   4.880   8.365  1.3895  0.5151 -3.1378
   48MOL0     H 6431   7.080   4.602   8.249  0.2645  0.8912 -0.3999
   48MOL0     H 6432   6.935   4.386   8.401 -2.8403 -0.6092  0.3205
   48MOL0     H 6433   6.848   4.480   8.512 -2.2107  1.8121 -1.5465
   48MOL0     H 6434   6.861   4.524   8.209  0.4774  0.6191  0.4850
   48MOL0     H 6435   6.789   4.638   8.319 -1.0801  0.1333  0.6216
   48MOL0     H 6436   6.725   4.352   8.252 -1.4951  0.2597 -4.3713
   48MOL0     H 6437   6.621   4.474   8.208 -1.6104 -3.1345  0.3426
   48MOL0     H 6438   6.575   4.523   8.452 -2.7406  1.6358 -5.7408
   48MOL0     H 6439   6.661   4.366   8.492 -3.0359 -1.3913  1.8202
   48MOL0     H 6440   6.386   4.599   8.469  0.2947 -1.4621  1.9651
   48MOL0     H 6441   6.076   4.766   8.435  0.8248  1.7820  2.0276
   48MOL0     H 6442   6.251   4.787   8.459 -0.7215  1.7284  0.8752
   48MOL0     H 6443   6.181   4.806   8.295 -2.2745 -0.5342 -0.0239
   48MOL0     H 6444   5.823   4.744   8.386  0.4560  1.9299  0.3368
   48MOL0     H 6445   5.565   4.811   8.377  2.7883 -1.9545  3.0196
   48MOL0     H 6446   5.393   4.693   8.257 -0.1563  0.0432 -0.0002
   48MOL0     H 6447   5.313   4.829   8.319 -1.8279 -3.3474  0.8790
   48MOL0     H 6448   5.263   4.669   8.060  0.1118 -0.7236  1.4985
   48MOL0     H 6449   5.147   4.686   8.185  1.5324 -0.5652  2.8053
   48MOL0     H 6450   5.090   4.836   7.992  1.5763  1.4540 -1.0081
   48MOL0     H 6451   5.233   4.923   8.007  0.3810  1.3158  2.1161
   48MOL0     H 6452   5.171   5.006   8.227  2.3361  0.2309 -3.4693
   48MOL0     H 6453   5.049   5.049   8.112  3.3728  3.0170  1.8315
   48MOL0     H 6454   5.026   4.852   8.338  1.0432 -1.2789 -1.2985
   48MOL0     H 6455   4.937   4.826   8.189  1.7910  2.4767 -2.8028
   48MOL0     H 6456   4.791   4.954   8.365  1.6184 -1.1879  1.7970
   48MOL0     H 6457   4.921   5.058   8.399 -2.2624 -1.4491  1.4659
   48MOL0     H 6458   4.907   5.187   8.227  1.8195 -1.7668  0.1821
   48MOL0     H 6459   4.745   5.163   8.292 -0.8900  0.2408 -0.3954
   48MOL0     H 6460   4.705   4.990   8.094  0.1242 -0.7302  0.9894
   48MOL0     H 6461   4.857   5.055   8.026 -0.8497  1.0302 -0.8120
   48MOL0     H 6462   5.590   4.817   7.943 -0.4766  2.7911  0.5023
   48MOL0     H 6463   5.833   4.754   7.971 -0.9867  2.7725 -0.6715
   48MOL0     H 6464   6.080   4.328   8.198  0.3032 -1.2003 -0.7064
   48MOL0     H 6465   6.291   4.228   8.280  0.4298 -0.3801  2.0372
   48MOL0     H 6466   8.407   5.073   8.279  1.7498  0.7853  0.1589
   48MOL0     H 6467   8.614   5.111   8.377  0.2153  0.2358  2.9063
   48MOL0     H 6468   8.874   5.186   8.633  1.9132 -0.2350 -1.4077
   48MOL0     H 6469   9.055   5.308   8.760  3.2816  0.6233  1.3511
   48MOL0     H 6470   9.207   5.359   8.921  0.1338  0.8280 -0.0144
   48MOL0     H 6471   9.384   5.368   8.918  0.4703  2.4084 -1.1546
   48MOL0     H 6472   9.260   5.499   8.746 -4.2398 -2.5167 -0.1560
   48MOL0     H 6473   9.255   5.345   8.650  0.3147  0.3015 -1.5981
   48MOL0     H 6474   9.479   5.294   8.671  0.1780 -0.3500  0.4934
   48MOL0     H 6475   9.532   5.430   8.763  0.6200 -1.4818 -0.8272
   48MOL0     H 6476   9.407   5.473   8.485 -1.3745  0.7517  1.0709
   48MOL0     H 6477   9.583   5.481   8.533 -0.1430 -2.7870  0.5408
   48MOL0     H 6478   9.475   5.857   8.665  0.4890  1.5553 -3.3513
   48MOL0     H 6479   9.268   4.941   8.784 -0.6438 -1.6657  3.1655
   48MOL0     H 6480   9.092   4.819   8.684 -1.2866 -1.0278  0.1393
   49MOL0     O 6481   8.834   1.165   2.546 -0.7083  0.8271  0.2368
   49MOL0     C 6482   8.873   1.214   2.440 -0.1953  0.3531  0.0758
   49MOL0     O 6483   8.849   1.342   2.401 -0.0435  0.6514  0.7823
   49MOL0     C 6484   8.756   1.425   2.468 -0.0128 -0.4498 -0.6718
   49MOL0     C 6485   8.639   1.483   2.418  0.6080  0.5583 -0.3992
   49MOL0     C 6486   8.564   1.570   2.483  0.9888  0.7072 -0.1307
   49MOL0     C 6487   8.588   1.601   2.615  0.0867 -0.4986  0.4378
   49MOL0     O 6488   8.514   1.709   2.672 -0.5294 -0.5678  0.0863
   49MOL0     C 6489   8.553   1.749   2.812 -0.2080 -0.1887  0.1583
   49MOL0     C 6490   8.461   1.855   2.864  0.3520 -0.1760 -0.3190
   49MOL0     C 6491   8.504   1.897   3.003 -0.5177 -0.0452  0.2393
   49MOL0     C 6492   8.390   1.979   3.065  0.5285 -0.4965 -0.3647
   49MOL0     C 6493   8.434   2.043   3.194  0.1158 -0.5066  0.3154
   49MOL0     C 6494   8.343   2.161   3.239 -0.1201 -0.0608 -0.2501
   49MOL0     C 6495   8.389   2.224   3.368 -1.1936 -0.0541  0.1391
   49MOL0     C 6496   8.363   2.151   3.493 -0.4967  0.0559  0.2242
   49MOL0     N 6497   8.232   2.161   3.535 -0.1802  0.5254  0.8360
   49MOL0     C 6498   8.167   2.271   3.583 -0.3376  0.4373  0.4764
   49MOL0     C 6499   8.039   2.232   3.600 -1.0179  0.0997  0.5881
   49MOL0     C 6500   7.927   2.321   3.654  0.5393 -0.0559 -0.0845
   49MOL0     C 6501   7.894   2.433   3.555 -0.2864  0.5313 -0.6486
   49MOL0     C 6502   7.850   2.390   3.424 -0.3409  0.3984  0.3074
   49MOL0     C 6503   7.740   2.475   3.357  0.0761  0.4525 -0.4077
   49MOL0     O 6504   7.755   2.619   3.379 -0.0192 -0.5655 -0.1815
   49MOL0     C 6505   7.680   2.708   3.315 -0.6282 -0.2161 -0.0615
   49MOL0     C 6506   7.740   2.836   3.296  0.9629  0.6868  0.2978
   49MOL0     C 6507   7.657   2.938   3.240 -0.4081  0.2268 -0.5722
   49MOL0     C 6508   7.722   3.071   3.236 -0.2692  0.3886 -0.1805
   49MOL0     C 6509   7.519   2.914   3.204 -0.1097  0.0747 -0.8535
   49MOL0     C 6510   7.422   3.022   3.149  0.2434  0.2271 -0.3398
   49MOL0     O 6511   7.296   2.974   3.098  0.1966 -0.3262 -0.0875
   49MOL0     C 6512   7.201   3.064   3.060 -0.2449 -0.9209  0.7922
   49MOL0     C 6513   7.221   3.163   2.960  0.0543 -0.8137  1.1056
   49MOL0     C 6514   7.118   3.230   2.891  0.3058  0.7113  0.1641
   49MOL0     C 6515   6.986   3.208   2.939  0.2395  0.0834  0.0754
   49MOL0     O 6516   6.881   3.275   2.878 -0.1361 -0.0642 -0.6954
   49MOL0     C 6517   6.755   3.196   2.850 -0.6892 -0.1558  0.1047
   49MOL0     C 6518   6.639   3.288   2.846 -0.2589 -0.1983 -0.5956
   49MOL0     C 6519   6.501   3.222   2.846 -0.9688  0.2140  0.7206
   49MOL0     C 6520   6.394   3.333   2.843 -0.1813 -0.4370  0.0061
   49MOL0     C 6521   6.251   3.278   2.810 -0.0396 -0.9510  0.0560
   49MOL0     C 6522   6.183   3.202   2.919 -0.4727 -0.0681  0.6315
   49MOL0     C 6523   6.029   3.193   2.878  0.1597 -0.9800 -0.0632
   49MOL0     C 6524   5.942   3.106   2.969  0.0699 -0.3259  0.9628
   49MOL0    Cl 6525   5.799   3.069   2.868 -0.0019 -0.0581 -0.2526
   49MOL0     C 6526   6.967   3.110   3.042 -0.0500 -0.2214  0.8932
   49MOL0     C 6527   7.077   3.045   3.102  0.9294  0.3838  0.0659
   49MOL0     O 6528   7.450   3.143   3.169 -0.5001  0.3492 -0.6580
   49MOL0     C 6529   7.463   2.784   3.232  0.2066  0.4044 -0.1663
   49MOL0     C 6530   7.541   2.687   3.290  0.1522 -0.1837  1.0982
   49MOL0     N 6531   8.023   2.098   3.570  0.9956 -0.8052 -0.0015
   49MOL0     N 6532   8.138   2.061   3.518  0.8328 -0.4777  0.6392
   49MOL0     C 6533   8.695   1.538   2.684  1.0034  0.0716 -0.6897
   49MOL0     C 6534   8.777   1.442   2.613  0.4109 -0.4909  0.2462
   49MOL0     C 6535   8.961   1.139   2.354  0.4424  0.0677 -0.0686
   49MOL0     C 6536   8.986   1.178   2.227  0.4916  0.2282  0.0718
   49MOL0     C 6537   9.033   1.084   2.132  0.5933  1.0959 -0.0307
   49MOL0     C 6538   9.065   0.955   2.170 -0.1601 -0.6184 -0.3214
   49MOL0     O 6539   9.102   0.861   2.074  0.3559 -0.4649  0.3221
   49MOL0     C 6540   9.122   0.720   2.100 -0.7649 -0.1772  0.4709
   49MOL0     C 6541   9.099   0.647   1.966  0.6197  0.5400 -0.8843
   49MOL0     C 6542   9.205   0.688   1.867  0.7260  0.1427  0.4309
   49MOL0     C 6543   9.336   0.621   1.894  0.4442  0.1908  0.5375
   49MOL0     C 6544   9.449   0.671   1.810  0.4798 -0.2754 -0.6706
   49MOL0     C 6545   9.544   0.688   1.737 -0.6835  0.1089 -0.0529
   49MOL0     C 6546   9.060   0.918   2.306  0.4522  0.5316 -0.1822
   49MOL0     C 6547   9.019   1.013   2.395  0.0625  0.0580  0.3685
   49MOL0     H 6548   8.614   1.464   2.314  0.7984 -3.3533  0.0977
   49MOL0     H 6549   8.485   1.631   2.440  0.8714  0.7389  0.1312
   49MOL0     H 6550   8.539   1.659   2.874 -2.4194  0.0334  0.0692
   49MOL0     H 6551   8.657   1.781   2.819 -0.7111  1.4876  0.4822
   49MOL0     H 6552   8.482   1.940   2.798  0.4625  2.0948  2.4763
   49MOL0     H 6553   8.359   1.819   2.847  0.6675 -1.6104  0.6410
   49MOL0     H 6554   8.533   1.805   3.053  1.2446 -0.5625 -1.6092
   49MOL0     H 6555   8.587   1.967   2.990 -0.7247 -0.2372 -3.0874
   49MOL0     H 6556   8.339   2.047   2.996  0.0625  0.1884  0.6299
   49MOL0     H 6557   8.318   1.901   3.092 -0.5185 -0.3675 -2.6245
   49MOL0     H 6558   8.441   1.962   3.268 -1.6163 -0.0945  0.9714
   49MOL0     H 6559   8.534   2.083   3.177 -0.7326  1.3566 -0.5548
   49MOL0     H 6560   8.343   2.229   3.154  1.0492 -2.0139 -1.9109
   49MOL0     H 6561   8.239   2.126   3.245  0.2942 -1.1181  1.7129
   49MOL0     H 6562   8.496   2.242   3.360 -1.0945 -0.8020 -0.2640
   49MOL0     H 6563   8.343   2.323   3.382  0.2753  0.8615 -1.1608
   49MOL0     H 6564   8.429   2.178   3.576  2.3930 -1.4842 -1.4131
   49MOL0     H 6565   8.383   2.046   3.470 -2.1648 -0.1170 -0.5844
   49MOL0     H 6566   8.215   2.368   3.589  0.3266  0.2036 -0.6242
   49MOL0     H 6567   7.828   2.276   3.666 -0.5477  2.1233 -0.2702
   49MOL0     H 6568   7.939   2.364   3.754 -6.7378 -0.3420  1.4919
   49MOL0     H 6569   7.974   2.506   3.540  1.1030 -1.0084 -1.0602
   49MOL0     H 6570   7.811   2.489   3.599  1.9397  3.0359  0.6329
   49MOL0     H 6571   7.819   2.285   3.423  0.3041  0.1976  1.0377
   49MOL0     H 6572   7.934   2.407   3.356 -0.7615 -0.7066 -0.5351
   49MOL0     H 6573   7.649   2.450   3.412  1.7816  2.1428  3.6161
   49MOL0     H 6574   7.745   2.460   3.249  2.0401 -0.2266 -0.2654
   49MOL0     H 6575   7.840   2.856   3.334  2.0039 -0.6062 -1.6095
   49MOL0     H 6576   7.672   3.144   3.300 -0.8194  1.2683 -1.5685
   49MOL0     H 6577   7.828   3.075   3.264 -0.3291 -0.9478  0.2656
   49MOL0     H 6578   7.731   3.104   3.132  3.3988 -2.2601 -0.9043
   49MOL0     H 6579   7.321   3.183   2.923  0.0630 -3.3715 -0.4793
   49MOL0     H 6580   7.138   3.289   2.802 -0.9087 -1.5468 -1.7480
   49MOL0     H 6581   6.765   3.136   2.759  0.0488  0.3484 -0.1494
   49MOL0     H 6582   6.728   3.129   2.932  1.8452 -1.2027  0.1649
   49MOL0     H 6583   6.644   3.353   2.935  1.0798 -0.4273 -0.4897
   49MOL0     H 6584   6.645   3.357   2.761 -3.2533 -0.0094 -0.7743
   49MOL0     H 6585   6.486   3.164   2.938 -0.4047 -0.9248  0.1076
   49MOL0     H 6586   6.478   3.145   2.772  1.0459 -2.6631  2.8431
   49MOL0     H 6587   6.380   3.392   2.933 -0.0128  1.5517 -1.2138
   49MOL0     H 6588   6.415   3.409   2.767  0.3170 -0.0863  0.4906
   49MOL0     H 6589   6.245   3.206   2.727 -0.0585 -1.1351  0.2152
   49MOL0     H 6590   6.188   3.361   2.775 -2.0261 -2.1281  0.6675
   49MOL0     H 6591   6.227   3.103   2.931  1.5074  0.3329 -2.1792
   49MOL0     H 6592   6.203   3.254   3.013 -0.6302  0.1281  0.5588
   49MOL0     H 6593   6.020   3.147   2.779  0.4630  0.3454 -0.7382
   49MOL0     H 6594   5.984   3.293   2.875 -0.9949 -1.4300  1.1244
   49MOL0     H 6595   5.917   3.147   3.067  0.4290 -1.4594  1.5434
   49MOL0     H 6596   6.004   3.017   2.986  2.4226  1.2043  0.9020
   49MOL0     H 6597   6.867   3.093   3.080  0.2100 -0.4852  1.4775
   49MOL0     H 6598   7.069   2.974   3.183 -1.4499 -2.1255 -2.1300
   49MOL0     H 6599   7.359   2.753   3.221  0.1246  1.1751 -2.0714
   49MOL0     H 6600   7.492   2.597   3.327 -0.1985  0.1236  1.3820
   49MOL0     H 6601   8.729   1.553   2.786  0.1550 -2.2496  0.0016
   49MOL0     H 6602   8.870   1.407   2.657  1.4650  0.2502 -1.3062
   49MOL0     H 6603   8.970   1.279   2.190  2.8634  1.9100  3.1173
   49MOL0     H 6604   9.048   1.130   2.035 -1.4177  2.5715  0.3120
   49MOL0     H 6605   9.225   0.698   2.127 -1.1686 -4.4732 -0.8624
   49MOL0     H 6606   9.057   0.675   2.176  0.2815 -3.6380 -0.5060
   49MOL0     H 6607   9.000   0.673   1.928 -0.5781 -1.7338  0.4767
   49MOL0     H 6608   9.108   0.538   1.976 -1.0586  0.4932  0.6018
   49MOL0     H 6609   9.223   0.796   1.877 -4.0886  1.2343  0.2002
   49MOL0     H 6610   9.174   0.668   1.764  0.4529 -1.6742  0.8373
   49MOL0     H 6611   9.317   0.514   1.892 -2.1533  0.5860  0.0609
   49MOL0     H 6612   9.371   0.650   1.994  1.5483 -0.1309  0.2526
   49MOL0     H 6613   9.623   0.702   1.666  0.1349  2.4770  1.1720
   49MOL0     H 6614   9.099   0.821   2.334  1.7177  1.4876  1.5082
   49MOL0     H 6615   9.004   0.983   2.498 -0.9746 -0.4233  0.0974
   50MOL0     O 6616   0.211   0.591   2.320 -0.2534 -0.1285 -0.5706
   50MOL0     C 6617   0.273   0.503   2.373 -0.7546 -0.1190 -0.0731
   50MOL0     O 6618   0.223   0.391   2.440  0.2285 -0.5853  0.5891
   50MOL0     C 6619   0.091   0.383   2.452  0.5520  1.2235 -0.6931
   50MOL0     C 6620   0.020   0.475   2.528  0.1059  0.2241  0.4161
   50MOL0     C 6621  -0.122   0.455   2.550  0.9915 -0.4515 -0.3157
   50MOL0     C 6622  -0.183   0.346   2.498  0.0066  0.8085 -0.0972
   50MOL0     O 6623  -0.320   0.321   2.508  0.0014  0.2958 -0.2308
   50MOL0     C 6624  -0.384   0.354   2.629  0.1252 -0.1540  1.0247
   50MOL0     C 6625  -0.330   0.255   2.740 -0.5483 -0.5518  0.2657
   50MOL0     C 6626  -0.397   0.117   2.727  0.3686  1.3208 -0.2159
   50MOL0     C 6627  -0.554   0.113   2.727 -0.4826 -0.2039 -0.2079
   50MOL0     C 6628  -0.602   0.173   2.862  0.7232  0.2175 -0.0581
   50MOL0     C 6629  -0.561   0.100   2.990  1.4273  0.1257 -1.1209
   50MOL0     C 6630  -0.622  -0.045   2.992 -0.5009  0.0389 -0.0669
   50MOL0     C 6631  -0.771  -0.058   2.950  0.6964  0.3198 -0.6287
   50MOL0     N 6632  -0.848  -0.171   3.018 -0.1660  0.1571 -0.0636
   50MOL0     C 6633  -0.891  -0.287   2.958 -0.8291 -0.7386  0.0401
   50MOL0     C 6634  -0.929  -0.365   3.059  0.1485  0.2817 -0.5457
   50MOL0     C 6635  -0.979  -0.511   3.057 -0.2963 -0.0567 -0.4371
   50MOL0     C 6636  -1.138  -0.506   3.046 -0.9042  0.4661  0.5072
   50MOL0     C 6637  -1.206  -0.467   3.182 -0.4682  0.6570  0.3243
   50MOL0     C 6638  -1.185  -0.553   3.312 -0.0269  0.6595 -0.2522
   50MOL0     O 6639  -1.222  -0.695   3.292  0.2030 -0.1654 -0.6499
   50MOL0     C 6640  -1.357  -0.728   3.297  0.2554  0.1583  1.0218
   50MOL0     C 6641  -1.456  -0.638   3.331  0.2216  0.7524 -0.2267
   50MOL0     C 6642  -1.591  -0.680   3.358 -0.8591  0.4721  0.9955
   50MOL0     C 6643  -1.679  -0.562   3.401 -0.1619 -0.1797 -0.0655
   50MOL0     C 6644  -1.622  -0.823   3.340 -0.5759 -0.9485 -0.1662
   50MOL0     C 6645  -1.763  -0.873   3.346 -0.2443  0.0634 -0.8356
   50MOL0     O 6646  -1.863  -0.777   3.329  0.7058  0.8262  0.4430
   50MOL0     C 6647  -1.994  -0.800   3.382 -0.1742 -0.3124 -0.6642
   50MOL0     C 6648  -2.083  -0.867   3.299 -0.4287 -0.9636 -0.2091
   50MOL0     C 6649  -2.224  -0.860   3.333 -0.2511  0.4187  0.1847
   50MOL0     C 6650  -2.259  -0.804   3.454 -0.5899 -0.5326  0.2005
   50MOL0     O 6651  -2.392  -0.823   3.493 -0.0661 -0.1390  0.6222
   50MOL0     C 6652  -2.495  -0.785   3.400 -0.8507 -0.2146  0.1082
   50MOL0     C 6653  -2.629  -0.839   3.449  0.6642  1.0459 -0.2011
   50MOL0     C 6654  -2.754  -0.775   3.394 -0.3467  0.6882  0.9663
   50MOL0     C 6655  -2.880  -0.846   3.459 -0.2559 -0.2815  0.0790
   50MOL0     C 6656  -2.936  -0.964   3.367 -0.0654  0.1476 -0.5888
   50MOL0     C 6657  -3.056  -1.038   3.438  0.2404 -0.2791  1.4547
   50MOL0     C 6658  -3.186  -0.952   3.452  0.2239 -0.0782  0.7733
   50MOL0     C 6659  -3.308  -1.045   3.463  0.3491  0.1098 -0.1950
   50MOL0    Cl 6660  -3.454  -0.927   3.475  0.4607  0.7563 -0.2005
   50MOL0     C 6661  -2.165  -0.751   3.545  0.3740 -0.4367  0.4965
   50MOL0     C 6662  -2.031  -0.754   3.513  1.3111 -0.6334 -0.4606
   50MOL0     O 6663  -1.793  -0.986   3.386 -0.1374  0.0302  0.1348
   50MOL0     C 6664  -1.520  -0.908   3.304  0.0750 -0.1151  0.2603
   50MOL0     C 6665  -1.388  -0.861   3.283 -0.0539  0.7881  0.7211
   50MOL0     N 6666  -0.911  -0.295   3.178  0.0867  0.2544  0.1818
   50MOL0     N 6667  -0.868  -0.181   3.151  0.3924 -0.3239 -0.0455
   50MOL0     C 6668  -0.108   0.248   2.427 -0.4735  0.4256 -0.2127
   50MOL0     C 6669   0.026   0.271   2.399 -0.4987 -0.3206  0.4491
   50MOL0     C 6670   0.423   0.519   2.369  0.5467 -0.5319 -0.1634
   50MOL0     C 6671   0.500   0.411   2.407  0.3456  0.9155  0.3940
   50MOL0     C 6672   0.630   0.432   2.413  0.1967  0.5841  0.2186
   50MOL0     C 6673   0.697   0.558   2.392 -0.2639 -0.0185  0.3960
   50MOL0     O 6674   0.832   0.584   2.404  0.3775  0.0337 -0.4812
   50MOL0     C 6675   0.932   0.482   2.422 -0.2745  0.2997 -0.4888
   50MOL0     C 6676   0.929   0.431   2.574  0.1731  0.5779  0.4199
   50MOL0     C 6677   0.947   0.539   2.691  0.7270 -0.3570  0.5562
   50MOL0     C 6678   1.005   0.476   2.820  0.4371 -0.1974 -0.7871
   50MOL0     C 6679   0.920   0.365   2.851 -0.2609 -0.0214  0.4403
   50MOL0     C 6680   0.846   0.271   2.894 -0.1159 -0.1344  0.2148
   50MOL0     C 6681   0.608   0.672   2.361 -0.4009 -0.3790  0.5493
   50MOL0     C 6682   0.474   0.653   2.348  0.4422 -0.1097 -0.4012
   50MOL0     H 6683   0.065   0.570   2.554  2.3801  0.0643 -2.4755
   50MOL0     H 6684  -0.184   0.532   2.593  1.1242  0.1717 -1.2075
   50MOL0     H 6685  -0.369   0.458   2.659  1.3393 -0.1137  0.3225
   50MOL0     H 6686  -0.491   0.339   2.609  0.3427  0.0769 -0.4081
   50MOL0     H 6687  -0.223   0.235   2.730 -0.1591  1.5862 -0.3917
   50MOL0     H 6688  -0.343   0.298   2.840 -2.7654 -0.4542 -0.0194
   50MOL0     H 6689  -0.362   0.074   2.633 -2.4780 -1.6404 -0.0754
   50MOL0     H 6690  -0.362   0.042   2.799 -0.7380  1.1042  0.1206
   50MOL0     H 6691  -0.603   0.162   2.642  0.0312 -1.3122 -1.1756
   50MOL0     H 6692  -0.583   0.007   2.721 -1.8688 -0.1172  3.0116
   50MOL0     H 6693  -0.556   0.270   2.880  2.4159 -0.4267 -0.6878
   50MOL0     H 6694  -0.709   0.191   2.859  0.5639 -0.3313  1.4280
   50MOL0     H 6695  -0.452   0.100   2.997  1.4521 -1.5316 -0.9670
   50MOL0     H 6696  -0.604   0.141   3.082 -0.9590  0.8970 -2.5021
   50MOL0     H 6697  -0.561  -0.101   2.920 -0.1547 -3.1212  2.4454
   50MOL0     H 6698  -0.598  -0.082   3.092  1.3138  3.9273  1.1640
   50MOL0     H 6699  -0.778  -0.067   2.841  3.0236 -1.8623 -0.6789
   50MOL0     H 6700  -0.824   0.032   2.981 -0.3594  0.5704 -2.8885
   50MOL0     H 6701  -0.870  -0.324   2.858 -0.2665 -0.9770  0.2423
   50MOL0     H 6702  -0.939  -0.563   2.970 -0.5967  0.4461 -0.8834
   50MOL0     H 6703  -0.953  -0.551   3.155 -1.4047 -0.4824 -0.3027
   50MOL0     H 6704  -1.177  -0.607   3.034  2.5077 -1.3776  2.9295
   50MOL0     H 6705  -1.167  -0.445   2.961  1.8757 -1.2304 -1.8436
   50MOL0     H 6706  -1.312  -0.469   3.157 -0.5664 -1.4644  0.6704
   50MOL0     H 6707  -1.164  -0.369   3.205  1.5674  0.5112 -2.2576
   50MOL0     H 6708  -1.230  -0.513   3.404 -2.2892  1.8368 -1.7910
   50MOL0     H 6709  -1.076  -0.555   3.325 -0.1240 -2.6906  1.2311
   50MOL0     H 6710  -1.436  -0.534   3.353  2.5149  0.3409 -0.0444
   50MOL0     H 6711  -1.729  -0.531   3.309  1.0978 -1.2582 -1.1612
   50MOL0     H 6712  -1.756  -0.609   3.465  0.0577 -0.7467 -0.2086
   50MOL0     H 6713  -1.628  -0.481   3.454 -0.1351  2.6405 -4.0266
   50MOL0     H 6714  -2.040  -0.893   3.203 -0.6422  1.8666 -1.1457
   50MOL0     H 6715  -2.296  -0.905   3.265 -1.1245 -0.9037  1.8967
   50MOL0     H 6716  -2.502  -0.675   3.404  0.4620 -0.0354 -1.5167
   50MOL0     H 6717  -2.476  -0.805   3.294  0.3745  1.4374 -0.0229
   50MOL0     H 6718  -2.635  -0.942   3.412  3.2279  0.9912 -0.6563
   50MOL0     H 6719  -2.641  -0.851   3.557  2.2242 -1.3607 -0.2185
   50MOL0     H 6720  -2.761  -0.781   3.285 -0.1980 -1.2265  1.0367
   50MOL0     H 6721  -2.760  -0.672   3.432  3.3089  1.3111  0.1788
   50MOL0     H 6722  -2.843  -0.875   3.557  2.9489  2.5427 -0.1066
   50MOL0     H 6723  -2.957  -0.769   3.474  0.1735  0.1165  0.2837
   50MOL0     H 6724  -2.852  -1.031   3.344 -2.0308 -2.5447 -0.2872
   50MOL0     H 6725  -2.971  -0.921   3.273  1.4329  1.6870 -0.5091
   50MOL0     H 6726  -3.078  -1.123   3.372 -0.5783  0.7829  0.3137
   50MOL0     H 6727  -3.020  -1.070   3.536  2.8883 -2.2988 -0.0497
   50MOL0     H 6728  -3.201  -0.893   3.360  2.1769 -0.0857  0.3919
   50MOL0     H 6729  -3.175  -0.892   3.543 -1.1194  1.4437  0.0062
   50MOL0     H 6730  -3.295  -1.107   3.552 -0.4106  1.8471  1.1900
   50MOL0     H 6731  -3.319  -1.108   3.375 -3.5080  0.5330 -0.1751
   50MOL0     H 6732  -2.198  -0.728   3.645 -1.7998 -1.6717  0.1161
   50MOL0     H 6733  -1.964  -0.704   3.583  1.6118 -1.3470 -0.2263
   50MOL0     H 6734  -1.550  -1.011   3.286 -2.0546  0.2718  1.3061
   50MOL0     H 6735  -1.310  -0.936   3.268  0.5728  1.6261 -0.3041
   50MOL0     H 6736  -0.162   0.168   2.377  1.7600 -0.1575 -1.8250
   50MOL0     H 6737   0.068   0.189   2.342 -0.2335 -0.1330  0.3703
   50MOL0     H 6738   0.468   0.311   2.436  4.8294 -0.9929 -0.3479
   50MOL0     H 6739   0.693   0.346   2.430  0.7495  1.2076  1.4073
   50MOL0     H 6740   0.912   0.399   2.354  0.4129 -1.5780  1.4594
   50MOL0     H 6741   1.026   0.530   2.393 -0.0369 -0.9922 -1.9393
   50MOL0     H 6742   1.010   0.358   2.576  1.5639  2.0683  0.3587
   50MOL0     H 6743   0.835   0.376   2.586  0.5384 -0.3096 -0.5237
   50MOL0     H 6744   0.853   0.592   2.708  0.9893 -0.3482  2.0261
   50MOL0     H 6745   1.015   0.616   2.655  1.6552 -0.5663  1.7993
   50MOL0     H 6746   1.013   0.557   2.893 -2.6441 -1.3705  1.0541
   50MOL0     H 6747   1.107   0.441   2.804  0.5431  0.2973 -1.2090
   50MOL0     H 6748   0.772   0.204   2.934 -1.7308  1.1893 -0.4384
   50MOL0     H 6749   0.655   0.769   2.361  3.4920 -2.0740  0.3481
   50MOL0     H 6750   0.407   0.736   2.328  1.5210  0.9949  0.4438
   51MOL0     O 6751   5.017   1.396   9.960 -0.2762 -0.0019 -0.6650
   51MOL0     C 6752   5.095   1.371   9.865 -0.9277 -0.8460  0.4295
   51MOL0     O 6753   5.069   1.385   9.725 -0.5412  0.3866  0.2486
   51MOL0     C 6754   4.964   1.467   9.678  0.7980  0.6392 -0.3575
   51MOL0     C 6755   4.917   1.572   9.757 -0.2838 -0.1831  0.1251
   51MOL0     C 6756   4.802   1.639   9.699 -0.2858 -0.5175  0.1481
   51MOL0     C 6757   4.750   1.614   9.572 -0.1735 -0.4527  0.2877
   51MOL0     O 6758   4.647   1.688   9.516  0.0182 -0.6535  0.5168
   51MOL0     C 6759   4.538   1.742   9.591 -0.1269 -0.5399 -0.2829
   51MOL0     C 6760   4.463   1.840   9.508  0.5906  0.2816 -0.0275
   51MOL0     C 6761   4.351   1.912   9.585  0.0588 -0.0938  0.8505
   51MOL0     C 6762   4.263   1.991   9.480  0.4206  0.3170  0.1008
   51MOL0     C 6763   4.151   2.065   9.545  0.4406 -0.1028 -0.3547
   51MOL0     C 6764   4.075   2.139   9.436 -0.2806  0.3488  0.9559
   51MOL0     C 6765   3.993   2.034   9.347 -0.6616 -0.5710  0.5304
   51MOL0     C 6766   3.879   2.109   9.274  0.7765 -1.2557  0.4209
   51MOL0     N 6767   3.775   2.020   9.222 -0.8328 -0.0252 -0.3484
   51MOL0     C 6768   3.791   1.941   9.112 -0.3300  0.3247  0.1387
   51MOL0     C 6769   3.692   1.850   9.114  0.0883  0.0885  0.1370
   51MOL0     C 6770   3.669   1.744   9.013  0.8300  0.0341  0.2048
   51MOL0     C 6771   3.536   1.753   8.934 -0.5407  0.3139 -0.7656
   51MOL0     C 6772   3.514   1.886   8.877 -0.1951 -0.7863 -0.1519
   51MOL0     C 6773   3.402   1.875   8.773 -1.0691 -0.0450  0.4211
   51MOL0     O 6774   3.459   1.848   8.642 -0.1187 -0.7702 -0.0997
   51MOL0     C 6775   3.369   1.850   8.537  0.6819 -0.2560  0.7449
   51MOL0     C 6776   3.438   1.872   8.416  0.4350 -1.2619  0.3964
   51MOL0     C 6777   3.365   1.885   8.299 -0.6991  0.1358 -0.0879
   51MOL0     C 6778   3.434   1.918   8.170 -0.1688 -0.3670  0.0734
   51MOL0     C 6779   3.227   1.869   8.299 -0.5555 -0.6176  0.4620
   51MOL0     C 6780   3.141   1.887   8.177  0.7152  0.5969 -1.3884
   51MOL0     O 6781   3.043   1.797   8.168  0.6521  0.2099  0.3963
   51MOL0     C 6782   2.934   1.834   8.092  0.0032 -0.1369 -0.0774
   51MOL0     C 6783   2.950   1.829   7.952 -0.1502  0.4049 -0.5063
   51MOL0     C 6784   2.845   1.855   7.869  0.3534 -0.5057 -0.7636
   51MOL0     C 6785   2.721   1.902   7.923 -0.5197  1.0033  0.7242
   51MOL0     O 6786   2.627   1.957   7.837 -0.1255  0.0588 -0.0647
   51MOL0     C 6787   2.643   2.102   7.834 -0.7916  0.1492  0.0331
   51MOL0     C 6788   2.529   2.163   7.760  1.2051 -0.1651  0.1523
   51MOL0     C 6789   2.539   2.127   7.607 -0.4455  0.4510  0.4952
   51MOL0     C 6790   2.558   2.260   7.526 -0.7162 -0.0880 -0.5522
   51MOL0     C 6791   2.421   2.340   7.525  0.1052 -0.7190 -0.4868
   51MOL0     C 6792   2.303   2.252   7.474 -0.0387  0.0833 -0.0455
   51MOL0     C 6793   2.194   2.340   7.413  0.6413 -0.5594 -0.2381
   51MOL0     C 6794   2.093   2.260   7.343  0.1167  0.2208  0.2402
   51MOL0    Cl 6795   2.156   2.174   7.198  0.1179  0.8434 -0.6643
   51MOL0     C 6796   2.702   1.892   8.063  0.6788 -0.0130  0.2549
   51MOL0     C 6797   2.812   1.861   8.149 -0.4054  0.3457  0.1059
   51MOL0     O 6798   3.165   1.978   8.108 -1.3909 -0.3034 -0.2267
   51MOL0     C 6799   3.162   1.840   8.418 -0.4776 -0.2162 -0.1033
   51MOL0     C 6800   3.232   1.833   8.542  0.6564  0.3587  0.3205
   51MOL0     N 6801   3.622   1.870   9.227 -1.0066  1.1513  0.4938
   51MOL0     N 6802   3.678   1.964   9.299 -0.2762 -0.4715  0.5955
   51MOL0     C 6803   4.806   1.521   9.499 -0.3131 -0.3435 -1.2005
   51MOL0     C 6804   4.904   1.441   9.553  0.6232  0.8786 -0.1127
   51MOL0     C 6805   5.234   1.320   9.898  0.1686 -0.0378 -0.2102
   51MOL0     C 6806   5.320   1.268   9.796  0.5218 -0.1752 -0.9805
   51MOL0     C 6807   5.452   1.236   9.820 -0.4409  0.3761 -0.5718
   51MOL0     C 6808   5.498   1.248   9.956 -1.0981 -0.0053  0.9347
   51MOL0     O 6809   5.626   1.230   9.989 -0.2817 -0.3413 -0.6255
   51MOL0     C 6810   5.732   1.212   9.899 -0.5288 -0.1880  1.2345
   51MOL0     C 6811   5.861   1.171   9.959 -0.3910 -0.8622 -0.2698
   51MOL0     C 6812   5.962   1.145   9.852 -0.4644 -0.3773  0.3703
   51MOL0     C 6813   6.110   1.108   9.887 -0.1135  0.1058 -0.3740
   51MOL0     C 6814   6.197   1.226   9.878  0.1338  0.4142  0.0042
   51MOL0     C 6815   6.272   1.317   9.863 -0.0654  0.0814  0.0927
   51MOL0     C 6816   5.413   1.288  10.061 -0.8334 -0.0580  0.1997
   51MOL0     C 6817   5.280   1.331  10.031  0.4353  0.1022 -0.7654
   51MOL0     H 6818   4.953   1.601   9.856  0.5867  1.9395 -0.7509
   51MOL0     H 6819   4.773   1.730   9.752  3.7056  1.9937 -1.5050
   51MOL0     H 6820   4.468   1.665   9.625 -0.3957  1.1644  3.4163
   51MOL0     H 6821   4.575   1.787   9.683 -1.0673  2.1962 -1.1686
   51MOL0     H 6822   4.540   1.909   9.472  1.5644  0.5637  2.4292
   51MOL0     H 6823   4.418   1.794   9.420  0.9024 -1.4325  0.6693
   51MOL0     H 6824   4.298   1.837   9.645  0.5814  0.5982  2.1988
   51MOL0     H 6825   4.402   1.974   9.659  0.9565 -0.8544  0.8764
   51MOL0     H 6826   4.328   2.060   9.425  2.5668 -1.2908  0.4445
   51MOL0     H 6827   4.216   1.916   9.416 -3.0778 -0.1191  2.8766
   51MOL0     H 6828   4.082   2.004   9.603  0.3731  1.8355  1.7098
   51MOL0     H 6829   4.193   2.133   9.620 -2.8428 -0.0385  1.5983
   51MOL0     H 6830   4.001   2.210   9.475  1.5534  4.0898 -1.7905
   51MOL0     H 6831   4.147   2.188   9.370  1.9236 -2.5604  1.0353
   51MOL0     H 6832   4.066   1.990   9.279  0.0448  2.1612 -0.6026
   51MOL0     H 6833   3.953   1.964   9.422 -2.1877 -0.0316  0.2324
   51MOL0     H 6834   3.929   2.168   9.196  1.4532  1.6502  2.8489
   51MOL0     H 6835   3.825   2.186   9.330  0.6790  0.0981 -1.4563
   51MOL0     H 6836   3.859   1.952   9.028 -0.2173  0.1054  0.2021
   51MOL0     H 6837   3.747   1.745   8.937  1.3699 -3.1016  0.5759
   51MOL0     H 6838   3.678   1.648   9.066 -0.1334  0.1149  0.5261
   51MOL0     H 6839   3.465   1.735   9.016  2.5221  1.8803  2.5258
   51MOL0     H 6840   3.528   1.680   8.854 -0.0053 -1.4744  0.7347
   51MOL0     H 6841   3.610   1.926   8.844 -2.0018  1.8831 -2.6596
   51MOL0     H 6842   3.482   1.957   8.954 -1.4662 -2.8337  1.3231
   51MOL0     H 6843   3.358   1.975   8.771  0.3666  0.6865  2.4294
   51MOL0     H 6844   3.332   1.798   8.803 -0.6362  0.6727  3.6917
   51MOL0     H 6845   3.546   1.862   8.424  0.8255  0.6990 -1.4166
   51MOL0     H 6846   3.529   1.864   8.157  0.0817 -0.0487  0.5316
   51MOL0     H 6847   3.380   1.895   8.078  0.3633 -1.8144  0.0867
   51MOL0     H 6848   3.454   2.025   8.168 -0.3348 -0.3376 -1.5726
   51MOL0     H 6849   3.044   1.802   7.904  1.1901 -0.4202  2.3680
   51MOL0     H 6850   2.870   1.854   7.764  0.4010 -0.8363 -0.7505
   51MOL0     H 6851   2.649   2.137   7.938  2.1975 -2.6780  0.9842
   51MOL0     H 6852   2.742   2.116   7.790 -0.6663  0.2819  0.3538
   51MOL0     H 6853   2.439   2.117   7.801  1.6168  1.2114  2.8283
   51MOL0     H 6854   2.517   2.271   7.774  3.1667  0.0377  0.5987
   51MOL0     H 6855   2.452   2.065   7.582  0.7874 -0.6833 -1.2027
   51MOL0     H 6856   2.625   2.062   7.588 -0.0407  0.8639  0.8813
   51MOL0     H 6857   2.630   2.327   7.574 -0.9192 -1.3643  1.6502
   51MOL0     H 6858   2.585   2.237   7.423 -0.1990  0.2075 -0.4854
   51MOL0     H 6859   2.424   2.428   7.460 -0.2441 -1.0420 -0.9533
   51MOL0     H 6860   2.401   2.375   7.626 -0.7444 -1.2218 -0.4734
   51MOL0     H 6861   2.343   2.179   7.402 -2.0323 -0.5374 -0.5824
   51MOL0     H 6862   2.256   2.188   7.549 -0.4466 -0.3007 -0.6193
   51MOL0     H 6863   2.232   2.424   7.355  0.1148  0.0226  0.2307
   51MOL0     H 6864   2.151   2.390   7.501 -0.1070  0.7224 -1.2996
   51MOL0     H 6865   2.012   2.322   7.304  0.4117 -0.4680 -1.5804
   51MOL0     H 6866   2.052   2.186   7.413 -0.6479 -0.1188 -0.5565
   51MOL0     H 6867   2.604   1.911   8.105 -0.0926 -2.5514 -0.2213
   51MOL0     H 6868   2.812   1.869   8.257 -1.7015  0.3509  0.1275
   51MOL0     H 6869   3.056   1.819   8.417 -0.8523  1.4938 -0.4842
   51MOL0     H 6870   3.167   1.814   8.627 -0.9178  0.1674 -0.8793
   51MOL0     H 6871   4.756   1.522   9.403 -2.6205  1.4045 -0.0918
   51MOL0     H 6872   4.955   1.359   9.502  1.1566 -0.0512  1.8070
   51MOL0     H 6873   5.291   1.269   9.691 -4.0153  1.2949  0.0350
   51MOL0     H 6874   5.508   1.206   9.733  1.1842 -1.5969  1.0686
   51MOL0     H 6875   5.708   1.123   9.841 -1.1870 -1.2968  3.1359
   51MOL0     H 6876   5.734   1.300   9.833 -2.7830  1.0479  2.6595
   51MOL0     H 6877   5.865   1.084  10.026  1.0872  0.6988  1.7905
   51MOL0     H 6878   5.905   1.250  10.020  0.8293 -1.0778 -0.8269
   51MOL0     H 6879   5.954   1.228   9.780  0.0545 -0.2443  0.4601
   51MOL0     H 6880   5.911   1.072   9.789 -0.7974 -1.5284  1.9080
   51MOL0     H 6881   6.137   1.037   9.808 -0.0812 -0.5308  0.1878
   51MOL0     H 6882   6.115   1.061   9.987 -0.3172  3.9191  1.5948
   51MOL0     H 6883   6.326   1.406   9.837  0.9282 -0.4512  0.2930
   51MOL0     H 6884   5.445   1.290  10.164  1.9782  2.8325 -0.5589
   51MOL0     H 6885   5.213   1.372  10.105  0.3584 -0.7096 -0.3780
   52MOL0     O 6886   8.134   4.042   4.385  0.2287 -0.0076 -0.8237
   52MOL0     C 6887   8.186   4.135   4.328  0.8974  1.2778  0.8338
   52MOL0     O 6888   8.117   4.241   4.275 -0.2814  0.4010  0.1740
   52MOL0     C 6889   7.979   4.229   4.279 -0.4362 -0.7029 -1.0730
   52MOL0     C 6890   7.904   4.255   4.160  0.1286 -0.1763 -0.0283
   52MOL0     C 6891   7.764   4.271   4.168 -0.2815 -0.6921  1.1337
   52MOL0     C 6892   7.701   4.261   4.285 -0.0539  0.0388 -0.0738
   52MOL0     O 6893   7.560   4.256   4.298 -0.4496 -0.1386 -0.5348
   52MOL0     C 6894   7.483   4.337   4.209 -0.5271  0.3316 -0.2238
   52MOL0     C 6895   7.338   4.342   4.252  0.1255 -0.2945 -0.6590
   52MOL0     C 6896   7.287   4.203   4.283 -0.0634 -0.1137 -0.0040
   52MOL0     C 6897   7.140   4.216   4.329  0.6505  0.4966 -0.4347
   52MOL0     C 6898   7.089   4.080   4.388  1.5563 -0.4739 -0.2008
   52MOL0     C 6899   6.957   4.079   4.463 -0.9661 -0.1548 -0.0212
   52MOL0     C 6900   6.914   3.934   4.514  0.4326  0.1335  0.5514
   52MOL0     C 6901   6.863   3.849   4.394 -0.2570  0.6330 -0.4377
   52MOL0     N 6902   6.742   3.895   4.324 -0.1138 -0.0183 -0.0757
   52MOL0     C 6903   6.616   3.899   4.376 -0.0725  0.1128 -0.6937
   52MOL0     C 6904   6.529   3.944   4.282  0.5693 -0.2762 -0.1106
   52MOL0     C 6905   6.378   3.956   4.296 -0.1002 -0.2019  0.3736
   52MOL0     C 6906   6.299   3.829   4.313 -0.2636 -0.1403 -0.7729
   52MOL0     C 6907   6.154   3.852   4.259 -0.4803 -0.4198  0.1765
   52MOL0     C 6908   6.076   3.727   4.279 -0.6690 -0.3694 -0.2428
   52MOL0     O 6909   5.935   3.758   4.279 -0.1382 -0.4250 -0.3373
   52MOL0     C 6910   5.839   3.667   4.259 -0.5909  0.6933  0.1173
   52MOL0     C 6911   5.704   3.702   4.259 -0.4549  0.5137 -0.8637
   52MOL0     C 6912   5.605   3.617   4.223  0.9950  0.2308  0.4851
   52MOL0     C 6913   5.460   3.669   4.214  0.2629 -0.5756  0.0434
   52MOL0     C 6914   5.639   3.480   4.209 -0.4136  0.7791 -0.9622
   52MOL0     C 6915   5.538   3.382   4.175 -0.2664 -0.4575 -0.5958
   52MOL0     O 6916   5.553   3.256   4.238 -0.5988  0.5012  0.0792
   52MOL0     C 6917   5.434   3.183   4.249  0.0168 -0.4458 -0.9286
   52MOL0     C 6918   5.349   3.226   4.350  0.6754 -0.3254 -0.3230
   52MOL0     C 6919   5.220   3.170   4.353  0.4967 -0.4656  0.3226
   52MOL0     C 6920   5.186   3.065   4.265  0.5321  0.4807  0.4018
   52MOL0     O 6921   5.065   3.001   4.274  0.4381  0.1326  1.4001
   52MOL0     C 6922   4.951   3.082   4.326  0.4439  0.9385  0.4706
   52MOL0     C 6923   4.820   3.044   4.245 -0.9537 -0.3293 -0.6167
   52MOL0     C 6924   4.800   2.893   4.241  1.3467 -0.2524  0.0427
   52MOL0     C 6925   4.659   2.869   4.180  0.8757  0.3175  0.1283
   52MOL0     C 6926   4.615   2.721   4.184  0.2619  0.7654 -0.5727
   52MOL0     C 6927   4.477   2.686   4.126  1.0267  0.3428 -1.4077
   52MOL0     C 6928   4.376   2.802   4.130 -0.3881 -0.4856  1.0682
   52MOL0     C 6929   4.238   2.751   4.124 -0.2534  0.0754  0.0396
   52MOL0    Cl 6930   4.207   2.683   3.958  0.0174  0.4957 -0.1359
   52MOL0     C 6931   5.283   3.006   4.181  0.3561 -0.5711  0.7052
   52MOL0     C 6932   5.412   3.064   4.170  0.2203  0.1747  0.3905
   52MOL0     O 6933   5.452   3.419   4.096 -0.0843  0.3944  0.2122
   52MOL0     C 6934   5.766   3.431   4.217 -0.7196  0.3775  0.3999
   52MOL0     C 6935   5.866   3.526   4.241 -0.1101  0.3290 -0.3214
   52MOL0     N 6936   6.609   3.982   4.178  0.5335 -0.4504 -0.0003
   52MOL0     N 6937   6.734   3.946   4.201  0.7639  0.4844  0.9078
   52MOL0     C 6938   7.765   4.214   4.398  0.5772  0.4754 -0.0540
   52MOL0     C 6939   7.901   4.205   4.397 -0.2136  0.4295 -0.2037
   52MOL0     C 6940   8.338   4.134   4.316 -0.0856  0.2591 -0.4141
   52MOL0     C 6941   8.412   4.071   4.415  0.3886 -0.9028  0.0209
   52MOL0     C 6942   8.550   4.054   4.414  0.4114 -0.3597  0.5530
   52MOL0     C 6943   8.620   4.107   4.304 -0.3030  0.1526 -0.0898
   52MOL0     O 6944   8.755   4.084   4.283  0.3270  0.1758  0.4809
   52MOL0     C 6945   8.840   4.119   4.388  0.2653 -0.1321 -0.3093
   52MOL0     C 6946   8.881   4.266   4.383 -0.5134 -0.5981  0.1858
   52MOL0     C 6947   8.791   4.371   4.455 -0.2296 -0.9004  0.0185
   52MOL0     C 6948   8.852   4.511   4.467  0.4528  0.7035 -0.2958
   52MOL0     C 6949   8.831   4.580   4.338 -0.7626  0.1863 -0.2386
   52MOL0     C 6950   8.827   4.635   4.233  0.2030  0.1602 -0.3132
   52MOL0     C 6951   8.548   4.177   4.207  0.0136 -0.2701 -0.3214
   52MOL0     C 6952   8.417   4.193   4.210  0.1703 -0.2049 -0.0068
   52MOL0     H 6953   7.956   4.251   4.065 -0.8338 -3.8259 -0.5784
   52MOL0     H 6954   7.716   4.287   4.072  1.9214  0.1557  0.1105
   52MOL0     H 6955   7.539   4.431   4.206  1.3940 -0.7359  0.3097
   52MOL0     H 6956   7.494   4.295   4.109  0.7886 -1.0751  0.4776
   52MOL0     H 6957   7.336   4.405   4.342  1.0268  0.6134 -1.2460
   52MOL0     H 6958   7.268   4.399   4.191  0.8888  1.3326 -0.0940
   52MOL0     H 6959   7.308   4.138   4.198 -1.7288  0.4808 -0.9125
   52MOL0     H 6960   7.348   4.160   4.363  0.5178  0.6781 -0.0054
   52MOL0     H 6961   7.136   4.296   4.404 -0.2883 -1.9768  2.3107
   52MOL0     H 6962   7.072   4.243   4.248 -0.4395 -0.3896  0.1596
   52MOL0     H 6963   7.074   4.004   4.310 -0.4797 -0.3436  0.0034
   52MOL0     H 6964   7.165   4.048   4.459  0.7905  1.4365  1.5888
   52MOL0     H 6965   6.966   4.144   4.550 -2.8097 -0.4324  0.4253
   52MOL0     H 6966   6.874   4.114   4.400  0.1512  0.7232 -1.0549
   52MOL0     H 6967   7.002   3.886   4.558  1.4591  1.3705 -0.1038
   52MOL0     H 6968   6.834   3.936   4.589  0.2948 -0.6027  0.4364
   52MOL0     H 6969   6.848   3.747   4.429 -1.1375  0.4387 -1.3101
   52MOL0     H 6970   6.943   3.837   4.320  0.9259 -1.2087  1.0544
   52MOL0     H 6971   6.573   3.851   4.463 -3.1521  2.9147 -0.4750
   52MOL0     H 6972   6.366   4.014   4.389  0.1234 -0.1555  0.3755
   52MOL0     H 6973   6.335   4.011   4.212  0.5722  1.9142  1.3372
   52MOL0     H 6974   6.304   3.794   4.417  2.2622 -2.0293 -1.4563
   52MOL0     H 6975   6.345   3.748   4.256 -0.8799 -0.8407 -0.2929
   52MOL0     H 6976   6.161   3.868   4.151  1.2262  0.3363  0.3584
   52MOL0     H 6977   6.104   3.941   4.299  0.6999  0.2104  0.3035
   52MOL0     H 6978   6.109   3.694   4.378  1.0663 -0.3465 -0.7960
   52MOL0     H 6979   6.115   3.646   4.216 -0.7843 -0.1890 -0.5524
   52MOL0     H 6980   5.685   3.808   4.268 -0.8738  0.2915  1.6893
   52MOL0     H 6981   5.453   3.776   4.237 -2.6692 -0.8899  1.0599
   52MOL0     H 6982   5.425   3.656   4.111 -1.0825 -1.9513  0.6393
   52MOL0     H 6983   5.394   3.611   4.279  0.9662 -1.1149  0.2972
   52MOL0     H 6984   5.359   3.313   4.414 -0.4498 -0.8172  0.5573
   52MOL0     H 6985   5.143   3.207   4.419 -1.4066  1.4883 -2.7539
   52MOL0     H 6986   4.938   3.079   4.434 -1.6072  1.2069  0.2661
   52MOL0     H 6987   4.965   3.189   4.307 -1.2025  1.2524  0.9228
   52MOL0     H 6988   4.736   3.094   4.292 -1.5842 -1.3633 -0.6226
   52MOL0     H 6989   4.831   3.079   4.141  1.0013  0.9799 -0.0307
   52MOL0     H 6990   4.777   2.868   4.346 -0.2345  0.3998 -0.1224
   52MOL0     H 6991   4.875   2.827   4.198  1.1920 -0.8867  0.7294
   52MOL0     H 6992   4.588   2.942   4.219  2.9097  2.4478  0.0520
   52MOL0     H 6993   4.667   2.895   4.074  3.0430 -0.7579 -0.0280
   52MOL0     H 6994   4.620   2.680   4.285  1.4153 -2.0818 -1.6728
   52MOL0     H 6995   4.690   2.667   4.126 -0.3595 -0.2285 -0.4690
   52MOL0     H 6996   4.489   2.654   4.022 -0.8488 -0.2646 -1.4758
   52MOL0     H 6997   4.441   2.598   4.179  4.3186 -0.6621 -0.6066
   52MOL0     H 6998   4.398   2.863   4.042  0.5277 -1.3400  0.6852
   52MOL0     H 6999   4.388   2.859   4.222 -1.2913 -1.5723  1.8869
   52MOL0     H 7000   4.170   2.824   4.169 -1.5312 -2.1208  1.9343
   52MOL0     H 7001   4.216   2.672   4.197  0.4265  0.0402  0.2063
   52MOL0     H 7002   5.256   2.906   4.147  2.2633 -1.5881  2.0012
   52MOL0     H 7003   5.492   3.032   4.104  0.4321  3.3977 -1.1362
   52MOL0     H 7004   5.784   3.326   4.196  3.8282  1.0347  0.0262
   52MOL0     H 7005   5.970   3.498   4.230  0.0639  1.2049 -1.0908
   52MOL0     H 7006   7.711   4.196   4.490 -0.2469 -0.0557 -0.6345
   52MOL0     H 7007   7.955   4.188   4.490  1.0158  2.5892 -0.4410
   52MOL0     H 7008   8.360   4.024   4.498 -0.2373  0.6111  0.5366
   52MOL0     H 7009   8.592   3.999   4.498 -2.5016 -0.9052  1.7688
   52MOL0     H 7010   8.814   4.083   4.488  2.2274  0.7995  0.5880
   52MOL0     H 7011   8.935   4.071   4.363 -0.4523 -2.0550  0.4442
   52MOL0     H 7012   8.896   4.299   4.280  1.5117  0.1405  0.6743
   52MOL0     H 7013   8.968   4.273   4.449 -1.2857  0.9169  1.1090
   52MOL0     H 7014   8.767   4.338   4.556 -0.5776  0.7584  0.5121
   52MOL0     H 7015   8.697   4.380   4.400 -0.3373  0.0393  0.3339
   52MOL0     H 7016   8.956   4.502   4.501 -0.3082 -0.0451  2.0173
   52MOL0     H 7017   8.801   4.541   4.558  0.5620  0.6790 -0.2264
   52MOL0     H 7018   8.804   4.680   4.138 -1.2190  0.2491  0.0539
   52MOL0     H 7019   8.599   4.211   4.117 -1.5473 -2.7623 -2.3102
   52MOL0     H 7020   8.362   4.246   4.132  0.9349 -0.5947 -0.8273
   53MOL0     O 7021   4.424   1.378   3.112  0.1632  0.0033  0.6322
   53MOL0     C 7022   4.485   1.457   3.183  0.8592  0.4653 -0.9573
   53MOL0     O 7023   4.424   1.558   3.251  0.3923  0.3484  0.3126
   53MOL0     C 7024   4.287   1.557   3.254  0.1176 -0.0014 -0.3724
   53MOL0     C 7025   4.210   1.575   3.146 -0.3695  0.0994 -0.3187
   53MOL0     C 7026   4.070   1.583   3.156  0.2008 -0.0005 -0.3106
   53MOL0     C 7027   4.011   1.559   3.283  0.4629 -0.2912  0.2926
   53MOL0     O 7028   3.871   1.574   3.266 -0.5235  0.2901 -0.1485
   53MOL0     C 7029   3.801   1.552   3.389 -0.0856 -0.6998 -0.1449
   53MOL0     C 7030   3.656   1.605   3.365  0.2958  0.0568  0.0535
   53MOL0     C 7031   3.579   1.534   3.474  0.6926  0.6073 -1.0988
   53MOL0     C 7032   3.436   1.567   3.460  0.1290  0.6151 -0.2391
   53MOL0     C 7033   3.349   1.452   3.523  0.3756  0.2014 -0.0744
   53MOL0     C 7034   3.364   1.429   3.671  0.0756  0.6725  0.3371
   53MOL0     C 7035   3.237   1.345   3.724 -0.4426 -0.2913  0.3689
   53MOL0     C 7036   3.100   1.423   3.733  0.3761  0.0929 -0.7106
   53MOL0     N 7037   2.996   1.324   3.767  0.4784  0.3961  0.2086
   53MOL0     C 7038   2.866   1.363   3.775  0.4631  0.6111 -0.1200
   53MOL0     C 7039   2.795   1.265   3.841  0.0252  0.4829 -0.3166
   53MOL0     C 7040   2.653   1.261   3.876  0.4089  0.2467  0.2055
   53MOL0     C 7041   2.539   1.231   3.773  0.8371 -0.6850  1.2280
   53MOL0     C 7042   2.527   1.080   3.726 -0.2750 -0.4113 -0.2828
   53MOL0     C 7043   2.426   1.016   3.810 -0.2284  1.0715 -0.0474
   53MOL0     O 7044   2.292   1.055   3.757 -0.8111 -0.0386 -0.5860
   53MOL0     C 7045   2.176   1.014   3.810 -0.4203  0.1027  0.6927
   53MOL0     C 7046   2.061   1.041   3.745 -0.5878 -0.6158 -0.5753
   53MOL0     C 7047   1.944   1.042   3.819  0.4284 -0.0597  0.4523
   53MOL0     C 7048   1.817   1.096   3.752  0.6458  0.1339 -0.4208
   53MOL0     C 7049   1.944   0.986   3.950  0.1016 -0.1971  0.8217
   53MOL0     C 7050   1.821   0.961   4.031 -0.2919 -0.2002  0.1618
   53MOL0     O 7051   1.815   0.851   4.113 -0.5367  0.8747  0.1452
   53MOL0     C 7052   1.705   0.848   4.198  0.7037 -0.5557  0.6669
   53MOL0     C 7053   1.714   0.889   4.333 -0.0249 -0.0868 -0.1310
   53MOL0     C 7054   1.600   0.880   4.422 -0.5325  0.0531 -0.0653
   53MOL0     C 7055   1.478   0.838   4.368  0.4548 -0.1860  1.9343
   53MOL0     O 7056   1.373   0.833   4.463 -0.1436 -0.3751 -0.3762
   53MOL0     C 7057   1.258   0.746   4.449 -0.0546  0.7485 -0.2238
   53MOL0     C 7058   1.193   0.739   4.585 -0.0488 -0.0181 -0.3372
   53MOL0     C 7059   1.119   0.612   4.601 -0.4299 -0.5921 -0.2619
   53MOL0     C 7060   1.088   0.566   4.744 -0.5632 -0.7883 -0.2221
   53MOL0     C 7061   0.984   0.450   4.741  0.3126  0.5083 -0.3553
   53MOL0     C 7062   1.046   0.317   4.691 -0.0696 -0.5066 -0.5932
   53MOL0     C 7063   0.946   0.197   4.715  0.5523 -1.4867 -0.6936
   53MOL0     C 7064   1.018   0.066   4.715  0.2964  0.2097 -0.0493
   53MOL0    Cl 7065   1.054   0.019   4.552 -0.1060 -0.0542  0.5517
   53MOL0     C 7066   1.468   0.810   4.233 -0.0159  0.4939  0.6209
   53MOL0     C 7067   1.574   0.819   4.150 -0.6309  0.7410  0.1299
   53MOL0     O 7068   1.734   1.046   4.021  0.0698 -0.0230  0.2842
   53MOL0     C 7069   2.059   0.932   4.010  0.5515  0.0390  0.6038
   53MOL0     C 7070   2.174   0.952   3.936 -0.7032 -0.9163  0.0860
   53MOL0     N 7071   2.902   1.176   3.880  0.2031  0.2411  0.3784
   53MOL0     N 7072   3.014   1.201   3.822  0.6034  0.3115 -0.3028
   53MOL0     C 7073   4.086   1.530   3.394 -0.9330 -0.2494 -0.2481
   53MOL0     C 7074   4.230   1.526   3.381  1.1172  0.3926 -0.8040
   53MOL0     C 7075   4.633   1.448   3.188 -0.3748  0.7318  1.1180
   53MOL0     C 7076   4.693   1.344   3.112  0.7560 -0.1405 -0.1892
   53MOL0     C 7077   4.830   1.335   3.105 -0.9639  0.5816 -0.9435
   53MOL0     C 7078   4.913   1.418   3.187 -0.5732  0.1408 -0.2921
   53MOL0     O 7079   5.050   1.398   3.193  0.0854  0.4878  0.0672
   53MOL0     C 7080   5.148   1.498   3.207  0.5659 -0.7625  1.0071
   53MOL0     C 7081   5.243   1.481   3.324 -0.1806 -0.2082 -0.0470
   53MOL0     C 7082   5.341   1.356   3.316  0.1732  0.4999  0.5484
   53MOL0     C 7083   5.413   1.349   3.443 -0.0106 -0.4601 -0.1901
   53MOL0     C 7084   5.518   1.452   3.458 -1.1562  0.7985 -0.8224
   53MOL0     C 7085   5.612   1.535   3.463  0.3583  1.2097  0.0904
   53MOL0     C 7086   4.845   1.523   3.265  0.1594  0.5212  0.1817
   53MOL0     C 7087   4.709   1.528   3.267  1.2255 -0.9244  0.2667
   53MOL0     H 7088   4.263   1.590   3.053  0.5694 -1.6539 -0.1234
   53MOL0     H 7089   4.008   1.610   3.071  3.1838 -1.2318 -3.0979
   53MOL0     H 7090   3.808   1.448   3.422 -1.5286 -1.7253 -2.7616
   53MOL0     H 7091   3.838   1.621   3.465 -0.9481  3.4859 -3.1400
   53MOL0     H 7092   3.639   1.713   3.365  0.5652  0.1214 -1.6057
   53MOL0     H 7093   3.622   1.568   3.267 -0.0109 -1.8774  0.8311
   53MOL0     H 7094   3.589   1.426   3.457 -0.2950  0.5707 -1.5384
   53MOL0     H 7095   3.604   1.571   3.574  0.4291  2.9357 -1.8368
   53MOL0     H 7096   3.427   1.666   3.506  1.0216  0.6504 -0.1276
   53MOL0     H 7097   3.397   1.574   3.358  0.0011  1.0125 -0.1653
   53MOL0     H 7098   3.246   1.473   3.495  0.1361 -3.3751 -2.5844
   53MOL0     H 7099   3.362   1.363   3.460 -1.0869 -0.8115  0.9867
   53MOL0     H 7100   3.452   1.364   3.678  0.7308  1.6257  1.3520
   53MOL0     H 7101   3.385   1.521   3.727  1.3111  0.5303  0.1474
   53MOL0     H 7102   3.226   1.259   3.657 -0.1322  1.1671 -1.6442
   53MOL0     H 7103   3.266   1.297   3.819 -1.0969 -1.9806 -0.2492
   53MOL0     H 7104   3.074   1.485   3.648  1.3122  2.4405  0.6202
   53MOL0     H 7105   3.121   1.489   3.818  0.9460  1.7641 -2.0933
   53MOL0     H 7106   2.818   1.452   3.736 -2.4821  0.2578  2.2825
   53MOL0     H 7107   2.636   1.195   3.962  1.5294  1.6582  1.5777
   53MOL0     H 7108   2.616   1.353   3.921 -3.8865 -1.5218  0.7830
   53MOL0     H 7109   2.559   1.299   3.690  1.4814 -0.1461  1.8121
   53MOL0     H 7110   2.442   1.264   3.810  0.5042  2.2968 -1.8338
   53MOL0     H 7111   2.620   1.024   3.741 -0.2376 -0.9199 -2.1915
   53MOL0     H 7112   2.504   1.090   3.620 -1.9746 -1.5602 -0.0706
   53MOL0     H 7113   2.442   1.050   3.913  0.3743 -1.4213  0.7654
   53MOL0     H 7114   2.429   0.907   3.819 -0.3176  1.0493 -0.2895
   53MOL0     H 7115   2.062   1.080   3.643  0.8269  1.8344  0.2949
   53MOL0     H 7116   1.756   1.171   3.803  1.0095 -0.4844  0.9815
   53MOL0     H 7117   1.837   1.143   3.655 -2.5342  0.5893 -0.9522
   53MOL0     H 7118   1.754   1.009   3.733 -1.6552  1.1193  2.0738
   53MOL0     H 7119   1.807   0.919   4.379 -0.8617  1.4489  0.6747
   53MOL0     H 7120   1.606   0.894   4.529  0.7175 -0.2456 -0.0702
   53MOL0     H 7121   1.193   0.794   4.375 -0.2499 -2.1300 -2.0843
   53MOL0     H 7122   1.277   0.642   4.420 -5.9241 -0.4000 -1.0738
   53MOL0     H 7123   1.271   0.742   4.662 -0.9384 -1.6175  0.6706
   53MOL0     H 7124   1.131   0.826   4.608 -0.5788 -0.6424  0.6378
   53MOL0     H 7125   1.160   0.525   4.549 -2.1147 -1.9834  0.6318
   53MOL0     H 7126   1.018   0.621   4.560  0.0207 -1.8850 -1.7684
   53MOL0     H 7127   1.178   0.535   4.797  0.4838  2.2500 -0.0121
   53MOL0     H 7128   1.036   0.647   4.796 -1.5412 -2.6401  1.8024
   53MOL0     H 7129   0.904   0.489   4.677  0.4886  2.0091  0.2953
   53MOL0     H 7130   0.957   0.436   4.846  3.3055 -2.8690  0.1686
   53MOL0     H 7131   1.059   0.332   4.584 -0.0450 -2.0915 -0.8233
   53MOL0     H 7132   1.136   0.296   4.750 -0.5696 -0.4637  0.2023
   53MOL0     H 7133   0.865   0.195   4.642  0.1353 -1.5440 -0.2371
   53MOL0     H 7134   0.899   0.207   4.814  0.9492 -2.1051 -0.4389
   53MOL0     H 7135   0.965  -0.016   4.765  2.9863 -1.1760  0.7421
   53MOL0     H 7136   1.116   0.083   4.761  0.8119  2.1993 -1.7539
   53MOL0     H 7137   1.370   0.796   4.189  0.9199 -0.5411 -1.2366
   53MOL0     H 7138   1.556   0.794   4.046 -1.2835  0.0964  0.3840
   53MOL0     H 7139   2.059   0.869   4.098  0.8725 -1.7529 -0.6244
   53MOL0     H 7140   2.269   0.918   3.976 -0.1489 -0.6511 -0.9605
   53MOL0     H 7141   4.050   1.502   3.493 -0.4310 -3.0739 -0.7628
   53MOL0     H 7142   4.291   1.502   3.468 -0.9670  0.5438  0.7546
   53MOL0     H 7143   4.634   1.271   3.057 -2.8544  0.1826  2.8187
   53MOL0     H 7144   4.869   1.254   3.044 -0.3015 -1.1222  1.5980
   53MOL0     H 7145   5.206   1.507   3.114 -1.0173  0.9585  0.1145
   53MOL0     H 7146   5.094   1.593   3.202  0.4459 -0.7583  2.2313
   53MOL0     H 7147   5.178   1.459   3.409  0.0995 -0.2736  0.1522
   53MOL0     H 7148   5.302   1.570   3.350 -0.1475 -0.0957 -0.4908
   53MOL0     H 7149   5.410   1.363   3.231  0.2019  2.0707  0.6711
   53MOL0     H 7150   5.278   1.271   3.290  0.2060 -0.3137  2.9532
   53MOL0     H 7151   5.468   1.256   3.453  0.4519 -0.0118  2.1949
   53MOL0     H 7152   5.351   1.354   3.534 -1.5910 -0.2507 -1.2366
   53MOL0     H 7153   5.693   1.604   3.473  0.7395  0.8284 -0.3468
   53MOL0     H 7154   4.900   1.594   3.327 -1.0925  0.6681  1.1617
   53MOL0     H 7155   4.651   1.610   3.309 -0.4726 -3.0143  2.2031
   54MOL0     O 7156   4.699   4.147   5.892  0.5047 -0.3689  0.2987
   54MOL0     C 7157   4.779   4.062   5.914 -0.4770 -0.3101 -0.2213
   54MOL0     O 7158   4.758   3.950   5.997  0.0086  0.3985 -0.0689
   54MOL0     C 7159   4.643   3.928   6.055  0.2292  0.0559 -0.6122
   54MOL0     C 7160   4.534   3.899   5.977  0.5478 -0.0634 -0.2174
   54MOL0     C 7161   4.410   3.879   6.044  0.6384 -0.2496 -0.7713
   54MOL0     C 7162   4.393   3.897   6.184  0.1851 -1.2911  0.3867
   54MOL0     O 7163   4.274   3.873   6.245  0.4904  0.1172 -0.4619
   54MOL0     C 7164   4.163   3.950   6.202 -0.7775  0.6729  0.2676
   54MOL0     C 7165   4.040   3.863   6.181  0.7806 -0.2604 -0.1199
   54MOL0     C 7166   3.915   3.943   6.193  0.2481  0.1393 -0.1199
   54MOL0     C 7167   3.788   3.863   6.185  0.9113  0.0196 -0.5842
   54MOL0     C 7168   3.660   3.938   6.219 -0.1936 -0.7141 -0.0704
   54MOL0     C 7169   3.601   4.030   6.109  0.1193  0.4997 -0.0228
   54MOL0     C 7170   3.472   4.108   6.170  0.2903  0.4837  0.6544
   54MOL0     C 7171   3.430   4.210   6.056  0.0176 -0.2779 -0.5077
   54MOL0     N 7172   3.309   4.288   6.091 -0.4065  0.3795 -0.1266
   54MOL0     C 7173   3.184   4.272   6.038  0.7208  0.0457  1.4199
   54MOL0     C 7174   3.118   4.374   6.090 -0.4893  0.2229 -0.5918
   54MOL0     C 7175   2.975   4.430   6.068  0.2436  0.4116 -0.6191
   54MOL0     C 7176   2.866   4.325   6.114 -0.0262 -0.8517 -0.3040
   54MOL0     C 7177   2.729   4.362   6.063  0.1669 -0.6120  0.0653
   54MOL0     C 7178   2.714   4.372   5.911  0.4497 -0.2378  0.4140
   54MOL0     O 7179   2.628   4.479   5.860 -0.1709  0.4649 -0.2312
   54MOL0     C 7180   2.493   4.445   5.849 -0.4892  0.3148  0.3914
   54MOL0     C 7181   2.426   4.351   5.930 -0.1122  0.4678  0.4876
   54MOL0     C 7182   2.289   4.328   5.917 -0.7381  0.4815 -0.3384
   54MOL0     C 7183   2.233   4.231   6.015 -0.0915 -0.3166 -0.9573
   54MOL0     C 7184   2.224   4.388   5.805  0.7656 -0.6590  0.2123
   54MOL0     C 7185   2.084   4.367   5.773  0.6200 -0.9556 -0.1317
   54MOL0     O 7186   2.057   4.349   5.638  0.2830 -0.4317 -0.5318
   54MOL0     C 7187   1.925   4.340   5.602  0.6110  0.5218 -0.8150
   54MOL0     C 7188   1.854   4.210   5.612 -0.1221 -0.6892 -0.2432
   54MOL0     C 7189   1.732   4.201   5.544  0.0723  0.3132  0.0903
   54MOL0     C 7190   1.668   4.313   5.501  0.2442 -0.5709 -0.2685
   54MOL0     O 7191   1.549   4.302   5.433  0.4264 -1.2119 -0.3071
   54MOL0     C 7192   1.473   4.179   5.426 -0.3464 -0.0231  0.2146
   54MOL0     C 7193   1.335   4.215   5.360 -0.6699 -2.0517 -0.6048
   54MOL0     C 7194   1.240   4.095   5.351  0.4357  0.1370 -0.4260
   54MOL0     C 7195   1.096   4.163   5.343 -0.6756 -0.1222 -1.0310
   54MOL0     C 7196   0.994   4.059   5.313  0.0644 -0.3498  0.0478
   54MOL0     C 7197   0.852   4.111   5.334  0.0213 -0.0174  0.5193
   54MOL0     C 7198   0.800   4.200   5.231  0.3464 -0.2322  0.0888
   54MOL0     C 7199   0.655   4.235   5.267 -0.1518 -0.1811  0.1213
   54MOL0    Cl 7200   0.545   4.098   5.215  0.3712 -0.4393  0.1082
   54MOL0     C 7201   1.731   4.435   5.499  0.2372 -0.9649 -0.9796
   54MOL0     C 7202   1.868   4.449   5.541 -0.0484 -0.6837 -0.0317
   54MOL0     O 7203   2.001   4.350   5.866  0.4116 -0.4677 -0.8138
   54MOL0     C 7204   2.295   4.469   5.719 -0.0892  0.1617  0.2690
   54MOL0     C 7205   2.427   4.499   5.745 -0.3206  0.2632  0.0179
   54MOL0     N 7206   3.198   4.443   6.176  0.1540  0.0817 -0.3072
   54MOL0     N 7207   3.317   4.398   6.174 -0.1094 -0.3690  0.4582
   54MOL0     C 7208   4.506   3.926   6.261  0.7337 -0.1598 -0.0036
   54MOL0     C 7209   4.630   3.941   6.195  0.4039 -1.0842 -0.2415
   54MOL0     C 7210   4.918   4.075   5.863 -0.5272  0.0735  0.0224
   54MOL0     C 7211   5.021   4.034   5.940  0.6204  1.1373  0.1068
   54MOL0     C 7212   5.153   4.059   5.900  0.1717  0.0593  0.2347
   54MOL0     C 7213   5.186   4.112   5.773  0.7374  0.6623 -0.1322
   54MOL0     O 7214   5.311   4.111   5.724  0.7290  0.1746 -0.4966
   54MOL0     C 7215   5.333   3.985   5.649  0.3597 -0.0898  0.5729
   54MOL0     C 7216   5.451   4.012   5.556 -0.1210  0.4003 -0.0221
   54MOL0     C 7217   5.590   4.018   5.613 -0.6542  0.1739  0.2585
   54MOL0     C 7218   5.644   3.882   5.675 -0.5830  0.5179  0.6340
   54MOL0     C 7219   5.786   3.900   5.690 -0.1178 -0.3576  0.0194
   54MOL0     C 7220   5.908   3.920   5.701 -0.2326  0.8708 -0.6665
   54MOL0     C 7221   5.079   4.145   5.689 -0.0979  0.2432  0.8401
   54MOL0     C 7222   4.947   4.135   5.736 -0.3049 -0.1227 -0.2068
   54MOL0     H 7223   4.556   3.874   5.873  4.0889 -0.1093  0.4484
   54MOL0     H 7224   4.329   3.841   5.983  0.8504 -2.0621  0.0336
   54MOL0     H 7225   4.136   4.018   6.283 -3.2766  0.0695  0.0392
   54MOL0     H 7226   4.176   4.009   6.111 -0.4456  1.3606  0.7533
   54MOL0     H 7227   4.043   3.809   6.086 -0.8981 -1.5091  0.4901
   54MOL0     H 7228   4.041   3.784   6.257 -1.0521  1.4097  1.7395
   54MOL0     H 7229   3.912   4.003   6.284  1.6471 -3.3712  2.4398
   54MOL0     H 7230   3.915   4.011   6.107  0.0774  1.1835  0.6821
   54MOL0     H 7231   3.777   3.819   6.085  3.6940  1.8191 -1.8213
   54MOL0     H 7232   3.800   3.784   6.259  1.1313  1.3152  0.8291
   54MOL0     H 7233   3.586   3.858   6.234 -0.1531 -0.9404 -1.0122
   54MOL0     H 7234   3.675   3.994   6.311 -2.3972  1.1905 -0.7659
   54MOL0     H 7235   3.673   4.109   6.089  0.9733  0.9289  3.9014
   54MOL0     H 7236   3.558   3.972   6.027 -2.1667  2.0245  0.0034
   54MOL0     H 7237   3.384   4.045   6.187  0.6854  0.6100  3.9277
   54MOL0     H 7238   3.487   4.163   6.264 -0.8368 -0.0386  1.1578
   54MOL0     H 7239   3.415   4.141   5.972 -2.0700 -1.8901  1.0620
   54MOL0     H 7240   3.510   4.284   6.046 -0.3511  1.1333  4.4924
   54MOL0     H 7241   3.140   4.202   5.968  0.6432  3.1626 -1.9729
   54MOL0     H 7242   2.959   4.520   6.128  1.9452  0.0369  0.4531
   54MOL0     H 7243   2.970   4.460   5.963 -0.1707 -0.4671 -0.8596
   54MOL0     H 7244   2.857   4.332   6.222 -0.8103  1.8604 -0.4693
   54MOL0     H 7245   2.887   4.223   6.078  0.5841 -1.0683  0.6594
   54MOL0     H 7246   2.701   4.459   6.106 -2.9809 -1.1502 -0.5047
   54MOL0     H 7247   2.658   4.291   6.107  1.0532 -1.5920 -0.0729
   54MOL0     H 7248   2.665   4.280   5.878 -0.9485  0.6778 -0.2213
   54MOL0     H 7249   2.812   4.384   5.864 -1.0451  0.3080 -2.8826
   54MOL0     H 7250   2.469   4.324   6.026  0.1687  0.7556  0.4426
   54MOL0     H 7251   2.154   4.182   5.957  0.0696 -1.0402 -0.5748
   54MOL0     H 7252   2.296   4.148   6.045  1.4932  1.3206  0.4671
   54MOL0     H 7253   2.193   4.282   6.103  0.6613 -1.1952 -0.0765
   54MOL0     H 7254   1.896   4.128   5.669 -1.3405  0.3433  2.2728
   54MOL0     H 7255   1.681   4.105   5.542  1.4463 -0.4254 -0.5778
   54MOL0     H 7256   1.523   4.115   5.352 -2.3020 -1.4036  0.0215
   54MOL0     H 7257   1.450   4.118   5.513 -1.4808 -0.7440 -0.5747
   54MOL0     H 7258   1.296   4.297   5.421  1.1964  0.0414 -2.0887
   54MOL0     H 7259   1.340   4.254   5.258 -0.5419 -0.7378 -0.1182
   54MOL0     H 7260   1.259   4.030   5.438  0.2530  0.4914 -0.1182
   54MOL0     H 7261   1.267   4.042   5.259  1.0976  2.7081 -1.7933
   54MOL0     H 7262   1.069   4.211   5.438 -0.5992 -0.2807 -0.9283
   54MOL0     H 7263   1.086   4.234   5.260 -0.9522 -0.1745 -1.0439
   54MOL0     H 7264   1.014   3.984   5.390 -0.5135 -1.4842 -0.8767
   54MOL0     H 7265   1.000   4.031   5.208 -2.3616  0.5437 -0.3966
   54MOL0     H 7266   0.780   4.030   5.349 -0.9122  0.5362 -0.7664
   54MOL0     H 7267   0.833   4.167   5.425 -0.1227  1.2382 -0.2606
   54MOL0     H 7268   0.801   4.161   5.129  3.4079 -1.4580  0.4924
   54MOL0     H 7269   0.854   4.295   5.224 -0.7043  0.2764 -5.5033
   54MOL0     H 7270   0.630   4.333   5.226 -0.2116 -0.4934 -0.6122
   54MOL0     H 7271   0.646   4.249   5.375 -1.2275  0.0402  0.0196
   54MOL0     H 7272   1.681   4.524   5.463 -1.1264 -1.2806  0.0502
   54MOL0     H 7273   1.909   4.549   5.548 -2.8702  0.5586  0.3110
   54MOL0     H 7274   2.249   4.514   5.631  1.2361  0.7002 -0.1766
   54MOL0     H 7275   2.478   4.561   5.673  0.6444  0.8547  1.1838
   54MOL0     H 7276   4.494   3.934   6.368 -0.2650 -1.0996 -0.0293
   54MOL0     H 7277   4.710   3.967   6.263  0.8449 -2.1982 -0.3068
   54MOL0     H 7278   4.993   3.989   6.034  1.0230  0.2756 -0.1784
   54MOL0     H 7279   5.236   4.018   5.957  1.5105 -0.1934 -1.8041
   54MOL0     H 7280   5.361   3.907   5.719 -0.2606  0.2854  1.2539
   54MOL0     H 7281   5.246   3.948   5.593  1.4456 -0.7524 -0.7264
   54MOL0     H 7282   5.425   4.098   5.493 -2.7005  0.0335  0.4137
   54MOL0     H 7283   5.455   3.934   5.480 -1.5853  2.1720 -2.0640
   54MOL0     H 7284   5.590   4.092   5.693 -0.3880  2.0174 -1.3719
   54MOL0     H 7285   5.661   4.053   5.536  0.0179  0.3664  0.9533
   54MOL0     H 7286   5.618   3.805   5.602 -3.2198  0.0699  1.9309
   54MOL0     H 7287   5.597   3.860   5.771 -1.2995 -0.2116  0.1227
   54MOL0     H 7288   6.012   3.943   5.707 -0.3183  1.6130 -1.6297
   54MOL0     H 7289   5.096   4.191   5.592  1.4348 -1.4370  0.2591
   54MOL0     H 7290   4.853   4.153   5.686  0.3462  0.8149 -1.1254
   55MOL0     O 7291   6.549   3.829   9.269 -0.2708 -0.7981  0.2590
   55MOL0     C 7292   6.567   3.947   9.303 -0.0151  0.8138  0.5475
   55MOL0     O 7293   6.615   4.054   9.223 -0.7359  0.3249 -0.5449
   55MOL0     C 7294   6.636   4.016   9.091  0.7711 -0.0640 -0.0404
   55MOL0     C 7295   6.552   4.069   8.992 -0.4820 -0.7034  0.3251
   55MOL0     C 7296   6.582   4.050   8.859  0.0634  0.4750 -0.2548
   55MOL0     C 7297   6.688   3.973   8.815 -1.0605 -0.8487  0.2624
   55MOL0     O 7298   6.707   3.959   8.680  0.1961  0.0901  0.0264
   55MOL0     C 7299   6.695   3.821   8.643  0.2796 -0.4144  0.2019
   55MOL0     C 7300   6.634   3.819   8.507  0.7954 -0.2104  0.6386
   55MOL0     C 7301   6.718   3.869   8.395  0.0537  0.0041  0.5746
   55MOL0     C 7302   6.631   3.894   8.271 -0.7979  0.8150  0.9970
   55MOL0     C 7303   6.695   3.911   8.134 -0.7279 -0.3500 -0.6375
   55MOL0     C 7304   6.775   3.795   8.080  0.5090  0.0505  0.9068
   55MOL0     C 7305   6.821   3.830   7.946 -0.0530 -0.9844  0.5263
   55MOL0     C 7306   6.929   3.737   7.897  0.1821  0.3193 -0.0976
   55MOL0     N 7307   6.991   3.775   7.773  0.5471 -0.4590  0.3278
   55MOL0     C 7308   6.938   3.804   7.645 -0.7501 -0.1811  0.3206
   55MOL0     C 7309   7.041   3.828   7.561  0.1089 -0.5789 -0.4910
   55MOL0     C 7310   7.029   3.866   7.417 -0.2127  0.1098  0.1489
   55MOL0     C 7311   7.125   3.987   7.378  0.6066  1.0935 -1.0936
   55MOL0     C 7312   7.080   4.117   7.455 -0.3083  0.5174  0.3667
   55MOL0     C 7313   7.127   4.241   7.381 -0.1255  1.1378  0.1232
   55MOL0     O 7314   7.095   4.352   7.463  0.1350  0.2250 -0.2640
   55MOL0     C 7315   6.969   4.403   7.468 -0.6927 -0.3006  0.5871
   55MOL0     C 7316   6.950   4.521   7.539  0.8322 -0.1370 -1.1407
   55MOL0     C 7317   6.826   4.584   7.537  0.3045 -0.3118 -0.5513
   55MOL0     C 7318   6.812   4.714   7.614  0.5303 -0.5203 -0.4516
   55MOL0     C 7319   6.719   4.533   7.466  0.7355  0.0017  0.1207
   55MOL0     C 7320   6.579   4.592   7.466 -0.1064 -0.3091  0.3620
   55MOL0     O 7321   6.479   4.503   7.461 -0.4822  0.2642  0.4040
   55MOL0     C 7322   6.354   4.544   7.434 -0.0165 -0.5757  0.0536
   55MOL0     C 7323   6.296   4.635   7.535 -0.2474  0.2961  0.7226
   55MOL0     C 7324   6.168   4.683   7.511  0.0796 -0.2447 -1.1936
   55MOL0     C 7325   6.088   4.646   7.404 -0.9523 -0.3100  1.1182
   55MOL0     O 7326   5.968   4.701   7.366  0.0105 -0.9429  0.0478
   55MOL0     C 7327   5.857   4.701   7.462  0.0819  0.1871 -0.0557
   55MOL0     C 7328   5.752   4.820   7.450  0.9753 -0.6864  0.8200
   55MOL0     C 7329   5.616   4.767   7.473 -0.5327 -0.2386  0.8635
   55MOL0     C 7330   5.574   4.761   7.631  0.2908  0.9961  0.2256
   55MOL0     C 7331   5.412   4.773   7.640 -1.5049 -0.2424 -0.0446
   55MOL0     C 7332   5.350   4.650   7.577 -0.3362  0.1096 -0.0177
   55MOL0     C 7333   5.201   4.681   7.579  0.7607  0.0367 -0.2028
   55MOL0     C 7334   5.113   4.560   7.563  1.2195 -0.3080  0.5903
   55MOL0    Cl 7335   4.931   4.603   7.564 -0.1222 -0.5789 -0.1279
   55MOL0     C 7336   6.146   4.552   7.320  0.1531 -0.0068 -0.2261
   55MOL0     C 7337   6.280   4.502   7.331  0.6868 -0.7354 -0.9441
   55MOL0     O 7338   6.572   4.714   7.449  0.3473  0.5246 -0.3178
   55MOL0     C 7339   6.743   4.421   7.385 -0.2544  0.4116 -0.8074
   55MOL0     C 7340   6.869   4.366   7.380  0.2754 -0.0056 -0.1884
   55MOL0     N 7341   7.155   3.826   7.641  0.5102 -0.0444 -1.2351
   55MOL0     N 7342   7.131   3.783   7.764  1.4094 -1.1791  0.9421
   55MOL0     C 7343   6.787   3.927   8.908  0.2643  0.2472  0.5443
   55MOL0     C 7344   6.756   3.948   9.045 -0.6775 -0.4855 -0.1370
   55MOL0     C 7345   6.526   3.969   9.440  0.3189 -0.1714 -1.0916
   55MOL0     C 7346   6.405   3.910   9.488  0.3871 -0.3166 -0.3471
   55MOL0     C 7347   6.343   3.952   9.608 -0.1966  0.0124 -0.0454
   55MOL0     C 7348   6.399   4.061   9.684 -0.4987  0.1584  0.0643
   55MOL0     O 7349   6.349   4.111   9.800  0.4773  0.8067  0.2446
   55MOL0     C 7350   6.220   4.073   9.835  0.5454 -0.4626  0.3763
   55MOL0     C 7351   6.218   3.954   9.928 -0.2339 -0.4125 -0.5887
   55MOL0     C 7352   6.332   3.939  10.035  0.6106 -0.4505 -0.4682
   55MOL0     C 7353   6.326   4.062  10.128 -0.0596 -0.3012 -0.3780
   55MOL0     C 7354   6.226   4.054  10.236 -0.2454 -0.1373 -0.6573
   55MOL0     C 7355   6.140   4.042  10.325  0.3690 -0.9426 -0.2992
   55MOL0     C 7356   6.510   4.125   9.631  0.0554  0.2479  0.6251
   55MOL0     C 7357   6.572   4.080   9.507  0.9221  0.2006 -0.3681
   55MOL0     H 7358   6.462   4.121   9.025 -0.1752 -1.1883  2.0062
   55MOL0     H 7359   6.516   4.086   8.781 -0.4129 -0.1473 -0.1461
   55MOL0     H 7360   6.791   3.769   8.644  0.9050  0.7099  0.6623
   55MOL0     H 7361   6.630   3.771   8.715 -1.1816  0.3873 -0.5200
   55MOL0     H 7362   6.590   3.719   8.498 -0.2330  0.1232  1.6474
   55MOL0     H 7363   6.543   3.880   8.499  2.4269  2.0649 -2.2775
   55MOL0     H 7364   6.766   3.963   8.424 -0.8415  0.4771  0.5792
   55MOL0     H 7365   6.789   3.789   8.373 -1.5961 -1.8614  1.7273
   55MOL0     H 7366   6.559   3.814   8.254  0.6819  0.0653 -2.4152
   55MOL0     H 7367   6.560   3.975   8.290 -0.7147  1.4220 -1.1200
   55MOL0     H 7368   6.617   3.929   8.060 -3.6046  0.2528  2.2803
   55MOL0     H 7369   6.757   4.001   8.136 -2.0362  0.5778 -0.4865
   55MOL0     H 7370   6.854   3.758   8.146  0.4546  1.8409  2.0437
   55MOL0     H 7371   6.702   3.715   8.066 -1.0704  1.1281  2.5716
   55MOL0     H 7372   6.735   3.844   7.880  1.1670 -0.4071 -1.0046
   55MOL0     H 7373   6.855   3.934   7.954  0.2547 -1.1255  1.0989
   55MOL0     H 7374   6.901   3.632   7.879 -0.0796  0.2129  0.8965
   55MOL0     H 7375   7.006   3.734   7.974  0.9334 -1.4857 -0.8402
   55MOL0     H 7376   6.834   3.821   7.619 -0.2441  0.3952 -1.4499
   55MOL0     H 7377   7.060   3.775   7.365  1.6496  0.8015 -0.0514
   55MOL0     H 7378   6.922   3.885   7.404 -0.4835 -0.4693  1.3570
   55MOL0     H 7379   7.123   4.008   7.270  0.2571  3.0759 -0.7466
   55MOL0     H 7380   7.228   3.967   7.409  0.0523  1.3274  1.0738
   55MOL0     H 7381   7.120   4.112   7.557 -0.6344 -0.1304  0.4671
   55MOL0     H 7382   6.971   4.121   7.467 -0.7096  0.9744 -2.6637
   55MOL0     H 7383   7.098   4.238   7.276  2.1296 -0.1861 -0.5204
   55MOL0     H 7384   7.235   4.242   7.367  0.0732 -0.3999  1.3380
   55MOL0     H 7385   7.026   4.567   7.602 -0.0035  0.6361 -0.6576
   55MOL0     H 7386   6.902   4.733   7.674  0.1218 -0.8448  0.2790
   55MOL0     H 7387   6.780   4.796   7.550  0.5222 -1.0886 -1.1889
   55MOL0     H 7388   6.730   4.694   7.684  1.4430 -4.6406 -0.2695
   55MOL0     H 7389   6.357   4.662   7.620 -0.9466  0.3694  1.2048
   55MOL0     H 7390   6.120   4.756   7.575 -1.7902 -0.7968 -1.9020
   55MOL0     H 7391   5.803   4.605   7.457 -0.3079  0.4324 -0.8057
   55MOL0     H 7392   5.898   4.712   7.562 -0.9056 -0.3808  0.4368
   55MOL0     H 7393   5.773   4.908   7.511 -0.4118 -1.4309  2.4668
   55MOL0     H 7394   5.750   4.849   7.344 -0.8012 -4.5775 -0.4501
   55MOL0     H 7395   5.603   4.666   7.434  0.1968 -1.7152  4.1382
   55MOL0     H 7396   5.550   4.832   7.413  0.2866  0.3947  0.6247
   55MOL0     H 7397   5.611   4.673   7.685 -1.0139  0.5881  0.5036
   55MOL0     H 7398   5.614   4.851   7.677  2.6694  0.6210 -0.9864
   55MOL0     H 7399   5.375   4.858   7.582  0.3759  1.7028  1.4509
   55MOL0     H 7400   5.385   4.777   7.746  0.2154  2.0152  0.3582
   55MOL0     H 7401   5.380   4.645   7.472  0.6789 -2.8729  0.3286
   55MOL0     H 7402   5.372   4.562   7.638 -1.7190  0.0877  0.4775
   55MOL0     H 7403   5.182   4.763   7.509  0.1736  0.7877  0.8098
   55MOL0     H 7404   5.167   4.721   7.675  0.4588 -2.9584  1.0426
   55MOL0     H 7405   5.136   4.496   7.649  0.6458 -0.0698  0.9325
   55MOL0     H 7406   5.138   4.517   7.466  3.0897  1.1666  0.3622
   55MOL0     H 7407   6.082   4.526   7.236  1.6184  0.5386 -1.5624
   55MOL0     H 7408   6.323   4.437   7.256 -0.6950 -0.8125 -1.6947
   55MOL0     H 7409   6.661   4.378   7.327 -2.6222  3.0246  0.3442
   55MOL0     H 7410   6.885   4.279   7.317  2.3061 -3.3600  4.3751
   55MOL0     H 7411   6.872   3.879   8.861  0.0953  1.1613 -0.7308
   55MOL0     H 7412   6.819   3.912   9.125 -0.9106  1.1275  0.8123
   55MOL0     H 7413   6.353   3.832   9.432  0.2752 -0.8151  0.4384
   55MOL0     H 7414   6.248   3.907   9.635 -0.8891  0.7883 -1.0843
   55MOL0     H 7415   6.171   4.151   9.894 -1.1500 -3.6798  3.6280
   55MOL0     H 7416   6.154   4.052   9.751 -0.0040 -0.5958  0.8360
   55MOL0     H 7417   6.199   3.861   9.873 -0.2420 -1.7431  1.5589
   55MOL0     H 7418   6.131   3.978   9.990  0.6609  5.1485 -0.9940
   55MOL0     H 7419   6.418   3.950   9.968 -0.3885  2.2748 -1.4618
   55MOL0     H 7420   6.354   3.848  10.090  0.9744 -0.4262 -0.5695
   55MOL0     H 7421   6.285   4.148  10.074  1.0624  0.7388  0.3985
   55MOL0     H 7422   6.425   4.098  10.155 -0.1384  2.6107 -3.2192
   55MOL0     H 7423   6.074   4.024  10.408 -0.6454 -0.4606 -0.9818
   55MOL0     H 7424   6.549   4.211   9.684  1.0271  0.1290  0.1126
   55MOL0     H 7425   6.663   4.130   9.476  2.8645 -3.3881 -1.0118
   56MOL0     O 7426   5.410   3.455  11.224 -0.3752  1.1360 -0.4691
   56MOL0     C 7427   5.428   3.477  11.347  0.3395 -0.0160  0.3463
   56MOL0     O 7428   5.328   3.488  11.444 -0.6586  0.3707  0.0307
   56MOL0     C 7429   5.196   3.470  11.418 -0.3996 -1.7318  0.4769
   56MOL0     C 7430   5.104   3.555  11.489  0.2514  0.8314  0.4609
   56MOL0     C 7431   4.970   3.540  11.480  0.0963 -0.3654 -0.4473
   56MOL0     C 7432   4.914   3.447  11.391 -0.2431  0.3182 -0.2822
   56MOL0     O 7433   4.780   3.440  11.384  0.1711 -0.4280  0.2355
   56MOL0     C 7434   4.733   3.303  11.345 -0.4264 -0.0371  0.7275
   56MOL0     C 7435   4.589   3.284  11.389 -0.1699  0.6582  0.0216
   56MOL0     C 7436   4.485   3.378  11.311  0.0813  0.1099 -0.1997
   56MOL0     C 7437   4.347   3.315  11.310  0.6631 -0.0713 -0.6161
   56MOL0     C 7438   4.235   3.411  11.308 -0.4494 -0.2342  0.3909
   56MOL0     C 7439   4.109   3.332  11.308 -0.3784  0.5115  0.2375
   56MOL0     C 7440   3.986   3.424  11.304  0.0833 -0.3478 -0.1137
   56MOL0     C 7441   3.936   3.471  11.442  0.0231 -0.4810 -0.7447
   56MOL0     N 7442   3.817   3.555  11.457  1.0392 -0.6338 -0.3825
   56MOL0     C 7443   3.729   3.592  11.358  0.6915  0.6803  1.4418
   56MOL0     C 7444   3.637   3.663  11.427 -0.2282  0.3245  0.8871
   56MOL0     C 7445   3.507   3.720  11.369 -1.0004  0.8136  0.3080
   56MOL0     C 7446   3.395   3.636  11.423 -0.9543 -0.3795 -0.5134
   56MOL0     C 7447   3.272   3.724  11.457 -0.1877  0.1760  1.0407
   56MOL0     C 7448   3.153   3.636  11.480  0.2076  0.2343 -0.3052
   56MOL0     O 7449   3.079   3.611  11.358 -0.1469  0.4616  0.3236
   56MOL0     C 7450   2.949   3.580  11.370  0.6572 -0.2072 -0.5198
   56MOL0     C 7451   2.905   3.506  11.481 -0.3940 -0.3256  0.2626
   56MOL0     C 7452   2.772   3.462  11.492  0.3917  1.3136  0.8183
   56MOL0     C 7453   2.744   3.363  11.609  0.0376 -0.5305 -0.1803
   56MOL0     C 7454   2.679   3.485  11.391  0.5839 -0.9378  0.4184
   56MOL0     C 7455   2.534   3.457  11.405 -0.1166 -0.3698 -0.9868
   56MOL0     O 7456   2.453   3.454  11.294 -0.5613 -0.3099  0.3786
   56MOL0     C 7457   2.327   3.420  11.312  0.2698 -0.4438  0.0093
   56MOL0     C 7458   2.286   3.289  11.273  0.1806 -0.2792  0.2359
   56MOL0     C 7459   2.149   3.267  11.250 -0.7796  0.0830  0.7883
   56MOL0     C 7460   2.058   3.356  11.293  0.5572  0.5702  0.1438
   56MOL0     O 7461   1.928   3.316  11.267 -0.9260  0.0884  0.3847
   56MOL0     C 7462   1.845   3.369  11.368 -0.4061 -1.2997  0.1766
   56MOL0     C 7463   1.717   3.290  11.367  0.0683 -0.3388  0.4820
   56MOL0     C 7464   1.623   3.357  11.470  0.7325 -0.3860  0.5405
   56MOL0     C 7465   1.492   3.287  11.463  0.2723  0.2086 -0.1628
   56MOL0     C 7466   1.385   3.370  11.533  0.2957 -0.5041  1.1112
   56MOL0     C 7467   1.271   3.275  11.567  0.6815 -0.2665 -0.4904
   56MOL0     C 7468   1.146   3.359  11.624  0.3953  0.2657  0.0040
   56MOL0     C 7469   1.010   3.283  11.627 -1.0438  0.3134 -0.0884
   56MOL0    Cl 7470   0.875   3.392  11.680 -0.0655 -0.7404  0.2502
   56MOL0     C 7471   2.100   3.476  11.341 -0.6995 -0.2610 -0.4410
   56MOL0     C 7472   2.232   3.513  11.348 -0.3553  1.0462  0.6702
   56MOL0     O 7473   2.493   3.466  11.522  0.3565  0.9335 -0.2613
   56MOL0     C 7474   2.723   3.551  11.274  0.4753 -0.0802  0.6653
   56MOL0     C 7475   2.853   3.600  11.265  0.6554 -0.8121 -0.9278
   56MOL0     N 7476   3.667   3.665  11.567  0.2365 -0.4220  0.3566
   56MOL0     N 7477   3.782   3.605  11.576  0.2142  0.1757 -0.7502
   56MOL0     C 7478   5.003   3.370  11.319 -0.7673 -0.1589  0.5267
   56MOL0     C 7479   5.142   3.377  11.335 -0.3447 -0.5391  0.1427
   56MOL0     C 7480   5.562   3.474  11.400  0.3550 -0.3248 -1.9353
   56MOL0     C 7481   5.678   3.457  11.322 -0.3479  0.2314  0.2044
   56MOL0     C 7482   5.807   3.440  11.387  0.2532  0.6765 -0.6806
   56MOL0     C 7483   5.827   3.458  11.515 -0.2279  0.1889 -0.2039
   56MOL0     O 7484   5.941   3.446  11.584 -1.0010 -0.0616 -0.0818
   56MOL0     C 7485   6.071   3.456  11.518  0.8982  0.2101  0.2261
   56MOL0     C 7486   6.163   3.531  11.613  0.0908 -0.6124  0.2586
   56MOL0     C 7487   6.100   3.661  11.667 -0.3110  0.0233 -0.5744
   56MOL0     C 7488   6.070   3.767  11.558  0.9269  1.5466 -0.6788
   56MOL0     C 7489   6.181   3.782  11.467  0.1306  0.0570 -0.5083
   56MOL0     C 7490   6.275   3.782  11.404 -0.9595 -0.0893  0.1272
   56MOL0     C 7491   5.715   3.491  11.593 -0.3292 -0.8469 -0.9838
   56MOL0     C 7492   5.584   3.504  11.534  0.2595  0.2615 -0.0890
   56MOL0     H 7493   5.144   3.625  11.561  0.9441  3.8813 -2.6312
   56MOL0     H 7494   4.904   3.597  11.546 -0.4299 -0.5318 -0.8247
   56MOL0     H 7495   4.737   3.301  11.236  2.0197  0.2213  0.7528
   56MOL0     H 7496   4.799   3.225  11.383 -2.3879 -0.6319  3.2335
   56MOL0     H 7497   4.572   3.177  11.374  0.2841  0.8120 -1.7642
   56MOL0     H 7498   4.592   3.308  11.496  2.7479 -1.9240  0.6496
   56MOL0     H 7499   4.483   3.480  11.351 -1.3123  0.3281 -0.7600
   56MOL0     H 7500   4.515   3.377  11.206 -0.9721 -1.0383 -0.5241
   56MOL0     H 7501   4.336   3.245  11.226  0.2287  2.1195 -2.4963
   56MOL0     H 7502   4.339   3.257  11.402 -0.1732  2.5944  1.0890
   56MOL0     H 7503   4.236   3.481  11.392 -1.2868 -1.1297  1.1687
   56MOL0     H 7504   4.246   3.464  11.212 -1.0101 -2.0892 -0.7424
   56MOL0     H 7505   4.110   3.277  11.213  1.2364  0.2735  0.3481
   56MOL0     H 7506   4.095   3.251  11.379 -2.3072 -1.0063 -1.7383
   56MOL0     H 7507   4.003   3.510  11.240 -0.1535  0.0946  0.4105
   56MOL0     H 7508   3.908   3.368  11.252  2.0276 -2.9297 -0.4911
   56MOL0     H 7509   4.012   3.536  11.488  0.9371 -0.4737 -2.2116
   56MOL0     H 7510   3.915   3.384  11.505  0.8506 -0.4004 -0.3355
   56MOL0     H 7511   3.738   3.562  11.254  0.8499 -0.7365  1.8399
   56MOL0     H 7512   3.492   3.817  11.416 -1.6290 -0.1523  2.1799
   56MOL0     H 7513   3.504   3.716  11.259 -2.2983  2.1085  0.2680
   56MOL0     H 7514   3.428   3.605  11.522 -0.4692  1.9647  0.1197
   56MOL0     H 7515   3.376   3.556  11.351 -1.8739 -0.9985  0.3848
   56MOL0     H 7516   3.248   3.806  11.389  0.6837 -1.8124 -1.8858
   56MOL0     H 7517   3.291   3.762  11.558 -2.1109  1.2796  1.0256
   56MOL0     H 7518   3.081   3.688  11.543 -2.9381  0.2599 -3.5544
   56MOL0     H 7519   3.181   3.545  11.533  0.7952  1.2092  1.0986
   56MOL0     H 7520   2.977   3.469  11.554  0.8278 -0.1822 -0.8329
   56MOL0     H 7521   2.712   3.417  11.699 -0.4975 -0.3627 -0.4644
   56MOL0     H 7522   2.665   3.294  11.577 -0.8786  0.2194  0.3945
   56MOL0     H 7523   2.834   3.312  11.642  0.2641  0.0740  0.1544
   56MOL0     H 7524   2.365   3.216  11.255  1.8579  0.8272  2.5514
   56MOL0     H 7525   2.109   3.179  11.202  1.8092  0.2372 -1.8893
   56MOL0     H 7526   1.883   3.368  11.471 -0.1075 -1.6224  0.0639
   56MOL0     H 7527   1.835   3.474  11.339 -0.0543 -0.6707  2.1792
   56MOL0     H 7528   1.666   3.287  11.270 -2.1751 -3.1887  1.6023
   56MOL0     H 7529   1.728   3.183  11.389 -3.1731 -0.4302  2.2472
   56MOL0     H 7530   1.602   3.461  11.441 -1.8138 -1.0775 -0.4284
   56MOL0     H 7531   1.660   3.357  11.573 -1.3791 -1.7042  1.3853
   56MOL0     H 7532   1.464   3.264  11.360  2.5011 -2.3467 -0.3027
   56MOL0     H 7533   1.493   3.185  11.503 -0.7123  0.1718 -0.1974
   56MOL0     H 7534   1.350   3.448  11.465 -2.0019 -1.0375  1.5936
   56MOL0     H 7535   1.410   3.411  11.631  0.9163  1.0587  0.3445
   56MOL0     H 7536   1.240   3.219  11.479  2.6107 -0.7221 -0.9204
   56MOL0     H 7537   1.305   3.204  11.643  2.8245 -0.4909 -1.5611
   56MOL0     H 7538   1.130   3.446  11.560  3.3058  0.4831 -0.5564
   56MOL0     H 7539   1.166   3.397  11.725 -1.1177  0.0768  0.4062
   56MOL0     H 7540   1.019   3.201  11.699 -0.9275  1.1214  0.8472
   56MOL0     H 7541   0.990   3.253  11.524 -3.3632  0.4630  0.2661
   56MOL0     H 7542   2.028   3.549  11.377 -0.7574 -1.3242  1.7729
   56MOL0     H 7543   2.258   3.613  11.378 -0.5979  1.2554  0.2014
   56MOL0     H 7544   2.661   3.569  11.187  2.7193 -0.1107 -1.0506
   56MOL0     H 7545   2.889   3.658  11.180  1.4787  0.8892  0.5214
   56MOL0     H 7546   4.975   3.294  11.246 -0.5999 -1.4255  1.7488
   56MOL0     H 7547   5.200   3.308  11.274  1.3242  0.2614  0.7581
   56MOL0     H 7548   5.671   3.457  11.214 -1.2277  2.5574  0.2173
   56MOL0     H 7549   5.895   3.432  11.324  0.1739  3.0886 -1.1983
   56MOL0     H 7550   6.117   3.360  11.495  1.4001  0.8938 -1.8706
   56MOL0     H 7551   6.063   3.513  11.425  3.1499  0.8445  0.3624
   56MOL0     H 7552   6.267   3.555  11.586 -0.2922  2.4347  1.2184
   56MOL0     H 7553   6.173   3.460  11.695  1.0076  0.0847  0.7737
   56MOL0     H 7554   6.160   3.708  11.745 -0.9819  2.0404 -1.2098
   56MOL0     H 7555   6.006   3.629  11.713  0.6524 -0.5549  1.0938
   56MOL0     H 7556   6.044   3.864  11.602 -0.1619  0.0879  2.1118
   56MOL0     H 7557   5.981   3.732  11.504  1.7209  1.7847 -2.2124
   56MOL0     H 7558   6.359   3.776  11.338 -0.7967  2.8783 -0.0682
   56MOL0     H 7559   5.735   3.516  11.696  3.7373 -0.4470 -1.7130
   56MOL0     H 7560   5.498   3.522  11.599  2.2318  0.6148  2.6243
   57MOL0     O 7561   4.289   3.154   4.297  0.4538  0.2169 -0.5979
   57MOL0     C 7562   4.240   3.141   4.182 -0.3438 -0.5216  0.3331
   57MOL0     O 7563   4.107   3.121   4.146  0.6969  0.2901 -1.0084
   57MOL0     C 7564   4.010   3.091   4.232 -0.0479 -0.5007 -0.1647
   57MOL0     C 7565   3.907   3.009   4.192 -0.1013  0.7178 -0.1322
   57MOL0     C 7566   3.796   2.983   4.270 -0.1998  0.2799  0.1539
   57MOL0     C 7567   3.784   3.033   4.401 -1.2766 -0.1162 -0.1271
   57MOL0     O 7568   3.669   3.003   4.467 -0.5737 -0.4351 -0.6847
   57MOL0     C 7569   3.653   3.069   4.585 -0.5382  0.2434 -0.6401
   57MOL0     C 7570   3.516   3.024   4.629  0.9409 -0.3186 -0.0549
   57MOL0     C 7571   3.497   3.089   4.768  0.5210 -0.5355 -0.0102
   57MOL0     C 7572   3.394   3.029   4.863 -0.4680  0.2425 -0.2706
   57MOL0     C 7573   3.254   3.063   4.831  0.4519 -0.1475 -0.2753
   57MOL0     C 7574   3.142   3.029   4.937  0.3462  0.0742 -0.0573
   57MOL0     C 7575   3.157   3.139   5.041  0.7687  0.7011  0.1057
   57MOL0     C 7576   3.044   3.141   5.142 -0.3013  0.1364 -0.0737
   57MOL0     N 7577   2.934   3.240   5.110  0.0428  0.7653 -0.4837
   57MOL0     C 7578   2.931   3.373   5.161  0.1881  0.4280 -0.4023
   57MOL0     C 7579   2.811   3.420   5.117 -0.2032  0.2373  0.3177
   57MOL0     C 7580   2.738   3.548   5.138 -0.0091  0.6060 -0.0008
   57MOL0     C 7581   2.707   3.556   5.292  1.0917 -0.5050  0.1799
   57MOL0     C 7582   2.577   3.628   5.314  1.2458 -0.6797 -0.7546
   57MOL0     C 7583   2.508   3.583   5.445 -0.3776 -0.6594  0.0068
   57MOL0     O 7584   2.384   3.657   5.447  0.0472  0.2359 -0.7899
   57MOL0     C 7585   2.285   3.614   5.356 -0.4132  1.4256 -0.6097
   57MOL0     C 7586   2.247   3.701   5.256  0.4130  0.2519 -0.5749
   57MOL0     C 7587   2.142   3.675   5.174 -0.0979 -0.8848 -0.6395
   57MOL0     C 7588   2.115   3.795   5.081  0.6185 -0.5155  0.2206
   57MOL0     C 7589   2.067   3.554   5.185  0.1393 -0.9152 -0.0574
   57MOL0     C 7590   1.939   3.523   5.120 -0.4891  0.2206  0.5350
   57MOL0     O 7591   1.910   3.586   5.004  0.6111 -0.3197  0.0870
   57MOL0     C 7592   1.777   3.593   4.960  0.8820 -0.0154 -1.8489
   57MOL0     C 7593   1.658   3.573   5.030  0.1824 -0.2984  0.1210
   57MOL0     C 7594   1.531   3.576   4.959  0.1527 -0.3774 -0.4202
   57MOL0     C 7595   1.522   3.621   4.829  0.6525  0.0876 -0.1431
   57MOL0     O 7596   1.406   3.628   4.759 -0.1020  0.0090  0.5040
   57MOL0     C 7597   1.287   3.633   4.841  0.1603  0.3589  0.2936
   57MOL0     C 7598   1.178   3.700   4.759 -0.3486 -0.4621 -0.3839
   57MOL0     C 7599   1.048   3.717   4.834  0.2566  0.1731 -0.4295
   57MOL0     C 7600   0.937   3.786   4.746  0.2101  0.4995 -0.4209
   57MOL0     C 7601   0.814   3.836   4.822 -0.3744 -0.5446 -0.3837
   57MOL0     C 7602   0.726   3.931   4.730  0.1727  0.9962 -0.1005
   57MOL0     C 7603   0.635   4.036   4.798  0.4841 -0.3003 -0.2670
   57MOL0     C 7604   0.524   3.964   4.888  0.5506  0.1747 -0.0835
   57MOL0    Cl 7605   0.431   3.868   4.757  0.2172 -0.1785 -0.4033
   57MOL0     C 7606   1.640   3.662   4.770 -0.4404  0.5157 -1.2572
   57MOL0     C 7607   1.758   3.644   4.833 -0.1806  0.2271 -0.3380
   57MOL0     O 7608   1.867   3.436   5.172  0.0212 -0.2234  0.9904
   57MOL0     C 7609   2.103   3.466   5.287  0.2098  0.1883 -0.1285
   57MOL0     C 7610   2.208   3.495   5.376  0.4254  0.2111 -0.7183
   57MOL0     N 7611   2.743   3.319   5.048 -0.6105  0.0231  0.1303
   57MOL0     N 7612   2.820   3.212   5.041  0.7362  0.6159 -0.2496
   57MOL0     C 7613   3.895   3.115   4.449 -0.1069  0.0505 -0.5881
   57MOL0     C 7614   4.002   3.152   4.363  0.3111  0.1096  0.5660
   57MOL0     C 7615   4.339   3.180   4.076  0.0824  0.5117 -0.2863
   57MOL0     C 7616   4.476   3.168   4.081  0.0489 -0.0255 -0.4736
   57MOL0     C 7617   4.559   3.194   3.974  0.7855 -0.3132  0.0999
   57MOL0     C 7618   4.506   3.257   3.864 -0.0633 -0.3498 -0.3017
   57MOL0     O 7619   4.591   3.279   3.757  0.5318 -0.0309  0.3740
   57MOL0     C 7620   4.546   3.369   3.654 -0.0598 -1.4225 -1.0044
   57MOL0     C 7621   4.666   3.457   3.623 -0.3150 -0.1115  0.3871
   57MOL0     C 7622   4.781   3.380   3.562 -0.1039 -0.1270 -0.5700
   57MOL0     C 7623   4.914   3.446   3.600 -0.8851 -0.0680  0.7513
   57MOL0     C 7624   4.930   3.574   3.531  1.0071 -0.3440 -0.4090
   57MOL0     C 7625   4.968   3.671   3.471  0.1175 -0.1352 -1.0429
   57MOL0     C 7626   4.366   3.267   3.845 -0.0902  0.8580  0.6411
   57MOL0     C 7627   4.284   3.227   3.961 -0.0752 -0.4822  1.2689
   57MOL0     H 7628   3.913   2.971   4.090  0.6022 -0.5587  0.3644
   57MOL0     H 7629   3.702   2.936   4.243 -1.1263  2.0971 -0.0023
   57MOL0     H 7630   3.724   3.031   4.659  1.8055 -0.2665 -2.9960
   57MOL0     H 7631   3.655   3.179   4.579  0.2122  0.5270  2.8377
   57MOL0     H 7632   3.448   3.066   4.554  1.8729 -1.6259 -1.7024
   57MOL0     H 7633   3.510   2.915   4.635 -0.2741 -0.1990  1.4656
   57MOL0     H 7634   3.589   3.079   4.826  0.5669  2.1400  0.5063
   57MOL0     H 7635   3.478   3.196   4.758 -0.2042 -0.8177 -2.3697
   57MOL0     H 7636   3.402   2.920   4.863 -3.0730 -0.0560 -2.4362
   57MOL0     H 7637   3.419   3.068   4.962  0.9300  3.2707 -1.6710
   57MOL0     H 7638   3.250   3.169   4.807  0.8988 -0.1849 -0.5308
   57MOL0     H 7639   3.226   3.010   4.740  0.1644 -2.0962  0.8780
   57MOL0     H 7640   3.045   3.045   4.888 -0.8433 -0.3669  2.0113
   57MOL0     H 7641   3.142   2.931   4.985  0.9799  0.0150 -0.1812
   57MOL0     H 7642   3.244   3.111   5.103 -0.9065 -2.9498  1.0905
   57MOL0     H 7643   3.171   3.233   4.986  2.1254  0.6753  0.3688
   57MOL0     H 7644   3.072   3.155   5.247  3.1694 -1.1521 -0.7023
   57MOL0     H 7645   3.001   3.040   5.140  0.0835 -0.0330  0.1333
   57MOL0     H 7646   3.006   3.420   5.223  0.4720 -0.2905 -0.1920
   57MOL0     H 7647   2.804   3.631   5.115  0.4013  1.1109  2.7263
   57MOL0     H 7648   2.651   3.535   5.073 -1.2119 -0.2091  1.6809
   57MOL0     H 7649   2.787   3.593   5.356  0.8555  2.1746 -0.9208
   57MOL0     H 7650   2.698   3.452   5.324  0.6522 -1.7851 -3.5904
   57MOL0     H 7651   2.507   3.625   5.230  0.9303  1.2185 -0.5970
   57MOL0     H 7652   2.587   3.737   5.320  2.2468 -0.8475  1.5274
   57MOL0     H 7653   2.574   3.617   5.525  2.1926 -0.2664 -2.1131
   57MOL0     H 7654   2.489   3.476   5.449 -2.5307 -0.2878  2.9115
   57MOL0     H 7655   2.300   3.796   5.256 -0.0556  0.5175 -0.2258
   57MOL0     H 7656   2.011   3.814   5.054  0.4211 -1.7070  0.0816
   57MOL0     H 7657   2.149   3.889   5.125  0.5194 -1.3866  2.2830
   57MOL0     H 7658   2.176   3.774   4.993 -1.5876  0.0007 -1.5270
   57MOL0     H 7659   1.640   3.528   5.127  0.8559 -0.4951  0.1569
   57MOL0     H 7660   1.445   3.538   5.013  1.2558  0.0078  1.7193
   57MOL0     H 7661   1.264   3.528   4.861  0.8229 -1.2797 -5.5533
   57MOL0     H 7662   1.311   3.691   4.930  2.4432  0.9684 -0.6580
   57MOL0     H 7663   1.209   3.803   4.742 -1.2205 -0.1757 -0.2974
   57MOL0     H 7664   1.156   3.643   4.669 -2.5843 -1.8071  0.9007
   57MOL0     H 7665   1.056   3.775   4.926 -2.6758  1.3024 -0.7789
   57MOL0     H 7666   1.012   3.622   4.873  1.4021  0.2783  0.9840
   57MOL0     H 7667   0.976   3.868   4.685  0.2684 -0.6642 -2.0170
   57MOL0     H 7668   0.899   3.713   4.674  0.5888 -1.3951  1.2041
   57MOL0     H 7669   0.853   3.899   4.902 -1.5322 -2.5534  1.8933
   57MOL0     H 7670   0.756   3.752   4.863  0.2590 -1.1724 -0.7450
   57MOL0     H 7671   0.792   3.995   4.671 -0.4227  1.2562 -0.4913
   57MOL0     H 7672   0.672   3.871   4.656  2.3005  0.7215 -1.5368
   57MOL0     H 7673   0.578   4.090   4.722  0.0663 -0.8622 -0.3539
   57MOL0     H 7674   0.684   4.117   4.853 -1.1629  0.8194 -0.3909
   57MOL0     H 7675   0.475   4.046   4.941  0.7988  0.9209 -0.9883
   57MOL0     H 7676   0.575   3.901   4.962  2.3459  0.0987 -1.3306
   57MOL0     H 7677   1.641   3.692   4.666 -0.0316 -1.0616 -1.7344
   57MOL0     H 7678   1.852   3.676   4.788 -0.0872 -0.4806 -0.6547
   57MOL0     H 7679   2.050   3.374   5.308 -2.0121  2.4082  6.6876
   57MOL0     H 7680   2.217   3.431   5.464  0.4531  1.4257  0.1950
   57MOL0     H 7681   3.895   3.154   4.550 -0.4763  1.6205 -1.1599
   57MOL0     H 7682   4.075   3.221   4.403  1.0629 -1.2407  1.5814
   57MOL0     H 7683   4.544   3.116   4.147  1.5600  2.2620 -0.1180
   57MOL0     H 7684   4.664   3.165   3.971  1.0438  0.6549 -2.3456
   57MOL0     H 7685   4.511   3.317   3.565 -0.8961 -0.5299 -1.2195
   57MOL0     H 7686   4.464   3.435   3.686  0.1884 -0.1801 -2.7929
   57MOL0     H 7687   4.700   3.509   3.713  3.2411 -0.3036 -0.6965
   57MOL0     H 7688   4.633   3.537   3.556 -2.8199 -0.0010  1.6440
   57MOL0     H 7689   4.774   3.365   3.454  1.6823 -2.5804 -0.4374
   57MOL0     H 7690   4.785   3.279   3.606 -0.5399  0.9805  2.2430
   57MOL0     H 7691   4.992   3.372   3.580 -0.1899  0.6919  0.6198
   57MOL0     H 7692   4.916   3.454   3.709  1.8803  0.1109  0.7537
   57MOL0     H 7693   5.010   3.752   3.416 -0.9531  3.0173  2.4168
   57MOL0     H 7694   4.329   3.278   3.744  2.0029  2.8737  0.0122
   57MOL0     H 7695   4.176   3.221   3.951 -0.3431 -1.2932  3.8214
   58MOL0     O 7696   0.047  11.095   5.808  0.6693  0.0331  0.7154
   58MOL0     C 7697   0.038  10.976   5.789  0.1821  0.3348  0.0263
   58MOL0     O 7698  -0.072  10.896   5.815  0.3832 -0.8228 -0.0962
   58MOL0     C 7699  -0.194  10.959   5.830 -0.1009  0.0520 -0.1515
   58MOL0     C 7700  -0.303  10.865   5.847  0.3097 -0.9056 -0.6370
   58MOL0     C 7701  -0.431  10.908   5.885 -0.3702  0.3897 -0.5032
   58MOL0     C 7702  -0.465  11.045   5.890  0.1816 -0.9982  0.3764
   58MOL0     O 7703  -0.604  11.076   5.878 -0.5360  0.4605 -0.3361
   58MOL0     C 7704  -0.627  11.206   5.811 -0.1168  0.8885  0.2639
   58MOL0     C 7705  -0.765  11.241   5.780  0.5565  0.3772 -0.8070
   58MOL0     C 7706  -0.753  11.368   5.683 -0.5685 -0.0488  0.3740
   58MOL0     C 7707  -0.885  11.426   5.666  0.2768  0.1464  0.0717
   58MOL0     C 7708  -0.888  11.556   5.589  1.1728  0.3325  0.4487
   58MOL0     C 7709  -0.836  11.560   5.447 -0.2101  0.7298 -0.0726
   58MOL0     C 7710  -0.927  11.482   5.355 -0.0189 -0.1292  0.1999
   58MOL0     C 7711  -0.897  11.504   5.207  0.8971 -0.4829  0.4505
   58MOL0     N 7712  -0.764  11.466   5.168  0.0570 -0.3239  0.0003
   58MOL0     C 7713  -0.672  11.550   5.109  0.0369  0.4066 -0.0151
   58MOL0     C 7714  -0.570  11.476   5.065 -0.1791 -0.9026 -0.9140
   58MOL0     C 7715  -0.443  11.530   5.014 -0.6882 -0.5406 -1.3786
   58MOL0     C 7716  -0.326  11.452   5.068 -0.4255  0.7506  0.3231
   58MOL0     C 7717  -0.196  11.535   5.051  0.7938 -0.1666 -0.4136
   58MOL0     C 7718  -0.072  11.457   5.088  0.4756  0.4726  0.3023
   58MOL0     O 7719   0.046  11.526   5.065  0.6462 -0.2750  0.5418
   58MOL0     C 7720   0.170  11.479   5.102  0.2255  0.1009 -0.1113
   58MOL0     C 7721   0.186  11.348   5.167 -0.6436 -0.3534  0.2911
   58MOL0     C 7722   0.318  11.308   5.202 -0.4061  0.1121  0.1565
   58MOL0     C 7723   0.337  11.180   5.281 -0.0856  0.1795  0.1866
   58MOL0     C 7724   0.436  11.380   5.161 -0.0996 -0.0232  0.0866
   58MOL0     C 7725   0.587  11.348   5.168 -0.4464 -0.3608 -0.7395
   58MOL0     O 7726   0.681  11.440   5.133  0.1824  0.1072 -0.0906
   58MOL0     C 7727   0.811  11.414   5.157 -1.2030  1.0934  0.5264
   58MOL0     C 7728   0.888  11.465   5.271 -0.5745 -0.2643 -0.1117
   58MOL0     C 7729   1.008  11.424   5.310 -0.5745 -0.5478 -0.1606
   58MOL0     C 7730   1.064  11.331   5.223  0.0876  0.0309  0.2091
   58MOL0     O 7731   1.185  11.283   5.279  0.0060 -0.1913  0.0888
   58MOL0     C 7732   1.246  11.174   5.220 -0.8675 -0.1732  0.0512
   58MOL0     C 7733   1.396  11.195   5.229  0.0929  0.6303 -0.8039
   58MOL0     C 7734   1.458  11.297   5.147 -0.4596  0.2940 -0.5971
   58MOL0     C 7735   1.431  11.290   4.995  0.0518 -0.3494  0.3956
   58MOL0     C 7736   1.476  11.420   4.932  0.2542  0.8942  0.2832
   58MOL0     C 7737   1.437  11.415   4.778 -0.0443  0.0208  0.4981
   58MOL0     C 7738   1.506  11.517   4.699  0.3203  0.0549 -0.7252
   58MOL0     C 7739   1.446  11.521   4.554  0.2913 -0.4153 -0.0189
   58MOL0    Cl 7740   1.573  11.565   4.446  0.2689 -0.0852  0.6109
   58MOL0     C 7741   0.997  11.278   5.106 -0.1404 -0.1864 -0.4158
   58MOL0     C 7742   0.880  11.326   5.067 -0.7503 -0.3765 -0.1590
   58MOL0     O 7743   0.610  11.232   5.199 -0.0502 -0.3925 -0.2561
   58MOL0     C 7744   0.408  11.506   5.108  0.4021  0.0845  0.2095
   58MOL0     C 7745   0.281  11.554   5.073 -0.4155 -0.5616 -0.2687
   58MOL0     N 7746  -0.593  11.342   5.096  1.0461  0.9725 -0.8625
   58MOL0     N 7747  -0.717  11.337   5.158 -0.9524 -0.2287  0.2377
   58MOL0     C 7748  -0.363  11.142   5.882 -0.7053  0.1872 -0.1310
   58MOL0     C 7749  -0.233  11.097   5.835 -0.6166  0.5562 -0.2923
   58MOL0     C 7750   0.163  10.907   5.770  0.5168  1.4545  0.5841
   58MOL0     C 7751   0.276  10.984   5.754  0.3330  0.1663  0.2497
   58MOL0     C 7752   0.400  10.921   5.744 -0.1524  0.2159 -0.0324
   58MOL0     C 7753   0.415  10.784   5.762  0.0671  0.1235 -0.5418
   58MOL0     O 7754   0.541  10.742   5.778  0.1163 -0.4092  0.0456
   58MOL0     C 7755   0.561  10.604   5.807  0.0606  0.5370 -0.6155
   58MOL0     C 7756   0.705  10.586   5.869  0.3415  1.1060 -0.6315
   58MOL0     C 7757   0.815  10.551   5.768  0.7283 -0.2638 -0.5524
   58MOL0     C 7758   0.949  10.557   5.833 -0.4705 -0.0841 -0.1977
   58MOL0     C 7759   1.052  10.478   5.761 -0.5110  0.3349  0.0031
   58MOL0     C 7760   1.145  10.419   5.711 -0.5316 -0.3171 -0.0360
   58MOL0     C 7761   0.298  10.705   5.762  0.6126 -0.6789 -0.0210
   58MOL0     C 7762   0.170  10.766   5.765 -0.6234 -0.0079  0.0413
   58MOL0     H 7763  -0.284  10.761   5.822  1.8086 -0.1548 -2.8482
   58MOL0     H 7764  -0.519  10.845   5.887 -1.8022  2.2605 -0.9683
   58MOL0     H 7765  -0.607  11.289   5.878  0.1379  2.4935 -1.6888
   58MOL0     H 7766  -0.566  11.203   5.720  0.2919  5.6694  0.1357
   58MOL0     H 7767  -0.822  11.164   5.727 -0.8882  1.0014 -0.2407
   58MOL0     H 7768  -0.816  11.268   5.873  1.8198 -1.1602  0.3699
   58MOL0     H 7769  -0.686  11.446   5.722  1.7409 -1.4185 -0.6602
   58MOL0     H 7770  -0.711  11.340   5.586 -1.8684  1.5474 -0.7139
   58MOL0     H 7771  -0.950  11.349   5.625  1.3574  0.8367 -3.2347
   58MOL0     H 7772  -0.913  11.459   5.767  3.7871  2.6309  0.4428
   58MOL0     H 7773  -0.989  11.599   5.588  0.4424 -1.2703  1.3351
   58MOL0     H 7774  -0.828  11.622   5.653 -1.2960  3.7254 -0.4596
   58MOL0     H 7775  -0.832  11.667   5.425  3.1628  1.3707  2.7189
   58MOL0     H 7776  -0.738  11.513   5.436 -0.8159 -0.3891 -0.8238
   58MOL0     H 7777  -0.916  11.374   5.372  0.3956 -0.2747 -0.8851
   58MOL0     H 7778  -1.035  11.493   5.368  0.3294 -0.0363  3.9299
   58MOL0     H 7779  -0.909  11.607   5.172 -0.0803 -0.6015  0.4291
   58MOL0     H 7780  -0.973  11.449   5.152  0.8693  1.6988 -1.9161
   58MOL0     H 7781  -0.685  11.656   5.091 -0.6979  0.0947 -1.5379
   58MOL0     H 7782  -0.440  11.544   4.905 -0.9822  2.1166 -1.0978
   58MOL0     H 7783  -0.444  11.636   5.042  0.3913 -0.5930 -1.1011
   58MOL0     H 7784  -0.311  11.353   5.023 -1.4142  0.1789  1.1902
   58MOL0     H 7785  -0.338  11.425   5.174  0.1685  1.4298  0.5655
   58MOL0     H 7786  -0.207  11.624   5.114 -0.5266 -1.0944  0.7279
   58MOL0     H 7787  -0.193  11.548   4.943  0.5433 -3.7251 -0.9797
   58MOL0     H 7788  -0.069  11.369   5.023 -1.6207  0.9500 -0.4996
   58MOL0     H 7789  -0.082  11.415   5.189  0.3652 -2.3422 -0.7733
   58MOL0     H 7790   0.096  11.292   5.189 -0.9911  1.0753  2.8711
   58MOL0     H 7791   0.348  11.094   5.214 -1.9978  1.3964 -1.8220
   58MOL0     H 7792   0.411  11.185   5.361 -0.0610  2.1939  0.0753
   58MOL0     H 7793   0.237  11.158   5.321 -0.7730 -0.1549 -1.6177
   58MOL0     H 7794   0.844  11.532   5.345 -0.8047 -0.7759  0.2277
   58MOL0     H 7795   1.050  11.456   5.405  0.5878 -1.4764 -0.3289
   58MOL0     H 7796   1.200  11.089   5.270 -2.0807  1.6409  2.2006
   58MOL0     H 7797   1.233  11.159   5.112 -0.3704  0.3416 -0.0836
   58MOL0     H 7798   1.421  11.222   5.332  2.7670 -0.0603 -1.1950
   58MOL0     H 7799   1.455  11.104   5.215  0.8736  1.0232 -0.1394
   58MOL0     H 7800   1.564  11.287   5.174 -0.6908 -0.4540  0.0969
   58MOL0     H 7801   1.419  11.395   5.173 -1.1595 -0.1267 -0.0310
   58MOL0     H 7802   1.475  11.198   4.956 -2.0623 -2.1128  1.8966
   58MOL0     H 7803   1.325  11.279   4.969  0.2303  1.1272 -1.0817
   58MOL0     H 7804   1.583  11.444   4.934 -0.1979  3.2968 -0.8626
   58MOL0     H 7805   1.416  11.500   4.976 -1.9451 -0.6627  0.2401
   58MOL0     H 7806   1.486  11.324   4.743  3.5401  1.5900  0.9761
   58MOL0     H 7807   1.329  11.420   4.759  0.4132 -2.1650 -3.9390
   58MOL0     H 7808   1.615  11.501   4.695  0.4912  0.4830  1.1821
   58MOL0     H 7809   1.473  11.611   4.743 -1.8061 -1.3050  0.7267
   58MOL0     H 7810   1.353  11.580   4.547 -0.3515 -1.5282 -1.2124
   58MOL0     H 7811   1.425  11.416   4.534  0.7097 -0.7558  1.2128
   58MOL0     H 7812   1.050  11.202   5.049  1.9641  0.5975  0.3861
   58MOL0     H 7813   0.839  11.296   4.971 -2.5537  0.0698  0.4275
   58MOL0     H 7814   0.483  11.581   5.083 -0.7950  1.0300 -0.6691
   58MOL0     H 7815   0.253  11.644   5.019 -1.5149 -1.2501 -0.9109
   58MOL0     H 7816  -0.387  11.248   5.884 -1.8202 -0.0694  0.9005
   58MOL0     H 7817  -0.163  11.174   5.805 -0.0987  0.7483  1.3129
   58MOL0     H 7818   0.280  11.090   5.735 -2.2821  0.4063  0.6786
   58MOL0     H 7819   0.489  10.981   5.731  0.5226  0.8898  5.3825
   58MOL0     H 7820   0.499  10.575   5.892  0.1392 -2.1431 -1.3864
   58MOL0     H 7821   0.541  10.531   5.727 -2.4315 -0.6577  0.9835
   58MOL0     H 7822   0.689  10.496   5.930 -2.2095  1.1079 -1.1614
   58MOL0     H 7823   0.739  10.675   5.922 -2.4213 -0.0404  3.6410
   58MOL0     H 7824   0.800  10.623   5.688 -4.9253  0.0895  0.3584
   58MOL0     H 7825   0.785  10.455   5.724  1.9748 -1.0966  0.3501
   58MOL0     H 7826   0.939  10.517   5.934  0.1450 -0.7471 -0.3960
   58MOL0     H 7827   0.991  10.657   5.846  1.3589 -1.0463  1.9211
   58MOL0     H 7828   1.239  10.382   5.673 -0.0752 -1.3388  1.9123
   58MOL0     H 7829   0.304  10.596   5.765  2.4088 -0.6410 -0.9377
   58MOL0     H 7830   0.080  10.706   5.757 -1.5169  0.9500  2.1567
   59MOL0     O 7831   9.492   4.683  10.545 -0.5279  0.1054  0.1120
   59MOL0     C 7832   9.588   4.689  10.617 -0.2499 -0.1839 -0.5837
   59MOL0     O 7833   9.597   4.626  10.734 -0.3137  0.3989  0.3609
   59MOL0     C 7834   9.513   4.516  10.763 -0.4435 -0.2132 -0.3815
   59MOL0     C 7835   9.378   4.525  10.775 -0.3687 -0.4089 -0.6736
   59MOL0     C 7836   9.309   4.414  10.815 -0.1681 -0.3336 -0.5411
   59MOL0     C 7837   9.365   4.289  10.840 -0.1566 -0.6040 -0.3629
   59MOL0     O 7838   9.268   4.193  10.867  0.0963 -0.4379  0.1865
   59MOL0     C 7839   9.329   4.065  10.897  0.6993 -0.0829  0.2088
   59MOL0     C 7840   9.216   3.982  10.954 -0.3161  0.2517  0.9011
   59MOL0     C 7841   9.165   4.006  11.092 -0.6474  0.5124 -0.0441
   59MOL0     C 7842   9.056   3.905  11.122  0.0107  0.1981  0.7494
   59MOL0     C 7843   9.001   3.942  11.263  0.5901  0.9941  0.3143
   59MOL0     C 7844   8.890   3.852  11.312  0.4523  0.5634 -0.1182
   59MOL0     C 7845   8.805   3.920  11.418  0.4259  0.0987 -0.3173
   59MOL0     C 7846   8.712   3.817  11.484  0.2365 -0.1649  0.6529
   59MOL0     N 7847   8.593   3.880  11.544 -0.5265  0.0764 -0.9270
   59MOL0     C 7848   8.470   3.850  11.514  0.3419 -0.5681  0.9010
   59MOL0     C 7849   8.393   3.950  11.565  1.0454  0.2326 -1.2915
   59MOL0     C 7850   8.237   3.954  11.550  0.1575 -0.2338  0.2070
   59MOL0     C 7851   8.163   3.885  11.665 -0.8527 -0.7476  0.0283
   59MOL0     C 7852   8.014   3.865  11.627 -0.2272  0.2417  0.5715
   59MOL0     C 7853   7.920   3.979  11.635 -0.5147 -0.0024  0.0491
   59MOL0     O 7854   7.795   3.963  11.556 -0.4767  0.0682 -0.1611
   59MOL0     C 7855   7.699   4.060  11.550 -0.1383 -0.6180 -0.2522
   59MOL0     C 7856   7.706   4.186  11.609 -0.9332  0.6049  0.5699
   59MOL0     C 7857   7.612   4.286  11.591 -0.6703 -1.3162 -0.1852
   59MOL0     C 7858   7.638   4.424  11.656 -0.3052 -0.4315  0.3893
   59MOL0     C 7859   7.499   4.259  11.515 -0.9083  0.1241 -0.9065
   59MOL0     C 7860   7.396   4.361  11.482  0.1618  0.4235  0.7404
   59MOL0     O 7861   7.294   4.304  11.408 -0.3868 -0.0918  0.2443
   59MOL0     C 7862   7.174   4.369  11.411 -0.2539  0.3068 -0.7806
   59MOL0     C 7863   7.118   4.449  11.516 -0.6267  0.5028 -0.7421
   59MOL0     C 7864   6.989   4.507  11.517  0.2793  1.0781  0.8126
   59MOL0     C 7865   6.906   4.480  11.411  0.2888  0.4145  0.7111
   59MOL0     O 7866   6.787   4.543  11.398  0.1899 -0.0987  1.0612
   59MOL0     C 7867   6.688   4.443  11.355 -0.3881  0.2506 -0.5083
   59MOL0     C 7868   6.556   4.514  11.337 -0.0256  1.0849 -0.4020
   59MOL0     C 7869   6.470   4.541  11.455  0.9223  0.0449 -0.4107
   59MOL0     C 7870   6.386   4.668  11.433  0.1526 -0.5454  0.1177
   59MOL0     C 7871   6.468   4.796  11.440 -0.6618 -0.0221  0.0986
   59MOL0     C 7872   6.441   4.885  11.322  0.1976 -0.1651  1.0351
   59MOL0     C 7873   6.522   5.018  11.322  0.1414 -0.3129  0.3427
   59MOL0     C 7874   6.481   5.111  11.435 -0.0381 -0.3532 -0.3277
   59MOL0    Cl 7875   6.602   5.249  11.451 -0.2017 -0.1341  0.2375
   59MOL0     C 7876   6.957   4.406  11.298 -0.0593  0.1540 -0.5677
   59MOL0     C 7877   7.088   4.357  11.301 -0.7189  0.5821  0.2343
   59MOL0     O 7878   7.409   4.481  11.506  0.0389 -0.1578  0.5632
   59MOL0     C 7879   7.484   4.138  11.464  0.0112  0.5206 -0.3217
   59MOL0     C 7880   7.582   4.031  11.480 -0.4356  0.0132  0.0963
   59MOL0     N 7881   8.473   4.049  11.625  0.0230  0.0472  0.1086
   59MOL0     N 7882   8.590   3.999  11.625 -0.8863  0.0746  0.1994
   59MOL0     C 7883   9.498   4.279  10.813  0.9761  0.6871 -0.1579
   59MOL0     C 7884   9.577   4.390  10.778  0.6608  0.2838  0.3836
   59MOL0     C 7885   9.703   4.768  10.575 -0.4375 -0.1513  0.9992
   59MOL0     C 7886   9.691   4.833  10.458 -0.5085  0.2287  0.4186
   59MOL0     C 7887   9.795   4.904  10.401  0.4649 -0.2408  0.5399
   59MOL0     C 7888   9.925   4.914  10.466  0.9312  0.0096 -0.1071
   59MOL0     O 7889  10.019   4.996  10.415 -0.3327 -0.3472 -0.0876
   59MOL0     C 7890  10.152   4.980  10.466  0.3783 -0.2309 -0.0997
   59MOL0     C 7891  10.162   5.062  10.589 -0.2214 -0.2924 -1.2506
   59MOL0     C 7892  10.306   5.099  10.623  0.2406  0.1968  0.7171
   59MOL0     C 7893  10.409   4.993  10.574  0.0641 -0.1803  0.4551
   59MOL0     C 7894  10.396   4.876  10.653  0.8910  0.4326 -0.2137
   59MOL0     C 7895  10.373   4.787  10.733  0.3042 -0.5148 -0.3544
   59MOL0     C 7896   9.924   4.847  10.593  0.1092 -0.3598  0.6433
   59MOL0     C 7897   9.822   4.769  10.649  0.0341  0.0847  0.6116
   59MOL0     H 7898   9.323   4.617  10.759 -2.2137 -0.7191  2.9727
   59MOL0     H 7899   9.201   4.408  10.822 -0.1057 -1.7566 -0.4890
   59MOL0     H 7900   9.360   4.022  10.802  1.7048 -0.3652  0.6513
   59MOL0     H 7901   9.403   4.068  10.977  0.1161  0.8098  0.7326
   59MOL0     H 7902   9.134   3.987  10.882 -0.6908  2.9102  1.3934
   59MOL0     H 7903   9.249   3.878  10.942  0.2739  0.3886  1.2990
   59MOL0     H 7904   9.243   3.989  11.166  0.7345  1.6051 -1.2033
   59MOL0     H 7905   9.127   4.108  11.105  2.3548  1.3517  4.1313
   59MOL0     H 7906   8.969   3.901  11.056 -0.0672 -2.5776  0.8724
   59MOL0     H 7907   9.092   3.801  11.126  1.7161  0.7215 -0.1881
   59MOL0     H 7908   9.082   3.927  11.335 -0.6742 -0.6815  1.4847
   59MOL0     H 7909   8.980   4.050  11.269 -1.2432  0.7882 -1.3738
   59MOL0     H 7910   8.820   3.826  11.233 -0.5852 -2.1135  1.5681
   59MOL0     H 7911   8.939   3.757  11.331  1.4065  1.5535  2.9086
   59MOL0     H 7912   8.866   3.968  11.496 -3.2429  3.1339  1.0258
   59MOL0     H 7913   8.746   3.998  11.368  0.2026  0.2771  0.2082
   59MOL0     H 7914   8.778   3.761  11.552 -1.6904 -1.7960  1.2807
   59MOL0     H 7915   8.676   3.742  11.413 -1.7440  1.3949 -0.0867
   59MOL0     H 7916   8.447   3.760  11.458  1.8593 -0.3313 -0.1415
   59MOL0     H 7917   8.209   4.059  11.561 -0.3987 -0.4649  1.1454
   59MOL0     H 7918   8.218   3.916  11.449 -0.8674  2.3939 -0.6621
   59MOL0     H 7919   8.165   3.940  11.760 -3.0520  0.4783 -0.5638
   59MOL0     H 7920   8.204   3.785  11.678 -0.4445 -0.3932  1.6321
   59MOL0     H 7921   7.976   3.771  11.667 -0.5508 -0.3033 -0.9543
   59MOL0     H 7922   8.017   3.847  11.519  3.8128 -0.6399  0.7008
   59MOL0     H 7923   7.980   4.065  11.603  0.2128  1.2631  4.2217
   59MOL0     H 7924   7.884   4.012  11.733 -3.4526  3.9201 -2.0438
   59MOL0     H 7925   7.794   4.219  11.664 -2.6160  1.9532  2.6089
   59MOL0     H 7926   7.642   4.501  11.579  0.3559 -0.7677  0.0799
   59MOL0     H 7927   7.552   4.446  11.720 -1.9200  0.7611 -2.0456
   59MOL0     H 7928   7.728   4.425  11.718  0.1795 -2.8965 -0.1659
   59MOL0     H 7929   7.173   4.455  11.610  1.5641 -1.8039 -1.7898
   59MOL0     H 7930   6.943   4.556  11.603 -0.3593 -0.4981  1.4023
   59MOL0     H 7931   6.714   4.400  11.258  0.4215 -2.8070  0.9629
   59MOL0     H 7932   6.673   4.358  11.421 -1.5518  1.0027  0.2290
   59MOL0     H 7933   6.562   4.596  11.265  0.7374  1.9467  0.6122
   59MOL0     H 7934   6.489   4.438  11.296 -1.4998  1.5113  1.0877
   59MOL0     H 7935   6.520   4.550  11.552 -0.8710 -2.2844  0.8261
   59MOL0     H 7936   6.408   4.455  11.482  0.2791 -0.2979 -2.7948
   59MOL0     H 7937   6.338   4.658  11.335 -1.4019  1.4259  0.6096
   59MOL0     H 7938   6.310   4.681  11.509  1.3916 -0.1820  1.3375
   59MOL0     H 7939   6.576   4.778  11.442 -0.3014  1.3535 -2.4519
   59MOL0     H 7940   6.441   4.849  11.532  0.5083  0.9087 -0.0628
   59MOL0     H 7941   6.481   4.845  11.228  0.3052  3.0634 -0.4070
   59MOL0     H 7942   6.338   4.920  11.317  0.3657  0.8345  3.3648
   59MOL0     H 7943   6.503   5.070  11.228  0.5227 -3.2618 -1.5059
   59MOL0     H 7944   6.630   5.003  11.332  0.0896  0.0760  1.6713
   59MOL0     H 7945   6.486   5.056  11.529  3.5335  1.5087  0.7711
   59MOL0     H 7946   6.378   5.147  11.441  0.2109  0.3703 -0.3351
   59MOL0     H 7947   6.911   4.396  11.200  0.4988 -2.7021 -0.6321
   59MOL0     H 7948   7.134   4.303  11.219  1.6189  0.8050  1.3010
   59MOL0     H 7949   7.390   4.112  11.416 -0.1918 -0.1798  0.4237
   59MOL0     H 7950   7.564   3.934  11.436 -0.4088  0.6201 -1.3232
   59MOL0     H 7951   9.540   4.179  10.823 -1.8121 -0.4281  1.6319
   59MOL0     H 7952   9.684   4.379  10.770  1.2657  2.1225  3.8212
   59MOL0     H 7953   9.591   4.853  10.420 -0.0596  1.4010 -0.2128
   59MOL0     H 7954   9.778   4.952  10.305  1.1062  1.5313  1.2672
   59MOL0     H 7955  10.177   4.877  10.491 -0.3557 -0.5386 -0.6024
   59MOL0     H 7956  10.223   5.021  10.393  0.7789  1.3894  1.1421
   59MOL0     H 7957  10.127   5.011  10.680  1.2130  0.7820 -0.0371
   59MOL0     H 7958  10.091   5.145  10.588 -2.3643 -2.0173 -0.9865
   59MOL0     H 7959  10.323   5.126  10.728  0.8643  2.1025  0.1683
   59MOL0     H 7960  10.322   5.193  10.569  2.3374 -1.5926 -2.1095
   59MOL0     H 7961  10.512   5.022  10.595  0.0147 -1.3701  2.6930
   59MOL0     H 7962  10.410   4.979  10.466  1.2550  0.7309  0.3355
   59MOL0     H 7963  10.341   4.706  10.795  1.2973 -0.7775 -0.1716
   59MOL0     H 7964  10.015   4.831  10.650  1.2397 -1.9244 -1.4240
   59MOL0     H 7965   9.822   4.720  10.745 -2.7723 -3.3967 -0.9524
   60MOL0     O 7966   8.659   6.977   2.565  0.0417  0.2273 -0.4740
   60MOL0     C 7967   8.712   6.988   2.670 -1.3397 -0.0622 -1.1362
   60MOL0     O 7968   8.661   6.961   2.799  0.0264  0.6312  0.1877
   60MOL0     C 7969   8.536   6.912   2.803 -0.3292  0.4472  0.5169
   60MOL0     C 7970   8.502   6.783   2.747 -0.0156 -0.5151  0.5254
   60MOL0     C 7971   8.374   6.738   2.754  0.1793 -0.3394 -0.0482
   60MOL0     C 7972   8.275   6.805   2.823 -0.1809  0.0328 -0.8985
   60MOL0     O 7973   8.145   6.746   2.823  0.2172  0.5992  0.8954
   60MOL0     C 7974   8.024   6.815   2.853 -0.1311 -0.4946 -0.5740
   60MOL0     C 7975   7.903   6.719   2.833  0.4539 -0.4565  0.6082
   60MOL0     C 7976   7.776   6.758   2.910 -0.6010 -0.0162 -0.8027
   60MOL0     C 7977   7.744   6.910   2.910 -0.2625 -0.7818  0.1661
   60MOL0     C 7978   7.597   6.924   2.955  0.0439  0.5497 -0.1322
   60MOL0     C 7979   7.544   7.078   2.972 -0.4885  0.6260  0.9984
   60MOL0     C 7980   7.394   7.082   2.962 -0.2188  0.5098  0.3061
   60MOL0     C 7981   7.360   7.086   2.805  0.0392  0.3411  0.5584
   60MOL0     N 7982   7.208   7.096   2.790  0.8373  0.1018 -0.1697
   60MOL0     C 7983   7.108   7.027   2.852  0.0416 -0.0000  0.0367
   60MOL0     C 7984   6.993   7.074   2.798  0.6996 -0.5731  0.8097
   60MOL0     C 7985   6.850   7.043   2.850  0.8508  0.5023  0.4369
   60MOL0     C 7986   6.803   7.142   2.958  0.6318 -1.0766  0.6211
   60MOL0     C 7987   6.777   7.085   3.103 -0.3033 -0.0513  0.5808
   60MOL0     C 7988   6.904   7.020   3.160 -0.0575 -0.0550  0.1647
   60MOL0     O 7989   7.018   7.106   3.156 -0.2395  0.6764 -0.0819
   60MOL0     C 7990   7.103   7.121   3.261  0.4167 -0.8475  0.5532
   60MOL0     C 7991   7.136   7.021   3.349  1.7597 -0.2500  0.4236
   60MOL0     C 7992   7.214   7.042   3.459 -0.4790 -0.7827  1.7084
   60MOL0     C 7993   7.256   6.927   3.536 -0.3900  0.2044 -0.0290
   60MOL0     C 7994   7.253   7.175   3.498 -1.2172  0.2138 -0.4060
   60MOL0     C 7995   7.338   7.202   3.620 -0.3188  0.4513 -0.4020
   60MOL0     O 7996   7.394   7.322   3.623  0.0268 -0.5333 -0.7727
   60MOL0     C 7997   7.443   7.376   3.739 -0.5922  0.2345  0.7747
   60MOL0     C 7998   7.548   7.467   3.716 -0.6977  0.2575  0.1069
   60MOL0     C 7999   7.619   7.531   3.816  0.1108  0.0283 -0.0505
   60MOL0     C 8000   7.588   7.504   3.948  0.5463 -0.2825 -0.2048
   60MOL0     O 8001   7.669   7.566   4.047  0.5513  0.6479  0.5034
   60MOL0     C 8002   7.767   7.670   4.016  0.1363 -0.6482 -0.3120
   60MOL0     C 8003   7.850   7.706   4.142 -1.1412  0.1074  0.1155
   60MOL0     C 8004   7.965   7.788   4.101 -0.2564  0.2813 -0.0962
   60MOL0     C 8005   8.018   7.870   4.219 -0.1655 -0.6276  0.4368
   60MOL0     C 8006   8.141   7.954   4.181 -0.1970  0.0465  0.5938
   60MOL0     C 8007   8.183   8.052   4.291  0.8910 -0.6166 -0.2772
   60MOL0     C 8008   8.079   8.161   4.316  0.2195 -0.5248  0.5418
   60MOL0     C 8009   8.136   8.305   4.312 -0.6847 -0.4168 -0.0890
   60MOL0    Cl 8010   8.010   8.421   4.274 -0.3086 -0.3128  0.0804
   60MOL0     C 8011   7.486   7.409   3.980 -0.4472 -0.1356  0.0168
   60MOL0     C 8012   7.419   7.341   3.874  0.1505 -0.5811 -0.3462
   60MOL0     O 8013   7.328   7.133   3.718 -0.3191  0.5046 -0.2199
   60MOL0     C 8014   7.226   7.273   3.412  0.0948  0.3443  0.1514
   60MOL0     C 8015   7.149   7.254   3.289  0.1449  1.0769 -0.2450
   60MOL0     N 8016   7.023   7.178   2.717 -0.1525  0.0469  0.1509
   60MOL0     N 8017   7.151   7.185   2.703  0.0720 -0.1107  0.3769
   60MOL0     C 8018   8.307   6.931   2.876 -0.4323  0.5420  0.0107
   60MOL0     C 8019   8.436   6.983   2.863  0.6169  0.0919 -0.0236
   60MOL0     C 8020   8.847   7.042   2.661 -0.3724  0.2373  0.0554
   60MOL0     C 8021   8.920   7.063   2.541  0.8117 -0.4640 -0.4258
   60MOL0     C 8022   9.048   7.116   2.544 -0.1499  0.8778 -0.1129
   60MOL0     C 8023   9.118   7.123   2.669 -0.1815 -0.3188 -0.3059
   60MOL0     O 8024   9.252   7.156   2.681  0.2670 -0.4175 -0.5167
   60MOL0     C 8025   9.341   7.126   2.567  1.1333 -0.5783  0.3447
   60MOL0     C 8026   9.484   7.174   2.605  0.4319  0.4613  0.0878
   60MOL0     C 8027   9.554   7.087   2.709  0.1821 -0.0693 -0.1034
   60MOL0     C 8028   9.685   7.140   2.772  1.3777 -0.7902 -0.0209
   60MOL0     C 8029   9.773   7.159   2.655 -0.8447  0.2011 -0.5054
   60MOL0     C 8030   9.857   7.170   2.567  0.6573  0.5508  0.5864
   60MOL0     C 8031   9.042   7.116   2.785  0.1152  0.5455  0.2996
   60MOL0     C 8032   8.911   7.073   2.785 -0.2564 -0.6880  0.5508
   60MOL0     H 8033   8.577   6.722   2.697 -0.8330 -1.7736  0.7815
   60MOL0     H 8034   8.344   6.641   2.717 -1.3563  0.0580  0.0906
   60MOL0     H 8035   8.024   6.863   2.952 -3.0906 -3.4754  1.0965
   60MOL0     H 8036   8.012   6.901   2.787 -0.1459  0.1890  0.2986
   60MOL0     H 8037   7.881   6.723   2.726 -0.9245 -1.4858  0.8163
   60MOL0     H 8038   7.924   6.615   2.861 -0.3715 -1.1910 -1.3497
   60MOL0     H 8039   7.704   6.696   2.857  0.6513 -0.8831 -1.5427
   60MOL0     H 8040   7.787   6.722   3.013 -0.5459 -2.1400 -1.5000
   60MOL0     H 8041   7.824   6.955   2.969 -1.0582  0.2032  0.5201
   60MOL0     H 8042   7.752   6.945   2.806  0.1241 -0.5860  0.2619
   60MOL0     H 8043   7.525   6.868   2.894 -1.7399  3.6232 -1.0989
   60MOL0     H 8044   7.602   6.878   3.054 -0.4352 -0.8596 -0.7377
   60MOL0     H 8045   7.567   7.104   3.076  0.3707 -0.4369  1.0862
   60MOL0     H 8046   7.595   7.147   2.904 -3.5050  2.2051  0.1399
   60MOL0     H 8047   7.356   6.990   3.007  1.4972 -0.6870 -0.5628
   60MOL0     H 8048   7.352   7.169   3.013  1.1393  3.2829 -2.8988
   60MOL0     H 8049   7.403   6.999   2.754  2.9153  0.6697  2.2152
   60MOL0     H 8050   7.405   7.172   2.755 -0.6449  1.5556  1.9294
   60MOL0     H 8051   7.117   6.948   2.926 -0.0921 -0.4538 -0.4353
   60MOL0     H 8052   6.789   7.042   2.759  3.2221 -0.4715 -1.2340
   60MOL0     H 8053   6.827   6.943   2.889 -3.9449  0.7782 -0.9960
   60MOL0     H 8054   6.717   7.204   2.933 -0.5676 -2.9123  0.0103
   60MOL0     H 8055   6.883   7.215   2.976 -1.1542  0.7747  1.4197
   60MOL0     H 8056   6.692   7.016   3.103  1.3137 -2.1647 -0.4038
   60MOL0     H 8057   6.739   7.166   3.166 -2.0345  1.0729 -1.7562
   60MOL0     H 8058   6.925   6.928   3.106  3.6069  0.5372  0.3001
   60MOL0     H 8059   6.884   6.998   3.265  1.8712  0.2290  0.6322
   60MOL0     H 8060   7.097   6.926   3.313  0.6958  0.0092  0.8431
   60MOL0     H 8061   7.214   6.945   3.635 -0.0285  2.2262 -0.1999
   60MOL0     H 8062   7.215   6.838   3.487 -1.6033  0.6110  0.2054
   60MOL0     H 8063   7.365   6.917   3.530 -0.5677 -2.5329 -0.3277
   60MOL0     H 8064   7.560   7.501   3.614  2.8528  2.3710  1.0717
   60MOL0     H 8065   7.695   7.599   3.778 -1.1218  1.7727  0.4941
   60MOL0     H 8066   7.840   7.629   3.945 -1.6759 -0.8612 -2.1598
   60MOL0     H 8067   7.715   7.761   3.985  1.6730  0.3763  0.0031
   60MOL0     H 8068   7.782   7.758   4.209 -2.5948 -0.5617 -0.7759
   60MOL0     H 8069   7.893   7.613   4.181  3.0342  2.3325  1.3867
   60MOL0     H 8070   7.939   7.859   4.022  0.4433  2.1086  1.2386
   60MOL0     H 8071   8.042   7.725   4.055  2.0136  2.6146  0.2268
   60MOL0     H 8072   7.936   7.940   4.240  0.2880 -0.6661  2.4978
   60MOL0     H 8073   8.036   7.806   4.305 -0.9523  1.9220  2.6665
   60MOL0     H 8074   8.121   8.010   4.090 -1.2280  1.7115  1.7955
   60MOL0     H 8075   8.224   7.884   4.167  0.6116  0.9141  0.9361
   60MOL0     H 8076   8.194   8.000   4.386  0.6761  1.6130  1.0381
   60MOL0     H 8077   8.280   8.096   4.266  0.5278 -0.7793 -2.0926
   60MOL0     H 8078   8.024   8.146   4.409  2.1567 -0.5104  1.7417
   60MOL0     H 8079   8.001   8.162   4.239 -0.5793  2.0562  1.2843
   60MOL0     H 8080   8.211   8.323   4.235  0.6119  0.7302  1.3603
   60MOL0     H 8081   8.184   8.329   4.408  0.4258 -1.4866 -0.3545
   60MOL0     H 8082   7.487   7.381   4.085  0.1660  2.4129  0.7407
   60MOL0     H 8083   7.346   7.266   3.902 -1.9923  2.1431  1.9597
   60MOL0     H 8084   7.245   7.379   3.430 -3.6514  1.5924 -1.9904
   60MOL0     H 8085   7.129   7.340   3.226 -2.1241  0.8843  0.1046
   60MOL0     H 8086   8.231   7.001   2.910 -0.6394 -0.1563  1.0285
   60MOL0     H 8087   8.450   7.079   2.911 -0.1063 -1.2306  3.0698
   60MOL0     H 8088   8.872   7.039   2.446 -0.4421 -1.6688  0.4728
   60MOL0     H 8089   9.101   7.095   2.451 -0.5063 -1.9427  0.2251
   60MOL0     H 8090   9.334   7.022   2.536  3.1737 -0.7094  0.1849
   60MOL0     H 8091   9.306   7.192   2.488  0.6733 -1.8062 -0.5044
   60MOL0     H 8092   9.464   7.273   2.647 -2.6370 -0.2244  0.4408
   60MOL0     H 8093   9.544   7.186   2.514 -1.0375  1.8332 -0.7570
   60MOL0     H 8094   9.582   6.995   2.657 -0.0547 -1.0262  1.4117
   60MOL0     H 8095   9.477   7.070   2.786 -2.7451  4.1040 -1.6973
   60MOL0     H 8096   9.725   7.061   2.836  0.3008  0.1969  1.9788
   60MOL0     H 8097   9.668   7.229   2.834 -1.5119 -0.0553 -1.7030
   60MOL0     H 8098   9.934   7.181   2.492  0.1330 -1.3716 -0.2897
   60MOL0     H 8099   9.089   7.135   2.881 -2.7528  2.0473  1.5443
   60MOL0     H 8100   8.856   7.056   2.877 -2.4312 -0.8861 -0.7019
   61MOL0     O 8101   2.766   8.866   0.498  0.0662  0.3675 -0.8976
   61MOL0     C 8102   2.704   8.885   0.596  0.0876 -0.0721  0.1176
   61MOL0     O 8103   2.565   8.916   0.604 -0.4179  0.5855 -0.2957
   61MOL0     C 8104   2.495   8.928   0.484  0.2325  0.7901 -0.6872
   61MOL0     C 8105   2.504   9.042   0.403 -0.0210  0.8887 -0.3253
   61MOL0     C 8106   2.418   9.063   0.301  0.5592 -0.2677  0.6275
   61MOL0     C 8107   2.317   8.966   0.257  0.2200 -0.5507  0.2320
   61MOL0     O 8108   2.227   8.971   0.151 -0.5140 -0.4601  0.5323
   61MOL0     C 8109   2.195   9.105   0.112  0.2953 -0.2164  0.9613
   61MOL0     C 8110   2.064   9.106   0.032 -0.0834 -0.1448 -0.5166
   61MOL0     C 8111   2.065   9.027  -0.103 -0.7102  0.2563 -0.9923
   61MOL0     C 8112   1.922   9.032  -0.162 -0.2300 -0.1425  0.8026
   61MOL0     C 8113   1.912   8.979  -0.306 -0.3015 -0.2018  0.1545
   61MOL0     C 8114   1.766   9.021  -0.357 -0.1509  0.1714 -0.0748
   61MOL0     C 8115   1.742   8.987  -0.504 -0.1169 -0.7531 -1.2871
   61MOL0     C 8116   1.692   8.840  -0.508  1.0358 -0.1804 -0.5590
   61MOL0     N 8117   1.560   8.814  -0.439  0.0581 -0.2667  0.0001
   61MOL0     C 8118   1.440   8.846  -0.492 -0.6648  0.2121  0.0330
   61MOL0     C 8119   1.354   8.798  -0.399 -1.0252  0.1220 -0.5691
   61MOL0     C 8120   1.205   8.794  -0.420 -0.4911 -0.0907  0.8718
   61MOL0     C 8121   1.132   8.928  -0.401  0.3465  0.7932  0.2447
   61MOL0     C 8122   0.984   8.927  -0.439 -0.4907  0.2964  0.3954
   61MOL0     C 8123   0.917   9.059  -0.433  0.1336 -1.2745 -0.2088
   61MOL0     O 8124   0.798   9.027  -0.510  0.0957 -0.3746 -0.7801
   61MOL0     C 8125   0.704   9.120  -0.542 -0.8714 -1.1444 -0.2505
   61MOL0     C 8126   0.729   9.254  -0.546 -0.7028 -0.4190  0.0784
   61MOL0     C 8127   0.636   9.349  -0.591  0.1840  0.1844 -0.6520
   61MOL0     C 8128   0.675   9.494  -0.580 -0.5840  0.8109  0.1393
   61MOL0     C 8129   0.517   9.300  -0.653  0.1862 -0.6248 -0.7639
   61MOL0     C 8130   0.405   9.380  -0.703  1.2204 -0.5038 -0.7727
   61MOL0     O 8131   0.285   9.321  -0.730 -0.0907 -0.5242  0.7622
   61MOL0     C 8132   0.168   9.392  -0.746  0.4610  0.4706 -0.3174
   61MOL0     C 8133   0.136   9.502  -0.663  0.6594  0.5364 -0.1593
   61MOL0     C 8134   0.004   9.550  -0.661 -0.1169 -0.2144  0.1850
   61MOL0     C 8135  -0.094   9.508  -0.751 -0.7900 -0.1734 -0.1849
   61MOL0     O 8136  -0.215   9.566  -0.753  0.1567  0.0493 -0.1634
   61MOL0     C 8137  -0.318   9.515  -0.660 -1.0785  0.0475  0.4850
   61MOL0     C 8138  -0.450   9.584  -0.671  1.6522 -0.4097  0.4096
   61MOL0     C 8139  -0.530   9.577  -0.806  0.3402 -1.0280 -0.3827
   61MOL0     C 8140  -0.468   9.644  -0.932 -0.2902  0.2643  0.3226
   61MOL0     C 8141  -0.557   9.662  -1.057 -0.2851 -0.1140  0.2766
   61MOL0     C 8142  -0.676   9.756  -1.031  0.8786 -0.3581  0.0223
   61MOL0     C 8143  -0.734   9.792  -1.168  1.0337  0.1963 -0.5634
   61MOL0     C 8144  -0.847   9.896  -1.160  0.2969  0.4046 -0.6924
   61MOL0    Cl 8145  -0.999   9.837  -1.076  0.1290  0.4406  0.2017
   61MOL0     C 8146  -0.058   9.408  -0.839  0.8570 -0.5011 -0.8793
   61MOL0     C 8147   0.064   9.346  -0.836 -0.0240 -0.0739 -0.0013
   61MOL0     O 8148   0.432   9.502  -0.724 -0.0569 -0.0620 -0.6872
   61MOL0     C 8149   0.499   9.163  -0.653  0.5178 -1.2821  0.2245
   61MOL0     C 8150   0.580   9.073  -0.593 -0.7869  0.7612 -0.3482
   61MOL0     N 8151   1.425   8.737  -0.293  0.0934  0.0977  0.6453
   61MOL0     N 8152   1.553   8.764  -0.313  0.2028  0.3727  1.0458
   61MOL0     C 8153   2.309   8.853   0.335  0.5816 -0.1232 -0.6185
   61MOL0     C 8154   2.396   8.836   0.449 -0.4358  1.1905  0.4883
   61MOL0     C 8155   2.776   8.889   0.725  0.8644  0.1220 -0.2262
   61MOL0     C 8156   2.908   8.943   0.728 -0.5826  0.1299  0.1576
   61MOL0     C 8157   2.967   8.960   0.860  0.2876 -0.3908  1.3397
   61MOL0     C 8158   2.900   8.916   0.974 -0.4890  0.0258  0.3889
   61MOL0     O 8159   2.946   8.949   1.098  0.4959 -0.7316 -0.3570
   61MOL0     C 8160   2.946   8.852   1.206 -0.1729 -0.4829  0.6810
   61MOL0     C 8161   3.050   8.904   1.303  0.7691  0.4755 -0.9327
   61MOL0     C 8162   3.066   8.818   1.424  0.2457  0.6291 -1.1033
   61MOL0     C 8163   3.159   8.878   1.532  0.4015  0.7029  0.0781
   61MOL0     C 8164   3.182   8.775   1.639  0.4189  0.1523  0.1409
   61MOL0     C 8165   3.209   8.684   1.713 -0.2433  0.2290 -0.8800
   61MOL0     C 8166   2.767   8.870   0.969 -0.2066 -0.0333  1.6097
   61MOL0     C 8167   2.709   8.865   0.842 -0.3082 -0.7604 -0.2431
   61MOL0     H 8168   2.584   9.111   0.430  1.0280 -0.0501 -0.9453
   61MOL0     H 8169   2.428   9.154   0.244 -0.5308 -1.4008 -1.5274
   61MOL0     H 8170   2.182   9.161   0.205  2.0125  0.8259  0.6186
   61MOL0     H 8171   2.276   9.148   0.052  0.6190  0.0284  1.5600
   61MOL0     H 8172   1.982   9.080   0.099  0.3936  0.3266  0.2668
   61MOL0     H 8173   2.040   9.209   0.005 -2.4373  0.2039  2.4026
   61MOL0     H 8174   2.137   9.073  -0.171 -1.4766 -0.1423 -2.1171
   61MOL0     H 8175   2.106   8.929  -0.078  1.3703  2.1048  4.0886
   61MOL0     H 8176   1.873   8.969  -0.087 -1.1327 -0.0016  0.3371
   61MOL0     H 8177   1.890   9.136  -0.155  2.1475  0.6809  0.3034
   61MOL0     H 8178   1.987   9.026  -0.370 -0.7711 -1.5451 -1.4378
   61MOL0     H 8179   1.924   8.870  -0.308 -3.0824 -0.5983 -2.7641
   61MOL0     H 8180   1.694   8.970  -0.293 -0.4114 -2.5831 -2.3486
   61MOL0     H 8181   1.738   9.126  -0.340 -0.5848  0.0752 -0.1815
   61MOL0     H 8182   1.670   9.061  -0.542  2.1731  2.6321  0.5145
   61MOL0     H 8183   1.839   9.001  -0.553  1.7259 -1.1921  1.9480
   61MOL0     H 8184   1.767   8.772  -0.469  1.1901  0.8265  1.0063
   61MOL0     H 8185   1.688   8.819  -0.615  1.3232  1.9402 -1.0422
   61MOL0     H 8186   1.437   8.887  -0.592  2.9125 -0.1206 -0.3245
   61MOL0     H 8187   1.193   8.760  -0.524 -2.4969  1.0910  0.6668
   61MOL0     H 8188   1.162   8.715  -0.357 -0.5490 -1.3984 -0.7288
   61MOL0     H 8189   1.179   9.010  -0.456  0.8145  2.2077  2.6123
   61MOL0     H 8190   1.147   8.956  -0.296  1.5494 -0.3651  0.4179
   61MOL0     H 8191   0.930   8.853  -0.379  2.1233 -0.7990  1.5680
   61MOL0     H 8192   0.979   8.894  -0.543  1.4973 -1.3659  0.7737
   61MOL0     H 8193   0.967   9.136  -0.493 -0.8547 -1.2403 -1.0208
   61MOL0     H 8194   0.895   9.095  -0.332  0.8444  2.4194 -1.2200
   61MOL0     H 8195   0.817   9.299  -0.500  0.3739 -1.9561 -0.3955
   61MOL0     H 8196   0.702   9.541  -0.676  1.0584  0.1498  0.2392
   61MOL0     H 8197   0.597   9.563  -0.548 -0.5573  0.3367  1.2463
   61MOL0     H 8198   0.753   9.504  -0.504 -1.5527  0.0792  1.2559
   61MOL0     H 8199   0.207   9.551  -0.597 -1.4092 -1.6627  4.1553
   61MOL0     H 8200  -0.019   9.624  -0.585 -1.5453 -2.9727  2.7012
   61MOL0     H 8201  -0.334   9.407  -0.669  0.8901 -0.7962  4.8197
   61MOL0     H 8202  -0.276   9.525  -0.560 -0.8315 -1.5676  0.5595
   61MOL0     H 8203  -0.523   9.534  -0.607 -0.1605  1.2843 -0.2135
   61MOL0     H 8204  -0.440   9.686  -0.633 -0.4754  1.1166 -2.7234
   61MOL0     H 8205  -0.625   9.630  -0.789  0.7222 -0.8415  1.2514
   61MOL0     H 8206  -0.536   9.470  -0.829 -0.9428 -1.3835  1.3898
   61MOL0     H 8207  -0.423   9.741  -0.911 -0.8525  0.0612  2.7681
   61MOL0     H 8208  -0.389   9.582  -0.974  1.1177  0.9102  1.9107
   61MOL0     H 8209  -0.599   9.563  -1.077 -0.3524  0.2534 -1.5355
   61MOL0     H 8210  -0.492   9.691  -1.140  0.6097 -2.5636  0.0237
   61MOL0     H 8211  -0.750   9.702  -0.972 -1.5005  2.3788 -0.2077
   61MOL0     H 8212  -0.661   9.853  -0.984 -1.9699  1.1498 -1.8812
   61MOL0     H 8213  -0.764   9.699  -1.218  3.3314 -0.9678  0.0971
   61MOL0     H 8214  -0.652   9.836  -1.225  0.9311  0.6348 -0.3768
   61MOL0     H 8215  -0.886   9.917  -1.260 -0.9500 -0.6116 -0.4456
   61MOL0     H 8216  -0.801   9.981  -1.109  1.2160  0.4538 -1.5722
   61MOL0     H 8217  -0.137   9.364  -0.899 -2.0763  2.7262  0.2932
   61MOL0     H 8218   0.088   9.268  -0.907 -1.1858  1.3434 -2.0361
   61MOL0     H 8219   0.406   9.131  -0.700 -0.6783 -1.9184  2.8359
   61MOL0     H 8220   0.557   8.968  -0.609 -2.2874  0.9336  0.4543
   61MOL0     H 8221   2.228   8.785   0.312  0.3311 -0.1187  0.1941
   61MOL0     H 8222   2.391   8.760   0.527 -0.7722 -1.9640 -2.4094
   61MOL0     H 8223   2.952   8.969   0.633 -1.5366 -1.4941 -0.7774
   61MOL0     H 8224   3.071   8.987   0.870  0.5570 -1.1770  0.7378
   61MOL0     H 8225   2.848   8.831   1.250 -0.3138  0.1707  0.6882
   61MOL0     H 8226   2.985   8.754   1.177 -1.1466 -0.7123  0.1318
   61MOL0     H 8227   3.024   9.004   1.340 -0.2142  0.3893 -1.3788
   61MOL0     H 8228   3.144   8.922   1.250  1.4004  0.9448  0.3008
   61MOL0     H 8229   3.108   8.720   1.399 -0.1921 -0.4924  2.1199
   61MOL0     H 8230   2.971   8.797   1.474  1.7508 -0.9373  1.3371
   61MOL0     H 8231   3.116   8.968   1.577 -0.7798 -0.6645  1.8051
   61MOL0     H 8232   3.252   8.902   1.479 -0.1162  1.4284 -0.5303
   61MOL0     H 8233   3.213   8.610   1.791 -0.2236 -0.3637 -1.4304
   61MOL0     H 8234   2.702   8.847   1.053 -0.8549  1.5285  1.5809
   61MOL0     H 8235   2.604   8.838   0.853 -0.0319 -0.9276  2.9197
   62MOL0     O 8236   6.303   3.763   7.844 -0.1951  0.2706 -0.1509
   62MOL0     C 8237   6.357   3.873   7.820  1.2939  0.0814 -0.1233
   62MOL0     O 8238   6.339   3.990   7.894  0.0723 -0.1185 -0.3349
   62MOL0     C 8239   6.240   3.985   7.986  1.0733 -0.0033  0.0262
   62MOL0     C 8240   6.108   4.038   7.965 -0.9621  0.3721  0.0330
   62MOL0     C 8241   6.008   4.017   8.064 -0.2055  0.3624 -0.4624
   62MOL0     C 8242   6.037   3.956   8.185  0.0346 -0.0543  0.0311
   62MOL0     O 8243   5.936   3.924   8.272  0.7432 -0.4494  0.0402
   62MOL0     C 8244   5.859   4.033   8.316  0.1964  0.4473 -0.0423
   62MOL0     C 8245   5.781   3.990   8.440  0.1780 -0.1376 -0.2458
   62MOL0     C 8246   5.674   3.881   8.429  0.1562 -0.0244  0.5312
   62MOL0     C 8247   5.712   3.739   8.453 -0.3264  0.0118 -0.1017
   62MOL0     C 8248   5.787   3.677   8.336  0.1989  0.3179  0.7196
   62MOL0     C 8249   5.762   3.526   8.333  0.1219 -0.1913  0.8411
   62MOL0     C 8250   5.869   3.468   8.242 -0.4156 -0.2110  0.6855
   62MOL0     C 8251   5.863   3.321   8.220 -0.7176  0.0244  0.8942
   62MOL0     N 8252   5.743   3.284   8.150 -0.0871 -0.6453  0.1332
   62MOL0     C 8253   5.704   3.340   8.031  0.2398  0.3494 -0.8703
   62MOL0     C 8254   5.581   3.278   8.005 -0.4325 -0.9196  0.6103
   62MOL0     C 8255   5.520   3.312   7.870 -0.3619 -0.0040  0.0794
   62MOL0     C 8256   5.375   3.352   7.884  0.0702  0.3271  0.4230
   62MOL0     C 8257   5.366   3.492   7.939 -0.7234  0.0104  0.5747
   62MOL0     C 8258   5.218   3.530   7.954 -1.0219  0.5059  0.3565
   62MOL0     O 8259   5.161   3.425   8.030 -0.3193 -0.2968 -0.0064
   62MOL0     C 8260   5.033   3.442   8.059  1.4677 -0.8390  0.3887
   62MOL0     C 8261   4.978   3.348   8.139  0.2383  0.0622  0.2902
   62MOL0     C 8262   4.834   3.348   8.168 -0.4342 -0.5056  0.3796
   62MOL0     C 8263   4.783   3.230   8.241  0.0846  0.3919  0.0180
   62MOL0     C 8264   4.753   3.454   8.111 -0.1578  0.3766 -0.0348
   62MOL0     C 8265   4.604   3.457   8.124 -0.6611 -0.2932  0.4135
   62MOL0     O 8266   4.557   3.574   8.106  0.3755  0.0660 -0.6233
   62MOL0     C 8267   4.423   3.602   8.099  0.0015  0.3887 -0.9507
   62MOL0     C 8268   4.362   3.595   7.980  0.1305 -0.5976 -0.0904
   62MOL0     C 8269   4.224   3.612   7.972 -0.4092  0.3011  0.5079
   62MOL0     C 8270   4.148   3.643   8.087  0.3274  0.5182 -0.0106
   62MOL0     O 8271   4.017   3.676   8.080 -0.5961 -0.3021 -0.7358
   62MOL0     C 8272   3.960   3.727   7.959  0.3324  0.3757 -0.1650
   62MOL0     C 8273   3.820   3.783   7.978  0.2319  0.5370  0.1955
   62MOL0     C 8274   3.819   3.887   8.084  0.5231  0.2734 -0.6073
   62MOL0     C 8275   3.670   3.938   8.086  0.2243  0.5315  0.0091
   62MOL0     C 8276   3.674   4.079   8.142  0.0723 -0.4989 -0.0851
   62MOL0     C 8277   3.538   4.142   8.099  0.3253  0.0799  0.3396
   62MOL0     C 8278   3.527   4.290   8.129  0.7846  1.1526 -0.1411
   62MOL0     C 8279   3.420   4.349   8.047  0.1133 -0.4191  0.0968
   62MOL0    Cl 8280   3.248   4.320   8.096 -0.1148  0.0503  0.1966
   62MOL0     C 8281   4.210   3.647   8.211 -0.0036  1.1071  0.0482
   62MOL0     C 8282   4.342   3.612   8.215 -0.6540  0.0592  0.1850
   62MOL0     O 8283   4.536   3.356   8.139 -0.1531 -0.5993 -0.2930
   62MOL0     C 8284   4.821   3.563   8.046  0.1835  0.1873 -0.2434
   62MOL0     C 8285   4.952   3.552   8.015  0.3097 -0.2028 -0.2622
   62MOL0     N 8286   5.551   3.190   8.104 -0.2343 -0.3284 -0.6374
   62MOL0     N 8287   5.644   3.201   8.199  0.2977 -0.1283 -0.7153
   62MOL0     C 8288   6.169   3.914   8.207 -0.2270  0.1551  0.5027
   62MOL0     C 8289   6.269   3.926   8.109  0.4173 -0.4211 -0.7854
   62MOL0     C 8290   6.436   3.872   7.697 -0.7028 -0.0569  1.3632
   62MOL0     C 8291   6.507   3.981   7.645  0.4373  0.4756 -0.0639
   62MOL0     C 8292   6.588   3.989   7.534  0.4026 -0.1639 -0.0643
   62MOL0     C 8293   6.598   3.869   7.453 -0.0469 -0.1264  0.0668
   62MOL0     O 8294   6.695   3.877   7.352 -0.1455  0.3424  0.1849
   62MOL0     C 8295   6.696   3.770   7.260  0.3106  0.6950 -0.2366
   62MOL0     C 8296   6.769   3.827   7.137 -0.3436  0.0919  0.2534
   62MOL0     C 8297   6.697   3.945   7.071 -0.0059 -1.2592 -0.9144
   62MOL0     C 8298   6.797   4.071   7.062 -0.6784  0.7712  0.0975
   62MOL0     C 8299   6.749   4.170   6.965  0.0988  0.5154 -0.0543
   62MOL0     C 8300   6.730   4.251   6.874 -0.6467 -0.4776 -0.3782
   62MOL0     C 8301   6.515   3.758   7.489  0.3961 -0.5137  0.2492
   62MOL0     C 8302   6.436   3.759   7.606  0.1901 -0.2914 -0.5699
   62MOL0     H 8303   6.069   4.072   7.869 -1.5167  0.4439  0.2791
   62MOL0     H 8304   5.907   4.040   8.034 -0.4748 -1.0591 -0.7138
   62MOL0     H 8305   5.929   4.114   8.339  0.9309 -0.7186  2.1095
   62MOL0     H 8306   5.798   4.082   8.240  2.0598  2.1631 -0.5321
   62MOL0     H 8307   5.860   3.936   8.493  0.0195  0.0188  0.1526
   62MOL0     H 8308   5.742   4.076   8.495  0.4428  0.9858 -1.7551
   62MOL0     H 8309   5.605   3.905   8.510 -0.8537 -0.7283 -0.1033
   62MOL0     H 8310   5.620   3.902   8.336  0.7351  3.0803  0.7798
   62MOL0     H 8311   5.777   3.731   8.541 -2.0166 -0.6365  1.1469
   62MOL0     H 8312   5.618   3.687   8.470 -1.6224  2.7911  1.9765
   62MOL0     H 8313   5.753   3.715   8.239 -3.4169  0.7625  1.9934
   62MOL0     H 8314   5.894   3.696   8.343  0.2623  0.0240  0.5813
   62MOL0     H 8315   5.774   3.489   8.436  0.3529 -4.4754 -0.5312
   62MOL0     H 8316   5.661   3.500   8.301 -0.6746 -3.0395  4.8746
   62MOL0     H 8317   5.883   3.521   8.148  2.5220 -0.6031  0.8116
   62MOL0     H 8318   5.974   3.477   8.269 -0.1273 -1.5175  0.0710
   62MOL0     H 8319   5.866   3.259   8.310 -1.5324 -4.9851 -2.1500
   62MOL0     H 8320   5.951   3.290   8.162  0.1766 -1.3209  2.8240
   62MOL0     H 8321   5.745   3.416   7.966  1.5927 -0.1002 -0.5672
   62MOL0     H 8322   5.576   3.397   7.829 -2.2683  0.9032 -0.7607
   62MOL0     H 8323   5.532   3.230   7.799  2.1215  0.8229 -0.5633
   62MOL0     H 8324   5.324   3.279   7.947 -1.2656  0.7217 -0.1713
   62MOL0     H 8325   5.321   3.350   7.789  1.0843  0.6394 -0.1783
   62MOL0     H 8326   5.425   3.562   7.879  1.3205 -0.7924  1.5334
   62MOL0     H 8327   5.406   3.493   8.041 -2.4466 -0.5101  1.2833
   62MOL0     H 8328   5.167   3.531   7.858  2.9787 -2.4626 -2.1336
   62MOL0     H 8329   5.212   3.627   8.003 -2.0034 -0.4209  2.1668
   62MOL0     H 8330   5.048   3.271   8.171  0.6034  0.7290  1.1336
   62MOL0     H 8331   4.872   3.174   8.272  0.4075  0.2381 -1.1480
   62MOL0     H 8332   4.731   3.272   8.328  1.2281  0.2275  0.8182
   62MOL0     H 8333   4.712   3.167   8.188  0.4008 -0.2645  0.3615
   62MOL0     H 8334   4.413   3.560   7.891  0.8647 -2.1476  0.8938
   62MOL0     H 8335   4.181   3.613   7.872 -0.7423  0.8263  0.6521
   62MOL0     H 8336   4.036   3.802   7.935  1.0396  0.2879  1.6134
   62MOL0     H 8337   3.952   3.640   7.893 -0.4378  1.0178 -0.9303
   62MOL0     H 8338   3.788   3.805   7.876 -1.8329 -2.4070  0.0721
   62MOL0     H 8339   3.753   3.708   8.021 -0.1731  0.9903  0.3701
   62MOL0     H 8340   3.899   3.962   8.079 -1.2430  2.4619  1.4896
   62MOL0     H 8341   3.835   3.827   8.173  2.0662  0.8500 -0.4516
   62MOL0     H 8342   3.638   3.943   7.982  4.0032  1.6440 -1.2681
   62MOL0     H 8343   3.591   3.885   8.140 -0.0578  1.0437  0.1025
   62MOL0     H 8344   3.756   4.139   8.103 -0.8786  0.8479 -0.0635
   62MOL0     H 8345   3.685   4.075   8.250 -0.8105 -0.2901  0.0233
   62MOL0     H 8346   3.542   4.131   7.991  0.0999  1.3643  0.1942
   62MOL0     H 8347   3.452   4.096   8.148 -0.4839  1.7399  0.5439
   62MOL0     H 8348   3.622   4.336   8.101  0.7002  1.1642 -0.4155
   62MOL0     H 8349   3.512   4.313   8.235  1.1116  1.5811 -0.1858
   62MOL0     H 8350   3.431   4.333   7.939  0.5170  0.7607 -0.0537
   62MOL0     H 8351   3.438   4.457   8.048 -0.3772 -0.3353  0.1367
   62MOL0     H 8352   4.148   3.654   8.299 -0.8227  0.5666 -0.4792
   62MOL0     H 8353   4.384   3.589   8.312  0.5854  0.1410 -0.3082
   62MOL0     H 8354   4.771   3.648   8.000 -1.3046 -0.7020 -0.3284
   62MOL0     H 8355   4.998   3.628   7.953  2.2089  0.1427  1.4496
   62MOL0     H 8356   6.206   3.869   8.298 -0.8641 -1.5058 -0.0315
   62MOL0     H 8357   6.364   3.884   8.138  0.0833 -0.4511  0.3401
   62MOL0     H 8358   6.488   4.076   7.695 -3.7277 -0.2751  0.1471
   62MOL0     H 8359   6.640   4.081   7.510 -1.0639 -0.0170 -3.1171
   62MOL0     H 8360   6.755   3.682   7.287 -0.8432  0.8286  3.0746
   62MOL0     H 8361   6.599   3.727   7.232  2.7410 -3.6316 -3.3829
   62MOL0     H 8362   6.782   3.745   7.065 -3.2610 -1.2497  1.0927
   62MOL0     H 8363   6.867   3.858   7.175  0.7478 -3.2224  0.4797
   62MOL0     H 8364   6.600   3.967   7.116 -0.1626 -4.0714  0.3154
   62MOL0     H 8365   6.683   3.916   6.967 -0.6890 -0.2278 -1.1300
   62MOL0     H 8366   6.895   4.044   7.021  0.3682  1.8445  1.7974
   62MOL0     H 8367   6.797   4.110   7.164 -0.3579 -0.3494  0.5415
   62MOL0     H 8368   6.738   4.329   6.800  0.5861 -2.8777 -2.9823
   62MOL0     H 8369   6.523   3.670   7.426  0.0149 -2.1441  2.3697
   62MOL0     H 8370   6.364   3.680   7.624  1.0507 -1.4593 -2.0382
   63MOL0     O 8371   9.598   3.846   8.378  0.4620 -0.4205  0.1393
   63MOL0     C 8372   9.685   3.843   8.463  0.8239 -0.2129 -0.2448
   63MOL0     O 8373   9.797   3.916   8.466  0.4287  0.3333 -0.0385
   63MOL0     C 8374   9.829   3.990   8.350 -0.6431 -0.7063 -0.1919
   63MOL0     C 8375   9.764   4.106   8.317  0.0395 -0.1952 -0.1664
   63MOL0     C 8376   9.808   4.171   8.205 -0.9513  0.5277 -1.2816
   63MOL0     C 8377   9.909   4.128   8.122  0.3545 -0.6634  0.8283
   63MOL0     O 8378   9.956   4.226   8.032 -1.1407 -0.3649  0.2473
   63MOL0     C 8379  10.094   4.212   7.986 -0.3436  0.3705 -0.0251
   63MOL0     C 8380  10.136   4.319   7.878  0.3916 -0.5751  0.1059
   63MOL0     C 8381  10.125   4.464   7.924 -0.6269 -0.7182  0.3489
   63MOL0     C 8382  10.203   4.505   8.046  0.1484  0.1783  1.0194
   63MOL0     C 8383  10.356   4.494   8.026 -0.0253  0.6247 -0.1379
   63MOL0     C 8384  10.444   4.514   8.144 -0.0790  0.2480 -0.1565
   63MOL0     C 8385  10.604   4.508   8.120 -0.2413  0.6620  0.0768
   63MOL0     C 8386  10.670   4.538   8.254  0.3865  0.9342  0.3685
   63MOL0     N 8387  10.762   4.429   8.278  0.5355  0.4696 -0.5792
   63MOL0     C 8388  10.748   4.321   8.367 -0.5872 -0.1129  0.0414
   63MOL0     C 8389  10.868   4.257   8.355 -0.2517 -0.3015 -0.1998
   63MOL0     C 8390  10.901   4.139   8.438 -0.6870 -0.3709 -0.3974
   63MOL0     C 8391  10.937   4.026   8.356  0.5273  0.3370  0.3058
   63MOL0     C 8392  10.822   3.938   8.293  0.6841 -0.0580 -0.5209
   63MOL0     C 8393  10.745   3.838   8.392  0.4742  0.5357  0.3563
   63MOL0     O 8394  10.675   3.730   8.327 -0.2108 -0.7301 -0.0869
   63MOL0     C 8395  10.629   3.629   8.415 -0.1728  0.9730 -0.1737
   63MOL0     C 8396  10.570   3.517   8.351 -0.8461 -0.0492 -0.6266
   63MOL0     C 8397  10.501   3.416   8.416  0.3719 -0.5326  0.0768
   63MOL0     C 8398  10.453   3.297   8.331 -0.2761  0.5578 -1.0122
   63MOL0     C 8399  10.496   3.414   8.559  0.5767  0.6532 -1.3655
   63MOL0     C 8400  10.446   3.305   8.646  0.0358  0.6757  0.0326
   63MOL0     O 8401  10.504   3.275   8.767  0.5085  0.2752  0.8112
   63MOL0     C 8402  10.437   3.176   8.840  0.3177 -0.4768 -0.4056
   63MOL0     C 8403  10.342   3.210   8.930  0.0274  0.1261  0.1737
   63MOL0     C 8404  10.271   3.118   9.000  0.6718  0.7782  0.5647
   63MOL0     C 8405  10.320   2.989   9.016  0.7103  0.8134  0.4212
   63MOL0     O 8406  10.258   2.906   9.106  0.2190  0.3111  0.4948
   63MOL0     C 8407  10.336   2.810   9.177 -1.0594 -0.7106 -0.9877
   63MOL0     C 8408  10.262   2.781   9.314  0.7742 -0.0129 -0.9225
   63MOL0     C 8409  10.280   2.897   9.412 -0.3864  0.0142  0.0836
   63MOL0     C 8410  10.239   2.848   9.552 -0.7110  0.1244 -0.2896
   63MOL0     C 8411  10.180   2.951   9.649  0.0459 -0.8433  0.6936
   63MOL0     C 8412  10.060   3.032   9.604 -0.5058 -0.3596 -0.3804
   63MOL0     C 8413  10.052   3.152   9.695  0.0447 -1.0821  0.2659
   63MOL0     C 8414   9.909   3.204   9.711 -0.5153  0.3946  0.3446
   63MOL0    Cl 8415   9.872   3.314   9.836  0.4717 -0.2653  0.5187
   63MOL0     C 8416  10.422   2.949   8.922  0.4673 -0.4833 -0.8438
   63MOL0     C 8417  10.478   3.038   8.843 -0.5712 -0.7488 -0.2642
   63MOL0     O 8418  10.361   3.234   8.593 -0.6093  0.3119 -0.8014
   63MOL0     C 8419  10.558   3.521   8.625  0.0541 -1.3665  0.2490
   63MOL0     C 8420  10.622   3.629   8.554  0.3201 -0.5850  0.2977
   63MOL0     N 8421  10.951   4.313   8.256  0.0971  0.0022  0.6540
   63MOL0     N 8422  10.885   4.416   8.216 -0.9103  0.4741 -0.6994
   63MOL0     C 8423   9.963   4.013   8.149  0.1116  0.0083  0.8490
   63MOL0     C 8424   9.926   3.942   8.264 -0.3646 -0.1231 -0.5665
   63MOL0     C 8425   9.655   3.759   8.579 -0.6237  0.4360  0.0747
   63MOL0     C 8426   9.758   3.727   8.674 -0.3534 -0.6646 -0.8474
   63MOL0     C 8427   9.733   3.635   8.780 -0.5987  0.1433 -0.3138
   63MOL0     C 8428   9.605   3.580   8.792  0.1404  0.9590 -1.1272
   63MOL0     O 8429   9.573   3.497   8.898 -0.2763  0.5211 -0.9743
   63MOL0     C 8430   9.643   3.509   9.025  1.5807 -0.2949  0.5406
   63MOL0     C 8431   9.555   3.480   9.152 -0.4425 -0.1901  0.5489
   63MOL0     C 8432   9.640   3.515   9.274 -0.6170 -0.5646 -0.3778
   63MOL0     C 8433   9.572   3.539   9.405  0.4300 -0.2240 -0.3636
   63MOL0     C 8434   9.656   3.587   9.513 -0.3485 -0.5324 -0.6694
   63MOL0     C 8435   9.737   3.620   9.596  0.4487  0.4529 -0.5815
   63MOL0     C 8436   9.505   3.611   8.696 -0.0217 -0.2284  0.0569
   63MOL0     C 8437   9.528   3.691   8.594 -0.3498 -0.9631 -0.1246
   63MOL0     H 8438   9.681   4.140   8.377  1.2770  3.4802 -0.3215
   63MOL0     H 8439   9.773   4.269   8.177  2.0599  1.4542 -2.2149
   63MOL0     H 8440  10.163   4.211   8.071 -2.1741  1.9225  1.5990
   63MOL0     H 8441  10.103   4.112   7.945  0.5557  0.1526  0.6558
   63MOL0     H 8442  10.239   4.296   7.850  0.8275  1.9293 -0.6016
   63MOL0     H 8443  10.077   4.313   7.787 -0.4796  0.8633  0.5392
   63MOL0     H 8444  10.163   4.536   7.851  4.3436 -2.5340  0.7487
   63MOL0     H 8445  10.019   4.484   7.946 -1.0459 -1.6572 -0.6924
   63MOL0     H 8446  10.174   4.607   8.074  0.4348  0.6214 -0.2162
   63MOL0     H 8447  10.191   4.433   8.127 -0.8521 -1.2592 -0.3543
   63MOL0     H 8448  10.391   4.394   8.000  1.9242 -0.5018  5.4460
   63MOL0     H 8449  10.394   4.565   7.951 -0.4274  0.8828 -0.1000
   63MOL0     H 8450  10.410   4.603   8.199 -2.4488 -3.1387  4.6218
   63MOL0     H 8451  10.409   4.434   8.211 -0.5513 -1.1332 -1.9825
   63MOL0     H 8452  10.621   4.405   8.086 -1.1830  0.5705 -0.1612
   63MOL0     H 8453  10.631   4.575   8.039 -1.1730 -0.3682 -1.1234
   63MOL0     H 8454  10.594   4.553   8.332 -0.3549  2.4995 -0.6167
   63MOL0     H 8455  10.726   4.629   8.234  3.9992 -1.8194 -3.8986
   63MOL0     H 8456  10.660   4.288   8.421  0.5922 -0.5262  1.8141
   63MOL0     H 8457  10.994   4.170   8.486 -1.5785  3.5598 -0.8794
   63MOL0     H 8458  10.826   4.114   8.514 -1.0401  0.7709 -0.3545
   63MOL0     H 8459  11.002   3.965   8.418  1.9711  0.8235 -0.6784
   63MOL0     H 8460  10.998   4.066   8.274  1.8565 -3.1046 -0.5507
   63MOL0     H 8461  10.878   3.883   8.217  1.5051 -1.4234  1.0258
   63MOL0     H 8462  10.754   4.016   8.255 -0.1522  0.5383  2.0430
   63MOL0     H 8463  10.670   3.895   8.448 -1.8793 -2.0578  0.0728
   63MOL0     H 8464  10.822   3.795   8.456  1.4033  2.1647  0.4010
   63MOL0     H 8465  10.580   3.523   8.243 -5.0332  0.8922 -1.1321
   63MOL0     H 8466  10.491   3.202   8.371 -2.2865  0.0728 -0.1313
   63MOL0     H 8467  10.344   3.285   8.335 -0.2268  0.3026  0.4965
   63MOL0     H 8468  10.481   3.292   8.226  0.4833 -4.7229 -0.8216
   63MOL0     H 8469  10.317   3.313   8.952 -1.8028 -0.4080  0.7476
   63MOL0     H 8470  10.189   3.147   9.064  1.7765  0.3698  2.2335
   63MOL0     H 8471  10.357   2.723   9.115  0.8151  0.6690 -2.4281
   63MOL0     H 8472  10.430   2.858   9.207 -1.5302 -1.0134  1.1481
   63MOL0     H 8473  10.154   2.786   9.298  0.7978  2.7826 -0.6959
   63MOL0     H 8474  10.300   2.689   9.360  0.3219 -0.3849 -1.2831
   63MOL0     H 8475  10.212   2.980   9.390 -1.1727 -0.3387  1.1084
   63MOL0     H 8476  10.382   2.935   9.407 -0.0599 -0.6120  1.4673
   63MOL0     H 8477  10.173   2.763   9.531  0.8512 -1.2063  0.0190
   63MOL0     H 8478  10.328   2.803   9.596  0.4715  0.8975 -1.7916
   63MOL0     H 8479  10.260   3.020   9.679  2.4888 -1.9282 -2.7386
   63MOL0     H 8480  10.146   2.908   9.744  0.5094  0.2250  1.3675
   63MOL0     H 8481  10.067   3.062   9.499 -3.0201  2.3206  0.0618
   63MOL0     H 8482   9.974   2.967   9.623 -0.9003  0.6410  1.5772
   63MOL0     H 8483  10.120   3.233   9.665 -0.1508  0.7622  4.2149
   63MOL0     H 8484  10.094   3.127   9.793  0.5849 -0.9119  0.0854
   63MOL0     H 8485   9.846   3.120   9.742 -0.2013 -0.6703 -1.7169
   63MOL0     H 8486   9.874   3.242   9.615  0.8130 -1.1779 -0.8396
   63MOL0     H 8487  10.441   2.842   8.917  1.3730 -0.4796  1.4487
   63MOL0     H 8488  10.550   3.003   8.770 -1.7535 -0.2515 -1.7383
   63MOL0     H 8489  10.544   3.532   8.732 -0.4911 -0.6465  0.1171
   63MOL0     H 8490  10.653   3.712   8.618  0.5977 -0.5074  0.0648
   63MOL0     H 8491  10.041   3.970   8.086 -1.7395 -0.9221 -0.9052
   63MOL0     H 8492   9.991   3.859   8.290  3.0149  2.7558  1.2151
   63MOL0     H 8493   9.854   3.777   8.674 -0.3312 -0.5504  1.5709
   63MOL0     H 8494   9.809   3.624   8.858  1.8355  2.3995 -2.1857
   63MOL0     H 8495   9.736   3.453   9.007  1.9040  0.8625 -1.7111
   63MOL0     H 8496   9.679   3.611   9.036 -0.1660  0.7245 -2.2460
   63MOL0     H 8497   9.523   3.376   9.148  1.4358 -0.7830 -2.2519
   63MOL0     H 8498   9.472   3.551   9.148  0.3392  0.9565  2.5961
   63MOL0     H 8499   9.695   3.608   9.253 -0.4423 -0.3043  1.1435
   63MOL0     H 8500   9.714   3.437   9.292 -0.5802 -0.1953  1.2036
   63MOL0     H 8501   9.508   3.453   9.429 -2.5850  1.0947 -2.8860
   63MOL0     H 8502   9.497   3.615   9.382 -0.4082 -1.4076 -1.7127
   63MOL0     H 8503   9.794   3.641   9.685 -1.9267  1.0259  0.9149
   63MOL0     H 8504   9.405   3.575   8.717  0.7928 -1.5183  2.0548
   63MOL0     H 8505   9.454   3.704   8.515  1.2890  2.0398 -1.3334
   64MOL0     O 8506   0.536   5.043   6.794  0.2228 -0.0826  0.0922
   64MOL0     C 8507   0.544   4.935   6.839 -0.0172  0.6026  0.1869
   64MOL0     O 8508   0.450   4.879   6.925 -0.2459  0.3604  0.0464
   64MOL0     C 8509   0.329   4.950   6.965 -0.3798  0.1006  0.0747
   64MOL0     C 8510   0.282   4.920   7.091  0.1799 -0.1157 -0.4889
   64MOL0     C 8511   0.162   4.979   7.138 -1.3246 -0.6101  0.4645
   64MOL0     C 8512   0.086   5.070   7.053 -0.6793  0.1460  1.1439
   64MOL0     O 8513  -0.021   5.136   7.107  0.2644 -0.0105  0.2398
   64MOL0     C 8514   0.010   5.189   7.239  0.5651 -0.5884  0.1895
   64MOL0     C 8515  -0.104   5.253   7.310 -0.3459 -0.4144  0.2237
   64MOL0     C 8516  -0.193   5.342   7.227  0.8618 -0.6388  0.8710
   64MOL0     C 8517  -0.302   5.403   7.306  0.1262 -0.9955 -0.4121
   64MOL0     C 8518  -0.392   5.505   7.234 -0.1628 -0.0189  0.2689
   64MOL0     C 8519  -0.521   5.534   7.311 -0.4002  0.4840 -0.3223
   64MOL0     C 8520  -0.612   5.630   7.230  0.2663  0.3501  0.4926
   64MOL0     C 8521  -0.738   5.654   7.314  0.1170  0.4125 -1.0935
   64MOL0     N 8522  -0.829   5.749   7.248  0.7075  0.0490 -0.6822
   64MOL0     C 8523  -0.921   5.711   7.160 -0.1091  0.4412 -0.4026
   64MOL0     C 8524  -0.964   5.829   7.094 -1.1684 -0.3604 -1.0088
   64MOL0     C 8525  -1.055   5.830   6.976  0.7405 -0.6623  0.2398
   64MOL0     C 8526  -1.162   5.948   6.982 -0.2839 -0.5263 -0.1769
   64MOL0     C 8527  -1.260   5.927   7.094  0.7604 -0.3022  0.2104
   64MOL0     C 8528  -1.395   5.981   7.072  0.1798 -0.6291  1.0151
   64MOL0     O 8529  -1.459   5.931   6.956 -0.6897 -0.1086 -0.3078
   64MOL0     C 8530  -1.521   5.812   6.954 -0.2000  0.0079 -0.4638
   64MOL0     C 8531  -1.516   5.749   6.829  0.2222 -0.1246  0.4679
   64MOL0     C 8532  -1.598   5.635   6.806  0.4821 -1.5388 -0.7767
   64MOL0     C 8533  -1.571   5.570   6.676 -0.4471  0.6262  0.6359
   64MOL0     C 8534  -1.692   5.585   6.903 -0.1666 -1.0201 -0.1039
   64MOL0     C 8535  -1.765   5.453   6.883 -0.4638  0.0537  0.6942
   64MOL0     O 8536  -1.818   5.400   7.001 -1.3152 -0.3861  0.0702
   64MOL0     C 8537  -1.899   5.297   6.994  0.3248  0.3272 -0.3133
   64MOL0     C 8538  -2.037   5.317   7.010 -0.0101 -0.0079  0.4645
   64MOL0     C 8539  -2.121   5.208   7.005 -0.5963  0.6321  0.5087
   64MOL0     C 8540  -2.065   5.077   6.989  0.2908  1.2441  1.0445
   64MOL0     O 8541  -2.141   4.965   6.975  0.2594  0.3713 -0.1019
   64MOL0     C 8542  -2.230   4.983   6.866 -0.6760 -0.1738  0.2540
   64MOL0     C 8543  -2.159   4.955   6.733  1.1224 -0.5557  0.6775
   64MOL0     C 8544  -2.244   4.881   6.625  0.4619  0.5211 -0.0287
   64MOL0     C 8545  -2.135   4.804   6.541 -0.7212  0.2182 -0.2428
   64MOL0     C 8546  -2.214   4.751   6.423  0.3172 -0.3576  0.4028
   64MOL0     C 8547  -2.115   4.668   6.339 -0.0332  0.4258 -0.3308
   64MOL0     C 8548  -2.166   4.599   6.213  0.3473  0.8004 -0.2488
   64MOL0     C 8549  -2.165   4.697   6.103 -0.0105 -0.1791  0.1009
   64MOL0    Cl 8550  -1.991   4.722   6.048  0.2774  0.0301 -0.1419
   64MOL0     C 8551  -1.932   5.060   6.973 -1.0600 -0.3352 -0.6028
   64MOL0     C 8552  -1.839   5.166   6.982 -0.2734 -1.2074  0.3179
   64MOL0     O 8553  -1.776   5.401   6.772 -0.8019  0.4138  0.7942
   64MOL0     C 8554  -1.700   5.659   7.024 -0.5132  1.1724 -0.2343
   64MOL0     C 8555  -1.617   5.764   7.053 -0.1176 -0.8273  0.3176
   64MOL0     N 8556  -0.882   5.929   7.140  0.5539 -0.1030 -0.9757
   64MOL0     N 8557  -0.803   5.878   7.232  0.0912 -0.4567 -0.0346
   64MOL0     C 8558   0.137   5.099   6.929  0.1860 -0.2806 -0.4525
   64MOL0     C 8559   0.253   5.035   6.885  0.4552  1.4406  0.0023
   64MOL0     C 8560   0.670   4.857   6.802  0.0827  0.4791 -0.9887
   64MOL0     C 8561   0.675   4.719   6.827  0.1746 -0.5163 -0.6621
   64MOL0     C 8562   0.784   4.647   6.778  0.6670 -0.6238  0.2928
   64MOL0     C 8563   0.899   4.709   6.721  1.5059 -0.3717 -0.6106
   64MOL0     O 8564   1.015   4.638   6.690  0.1558  0.3159 -0.8190
   64MOL0     C 8565   1.004   4.554   6.574  0.3106  0.0879  1.1017
   64MOL0     C 8566   1.145   4.503   6.542  0.2773  0.6289  0.5889
   64MOL0     C 8567   1.241   4.599   6.460  0.3071 -0.1939 -0.6897
   64MOL0     C 8568   1.392   4.559   6.454  0.2715  0.3352  0.2357
   64MOL0     C 8569   1.446   4.537   6.590  0.7490  0.0268 -0.2224
   64MOL0     C 8570   1.502   4.525   6.696 -0.2395 -0.0747  0.3255
   64MOL0     C 8571   0.885   4.845   6.695 -0.7346  1.0475  0.6964
   64MOL0     C 8572   0.775   4.919   6.744 -0.1002 -0.7146 -0.1898
   64MOL0     H 8573   0.345   4.863   7.159  0.0944 -0.2848 -0.5515
   64MOL0     H 8574   0.113   4.952   7.231 -3.6926 -0.0514 -0.5471
   64MOL0     H 8575   0.027   5.106   7.309 -2.8105 -2.4064 -0.9683
   64MOL0     H 8576   0.095   5.258   7.231 -0.2839  0.6696  1.5349
   64MOL0     H 8577  -0.178   5.178   7.344  0.2484 -2.3358 -2.4141
   64MOL0     H 8578  -0.061   5.297   7.400  1.1662 -1.9714  0.3065
   64MOL0     H 8579  -0.135   5.424   7.183 -1.3782  1.1853  1.0724
   64MOL0     H 8580  -0.245   5.278   7.155 -2.2171 -0.1494  2.4871
   64MOL0     H 8581  -0.361   5.325   7.354 -0.3774  1.0394  2.5529
   64MOL0     H 8582  -0.253   5.454   7.389 -0.8589  2.2621 -1.6715
   64MOL0     H 8583  -0.326   5.592   7.231  2.5500 -1.9330  1.2138
   64MOL0     H 8584  -0.430   5.469   7.138  0.5329  1.2700 -0.5105
   64MOL0     H 8585  -0.575   5.439   7.315  0.5098 -0.3603 -4.1105
   64MOL0     H 8586  -0.495   5.589   7.401 -1.1901  3.0804 -1.5697
   64MOL0     H 8587  -0.561   5.724   7.210 -1.1830  0.6041 -2.5858
   64MOL0     H 8588  -0.629   5.589   7.130 -1.4353  0.7674  0.5773
   64MOL0     H 8589  -0.712   5.681   7.417  0.8776 -1.6646 -0.6802
   64MOL0     H 8590  -0.794   5.561   7.330  3.0604 -1.0962  1.8951
   64MOL0     H 8591  -0.952   5.615   7.121  0.3568 -0.5503  1.5416
   64MOL0     H 8592  -0.990   5.835   6.888 -0.1362 -1.8071 -0.4982
   64MOL0     H 8593  -1.093   5.728   6.965 -0.5895 -0.0211 -1.6591
   64MOL0     H 8594  -1.216   5.959   6.888  1.4740  0.9071 -1.0768
   64MOL0     H 8595  -1.108   6.043   6.989  1.7573 -1.6096 -0.3584
   64MOL0     H 8596  -1.223   5.974   7.186 -2.4845  0.6437  1.1752
   64MOL0     H 8597  -1.267   5.820   7.116 -0.3764 -0.3086 -0.1574
   64MOL0     H 8598  -1.379   6.089   7.081  2.2181 -0.6133 -1.6365
   64MOL0     H 8599  -1.445   5.948   7.164  2.4196 -2.7320  1.5930
   64MOL0     H 8600  -1.451   5.774   6.746  2.1201 -1.3139  1.5454
   64MOL0     H 8601  -1.512   5.634   6.609 -1.2165  0.4725 -0.2027
   64MOL0     H 8602  -1.525   5.472   6.694 -0.5442 -0.3734 -3.6396
   64MOL0     H 8603  -1.664   5.562   6.620 -0.5572  2.8545  0.3994
   64MOL0     H 8604  -2.074   5.419   7.010  0.0205  0.1678 -3.1946
   64MOL0     H 8605  -2.228   5.220   7.015 -0.5803  1.6620 -0.3137
   64MOL0     H 8606  -2.297   4.898   6.882  0.8960 -2.3000 -3.2256
   64MOL0     H 8607  -2.277   5.082   6.867  1.1232  0.7349  2.1646
   64MOL0     H 8608  -2.113   5.044   6.690 -1.1439  0.8787  1.0000
   64MOL0     H 8609  -2.074   4.892   6.762  3.3726  2.2382  0.5204
   64MOL0     H 8610  -2.284   4.956   6.556  2.0898  0.8613 -0.6486
   64MOL0     H 8611  -2.320   4.815   6.667 -1.8379  0.7755 -3.3844
   64MOL0     H 8612  -2.038   4.847   6.514  0.3167 -0.6097  1.9402
   64MOL0     H 8613  -2.107   4.715   6.599 -1.5764  0.4200  0.4975
   64MOL0     H 8614  -2.248   4.829   6.355  3.6013 -0.8505 -2.0826
   64MOL0     H 8615  -2.298   4.699   6.470  0.9545  0.5843  2.6979
   64MOL0     H 8616  -2.036   4.736   6.307  2.8546 -3.2468 -1.8616
   64MOL0     H 8617  -2.069   4.592   6.405  0.1650  0.1216 -0.8149
   64MOL0     H 8618  -2.269   4.565   6.230 -0.3586  2.8444 -0.0792
   64MOL0     H 8619  -2.105   4.510   6.197 -2.2057 -0.9807 -0.6908
   64MOL0     H 8620  -2.217   4.790   6.123 -0.2553 -0.7762  2.5329
   64MOL0     H 8621  -2.223   4.664   6.016  0.9615  1.2232 -1.1361
   64MOL0     H 8622  -1.899   4.958   6.958 -0.9051 -0.3033 -0.4873
   64MOL0     H 8623  -1.731   5.156   6.973  0.1175 -1.5157  3.8764
   64MOL0     H 8624  -1.783   5.642   7.092 -0.8260  0.3825 -0.7881
   64MOL0     H 8625  -1.624   5.812   7.150 -0.9002 -2.4530  1.1073
   64MOL0     H 8626   0.079   5.165   6.865 -0.6250  0.2356  0.7758
   64MOL0     H 8627   0.287   5.050   6.783  1.6634  0.4401  0.2319
   64MOL0     H 8628   0.600   4.672   6.889 -0.5470 -0.1992 -1.2663
   64MOL0     H 8629   0.786   4.541   6.802  0.2857 -0.4712  1.0387
   64MOL0     H 8630   0.932   4.472   6.582 -0.4970  0.7756  0.9342
   64MOL0     H 8631   0.972   4.619   6.492  0.3311 -0.7944  0.3738
   64MOL0     H 8632   1.127   4.413   6.482  0.7458  0.6063  0.4761
   64MOL0     H 8633   1.202   4.455   6.623 -1.3140 -2.4171  0.0756
   64MOL0     H 8634   1.238   4.698   6.506 -1.4994 -1.4950  2.3079
   64MOL0     H 8635   1.215   4.608   6.354 -0.0658  1.3390 -0.4920
   64MOL0     H 8636   1.452   4.631   6.397 -1.5501 -1.1324 -3.9713
   64MOL0     H 8637   1.388   4.463   6.402 -2.6263  0.9993 -0.9280
   64MOL0     H 8638   1.538   4.538   6.795 -0.0820  0.0480  0.2532
   64MOL0     H 8639   0.973   4.888   6.648  0.1624 -0.9871  0.3965
   64MOL0     H 8640   0.790   5.025   6.728  1.2300 -0.8455  0.0690
   65MOL0     O 8641   6.136   7.121   2.019  0.0734 -0.2857 -0.0703
   65MOL0     C 8642   6.147   7.232   2.067 -0.9846 -0.9075  0.6578
   65MOL0     O 8643   6.052   7.315   2.115  0.8698 -0.1225  0.3529
   65MOL0     C 8644   5.916   7.304   2.083 -0.3045  0.1318 -0.0958
   65MOL0     C 8645   5.849   7.419   2.056  0.5063 -0.3429  0.1820
   65MOL0     C 8646   5.715   7.420   2.021  0.1156 -1.1763 -0.4478
   65MOL0     C 8647   5.645   7.310   2.002  0.0070 -0.1001  0.1367
   65MOL0     O 8648   5.510   7.335   1.972  0.4600  0.0980  0.3193
   65MOL0     C 8649   5.423   7.223   1.952 -0.8612 -0.3352  0.0381
   65MOL0     C 8650   5.314   7.262   1.862  0.2532  0.0485  0.5826
   65MOL0     C 8651   5.178   7.308   1.923 -0.3684  0.0167  0.8683
   65MOL0     C 8652   5.077   7.324   1.806 -1.5355 -0.2247  0.2470
   65MOL0     C 8653   5.052   7.475   1.778  1.1512 -0.5173 -0.3731
   65MOL0     C 8654   5.173   7.552   1.728 -0.8329  0.1403 -0.2032
   65MOL0     C 8655   5.141   7.688   1.687 -0.8844  0.1435 -0.1815
   65MOL0     C 8656   5.092   7.788   1.783  0.6322  0.1869 -0.1089
   65MOL0     N 8657   5.190   7.850   1.872 -0.7227  0.1612 -0.0461
   65MOL0     C 8658   5.248   7.784   1.979 -0.5079 -0.3597  0.2514
   65MOL0     C 8659   5.361   7.850   2.011 -0.0567  0.4254 -0.1281
   65MOL0     C 8660   5.447   7.805   2.128 -0.2318 -0.0022 -0.2959
   65MOL0     C 8661   5.594   7.792   2.110  0.0817  0.7496  0.1025
   65MOL0     C 8662   5.673   7.771   2.239  0.3180 -0.8826 -0.1176
   65MOL0     C 8663   5.828   7.760   2.218  0.5774 -0.5245  0.1584
   65MOL0     O 8664   5.873   7.870   2.134 -0.1015  0.0589 -0.2989
   65MOL0     C 8665   5.997   7.865   2.084 -0.5858  0.3234 -0.2337
   65MOL0     C 8666   6.045   7.953   1.995 -0.1798  0.1163  0.0843
   65MOL0     C 8667   6.178   7.953   1.952  0.8295 -1.2110 -0.2853
   65MOL0     C 8668   6.206   8.050   1.845  0.2435  0.1567 -0.2227
   65MOL0     C 8669   6.269   7.861   2.007 -0.4835  0.2399 -0.2633
   65MOL0     C 8670   6.411   7.869   1.979 -0.2738  0.2340 -0.1190
   65MOL0     O 8671   6.467   7.989   1.952 -0.6465  0.4537  0.2340
   65MOL0     C 8672   6.603   8.007   1.936  0.3922 -0.3396  0.4543
   65MOL0     C 8673   6.656   8.057   1.817  0.2000  0.1750  0.1561
   65MOL0     C 8674   6.793   8.084   1.798  0.2454  0.3463  0.5181
   65MOL0     C 8675   6.877   8.067   1.905 -0.8418 -1.0386  0.2006
   65MOL0     O 8676   7.014   8.073   1.882  0.2425  0.6793  0.2348
   65MOL0     C 8677   7.070   8.181   1.803 -0.6504  0.0851 -0.1876
   65MOL0     C 8678   7.157   8.279   1.883  0.0245 -0.6915  0.6938
   65MOL0     C 8679   7.262   8.205   1.963  0.4344  0.8270 -0.0629
   65MOL0     C 8680   7.386   8.290   1.991 -0.1667  0.7453 -0.6834
   65MOL0     C 8681   7.497   8.192   2.052 -0.1925 -0.0435  1.3856
   65MOL0     C 8682   7.634   8.256   2.073 -0.2043  0.0814 -0.1491
   65MOL0     C 8683   7.694   8.348   1.966  0.6474  0.0501 -0.0161
   65MOL0     C 8684   7.761   8.267   1.856  0.6156 -0.2113 -0.5540
   65MOL0    Cl 8685   7.638   8.260   1.725  0.1955 -0.4331 -0.0130
   65MOL0     C 8686   6.825   8.049   2.030 -0.0207  0.5218  0.0738
   65MOL0     C 8687   6.686   8.010   2.047 -0.4549  0.0149 -0.5011
   65MOL0     O 8688   6.476   7.765   1.996 -0.0010  0.6314 -0.4987
   65MOL0     C 8689   6.224   7.757   2.088  0.3216 -1.5144  0.2386
   65MOL0     C 8690   6.087   7.766   2.126  0.1595  0.4048  0.1299
   65MOL0     N 8691   5.362   7.960   1.927  0.1285  0.1862 -0.0804
   65MOL0     N 8692   5.260   7.959   1.843 -0.6159  0.5687 -0.0113
   65MOL0     C 8693   5.708   7.187   2.030  0.2905  0.0915 -0.0196
   65MOL0     C 8694   5.842   7.181   2.072  1.0397  0.3369  0.8413
   65MOL0     C 8695   6.288   7.280   2.076 -0.8383  0.8520 -0.1167
   65MOL0     C 8696   6.398   7.191   2.050 -0.8700  0.1145  0.5042
   65MOL0     C 8697   6.530   7.239   2.039  0.3201  0.3802  0.2806
   65MOL0     C 8698   6.560   7.371   2.063  0.2518 -0.0551 -0.7076
   65MOL0     O 8699   6.685   7.420   2.034 -0.6924  0.2013 -0.0690
   65MOL0     C 8700   6.710   7.557   2.071  0.4443 -0.1197  0.2689
   65MOL0     C 8701   6.856   7.597   2.044 -0.2572  0.1665 -0.2201
   65MOL0     C 8702   6.882   7.674   1.916 -0.1308 -1.4245  0.5419
   65MOL0     C 8703   7.014   7.749   1.911  0.1796  0.0347  0.4269
   65MOL0     C 8704   7.131   7.666   1.948  0.1464  0.2583  1.5003
   65MOL0     C 8705   7.219   7.579   1.963  0.4477  0.5430  0.2472
   65MOL0     C 8706   6.452   7.451   2.106  0.4579  0.0336  0.4088
   65MOL0     C 8707   6.318   7.407   2.119  0.4937  0.5475  0.5469
   65MOL0     H 8708   5.908   7.509   2.072 -0.9041  1.0834 -2.1181
   65MOL0     H 8709   5.659   7.511   1.999  0.8932 -0.5324  0.1809
   65MOL0     H 8710   5.480   7.159   1.884 -1.4438  0.1807 -0.9445
   65MOL0     H 8711   5.398   7.164   2.041  0.6133 -0.6302  0.2921
   65MOL0     H 8712   5.346   7.341   1.793 -2.8566  0.9592  0.0071
   65MOL0     H 8713   5.285   7.176   1.801  0.1533  0.6033 -0.1651
   65MOL0     H 8714   5.145   7.227   1.988  0.1528 -0.3698  0.6549
   65MOL0     H 8715   5.199   7.405   1.969  0.3362  0.3086 -0.0264
   65MOL0     H 8716   5.113   7.283   1.711  1.0835  1.7091  0.3361
   65MOL0     H 8717   4.976   7.286   1.827 -2.0994  0.9745 -0.1943
   65MOL0     H 8718   4.973   7.473   1.703 -0.9669  1.0958  1.6754
   65MOL0     H 8719   4.998   7.514   1.865 -1.2552 -1.8459 -1.1798
   65MOL0     H 8720   5.255   7.547   1.800 -1.5909 -1.7279  0.6069
   65MOL0     H 8721   5.205   7.506   1.635 -2.8162 -1.9992  0.0762
   65MOL0     H 8722   5.231   7.734   1.645 -1.8804  2.3141 -0.0841
   65MOL0     H 8723   5.075   7.685   1.600 -0.9955 -3.7961 -0.1287
   65MOL0     H 8724   5.004   7.746   1.833  0.4674 -1.1340 -1.4322
   65MOL0     H 8725   5.067   7.873   1.720 -1.2113  0.5386  1.0016
   65MOL0     H 8726   5.222   7.684   2.011  1.8700 -0.8808  0.7106
   65MOL0     H 8727   5.420   7.882   2.201 -5.0092  1.6321 -3.3270
   65MOL0     H 8728   5.414   7.710   2.169  1.2700 -0.2032  0.5192
   65MOL0     H 8729   5.622   7.873   2.042 -1.5560 -0.3401 -2.0062
   65MOL0     H 8730   5.608   7.707   2.042 -1.7002  1.4094 -1.1522
   65MOL0     H 8731   5.645   7.683   2.298  1.9727 -1.2671  0.1647
   65MOL0     H 8732   5.658   7.863   2.296 -3.5448 -0.4133 -1.6240
   65MOL0     H 8733   5.854   7.664   2.172  2.0840 -0.3991  0.6853
   65MOL0     H 8734   5.870   7.747   2.318 -0.9203 -2.1272  0.6348
   65MOL0     H 8735   5.977   8.032   1.964 -0.2239 -0.6063 -1.7895
   65MOL0     H 8736   6.252   8.138   1.890 -0.7800  0.0409  1.1254
   65MOL0     H 8737   6.276   8.009   1.771  2.1115  0.7266  1.1565
   65MOL0     H 8738   6.112   8.088   1.803 -0.5003 -0.7287  0.5768
   65MOL0     H 8739   6.589   8.078   1.734  0.2973 -2.3736 -0.6688
   65MOL0     H 8740   6.832   8.113   1.701  3.8996 -0.3263  1.6347
   65MOL0     H 8741   7.133   8.137   1.725  0.6446  4.6400 -2.0044
   65MOL0     H 8742   6.989   8.236   1.753 -1.4293 -0.9513 -0.0993
   65MOL0     H 8743   7.200   8.356   1.818  1.0806 -0.8909  1.1285
   65MOL0     H 8744   7.092   8.330   1.954  1.3277  1.5556  0.3814
   65MOL0     H 8745   7.289   8.125   1.894  1.0654  0.4635  0.5786
   65MOL0     H 8746   7.223   8.167   2.058 -1.5852  0.0252 -1.1584
   65MOL0     H 8747   7.424   8.321   1.893  0.2066  0.5442 -0.6013
   65MOL0     H 8748   7.375   8.384   2.047  1.6951  0.0433  0.9766
   65MOL0     H 8749   7.523   8.109   1.985 -0.0831  1.2278 -0.1954
   65MOL0     H 8750   7.462   8.154   2.149 -0.9771  1.2708  1.6400
   65MOL0     H 8751   7.612   8.318   2.161 -2.7762 -1.1221  0.1340
   65MOL0     H 8752   7.700   8.185   2.123 -2.0233  0.4291  3.0184
   65MOL0     H 8753   7.765   8.408   2.023 -0.6757 -1.0320  2.9655
   65MOL0     H 8754   7.619   8.416   1.924 -0.8263  0.3701  2.8547
   65MOL0     H 8755   7.801   8.171   1.888  2.7880  0.7969 -0.0463
   65MOL0     H 8756   7.853   8.319   1.826  1.7247 -0.9308  1.4412
   65MOL0     H 8757   6.896   8.049   2.113 -0.6936 -0.6899  0.6957
   65MOL0     H 8758   6.644   7.989   2.144  0.8578 -0.4332  0.0007
   65MOL0     H 8759   6.301   7.691   2.125  2.5911  0.7072 -0.2731
   65MOL0     H 8760   6.061   7.684   2.191 -4.3172  0.8796 -0.7520
   65MOL0     H 8761   5.659   7.090   2.025  0.4590  0.0048  0.0145
   65MOL0     H 8762   5.890   7.090   2.105  0.8654  0.0438  0.2861
   65MOL0     H 8763   6.378   7.090   2.018  1.5630 -0.3306  0.2369
   65MOL0     H 8764   6.606   7.177   1.993  1.9510  2.0712  0.5841
   65MOL0     H 8765   6.642   7.614   2.007  2.1881 -1.3976 -2.9832
   65MOL0     H 8766   6.686   7.566   2.177 -0.7180  0.1505  0.0015
   65MOL0     H 8767   6.922   7.511   2.062 -1.2546 -0.6879 -0.5613
   65MOL0     H 8768   6.885   7.663   2.127 -3.2064 -1.3739  2.2201
   65MOL0     H 8769   6.800   7.746   1.906  1.0699 -0.2860 -1.9087
   65MOL0     H 8770   6.868   7.617   1.824  1.2732 -0.8063 -0.0692
   65MOL0     H 8771   7.008   7.834   1.980  0.9943 -0.2334  0.8457
   65MOL0     H 8772   7.024   7.798   1.813 -3.5649 -1.7564 -1.0366
   65MOL0     H 8773   7.286   7.510   2.010 -2.4449 -1.0383  2.3817
   65MOL0     H 8774   6.465   7.558   2.119 -2.0167  0.4112  0.4065
   65MOL0     H 8775   6.236   7.473   2.146  0.3203  0.2113  0.8616
   66MOL0     O 8776   6.092   5.532   3.115  0.2411  0.7528 -0.5771
   66MOL0     C 8777   6.036   5.454   3.196 -0.4037  0.5354  0.4614
   66MOL0     O 8778   5.905   5.418   3.199  0.0514  0.6833 -1.0514
   66MOL0     C 8779   5.851   5.429   3.075  0.8002 -0.4256  0.1206
   66MOL0     C 8780   5.877   5.331   2.980  0.4036 -0.0803  0.6105
   66MOL0     C 8781   5.816   5.338   2.858  0.1271  0.0161 -1.7217
   66MOL0     C 8782   5.713   5.432   2.831 -1.7513  0.3085  0.0852
   66MOL0     O 8783   5.644   5.410   2.714  1.1820  0.5863  0.5065
   66MOL0     C 8784   5.517   5.472   2.710 -0.3483 -0.2965  1.0803
   66MOL0     C 8785   5.455   5.441   2.573  0.7098 -1.1581  0.2853
   66MOL0     C 8786   5.390   5.304   2.555  0.1823  0.5008  0.5787
   66MOL0     C 8787   5.314   5.273   2.431 -0.5901  0.1109  0.2745
   66MOL0     C 8788   5.277   5.122   2.451 -0.3855  0.0809  0.2998
   66MOL0     C 8789   5.220   5.078   2.315 -0.0985  1.1840 -0.1339
   66MOL0     C 8790   5.209   4.921   2.305  0.1725  0.0770  0.0169
   66MOL0     C 8791   5.171   4.862   2.167 -0.3028 -0.0118 -0.4618
   66MOL0     N 8792   5.049   4.912   2.110 -0.4506  0.5887 -0.0394
   66MOL0     C 8793   4.914   4.869   2.138 -0.8524 -0.1632  0.4960
   66MOL0     C 8794   4.830   4.944   2.067 -0.0364 -0.5061  0.3902
   66MOL0     C 8795   4.688   4.945   2.086  0.5146  0.5122 -0.7238
   66MOL0     C 8796   4.630   4.824   2.011 -0.2531 -0.6265  0.5714
   66MOL0     C 8797   4.515   4.766   2.098 -0.1685  0.3350 -0.6242
   66MOL0     C 8798   4.459   4.628   2.056  0.0104 -0.1669 -0.2580
   66MOL0     O 8799   4.565   4.537   2.077 -0.0982 -0.0671 -0.3045
   66MOL0     C 8800   4.544   4.404   2.055  0.8167 -0.3595  0.1208
   66MOL0     C 8801   4.653   4.322   2.046 -0.6104 -0.7694 -0.5488
   66MOL0     C 8802   4.643   4.185   2.011 -0.2587 -0.7850 -0.0640
   66MOL0     C 8803   4.772   4.114   1.981 -0.8695 -0.3546 -0.1256
   66MOL0     C 8804   4.511   4.121   1.993  0.3816  0.2702  0.6964
   66MOL0     C 8805   4.492   3.980   1.973 -0.1851  0.4036 -0.5607
   66MOL0     O 8806   4.374   3.947   1.909 -0.2295 -0.1635  0.2053
   66MOL0     C 8807   4.336   3.811   1.899 -0.3972 -0.8896  1.2061
   66MOL0     C 8808   4.200   3.788   1.878  0.7573  0.3808  0.6135
   66MOL0     C 8809   4.151   3.658   1.839  0.3349  0.4507 -0.5131
   66MOL0     C 8810   4.237   3.554   1.825 -0.2111  0.4567  0.4609
   66MOL0     O 8811   4.180   3.426   1.817 -0.4488  0.2453  0.9687
   66MOL0     C 8812   4.254   3.306   1.796  0.3089 -0.6086  0.6536
   66MOL0     C 8813   4.167   3.178   1.841 -0.4007  1.0063 -0.0878
   66MOL0     C 8814   4.056   3.124   1.746 -0.4915  0.6196 -0.0405
   66MOL0     C 8815   3.924   3.170   1.800  0.2010 -0.3216  0.6178
   66MOL0     C 8816   3.808   3.143   1.696 -0.7467 -0.0011 -0.5241
   66MOL0     C 8817   3.673   3.208   1.747 -0.6753  0.0086  0.5583
   66MOL0     C 8818   3.563   3.225   1.635  0.3450 -0.0711 -0.8024
   66MOL0     C 8819   3.428   3.251   1.679 -0.3040 -0.2791  0.4033
   66MOL0    Cl 8820   3.402   3.382   1.785 -0.3976 -0.1465  0.6213
   66MOL0     C 8821   4.379   3.572   1.844  1.0724 -0.1796 -0.0985
   66MOL0     C 8822   4.420   3.704   1.880  0.5726 -0.5079  0.0042
   66MOL0     O 8823   4.576   3.901   2.013  0.1711  0.0959 -0.0132
   66MOL0     C 8824   4.395   4.211   2.007 -0.4013  1.3168  0.7487
   66MOL0     C 8825   4.413   4.348   2.034 -1.2964 -0.5359 -0.6143
   66MOL0     N 8826   4.908   5.042   1.999 -0.0091  0.4847 -0.8116
   66MOL0     N 8827   5.030   5.019   2.030 -0.3300 -0.3495  0.2637
   66MOL0     C 8828   5.684   5.514   2.936  0.4584  0.3343  0.5692
   66MOL0     C 8829   5.747   5.518   3.057  0.1431 -0.9179  0.7046
   66MOL0     C 8830   6.127   5.391   3.290  0.1360  0.6885  0.4134
   66MOL0     C 8831   6.239   5.471   3.334 -1.8528  0.3430 -0.1250
   66MOL0     C 8832   6.312   5.424   3.443 -0.1724  0.0472 -0.3641
   66MOL0     C 8833   6.288   5.296   3.503  0.5741 -0.0488 -1.1408
   66MOL0     O 8834   6.370   5.271   3.618 -0.0295 -0.2624  0.7041
   66MOL0     C 8835   6.301   5.226   3.735  0.1574  0.0287  0.9802
   66MOL0     C 8836   6.179   5.308   3.774  0.2390  0.2509  0.5000
   66MOL0     C 8837   6.206   5.437   3.849  1.3149  0.2674 -0.2125
   66MOL0     C 8838   6.220   5.572   3.765  0.9758 -0.6997  0.1712
   66MOL0     C 8839   6.231   5.693   3.845 -0.4577  1.1725 -0.7978
   66MOL0     C 8840   6.242   5.800   3.912  0.0711 -0.3118 -0.0165
   66MOL0     C 8841   6.176   5.219   3.461  0.3971  0.9906  0.9620
   66MOL0     C 8842   6.094   5.270   3.354 -0.3184 -0.5938  0.0094
   66MOL0     H 8843   5.953   5.258   3.005  0.1350  0.0052  1.7389
   66MOL0     H 8844   5.845   5.254   2.796 -0.4214  0.7285 -2.9823
   66MOL0     H 8845   5.458   5.424   2.789 -1.0327 -1.3419 -0.0169
   66MOL0     H 8846   5.534   5.578   2.729  1.6002 -0.3792  0.0689
   66MOL0     H 8847   5.383   5.521   2.553 -1.5450 -2.8802  1.1321
   66MOL0     H 8848   5.536   5.448   2.499  0.5753  0.9832  0.2652
   66MOL0     H 8849   5.475   5.234   2.556 -0.8956 -1.2435 -3.8356
   66MOL0     H 8850   5.325   5.281   2.639 -1.2207  0.4055 -0.4954
   66MOL0     H 8851   5.230   5.343   2.425 -1.1376 -0.4800  0.8260
   66MOL0     H 8852   5.377   5.292   2.344  0.9350  1.9397  1.6990
   66MOL0     H 8853   5.361   5.057   2.480 -0.5399  0.3813  1.4855
   66MOL0     H 8854   5.206   5.111   2.534  1.8932 -0.5444  2.3167
   66MOL0     H 8855   5.121   5.118   2.295 -0.6914  0.6932  1.6500
   66MOL0     H 8856   5.289   5.114   2.238  0.3012  1.3594  0.2996
   66MOL0     H 8857   5.307   4.886   2.338 -0.6005  0.2117  2.7142
   66MOL0     H 8858   5.139   4.888   2.382  2.0089  2.6287  3.0554
   66MOL0     H 8859   5.165   4.753   2.179 -0.8163  0.1091  0.5172
   66MOL0     H 8860   5.239   4.884   2.084 -0.8274  0.1270 -0.8547
   66MOL0     H 8861   4.882   4.797   2.213 -2.0763 -0.8322 -0.6268
   66MOL0     H 8862   4.647   4.957   2.186  1.1450  0.3337 -0.4363
   66MOL0     H 8863   4.642   5.036   2.046 -0.0858  1.8285  2.6062
   66MOL0     H 8864   4.714   4.756   2.000 -0.1424 -0.7530  1.9509
   66MOL0     H 8865   4.599   4.871   1.917  3.6864  0.3227 -0.4088
   66MOL0     H 8866   4.430   4.834   2.113 -0.2498  0.1764 -0.3661
   66MOL0     H 8867   4.554   4.745   2.198 -1.2636 -1.1398 -0.4811
   66MOL0     H 8868   4.425   4.624   1.952  0.4267  2.2262 -0.5505
   66MOL0     H 8869   4.376   4.606   2.124 -1.0255  2.0784 -0.7081
   66MOL0     H 8870   4.746   4.371   2.071 -0.5546  0.0081 -2.1621
   66MOL0     H 8871   4.851   4.190   1.980 -0.9621 -0.2630 -0.7550
   66MOL0     H 8872   4.800   4.036   2.053  0.3654 -1.4466 -1.7248
   66MOL0     H 8873   4.771   4.065   1.883  0.3708 -0.5080 -0.0829
   66MOL0     H 8874   4.134   3.874   1.886  0.2298 -0.0820  1.4855
   66MOL0     H 8875   4.044   3.642   1.849  0.6101 -3.0734 -1.5836
   66MOL0     H 8876   4.298   3.308   1.697  0.7609 -0.0240  0.8669
   66MOL0     H 8877   4.331   3.308   1.873 -0.8140 -0.6074  1.8197
   66MOL0     H 8878   4.244   3.101   1.848  0.5910  1.9943  0.0936
   66MOL0     H 8879   4.131   3.188   1.943 -0.9220 -0.9609 -0.0401
   66MOL0     H 8880   4.050   3.015   1.753  1.3875  0.5208  0.3802
   66MOL0     H 8881   4.081   3.152   1.643 -0.1183 -1.3833 -0.5286
   66MOL0     H 8882   3.889   3.108   1.883 -3.7514 -1.1442 -1.3841
   66MOL0     H 8883   3.928   3.278   1.817  0.4533  0.2395 -2.3558
   66MOL0     H 8884   3.791   3.036   1.679  1.4975 -0.8188  1.6844
   66MOL0     H 8885   3.834   3.186   1.599  0.2324  0.2837 -0.1510
   66MOL0     H 8886   3.630   3.152   1.831 -1.7686  0.5200  0.3593
   66MOL0     H 8887   3.703   3.308   1.781  1.6741  0.2819 -1.9851
   66MOL0     H 8888   3.560   3.139   1.568  2.0354 -2.4468  1.9198
   66MOL0     H 8889   3.587   3.315   1.577  0.2861  1.5551  1.5706
   66MOL0     H 8890   3.390   3.157   1.720 -0.9665 -0.3512 -0.3514
   66MOL0     H 8891   3.370   3.284   1.592  1.5721  0.9015 -0.4602
   66MOL0     H 8892   4.455   3.497   1.823  2.6204  1.2025  0.3639
   66MOL0     H 8893   4.526   3.718   1.893  0.6325 -0.1550 -0.8204
   66MOL0     H 8894   4.298   4.171   1.978  0.6279 -1.1063  0.4654
   66MOL0     H 8895   4.320   4.403   2.034 -1.1892 -0.0825  2.8237
   66MOL0     H 8896   5.603   5.586   2.935 -2.1971 -2.4029  1.5409
   66MOL0     H 8897   5.720   5.599   3.124 -1.0064  1.7364 -2.6659
   66MOL0     H 8898   6.261   5.568   3.291  0.9467 -0.5484 -0.9112
   66MOL0     H 8899   6.391   5.480   3.493 -2.5895  2.2435  1.2552
   66MOL0     H 8900   6.266   5.124   3.716 -3.2534  1.5449 -2.1008
   66MOL0     H 8901   6.375   5.215   3.814  2.7187 -2.5367 -1.5272
   66MOL0     H 8902   6.121   5.246   3.844 -0.3370  2.1435  1.7880
   66MOL0     H 8903   6.106   5.320   3.694  0.3080 -0.3066  0.3494
   66MOL0     H 8904   6.282   5.425   3.927  0.5543  1.7236  0.8114
   66MOL0     H 8905   6.115   5.466   3.902 -1.9305 -1.6608 -4.2267
   66MOL0     H 8906   6.133   5.576   3.699  0.9493 -2.0600  0.0838
   66MOL0     H 8907   6.299   5.577   3.689  1.1414  0.0730  0.3854
   66MOL0     H 8908   6.244   5.899   3.953 -3.6508  0.0290 -0.3739
   66MOL0     H 8909   6.152   5.134   3.523  1.4616  1.1047  1.5736
   66MOL0     H 8910   6.001   5.219   3.332 -1.4319  1.5299 -0.4461
   67MOL0     O 8911   7.624   6.480   3.454  0.0043  0.3135 -0.0005
   67MOL0     C 8912   7.690   6.491   3.347 -0.0917 -0.4533 -0.3910
   67MOL0     O 8913   7.644   6.561   3.242  0.2748 -0.1011  0.6918
   67MOL0     C 8914   7.510   6.560   3.222  0.7099 -0.1687 -0.0176
   67MOL0     C 8915   7.445   6.439   3.191 -0.1830 -0.5063 -0.8675
   67MOL0     C 8916   7.312   6.438   3.173  0.9988  0.1105 -0.3627
   67MOL0     C 8917   7.230   6.555   3.187  0.7089 -0.6102  0.5981
   67MOL0     O 8918   7.091   6.547   3.178  0.4563  0.8067 -0.4325
   67MOL0     C 8919   7.044   6.455   3.076  0.5680  0.1200  0.0356
   67MOL0     C 8920   6.911   6.505   3.019  1.3366 -0.5009  0.9569
   67MOL0     C 8921   6.801   6.504   3.114  0.1621  1.7572 -0.0153
   67MOL0     C 8922   6.655   6.515   3.050 -0.3840 -0.1211 -0.3266
   67MOL0     C 8923   6.571   6.641   3.081  0.0090 -0.2773  0.1766
   67MOL0     C 8924   6.531   6.645   3.230 -0.2272 -0.3678 -0.3552
   67MOL0     C 8925   6.408   6.565   3.274 -0.1344 -0.0538 -0.2520
   67MOL0     C 8926   6.275   6.622   3.214  0.3909 -0.5734 -0.8411
   67MOL0     N 8927   6.167   6.569   3.301 -0.5588 -0.1146 -0.5022
   67MOL0     C 8928   6.090   6.633   3.401 -0.0392  0.1972 -0.0409
   67MOL0     C 8929   6.018   6.532   3.454  0.1527 -0.1077  0.6014
   67MOL0     C 8930   5.908   6.538   3.561  0.5650  0.3349 -0.3435
   67MOL0     C 8931   5.760   6.544   3.497  0.3047  0.1021 -0.8591
   67MOL0     C 8932   5.657   6.462   3.582 -0.2252 -0.2488 -0.1708
   67MOL0     C 8933   5.524   6.465   3.505  0.2318  0.8200  0.2912
   67MOL0     O 8934   5.478   6.594   3.486  0.4430 -0.0189 -0.1423
   67MOL0     C 8935   5.358   6.606   3.411  0.5088  0.2203 -0.4714
   67MOL0     C 8936   5.265   6.501   3.378 -0.2897  0.4729  0.1989
   67MOL0     C 8937   5.148   6.523   3.305 -0.1622  0.1500 -0.5132
   67MOL0     C 8938   5.056   6.400   3.277  0.2575  0.1875 -0.8502
   67MOL0     C 8939   5.115   6.651   3.264  1.2216  0.2155 -0.5315
   67MOL0     C 8940   4.989   6.673   3.201 -0.3475 -0.4993  0.1876
   67MOL0     O 8941   4.987   6.730   3.078  0.0916  0.3567  0.4001
   67MOL0     C 8942   4.867   6.752   3.023  0.3446 -0.0997  0.0527
   67MOL0     C 8943   4.818   6.885   3.002  0.1634  0.1198  0.4713
   67MOL0     C 8944   4.693   6.907   2.946 -0.4047  0.1617  2.0175
   67MOL0     C 8945   4.628   6.796   2.888  0.3505 -0.8305  0.3382
   67MOL0     O 8946   4.510   6.807   2.829 -0.0714  0.0858  0.5982
   67MOL0     C 8947   4.417   6.911   2.872 -1.2044  0.7146  0.3025
   67MOL0     C 8948   4.285   6.858   2.836  0.0700 -0.3813 -0.4319
   67MOL0     C 8949   4.262   6.855   2.687 -0.2694 -0.9223 -0.7758
   67MOL0     C 8950   4.115   6.829   2.646 -0.2064 -0.9382 -0.4929
   67MOL0     C 8951   4.038   6.961   2.672 -0.7447  0.0286 -0.0785
   67MOL0     C 8952   3.880   6.965   2.655 -0.1294  0.4949  0.9089
   67MOL0     C 8953   3.838   6.905   2.524 -0.7802  0.3780  0.2455
   67MOL0     C 8954   3.681   6.918   2.503 -0.3252 -0.0316 -0.4419
   67MOL0    Cl 8955   3.629   7.093   2.498  0.3627  0.1402  0.4410
   67MOL0     C 8956   4.675   6.668   2.891  0.1996 -0.2656  0.7902
   67MOL0     C 8957   4.793   6.645   2.967 -0.3409 -0.3894 -1.0431
   67MOL0     O 8958   4.890   6.648   3.270 -0.0175  0.7231  0.2499
   67MOL0     C 8959   5.204   6.758   3.289  0.1444 -0.2083 -0.5287
   67MOL0     C 8960   5.320   6.732   3.364 -0.1402 -0.2652 -0.8929
   67MOL0     N 8961   6.049   6.414   3.388 -0.8948 -0.0541  0.2012
   67MOL0     N 8962   6.136   6.435   3.305 -0.3018  0.3920 -0.3085
   67MOL0     C 8963   7.292   6.677   3.214 -0.4539 -0.7189  0.1092
   67MOL0     C 8964   7.434   6.675   3.233 -0.2495  0.0389 -0.3127
   67MOL0     C 8965   7.828   6.444   3.341 -0.3568  0.2180  0.1010
   67MOL0     C 8966   7.889   6.382   3.450 -0.0397 -0.2883 -0.2687
   67MOL0     C 8967   8.013   6.317   3.441  1.2482 -0.3325  0.3730
   67MOL0     C 8968   8.081   6.320   3.317  0.2600 -0.7073 -0.5725
   67MOL0     O 8969   8.199   6.266   3.295 -0.9196 -0.0173 -0.6281
   67MOL0     C 8970   8.272   6.190   3.402  0.2648 -0.2508  1.3322
   67MOL0     C 8971   8.347   6.286   3.491 -0.5964  0.3182  0.3531
   67MOL0     C 8972   8.451   6.358   3.405 -0.2710 -0.0646 -0.0993
   67MOL0     C 8973   8.545   6.447   3.481 -0.1674  0.2007 -0.5235
   67MOL0     C 8974   8.612   6.381   3.596  0.6168  0.0885  0.0349
   67MOL0     C 8975   8.664   6.319   3.690  0.4860 -0.9870 -0.3433
   67MOL0     C 8976   8.031   6.405   3.219 -0.1883  0.1549  0.3439
   67MOL0     C 8977   7.907   6.459   3.231  0.4171  0.3739  0.3552
   67MOL0     H 8978   7.508   6.351   3.181  0.5806 -0.5224  2.7841
   67MOL0     H 8979   7.275   6.340   3.144  0.0667 -0.4040  2.3071
   67MOL0     H 8980   7.106   6.450   2.986 -2.1649  0.3402 -1.9838
   67MOL0     H 8981   7.030   6.352   3.112 -1.3149  0.4058  0.1939
   67MOL0     H 8982   6.943   6.608   3.002  4.2961 -1.4744 -0.0337
   67MOL0     H 8983   6.882   6.473   2.918  1.4325  1.3223  0.3098
   67MOL0     H 8984   6.807   6.402   3.153  2.0579  1.6451 -0.4959
   67MOL0     H 8985   6.822   6.574   3.195 -0.4322  0.7852  1.0035
   67MOL0     H 8986   6.666   6.503   2.942  0.1269 -0.0104 -0.2875
   67MOL0     H 8987   6.587   6.434   3.078 -1.5686  0.3152 -1.7841
   67MOL0     H 8988   6.624   6.732   3.051 -3.3846  1.7173 -0.2957
   67MOL0     H 8989   6.482   6.639   3.016  1.5060 -3.1777 -2.0592
   67MOL0     H 8990   6.620   6.625   3.292  0.4553  0.2412 -1.1175
   67MOL0     H 8991   6.497   6.746   3.253 -2.2068 -1.7575  3.9207
   67MOL0     H 8992   6.424   6.461   3.242  2.5823  0.7713 -1.9014
   67MOL0     H 8993   6.417   6.562   3.383  1.0919  0.7069 -0.3128
   67MOL0     H 8994   6.263   6.593   3.109  2.3183  0.0014 -1.2622
   67MOL0     H 8995   6.272   6.731   3.217  0.3161 -0.5935 -0.1251
   67MOL0     H 8996   6.096   6.740   3.417  0.6606  0.0527  0.7433
   67MOL0     H 8997   5.903   6.449   3.624  0.6406  2.5170  3.0229
   67MOL0     H 8998   5.929   6.614   3.637 -2.2998  0.3051  0.5842
   67MOL0     H 8999   5.760   6.492   3.401  0.9653  0.8157 -1.2567
   67MOL0     H 9000   5.728   6.648   3.483  0.4163  0.9230  3.5105
   67MOL0     H 9001   5.647   6.508   3.681 -0.0067  1.2753 -0.8346
   67MOL0     H 9002   5.691   6.358   3.590  1.6737  0.2067 -1.6833
   67MOL0     H 9003   5.451   6.416   3.569 -0.4641  1.8524  0.3132
   67MOL0     H 9004   5.533   6.413   3.409 -1.6902  3.0983 -1.2534
   67MOL0     H 9005   5.296   6.398   3.392  0.8239  0.5428 -1.5119
   67MOL0     H 9006   5.038   6.398   3.169 -1.4133  0.7479 -0.6088
   67MOL0     H 9007   5.109   6.309   3.306  0.0855  0.2235 -0.4219
   67MOL0     H 9008   4.959   6.406   3.327  0.7553  4.0785  0.0010
   67MOL0     H 9009   4.873   6.959   3.059  1.4467 -1.2344  1.0508
   67MOL0     H 9010   4.662   7.010   2.942 -1.6359 -0.2197  1.3790
   67MOL0     H 9011   4.424   6.935   2.979 -1.3528  2.6137 -0.0763
   67MOL0     H 9012   4.451   7.000   2.819  0.1363 -0.2500 -0.5282
   67MOL0     H 9013   4.269   6.754   2.869  1.4652  0.3643  2.9745
   67MOL0     H 9014   4.209   6.923   2.880  0.7106  1.3541 -1.7890
   67MOL0     H 9015   4.307   6.759   2.663  1.1529 -1.1189  2.2413
   67MOL0     H 9016   4.303   6.946   2.642 -0.7131  0.9624  2.3593
   67MOL0     H 9017   4.119   6.797   2.542 -0.5618 -0.8610 -0.5311
   67MOL0     H 9018   4.076   6.746   2.706 -1.5749 -1.0646 -1.5176
   67MOL0     H 9019   4.074   7.039   2.604  3.6270 -1.2368  0.5164
   67MOL0     H 9020   4.058   6.996   2.774 -1.1006 -3.1385  1.2018
   67MOL0     H 9021   3.841   6.901   2.735 -1.2331  2.5512  2.0790
   67MOL0     H 9022   3.838   7.064   2.673 -1.2738  0.1056  0.4670
   67MOL0     H 9023   3.856   6.797   2.526 -0.2588  0.3794 -2.1521
   67MOL0     H 9024   3.896   6.955   2.446 -1.8888  1.7676  0.2739
   67MOL0     H 9025   3.616   6.871   2.576 -0.8543 -1.2913 -1.6863
   67MOL0     H 9026   3.657   6.854   2.418 -1.5806 -0.8135  0.4718
   67MOL0     H 9027   4.609   6.584   2.872 -1.2350  0.6812  1.4407
   67MOL0     H 9028   4.813   6.541   2.989 -1.4238 -0.4027  0.0199
   67MOL0     H 9029   5.178   6.860   3.265  0.8426  0.3372  0.9630
   67MOL0     H 9030   5.378   6.821   3.386 -1.1242  0.5248 -1.3674
   67MOL0     H 9031   7.228   6.765   3.215 -3.3240 -2.6685 -0.6581
   67MOL0     H 9032   7.482   6.769   3.257 -0.7368  0.6266 -1.5606
   67MOL0     H 9033   7.838   6.385   3.546  1.4247  2.4192  0.5502
   67MOL0     H 9034   8.050   6.259   3.524 -0.5300 -0.3127  1.2193
   67MOL0     H 9035   8.200   6.135   3.463 -0.4200  0.3292  1.0600
   67MOL0     H 9036   8.340   6.116   3.357 -4.0064 -3.2961 -0.8794
   67MOL0     H 9037   8.396   6.224   3.567  1.7036  1.7074  0.0946
   67MOL0     H 9038   8.281   6.360   3.537 -1.4021  0.8250 -1.5214
   67MOL0     H 9039   8.395   6.416   3.331 -3.7179  0.3822  2.6385
   67MOL0     H 9040   8.518   6.284   3.360 -1.1638  0.1745 -1.9168
   67MOL0     H 9041   8.496   6.534   3.527 -0.9141 -0.3497 -0.2628
   67MOL0     H 9042   8.625   6.494   3.422  1.6126  1.1115  2.4344
   67MOL0     H 9043   8.719   6.269   3.768 -1.9793 -2.1955  0.7437
   67MOL0     H 9044   8.094   6.405   3.131 -0.5551  1.7473  0.0640
   67MOL0     H 9045   7.864   6.514   3.147  1.0543  1.3577  0.6560
   68MOL0     O 9046   4.857  10.679   1.669 -0.0063  0.4564 -0.0922
   68MOL0     C 9047   4.790  10.589   1.611  0.0955 -0.8646  0.5089
   68MOL0     O 9048   4.833  10.463   1.571  0.1507 -0.3811 -0.5780
   68MOL0     C 9049   4.956  10.412   1.593  0.8914  0.0060 -0.7460
   68MOL0     C 9050   5.030  10.416   1.715 -0.8161 -0.6380 -0.3342
   68MOL0     C 9051   5.150  10.346   1.721 -1.3608  0.4686 -0.4360
   68MOL0     C 9052   5.207  10.278   1.610  1.0288 -0.6336  0.1995
   68MOL0     O 9053   5.317  10.205   1.615  0.2771 -0.4829  0.4976
   68MOL0     C 9054   5.336  10.097   1.518  0.0444 -0.6524 -0.0709
   68MOL0     C 9055   5.437   9.991   1.559  0.2395 -1.3010 -0.3126
   68MOL0     C 9056   5.583  10.052   1.577  0.4688  0.6617  0.7964
   68MOL0     C 9057   5.680   9.972   1.494  0.9005  0.3111 -0.4977
   68MOL0     C 9058   5.821  10.023   1.481 -0.5278 -0.1493 -0.7887
   68MOL0     C 9059   5.917   9.947   1.392 -0.1546 -0.9395 -0.4579
   68MOL0     C 9060   6.070   9.980   1.417  0.2702 -0.4215 -0.0552
   68MOL0     C 9061   6.124  10.079   1.321  0.0662  0.2999 -0.3857
   68MOL0     N 9062   6.131  10.025   1.186 -0.5050  0.0347 -0.2325
   68MOL0     C 9063   6.033  10.063   1.097  0.7872  0.4336  0.3607
   68MOL0     C 9064   6.071  10.003   0.981  0.0804 -1.6109  0.7108
   68MOL0     C 9065   6.009  10.022   0.843  0.2217  0.3870 -0.1507
   68MOL0     C 9066   6.101  10.083   0.737  0.8480 -0.5427  0.2141
   68MOL0     C 9067   6.139  10.227   0.763 -1.3539  0.6238  0.0976
   68MOL0     C 9068   6.028  10.325   0.746  0.6258 -0.4987  0.4004
   68MOL0     O 9069   6.062  10.445   0.812  0.3018  0.3173  0.4757
   68MOL0     C 9070   6.014  10.452   0.937 -0.2802 -0.2245 -0.8244
   68MOL0     C 9071   6.097  10.451   1.051  0.6526  0.5467  0.2268
   68MOL0     C 9072   6.041  10.460   1.179  0.3223  0.3827 -0.4952
   68MOL0     C 9073   6.144  10.461   1.288  0.0169 -1.1736  0.0774
   68MOL0     C 9074   5.902  10.462   1.206  0.0922  0.5491  0.6500
   68MOL0     C 9075   5.841  10.453   1.336 -0.0314  0.3781 -1.2756
   68MOL0     O 9076   5.909  10.486   1.447  0.1744 -0.0959 -0.4679
   68MOL0     C 9077   5.857  10.451   1.564 -0.4392 -1.8987  0.3502
   68MOL0     C 9078   5.799  10.551   1.650 -0.7366  0.2207  0.1067
   68MOL0     C 9079   5.751  10.511   1.775 -0.2722 -0.5434 -0.5660
   68MOL0     C 9080   5.754  10.377   1.812 -0.1062  0.5667  0.6576
   68MOL0     O 9081   5.700  10.340   1.928  0.3504  0.4080 -0.4774
   68MOL0     C 9082   5.562  10.312   1.912  1.0747  0.6675  0.3740
   68MOL0     C 9083   5.546  10.166   1.976 -0.0668 -0.9466  0.7669
   68MOL0     C 9084   5.411  10.093   1.938 -0.4074  0.3032  0.5503
   68MOL0     C 9085   5.389   9.982   2.025 -0.2503  0.8477 -0.8575
   68MOL0     C 9086   5.264   9.892   1.976 -0.2059 -0.0527 -0.0554
   68MOL0     C 9087   5.139   9.974   1.933 -0.8989 -0.0547  0.1005
   68MOL0     C 9088   5.022   9.885   1.911 -0.0438  0.3039 -1.0380
   68MOL0     C 9089   5.020   9.817   1.765 -0.1170 -0.8708  0.1379
   68MOL0    Cl 9090   5.001   9.952   1.640 -0.1272 -0.7176 -0.4169
   68MOL0     C 9091   5.815  10.288   1.734 -0.4968  0.7304 -0.4063
   68MOL0     C 9092   5.873  10.324   1.615 -0.4062  0.3232  0.8586
   68MOL0     O 9093   5.727  10.411   1.339  0.6068 -0.4318  0.0455
   68MOL0     C 9094   5.823  10.479   1.088 -0.0079 -0.6369 -0.8818
   68MOL0     C 9095   5.876  10.470   0.961  0.1383  0.4038 -0.0164
   68MOL0     N 9096   6.193   9.940   0.996  0.5183 -0.9811 -1.3539
   68MOL0     N 9097   6.224   9.954   1.125 -0.3703  0.3283 -0.4003
   68MOL0     C 9098   5.137  10.295   1.487  0.2950  0.0221 -0.0087
   68MOL0     C 9099   5.009  10.353   1.481  0.5173 -0.0775  0.1726
   68MOL0     C 9100   4.661  10.644   1.553 -0.6307  0.1017 -0.4474
   68MOL0     C 9101   4.585  10.753   1.613 -0.3996 -0.3463  0.7828
   68MOL0     C 9102   4.450  10.779   1.568 -0.2785 -0.7014 -1.0969
   68MOL0     C 9103   4.398  10.708   1.462 -0.9870  0.2914  0.1311
   68MOL0     O 9104   4.268  10.746   1.430 -0.3964  0.4175 -0.7742
   68MOL0     C 9105   4.207  10.698   1.308 -0.1499 -0.1086  0.3941
   68MOL0     C 9106   4.100  10.790   1.244 -0.3478 -0.1191  0.5836
   68MOL0     C 9107   3.965  10.778   1.321  0.0423 -0.2240  0.4399
   68MOL0     C 9108   3.851  10.858   1.260  0.0091 -0.7700  0.6902
   68MOL0     C 9109   3.790  10.789   1.142  0.5436  0.6559  0.2751
   68MOL0     C 9110   3.733  10.729   1.053 -0.7472  0.0954  0.6824
   68MOL0     C 9111   4.482  10.618   1.397 -0.2003  0.3682 -0.7806
   68MOL0     C 9112   4.609  10.581   1.437 -0.4420 -0.2755 -0.0981
   68MOL0     H 9113   4.985  10.458   1.804 -0.5266  0.2486 -0.5955
   68MOL0     H 9114   5.206  10.334   1.813  1.1760  2.0249 -1.6518
   68MOL0     H 9115   5.239  10.046   1.507 -1.6012  1.2302  3.6666
   68MOL0     H 9116   5.373  10.138   1.424 -1.8957 -1.3713 -1.2153
   68MOL0     H 9117   5.417   9.956   1.661  1.0525  0.1545  0.3906
   68MOL0     H 9118   5.454   9.912   1.486  4.1794 -0.9993  0.0742
   68MOL0     H 9119   5.578  10.159   1.553 -1.4178  0.1073 -1.7478
   68MOL0     H 9120   5.607  10.039   1.683 -0.5258  0.6039  1.0227
   68MOL0     H 9121   5.680   9.870   1.533  0.3882 -0.8240 -3.2093
   68MOL0     H 9122   5.642   9.963   1.392 -0.2268  1.3874 -0.1952
   68MOL0     H 9123   5.808  10.121   1.433  1.9862  0.7453  0.1549
   68MOL0     H 9124   5.867  10.030   1.580 -2.0694  0.8952 -0.1128
   68MOL0     H 9125   5.905   9.839   1.403  1.8086 -1.4683 -2.5956
   68MOL0     H 9126   5.902   9.963   1.284 -0.5083  0.8547 -0.1793
   68MOL0     H 9127   6.087  10.016   1.518  0.5669 -0.0361 -0.2419
   68MOL0     H 9128   6.123   9.885   1.406 -0.5485 -1.1364  1.8617
   68MOL0     H 9129   6.224  10.106   1.357  1.0225 -2.3668 -0.7921
   68MOL0     H 9130   6.063  10.169   1.319 -2.4860 -1.3481 -1.7138
   68MOL0     H 9131   5.948  10.131   1.106  0.7119  1.1622 -3.8826
   68MOL0     H 9132   5.975   9.924   0.810  0.4652  0.1138  0.3864
   68MOL0     H 9133   5.913  10.075   0.842 -0.1875 -0.2718 -2.9422
   68MOL0     H 9134   6.055  10.082   0.638 -0.6570 -1.3941  0.8963
   68MOL0     H 9135   6.183  10.011   0.730  0.8415 -0.5521  0.2310
   68MOL0     H 9136   6.218  10.251   0.691 -0.5081 -1.5405  0.2216
   68MOL0     H 9137   6.186  10.241   0.861 -0.7383  1.5531 -0.3120
   68MOL0     H 9138   5.942  10.278   0.794 -1.5612  5.2133  3.0164
   68MOL0     H 9139   5.999  10.342   0.641  1.3597  0.9733  0.4127
   68MOL0     H 9140   6.201  10.427   1.032  0.1674 -1.1999 -0.3270
   68MOL0     H 9141   6.144  10.569   1.302 -0.0551 -1.0307 -0.9493
   68MOL0     H 9142   6.119  10.396   1.372 -2.1852 -1.5461 -0.8139
   68MOL0     H 9143   6.241  10.433   1.245  1.0551  2.5873 -0.3935
   68MOL0     H 9144   5.795  10.654   1.616 -1.8283  0.0652 -0.2603
   68MOL0     H 9145   5.709  10.572   1.855  1.1693 -0.8012  0.4333
   68MOL0     H 9146   5.492  10.374   1.968 -0.1679 -1.2156  0.9873
   68MOL0     H 9147   5.528  10.318   1.808 -0.8226 -0.5307  0.8738
   68MOL0     H 9148   5.631  10.103   1.949 -0.8713 -2.2253  1.1378
   68MOL0     H 9149   5.548  10.183   2.084  0.1684 -1.8989  0.9239
   68MOL0     H 9150   5.420  10.060   1.834  1.1446 -1.0468  1.0747
   68MOL0     H 9151   5.333  10.168   1.952 -1.5592 -1.0859  1.9091
   68MOL0     H 9152   5.477   9.918   2.022 -2.0201 -1.7580 -0.3359
   68MOL0     H 9153   5.381  10.018   2.128 -0.7902 -0.3424 -0.4696
   68MOL0     H 9154   5.223   9.845   2.066  0.8264  1.4858  1.2682
   68MOL0     H 9155   5.304   9.812   1.912 -2.6497 -0.4134 -1.2632
   68MOL0     H 9156   5.111  10.046   2.010 -1.4875 -1.3789  1.1742
   68MOL0     H 9157   5.161  10.028   1.840  0.6798 -2.5704 -1.1011
   68MOL0     H 9158   4.936   9.953   1.907  0.5352  1.1565  0.3269
   68MOL0     H 9159   5.023   9.804   1.985 -2.1788  1.8099  0.7591
   68MOL0     H 9160   4.935   9.752   1.743 -2.2088  1.9336 -0.6264
   68MOL0     H 9161   5.118   9.770   1.761  0.9646  1.3337 -0.8896
   68MOL0     H 9162   5.829  10.192   1.782  1.0082 -0.1209 -2.4095
   68MOL0     H 9163   5.946  10.260   1.566 -1.3911  0.2659 -0.5795
   68MOL0     H 9164   5.715  10.486   1.096  0.1285 -0.3653  1.0173
   68MOL0     H 9165   5.800  10.449   0.887  0.6840 -0.6604 -0.2957
   68MOL0     H 9166   5.187  10.259   1.398  1.6507  1.3779  0.1397
   68MOL0     H 9167   4.952  10.345   1.388  2.5817 -0.8982 -1.0972
   68MOL0     H 9168   4.621  10.805   1.701 -0.1267 -1.1474  1.1564
   68MOL0     H 9169   4.386  10.855   1.611 -2.4207 -1.8412 -2.0901
   68MOL0     H 9170   4.294  10.687   1.242  0.1261  0.1414  0.7105
   68MOL0     H 9171   4.173  10.594   1.315 -0.7193 -0.2101 -2.6801
   68MOL0     H 9172   4.086  10.762   1.139  2.3482 -1.7885  0.5852
   68MOL0     H 9173   4.136  10.893   1.240 -1.5269  0.2833 -1.5528
   68MOL0     H 9174   3.995  10.794   1.424  1.1093  0.0277  0.0972
   68MOL0     H 9175   3.917  10.679   1.318 -0.5223 -0.0316  2.2549
   68MOL0     H 9176   3.869  10.961   1.226  1.6630 -0.9077  1.0612
   68MOL0     H 9177   3.779  10.875   1.341 -1.0350  0.5335 -0.4707
   68MOL0     H 9178   3.688  10.668   0.977 -0.0141 -1.0021  1.1081
   68MOL0     H 9179   4.441  10.562   1.313  0.3704 -0.5093 -0.4888
   68MOL0     H 9180   4.666  10.502   1.390  3.5084  2.9973 -1.4213
   69MOL0     O 9181   5.143   4.546   3.951  0.1133 -0.0281 -0.7323
   69MOL0     C 9182   5.230   4.490   3.891 -0.2403  0.7835 -0.2053
   69MOL0     O 9183   5.217   4.384   3.804 -0.4436  0.5271 -0.3079
   69MOL0     C 9184   5.092   4.368   3.745 -1.1189  0.0579 -0.1166
   69MOL0     C 9185   5.073   4.245   3.688 -0.5119  0.1926  0.3066
   69MOL0     C 9186   4.956   4.201   3.635  0.1219  0.2751 -0.0306
   69MOL0     C 9187   4.863   4.293   3.606 -0.1495  0.0226 -0.6132
   69MOL0     O 9188   4.745   4.258   3.554 -0.1443 -0.3110  0.2631
   69MOL0     C 9189   4.744   4.154   3.457 -0.3293 -0.0156 -0.1954
   69MOL0     C 9190   4.606   4.149   3.394 -1.0074 -0.4217 -0.4476
   69MOL0     C 9191   4.584   4.031   3.285  0.6895 -0.0177 -0.3950
   69MOL0     C 9192   4.427   3.999   3.279 -0.4514 -0.3334 -0.4968
   69MOL0     C 9193   4.416   3.874   3.191 -0.4289 -0.3864  0.9500
   69MOL0     C 9194   4.276   3.808   3.194 -0.6404  0.0152  0.0830
   69MOL0     C 9195   4.251   3.697   3.083 -0.9870  0.3999 -0.3393
   69MOL0     C 9196   4.342   3.575   3.113 -1.1601  0.3807  0.7102
   69MOL0     N 9197   4.311   3.505   3.236  0.1494 -1.0897  0.3650
   69MOL0     C 9198   4.195   3.426   3.253 -0.3068  0.1669 -0.4968
   69MOL0     C 9199   4.201   3.408   3.391  0.0131 -0.1115  0.0742
   69MOL0     C 9200   4.099   3.322   3.457 -1.0766 -0.2740 -0.0130
   69MOL0     C 9201   3.960   3.371   3.418  0.6534 -0.7103  0.3610
   69MOL0     C 9202   3.859   3.283   3.485 -0.1091  0.5905 -0.4552
   69MOL0     C 9203   3.718   3.330   3.468  0.1704 -0.3783  0.4834
   69MOL0     O 9204   3.667   3.383   3.596 -0.8598 -0.1959 -0.3068
   69MOL0     C 9205   3.530   3.405   3.618 -0.1294  0.0706  0.1282
   69MOL0     C 9206   3.496   3.486   3.728  0.0572  0.1091  0.1570
   69MOL0     C 9207   3.364   3.507   3.763 -0.2156  0.8578 -1.0804
   69MOL0     C 9208   3.337   3.609   3.878 -0.4845  0.0395  0.5806
   69MOL0     C 9209   3.260   3.446   3.690 -0.0462  0.4340 -0.4578
   69MOL0     C 9210   3.111   3.470   3.726 -0.5870  0.7902 -0.4015
   69MOL0     O 9211   3.032   3.491   3.621 -0.2448 -0.1552  0.0241
   69MOL0     C 9212   2.900   3.511   3.643  0.7244  0.0904 -0.5463
   69MOL0     C 9213   2.863   3.649   3.687 -1.1661 -0.6135  0.2143
   69MOL0     C 9214   2.728   3.676   3.703  0.2270 -1.1680  1.2614
   69MOL0     C 9215   2.630   3.571   3.692  0.3970 -1.5143 -0.0046
   69MOL0     O 9216   2.496   3.612   3.703 -0.2919 -0.0455 -1.2073
   69MOL0     C 9217   2.418   3.513   3.767  0.5547  0.1558 -0.2205
   69MOL0     C 9218   2.289   3.572   3.797 -0.7826 -0.1923  0.3770
   69MOL0     C 9219   2.182   3.537   3.685  1.0018  0.4548  0.9040
   69MOL0     C 9220   2.088   3.656   3.674 -0.7764 -0.0207 -0.5039
   69MOL0     C 9221   1.996   3.642   3.561  0.8411  0.0267  0.7076
   69MOL0     C 9222   1.974   3.772   3.485 -0.0494  0.0191 -0.4477
   69MOL0     C 9223   1.858   3.768   3.382  0.0943 -1.0247  0.5421
   69MOL0     C 9224   1.850   3.637   3.295 -0.5195 -0.0864 -0.1412
   69MOL0    Cl 9225   1.703   3.632   3.198  0.6244  0.4032  0.5601
   69MOL0     C 9226   2.678   3.446   3.655 -0.4563  0.2962  1.2310
   69MOL0     C 9227   2.811   3.412   3.626  0.1082  0.4017 -0.3379
   69MOL0     O 9228   3.072   3.468   3.839  0.3871 -0.4197 -0.2339
   69MOL0     C 9229   3.286   3.364   3.581  0.3023 -0.2989 -0.9329
   69MOL0     C 9230   3.429   3.346   3.541  0.7014 -0.1307  0.3572
   69MOL0     N 9231   4.316   3.470   3.440  0.5888 -0.4551 -1.2519
   69MOL0     N 9232   4.386   3.517   3.348  0.4155 -0.5482 -0.5529
   69MOL0     C 9233   4.880   4.427   3.657 -0.8543 -0.2064 -0.1071
   69MOL0     C 9234   4.993   4.464   3.726  0.1942 -0.5372  0.2142
   69MOL0     C 9235   5.370   4.544   3.904  0.2142  0.5142 -0.4439
   69MOL0     C 9236   5.392   4.669   3.961 -0.2828 -0.2080  0.4136
   69MOL0     C 9237   5.526   4.718   3.978  0.4324  0.0346  0.1853
   69MOL0     C 9238   5.637   4.637   3.937 -0.2802 -0.0921  0.2676
   69MOL0     O 9239   5.762   4.680   3.968 -0.6159 -0.2562  0.0914
   69MOL0     C 9240   5.880   4.611   3.927 -0.0402 -0.0568  1.1021
   69MOL0     C 9241   6.005   4.716   3.927 -1.1426  0.6183 -0.4684
   69MOL0     C 9242   6.129   4.674   3.855 -0.4489  0.5078  0.2342
   69MOL0     C 9243   6.210   4.569   3.933  0.3722  0.5437  0.3043
   69MOL0     C 9244   6.168   4.428   3.904  0.8655  0.5677  0.0444
   69MOL0     C 9245   6.147   4.312   3.888 -0.1599  0.1861  0.5353
   69MOL0     C 9246   5.619   4.509   3.879 -0.1844 -0.2258 -0.1703
   69MOL0     C 9247   5.484   4.471   3.863  0.3994 -0.0327 -0.0444
   69MOL0     H 9248   5.157   4.180   3.709  1.0482  1.9695 -0.1026
   69MOL0     H 9249   4.939   4.095   3.625  0.7301  0.3178 -1.8292
   69MOL0     H 9250   4.812   4.180   3.375  0.8670 -0.3794  0.6490
   69MOL0     H 9251   4.768   4.055   3.495  0.8016  0.0467 -0.7121
   69MOL0     H 9252   4.532   4.126   3.471  0.0337  2.5530  1.5963
   69MOL0     H 9253   4.587   4.243   3.343 -1.5017 -0.9357 -1.2292
   69MOL0     H 9254   4.615   4.069   3.187  0.2814 -0.9050 -0.8841
   69MOL0     H 9255   4.644   3.945   3.314  0.6944  1.0528  3.2442
   69MOL0     H 9256   4.388   3.961   3.374 -0.1672 -0.6453 -0.5004
   69MOL0     H 9257   4.374   4.083   3.234  2.9817  2.4983  0.2374
   69MOL0     H 9258   4.436   3.897   3.086  1.7673 -2.8660  0.7450
   69MOL0     H 9259   4.491   3.800   3.220 -1.4447 -2.8584 -2.0778
   69MOL0     H 9260   4.255   3.773   3.296  0.1218  2.8585  1.3134
   69MOL0     H 9261   4.204   3.887   3.169 -0.3037  0.2702 -0.0861
   69MOL0     H 9262   4.145   3.673   3.085 -0.7208 -0.9251 -1.1039
   69MOL0     H 9263   4.278   3.739   2.986 -0.4626 -0.9677 -0.8172
   69MOL0     H 9264   4.445   3.613   3.108 -0.9032 -0.3857 -0.1175
   69MOL0     H 9265   4.324   3.513   3.025  0.2981  0.0511  0.6201
   69MOL0     H 9266   4.121   3.386   3.185 -0.5014  0.0804 -0.2349
   69MOL0     H 9267   4.120   3.222   3.419 -1.7542 -0.1589 -0.7005
   69MOL0     H 9268   4.117   3.320   3.565  0.3387 -1.4289 -0.2396
   69MOL0     H 9269   3.949   3.367   3.309  0.1679  3.1001  0.1156
   69MOL0     H 9270   3.950   3.477   3.444  1.4012 -1.0336  2.0783
   69MOL0     H 9271   3.878   3.284   3.593 -0.3723  2.2501 -0.3920
   69MOL0     H 9272   3.876   3.181   3.450  2.2389  1.6403 -2.7169
   69MOL0     H 9273   3.669   3.238   3.435  2.7109 -1.3807 -0.7821
   69MOL0     H 9274   3.697   3.406   3.392 -1.7230  0.1926  1.5000
   69MOL0     H 9275   3.571   3.547   3.776  0.9723 -0.8451 -0.0107
   69MOL0     H 9276   3.261   3.677   3.838 -0.4209  0.3258  0.9434
   69MOL0     H 9277   3.300   3.554   3.965 -1.9318  0.7042  0.4070
   69MOL0     H 9278   3.424   3.672   3.900 -1.1126  1.4290 -0.7095
   69MOL0     H 9279   2.941   3.720   3.714 -0.2912 -1.1020 -0.9000
   69MOL0     H 9280   2.685   3.770   3.738 -1.2559 -1.1102 -0.5425
   69MOL0     H 9281   2.407   3.424   3.704 -0.5585  2.5902 -3.7487
   69MOL0     H 9282   2.470   3.491   3.861  3.7385  0.0560 -1.8553
   69MOL0     H 9283   2.243   3.535   3.889  0.4939 -1.1834  0.6387
   69MOL0     H 9284   2.302   3.679   3.816  1.4939 -0.5905  1.3794
   69MOL0     H 9285   2.132   3.449   3.726  1.5957 -0.0744  0.5050
   69MOL0     H 9286   2.226   3.526   3.585  0.3705  0.5674  0.6074
   69MOL0     H 9287   2.047   3.678   3.773  0.8553  1.5720 -0.1239
   69MOL0     H 9288   2.147   3.745   3.649 -0.9271  0.2876  0.2274
   69MOL0     H 9289   1.897   3.607   3.593  0.0760 -0.1770 -1.6418
   69MOL0     H 9290   2.032   3.572   3.485  0.0558  0.4763 -0.0961
   69MOL0     H 9291   1.961   3.855   3.555  0.5812  0.5700 -0.9631
   69MOL0     H 9292   2.065   3.801   3.432 -1.3313  0.7673 -2.3822
   69MOL0     H 9293   1.850   3.853   3.314  2.2935 -1.1049  0.1068
   69MOL0     H 9294   1.764   3.763   3.436 -1.4080 -2.3436 -2.0059
   69MOL0     H 9295   1.854   3.549   3.360  1.4256 -0.8792 -1.2448
   69MOL0     H 9296   1.931   3.636   3.221 -2.4605 -1.7527 -2.4054
   69MOL0     H 9297   2.605   3.367   3.642 -0.4967  0.3400  1.1951
   69MOL0     H 9298   2.843   3.315   3.591  1.2775  0.3974  0.6852
   69MOL0     H 9299   3.211   3.325   3.514 -2.9675 -1.4412  2.9614
   69MOL0     H 9300   3.456   3.278   3.461  0.4849 -0.1129  0.2669
   69MOL0     H 9301   4.801   4.497   3.632  0.1828  0.9817 -0.1457
   69MOL0     H 9302   5.010   4.566   3.758  0.0901 -0.0298 -1.2843
   69MOL0     H 9303   5.313   4.735   3.994  0.4083 -0.0138  1.7390
   69MOL0     H 9304   5.546   4.816   4.022 -0.5194 -0.2458  1.2979
   69MOL0     H 9305   5.901   4.523   3.988 -1.3735 -1.0774  0.1586
   69MOL0     H 9306   5.872   4.577   3.823  6.1899  5.1240 -1.8147
   69MOL0     H 9307   6.043   4.727   4.028  0.0617 -2.1834 -0.5232
   69MOL0     H 9308   5.978   4.819   3.901  3.8095  2.5545  0.9490
   69MOL0     H 9309   6.185   4.765   3.831 -1.9022  1.3378 -0.1378
   69MOL0     H 9310   6.099   4.625   3.761  2.9467  2.1942 -1.9363
   69MOL0     H 9311   6.194   4.598   4.037  1.7838  1.9120  0.1792
   69MOL0     H 9312   6.316   4.576   3.904  0.6876 -0.3018  1.1879
   69MOL0     H 9313   6.126   4.209   3.864  1.1802 -0.3370  1.4525
   69MOL0     H 9314   5.698   4.440   3.851  0.3498  0.5867 -0.7043
   69MOL0     H 9315   5.456   4.378   3.815  0.3563  0.6523 -1.3800
   70MOL0     O 9316   9.882   2.364   0.787  0.3099  0.4983  0.2453
   70MOL0     C 9317   9.899   2.476   0.837 -0.9620  0.1971 -0.4697
   70MOL0     O 9318   9.804   2.556   0.900  0.5096 -0.9025 -0.1390
   70MOL0     C 9319   9.676   2.511   0.907  1.1593 -0.6622  0.8991
   70MOL0     C 9320   9.619   2.460   1.022  0.1281 -0.0744  0.1758
   70MOL0     C 9321   9.484   2.415   1.031 -0.7489 -1.2192 -0.4550
   70MOL0     C 9322   9.401   2.417   0.921 -0.5348 -0.2892 -0.3069
   70MOL0     O 9323   9.276   2.372   0.918  0.4922 -1.0200  0.7504
   70MOL0     C 9324   9.189   2.368   1.035  0.5431 -0.5011 -0.2228
   70MOL0     C 9325   9.058   2.300   0.999  0.0893 -0.9920 -0.6168
   70MOL0     C 9326   8.996   2.221   1.114  0.5038  0.5794 -0.1346
   70MOL0     C 9327   8.860   2.152   1.071 -0.5010  0.3564  0.0970
   70MOL0     C 9328   8.797   2.095   1.198 -0.0149 -0.2662  0.4785
   70MOL0     C 9329   8.668   2.009   1.168  0.0129 -0.0124  0.0404
   70MOL0     C 9330   8.695   1.870   1.105 -0.3579 -0.0846  0.3379
   70MOL0     C 9331   8.559   1.785   1.084 -0.3291  0.2546  0.2812
   70MOL0     N 9332   8.473   1.780   1.195 -0.4841  0.2123  1.6042
   70MOL0     C 9333   8.502   1.727   1.319 -0.4246  0.1462  0.3361
   70MOL0     C 9334   8.388   1.743   1.394 -0.7524  0.5349 -0.4179
   70MOL0     C 9335   8.374   1.679   1.526 -0.0734  0.5574  0.3055
   70MOL0     C 9336   8.480   1.729   1.632 -0.2655 -0.7731  0.6741
   70MOL0     C 9337   8.451   1.882   1.646  1.3107  0.7007  1.0592
   70MOL0     C 9338   8.558   1.943   1.728 -0.0932 -0.7472 -0.2518
   70MOL0     O 9339   8.686   1.942   1.663  0.1479  0.4420  0.3905
   70MOL0     C 9340   8.777   2.039   1.691  1.6221 -0.5603  0.8681
   70MOL0     C 9341   8.771   2.116   1.812 -0.0835  0.0119  0.4691
   70MOL0     C 9342   8.871   2.210   1.837 -0.9578  0.2426  0.3394
   70MOL0     C 9343   8.862   2.279   1.972 -0.4500 -0.4252 -0.2492
   70MOL0     C 9344   8.961   2.243   1.731  0.1326 -0.2645 -0.3665
   70MOL0     C 9345   9.075   2.346   1.742  0.0795  0.4918 -0.4344
   70MOL0     O 9346   9.176   2.340   1.650  0.0583 -0.8694 -0.0404
   70MOL0     C 9347   9.293   2.418   1.657 -0.4078 -0.2927 -0.0825
   70MOL0     C 9348   9.318   2.512   1.561 -0.7076 -0.2250  0.3676
   70MOL0     C 9349   9.430   2.588   1.559  0.4906  0.1509 -0.5696
   70MOL0     C 9350   9.528   2.582   1.658  0.3293  0.9334 -0.0139
   70MOL0     O 9351   9.639   2.658   1.670 -0.3893 -0.5869  0.3735
   70MOL0     C 9352   9.709   2.689   1.551  0.1988 -0.1185  0.0863
   70MOL0     C 9353   9.790   2.572   1.508  0.9047  0.2650  0.1876
   70MOL0     C 9354   9.924   2.602   1.442  0.5190 -1.1099 -0.4590
   70MOL0     C 9355   9.902   2.672   1.310 -0.2836 -0.6820  0.3247
   70MOL0     C 9356  10.037   2.701   1.241 -0.8708 -0.2540 -0.1784
   70MOL0     C 9357  10.144   2.772   1.334 -0.9019  0.1586 -0.8957
   70MOL0     C 9358  10.270   2.812   1.260 -0.1712 -0.0168 -0.1281
   70MOL0     C 9359  10.358   2.883   1.363 -0.2140  0.0666 -0.4985
   70MOL0    Cl 9360  10.527   2.881   1.306  0.0248  0.5621  0.2405
   70MOL0     C 9361   9.503   2.491   1.754  0.2130  0.0125 -0.6826
   70MOL0     C 9362   9.383   2.411   1.760 -0.4909  0.1328  0.5238
   70MOL0     O 9363   9.071   2.430   1.837  0.2967 -0.1420  0.2478
   70MOL0     C 9364   8.966   2.170   1.618 -0.0151  0.0250  0.4975
   70MOL0     C 9365   8.873   2.071   1.596 -0.7533 -0.0932  0.0003
   70MOL0     N 9366   8.295   1.796   1.309 -0.1926  0.1483 -0.2206
   70MOL0     N 9367   8.350   1.838   1.197 -0.4755  0.2811  0.1919
   70MOL0     C 9368   9.455   2.461   0.795  0.0365  0.6022 -0.3487
   70MOL0     C 9369   9.587   2.512   0.791 -1.4143 -0.6756  0.0461
   70MOL0     C 9370  10.040   2.530   0.837  1.1552  0.5410 -0.6343
   70MOL0     C 9371  10.076   2.657   0.883  0.5502 -0.7546 -0.0864
   70MOL0     C 9372  10.207   2.701   0.882  0.3826 -0.0535 -0.6165
   70MOL0     C 9373  10.316   2.627   0.838  0.7716  0.1415 -0.0555
   70MOL0     O 9374  10.442   2.682   0.848 -0.3778 -1.1643  0.7613
   70MOL0     C 9375  10.555   2.601   0.821 -0.2788 -0.5857 -0.7758
   70MOL0     C 9376  10.670   2.652   0.899  0.8382  0.1013  0.0237
   70MOL0     C 9377  10.662   2.649   1.052  0.7513 -0.2044  0.8349
   70MOL0     C 9378  10.799   2.661   1.132 -0.0730 -0.0472  0.3481
   70MOL0     C 9379  10.850   2.798   1.139 -0.2877  0.1255 -0.1104
   70MOL0     C 9380  10.885   2.909   1.149 -0.5709  0.6354  0.2146
   70MOL0     C 9381  10.280   2.499   0.778  0.4937 -0.4779  0.4933
   70MOL0     C 9382  10.144   2.453   0.780 -1.3908 -0.4767  0.3289
   70MOL0     H 9383   9.672   2.459   1.117 -1.2472 -1.0791  0.9617
   70MOL0     H 9384   9.442   2.387   1.127 -1.2321  0.1200 -0.2599
   70MOL0     H 9385   9.246   2.318   1.114  2.4439  2.2585  0.2939
   70MOL0     H 9386   9.173   2.467   1.078  3.0662 -0.3576  0.5694
   70MOL0     H 9387   9.000   2.385   0.963  1.2713  0.2776  0.3433
   70MOL0     H 9388   9.083   2.236   0.914  1.1178  3.5850 -4.1266
   70MOL0     H 9389   9.058   2.135   1.142  1.1479  0.8078 -0.8214
   70MOL0     H 9390   8.988   2.279   1.207  2.5864 -0.1712  0.5854
   70MOL0     H 9391   8.801   2.231   1.025  2.1023  0.7729 -2.9005
   70MOL0     H 9392   8.875   2.071   0.999 -0.6128  0.3105  0.1254
   70MOL0     H 9393   8.869   2.035   1.254  3.3447  0.8149 -2.3287
   70MOL0     H 9394   8.761   2.178   1.259  0.0384 -0.2035  0.4252
   70MOL0     H 9395   8.614   1.983   1.260 -0.2918  0.4592 -0.0034
   70MOL0     H 9396   8.597   2.061   1.104 -0.6714 -1.1517 -0.1659
   70MOL0     H 9397   8.736   1.892   1.006  0.3544  0.2517  0.6999
   70MOL0     H 9398   8.768   1.815   1.166  0.2666 -1.4858 -1.5959
   70MOL0     H 9399   8.588   1.686   1.049 -1.5665  0.2956 -0.9748
   70MOL0     H 9400   8.498   1.828   1.003 -0.1955 -0.2657 -0.1030
   70MOL0     H 9401   8.595   1.681   1.351 -0.2880  0.9535  1.1688
   70MOL0     H 9402   8.273   1.696   1.565  0.3977 -1.0601  2.4472
   70MOL0     H 9403   8.387   1.572   1.508  0.7634  0.7787 -0.5060
   70MOL0     H 9404   8.574   1.702   1.585  1.0747 -1.2819  3.4473
   70MOL0     H 9405   8.477   1.683   1.731  1.7439 -0.8820  0.7214
   70MOL0     H 9406   8.358   1.893   1.701 -0.5088  2.0600 -2.0547
   70MOL0     H 9407   8.433   1.931   1.551 -2.9153  0.2976  1.4863
   70MOL0     H 9408   8.563   1.890   1.823 -0.9083 -0.0718  0.1852
   70MOL0     H 9409   8.523   2.047   1.732  0.7994 -0.4722  0.7111
   70MOL0     H 9410   8.691   2.099   1.885 -1.6691  1.2055 -0.9110
   70MOL0     H 9411   8.792   2.220   2.032 -0.6806 -0.3474 -0.4426
   70MOL0     H 9412   8.958   2.308   2.015 -0.1441  1.6268 -2.1362
   70MOL0     H 9413   8.811   2.376   1.963 -1.1197 -0.4869  2.1608
   70MOL0     H 9414   9.235   2.519   1.491 -0.5372 -0.5229  0.1306
   70MOL0     H 9415   9.445   2.650   1.471  1.3529  2.7988  1.3163
   70MOL0     H 9416   9.646   2.721   1.467 -0.2499 -0.3370  0.3362
   70MOL0     H 9417   9.776   2.771   1.577  1.8284 -0.8642 -1.5274
   70MOL0     H 9418   9.823   2.515   1.596  1.1247  4.2111  2.9021
   70MOL0     H 9419   9.737   2.512   1.434  3.3092 -0.0640 -1.3907
   70MOL0     H 9420   9.976   2.506   1.438  0.4021 -1.2095  0.1975
   70MOL0     H 9421   9.973   2.675   1.509 -2.1607  2.2468 -1.8603
   70MOL0     H 9422   9.850   2.609   1.237  0.9587  1.0389 -2.1723
   70MOL0     H 9423   9.851   2.766   1.333 -2.1297 -1.6699  0.4613
   70MOL0     H 9424  10.015   2.758   1.151 -1.0342 -1.5516 -0.9883
   70MOL0     H 9425  10.076   2.602   1.214 -0.5206 -0.8295  2.1659
   70MOL0     H 9426  10.107   2.865   1.378  1.9196  0.0831  1.9724
   70MOL0     H 9427  10.177   2.705   1.414 -1.1538 -1.8733 -2.3858
   70MOL0     H 9428  10.241   2.890   1.189 -1.5976  0.2852  0.7524
   70MOL0     H 9429  10.323   2.726   1.217 -1.6467 -1.0334 -0.0133
   70MOL0     H 9430  10.369   2.820   1.452  3.0583  2.1807  0.7927
   70MOL0     H 9431  10.320   2.979   1.399  1.1168 -0.0930  1.4524
   70MOL0     H 9432   9.560   2.486   1.847 -0.1234 -0.6068 -0.5082
   70MOL0     H 9433   9.367   2.344   1.843 -0.7263  0.0959  0.4492
   70MOL0     H 9434   9.039   2.190   1.539  2.3290 -2.5139  1.8301
   70MOL0     H 9435   8.869   2.012   1.505 -1.4441  2.7071 -1.9143
   70MOL0     H 9436   9.399   2.466   0.701 -1.7303  2.0094  0.7182
   70MOL0     H 9437   9.626   2.553   0.698  2.1490 -0.8630  1.2984
   70MOL0     H 9438  10.008   2.725   0.934  0.8829 -0.1214 -0.4893
   70MOL0     H 9439  10.234   2.800   0.916 -1.2609 -0.2702  1.5431
   70MOL0     H 9440  10.545   2.498   0.856 -0.9553 -0.5818 -0.9495
   70MOL0     H 9441  10.589   2.592   0.717 -0.3537  0.6437 -0.9207
   70MOL0     H 9442  10.680   2.756   0.868 -1.0962  0.8916  1.8016
   70MOL0     H 9443  10.763   2.600   0.874  1.4088 -0.4108  2.8844
   70MOL0     H 9444  10.611   2.555   1.077 -1.8782  1.4547  2.1612
   70MOL0     H 9445  10.601   2.733   1.087 -0.3083 -0.8642  0.6299
   70MOL0     H 9446  10.868   2.594   1.080 -0.4561  0.3210 -0.6519
   70MOL0     H 9447  10.792   2.633   1.238 -2.3698 -1.2004 -0.0492
   70MOL0     H 9448  10.936   2.995   1.186  1.2764 -2.2746  5.4367
   70MOL0     H 9449  10.351   2.426   0.741 -1.1690 -1.1055 -1.6705
   70MOL0     H 9450  10.126   2.360   0.727  2.4937 -1.1146 -0.1586
   71MOL0     O 9451   1.723  10.972   9.149 -1.1123  0.4575 -0.1669
   71MOL0     C 9452   1.743  11.003   9.270  0.4234 -0.3789 -0.8833
   71MOL0     O 9453   1.648  11.022   9.360  1.5015 -0.5145  0.5576
   71MOL0     C 9454   1.522  11.047   9.320 -0.2138  0.2465  0.1521
   71MOL0     C 9455   1.441  10.945   9.263 -0.2247 -0.3402 -0.3499
   71MOL0     C 9456   1.318  10.978   9.229  0.0271  0.6921  0.1542
   71MOL0     C 9457   1.256  11.101   9.252 -0.1939 -0.0902 -0.8413
   71MOL0     O 9458   1.121  11.102   9.221 -0.1271  0.4621  0.5458
   71MOL0     C 9459   1.049  11.227   9.242 -0.0541  0.1665  0.5728
   71MOL0     C 9460   0.906  11.217   9.187 -0.0952  0.1913  0.7572
   71MOL0     C 9461   0.827  11.348   9.206 -0.3785 -0.6182  0.0443
   71MOL0     C 9462   0.677  11.324   9.205  0.5444  0.4173  0.2722
   71MOL0     C 9463   0.602  11.456   9.254  0.2396  0.1875  0.0153
   71MOL0     C 9464   0.458  11.467   9.197 -0.4157  0.6532 -1.3060
   71MOL0     C 9465   0.374  11.570   9.272 -0.3609 -0.6889  1.4018
   71MOL0     C 9466   0.365  11.709   9.201 -0.5380  0.8929 -1.1489
   71MOL0     N 9467   0.301  11.805   9.291  0.3484 -0.3940  0.4261
   71MOL0     C 9468   0.369  11.893   9.375  0.2108  0.2619 -0.1897
   71MOL0     C 9469   0.272  11.976   9.415 -1.0818 -0.7467 -0.4901
   71MOL0     C 9470   0.281  12.086   9.520 -0.2171  0.2514 -0.3601
   71MOL0     C 9471   0.371  12.212   9.492 -0.4844  0.7621  0.2844
   71MOL0     C 9472   0.325  12.296   9.369 -0.4281 -0.2339 -0.4350
   71MOL0     C 9473   0.179  12.337   9.378 -0.5043  0.2246  0.3401
   71MOL0     O 9474   0.143  12.410   9.496 -0.5569 -0.5484 -0.1355
   71MOL0     C 9475   0.022  12.473   9.488  0.1922  0.2972  0.3193
   71MOL0     C 9476  -0.091  12.384   9.494  0.0713  0.0103 -0.4214
   71MOL0     C 9477  -0.222  12.438   9.511 -0.3875  0.9252  0.1420
   71MOL0     C 9478  -0.341  12.345   9.503 -0.5186 -0.0694 -0.1325
   71MOL0     C 9479  -0.240  12.580   9.524  0.9675  0.8859 -0.2645
   71MOL0     C 9480  -0.371  12.639   9.563  1.2384 -0.6471  0.0270
   71MOL0     O 9481  -0.449  12.558   9.641  0.4645  0.0919  0.9559
   71MOL0     C 9482  -0.570  12.601   9.675  0.5027 -0.2017 -0.5446
   71MOL0     C 9483  -0.587  12.723   9.745  0.5232 -0.2250 -0.4059
   71MOL0     C 9484  -0.720  12.761   9.780  0.0144  0.0749  0.6077
   71MOL0     C 9485  -0.833  12.683   9.761  0.8433  0.1549  1.4985
   71MOL0     O 9486  -0.962  12.718   9.805  0.2364  0.2196 -0.0229
   71MOL0     C 9487  -1.012  12.614   9.902  0.2189 -0.4580  0.7802
   71MOL0     C 9488  -1.143  12.660   9.958  0.6076 -0.3190 -0.0554
   71MOL0     C 9489  -1.266  12.665   9.851  0.2395 -0.0411  0.0493
   71MOL0     C 9490  -1.325  12.534   9.803  0.6422 -0.0314  0.2462
   71MOL0     C 9491  -1.479  12.524   9.818 -0.5530  0.3478 -0.7350
   71MOL0     C 9492  -1.539  12.623   9.729  0.5937  0.2510 -0.2963
   71MOL0     C 9493  -1.689  12.665   9.747  0.7717 -0.9206 -0.4411
   71MOL0     C 9494  -1.753  12.645   9.887 -0.2305 -0.6581 -0.5596
   71MOL0    Cl 9495  -1.779  12.474   9.931  0.2720 -0.6155 -0.2311
   71MOL0     C 9496  -0.809  12.556   9.699 -0.4415  1.6296  1.0103
   71MOL0     C 9497  -0.682  12.526   9.658  0.0485  0.0387  0.7419
   71MOL0     O 9498  -0.403  12.742   9.511  0.4864 -0.3357 -0.1944
   71MOL0     C 9499  -0.131  12.663   9.503 -0.0530  0.2314 -0.4023
   71MOL0     C 9500   0.002  12.612   9.499  0.4001 -0.0760  0.2030
   71MOL0     N 9501   0.151  11.930   9.373  0.5352 -0.2440  0.4026
   71MOL0     N 9502   0.165  11.826   9.292 -0.2116 -0.5170 -0.2499
   71MOL0     C 9503   1.328  11.204   9.322 -0.6176  0.4795  0.5246
   71MOL0     C 9504   1.463  11.170   9.356 -0.3054  0.5230 -0.2678
   71MOL0     C 9505   1.885  11.001   9.316  0.2062  1.4765  1.0018
   71MOL0     C 9506   1.989  11.013   9.220 -0.2402  0.9415  0.1557
   71MOL0     C 9507   2.123  11.014   9.251  0.0524 -0.6646  0.3477
   71MOL0     C 9508   2.159  10.979   9.384 -0.8765  1.3008  0.7132
   71MOL0     O 9509   2.296  10.972   9.422  0.5876 -0.6666  0.3438
   71MOL0     C 9510   2.331  10.923   9.551  1.2264 -0.7680 -0.3790
   71MOL0     C 9511   2.343  10.769   9.544  0.5949 -0.0425  0.1858
   71MOL0     C 9512   2.447  10.739   9.658  0.0437  0.1847  0.0618
   71MOL0     C 9513   2.496  10.594   9.648  0.0062  0.8304 -0.0241
   71MOL0     C 9514   2.384  10.495   9.661 -0.2611 -0.4906 -0.5713
   71MOL0     C 9515   2.289  10.425   9.673  0.2395  0.0705 -0.6592
   71MOL0     C 9516   2.057  10.929   9.472  0.4010 -0.3238 -0.5516
   71MOL0     C 9517   1.924  10.948   9.443 -0.2655 -0.1538 -0.4434
   71MOL0     H 9518   1.487  10.849   9.242  0.4337 -0.3549  1.0730
   71MOL0     H 9519   1.258  10.892   9.200  0.6955  0.4002 -0.3791
   71MOL0     H 9520   1.044  11.246   9.349 -0.8682 -2.9938  1.1945
   71MOL0     H 9521   1.111  11.297   9.184  3.2959 -2.7901  0.1659
   71MOL0     H 9522   0.903  11.188   9.082 -2.8437  1.8105  0.3002
   71MOL0     H 9523   0.856  11.136   9.242 -1.8710 -0.1118 -1.1905
   71MOL0     H 9524   0.852  11.390   9.304  0.0792  0.3492 -0.4744
   71MOL0     H 9525   0.863  11.423   9.134  2.7511 -1.0429  1.0494
   71MOL0     H 9526   0.637  11.312   9.104  0.7641 -3.4360  0.4772
   71MOL0     H 9527   0.646  11.237   9.264 -2.7142  0.2274 -1.4779
   71MOL0     H 9528   0.599  11.457   9.363  1.6160 -1.4095  0.0957
   71MOL0     H 9529   0.650  11.553   9.236 -0.8086  0.5925 -0.7032
   71MOL0     H 9530   0.476  11.491   9.092  5.0014  1.0245 -0.5971
   71MOL0     H 9531   0.410  11.369   9.207  0.1955  0.1946 -2.6415
   71MOL0     H 9532   0.275  11.537   9.302 -0.1203 -4.1476 -0.9866
   71MOL0     H 9533   0.437  11.597   9.357  2.3346  0.3443 -0.7396
   71MOL0     H 9534   0.297  11.700   9.116 -3.0283 -0.9834  0.8535
   71MOL0     H 9535   0.461  11.743   9.161  1.3254 -2.0831  0.5008
   71MOL0     H 9536   0.476  11.890   9.398  0.0901  1.6169  0.6281
   71MOL0     H 9537   0.178  12.116   9.542 -0.0258  0.8896 -0.2976
   71MOL0     H 9538   0.318  12.030   9.606  0.1649 -1.7339 -1.7633
   71MOL0     H 9539   0.467  12.165   9.468  0.3082  0.9877  2.7596
   71MOL0     H 9540   0.369  12.271   9.584  2.9861 -6.6824  6.3144
   71MOL0     H 9541   0.328  12.238   9.276 -1.3787 -1.5607  0.3177
   71MOL0     H 9542   0.390  12.383   9.363 -1.3777  0.6728  1.4030
   71MOL0     H 9543   0.119  12.246   9.378 -1.7688  1.0012 -1.6948
   71MOL0     H 9544   0.142  12.394   9.293 -0.2738 -2.2737 -1.5412
   71MOL0     H 9545  -0.073  12.277   9.495  1.8939  0.2784  1.0572
   71MOL0     H 9546  -0.427  12.399   9.462  0.1870 -0.0751 -1.7061
   71MOL0     H 9547  -0.321  12.260   9.437 -4.3197 -0.7645 -0.6598
   71MOL0     H 9548  -0.354  12.305   9.604  2.3031 -2.0575 -0.4484
   71MOL0     H 9549  -0.509  12.794   9.770  0.7109 -0.1966 -1.0594
   71MOL0     H 9550  -0.752  12.854   9.825  0.9701  1.5120 -1.5239
   71MOL0     H 9551  -1.022  12.525   9.841  3.4169  0.2447 -1.0376
   71MOL0     H 9552  -0.940  12.585   9.980  0.9220  0.5346  0.5317
   71MOL0     H 9553  -1.168  12.588  10.036 -0.3290 -1.9743 -1.7905
   71MOL0     H 9554  -1.150  12.755  10.012 -5.1277 -2.2659  3.5734
   71MOL0     H 9555  -1.247  12.731   9.766  1.7297  2.1147  1.9302
   71MOL0     H 9556  -1.347  12.713   9.908 -0.4234 -0.7479 -0.2697
   71MOL0     H 9557  -1.287  12.504   9.705  2.7552  2.2743  0.2675
   71MOL0     H 9558  -1.289  12.468   9.883 -0.1989 -0.2061  0.4858
   71MOL0     H 9559  -1.509  12.539   9.922 -1.6875  0.7695 -1.1102
   71MOL0     H 9560  -1.510  12.422   9.793 -0.8525  0.5797 -1.3398
   71MOL0     H 9561  -1.476  12.712   9.723  3.9324 -1.7370  1.7824
   71MOL0     H 9562  -1.534  12.592   9.624  1.7153  3.8323 -1.4391
   71MOL0     H 9563  -1.745  12.602   9.677 -0.7391 -0.7966  0.6106
   71MOL0     H 9564  -1.701  12.768   9.712  0.8288 -1.0084 -0.7204
   71MOL0     H 9565  -1.843  12.707   9.895 -0.0879 -0.5954  0.7637
   71MOL0     H 9566  -1.680  12.691   9.955  2.2618 -2.5739 -1.7684
   71MOL0     H 9567  -0.882  12.477   9.685 -0.6138  1.9028  0.2954
   71MOL0     H 9568  -0.660  12.425   9.625 -2.9362  0.2013 -2.2493
   71MOL0     H 9569  -0.142  12.771   9.500  1.5806  0.4453  0.2682
   71MOL0     H 9570   0.086  12.680   9.489 -2.6533  4.9769  3.9589
   71MOL0     H 9571   1.296  11.305   9.344 -1.1252  0.8248 -1.5190
   71MOL0     H 9572   1.532  11.246   9.390  0.1869 -0.3729  0.8111
   71MOL0     H 9573   1.965  11.031   9.115 -3.7209 -1.0798  0.4446
   71MOL0     H 9574   2.198  11.044   9.178 -0.4936  1.2736  0.5265
   71MOL0     H 9575   2.430  10.964   9.574  0.0752  1.7745  0.3982
   71MOL0     H 9576   2.267  10.948   9.636  0.1401 -2.2770 -0.7090
   71MOL0     H 9577   2.377  10.727   9.449 -0.0178  2.6573 -1.3404
   71MOL0     H 9578   2.247  10.722   9.563  0.1279  0.2401 -1.3314
   71MOL0     H 9579   2.409  10.757   9.759  0.5339 -0.9039  0.4627
   71MOL0     H 9580   2.527  10.812   9.646  0.1158  0.1493  0.3124
   71MOL0     H 9581   2.576  10.568   9.718 -0.3805 -2.2471 -0.5885
   71MOL0     H 9582   2.554  10.578   9.556  0.9479 -1.4365  0.8820
   71MOL0     H 9583   2.204  10.360   9.671  1.1041 -1.1276  0.2262
   71MOL0     H 9584   2.073  10.880   9.568 -2.1663  0.7779  0.5301
   71MOL0     H 9585   1.842  10.915   9.507 -0.1936  0.2163 -0.1573
   72MOL0     O 9586  10.134  10.241   3.223  0.8278  0.1886 -0.2149
   72MOL0     C 9587  10.214  10.157   3.261  0.1738 -0.5635 -0.0491
   72MOL0     O 9588  10.227  10.122   3.396 -0.1625 -0.9235  0.1745
   72MOL0     C 9589  10.140  10.166   3.482  0.3284 -0.5343 -0.3882
   72MOL0     C 9590  10.016  10.095   3.495 -0.5958 -0.0189 -0.0487
   72MOL0     C 9591   9.918  10.131   3.578 -0.1442  0.2152 -0.7813
   72MOL0     C 9592   9.942  10.248   3.658 -0.1448  0.7811  0.6162
   72MOL0     O 9593   9.847  10.301   3.733  1.4380 -0.4638 -0.4491
   72MOL0     C 9594   9.706  10.271   3.702 -0.2821  0.0161 -0.8190
   72MOL0     C 9595   9.611  10.370   3.779 -0.2114  0.5526 -0.2009
   72MOL0     C 9596   9.468  10.318   3.773 -0.0352  0.0641 -0.2963
   72MOL0     C 9597   9.367  10.406   3.841 -0.4115  0.3364  0.1999
   72MOL0     C 9598   9.239  10.332   3.882  0.8509 -0.2708  0.2721
   72MOL0     C 9599   9.149  10.303   3.752 -0.3144  0.3711 -0.3529
   72MOL0     C 9600   9.007  10.248   3.792 -0.0487 -0.9863  0.4772
   72MOL0     C 9601   8.914  10.242   3.664  0.0450  0.2695  0.2855
   72MOL0     N 9602   8.778  10.199   3.700  0.0716  0.7423  0.3618
   72MOL0     C 9603   8.730  10.107   3.784  0.1953 -0.4587 -0.1858
   72MOL0     C 9604   8.593  10.131   3.783  0.3172  0.1448 -1.6047
   72MOL0     C 9605   8.484  10.046   3.854 -0.0913 -0.8303 -1.1514
   72MOL0     C 9606   8.364  10.130   3.881  0.2461  0.6691  0.1856
   72MOL0     C 9607   8.403  10.204   4.014  0.4826  0.3385 -0.0201
   72MOL0     C 9608   8.377  10.353   4.010 -0.2032  0.0575  0.1316
   72MOL0     O 9609   8.343  10.396   4.140 -0.6382 -0.7593  0.9045
   72MOL0     C 9610   8.257  10.492   4.166 -0.0986 -0.1998  0.1116
   72MOL0     C 9611   8.215  10.511   4.298 -0.6549  0.2169  0.3686
   72MOL0     C 9612   8.128  10.611   4.340 -0.4011  0.0044  1.0637
   72MOL0     C 9613   8.088  10.612   4.481 -0.7922  0.5254 -0.2332
   72MOL0     C 9614   8.073  10.691   4.248 -0.0392  0.3323  0.2815
   72MOL0     C 9615   7.966  10.792   4.270  0.2013  0.3704 -0.7594
   72MOL0     O 9616   7.852  10.753   4.329 -0.2665 -0.3245  0.1029
   72MOL0     C 9617   7.738  10.830   4.333 -0.0232  0.0836  0.2944
   72MOL0     C 9618   7.720  10.965   4.315  0.6963 -0.3477  0.1736
   72MOL0     C 9619   7.594  11.025   4.307 -0.5907  0.5567 -0.0205
   72MOL0     C 9620   7.479  10.954   4.342 -0.0548 -0.3756  1.0758
   72MOL0     O 9621   7.355  11.009   4.351 -0.1100 -0.3847 -0.1317
   72MOL0     C 9622   7.322  11.135   4.300  0.6297 -0.2490 -0.2617
   72MOL0     C 9623   7.173  11.164   4.304 -0.5338 -0.0741 -0.2263
   72MOL0     C 9624   7.117  11.150   4.447  0.6978  0.9527 -0.2508
   72MOL0     C 9625   6.961  11.180   4.458 -0.5343  0.4321 -0.5180
   72MOL0     C 9626   6.889  11.155   4.587 -0.0092  0.5956 -0.1400
   72MOL0     C 9627   6.741  11.105   4.576  0.8300 -0.2104 -0.2615
   72MOL0     C 9628   6.672  11.128   4.711 -0.8166 -0.5271 -0.2163
   72MOL0     C 9629   6.618  11.269   4.714 -0.3200  0.2786  0.0956
   72MOL0    Cl 9630   6.563  11.313   4.881  0.2078 -0.0306  0.3343
   72MOL0     C 9631   7.492  10.816   4.365  0.1937  0.0718 -0.8340
   72MOL0     C 9632   7.625  10.758   4.365 -0.1926 -0.3074  0.2121
   72MOL0     O 9633   7.986  10.900   4.216  0.3132 -0.1454  0.4795
   72MOL0     C 9634   8.117  10.684   4.112  0.7039 -0.2535  0.3227
   72MOL0     C 9635   8.206  10.585   4.075  0.8571 -0.4488  0.4431
   72MOL0     N 9636   8.570  10.240   3.711  0.2956  0.5290  0.1480
   72MOL0     N 9637   8.677  10.277   3.654  0.1627 -0.1260 -0.3220
   72MOL0     C 9638  10.064  10.313   3.649  0.7565 -1.0562  0.7481
   72MOL0     C 9639  10.160  10.275   3.565 -1.0637  0.9684  0.0130
   72MOL0     C 9640  10.316  10.108   3.172  0.0305 -0.0888  0.2869
   72MOL0     C 9641  10.436  10.051   3.211 -0.6049 -0.0727  0.3728
   72MOL0     C 9642  10.521   9.999   3.110  1.4961  0.5108 -0.4353
   72MOL0     C 9643  10.498  10.012   2.975 -1.2451 -0.0593  0.4960
   72MOL0     O 9644  10.590   9.948   2.888  0.4250  0.3308  0.4992
   72MOL0     C 9645  10.618  10.012   2.759  0.6173  0.5622  0.9944
   72MOL0     C 9646  10.645  10.162   2.771 -0.7741 -0.7969  0.1266
   72MOL0     C 9647  10.798  10.169   2.793 -0.2115  0.3040 -0.3244
   72MOL0     C 9648  10.838  10.314   2.825 -0.3759  0.1562  0.8098
   72MOL0     C 9649  10.800  10.418   2.719 -0.5055 -0.1839  0.1131
   72MOL0     C 9650  10.796  10.501   2.629 -0.0273  0.1702 -0.6920
   72MOL0     C 9651  10.386  10.083   2.942  0.3594 -0.3360 -0.2826
   72MOL0     C 9652  10.300  10.133   3.033 -0.0972 -0.4439  0.2018
   72MOL0     H 9653  10.015  10.005   3.435 -0.8397  0.5949 -0.9817
   72MOL0     H 9654   9.837  10.059   3.589 -0.9899  0.4378 -4.3615
   72MOL0     H 9655   9.695  10.283   3.594 -0.5386 -2.4268 -1.1228
   72MOL0     H 9656   9.680  10.168   3.729  2.6568 -0.7875 -0.6534
   72MOL0     H 9657   9.650  10.383   3.880  4.6748 -0.5436 -1.6620
   72MOL0     H 9658   9.609  10.464   3.723 -2.3239 -0.2840 -1.6496
   72MOL0     H 9659   9.439  10.307   3.668  1.1194 -0.1469 -0.6126
   72MOL0     H 9660   9.458  10.221   3.822 -1.0520 -0.0655 -0.7363
   72MOL0     H 9661   9.410  10.438   3.936 -3.4739  0.9621  1.4800
   72MOL0     H 9662   9.350  10.499   3.786  1.7007  1.4918  1.3647
   72MOL0     H 9663   9.255  10.244   3.944 -2.6311 -0.2546  1.4086
   72MOL0     H 9664   9.188  10.405   3.947  1.7832  2.1056 -1.5051
   72MOL0     H 9665   9.131  10.401   3.707 -0.4031  1.1650  1.3244
   72MOL0     H 9666   9.201  10.237   3.682  0.3387 -1.0656  1.4128
   72MOL0     H 9667   9.019  10.147   3.831  2.2548 -2.2433 -2.9976
   72MOL0     H 9668   8.969  10.328   3.856  0.8205  0.5112 -0.7829
   72MOL0     H 9669   8.953  10.171   3.590  0.0456  0.6827 -0.1145
   72MOL0     H 9670   8.906  10.340   3.617 -1.7443  2.2474  4.2435
   72MOL0     H 9671   8.787  10.041   3.849  3.1980  0.1373 -1.9991
   72MOL0     H 9672   8.464   9.953   3.799 -0.8799 -1.7387  0.5947
   72MOL0     H 9673   8.528  10.002   3.944 -1.5710 -0.6284 -0.3019
   72MOL0     H 9674   8.272  10.072   3.896  0.3667  0.5222  0.3787
   72MOL0     H 9675   8.343  10.201   3.801  2.2152  0.3135 -0.6904
   72MOL0     H 9676   8.507  10.201   4.047 -0.3266  0.4990  2.7818
   72MOL0     H 9677   8.345  10.155   4.093 -1.9411 -0.7402 -2.2979
   72MOL0     H 9678   8.303  10.355   3.929  0.8844 -3.5581 -1.1422
   72MOL0     H 9679   8.472  10.398   3.980  0.1605  0.4226  1.7591
   72MOL0     H 9680   8.254  10.446   4.376  0.9974  1.8556  0.9762
   72MOL0     H 9681   8.068  10.709   4.528  0.2237  0.0757  1.2063
   72MOL0     H 9682   7.995  10.556   4.490 -0.2043 -0.3854  0.3788
   72MOL0     H 9683   8.172  10.562   4.530 -1.2929 -3.1441 -2.7247
   72MOL0     H 9684   7.798  11.027   4.270  0.6714 -1.5597 -1.6612
   72MOL0     H 9685   7.583  11.127   4.270  2.6235  0.2570 -2.1945
   72MOL0     H 9686   7.365  11.207   4.369 -2.2773  0.5079  0.9103
   72MOL0     H 9687   7.356  11.143   4.196  1.1470  0.2180 -0.0626
   72MOL0     H 9688   7.170  11.271   4.281  1.5666 -0.4198 -2.6567
   72MOL0     H 9689   7.116  11.114   4.225 -1.9405  2.6619 -1.0768
   72MOL0     H 9690   7.173  11.207   4.521 -2.6846 -0.5234  3.8357
   72MOL0     H 9691   7.138  11.045   4.467  0.4544  0.5438 -1.9179
   72MOL0     H 9692   6.949  11.286   4.432  2.1130  0.3049 -2.7241
   72MOL0     H 9693   6.927  11.119   4.374  3.8989 -4.3287  0.6482
   72MOL0     H 9694   6.907  11.243   4.650  3.0877 -0.3796  0.5266
   72MOL0     H 9695   6.943  11.077   4.642  0.6887  1.7934  0.9111
   72MOL0     H 9696   6.677  11.164   4.510 -1.7374  2.0946  3.8302
   72MOL0     H 9697   6.739  11.004   4.536  2.4907  0.2761 -1.7060
   72MOL0     H 9698   6.744  11.120   4.794 -2.1766  2.6196  1.4461
   72MOL0     H 9699   6.584  11.065   4.721 -2.2110  1.2008 -1.0266
   72MOL0     H 9700   6.527  11.265   4.654  0.8265  1.7273 -1.8783
   72MOL0     H 9701   6.691  11.340   4.673  4.1806 -1.4920  4.1241
   72MOL0     H 9702   7.403  10.760   4.391  0.6082 -1.1894 -2.0296
   72MOL0     H 9703   7.634  10.650   4.376 -0.5541 -0.1193  3.2413
   72MOL0     H 9704   8.072  10.746   4.035 -1.6452 -0.6823  1.2602
   72MOL0     H 9705   8.219  10.578   3.967 -2.7123 -1.5763 -0.0650
   72MOL0     H 9706  10.086  10.406   3.702 -1.8119  0.6403 -0.9593
   72MOL0     H 9707  10.255  10.329   3.570  0.9040 -2.0863 -1.4881
   72MOL0     H 9708  10.457  10.017   3.312 -1.4735 -1.7887  0.0044
   72MOL0     H 9709  10.606   9.942   3.146  1.7913 -0.0968 -1.9891
   72MOL0     H 9710  10.710   9.965   2.722  0.5943 -0.0355  1.6805
   72MOL0     H 9711  10.537   9.987   2.690  0.4551 -0.3067  1.4859
   72MOL0     H 9712  10.592  10.208   2.855 -2.0929 -0.4468 -0.8588
   72MOL0     H 9713  10.613  10.211   2.679  1.8132 -0.7208 -0.8032
   72MOL0     H 9714  10.845  10.125   2.704  0.3602 -3.5103  1.6414
   72MOL0     H 9715  10.822  10.101   2.875  0.2513 -2.1276 -2.3384
   72MOL0     H 9716  10.947  10.317   2.836 -0.4722 -0.3759  2.0203
   72MOL0     H 9717  10.807  10.350   2.923 -0.0490 -0.5108  1.1649
   72MOL0     H 9718  10.809  10.572   2.550  0.5286 -0.4315 -1.1507
   72MOL0     H 9719  10.358  10.104   2.839  1.2894 -0.7207 -0.6294
   72MOL0     H 9720  10.213  10.191   3.003 -0.2768 -0.5385  0.5312
   73MOL0     O 9721   5.163   7.342   1.151  0.3403 -0.5694 -0.1114
   73MOL0     C 9722   5.184   7.455   1.193  0.0872 -0.0443 -0.1095
   73MOL0     O 9723   5.102   7.535   1.274 -0.3707  0.4483 -0.4037
   73MOL0     C 9724   4.983   7.489   1.326  0.1769 -0.4609  0.2091
   73MOL0     C 9725   4.888   7.589   1.358  0.1219  0.1360  0.0924
   73MOL0     C 9726   4.760   7.567   1.412  0.4132 -0.1392  0.9159
   73MOL0     C 9727   4.711   7.435   1.432  0.6111 -0.9329 -0.5015
   73MOL0     O 9728   4.589   7.394   1.486 -0.1648 -0.1821 -0.2040
   73MOL0     C 9729   4.486   7.484   1.464  0.0527  0.2368 -0.2020
   73MOL0     C 9730   4.339   7.428   1.502 -0.7413  0.5866  0.6506
   73MOL0     C 9731   4.232   7.526   1.456  1.5237  0.7059  0.7028
   73MOL0     C 9732   4.196   7.608   1.572 -0.1433 -0.1648 -2.2070
   73MOL0     C 9733   4.077   7.710   1.551 -0.6151  0.1661 -0.1475
   73MOL0     C 9734   3.932   7.653   1.539 -0.1588  0.3201  0.2751
   73MOL0     C 9735   3.821   7.762   1.527 -0.4942 -0.0432  0.2472
   73MOL0     C 9736   3.691   7.682   1.550  0.4303 -1.6556 -0.3417
   73MOL0     N 9737   3.573   7.770   1.539 -0.2176  0.0562  0.5711
   73MOL0     C 9738   3.512   7.816   1.426  0.0164 -0.2152  0.3714
   73MOL0     C 9739   3.412   7.893   1.470 -0.5863  0.1844  0.4376
   73MOL0     C 9740   3.307   7.953   1.372  0.2794  0.8229 -0.6728
   73MOL0     C 9741   3.160   7.927   1.422 -0.3597 -0.2575 -0.6864
   73MOL0     C 9742   3.068   7.970   1.299  0.7735  0.0350  0.4917
   73MOL0     C 9743   2.925   7.985   1.347  0.5028 -0.1703 -0.5434
   73MOL0     O 9744   2.848   8.039   1.236 -0.0844 -0.3567 -0.3692
   73MOL0     C 9745   2.715   8.040   1.257  0.3931  0.2482 -0.4255
   73MOL0     C 9746   2.647   8.118   1.168  0.1269  0.1185  0.7901
   73MOL0     C 9747   2.509   8.123   1.168  0.1300 -0.2226 -0.2527
   73MOL0     C 9748   2.441   8.206   1.068 -0.2585  0.5794 -0.2423
   73MOL0     C 9749   2.436   8.045   1.266 -0.0889  0.0870  0.2592
   73MOL0     C 9750   2.288   8.051   1.277 -0.4338  0.3247  0.2833
   73MOL0     O 9751   2.240   8.034   1.407  0.1872 -0.5067  0.7717
   73MOL0     C 9752   2.100   8.030   1.435 -0.1645  0.8476 -0.1245
   73MOL0     C 9753   1.999   8.031   1.335 -0.1157 -0.7390 -0.4421
   73MOL0     C 9754   1.870   8.024   1.377  0.3921 -0.4034 -0.6907
   73MOL0     C 9755   1.825   8.019   1.512  0.3274  0.1327 -0.6920
   73MOL0     O 9756   1.693   8.003   1.539 -0.0656  0.3527 -0.4783
   73MOL0     C 9757   1.665   8.044   1.681 -0.1942 -0.5690 -1.1115
   73MOL0     C 9758   1.519   8.082   1.698 -1.0489 -0.3548  0.5703
   73MOL0     C 9759   1.485   8.225   1.644 -0.2993 -0.0170  0.0346
   73MOL0     C 9760   1.330   8.233   1.641  0.6344 -0.0455  0.2741
   73MOL0     C 9761   1.288   8.297   1.513  0.2996 -0.4841 -0.3308
   73MOL0     C 9762   1.133   8.328   1.505 -0.1279  0.2087  0.1580
   73MOL0     C 9763   1.089   8.339   1.365 -0.2933 -0.9218 -0.4809
   73MOL0     C 9764   0.956   8.410   1.351 -0.3010  0.2021 -0.3894
   73MOL0    Cl 9765   0.835   8.325   1.437  0.4283  0.0221 -0.0367
   73MOL0     C 9766   1.929   8.019   1.614 -0.8430  0.2527 -0.1375
   73MOL0     C 9767   2.065   8.024   1.573  0.9508  0.0237 -0.0095
   73MOL0     O 9768   2.228   8.035   1.177 -0.1711  0.4715  0.2390
   73MOL0     C 9769   2.512   7.986   1.367 -0.4954  0.0951 -0.3670
   73MOL0     C 9770   2.656   7.983   1.367 -0.5164 -0.6261 -0.3804
   73MOL0     N 9771   3.424   7.888   1.613  0.1978  0.6548 -0.9113
   73MOL0     N 9772   3.528   7.822   1.650  0.1820 -0.2433 -0.0801
   73MOL0     C 9773   4.791   7.335   1.384 -0.0953 -1.3166 -0.2605
   73MOL0     C 9774   4.930   7.358   1.342  0.3598  1.1394 -0.5740
   73MOL0     C 9775   5.303   7.515   1.123 -0.1928 -0.1681  0.1513
   73MOL0     C 9776   5.366   7.458   1.010  0.0073  0.4760  0.3345
   73MOL0     C 9777   5.461   7.525   0.931  0.4858  1.5808  0.1875
   73MOL0     C 9778   5.501   7.655   0.964 -0.8211 -0.3226  0.2275
   73MOL0     O 9779   5.579   7.735   0.883 -0.3669  0.0101 -0.7905
   73MOL0     C 9780   5.698   7.804   0.941 -0.1435 -0.0396 -0.5393
   73MOL0     C 9781   5.794   7.694   0.990  0.9846 -0.0020  0.2938
   73MOL0     C 9782   5.930   7.765   1.031  0.1204 -0.0750  0.2450
   73MOL0     C 9783   6.044   7.666   1.054 -0.3601  0.1617  0.1401
   73MOL0     C 9784   6.028   7.601   1.180  0.1817 -0.0549 -1.0397
   73MOL0     C 9785   5.990   7.541   1.287 -0.5840  0.6451  1.3518
   73MOL0     C 9786   5.440   7.721   1.069 -0.2417 -0.3897 -0.2434
   73MOL0     C 9787   5.338   7.654   1.147 -0.1620 -0.1476 -0.4710
   73MOL0     H 9788   4.911   7.693   1.340  1.8113 -0.3692 -0.8526
   73MOL0     H 9789   4.695   7.651   1.436 -0.5166 -0.9234  1.1903
   73MOL0     H 9790   4.510   7.572   1.525  0.0251  0.5753 -0.6756
   73MOL0     H 9791   4.481   7.530   1.365 -4.2501  4.8319  1.6871
   73MOL0     H 9792   4.323   7.330   1.458  2.9030 -0.3429  1.0727
   73MOL0     H 9793   4.342   7.411   1.610 -0.9595  2.7751  1.0522
   73MOL0     H 9794   4.273   7.588   1.375 -0.7456 -0.5989 -1.5997
   73MOL0     H 9795   4.139   7.478   1.425 -0.0045  3.2162  1.1575
   73MOL0     H 9796   4.153   7.543   1.649 -0.2635  0.7369 -1.5032
   73MOL0     H 9797   4.287   7.657   1.606 -0.3199 -1.1953 -0.0945
   73MOL0     H 9798   4.073   7.786   1.629  0.6415  0.9777 -0.8319
   73MOL0     H 9799   4.102   7.772   1.464  0.3433 -1.4282 -1.0444
   73MOL0     H 9800   3.918   7.592   1.449  0.8120 -1.6244  1.3849
   73MOL0     H 9801   3.910   7.598   1.631 -1.5798  0.6819  0.1704
   73MOL0     H 9802   3.837   7.847   1.594  0.3683 -1.2088  1.5800
   73MOL0     H 9803   3.799   7.804   1.428 -1.6390  2.5606  1.5204
   73MOL0     H 9804   3.697   7.643   1.652  2.0953 -2.4181 -0.6963
   73MOL0     H 9805   3.688   7.596   1.482 -0.5673 -2.4290  0.6407
   73MOL0     H 9806   3.544   7.793   1.325  1.7060 -0.6060  0.9640
   73MOL0     H 9807   3.327   8.060   1.380  0.2587  0.7601  0.5319
   73MOL0     H 9808   3.331   7.916   1.272 -1.4656  2.5400 -1.7963
   73MOL0     H 9809   3.142   8.002   1.499 -1.5032 -0.6795 -0.5268
   73MOL0     H 9810   3.151   7.825   1.459  1.2414 -0.7347 -1.4709
   73MOL0     H 9811   3.064   7.911   1.206 -0.7667 -0.6014  0.9393
   73MOL0     H 9812   3.086   8.072   1.265  0.7679  0.5038  1.8582
   73MOL0     H 9813   2.929   8.056   1.430  2.4089 -2.6920  1.6986
   73MOL0     H 9814   2.905   7.883   1.381  0.5495 -0.3626 -1.0886
   73MOL0     H 9815   2.698   8.162   1.083 -2.9732  0.5266 -0.9781
   73MOL0     H 9816   2.429   8.302   1.118 -1.9912  0.1475  0.2449
   73MOL0     H 9817   2.508   8.212   0.982  0.0279  0.8273 -0.0026
   73MOL0     H 9818   2.350   8.157   1.033  0.5853  0.1101 -1.9064
   73MOL0     H 9819   2.004   8.040   1.227 -1.0554 -0.4010 -0.4741
   73MOL0     H 9820   1.792   8.028   1.301 -0.4239  0.1318  0.1541
   73MOL0     H 9821   1.695   7.967   1.753 -0.6038 -1.2645 -1.6726
   73MOL0     H 9822   1.726   8.134   1.696 -1.5939  0.0965  0.9913
   73MOL0     H 9823   1.468   8.003   1.643 -3.9807 -0.7574  3.5511
   73MOL0     H 9824   1.489   8.068   1.802  0.4484  0.7642  1.1956
   73MOL0     H 9825   1.526   8.237   1.543 -0.2746  0.3175  0.0831
   73MOL0     H 9826   1.522   8.311   1.700 -2.7851  2.0812 -1.3016
   73MOL0     H 9827   1.295   8.130   1.637  1.2652 -0.2225 -1.7915
   73MOL0     H 9828   1.286   8.282   1.729 -0.9777  1.0597 -1.0828
   73MOL0     H 9829   1.314   8.230   1.430 -0.3182  1.0554 -1.8316
   73MOL0     H 9830   1.355   8.383   1.510  0.5490 -0.4185  3.1198
   73MOL0     H 9831   1.085   8.242   1.552 -0.3628 -0.0341 -0.5141
   73MOL0     H 9832   1.109   8.412   1.571 -1.1731 -2.0410  2.8314
   73MOL0     H 9833   1.081   8.243   1.312  0.5471 -0.5384 -1.3396
   73MOL0     H 9834   1.167   8.390   1.306  3.1002 -4.1530  0.7592
   73MOL0     H 9835   0.927   8.421   1.246  0.1557  2.0269 -0.3634
   73MOL0     H 9836   0.978   8.506   1.399 -1.0317 -0.5275  1.4869
   73MOL0     H 9837   1.914   8.012   1.721  0.8164 -5.0959  0.0342
   73MOL0     H 9838   2.146   8.008   1.644  2.1056 -0.4472 -1.3834
   73MOL0     H 9839   2.460   7.919   1.435 -2.6385  1.2620 -0.7446
   73MOL0     H 9840   2.706   7.924   1.443 -1.3105 -1.7224 -0.6738
   73MOL0     H 9841   4.750   7.235   1.391 -0.5370 -1.2290 -1.3491
   73MOL0     H 9842   4.996   7.277   1.313 -1.2553 -0.9625  1.2896
   73MOL0     H 9843   5.347   7.356   0.979 -0.6854 -0.0533  2.3035
   73MOL0     H 9844   5.495   7.475   0.840 -2.5305  2.1307 -1.3743
   73MOL0     H 9845   5.737   7.860   0.856 -0.6489 -0.1362 -0.8423
   73MOL0     H 9846   5.677   7.873   1.022  1.7134 -0.6911  0.5569
   73MOL0     H 9847   5.789   7.616   0.913 -2.5532  1.4418 -1.1683
   73MOL0     H 9848   5.756   7.644   1.079 -1.2613  1.2937  0.1333
   73MOL0     H 9849   5.911   7.823   1.122 -1.8506  0.9895 -0.7912
   73MOL0     H 9850   5.963   7.833   0.952  1.7270  0.8645  1.6406
   73MOL0     H 9851   6.144   7.711   1.061  0.4051 -1.1780 -1.4166
   73MOL0     H 9852   6.037   7.600   0.966 -1.1380  1.1644 -0.5771
   73MOL0     H 9853   5.965   7.482   1.373  1.3812 -5.4876 -1.6701
   73MOL0     H 9854   5.458   7.823   1.103 -1.0573  1.0890 -3.8131
   73MOL0     H 9855   5.279   7.703   1.224 -1.3213 -2.1152 -0.0439
   74MOL0     O 9856   1.378   0.548  11.327  0.4047  0.1735  0.6630
   74MOL0     C 9857   1.441   0.518  11.230  0.1261  0.4209 -0.5508
   74MOL0     O 9858   1.387   0.498  11.105 -0.1169 -0.4481  0.1834
   74MOL0     C 9859   1.254   0.525  11.077 -0.3919 -0.0836 -0.0596
   74MOL0     C 9860   1.154   0.578  11.162 -0.2660  0.3151  0.3852
   74MOL0     C 9861   1.018   0.572  11.120 -0.0046  0.0601  1.4731
   74MOL0     C 9862   0.982   0.522  10.996  0.1927  0.4425 -0.0134
   74MOL0     O 9863   0.853   0.508  10.961  0.0123  0.0561  0.1043
   74MOL0     C 9864   0.811   0.442  10.840  0.1401  0.0367  1.3262
   74MOL0     C 9865   0.653   0.433  10.838 -1.4079  0.2112 -0.5019
   74MOL0     C 9866   0.625   0.379  10.700  0.4164  0.5132 -1.0475
   74MOL0     C 9867   0.480   0.378  10.669  0.5799 -0.3277  0.1912
   74MOL0     C 9868   0.459   0.381  10.516  0.7211 -0.2761  0.0267
   74MOL0     C 9869   0.306   0.421  10.498  0.1637  0.8490  0.2314
   74MOL0     C 9870   0.200   0.320  10.533 -0.1472  0.8141 -0.3662
   74MOL0     C 9871   0.202   0.183  10.460  0.3949  0.5517 -0.4912
   74MOL0     N 9872   0.180   0.192  10.320  0.1618  0.2963  1.4229
   74MOL0     C 9873   0.061   0.239  10.270  0.4729  0.2812  0.0993
   74MOL0     C 9874   0.072   0.218  10.134 -0.1698  0.0746 -0.1369
   74MOL0     C 9875  -0.032   0.254  10.036 -0.0667 -0.0424  0.5143
   74MOL0     C 9876  -0.033   0.400   9.990  0.6469 -0.3520  0.4910
   74MOL0     C 9877  -0.121   0.408   9.863 -0.2043  0.1468  0.0323
   74MOL0     C 9878  -0.164   0.549   9.843 -0.8778 -0.3252 -0.6405
   74MOL0     O 9879  -0.254   0.561   9.734  0.1889 -0.1091  1.0274
   74MOL0     C 9880  -0.388   0.574   9.753 -0.7293 -0.6258  0.2438
   74MOL0     C 9881  -0.459   0.536   9.867  0.0335 -0.0360 -0.4933
   74MOL0     C 9882  -0.597   0.531   9.869 -0.1535  0.4753  0.0406
   74MOL0     C 9883  -0.667   0.477   9.986 -0.2232 -0.3368 -0.4861
   74MOL0     C 9884  -0.668   0.564   9.751 -0.2380 -0.5601 -0.6135
   74MOL0     C 9885  -0.813   0.550   9.741  0.1960  0.6217  1.5373
   74MOL0     O 9886  -0.873   0.449   9.810  0.4254  0.0942  0.0470
   74MOL0     C 9887  -1.005   0.420   9.803  0.8534  0.7739  0.2267
   74MOL0     C 9888  -1.075   0.405   9.681 -0.1682 -0.5759  0.2891
   74MOL0     C 9889  -1.198   0.356   9.654  0.3895 -0.5865  0.4077
   74MOL0     C 9890  -1.274   0.332   9.768 -0.9976  1.1532 -0.0646
   74MOL0     O 9891  -1.402   0.297   9.752 -0.4796 -0.7487  0.3404
   74MOL0     C 9892  -1.485   0.398   9.812 -0.0389 -0.2112  0.1140
   74MOL0     C 9893  -1.623   0.336   9.850 -0.0687 -0.1892  0.2731
   74MOL0     C 9894  -1.722   0.445   9.885  0.3502 -0.0075 -0.2151
   74MOL0     C 9895  -1.855   0.388   9.933 -0.1056  0.5178 -0.3831
   74MOL0     C 9896  -1.968   0.489   9.967 -0.3307  0.2238  0.2387
   74MOL0     C 9897  -2.103   0.411   9.964  0.0768 -0.6354 -1.2855
   74MOL0     C 9898  -2.214   0.510  10.007  0.0814  0.2482  0.7705
   74MOL0     C 9899  -2.348   0.443   9.994  0.3735  0.5821  0.1650
   74MOL0    Cl 9900  -2.396   0.452   9.821 -0.2736  0.5648  0.1062
   74MOL0     C 9901  -1.212   0.338   9.892  0.5143  0.1824  0.1181
   74MOL0     C 9902  -1.083   0.370   9.910 -0.1566  0.5679 -0.5851
   74MOL0     O 9903  -0.876   0.612   9.646  0.4276 -0.2130 -0.4897
   74MOL0     C 9904  -0.594   0.602   9.638  0.5814 -0.6587 -0.1320
   74MOL0     C 9905  -0.456   0.602   9.633 -0.0668  0.4419 -0.1344
   74MOL0     N 9906   0.196   0.161  10.105 -0.0708 -0.0306  0.4009
   74MOL0     N 9907   0.253   0.137  10.220  0.2401  0.1241 -0.2361
   74MOL0     C 9908   1.083   0.477  10.908 -0.4083 -1.0267 -0.5461
   74MOL0     C 9909   1.214   0.486  10.953  0.4165  0.3259 -0.7937
   74MOL0     C 9910   1.580   0.483  11.262  0.3563  0.2694  1.2957
   74MOL0     C 9911   1.615   0.426  11.388 -0.6358 -0.2377 -0.6156
   74MOL0     C 9912   1.741   0.378  11.404 -0.4160  0.1404  0.5603
   74MOL0     C 9913   1.844   0.384  11.310 -0.0336 -0.4657  0.7901
   74MOL0     O 9914   1.967   0.323  11.333  0.3807  0.6586  0.2011
   74MOL0     C 9915   2.078   0.350  11.248 -0.1953  0.1517  0.7118
   74MOL0     C 9916   2.126   0.490  11.284  0.1649  0.5623 -0.4335
   74MOL0     C 9917   2.249   0.513  11.198 -0.4476  0.3893  0.7691
   74MOL0     C 9918   2.324   0.637  11.237 -0.4966 -0.4719  0.4843
   74MOL0     C 9919   2.362   0.652  11.372  0.2664 -0.7458 -0.6759
   74MOL0     C 9920   2.400   0.656  11.488 -0.5311 -0.6863 -0.8460
   74MOL0     C 9921   1.809   0.438  11.192 -0.2497 -0.3639  0.0859
   74MOL0     C 9922   1.682   0.489  11.167  0.2337 -0.0718  0.2385
   74MOL0     H 9923   1.168   0.618  11.262  1.6687  1.7943 -0.4252
   74MOL0     H 9924   0.937   0.615  11.177  0.1373  0.7271  1.1860
   74MOL0     H 9925   0.855   0.490  10.752  1.9950 -2.4354  0.7826
   74MOL0     H 9926   0.856   0.342  10.844 -1.0343 -0.5266  0.9179
   74MOL0     H 9927   0.630   0.357  10.914 -0.1753  0.7544  0.4508
   74MOL0     H 9928   0.602   0.529  10.850 -0.9739  0.3234  0.5126
   74MOL0     H 9929   0.684   0.442  10.633  0.4561  3.1754  1.3287
   74MOL0     H 9930   0.667   0.278  10.693 -0.1247  0.2320 -0.3009
   74MOL0     H 9931   0.431   0.291  10.713 -1.4239  1.3205  1.3528
   74MOL0     H 9932   0.439   0.469  10.713  1.1557  1.3182 -2.4694
   74MOL0     H 9933   0.524   0.451  10.464 -0.5713  0.9211 -0.0443
   74MOL0     H 9934   0.478   0.288  10.461 -0.2722 -0.1659 -0.5178
   74MOL0     H 9935   0.294   0.518  10.546 -1.2118  2.4401 -2.9972
   74MOL0     H 9936   0.286   0.448  10.394  1.1910  0.8301  0.0146
   74MOL0     H 9937   0.207   0.310  10.642 -5.8040  1.3317  0.3424
   74MOL0     H 9938   0.108   0.375  10.510 -0.8306 -0.0456  0.2425
   74MOL0     H 9939   0.115   0.128  10.498 -1.1726  3.0077 -0.3454
   74MOL0     H 9940   0.298   0.142  10.493 -0.9851  0.6984  4.3736
   74MOL0     H 9941  -0.025   0.277  10.324 -1.5501 -1.8728 -1.4138
   74MOL0     H 9942  -0.031   0.187   9.949 -1.4582  0.5197  0.0306
   74MOL0     H 9943  -0.128   0.234  10.084  0.0678  1.0855  1.3111
   74MOL0     H 9944   0.065   0.445   9.978 -0.0870  1.0035 -0.6553
   74MOL0     H 9945  -0.083   0.458  10.068  0.4988 -1.3180  1.1462
   74MOL0     H 9946  -0.205   0.339   9.877  0.4540 -0.9092 -1.0743
   74MOL0     H 9947  -0.064   0.386   9.773  2.0783 -1.2406  1.7220
   74MOL0     H 9948  -0.078   0.608   9.809 -0.3448 -1.6915 -1.7541
   74MOL0     H 9949  -0.205   0.597   9.932 -1.9885  0.9527 -1.7757
   74MOL0     H 9950  -0.409   0.498   9.955  0.1652  1.9703  0.3437
   74MOL0     H 9951  -0.757   0.534  10.012 -0.3755 -1.6948  2.4152
   74MOL0     H 9952  -0.698   0.375   9.960  0.3930 -0.2603 -1.5613
   74MOL0     H 9953  -0.603   0.470  10.074 -3.8742  0.5691  2.5137
   74MOL0     H 9954  -1.019   0.440   9.595 -1.7072 -3.7052 -2.1767
   74MOL0     H 9955  -1.246   0.352   9.557 -1.3600  2.8634  0.9714
   74MOL0     H 9956  -1.448   0.444   9.903 -0.6371 -2.1648  1.4102
   74MOL0     H 9957  -1.503   0.476   9.738  2.5795 -0.3708 -0.7816
   74MOL0     H 9958  -1.661   0.276   9.767  2.0959 -2.4424  0.7564
   74MOL0     H 9959  -1.595   0.264   9.928  2.1198 -1.1628 -1.2841
   74MOL0     H 9960  -1.742   0.520   9.808  0.9473  1.5962  1.1258
   74MOL0     H 9961  -1.683   0.503   9.970 -0.1186  0.5031 -0.3467
   74MOL0     H 9962  -1.889   0.317   9.856  0.1327  2.5884 -2.5037
   74MOL0     H 9963  -1.836   0.325  10.020 -1.8704  0.8580  0.2846
   74MOL0     H 9964  -1.959   0.572   9.896 -0.1090 -1.1885 -1.4530
   74MOL0     H 9965  -1.941   0.541  10.060  4.3291  0.9909 -1.2431
   74MOL0     H 9966  -2.123   0.382   9.860 -2.4070  2.0273 -1.6828
   74MOL0     H 9967  -2.100   0.329  10.036  3.2783  2.0683  2.0857
   74MOL0     H 9968  -2.194   0.603   9.953  0.7870  0.5769  1.5714
   74MOL0     H 9969  -2.198   0.537  10.112  3.4412  3.0125 -0.2428
   74MOL0     H 9970  -2.430   0.484  10.054 -0.7097 -1.9253  0.5387
   74MOL0     H 9971  -2.343   0.337  10.022 -0.7810  0.9608  1.9632
   74MOL0     H 9972  -1.270   0.311   9.980 -0.7211 -1.1353 -1.0506
   74MOL0     H 9973  -1.042   0.375  10.010  0.6643 -1.3082 -0.7907
   74MOL0     H 9974  -0.651   0.639   9.554  1.1601 -0.5710 -0.4950
   74MOL0     H 9975  -0.399   0.641   9.550  1.8496  0.8911  1.3052
   74MOL0     H 9976   1.070   0.457  10.802  0.2391 -2.4553 -0.3803
   74MOL0     H 9977   1.302   0.445  10.903  1.3587  0.9618  0.2741
   74MOL0     H 9978   1.555   0.429  11.479 -0.0707  2.5267 -0.2527
   74MOL0     H 9979   1.777   0.344  11.501 -0.7815 -0.0964  0.6129
   74MOL0     H 9980   2.156   0.278  11.274  0.1992  1.1483  2.4227
   74MOL0     H 9981   2.051   0.332  11.143  0.7270 -4.3918  1.0370
   74MOL0     H 9982   2.144   0.489  11.392 -3.6001  2.6466  0.3928
   74MOL0     H 9983   2.043   0.560  11.268 -1.7115 -0.8142  2.5363
   74MOL0     H 9984   2.191   0.548  11.112 -1.2926  0.8757  1.5256
   74MOL0     H 9985   2.322   0.432  11.189  0.2356  1.0741 -0.1178
   74MOL0     H 9986   2.253   0.718  11.217 -0.2819 -0.9065 -2.4745
   74MOL0     H 9987   2.403   0.650  11.161 -0.9058 -1.7678 -0.1917
   74MOL0     H 9988   2.450   0.669  11.581 -1.6950 -0.5678 -0.2106
   74MOL0     H 9989   1.882   0.444  11.112  0.5002  0.4217  0.8080
   74MOL0     H 9990   1.657   0.522  11.067  0.8164  4.0751  1.2990
   75MOL0     O 9991   1.103   5.384  11.324 -0.3761 -0.5710  0.6281
   75MOL0     C 9992   1.064   5.496  11.357  0.0288 -0.1222  0.3470
   75MOL0     O 9993   0.983   5.524  11.461 -0.5759  0.5403  0.1725
   75MOL0     C 9994   0.912   5.426  11.519  0.3299 -1.3060 -0.5800
   75MOL0     C 9995   0.849   5.321  11.453 -0.0283 -0.0220 -0.0448
   75MOL0     C 9996   0.763   5.232  11.529 -1.1473 -0.5923  0.5320
   75MOL0     C 9997   0.733   5.261  11.661 -0.3327  0.0973 -0.3638
   75MOL0     O 9998   0.682   5.160  11.739 -0.0901  0.4284  0.1839
   75MOL0     C 9999   0.568   5.187  11.820 -0.3194 -0.8421  0.9951
   75MOL0     C10000   0.542   5.054  11.885 -0.2229  0.2178 -0.3185
   75MOL0     C10001   0.431   5.070  11.993 -0.3102  0.0159 -0.1695
   75MOL0     C10002   0.426   4.941  12.082 -0.1745 -0.1099  0.3656
   75MOL0     C10003   0.395   4.808  12.001 -0.2984 -0.4154  0.3989
   75MOL0     C10004   0.392   4.691  12.100 -0.7979  1.1215  1.0211
   75MOL0     C10005   0.338   4.564  12.026  0.3594 -0.1905  0.2356
   75MOL0     C10006   0.193   4.562  11.970  0.5925  0.2631 -0.0320
   75MOL0     N10007   0.097   4.547  12.083  0.1165 -0.3661 -0.4882
   75MOL0     C10008   0.045   4.418  12.121 -0.6862 -0.2761 -0.6892
   75MOL0     C10009  -0.065   4.445  12.202 -0.3724 -0.7370 -0.2517
   75MOL0     C10010  -0.140   4.345  12.284  0.4245 -0.2135 -0.0950
   75MOL0     C10011  -0.275   4.389  12.319  0.3583  0.0293 -0.2820
   75MOL0     C10012  -0.378   4.370  12.206  0.3907 -1.3214 -0.0171
   75MOL0     C10013  -0.523   4.352  12.247  0.7623 -0.4878 -0.2276
   75MOL0     O10014  -0.539   4.239  12.328  0.1116  0.1074 -0.6365
   75MOL0     C10015  -0.667   4.190  12.334 -0.1866 -0.1750 -0.4303
   75MOL0     C10016  -0.674   4.060  12.388  0.5520  0.4103 -0.3002
   75MOL0     C10017  -0.800   3.996  12.411 -0.2189  0.4734  0.7843
   75MOL0     C10018  -0.798   3.852  12.469  0.1437  0.2525  0.0321
   75MOL0     C10019  -0.923   4.063  12.387 -0.5980  0.6718 -0.3499
   75MOL0     C10020  -1.064   4.007  12.398 -0.4396 -0.0893  0.1424
   75MOL0     O10021  -1.164   4.085  12.346 -0.4211  0.0107 -0.5128
   75MOL0     C10022  -1.292   4.028  12.347 -1.2077 -1.1088 -0.3712
   75MOL0     C10023  -1.320   3.896  12.305 -0.9749 -0.5450  0.9146
   75MOL0     C10024  -1.455   3.848  12.294 -0.4432  0.1026 -0.0646
   75MOL0     C10025  -1.557   3.929  12.335 -0.9281 -0.5357 -0.4152
   75MOL0     O10026  -1.689   3.890  12.349  0.0725 -0.1332 -0.9813
   75MOL0     C10027  -1.715   3.751  12.320  0.0858  0.5052 -0.5829
   75MOL0     C10028  -1.861   3.720  12.333  0.3268  0.3202  0.4254
   75MOL0     C10029  -1.903   3.717  12.484  0.5267  0.5718 -0.6390
   75MOL0     C10030  -2.049   3.676  12.507  0.2974 -1.0181 -0.0971
   75MOL0     C10031  -2.132   3.804  12.491 -0.8254  1.3962 -0.3794
   75MOL0     C10032  -2.280   3.762  12.481  0.3414  0.4130  0.3240
   75MOL0     C10033  -2.359   3.889  12.470  0.5384 -0.2790  0.8344
   75MOL0     C10034  -2.505   3.864  12.496  0.0083 -0.5621  0.4019
   75MOL0    Cl10035  -2.569   3.761  12.369  0.0774  0.1143  0.4316
   75MOL0     C10036  -1.526   4.063  12.370 -0.2791 -0.1672  0.5996
   75MOL0     C10037  -1.395   4.112  12.387 -0.2179  0.0133  0.7370
   75MOL0     O10038  -1.082   3.912  12.475 -0.1474 -0.3241  0.3167
   75MOL0     C10039  -0.906   4.196  12.341  0.0308  0.1881 -1.3449
   75MOL0     C10040  -0.783   4.258  12.316 -0.4034  0.7557 -0.6937
   75MOL0     N10041  -0.080   4.588  12.204  0.1923 -0.0389 -0.2251
   75MOL0     N10042   0.011   4.642  12.131  0.9618  0.2202  0.6294
   75MOL0     C10043   0.785   5.372  11.721  0.5468 -0.8341 -0.6007
   75MOL0     C10044   0.870   5.452  11.653  0.2189 -0.0292 -0.5952
   75MOL0     C10045   1.098   5.607  11.269 -0.4098  0.2685  0.3846
   75MOL0     C10046   1.180   5.597  11.155 -0.4245  0.9548 -0.3442
   75MOL0     C10047   1.203   5.697  11.061 -0.1062 -0.0636 -0.5888
   75MOL0     C10048   1.139   5.820  11.077  0.1737  0.0921 -0.0278
   75MOL0     O10049   1.175   5.924  10.998 -0.6287  1.0970 -0.2854
   75MOL0     C10050   1.081   6.027  10.973 -0.6895  0.6131  0.3671
   75MOL0     C10051   1.114   6.110  10.848  0.4777  0.3008  0.7704
   75MOL0     C10052   1.224   6.203  10.899  0.2889  0.6588 -0.7915
   75MOL0     C10053   1.316   6.282  10.804  0.3263 -0.2683  0.3640
   75MOL0     C10054   1.432   6.349  10.867 -0.0090  0.0832  0.1081
   75MOL0     C10055   1.520   6.385  10.937 -0.9686 -0.2568  0.3100
   75MOL0     C10056   1.056   5.834  11.192  0.4961  0.1004 -0.3208
   75MOL0     C10057   1.041   5.736  11.288  0.6842 -0.0937  0.3943
   75MOL0     H10058   0.860   5.303  11.347  2.1765  2.3134 -0.3061
   75MOL0     H10059   0.728   5.136  11.493 -0.4795 -0.5264 -0.3274
   75MOL0     H10060   0.590   5.258  11.900 -3.1501  1.1579  0.1506
   75MOL0     H10061   0.482   5.210  11.756 -2.4779  0.8519  4.2227
   75MOL0     H10062   0.527   4.974  11.811 -2.9754  0.5051 -0.1721
   75MOL0     H10063   0.637   5.031  11.935 -0.0187 -0.6871 -1.0887
   75MOL0     H10064   0.459   5.155  12.056 -1.4445  0.3201 -0.0469
   75MOL0     H10065   0.336   5.097  11.946  0.7232 -0.7933 -2.8728
   75MOL0     H10066   0.526   4.925  12.124  0.5441 -1.3581 -1.6817
   75MOL0     H10067   0.357   4.947  12.167 -0.5030 -2.6793  0.3620
   75MOL0     H10068   0.305   4.822  11.940 -0.9762 -0.1151  1.4342
   75MOL0     H10069   0.478   4.782  11.935 -0.4029 -1.0063  0.4983
   75MOL0     H10070   0.497   4.677  12.130 -0.1675  2.0066 -0.6146
   75MOL0     H10071   0.316   4.708  12.177 -0.9196  0.6032  1.0168
   75MOL0     H10072   0.401   4.552  11.937  0.0056  2.0203 -0.3688
   75MOL0     H10073   0.353   4.468  12.077 -4.0698  0.0996  2.5280
   75MOL0     H10074   0.176   4.487  11.893 -0.5041  1.0187 -0.5463
   75MOL0     H10075   0.160   4.658  11.928 -0.6275  0.1191  0.5482
   75MOL0     H10076   0.084   4.318  12.105  2.4383  0.9060 -1.1967
   75MOL0     H10077  -0.139   4.245  12.241 -0.4301  0.0067 -0.6461
   75MOL0     H10078  -0.095   4.339  12.384 -0.8488 -4.1451  0.3886
   75MOL0     H10079  -0.277   4.492  12.356  0.5432 -0.2121  0.4195
   75MOL0     H10080  -0.310   4.334  12.407  0.2171 -0.5188 -0.6801
   75MOL0     H10081  -0.345   4.292  12.138  2.6037 -0.1690 -0.3807
   75MOL0     H10082  -0.373   4.455  12.138 -1.5948  1.0010  2.4878
   75MOL0     H10083  -0.579   4.337  12.154  1.9369 -2.0963 -0.7315
   75MOL0     H10084  -0.551   4.442  12.301 -3.5558 -1.6931 -0.0963
   75MOL0     H10085  -0.581   4.014  12.419  0.8029 -0.1040 -1.7873
   75MOL0     H10086  -0.697   3.810  12.476 -0.7693 -2.4053 -1.4215
   75MOL0     H10087  -0.824   3.852  12.576  1.5695  0.4822  0.4104
   75MOL0     H10088  -0.856   3.778  12.413 -2.2373  0.3821  2.1620
   75MOL0     H10089  -1.242   3.824  12.279 -3.2128 -1.9883 -2.5405
   75MOL0     H10090  -1.475   3.745  12.270 -1.1533  0.7058 -2.2569
   75MOL0     H10091  -1.701   3.730  12.213  2.5615 -3.6140  0.3430
   75MOL0     H10092  -1.658   3.673  12.370  1.4499  0.7722 -1.6673
   75MOL0     H10093  -1.917   3.794  12.275 -1.8840  1.4098  3.6701
   75MOL0     H10094  -1.888   3.622  12.290 -1.3203  1.8482 -2.3277
   75MOL0     H10095  -1.881   3.813  12.533  0.0934  0.2588  0.1965
   75MOL0     H10096  -1.839   3.651  12.542 -0.4454 -0.6564 -0.9307
   75MOL0     H10097  -2.081   3.605  12.431 -3.6819 -0.1232  0.5099
   75MOL0     H10098  -2.065   3.631  12.606  2.3771  2.5396  2.1188
   75MOL0     H10099  -2.117   3.859  12.397 -1.6230  1.7080 -0.3363
   75MOL0     H10100  -2.113   3.871  12.575 -1.9607 -0.9677  1.9089
   75MOL0     H10101  -2.292   3.695  12.395 -3.2662  0.2779  0.7725
   75MOL0     H10102  -2.312   3.704  12.568 -1.5325  0.8367 -0.0464
   75MOL0     H10103  -2.345   3.931  12.370  3.7037  0.4410  1.4726
   75MOL0     H10104  -2.332   3.963  12.545  0.6988  1.0916 -0.5306
   75MOL0     H10105  -2.556   3.960  12.486  1.6439  0.0854 -3.9340
   75MOL0     H10106  -2.507   3.817  12.595  0.3142  0.6417  1.0041
   75MOL0     H10107  -1.609   4.126  12.399  1.0758  1.2181  1.6238
   75MOL0     H10108  -1.381   4.211  12.429 -1.7060  0.6916 -0.2654
   75MOL0     H10109  -0.990   4.257  12.311 -0.6609 -0.6179 -1.0672
   75MOL0     H10110  -0.782   4.363  12.290  0.5625  0.6299 -1.2021
   75MOL0     H10111   0.753   5.407  11.819  1.2166 -0.0182 -0.6651
   75MOL0     H10112   0.909   5.539  11.705  1.9214 -1.4988  0.7197
   75MOL0     H10113   1.249   5.514  11.157  1.7694  2.6627  2.3632
   75MOL0     H10114   1.274   5.688  10.980  0.3722  1.9465 -0.4556
   75MOL0     H10115   0.981   5.984  10.964  0.4937 -1.7568 -3.1993
   75MOL0     H10116   1.081   6.096  11.058  0.7414  2.1099 -0.7802
   75MOL0     H10117   1.028   6.169  10.814 -0.8728 -1.1101  1.6377
   75MOL0     H10118   1.156   6.052  10.766  0.5720  1.6628 -0.1765
   75MOL0     H10119   1.291   6.158  10.973  1.3332  2.0197 -0.8533
   75MOL0     H10120   1.169   6.277  10.957 -1.5745 -0.8897 -0.4891
   75MOL0     H10121   1.252   6.357  10.757 -2.8062 -2.2761  1.1515
   75MOL0     H10122   1.334   6.203  10.730 -2.6244 -1.5188  0.8364
   75MOL0     H10123   1.607   6.426  10.984 -0.1270 -0.5339 -0.9387
   75MOL0     H10124   1.018   5.931  11.220 -1.1336 -0.3057 -0.9831
   75MOL0     H10125   0.969   5.751  11.368  0.2963 -1.5952  0.3519
   76MOL0     O10126   0.840   9.925   3.830 -0.1851 -0.0687 -0.1534
   76MOL0     C10127   0.862   9.820   3.777 -0.6595  0.0569  0.4596
   76MOL0     O10128   0.772   9.728   3.748 -0.0770  0.2196  0.1964
   76MOL0     C10129   0.645   9.743   3.785  0.2867 -0.7534  0.3617
   76MOL0     C10130   0.552   9.692   3.687 -0.3520  0.2344  0.0675
   76MOL0     C10131   0.415   9.708   3.697 -0.3861 -0.1488 -0.2718
   76MOL0     C10132   0.364   9.758   3.813  0.3334  0.3441  0.4390
   76MOL0     O10133   0.230   9.762   3.853  0.7139  0.0737 -0.9660
   76MOL0     C10134   0.131   9.720   3.763  0.5169  0.1299  0.9863
   76MOL0     C10135   0.109   9.568   3.781  0.5780 -0.8356 -0.2076
   76MOL0     C10136   0.039   9.538   3.918 -0.7794 -0.0050  0.4905
   76MOL0     C10137  -0.099   9.484   3.906 -0.7392 -0.1355  0.7728
   76MOL0     C10138  -0.155   9.420   4.035 -0.0718 -0.0504 -0.3995
   76MOL0     C10139  -0.272   9.321   4.015  0.3997  1.3583  0.2488
   76MOL0     C10140  -0.360   9.308   4.134 -0.3670  0.2711 -0.1898
   76MOL0     C10141  -0.289   9.287   4.264 -0.7919 -0.0795 -0.4097
   76MOL0     N10142  -0.383   9.226   4.356  0.1831  0.1625  0.2696
   76MOL0     C10143  -0.456   9.305   4.443 -0.7391  0.0023  0.0181
   76MOL0     C10144  -0.557   9.226   4.493 -0.3629  0.7100 -0.1987
   76MOL0     C10145  -0.661   9.256   4.603 -0.1298  0.2448  0.4187
   76MOL0     C10146  -0.794   9.301   4.539 -0.2527  0.5527 -0.4235
   76MOL0     C10147  -0.783   9.424   4.463 -0.1409 -0.3696 -0.8388
   76MOL0     C10148  -0.919   9.450   4.393 -0.8897  1.5672  0.1934
   76MOL0     O10149  -1.012   9.500   4.486  0.8365 -0.0121 -0.4676
   76MOL0     C10150  -1.140   9.523   4.446 -0.5412 -0.4558 -0.2747
   76MOL0     C10151  -1.245   9.530   4.543 -0.1292 -0.7991 -0.3537
   76MOL0     C10152  -1.376   9.539   4.498 -0.5892 -0.5485  0.7868
   76MOL0     C10153  -1.496   9.550   4.599  0.9099 -0.0558  0.6080
   76MOL0     C10154  -1.409   9.543   4.361  0.2357 -0.0203  0.0517
   76MOL0     C10155  -1.541   9.550   4.302  0.3482 -0.4218 -0.0000
   76MOL0     O10156  -1.615   9.664   4.338 -0.0603  0.4549 -0.2289
   76MOL0     C10157  -1.753   9.658   4.318  1.1153 -0.1972  0.2890
   76MOL0     C10158  -1.846   9.677   4.426  0.8446 -0.0540 -0.0523
   76MOL0     C10159  -1.979   9.651   4.415 -1.2652  0.0037 -0.4379
   76MOL0     C10160  -2.041   9.618   4.290  0.0684 -0.1940 -0.1004
   76MOL0     O10161  -2.169   9.585   4.277  0.0374 -0.4160  0.3504
   76MOL0     C10162  -2.261   9.652   4.371  0.6204  0.6779  0.0662
   76MOL0     C10163  -2.400   9.601   4.328  0.1260  0.4981  0.1805
   76MOL0     C10164  -2.505   9.643   4.436  0.0706 -0.4959 -0.0903
   76MOL0     C10165  -2.644   9.579   4.413  0.7021  0.7618  0.6919
   76MOL0     C10166  -2.760   9.624   4.492  0.4656  0.8295  0.9435
   76MOL0     C10167  -2.890   9.610   4.407  0.5514  0.0430  0.4018
   76MOL0     C10168  -3.001   9.681   4.475  1.2427 -0.4102 -1.1135
   76MOL0     C10169  -3.135   9.613   4.440  0.2776 -0.6014  0.4207
   76MOL0    Cl10170  -3.276   9.739   4.472 -0.4597  0.4848  0.3877
   76MOL0     C10171  -1.948   9.607   4.183  0.7793 -0.5801  0.3307
   76MOL0     C10172  -1.809   9.633   4.195  0.7054  0.6281 -0.2556
   76MOL0     O10173  -1.569   9.467   4.212  0.0164 -0.3089 -0.8733
   76MOL0     C10174  -1.309   9.529   4.265  0.3337 -0.1442  0.1774
   76MOL0     C10175  -1.178   9.530   4.309  0.4882  0.7950 -0.0657
   76MOL0     N10176  -0.549   9.095   4.432 -0.1133  0.5184 -0.5722
   76MOL0     N10177  -0.446   9.105   4.350  0.1032 -0.0881  0.0313
   76MOL0     C10178   0.447   9.819   3.909  0.0375 -0.3577 -0.8885
   76MOL0     C10179   0.587   9.813   3.898  0.7398 -0.5274 -0.0724
   76MOL0     C10180   0.998   9.794   3.727  0.2479 -0.0470 -0.7125
   76MOL0     C10181   1.112   9.878   3.754  0.4233 -0.0310 -0.7954
   76MOL0     C10182   1.226   9.868   3.680  0.1001  0.0765 -0.1770
   76MOL0     C10183   1.246   9.772   3.588  0.5203 -0.3286 -0.9534
   76MOL0     O10184   1.369   9.749   3.528  0.5149 -0.3397  0.1860
   76MOL0     C10185   1.474   9.841   3.549  0.3482 -0.0535  0.6840
   76MOL0     C10186   1.595   9.780   3.483 -0.3003  0.2807  0.2688
   76MOL0     C10187   1.649   9.668   3.571 -1.2120 -0.5657  0.3801
   76MOL0     C10188   1.799   9.625   3.531  0.5683 -0.0846 -1.4582
   76MOL0     C10189   1.796   9.500   3.457 -0.5053  0.0493 -1.1316
   76MOL0     C10190   1.790   9.399   3.387 -0.0535  0.3699  0.0675
   76MOL0     C10191   1.144   9.682   3.574 -0.5741  0.4668  0.2643
   76MOL0     C10192   1.021   9.688   3.640 -0.5124 -0.4213 -0.4940
   76MOL0     H10193   0.577   9.647   3.592 -0.8856 -1.9958  0.9138
   76MOL0     H10194   0.346   9.669   3.623 -1.2821 -1.4235  1.1662
   76MOL0     H10195   0.039   9.774   3.787 -1.3380 -2.3155 -0.1384
   76MOL0     H10196   0.145   9.751   3.659 -0.1676 -5.0503 -0.9502
   76MOL0     H10197   0.044   9.525   3.704  0.6538  0.3583 -0.9557
   76MOL0     H10198   0.208   9.522   3.776  0.8108 -0.3770  0.1088
   76MOL0     H10199   0.101   9.474   3.981  0.7797 -0.6689 -1.6175
   76MOL0     H10200   0.016   9.627   3.978  0.9367 -0.0137  1.2082
   76MOL0     H10201  -0.173   9.556   3.870 -0.8076 -1.2718 -1.5330
   76MOL0     H10202  -0.100   9.408   3.827  0.0827  1.3661 -0.7278
   76MOL0     H10203  -0.076   9.362   4.084 -1.5861 -0.7943  1.2863
   76MOL0     H10204  -0.188   9.499   4.104  0.0281 -2.4660  2.6105
   76MOL0     H10205  -0.345   9.357   3.941  2.7416  1.9120 -1.9274
   76MOL0     H10206  -0.243   9.218   3.992 -3.4177 -0.0425  0.9235
   76MOL0     H10207  -0.423   9.398   4.130 -2.3415 -1.0981 -1.6094
   76MOL0     H10208  -0.424   9.222   4.117  0.1597 -0.2885  0.6141
   76MOL0     H10209  -0.247   9.381   4.301  0.3757 -1.3569  1.7334
   76MOL0     H10210  -0.207   9.216   4.246 -0.5990  0.8232 -3.6467
   76MOL0     H10211  -0.437   9.412   4.456  1.8390 -0.2967 -0.6936
   76MOL0     H10212  -0.681   9.161   4.654 -0.8744 -1.3255 -2.5292
   76MOL0     H10213  -0.630   9.342   4.663  1.6830  0.5425 -0.8625
   76MOL0     H10214  -0.861   9.324   4.622  0.4652 -0.0526  0.3578
   76MOL0     H10215  -0.836   9.215   4.486  0.5236  0.5016 -0.9867
   76MOL0     H10216  -0.704   9.413   4.388  0.6927 -3.3511  0.3262
   76MOL0     H10217  -0.762   9.505   4.533 -1.4995 -1.8804  1.4272
   76MOL0     H10218  -0.954   9.359   4.344 -3.2172  1.7126  1.4759
   76MOL0     H10219  -0.895   9.532   4.325  0.5063  0.4078 -0.7863
   76MOL0     H10220  -1.211   9.539   4.645  0.1347  0.9122 -0.5674
   76MOL0     H10221  -1.474   9.517   4.700 -0.4394  0.1791  1.0024
   76MOL0     H10222  -1.527   9.654   4.613  0.3655 -0.2673  1.0348
   76MOL0     H10223  -1.586   9.504   4.557 -1.5288  2.0920  3.0824
   76MOL0     H10224  -1.811   9.699   4.527 -0.6647  0.4760  0.3807
   76MOL0     H10225  -2.028   9.664   4.511 -2.0919  1.7831 -1.0585
   76MOL0     H10226  -2.250   9.619   4.474 -1.7741 -0.8931 -0.0819
   76MOL0     H10227  -2.257   9.761   4.369 -1.6866  0.8290  0.6514
   76MOL0     H10228  -2.424   9.642   4.230 -0.8258 -2.0482 -0.7111
   76MOL0     H10229  -2.396   9.494   4.308  2.8485  0.3929  0.9064
   76MOL0     H10230  -2.522   9.750   4.452 -0.9674 -0.7548  0.6257
   76MOL0     H10231  -2.475   9.605   4.534  0.5027  0.5254  0.1812
   76MOL0     H10232  -2.656   9.599   4.306 -0.1162  0.7226  0.7655
   76MOL0     H10233  -2.629   9.471   4.428 -0.2259  0.3436 -1.0660
   76MOL0     H10234  -2.739   9.730   4.513 -0.0597  0.8980  1.1449
   76MOL0     H10235  -2.769   9.576   4.589 -0.1241 -2.5540 -0.6531
   76MOL0     H10236  -2.875   9.657   4.309  1.9069  1.7843  1.3954
   76MOL0     H10237  -2.918   9.505   4.392 -1.2674  0.8318 -2.7866
   76MOL0     H10238  -3.002   9.784   4.438  1.3130  0.5178  1.3323
   76MOL0     H10239  -2.980   9.687   4.582 -1.8463 -1.7505 -0.3398
   76MOL0     H10240  -3.150   9.516   4.488 -1.6736  0.9207  3.1423
   76MOL0     H10241  -3.140   9.587   4.333 -2.0041  1.0369  0.0740
   76MOL0     H10242  -1.989   9.571   4.089 -1.3822  1.9501  0.1949
   76MOL0     H10243  -1.741   9.610   4.113  0.1708 -3.2382  0.1805
   76MOL0     H10244  -1.341   9.512   4.163 -1.8938  0.9261  0.6306
   76MOL0     H10245  -1.100   9.524   4.235 -1.6967 -2.5764 -2.4042
   76MOL0     H10246   0.403   9.873   3.992  1.3030  0.0553 -0.4667
   76MOL0     H10247   0.641   9.864   3.977 -1.2182  2.8442 -0.6751
   76MOL0     H10248   1.114   9.961   3.824  0.9163 -1.8265  1.4419
   76MOL0     H10249   1.307   9.938   3.699  2.0022 -2.5488  2.2802
   76MOL0     H10250   1.461   9.934   3.491  0.8966 -1.0863 -1.1715
   76MOL0     H10251   1.499   9.873   3.650  1.1834  0.9007  0.1997
   76MOL0     H10252   1.676   9.853   3.473  0.5516 -0.6487  0.2072
   76MOL0     H10253   1.561   9.741   3.387  0.3484  2.6859 -1.0312
   76MOL0     H10254   1.587   9.578   3.565  1.2935 -2.3824 -0.1659
   76MOL0     H10255   1.641   9.703   3.674  1.3453 -1.3634  0.9184
   76MOL0     H10256   1.850   9.614   3.627 -0.1196  0.6684 -0.9885
   76MOL0     H10257   1.849   9.704   3.475 -1.8222  1.1705 -1.9540
   76MOL0     H10258   1.785   9.307   3.331  0.4524  0.3474  0.0579
   76MOL0     H10259   1.168   9.599   3.509  0.7172  0.7754  0.3043
   76MOL0     H10260   0.936   9.622   3.623 -0.6378 -0.2409 -0.5649
   77MOL0     O10261  10.941  11.383   6.159 -0.7666 -0.1546 -0.7061
   77MOL0     C10262  10.984  11.458   6.074  0.1711  0.2495  0.1528
   77MOL0     O10263  10.905  11.543   5.991  0.3777  0.3240  0.1276
   77MOL0     C10264  10.770  11.565   5.999 -0.1747 -0.5420 -0.0697
   77MOL0     C10265  10.727  11.666   5.917  0.5039 -0.7083 -1.0836
   77MOL0     C10266  10.590  11.712   5.912 -0.2636  0.1802 -0.1150
   77MOL0     C10267  10.496  11.652   5.996 -0.2811  0.0918  0.2062
   77MOL0     O10268  10.361  11.670   5.970  0.2048 -0.0180 -0.0557
   77MOL0     C10269  10.325  11.796   5.912  0.6423  0.6035  0.4560
   77MOL0     C10270  10.171  11.796   5.899 -0.2687 -0.5562 -0.3599
   77MOL0     C10271  10.094  11.741   6.022 -0.4657 -1.1260  0.0337
   77MOL0     C10272   9.947  11.768   5.995  0.2117  0.0488  0.8965
   77MOL0     C10273   9.845  11.738   6.108 -0.8518 -0.5118  0.2415
   77MOL0     C10274   9.802  11.593   6.116 -0.0594  0.3349 -1.0718
   77MOL0     C10275   9.700  11.572   6.224 -0.1490 -0.6339  0.1066
   77MOL0     C10276   9.636  11.432   6.221  0.7121  0.3688  0.1902
   77MOL0     N10277   9.508  11.427   6.146  0.4018  0.5538  0.0323
   77MOL0     C10278   9.397  11.503   6.168 -0.6531  0.3089  0.8726
   77MOL0     C10279   9.319  11.475   6.060 -0.0509  0.0005  0.2807
   77MOL0     C10280   9.175  11.515   6.039  0.2623  0.0510  1.1944
   77MOL0     C10281   9.156  11.667   6.017 -0.2709  0.7143  0.4630
   77MOL0     C10282   9.002  11.693   6.009  0.2758 -0.4499 -0.5385
   77MOL0     C10283   8.991  11.828   5.938  0.0132  0.0257 -0.0304
   77MOL0     O10284   8.853  11.852   5.935  0.1371  0.2591  0.1992
   77MOL0     C10285   8.787  11.882   6.050  0.7911  0.0197 -0.2390
   77MOL0     C10286   8.664  11.816   6.076 -0.0311 -0.0068 -0.2262
   77MOL0     C10287   8.602  11.826   6.194  0.6911  0.1471 -0.2438
   77MOL0     C10288   8.464  11.754   6.205 -0.3806  1.1165  0.4951
   77MOL0     C10289   8.657  11.921   6.295  0.1122 -0.2186  0.2865
   77MOL0     C10290   8.602  11.936   6.429  0.8446 -0.0227  0.1829
   77MOL0     O10291   8.640  12.048   6.495 -0.0245 -0.1362 -0.5135
   77MOL0     C10292   8.558  12.103   6.594  0.2369 -0.2085 -0.0536
   77MOL0     C10293   8.417  12.094   6.612  0.4241 -0.2175  0.1025
   77MOL0     C10294   8.352  12.160   6.711 -0.3370  0.6764 -0.7008
   77MOL0     C10295   8.429  12.239   6.805  0.2045 -0.1490  0.1079
   77MOL0     O10296   8.357  12.296   6.909 -0.3659  0.5149 -0.0844
   77MOL0     C10297   8.416  12.300   7.040  0.2926  1.2336 -0.8135
   77MOL0     C10298   8.367  12.158   7.085 -0.2533  0.0891 -0.2505
   77MOL0     C10299   8.245  12.165   7.178  0.2388  0.7347  0.8367
   77MOL0     C10300   8.124  12.215   7.096 -0.3715  0.5673 -0.0695
   77MOL0     C10301   7.998  12.230   7.186 -0.2456  0.2433  0.0614
   77MOL0     C10302   7.889  12.275   7.094  0.8518 -0.4817  0.1913
   77MOL0     C10303   7.756  12.287   7.160  0.2760  0.1785  0.2439
   77MOL0     C10304   7.664  12.352   7.066  0.9369 -0.5248  0.2639
   77MOL0    Cl10305   7.488  12.349   7.098 -0.4717  0.1938 -0.3774
   77MOL0     C10306   8.567  12.263   6.773  0.2696 -0.5264 -0.8323
   77MOL0     C10307   8.628  12.198   6.666 -0.3742  1.0473  0.0053
   77MOL0     O10308   8.535  11.841   6.480 -0.3777 -0.4767  0.2517
   77MOL0     C10309   8.770  11.994   6.265 -0.1461 -0.5760 -0.1698
   77MOL0     C10310   8.834  11.965   6.149  0.7686 -0.3676  0.0668
   77MOL0     N10311   9.376  11.388   5.971  0.2816 -1.4660  0.0613
   77MOL0     N10312   9.493  11.361   6.027  0.0103 -1.1488  0.0711
   77MOL0     C10313  10.540  11.553   6.079  0.0702  0.5610  0.9302
   77MOL0     C10314  10.672  11.513   6.085 -0.1393  0.8544  0.1236
   77MOL0     C10315  11.127  11.436   6.044 -0.4955 -0.4996 -0.6683
   77MOL0     C10316  11.216  11.351   6.112  0.8732  0.7582  0.5974
   77MOL0     C10317  11.352  11.351   6.091  0.0766 -0.1263 -0.6694
   77MOL0     C10318  11.410  11.422   5.979  0.4940  0.1633 -0.2784
   77MOL0     O10319  11.533  11.402   5.932  1.0799  0.6817  0.1251
   77MOL0     C10320  11.612  11.306   5.998  0.1676 -0.3009  0.1764
   77MOL0     C10321  11.752  11.296   5.934  0.3925  0.4145  0.1875
   77MOL0     C10322  11.832  11.427   5.933  0.3391 -0.1136 -0.3028
   77MOL0     C10323  11.962  11.425   5.856 -0.6441 -0.2957  0.2122
   77MOL0     C10324  12.016  11.564   5.857  0.8431 -0.0013 -0.2788
   77MOL0     C10325  12.073  11.672   5.866 -0.0715  0.5781 -0.2337
   77MOL0     C10326  11.322  11.500   5.904  0.6291  0.7196  0.8723
   77MOL0     C10327  11.186  11.508   5.933 -0.2532  0.3456  0.9989
   77MOL0     H10328  10.808  11.719   5.867  0.7700 -1.1047 -1.0770
   77MOL0     H10329  10.587  11.795   5.842  3.4837  0.9218  0.4047
   77MOL0     H10330  10.366  11.876   5.974  0.0621  1.6243 -0.4442
   77MOL0     H10331  10.368  11.819   5.814  3.1116  2.5578  1.8847
   77MOL0     H10332  10.131  11.897   5.882  1.7735  0.2542 -0.6764
   77MOL0     H10333  10.147  11.735   5.811 -0.1372  0.0106 -0.7957
   77MOL0     H10334  10.117  11.636   6.042  1.3228 -0.6338  0.7732
   77MOL0     H10335  10.126  11.798   6.110 -0.4704 -0.2275 -0.5440
   77MOL0     H10336   9.931  11.874   5.971  1.1130  0.5594  2.3505
   77MOL0     H10337   9.919  11.720   5.901  0.7152  0.0968  0.7159
   77MOL0     H10338   9.882  11.778   6.203 -1.7443  1.3466 -0.1374
   77MOL0     H10339   9.761  11.803   6.081  1.4982  2.3742 -0.6590
   77MOL0     H10340   9.764  11.556   6.020  0.7242 -1.2237 -0.8194
   77MOL0     H10341   9.889  11.536   6.150  1.9625  2.3186 -2.5813
   77MOL0     H10342   9.741  11.588   6.323  0.2790  1.1803 -0.3272
   77MOL0     H10343   9.627  11.650   6.201  1.6118  0.3463 -2.6367
   77MOL0     H10344   9.630  11.410   6.328 -0.1426 -3.3888 -0.4919
   77MOL0     H10345   9.709  11.359   6.183  1.5753  1.2461  0.1228
   77MOL0     H10346   9.368  11.555   6.259 -2.7827 -1.1975  1.1377
   77MOL0     H10347   9.133  11.458   5.956 -2.6358  0.0196  2.5762
   77MOL0     H10348   9.128  11.483   6.133 -0.7794 -2.8314 -0.1970
   77MOL0     H10349   9.219  11.698   5.933  0.0146 -0.4807  0.2153
   77MOL0     H10350   9.207  11.706   6.106  0.7405 -1.8116  1.1083
   77MOL0     H10351   8.967  11.701   6.113 -1.4812 -4.1137 -0.7006
   77MOL0     H10352   8.949  11.619   5.949 -1.3330  3.4823 -4.5463
   77MOL0     H10353   9.023  11.823   5.834  1.5099  2.1336  0.2795
   77MOL0     H10354   9.054  11.902   5.989 -1.4133 -0.0715  2.0245
   77MOL0     H10355   8.618  11.756   5.997 -1.5139  1.8494 -0.8359
   77MOL0     H10356   8.384  11.820   6.241 -0.0458  1.1930  1.1161
   77MOL0     H10357   8.428  11.726   6.105  1.3048  0.9983 -0.1111
   77MOL0     H10358   8.455  11.667   6.270 -3.5782  0.1383 -1.0478
   77MOL0     H10359   8.366  12.042   6.531  2.4092  0.7466 -1.8701
   77MOL0     H10360   8.244  12.153   6.717 -0.3442  1.6749  1.2718
   77MOL0     H10361   8.524  12.314   7.041  0.3756  0.8369 -2.1212
   77MOL0     H10362   8.382  12.382   7.103  0.7822  0.4218  0.5407
   77MOL0     H10363   8.348  12.086   7.005 -0.8851 -1.5926  1.3532
   77MOL0     H10364   8.444  12.106   7.142 -1.6921 -0.1807  1.5442
   77MOL0     H10365   8.254  12.228   7.267  4.7351  4.5406 -1.8656
   77MOL0     H10366   8.224  12.062   7.206 -2.9673  1.1298  0.3160
   77MOL0     H10367   8.158  12.308   7.049  3.6912 -0.0760  1.1959
   77MOL0     H10368   8.097  12.148   7.014 -1.3586  1.5584 -0.5882
   77MOL0     H10369   8.012  12.294   7.274  2.1417  0.4113 -0.3605
   77MOL0     H10370   7.965  12.135   7.228 -0.5941  1.4416  2.6744
   77MOL0     H10371   7.923  12.368   7.046  0.4575 -1.2342 -1.6589
   77MOL0     H10372   7.883  12.208   7.008 -1.1458 -2.6415  1.8895
   77MOL0     H10373   7.756  12.345   7.252  0.2062 -1.5592  1.3898
   77MOL0     H10374   7.736  12.181   7.177  3.3357 -0.5968 -0.4351
   77MOL0     H10375   7.675  12.310   6.965  1.1634 -0.2209  0.1597
   77MOL0     H10376   7.698  12.456   7.058  2.7165 -1.1508 -0.9964
   77MOL0     H10377   8.626  12.330   6.834  0.5622  0.3000 -2.0000
   77MOL0     H10378   8.730  12.221   6.636 -1.5137  1.5976 -4.0628
   77MOL0     H10379   8.827  12.054   6.335  0.3949 -3.3718  1.9497
   77MOL0     H10380   8.936  12.001   6.141  0.9327 -1.1841 -2.0205
   77MOL0     H10381  10.470  11.502   6.145 -0.1498  2.2506  2.0601
   77MOL0     H10382  10.694  11.428   6.150 -2.0807  0.1195 -0.1114
   77MOL0     H10383  11.179  11.301   6.201 -1.2419 -0.2990 -0.7894
   77MOL0     H10384  11.417  11.291   6.153  0.3783 -1.2155 -1.9759
   77MOL0     H10385  11.619  11.332   6.104 -2.3896  1.2492  0.0472
   77MOL0     H10386  11.565  11.207   5.993  0.5259 -0.3951 -1.7902
   77MOL0     H10387  11.756  11.246   5.837 -0.4606  0.6912 -0.0010
   77MOL0     H10388  11.808  11.237   6.007  0.3941  2.5775  2.0272
   77MOL0     H10389  11.844  11.460   6.037  0.5589 -2.2508  0.3912
   77MOL0     H10390  11.767  11.499   5.883  2.0689 -0.0494 -2.6196
   77MOL0     H10391  11.940  11.406   5.751  1.8326  0.7879 -0.5626
   77MOL0     H10392  12.025  11.351   5.906 -0.3926  2.0120  3.6312
   77MOL0     H10393  12.110  11.772   5.879 -0.4427  0.9238 -1.6816
   77MOL0     H10394  11.350  11.544   5.809 -0.7196 -1.3092 -0.5602
   77MOL0     H10395  11.127  11.555   5.855  1.5632 -0.6358 -1.0824
   78MOL0     O10396   9.265   6.527  10.925  0.2982 -0.4735 -0.7558
   78MOL0     C10397   9.273   6.650  10.901 -0.2071 -0.1370  0.2272
   78MOL0     O10398   9.168   6.729  10.875  0.3014 -0.5141  0.4720
   78MOL0     C10399   9.038   6.680  10.862  0.0022  0.1462 -0.4943
   78MOL0     C10400   8.979   6.554  10.893  0.2488 -0.6752  0.1939
   78MOL0     C10401   8.841   6.540  10.886 -0.6748 -0.6943  0.7599
   78MOL0     C10402   8.761   6.643  10.841  0.2526  0.3615  0.3610
   78MOL0     O10403   8.630   6.616  10.828  0.1137  0.0794  0.6862
   78MOL0     C10404   8.534   6.723  10.809 -0.0534  0.2938  1.2927
   78MOL0     C10405   8.404   6.656  10.787  0.6670  0.8208 -0.2845
   78MOL0     C10406   8.280   6.749  10.771 -0.2359  0.8756  0.1632
   78MOL0     C10407   8.150   6.672  10.766  1.0518 -0.5152 -0.1188
   78MOL0     C10408   8.028   6.775  10.774 -0.8163  0.5907 -0.2113
   78MOL0     C10409   7.898   6.698  10.773  0.1091 -0.8473  0.1855
   78MOL0     C10410   7.788   6.796  10.743 -0.5482 -0.6554  1.1029
   78MOL0     C10411   7.644   6.731  10.771 -1.1541  0.8433  0.4159
   78MOL0     N10412   7.549   6.815  10.694  0.9403  0.3616 -0.2827
   78MOL0     C10413   7.522   6.947  10.725  0.2254 -0.0823  0.0263
   78MOL0     C10414   7.406   6.971  10.648  0.4311  0.3824  0.1506
   78MOL0     C10415   7.331   7.098  10.653 -0.6376  0.8879  0.2074
   78MOL0     C10416   7.177   7.096  10.618  0.6286  0.4465 -0.7355
   78MOL0     C10417   7.103   7.007  10.714  0.5338 -0.1350  0.5150
   78MOL0     C10418   6.949   7.010  10.696  0.0636 -0.7124  0.3525
   78MOL0     O10419   6.898   6.889  10.755  0.2036 -0.4311 -0.2331
   78MOL0     C10420   6.767   6.864  10.751 -0.0449 -1.1261 -0.0897
   78MOL0     C10421   6.681   6.941  10.677  0.6444 -0.5279  0.0296
   78MOL0     C10422   6.543   6.911  10.678  1.6840 -0.4976 -0.2674
   78MOL0     C10423   6.462   7.019  10.608 -0.3491  0.8996 -0.2686
   78MOL0     C10424   6.495   6.789  10.736  0.5844  0.2061  0.2468
   78MOL0     C10425   6.351   6.749  10.731  0.2249 -0.0060 -0.1329
   78MOL0     O10426   6.332   6.612  10.759  0.5194  0.2300 -0.6978
   78MOL0     C10427   6.206   6.571  10.792  0.8065 -0.0579 -0.5207
   78MOL0     C10428   6.094   6.594  10.702 -0.6568 -0.3179 -0.3474
   78MOL0     C10429   5.962   6.556  10.738  0.3062  0.2647  0.0753
   78MOL0     C10430   5.933   6.487  10.853 -1.1116  0.6461 -1.1184
   78MOL0     O10431   5.799   6.444  10.875 -0.5767  0.0175 -0.1626
   78MOL0     C10432   5.782   6.343  10.977  0.1299 -0.1582  0.7841
   78MOL0     C10433   5.635   6.284  10.984 -0.6775 -0.2580 -0.0676
   78MOL0     C10434   5.538   6.395  10.961 -0.3190 -0.1510 -1.0354
   78MOL0     C10435   5.417   6.390  11.057 -0.7074 -0.6454  1.1083
   78MOL0     C10436   5.332   6.519  11.019  0.5226 -0.0947  0.3726
   78MOL0     C10437   5.199   6.500  11.082 -0.4085  0.3783  0.9033
   78MOL0     C10438   5.103   6.621  11.036 -0.1311  0.5822  0.3800
   78MOL0     C10439   4.965   6.630  11.103  0.0687 -0.1488 -0.3197
   78MOL0    Cl10440   4.866   6.511  11.002  0.3695 -0.3713  0.1239
   78MOL0     C10441   6.047   6.465  10.937  0.6812  0.1546  0.2726
   78MOL0     C10442   6.179   6.513  10.909 -0.3750  0.3862  1.0637
   78MOL0     O10443   6.260   6.833  10.723  0.4404  0.2292 -0.4766
   78MOL0     C10444   6.589   6.709  10.804  1.2880 -0.4611 -0.5035
   78MOL0     C10445   6.717   6.755  10.822 -0.7362 -0.5815 -0.1888
   78MOL0     N10446   7.368   6.848  10.576 -0.2718 -0.8206 -0.5341
   78MOL0     N10447   7.448   6.762  10.611  0.5461  0.0379  0.1137
   78MOL0     C10448   8.814   6.764  10.797  0.5840 -0.8115 -1.0173
   78MOL0     C10449   8.955   6.781  10.806  0.1617  0.3156 -0.0565
   78MOL0     C10450   9.408   6.713  10.905  0.1499  0.1907  0.9303
   78MOL0     C10451   9.429   6.852  10.874  0.6345  0.5654  0.3182
   78MOL0     C10452   9.556   6.910  10.869  0.1931  0.1243 -0.1460
   78MOL0     C10453   9.672   6.828  10.897 -0.2782  0.2847 -0.6996
   78MOL0     O10454   9.796   6.894  10.909 -0.0115  0.3074 -0.0525
   78MOL0     C10455   9.895   6.822  10.981 -0.3209 -0.3931 -0.1080
   78MOL0     C10456  10.013   6.916  10.990  0.4331 -0.6301  0.1107
   78MOL0     C10457  10.156   6.856  10.957  0.0993  0.4339  0.0299
   78MOL0     C10458  10.274   6.954  10.969  0.4594  0.0953 -0.2358
   78MOL0     C10459  10.302   6.985  11.107  1.1570 -0.4506 -0.5939
   78MOL0     C10460  10.335   7.028  11.213  0.0204 -0.1449 -0.6389
   78MOL0     C10461   9.650   6.694  10.936  1.5507 -0.4457 -1.1215
   78MOL0     C10462   9.521   6.639  10.946  0.1226 -0.7416 -0.6421
   78MOL0     H10463   9.045   6.477  10.933  2.5228  1.2482  0.4008
   78MOL0     H10464   8.782   6.452  10.910 -5.1713  1.6399 -0.5997
   78MOL0     H10465   8.532   6.791  10.895 -2.4718  2.4622 -0.3488
   78MOL0     H10466   8.559   6.780  10.719  0.4010  2.1666  2.5441
   78MOL0     H10467   8.410   6.591  10.699  1.5541  1.2337 -0.5365
   78MOL0     H10468   8.383   6.591  10.873  1.8835  0.3932 -0.2894
   78MOL0     H10469   8.278   6.825  10.850 -0.4602 -1.9247  3.0514
   78MOL0     H10470   8.299   6.817  10.688 -0.6639  2.5753  1.4100
   78MOL0     H10471   8.133   6.624  10.669 -0.7880 -0.9082  0.3499
   78MOL0     H10472   8.150   6.602  10.850  0.6112 -0.9184 -0.4439
   78MOL0     H10473   8.035   6.825  10.871 -1.4441 -2.0780  1.3144
   78MOL0     H10474   8.029   6.848  10.693  0.3938  3.9088  2.5601
   78MOL0     H10475   7.910   6.626  10.691  1.3874 -0.4736  0.0294
   78MOL0     H10476   7.887   6.628  10.857  0.3281 -1.4335 -0.2643
   78MOL0     H10477   7.798   6.886  10.805 -2.2784  0.2506  0.1312
   78MOL0     H10478   7.789   6.841  10.644  1.3263  0.1395  1.4330
   78MOL0     H10479   7.622   6.736  10.878  1.4418 -1.3647  1.1612
   78MOL0     H10480   7.641   6.630  10.729 -2.7880  0.8764  0.3880
   78MOL0     H10481   7.570   7.007  10.801 -0.6034  0.5379  0.0771
   78MOL0     H10482   7.356   7.142  10.750 -0.1033  1.7759 -0.3180
   78MOL0     H10483   7.380   7.167  10.583 -1.6206  2.6913  1.2154
   78MOL0     H10484   7.163   7.066  10.514  1.4892  1.4813 -1.1727
   78MOL0     H10485   7.133   7.194  10.639  0.3907 -0.3264  3.2396
   78MOL0     H10486   7.110   7.039  10.819 -1.4921  1.8282  0.1305
   78MOL0     H10487   7.137   6.905  10.695  1.7290  0.5085 -0.9669
   78MOL0     H10488   6.927   7.008  10.589 -1.0160 -0.9755  0.5746
   78MOL0     H10489   6.906   7.099  10.742  2.8539  0.6855  0.4842
   78MOL0     H10490   6.713   7.020  10.609  0.8401 -0.8501 -0.2520
   78MOL0     H10491   6.383   6.977  10.546  1.3926 -1.9426 -0.7802
   78MOL0     H10492   6.418   7.096  10.672 -1.8936  2.0994 -2.6405
   78MOL0     H10493   6.525   7.077  10.539 -0.3031  0.6940 -0.4018
   78MOL0     H10494   6.118   6.637  10.605  3.6626 -0.6184  0.3741
   78MOL0     H10495   5.891   6.580  10.659  3.2399  2.2047 -2.1924
   78MOL0     H10496   5.855   6.263  10.966  0.7459  0.5282 -0.3333
   78MOL0     H10497   5.799   6.394  11.072  3.1038  1.0363 -0.2631
   78MOL0     H10498   5.598   6.215  10.907 -2.9302  1.0806 -0.2961
   78MOL0     H10499   5.622   6.233  11.080 -1.7436 -0.5924 -0.3703
   78MOL0     H10500   5.519   6.388  10.854  0.9993 -0.2967 -1.2847
   78MOL0     H10501   5.583   6.492  10.985 -2.2345  0.1755  1.7006
   78MOL0     H10502   5.367   6.295  11.038 -1.1381 -0.4739  1.3817
   78MOL0     H10503   5.457   6.387  11.159  0.2755 -0.0018  0.7562
   78MOL0     H10504   5.329   6.530  10.911  0.6703 -4.0039 -0.1603
   78MOL0     H10505   5.368   6.611  11.066  1.8708 -0.2518 -0.3023
   78MOL0     H10506   5.155   6.404  11.057  0.1503 -0.0378  1.4895
   78MOL0     H10507   5.212   6.501  11.191  0.3788  1.6214  0.8235
   78MOL0     H10508   5.077   6.603  10.931 -2.7529 -3.2070  1.4763
   78MOL0     H10509   5.158   6.716  11.041 -0.0133  0.7778 -2.8224
   78MOL0     H10510   4.939   6.735  11.085 -0.1162 -0.0717  0.3888
   78MOL0     H10511   4.967   6.613  11.211 -0.4095 -3.6400 -0.7420
   78MOL0     H10512   6.048   6.404  11.026  0.7490 -1.5989 -0.8823
   78MOL0     H10513   6.260   6.484  10.975 -1.3886 -0.9464  1.7641
   78MOL0     H10514   6.557   6.614  10.844 -3.0182  1.9230  2.5778
   78MOL0     H10515   6.779   6.699  10.891  1.2534  0.1138 -1.3255
   78MOL0     H10516   8.751   6.842  10.756 -0.0319 -1.0309 -0.5090
   78MOL0     H10517   8.990   6.881  10.784  0.1964  0.4700  0.6728
   78MOL0     H10518   9.351   6.921  10.844 -1.1190 -0.8965  1.3113
   78MOL0     H10519   9.560   7.015  10.844  1.5486  0.2416  0.4357
   78MOL0     H10520   9.860   6.794  11.081  1.3381 -0.0583  0.6033
   78MOL0     H10521   9.933   6.729  10.936  1.8197 -0.9479  2.5884
   78MOL0     H10522  10.026   6.950  11.093 -1.2288 -0.9870  0.4766
   78MOL0     H10523   9.987   7.008  10.936 -1.7017  0.5932  2.9571
   78MOL0     H10524  10.149   6.821  10.853 -0.0866 -1.6105  0.6904
   78MOL0     H10525  10.166   6.769  11.023 -0.5654  1.5883  1.7169
   78MOL0     H10526  10.265   7.040  10.901  2.0434 -2.3772 -3.8932
   78MOL0     H10527  10.364   6.898  10.940  0.1472 -0.5919  0.1025
   78MOL0     H10528  10.368   7.070  11.305 -0.3133  1.6632 -1.3112
   78MOL0     H10529   9.728   6.625  10.967  1.8342  1.1031  1.9743
   78MOL0     H10530   9.510   6.534  10.971 -0.5654 -1.1513 -2.5372
   79MOL0     O10531   6.222   0.773   1.926 -0.6434 -0.3011 -0.1302
   79MOL0     C10532   6.228   0.829   1.817 -0.8720  0.2173  0.2656
   79MOL0     O10533   6.130   0.896   1.756  0.0698  0.5051 -0.3960
   79MOL0     C10534   6.006   0.894   1.816 -0.9758  0.1721 -0.2381
   79MOL0     C10535   5.907   0.840   1.738  0.1468  0.0775  0.0298
   79MOL0     C10536   5.779   0.831   1.789  0.1499  0.3125  0.1324
   79MOL0     C10537   5.743   0.882   1.915 -0.2998  0.3273 -0.7261
   79MOL0     O10538   5.616   0.869   1.953 -0.2708  0.3035  0.0965
   79MOL0     C10539   5.595   0.808   2.082  0.2449  0.6905  0.3507
   79MOL0     C10540   5.446   0.765   2.104 -0.1265  0.5930  0.4787
   79MOL0     C10541   5.395   0.648   2.020  0.6112 -0.3009  0.4345
   79MOL0     C10542   5.252   0.591   2.055 -1.0780 -0.4409 -0.4699
   79MOL0     C10543   5.178   0.502   1.948 -0.3858 -0.6098 -1.1864
   79MOL0     C10544   5.237   0.353   1.946  0.7560 -0.3063 -0.3823
   79MOL0     C10545   5.155   0.266   1.849 -0.5024 -0.5208 -0.3827
   79MOL0     C10546   5.180   0.306   1.695  0.0354  0.6590  0.6933
   79MOL0     N10547   5.081   0.255   1.606  0.3619  0.6807  0.7668
   79MOL0     C10548   4.981   0.169   1.638 -0.0790 -0.2145 -0.8089
   79MOL0     C10549   4.930   0.123   1.518  0.6383 -1.0864  0.3842
   79MOL0     C10550   4.808   0.034   1.508  0.0406 -0.7501  1.0869
   79MOL0     C10551   4.705   0.091   1.404  0.8343  0.6634  0.1990
   79MOL0     C10552   4.580  -0.002   1.407 -0.7670  0.0432 -0.5817
   79MOL0     C10553   4.470   0.059   1.317 -1.2101  0.4328  0.2157
   79MOL0     O10554   4.359  -0.031   1.269 -0.0408 -0.3726 -0.3033
   79MOL0     C10555   4.256  -0.074   1.350  0.1592  0.5051  1.1942
   79MOL0     C10556   4.232  -0.024   1.474  0.7667  0.0483 -0.2770
   79MOL0     C10557   4.123  -0.064   1.552 -0.4213  0.4572 -0.4290
   79MOL0     C10558   4.111  -0.014   1.693  0.0699  0.4752  0.2823
   79MOL0     C10559   4.053  -0.176   1.507  0.4546 -0.6122  0.0678
   79MOL0     C10560   3.937  -0.248   1.583  0.9107 -0.0303 -0.2515
   79MOL0     O10561   3.867  -0.179   1.681 -1.2881  0.2268 -0.0561
   79MOL0     C10562   3.760  -0.248   1.729 -0.2858 -0.2889 -0.5222
   79MOL0     C10563   3.656  -0.311   1.651  0.8819 -0.4108 -0.6435
   79MOL0     C10564   3.551  -0.371   1.718 -0.1968 -0.7440 -0.4556
   79MOL0     C10565   3.547  -0.381   1.861  0.2446  0.9912  0.7304
   79MOL0     O10566   3.441  -0.433   1.926  0.0581 -0.1251  0.5731
   79MOL0     C10567   3.322  -0.352   1.918 -0.3919  0.0673  0.0869
   79MOL0     C10568   3.216  -0.440   1.978 -0.0984  0.0436 -0.4016
   79MOL0     C10569   3.082  -0.359   1.982 -0.0950 -0.0318  0.3202
   79MOL0     C10570   2.979  -0.456   2.038 -0.5322 -0.2071 -0.1065
   79MOL0     C10571   2.850  -0.367   2.058 -0.6514 -0.5852 -0.7443
   79MOL0     C10572   2.777  -0.333   1.931  0.0713  0.3269 -0.2434
   79MOL0     C10573   2.625  -0.294   1.961 -0.0015  0.6744  0.0346
   79MOL0     C10574   2.534  -0.270   1.833  0.2982  0.7284 -0.8636
   79MOL0    Cl10575   2.355  -0.266   1.875 -0.1409 -0.0272 -0.6082
   79MOL0     C10576   3.643  -0.320   1.938 -0.1235 -0.0008 -0.7296
   79MOL0     C10577   3.762  -0.270   1.869 -0.6450 -0.3055  0.4745
   79MOL0     O10578   3.924  -0.364   1.548  0.5733  0.1658  0.3766
   79MOL0     C10579   4.072  -0.217   1.375 -0.1691  0.5793 -0.0087
   79MOL0     C10580   4.184  -0.184   1.296 -0.0689  0.3261  0.2144
   79MOL0     N10581   5.004   0.193   1.418 -0.6821 -0.9414  0.5897
   79MOL0     N10582   5.083   0.281   1.474 -0.1812  0.4741 -0.2204
   79MOL0     C10583   5.849   0.937   1.995  0.8147  0.4511  0.2483
   79MOL0     C10584   5.981   0.947   1.939 -0.4601  0.6502 -0.1036
   79MOL0     C10585   6.353   0.813   1.742  0.1631 -0.2868 -0.0463
   79MOL0     C10586   6.466   0.761   1.806  0.4849  0.7097 -0.3619
   79MOL0     C10587   6.589   0.744   1.753 -0.0224 -0.0874  0.2964
   79MOL0     C10588   6.610   0.755   1.614  0.3303  0.3826 -0.5729
   79MOL0     O10589   6.725   0.721   1.557 -0.3099  0.1785 -0.3749
   79MOL0     C10590   6.850   0.737   1.628  0.6165  0.2535 -0.0310
   79MOL0     C10591   6.961   0.651   1.573  0.4682  0.0514 -0.5214
   79MOL0     C10592   6.966   0.640   1.422 -0.2007 -0.4255  0.3953
   79MOL0     C10593   7.103   0.663   1.366  0.2605 -0.3234  0.1085
   79MOL0     C10594   7.201   0.575   1.428 -0.1213 -0.0089 -1.2096
   79MOL0     C10595   7.274   0.501   1.483  0.0051  0.7782 -0.6499
   79MOL0     C10596   6.504   0.816   1.546  0.2493  0.0659 -0.1209
   79MOL0     C10597   6.376   0.831   1.604  0.0591 -0.7177  1.0672
   79MOL0     H10598   5.938   0.797   1.643 -0.8525 -1.1594  0.2366
   79MOL0     H10599   5.708   0.780   1.724 -0.8559  2.2283 -0.3343
   79MOL0     H10600   5.652   0.715   2.086 -0.5969  0.1593  0.3389
   79MOL0     H10601   5.633   0.876   2.159 -1.9841 -0.5988  2.7869
   79MOL0     H10602   5.433   0.740   2.209  0.2521 -0.0599  0.3765
   79MOL0     H10603   5.380   0.852   2.093 -0.2647  0.4837  0.4499
   79MOL0     H10604   5.399   0.673   1.913 -1.0864  1.5226  0.7436
   79MOL0     H10605   5.459   0.560   2.031  2.7496  1.2164  0.6380
   79MOL0     H10606   5.268   0.542   2.151  1.6624  0.8902 -0.1607
   79MOL0     H10607   5.181   0.672   2.075 -4.2428 -2.1602 -3.5784
   79MOL0     H10608   5.073   0.508   1.977 -0.3710  1.4715 -1.3775
   79MOL0     H10609   5.186   0.558   1.855  0.4339 -0.9568 -1.3380
   79MOL0     H10610   5.342   0.351   1.916  0.7092 -3.5434 -0.6203
   79MOL0     H10611   5.242   0.300   2.041  2.0267 -0.1838 -0.3660
   79MOL0     H10612   5.187   0.161   1.853  2.3659  0.1472 -2.1439
   79MOL0     H10613   5.049   0.275   1.874 -0.6199 -0.7597 -0.7764
   79MOL0     H10614   5.274   0.263   1.659  0.3036 -0.1950  2.3135
   79MOL0     H10615   5.177   0.414   1.682 -1.5663  0.4134 -1.7764
   79MOL0     H10616   4.940   0.145   1.736 -1.2244 -1.0251 -1.4589
   79MOL0     H10617   4.854  -0.057   1.467  1.1560  0.5911 -0.8355
   79MOL0     H10618   4.766   0.019   1.608 -3.0995  1.6371  0.3029
   79MOL0     H10619   4.744   0.114   1.305  0.3493 -0.3324 -0.2394
   79MOL0     H10620   4.678   0.187   1.450  0.3060 -0.2015  1.7664
   79MOL0     H10621   4.548  -0.015   1.511 -0.7909 -0.1908 -0.6174
   79MOL0     H10622   4.607  -0.100   1.366 -0.5433  0.2012 -0.8199
   79MOL0     H10623   4.521   0.104   1.232  0.6627  0.7818  1.4729
   79MOL0     H10624   4.424   0.139   1.376 -2.4455 -1.4288  1.9145
   79MOL0     H10625   4.288   0.060   1.513 -2.0506  0.0452  4.6497
   79MOL0     H10626   4.027   0.053   1.712 -0.8715 -0.9953  1.5321
   79MOL0     H10627   4.105  -0.100   1.760  1.8284  2.5259  3.3448
   79MOL0     H10628   4.205   0.034   1.724  0.8430 -1.5563  1.2964
   79MOL0     H10629   3.643  -0.312   1.543 -1.1539  2.6081 -0.5336
   79MOL0     H10630   3.470  -0.419   1.663  0.4948 -2.8049  0.2297
   79MOL0     H10631   3.334  -0.256   1.969  1.0898 -0.1068  0.1210
   79MOL0     H10632   3.302  -0.337   1.812 -1.3090  1.2201  0.4038
   79MOL0     H10633   3.201  -0.526   1.912  0.0849  1.8389 -2.8929
   79MOL0     H10634   3.249  -0.478   2.075  0.9456  0.4224 -0.6034
   79MOL0     H10635   3.070  -0.329   1.878  0.1589 -0.5161  0.1500
   79MOL0     H10636   3.089  -0.269   2.043  0.5484  0.0584  0.1135
   79MOL0     H10637   2.956  -0.545   1.978 -3.8400  1.0227 -0.9332
   79MOL0     H10638   3.007  -0.480   2.141  3.1753 -3.7875 -1.7141
   79MOL0     H10639   2.884  -0.282   2.117 -1.2113 -1.0944  0.3315
   79MOL0     H10640   2.793  -0.418   2.135  2.3174 -3.0287  0.0223
   79MOL0     H10641   2.825  -0.243   1.891  0.1570 -0.1307 -1.1841
   79MOL0     H10642   2.792  -0.417   1.864  1.7365 -0.7197  1.3753
   79MOL0     H10643   2.619  -0.199   2.015 -0.0212  0.2263  0.8221
   79MOL0     H10644   2.579  -0.367   2.027  2.0737 -1.1661 -0.4343
   79MOL0     H10645   2.535  -0.356   1.765 -1.1431 -2.5771  2.8956
   79MOL0     H10646   2.557  -0.181   1.773  1.5697  0.1769 -1.2465
   79MOL0     H10647   3.649  -0.323   2.046  3.7068  0.8467 -0.7710
   79MOL0     H10648   3.846  -0.235   1.928 -0.2997 -0.4804  0.0934
   79MOL0     H10649   4.027  -0.303   1.326 -1.0453  0.6621  0.6328
   79MOL0     H10650   4.195  -0.237   1.201  1.0431 -0.2759  0.6673
   79MOL0     H10651   5.828   0.974   2.095 -2.2999 -0.6824  0.1312
   79MOL0     H10652   6.061   0.986   2.001 -1.6834  0.2804  1.7932
   79MOL0     H10653   6.452   0.717   1.904  1.8295  2.0220  0.4600
   79MOL0     H10654   6.654   0.690   1.822  0.3242  1.5075  1.2605
   79MOL0     H10655   6.867   0.845   1.630 -1.0711  0.5759  2.8295
   79MOL0     H10656   6.840   0.712   1.734 -1.9449 -1.4899 -0.5832
   79MOL0     H10657   6.951   0.551   1.616 -0.4010  0.5591  0.5045
   79MOL0     H10658   7.056   0.696   1.605  0.3280 -0.3663  0.5339
   79MOL0     H10659   6.896   0.710   1.375 -0.9056 -0.9053  0.7123
   79MOL0     H10660   6.915   0.549   1.389  0.5556 -0.4316 -0.8044
   79MOL0     H10661   7.133   0.768   1.379 -1.4246  0.0785  1.0299
   79MOL0     H10662   7.103   0.634   1.260  2.8806  0.6537 -0.2417
   79MOL0     H10663   7.337   0.422   1.517 -0.0186  1.2170  0.4363
   79MOL0     H10664   6.518   0.836   1.440 -0.0266 -1.5957 -0.5036
   79MOL0     H10665   6.288   0.862   1.548 -0.9716 -0.5101  2.7238
   80MOL0     O10666   3.699   3.260   8.331 -0.4313  0.2279  0.3468
   80MOL0     C10667   3.784   3.328   8.275 -0.4131  0.3095 -0.5570
   80MOL0     O10668   3.773   3.450   8.214  1.3128 -0.1927  0.0552
   80MOL0     C10669   3.641   3.491   8.206 -0.1289 -0.4317 -0.3847
   80MOL0     C10670   3.554   3.444   8.112 -0.1243  0.1064 -0.2779
   80MOL0     C10671   3.419   3.503   8.108 -0.2531  0.3063 -0.1169
   80MOL0     C10672   3.375   3.589   8.209  0.0835  0.2970 -0.0172
   80MOL0     O10673   3.240   3.623   8.204  0.4985 -0.1351 -0.4299
   80MOL0     C10674   3.184   3.722   8.288  0.2767  0.0056 -0.4274
   80MOL0     C10675   3.030   3.748   8.252 -0.1701 -0.0357  0.6378
   80MOL0     C10676   3.003   3.729   8.101 -0.3462 -0.1084 -0.7663
   80MOL0     C10677   3.084   3.828   8.021  1.0036  0.2761 -0.2697
   80MOL0     C10678   3.078   3.794   7.872  0.0253 -0.5398  0.0531
   80MOL0     C10679   3.179   3.875   7.783  0.4294 -0.2097  0.1295
   80MOL0     C10680   3.147   4.029   7.788  0.3701 -0.2828  0.2282
   80MOL0     C10681   3.202   4.118   7.673 -0.0084 -0.7785  0.0149
   80MOL0     N10682   3.107   4.111   7.561 -0.9987  0.2768  0.0567
   80MOL0     C10683   3.084   4.002   7.477  0.6851 -0.0208  0.7158
   80MOL0     C10684   3.006   4.049   7.383  0.6903 -0.3339  0.3632
   80MOL0     C10685   2.947   3.989   7.263 -0.0483 -0.8714 -0.2862
   80MOL0     C10686   2.824   3.907   7.302 -0.1250  0.0258 -0.2502
   80MOL0     C10687   2.763   3.815   7.192 -0.1118  0.4799 -0.3692
   80MOL0     C10688   2.678   3.703   7.260 -0.4854  0.2252  0.9985
   80MOL0     O10689   2.636   3.605   7.169  0.5610 -1.4010 -0.3757
   80MOL0     C10690   2.517   3.546   7.205 -0.0816  1.0414 -0.3677
   80MOL0     C10691   2.447   3.498   7.102 -0.0060 -0.1285  0.0267
   80MOL0     C10692   2.316   3.444   7.118 -0.4319  0.4556  0.8769
   80MOL0     C10693   2.240   3.439   6.987 -0.1903 -0.7359 -0.3185
   80MOL0     C10694   2.276   3.403   7.243  0.1103 -0.2490  0.1369
   80MOL0     C10695   2.138   3.366   7.276 -0.0051  0.6723  0.3659
   80MOL0     O10696   2.133   3.297   7.398 -0.4302  1.1661  0.2514
   80MOL0     C10697   2.011   3.265   7.455 -0.4716  0.3620  0.7729
   80MOL0     C10698   1.986   3.131   7.484  0.2355 -1.2410  0.5490
   80MOL0     C10699   1.854   3.105   7.536  1.0879  0.2841  0.2788
   80MOL0     C10700   1.758   3.199   7.563 -0.4744 -0.1208  0.2976
   80MOL0     O10701   1.642   3.145   7.606 -0.2234  0.8340  0.0859
   80MOL0     C10702   1.539   3.245   7.639  0.6116  0.8894 -0.0692
   80MOL0     C10703   1.408   3.177   7.681 -0.1015  0.1790 -0.5147
   80MOL0     C10704   1.351   3.104   7.564  0.5056 -0.3317  0.7184
   80MOL0     C10705   1.218   3.028   7.592 -0.0036 -0.0235 -1.1336
   80MOL0     C10706   1.166   2.948   7.474  0.2118  0.0130  0.2254
   80MOL0     C10707   1.238   2.816   7.469 -0.1810  0.5941 -0.7811
   80MOL0     C10708   1.232   2.737   7.334  0.0458  0.4323  0.0045
   80MOL0     C10709   1.329   2.621   7.341  0.5657 -0.4252 -0.0968
   80MOL0    Cl10710   1.251   2.490   7.420  0.4814  0.0939 -0.0025
   80MOL0     C10711   1.796   3.337   7.539 -0.4601 -0.3859 -0.3278
   80MOL0     C10712   1.915   3.363   7.477 -0.7329 -0.2774  0.2716
   80MOL0     O10713   2.045   3.392   7.198  0.3525  0.0331  0.0078
   80MOL0     C10714   2.362   3.446   7.347 -0.2857  0.7318  0.7964
   80MOL0     C10715   2.482   3.512   7.327  0.0052  0.8478 -0.8494
   80MOL0     N10716   2.972   4.182   7.403 -0.4087 -0.2898 -1.2106
   80MOL0     N10717   3.050   4.219   7.511 -0.3512  0.4037 -0.3188
   80MOL0     C10718   3.475   3.642   8.293 -0.3059 -0.1006  0.4425
   80MOL0     C10719   3.602   3.597   8.294 -0.0740 -0.1395 -0.2255
   80MOL0     C10720   3.907   3.262   8.224  0.1381 -0.5490  0.4444
   80MOL0     C10721   3.936   3.134   8.274  0.0575  0.1445  0.3150
   80MOL0     C10722   4.054   3.073   8.228 -0.2209 -0.7136  1.2690
   80MOL0     C10723   4.144   3.138   8.151  0.0270 -0.2459  0.4495
   80MOL0     O10724   4.258   3.070   8.121 -0.4333  0.0054 -0.3798
   80MOL0     C10725   4.326   3.113   8.008 -0.3180 -0.7230  0.4911
   80MOL0     C10726   4.464   3.050   7.995 -0.0523  0.1247  0.3894
   80MOL0     C10727   4.440   2.907   7.940 -0.7621  0.4674  0.3510
   80MOL0     C10728   4.572   2.860   7.862  0.2400 -0.2420  0.3285
   80MOL0     C10729   4.659   2.798   7.953  0.2473  0.3525 -0.7575
   80MOL0     C10730   4.742   2.753   8.033  0.3102  1.2902  0.8515
   80MOL0     C10731   4.116   3.266   8.103 -0.4367  0.9557 -0.2117
   80MOL0     C10732   3.995   3.326   8.135  0.4970 -0.2238 -0.5062
   80MOL0     H10733   3.569   3.366   8.038 -2.3251 -1.0225  0.3520
   80MOL0     H10734   3.346   3.462   8.039  1.6138 -1.4705 -1.1296
   80MOL0     H10735   3.190   3.686   8.392  0.1016  1.2377  0.0294
   80MOL0     H10736   3.242   3.814   8.272  1.0288 -0.0292  1.6934
   80MOL0     H10737   2.980   3.680   8.322  3.7984 -2.7698  1.1732
   80MOL0     H10738   3.002   3.851   8.273 -0.4530  0.3851 -1.5772
   80MOL0     H10739   3.014   3.627   8.063  0.7147 -0.7306  1.0653
   80MOL0     H10740   2.899   3.761   8.091 -0.6506 -0.1195  1.7075
   80MOL0     H10741   3.050   3.931   8.036  1.2089  0.1708  1.0901
   80MOL0     H10742   3.191   3.831   8.045  0.9741 -0.9564  0.0777
   80MOL0     H10743   3.100   3.687   7.866  1.0954 -0.2927 -0.8657
   80MOL0     H10744   2.982   3.815   7.824  1.1018  2.8194 -0.9338
   80MOL0     H10745   3.283   3.878   7.818  0.7232  4.2244 -0.5886
   80MOL0     H10746   3.184   3.825   7.686  1.8019 -0.9488  0.5540
   80MOL0     H10747   3.039   4.040   7.781  0.5130  0.3654 -1.3225
   80MOL0     H10748   3.175   4.079   7.881  1.2127 -1.6141  0.7254
   80MOL0     H10749   3.301   4.080   7.648 -0.3528 -0.9082 -1.2525
   80MOL0     H10750   3.217   4.221   7.707 -0.0638 -0.4244 -1.0068
   80MOL0     H10751   3.114   3.900   7.494  0.1296 -0.5261 -1.1484
   80MOL0     H10752   2.922   4.065   7.189 -4.0361 -1.1100  0.5858
   80MOL0     H10753   3.025   3.922   7.224  0.0402 -2.5356  2.4429
   80MOL0     H10754   2.751   3.966   7.358  0.4430  0.7588 -0.2683
   80MOL0     H10755   2.857   3.835   7.378 -0.7004  0.8474  0.8232
   80MOL0     H10756   2.843   3.770   7.132  0.4740  1.0587 -0.0386
   80MOL0     H10757   2.708   3.872   7.116  0.1827  1.4205  0.1095
   80MOL0     H10758   2.592   3.751   7.308 -1.1321 -2.1806  2.4455
   80MOL0     H10759   2.735   3.658   7.342 -0.5798 -1.1589  0.3423
   80MOL0     H10760   2.474   3.520   6.999  1.0546 -1.3140  0.0256
   80MOL0     H10761   2.219   3.339   6.949 -0.0001 -1.0674  0.4343
   80MOL0     H10762   2.150   3.500   6.997  1.1129  1.3234 -0.4943
   80MOL0     H10763   2.289   3.475   6.896  1.8176 -2.3856  0.0484
   80MOL0     H10764   2.066   3.063   7.458  1.4707  0.4935 -0.3727
   80MOL0     H10765   1.824   3.001   7.550  0.2124  0.6295  1.0276
   80MOL0     H10766   1.569   3.311   7.721 -0.1021 -0.9890  1.7915
   80MOL0     H10767   1.520   3.310   7.553 -0.8741 -0.0670 -0.5014
   80MOL0     H10768   1.433   3.106   7.760  0.1617  1.1319  0.2826
   80MOL0     H10769   1.340   3.253   7.720  0.6126  3.0176 -4.2005
   80MOL0     H10770   1.420   3.036   7.514 -4.0054 -3.6894 -1.7693
   80MOL0     H10771   1.325   3.176   7.486 -0.3381 -2.2056 -0.8304
   80MOL0     H10772   1.231   2.965   7.681 -0.0787  3.0602  1.2350
   80MOL0     H10773   1.146   3.103   7.625 -2.1709 -1.2729 -2.8155
   80MOL0     H10774   1.188   3.004   7.382 -1.1584 -1.2322 -0.9113
   80MOL0     H10775   1.059   2.928   7.468  0.2896 -0.4755  0.4496
   80MOL0     H10776   1.344   2.822   7.497 -0.0287 -0.2850 -1.1232
   80MOL0     H10777   1.186   2.750   7.539 -0.2145  1.0520 -0.3705
   80MOL0     H10778   1.267   2.804   7.254 -0.8704 -1.8203 -2.4478
   80MOL0     H10779   1.132   2.704   7.305 -0.0420  1.4379 -0.9295
   80MOL0     H10780   1.419   2.639   7.400  0.4020 -0.1618  0.0776
   80MOL0     H10781   1.361   2.593   7.240  2.9345 -0.0296  0.4950
   80MOL0     H10782   1.729   3.414   7.575 -0.8939 -1.6888  1.8361
   80MOL0     H10783   1.947   3.466   7.470  4.8523 -1.5349  1.6212
   80MOL0     H10784   2.318   3.438   7.446  0.1898  1.2122  1.0521
   80MOL0     H10785   2.543   3.538   7.413 -1.3770 -0.2421  0.5234
   80MOL0     H10786   3.446   3.723   8.359  0.7947  2.4035 -1.9173
   80MOL0     H10787   3.675   3.648   8.357  0.0749  2.3339 -2.2157
   80MOL0     H10788   3.865   3.082   8.336  0.0336 -1.2077 -0.7920
   80MOL0     H10789   4.077   2.973   8.264 -0.9310 -0.9877  0.9885
   80MOL0     H10790   4.264   3.103   7.918  0.7859  0.7406 -0.4698
   80MOL0     H10791   4.341   3.221   8.015  1.3074 -0.8849 -0.1227
   80MOL0     H10792   4.513   3.043   8.093  0.5862  3.3354  0.4081
   80MOL0     H10793   4.520   3.119   7.932 -0.0855 -1.3589 -1.3464
   80MOL0     H10794   4.363   2.902   7.863  0.2761  4.4531 -1.1826
   80MOL0     H10795   4.412   2.843   8.025 -0.8274  0.6657  0.4801
   80MOL0     H10796   4.616   2.944   7.809 -2.7716  0.2318 -1.7102
   80MOL0     H10797   4.530   2.784   7.795 -3.9400  2.3013 -0.3109
   80MOL0     H10798   4.803   2.704   8.106 -0.5234 -0.0384  0.6952
   80MOL0     H10799   4.180   3.340   8.056 -1.1400  1.9925  0.4160
   80MOL0     H10800   3.982   3.427   8.100  1.3428 -0.3402 -1.2039
   81MOL0     O10801  11.112   6.904   5.055  0.4608  0.2742 -0.6551
   81MOL0     C10802  11.147   7.018   5.028  1.1042 -0.2037  0.0527
   81MOL0     O10803  11.074   7.111   4.949 -0.5692  0.2571  0.5911
   81MOL0     C10804  10.962   7.062   4.882  0.5521  0.1574  0.3052
   81MOL0     C10805  10.834   7.117   4.908 -0.4789  0.4429  0.1219
   81MOL0     C10806  10.718   7.073   4.841 -0.6104 -0.6292 -0.1836
   81MOL0     C10807  10.732   6.984   4.744 -0.6284  0.0264 -0.3595
   81MOL0     O10808  10.613   6.955   4.680  0.4349 -0.0313 -0.4015
   81MOL0     C10809  10.618   6.868   4.564 -0.6167 -0.3964  0.6450
   81MOL0     C10810  10.486   6.876   4.491  0.5676 -0.2112  0.3657
   81MOL0     C10811  10.382   6.794   4.578 -0.0382  0.2209 -0.4135
   81MOL0     C10812  10.246   6.759   4.509 -0.5503  0.1150 -0.3216
   81MOL0     C10813  10.185   6.899   4.460  0.1569 -0.0984  1.1949
   81MOL0     C10814  10.058   6.873   4.384  0.5578 -0.2758 -0.0247
   81MOL0     C10815  10.001   7.003   4.346 -0.8569 -1.0817 -0.3140
   81MOL0     C10816   9.898   6.996   4.237 -0.1445  0.0474 -0.9408
   81MOL0     N10817   9.823   7.120   4.217 -0.0002 -0.0875 -0.0905
   81MOL0     C10818   9.765   7.207   4.311  0.2460  0.4244  0.0166
   81MOL0     C10819   9.670   7.280   4.246 -0.4929 -1.0772 -0.5654
   81MOL0     C10820   9.574   7.386   4.297  1.0541 -0.0634 -0.7528
   81MOL0     C10821   9.433   7.307   4.291 -0.2435 -0.3531 -0.1748
   81MOL0     C10822   9.314   7.408   4.334  0.1191  0.1614 -0.9792
   81MOL0     C10823   9.187   7.328   4.353 -0.4748 -0.6402 -0.0550
   81MOL0     O10824   9.168   7.282   4.489 -0.3831 -0.4240 -0.0251
   81MOL0     C10825   9.067   7.183   4.513  0.0103  0.1056 -0.1014
   81MOL0     C10826   8.990   7.124   4.406  0.5870  0.4838  0.2530
   81MOL0     C10827   8.897   7.021   4.425 -0.0074 -0.0381  0.2322
   81MOL0     C10828   8.829   6.969   4.301  0.1623  0.2465 -0.1894
   81MOL0     C10829   8.870   6.976   4.560  0.8746  0.0329 -0.5447
   81MOL0     C10830   8.776   6.861   4.589  0.5948  0.4322 -0.3269
   81MOL0     O10831   8.799   6.808   4.711 -0.2822  0.2265 -0.0373
   81MOL0     C10832   8.735   6.691   4.758 -0.3347 -1.0180 -0.3849
   81MOL0     C10833   8.593   6.702   4.773  0.3954 -0.0565 -0.3983
   81MOL0     C10834   8.521   6.581   4.812  0.5160  0.0003 -0.2033
   81MOL0     C10835   8.592   6.465   4.841 -0.4796  0.1832  0.1326
   81MOL0     O10836   8.515   6.356   4.885 -0.0710 -0.7211 -0.5770
   81MOL0     C10837   8.432   6.299   4.774  0.4477  0.6822 -0.1980
   81MOL0     C10838   8.326   6.201   4.833  1.3119  0.7348 -0.3023
   81MOL0     C10839   8.219   6.280   4.905  0.0600 -0.4535  0.4495
   81MOL0     C10840   8.098   6.185   4.912 -0.6716 -0.7676 -0.1239
   81MOL0     C10841   8.137   6.050   4.971 -0.8015  0.1407  0.7543
   81MOL0     C10842   8.020   5.970   5.009 -0.3783  1.3967 -0.6204
   81MOL0     C10843   8.071   5.835   5.078 -1.0512  0.0914 -0.2230
   81MOL0     C10844   7.952   5.758   5.138  0.6074 -0.3948 -0.2588
   81MOL0    Cl10845   8.020   5.596   5.183 -0.2395  0.0086 -0.2019
   81MOL0     C10846   8.731   6.461   4.838  0.0416  0.3407  0.9306
   81MOL0     C10847   8.805   6.573   4.795  0.4607 -0.7109 -0.5550
   81MOL0     O10848   8.708   6.808   4.503  0.9485 -1.2843  0.6886
   81MOL0     C10849   8.943   7.034   4.660  0.5983 -0.0413 -0.2005
   81MOL0     C10850   9.028   7.142   4.640 -0.6583 -0.5048 -0.1088
   81MOL0     N10851   9.696   7.256   4.113  0.0146  0.4498 -0.3572
   81MOL0     N10852   9.785   7.165   4.099 -0.0313 -0.0905  0.5668
   81MOL0     C10853  10.858   6.923   4.714  0.0426 -0.5037  0.1643
   81MOL0     C10854  10.968   6.957   4.790 -0.5737  0.1062  0.0592
   81MOL0     C10855  11.266   7.061   5.107 -0.7536  0.3731 -0.5066
   81MOL0     C10856  11.310   7.192   5.098 -0.6089 -1.2313  0.1707
   81MOL0     C10857  11.425   7.235   5.165 -0.3748  0.0387 -0.3914
   81MOL0     C10858  11.503   7.138   5.244  0.1078 -0.9164  0.1284
   81MOL0     O10859  11.608   7.189   5.303 -0.1518 -0.3546  0.5581
   81MOL0     C10860  11.671   7.111   5.406 -0.8928 -0.1295  0.6098
   81MOL0     C10861  11.786   7.191   5.470 -0.8216 -0.2248  0.4790
   81MOL0     C10862  11.908   7.206   5.383 -0.4370 -1.0642 -0.1801
   81MOL0     C10863  12.023   7.281   5.458  0.8849 -0.3263 -0.1601
   81MOL0     C10864  12.149   7.254   5.394 -0.1528 -0.3551 -0.0485
   81MOL0     C10865  12.251   7.253   5.328  0.4511  0.3699  1.1600
   81MOL0     C10866  11.456   7.003   5.246  0.5760 -0.0142  0.0053
   81MOL0     C10867  11.335   6.961   5.182 -0.4670 -0.6361  0.3772
   81MOL0     H10868  10.840   7.199   4.980  2.2065  0.7410 -0.3248
   81MOL0     H10869  10.619   7.101   4.874  0.8414  0.7702  3.5623
   81MOL0     H10870  10.698   6.892   4.494  2.6387  0.3089  4.2294
   81MOL0     H10871  10.643   6.764   4.585  0.1333 -0.5303 -0.8095
   81MOL0     H10872  10.462   6.983   4.481  1.0160 -0.0698  0.7815
   81MOL0     H10873  10.488   6.830   4.392  0.9582  3.5555 -1.5971
   81MOL0     H10874  10.429   6.698   4.599 -0.9411 -0.0129  0.6693
   81MOL0     H10875  10.353   6.846   4.670 -0.0390 -0.9719  0.2751
   81MOL0     H10876  10.257   6.684   4.430 -1.0166 -1.5622  1.1509
   81MOL0     H10877  10.175   6.704   4.572 -1.5523  2.2441  0.5063
   81MOL0     H10878  10.161   6.963   4.545 -2.0660  1.2311 -0.3231
   81MOL0     H10879  10.252   6.950   4.389 -2.9431 -0.4236 -2.2470
   81MOL0     H10880  10.069   6.808   4.297 -1.4589 -1.7558  0.7541
   81MOL0     H10881  10.001   6.818   4.458 -0.0361  2.7149  1.9127
   81MOL0     H10882   9.942   7.049   4.427 -1.3979  0.6260 -1.6014
   81MOL0     H10883  10.074   7.077   4.313 -2.4353 -0.2458 -2.1474
   81MOL0     H10884   9.825   6.916   4.245 -0.9186  0.8838  0.9321
   81MOL0     H10885   9.950   6.977   4.142  0.6787  5.6504 -1.9827
   81MOL0     H10886   9.767   7.193   4.418 -3.1093 -2.3798 -0.1232
   81MOL0     H10887   9.590   7.416   4.401 -1.2669  1.7292 -0.8402
   81MOL0     H10888   9.567   7.468   4.225  1.3972 -2.0050 -3.1434
   81MOL0     H10889   9.440   7.222   4.359  0.7354 -0.8689 -0.8947
   81MOL0     H10890   9.416   7.271   4.189  0.2707 -0.7931 -0.1043
   81MOL0     H10891   9.308   7.486   4.258  3.1377  0.4845 -1.0217
   81MOL0     H10892   9.337   7.463   4.426  0.5901  1.2018 -1.6998
   81MOL0     H10893   9.195   7.244   4.282  3.0630 -0.3948 -0.1153
   81MOL0     H10894   9.102   7.390   4.324  1.2588  2.6031  1.2944
   81MOL0     H10895   9.004   7.152   4.302  0.1086 -2.0727 -0.5859
   81MOL0     H10896   8.852   6.865   4.276  2.1305  1.4054 -4.0085
   81MOL0     H10897   8.724   6.965   4.332 -0.5737 -1.2818 -2.5748
   81MOL0     H10898   8.832   7.031   4.210 -1.5543 -2.0561 -1.9344
   81MOL0     H10899   8.532   6.785   4.738  2.3553  0.7805 -2.0589
   81MOL0     H10900   8.413   6.580   4.823  0.7566  0.8806  3.3636
   81MOL0     H10901   8.375   6.369   4.713  1.3169  0.3773 -1.3935
   81MOL0     H10902   8.503   6.245   4.710 -0.2745  1.2812 -1.5220
   81MOL0     H10903   8.287   6.142   4.750  0.5939  0.0559  0.5033
   81MOL0     H10904   8.373   6.127   4.898  0.0347 -0.6623 -0.9079
   81MOL0     H10905   8.186   6.363   4.842  1.1201 -0.3923 -0.0344
   81MOL0     H10906   8.253   6.315   5.003  1.4630  0.4132 -0.3227
   81MOL0     H10907   8.028   6.224   4.988  0.1698  1.3855 -0.3995
   81MOL0     H10908   8.047   6.180   4.815  1.5296 -0.8521 -1.3262
   81MOL0     H10909   8.206   6.079   5.051  3.8923 -0.2719 -2.7438
   81MOL0     H10910   8.191   5.987   4.900  1.4811  0.0552  2.4473
   81MOL0     H10911   7.950   6.025   5.073 -0.1551  1.1507 -0.1575
   81MOL0     H10912   7.970   5.937   4.917 -0.6017 -0.3010  0.0627
   81MOL0     H10913   8.140   5.848   5.161 -2.5482  0.3506  1.0395
   81MOL0     H10914   8.122   5.773   5.004 -2.3345 -2.1350  0.6561
   81MOL0     H10915   7.872   5.742   5.066 -0.3700  0.9615  0.4780
   81MOL0     H10916   7.919   5.800   5.234  2.7367 -4.0148  2.3240
   81MOL0     H10917   8.784   6.368   4.859 -1.5694 -0.3152  2.2426
   81MOL0     H10918   8.910   6.567   4.770  0.7020  1.5460 -0.2858
   81MOL0     H10919   8.940   7.003   4.764 -2.8998 -2.4787 -0.8523
   81MOL0     H10920   9.077   7.174   4.732 -2.7045 -0.5261  1.0595
   81MOL0     H10921  10.869   6.836   4.650  2.5205 -1.6971  2.0459
   81MOL0     H10922  11.059   6.902   4.765 -0.5263  0.9094 -1.6609
   81MOL0     H10923  11.255   7.277   5.058  3.2617  3.5118  3.6233
   81MOL0     H10924  11.452   7.339   5.151 -0.4252  0.1029 -0.0266
   81MOL0     H10925  11.604   7.077   5.486 -2.1324  1.6961  0.4029
   81MOL0     H10926  11.715   7.022   5.361 -1.7109  0.3117 -1.1276
   81MOL0     H10927  11.818   7.156   5.568 -2.4917  0.4427  1.2969
   81MOL0     H10928  11.755   7.295   5.482  0.4327  0.0184  1.8361
   81MOL0     H10929  11.891   7.255   5.287  4.2271  1.0165 -0.1791
   81MOL0     H10930  11.937   7.105   5.356 -0.7963 -0.7943 -1.6462
   81MOL0     H10931  12.035   7.260   5.565  2.6410  1.8767  0.1565
   81MOL0     H10932  11.993   7.386   5.453 -0.5776 -0.7502 -0.8828
   81MOL0     H10933  12.342   7.251   5.272  2.2482 -0.9732  3.9067
   81MOL0     H10934  11.506   6.931   5.311 -0.4213  1.0846  2.1064
   81MOL0     H10935  11.306   6.857   5.191 -0.9602 -0.7790 -2.2837
   82MOL0     O10936   3.027   0.248   9.811  0.8321  0.0177  0.0912
   82MOL0     C10937   2.989   0.285   9.704  0.3465  0.0092  0.4948
   82MOL0     O10938   3.069   0.292   9.595 -0.0462  1.0883  0.0865
   82MOL0     C10939   3.201   0.278   9.613 -0.6147  0.1926  0.0223
   82MOL0     C10940   3.279   0.387   9.627  0.4005 -0.4482 -0.6702
   82MOL0     C10941   3.420   0.361   9.647 -0.8143  0.5166  0.1624
   82MOL0     C10942   3.477   0.232   9.650 -0.9937  0.6628  0.3184
   82MOL0     O10943   3.608   0.198   9.663  0.1825  0.6811 -0.4315
   82MOL0     C10944   3.677   0.269   9.776  0.7322  0.7533  0.3049
   82MOL0     C10945   3.805   0.214   9.833  0.0728 -0.5308 -0.0564
   82MOL0     C10946   3.774   0.078   9.887  0.2162  0.4572 -0.3238
   82MOL0     C10947   3.908   0.006   9.932  0.2970 -0.3302 -0.9769
   82MOL0     C10948   3.888  -0.103  10.035  0.5096  0.3351  0.3861
   82MOL0     C10949   4.017  -0.176  10.082  0.3049  0.4072  1.0525
   82MOL0     C10950   4.143  -0.088  10.108  0.2606  0.2800  0.6789
   82MOL0     C10951   4.238  -0.074   9.990  0.1506  0.1246 -0.1321
   82MOL0     N10952   4.348   0.016  10.023 -0.4908  0.4036  0.2767
   82MOL0     C10953   4.445  -0.002  10.114 -0.8890  0.8296 -0.8784
   82MOL0     C10954   4.513   0.115  10.135  0.1394 -0.3846  0.2814
   82MOL0     C10955   4.641   0.125  10.221 -0.6292 -0.1959 -0.0839
   82MOL0     C10956   4.581   0.150  10.357 -0.3398  0.1107 -1.4351
   82MOL0     C10957   4.534   0.292  10.385 -0.4737 -0.5695  0.1658
   82MOL0     C10958   4.395   0.299  10.447 -0.4625  0.6341  0.1673
   82MOL0     O10959   4.357   0.435  10.452 -0.2641 -0.6789  0.1095
   82MOL0     C10960   4.247   0.466  10.377 -0.1577 -0.1334  0.0302
   82MOL0     C10961   4.217   0.419  10.245  0.0350  0.4522 -0.0868
   82MOL0     C10962   4.089   0.434  10.183 -0.5008 -0.4821  0.7527
   82MOL0     C10963   4.059   0.347  10.063  0.0051 -0.8489  0.6910
   82MOL0     C10964   4.003   0.522  10.248  0.7938  0.2268 -0.3751
   82MOL0     C10965   3.880   0.557  10.187 -0.2057 -0.5968  1.0963
   82MOL0     O10966   3.776   0.574  10.273  0.6161 -0.8797 -0.3429
   82MOL0     C10967   3.654   0.591  10.210  0.0668 -0.1385  0.6947
   82MOL0     C10968   3.632   0.712  10.141  0.1277  0.0567 -0.4719
   82MOL0     C10969   3.503   0.737  10.086 -0.1687  1.2461  0.8539
   82MOL0     C10970   3.400   0.646  10.091 -0.7612  0.1151 -0.1606
   82MOL0     O10971   3.284   0.696  10.037 -0.5036  0.1256  0.1008
   82MOL0     C10972   3.171   0.599  10.027 -0.2471  0.5271 -0.1274
   82MOL0     C10973   3.051   0.700  10.007 -1.0829 -0.0813  0.6312
   82MOL0     C10974   2.937   0.623   9.944  0.5653 -0.8594  0.1631
   82MOL0     C10975   2.810   0.702   9.971  0.3100 -0.1694  0.6551
   82MOL0     C10976   2.679   0.649   9.912 -0.1795  0.0704  0.3054
   82MOL0     C10977   2.569   0.759   9.940  0.9547  0.6372  0.3476
   82MOL0     C10978   2.441   0.714   9.867  1.0892 -0.3602  0.4229
   82MOL0     C10979   2.349   0.613   9.946  0.2097 -0.0455 -0.2622
   82MOL0    Cl10980   2.196   0.604   9.846  0.1189 -0.0001  0.0177
   82MOL0     C10981   3.421   0.525  10.152  0.0831  0.2858  0.0350
   82MOL0     C10982   3.545   0.501  10.219 -0.7898  0.3808  0.5051
   82MOL0     O10983   3.875   0.580  10.061  0.4169 -0.0780 -0.2304
   82MOL0     C10984   4.034   0.575  10.375 -0.2955 -1.1726 -0.7749
   82MOL0     C10985   4.153   0.546  10.435  0.0494 -0.3275 -0.5832
   82MOL0     N10986   4.457   0.210  10.051 -0.2935  0.2042 -0.3323
   82MOL0     N10987   4.361   0.142   9.983  0.9500  0.3901  1.1893
   82MOL0     C10988   3.390   0.122   9.626 -0.5650 -0.6697 -0.3235
   82MOL0     C10989   3.253   0.145   9.607 -0.3179 -0.0873 -1.0179
   82MOL0     C10990   2.849   0.323   9.692  0.2815  0.6556 -0.1089
   82MOL0     C10991   2.800   0.379   9.568  0.3325  1.0323  0.2026
   82MOL0     C10992   2.663   0.416   9.548 -0.6901 -0.4322  0.1341
   82MOL0     C10993   2.573   0.386   9.647 -0.6455  0.4136  0.8801
   82MOL0     O10994   2.436   0.399   9.613  0.0500 -0.3783  0.6256
   82MOL0     C10995   2.344   0.320   9.683  0.2371 -0.5651 -0.7897
   82MOL0     C10996   2.207   0.341   9.620  0.8093 -0.3807  0.2218
   82MOL0     C10997   2.214   0.326   9.469  0.4420  0.0405 -0.4447
   82MOL0     C10998   2.101   0.344   9.379 -0.3643  1.0382  0.6216
   82MOL0     C10999   2.047   0.479   9.378  0.6782  0.4439  0.4022
   82MOL0     C11000   1.992   0.584   9.364  0.6608 -0.5581 -0.2787
   82MOL0     C11001   2.630   0.336   9.772  0.9175 -0.1609  0.1796
   82MOL0     C11002   2.763   0.301   9.786  0.1044 -0.0857 -0.4515
   82MOL0     H11003   3.221   0.478   9.631  0.1833 -0.5950 -0.4490
   82MOL0     H11004   3.481   0.450   9.655 -0.0836  0.1608 -1.1175
   82MOL0     H11005   3.708   0.370   9.748 -0.5190  0.9593 -0.4372
   82MOL0     H11006   3.612   0.276   9.864 -0.7783  2.8852 -0.8883
   82MOL0     H11007   3.887   0.213   9.760  3.2394  1.5711  3.0955
   82MOL0     H11008   3.841   0.283   9.910  0.2116  0.7285 -1.2105
   82MOL0     H11009   3.706   0.090   9.972  1.4878  2.1702  0.5161
   82MOL0     H11010   3.714   0.034   9.807 -1.3486  2.7804 -0.5145
   82MOL0     H11011   3.963  -0.038   9.848  2.9769 -1.4357  1.2167
   82MOL0     H11012   3.978   0.076   9.978 -0.9079 -0.0182  0.4397
   82MOL0     H11013   3.836  -0.054  10.118 -0.1013  0.3418  0.0076
   82MOL0     H11014   3.830  -0.188  10.000  2.7979 -1.2153  0.1609
   82MOL0     H11015   3.980  -0.233  10.168  0.2023  0.1037  0.8073
   82MOL0     H11016   4.041  -0.251  10.007  0.3137  1.8822 -0.4715
   82MOL0     H11017   4.114   0.004  10.158 -0.7552  0.6771 -0.5860
   82MOL0     H11018   4.200  -0.152  10.177  2.1196 -1.6195 -2.3602
   82MOL0     H11019   4.194  -0.018   9.907 -0.6332  3.2704  2.1996
   82MOL0     H11020   4.254  -0.177   9.957 -0.5369 -0.4362  1.1981
   82MOL0     H11021   4.452  -0.094  10.172 -2.9177  1.9137  1.2199
   82MOL0     H11022   4.701   0.034  10.216 -2.7302 -1.7134  0.8252
   82MOL0     H11023   4.700   0.210  10.188 -2.8696  0.5767 -2.4326
   82MOL0     H11024   4.662   0.133  10.428  1.3091  3.0916 -2.3996
   82MOL0     H11025   4.499   0.079  10.365 -1.2278  0.9382 -2.9098
   82MOL0     H11026   4.526   0.345  10.290  0.1440  0.4345  0.6690
   82MOL0     H11027   4.609   0.347  10.442  1.6156 -0.2501 -2.6697
   82MOL0     H11028   4.412   0.271  10.551  0.0001  1.0470  0.2067
   82MOL0     H11029   4.328   0.234  10.391 -1.3380  3.0113 -1.7324
   82MOL0     H11030   4.293   0.358  10.196 -1.7221 -4.3848  2.5290
   82MOL0     H11031   3.950   0.350  10.060 -0.0103  1.4488  1.6767
   82MOL0     H11032   4.109   0.385   9.974  3.4703 -1.8251  2.0525
   82MOL0     H11033   4.086   0.241  10.075 -1.1385 -1.0269  2.0968
   82MOL0     H11034   3.711   0.780  10.113 -0.4483  0.5483 -0.9419
   82MOL0     H11035   3.491   0.828  10.030 -0.3035  2.3153  2.5410
   82MOL0     H11036   3.182   0.546   9.931 -4.1601 -0.8595  0.0348
   82MOL0     H11037   3.158   0.530  10.110  1.3939 -0.1174 -0.3572
   82MOL0     H11038   3.036   0.752  10.102 -1.4540  1.8099 -0.4071
   82MOL0     H11039   3.087   0.777   9.938 -1.8477 -0.7731 -0.5702
   82MOL0     H11040   2.929   0.522   9.985  0.6442 -1.3461 -1.0051
   82MOL0     H11041   2.944   0.611   9.836  0.8336  0.8047 -0.0400
   82MOL0     H11042   2.802   0.717  10.079  0.5193  0.5172  0.5803
   82MOL0     H11043   2.821   0.796   9.916  0.5163  1.2527  3.0145
   82MOL0     H11044   2.644   0.556   9.959  1.8988 -1.0626 -0.2758
   82MOL0     H11045   2.685   0.625   9.805  1.2768  2.6812 -0.2821
   82MOL0     H11046   2.550   0.760  10.048 -2.0966 -2.4098  0.0341
   82MOL0     H11047   2.583   0.861   9.905 -3.4298  0.3973 -2.8995
   82MOL0     H11048   2.469   0.667   9.772 -0.2017 -1.3607  0.5120
   82MOL0     H11049   2.380   0.804   9.854  0.5711 -0.8411 -0.4900
   82MOL0     H11050   2.328   0.662  10.042  0.9485 -0.9580  0.3926
   82MOL0     H11051   2.387   0.512   9.963  3.0525  0.5190 -2.4971
   82MOL0     H11052   3.339   0.454  10.158 -1.1794  1.4823 -2.0067
   82MOL0     H11053   3.561   0.402  10.261  0.5340  0.2709 -0.1918
   82MOL0     H11054   3.958   0.632  10.428 -0.5339 -3.1217  1.1090
   82MOL0     H11055   4.174   0.582  10.535 -2.1673  1.8136 -0.7904
   82MOL0     H11056   3.429   0.022   9.644  1.0488  0.3746  2.7695
   82MOL0     H11057   3.186   0.065   9.579  0.7246 -0.5739 -2.2265
   82MOL0     H11058   2.867   0.384   9.483  1.0824 -0.7806  0.6258
   82MOL0     H11059   2.638   0.468   9.456 -1.9887 -0.8637  0.2292
   82MOL0     H11060   2.370   0.214   9.678  0.8309 -0.6437  2.0957
   82MOL0     H11061   2.344   0.358   9.786  0.0362  1.9504 -1.6404
   82MOL0     H11062   2.158   0.437   9.638 -2.5590 -1.2319 -3.1242
   82MOL0     H11063   2.147   0.259   9.660 -0.8670 -0.0685 -1.5136
   82MOL0     H11064   2.253   0.227   9.446 -2.4301 -1.2977  0.0258
   82MOL0     H11065   2.277   0.404   9.425 -1.4119 -0.7010 -4.9476
   82MOL0     H11066   2.022   0.275   9.407  1.0095 -0.9390 -0.1946
   82MOL0     H11067   2.134   0.320   9.278  0.2998 -0.8403  1.2435
   82MOL0     H11068   1.959   0.685   9.345  1.8152 -0.2668 -0.7941
   82MOL0     H11069   2.564   0.333   9.858  1.0012 -2.7174  0.2173
   82MOL0     H11070   2.809   0.266   9.878  4.6447  3.7041 -0.9109
   83MOL0     O11071   2.425   3.712   9.478  0.0533  0.2707 -0.0600
   83MOL0     C11072   2.432   3.587   9.470  0.9014  0.3005  0.5272
   83MOL0     O11073   2.327   3.500   9.465  0.4040  0.7617 -1.0654
   83MOL0     C11074   2.212   3.553   9.499  0.4082 -0.8606  0.2262
   83MOL0     C11075   2.104   3.532   9.419  0.3724 -1.0547  0.5233
   83MOL0     C11076   1.977   3.583   9.450  0.6305  0.7277  0.8046
   83MOL0     C11077   1.954   3.658   9.566  0.8085  0.7470  0.4001
   83MOL0     O11078   1.833   3.723   9.586  0.6073  0.2556  0.6570
   83MOL0     C11079   1.826   3.826   9.690  0.4571  0.6199 -0.1221
   83MOL0     C11080   1.697   3.900   9.679  0.3258 -0.2995 -0.5379
   83MOL0     C11081   1.685   4.017   9.783 -0.7034  0.1662 -0.0249
   83MOL0     C11082   1.554   4.100   9.776 -0.9445 -0.0141 -1.2750
   83MOL0     C11083   1.421   4.026   9.793  0.4233 -0.8792  0.1814
   83MOL0     C11084   1.316   4.123   9.846 -0.0936 -0.2457 -0.4366
   83MOL0     C11085   1.276   4.244   9.755 -0.4048  1.0965 -1.1154
   83MOL0     C11086   1.347   4.375   9.784  0.1965 -1.0948 -0.1601
   83MOL0     N11087   1.318   4.390   9.925  1.3726 -0.1968  0.0265
   83MOL0     C11088   1.206   4.432   9.990 -0.8935 -0.0557  0.4184
   83MOL0     C11089   1.248   4.476  10.108 -0.0374  0.0968 -0.5819
   83MOL0     C11090   1.162   4.551  10.202 -0.0104  0.1157 -0.6748
   83MOL0     C11091   1.055   4.646  10.132 -0.8715  1.0144 -0.1335
   83MOL0     C11092   0.996   4.732  10.247 -0.4211  0.0003 -1.0264
   83MOL0     C11093   0.928   4.855  10.184 -1.2940 -0.4728  1.0034
   83MOL0     O11094   0.849   4.920  10.273 -0.1544  0.2461 -0.3713
   83MOL0     C11095   0.781   5.036  10.250 -0.1184  0.5811 -0.2544
   83MOL0     C11096   0.769   5.102  10.130  0.7089  0.2717  0.7010
   83MOL0     C11097   0.702   5.223  10.108  0.2431 -0.0423  0.2876
   83MOL0     C11098   0.712   5.292   9.980 -0.6342 -1.6116  0.0218
   83MOL0     C11099   0.626   5.278  10.212  0.0758 -0.1151 -1.1808
   83MOL0     C11100   0.552   5.411  10.208  0.9758 -1.3185 -0.1891
   83MOL0     O11101   0.490   5.436  10.323  0.3398  0.0403  1.2164
   83MOL0     C11102   0.417   5.548  10.338  0.5410  1.1176 -0.2384
   83MOL0     C11103   0.478   5.668  10.373  0.3257 -0.7192 -0.9583
   83MOL0     C11104   0.402   5.779  10.380 -0.1863 -0.4621  0.5289
   83MOL0     C11105   0.268   5.775  10.365  0.0764 -0.6648 -1.4656
   83MOL0     O11106   0.204   5.895  10.371  0.4724 -0.1906  0.1164
   83MOL0     C11107   0.061   5.909  10.353  0.1055  0.8127 -0.2167
   83MOL0     C11108   0.002   5.880  10.496  0.1060 -0.5891 -0.3901
   83MOL0     C11109   0.023   5.999  10.585 -0.5803  0.4889 -0.4239
   83MOL0     C11110  -0.028   5.977  10.727 -0.4109 -0.2156  0.8893
   83MOL0     C11111   0.033   6.074  10.834  0.7556 -0.1753  0.1947
   83MOL0     C11112   0.020   6.225  10.788 -0.4499  0.0475 -0.6567
   83MOL0     C11113   0.067   6.320  10.895  0.4424  0.9589  0.7481
   83MOL0     C11114   0.219   6.323  10.899  0.4766  1.1583  0.5565
   83MOL0    Cl11115   0.277   6.374  11.067 -0.2479 -0.2146 -0.2774
   83MOL0     C11116   0.204   5.648  10.356 -0.8571  0.8192  0.8805
   83MOL0     C11117   0.275   5.541  10.329 -0.1223  0.9727 -0.2741
   83MOL0     O11118   0.559   5.490  10.110  0.4156  0.6089 -0.1242
   83MOL0     C11119   0.629   5.202  10.336  0.0182  0.1311 -0.0174
   83MOL0     C11120   0.719   5.086  10.363  0.3382  0.2550  0.8822
   83MOL0     N11121   1.385   4.460  10.119  0.5138  0.5395 -0.8199
   83MOL0     N11122   1.419   4.409  10.011 -0.0727  0.2059 -0.8728
   83MOL0     C11123   2.062   3.674   9.651 -0.6748 -0.4299 -0.4527
   83MOL0     C11124   2.183   3.616   9.622  0.1600  0.1649 -0.3795
   83MOL0     C11125   2.561   3.526   9.446  0.7526  0.3386  1.2282
   83MOL0     C11126   2.677   3.605   9.436 -0.0437 -0.5368  0.1291
   83MOL0     C11127   2.804   3.540   9.412 -0.3244 -0.3491  0.7280
   83MOL0     C11128   2.813   3.400   9.382 -0.3636  0.0150  0.6005
   83MOL0     O11129   2.938   3.340   9.371  0.4489 -0.0364 -0.2940
   83MOL0     C11130   2.949   3.259   9.250  0.1436 -0.5110  0.3978
   83MOL0     C11131   2.940   3.339   9.116  0.2692  0.1193  0.8015
   83MOL0     C11132   2.789   3.366   9.076 -0.0343 -0.8083  0.0998
   83MOL0     C11133   2.766   3.415   8.926 -0.7569  0.2013 -0.3536
   83MOL0     C11134   2.821   3.323   8.826 -0.4015  0.3625 -0.4233
   83MOL0     C11135   2.880   3.249   8.741  0.6823 -0.2111  0.0277
   83MOL0     C11136   2.689   3.328   9.383  0.4139  0.1271  0.0511
   83MOL0     C11137   2.566   3.391   9.414  0.0534  0.2615 -1.1901
   83MOL0     H11138   2.122   3.475   9.328  2.1544  0.1090  0.0974
   83MOL0     H11139   1.902   3.554   9.378 -0.0617 -2.7309  2.6976
   83MOL0     H11140   1.846   3.785   9.789  3.0921  1.6988 -0.1371
   83MOL0     H11141   1.906   3.896   9.668  0.3708  0.3855 -1.2412
   83MOL0     H11142   1.704   3.953   9.584  0.4032  0.4574 -0.1152
   83MOL0     H11143   1.615   3.827   9.688 -2.3292  2.6550  1.6966
   83MOL0     H11144   1.676   3.961   9.876 -0.1234  1.2198  0.6902
   83MOL0     H11145   1.776   4.077   9.793  1.0591 -2.6123  1.9482
   83MOL0     H11146   1.575   4.158   9.866 -2.7536 -2.2113  0.7051
   83MOL0     H11147   1.569   4.162   9.687  2.1858  0.5345 -0.4917
   83MOL0     H11148   1.403   3.971   9.701 -0.4943 -1.7445  0.8460
   83MOL0     H11149   1.432   3.945   9.866  1.9285  1.5563  2.8855
   83MOL0     H11150   1.222   4.069   9.862 -1.3418  2.5621  3.0151
   83MOL0     H11151   1.339   4.148   9.950 -0.9787  0.8356 -0.4851
   83MOL0     H11152   1.280   4.225   9.648  1.3757 -0.6049 -0.7998
   83MOL0     H11153   1.171   4.271   9.774 -0.5340  0.3779 -0.7682
   83MOL0     H11154   1.296   4.453   9.726 -3.7678 -0.7627  3.3102
   83MOL0     H11155   1.456   4.379   9.774  0.1979 -1.8132 -0.5616
   83MOL0     H11156   1.109   4.448   9.946 -0.5347  0.6405 -0.1453
   83MOL0     H11157   1.110   4.475  10.261  1.5205 -0.4528  0.0027
   83MOL0     H11158   1.229   4.608  10.267 -0.2333  1.4433 -1.5707
   83MOL0     H11159   0.979   4.599  10.070 -0.5724  2.1241 -1.3730
   83MOL0     H11160   1.117   4.706  10.066 -0.8685  2.5290  1.1972
   83MOL0     H11161   1.067   4.770  10.321 -1.6278  0.3407  0.0036
   83MOL0     H11162   0.917   4.670  10.289 -2.5788  2.5760 -0.9601
   83MOL0     H11163   0.863   4.838  10.098  2.1374  0.7274 -2.1388
   83MOL0     H11164   1.007   4.924  10.152 -3.1536  2.6996  2.7880
   83MOL0     H11165   0.805   5.052  10.041 -2.1992 -0.5647 -0.0892
   83MOL0     H11166   0.760   5.244   9.894  0.2206 -1.1251  0.2151
   83MOL0     H11167   0.613   5.311   9.937  1.1870  1.9907 -3.1447
   83MOL0     H11168   0.766   5.385   9.999  0.1261 -2.0375 -0.0341
   83MOL0     H11169   0.585   5.678  10.392 -0.0371 -0.0423  0.8421
   83MOL0     H11170   0.439   5.877  10.410 -2.9225  1.2853 -1.3360
   83MOL0     H11171   0.047   6.010  10.314 -0.6663  1.0429  0.6275
   83MOL0     H11172   0.020   5.838  10.280  0.0906  3.2235 -2.6753
   83MOL0     H11173  -0.107   5.865  10.490 -0.6003  3.4474 -0.4422
   83MOL0     H11174   0.060   5.798  10.537  2.9051  1.2307 -0.4421
   83MOL0     H11175  -0.020   6.092  10.546  1.6496  1.7827  0.0196
   83MOL0     H11176   0.130   6.024  10.576 -0.6822  0.2946 -3.4853
   83MOL0     H11177  -0.136   5.988  10.739 -0.6797 -1.0520 -0.5543
   83MOL0     H11178  -0.005   5.874  10.757  0.9346  0.1959  1.3516
   83MOL0     H11179   0.143   6.072  10.834  1.0702  4.9172 -0.7793
   83MOL0     H11180  -0.007   6.067  10.936  0.6021  3.3710  0.4945
   83MOL0     H11181   0.074   6.240  10.694 -3.5619  3.0030 -2.2314
   83MOL0     H11182  -0.087   6.239  10.771 -1.0917 -1.1220  1.9647
   83MOL0     H11183   0.030   6.289  10.993  0.9828 -2.3662  0.0305
   83MOL0     H11184   0.036   6.417  10.855 -2.3797 -0.0325  0.2999
   83MOL0     H11185   0.255   6.395  10.825 -0.4243 -0.9084 -2.0805
   83MOL0     H11186   0.263   6.226  10.874  1.0509  1.5124  0.1668
   83MOL0     H11187   0.096   5.642  10.348 -0.8172 -0.4194  1.1439
   83MOL0     H11188   0.224   5.451  10.295 -5.2803  2.1212  3.3317
   83MOL0     H11189   0.593   5.231  10.434  0.2218 -1.0722  0.4393
   83MOL0     H11190   0.701   5.020  10.447  1.0886 -0.3603  0.5701
   83MOL0     H11191   2.053   3.742   9.735  0.2322  0.7641 -1.2909
   83MOL0     H11192   2.267   3.638   9.688  0.1877  0.7972 -0.6162
   83MOL0     H11193   2.677   3.712   9.454  2.9214 -0.7215  1.8635
   83MOL0     H11194   2.896   3.597   9.406 -0.6417  0.2605  1.6030
   83MOL0     H11195   3.056   3.238   9.250  1.6477  5.3591  1.2243
   83MOL0     H11196   2.885   3.170   9.250 -1.2466  0.4436  0.7077
   83MOL0     H11197   2.986   3.278   9.038  0.3392  1.3206 -0.1286
   83MOL0     H11198   2.988   3.436   9.131  1.4234 -0.5371  1.5174
   83MOL0     H11199   2.755   3.443   9.146 -2.2009 -1.2674 -0.3710
   83MOL0     H11200   2.729   3.276   9.094 -5.0593  2.2390  0.6168
   83MOL0     H11201   2.805   3.517   8.922 -2.4909  1.0002  1.7928
   83MOL0     H11202   2.660   3.436   8.914 -1.4827 -1.8193  1.7428
   83MOL0     H11203   2.908   3.184   8.661 -1.7100  0.2330 -1.2635
   83MOL0     H11204   2.691   3.222   9.363 -1.3621  0.1913 -0.7145
   83MOL0     H11205   2.480   3.328   9.399  0.9478 -1.3217 -0.0170
   84MOL0     O11206   8.401   3.682   1.267 -0.2587 -0.1120 -0.3935
   84MOL0     C11207   8.446   3.578   1.237 -0.0544 -0.1619  0.2533
   84MOL0     O11208   8.375   3.479   1.179 -0.0406  0.0876  0.2306
   84MOL0     C11209   8.250   3.507   1.122  0.6028  1.0558 -0.6256
   84MOL0     C11210   8.203   3.614   1.041  0.2635  0.5011  0.4359
   84MOL0     C11211   8.070   3.623   1.010  0.2615  0.2171  0.3786
   84MOL0     C11212   7.970   3.539   1.056 -0.4565 -1.0778 -0.0442
   84MOL0     O11213   7.833   3.549   1.033  0.0541 -0.6426  0.4823
   84MOL0     C11214   7.794   3.618   0.915  0.2301 -0.8552 -0.2872
   84MOL0     C11215   7.644   3.602   0.887 -0.5053 -0.3270 -0.4188
   84MOL0     C11216   7.608   3.455   0.865  0.3161 -0.4789 -0.4667
   84MOL0     C11217   7.481   3.424   0.789  0.0293  0.4920 -0.2085
   84MOL0     C11218   7.447   3.269   0.758  0.1758 -0.2159 -0.2330
   84MOL0     C11219   7.406   3.188   0.876  0.1314 -0.1961 -1.3086
   84MOL0     C11220   7.410   3.031   0.848 -0.7267 -0.0911 -0.7683
   84MOL0     C11221   7.328   2.970   0.737  0.6693 -0.1975  0.2281
   84MOL0     N11222   7.190   2.997   0.762 -0.3486 -0.0127  0.2264
   84MOL0     C11223   7.098   2.921   0.828  0.2831  0.0720  0.7670
   84MOL0     C11224   6.981   2.995   0.817 -0.0244 -0.0343 -0.3065
   84MOL0     C11225   6.847   2.933   0.870 -0.2014 -0.0364 -0.3235
   84MOL0     C11226   6.729   2.926   0.774  1.2072  1.4156 -0.7564
   84MOL0     C11227   6.615   2.848   0.836  0.4850  0.2967  0.8962
   84MOL0     C11228   6.483   2.844   0.758  0.7569  0.6990 -0.3451
   84MOL0     O11229   6.399   2.766   0.845  0.2449 -0.4592 -0.1394
   84MOL0     C11230   6.271   2.789   0.839  0.3003 -0.0995 -0.9033
   84MOL0     C11231   6.204   2.776   0.715 -0.3754 -0.0972  0.9927
   84MOL0     C11232   6.063   2.777   0.707 -0.4077 -0.2631  0.2064
   84MOL0     C11233   5.995   2.776   0.569 -0.0737 -0.2764 -0.5187
   84MOL0     C11234   5.992   2.793   0.824  0.9735  0.1873  0.2243
   84MOL0     C11235   5.844   2.809   0.826 -0.7546 -0.3351 -0.4582
   84MOL0     O11236   5.794   2.913   0.908 -0.1491  0.7287 -0.0573
   84MOL0     C11237   5.659   2.946   0.891 -0.1029  0.0633 -0.5995
   84MOL0     C11238   5.614   2.996   0.762 -1.1036 -0.0031  1.4840
   84MOL0     C11239   5.486   3.043   0.744 -0.4917 -0.7251  0.1298
   84MOL0     C11240   5.387   3.035   0.850 -0.7907  0.0814 -0.1529
   84MOL0     O11241   5.255   3.076   0.847  0.2074 -0.6072 -0.5246
   84MOL0     C11242   5.197   3.118   0.728 -1.0386  0.0037  0.0203
   84MOL0     C11243   5.058   3.182   0.756 -0.2418 -0.9989  0.1995
   84MOL0     C11244   4.975   3.082   0.836  0.1651 -0.1212  0.6440
   84MOL0     C11245   4.835   3.144   0.857  0.4830 -1.0587  0.2150
   84MOL0     C11246   4.765   3.089   0.978  0.2374  0.5219  0.4644
   84MOL0     C11247   4.630   3.166   1.008  0.6585  0.6208  0.9259
   84MOL0     C11248   4.533   3.102   1.102  0.9578 -0.3541 -0.5582
   84MOL0     C11249   4.389   3.151   1.097  0.4244 -0.6759 -1.3141
   84MOL0    Cl11250   4.308   3.069   1.241 -0.7072 -0.2014  0.0836
   84MOL0     C11251   5.436   3.007   0.980  0.4999  0.1944 -0.3885
   84MOL0     C11252   5.567   2.963   0.992 -0.1436  0.2533 -0.1874
   84MOL0     O11253   5.782   2.735   0.754  0.5504  0.6654  0.5023
   84MOL0     C11254   6.062   2.813   0.946  0.2258  0.5189 -0.4962
   84MOL0     C11255   6.195   2.813   0.957  0.8854  0.6211  0.6249
   84MOL0     N11256   7.020   3.123   0.772 -0.0496 -1.2944  0.3634
   84MOL0     N11257   7.144   3.127   0.744  0.3940  0.3634  0.3165
   84MOL0     C11258   8.013   3.441   1.147  0.5009 -0.7125  1.0502
   84MOL0     C11259   8.145   3.419   1.171 -0.2162 -0.2599 -0.7208
   84MOL0     C11260   8.586   3.562   1.270 -0.8155 -0.6694 -0.5112
   84MOL0     C11261   8.645   3.440   1.239 -0.6272  0.2015  0.0098
   84MOL0     C11262   8.780   3.422   1.258 -0.9861 -0.2142 -0.2193
   84MOL0     C11263   8.862   3.525   1.334  0.1649 -0.0770  0.5703
   84MOL0     O11264   8.989   3.485   1.373  0.5556 -0.0042  0.4027
   84MOL0     C11265   9.047   3.550   1.488 -0.2717  0.2085  0.4230
   84MOL0     C11266   9.168   3.460   1.533  0.3764 -0.2271 -0.1952
   84MOL0     C11267   9.277   3.441   1.424  0.5257 -0.2121 -0.3028
   84MOL0     C11268   9.397   3.358   1.488  0.0234 -0.2178  0.2832
   84MOL0     C11269   9.453   3.428   1.607  0.7909  0.2782 -0.9678
   84MOL0     C11270   9.490   3.493   1.703  0.7855  0.2047 -0.0522
   84MOL0     C11271   8.794   3.642   1.370 -0.1118  0.2104  0.5943
   84MOL0     C11272   8.661   3.665   1.333 -0.2250 -0.4213  0.2305
   84MOL0     H11273   8.257   3.705   1.017  0.0525  1.0361  1.8872
   84MOL0     H11274   8.051   3.709   0.947  0.4883  0.1744  0.2479
   84MOL0     H11275   7.809   3.726   0.931  0.3019 -1.2521  3.0553
   84MOL0     H11276   7.855   3.567   0.840  2.9550 -0.7566  1.6717
   84MOL0     H11277   7.597   3.654   0.970 -0.3678 -0.6067 -0.1641
   84MOL0     H11278   7.610   3.661   0.801 -3.9723 -2.2336 -0.5342
   84MOL0     H11279   7.688   3.402   0.812 -0.4351 -2.3609  0.1906
   84MOL0     H11280   7.596   3.408   0.963 -0.9641 -1.7835 -1.2218
   84MOL0     H11281   7.396   3.461   0.848  0.9967  1.4974  0.6048
   84MOL0     H11282   7.476   3.473   0.692 -2.7746 -2.3400 -1.6828
   84MOL0     H11283   7.363   3.264   0.688  1.5190 -1.4106 -1.8272
   84MOL0     H11284   7.525   3.214   0.705 -1.7473 -1.8406 -1.5416
   84MOL0     H11285   7.483   3.198   0.953 -0.5220 -1.4796 -0.4469
   84MOL0     H11286   7.312   3.225   0.918  1.4681  0.0946  1.6760
   84MOL0     H11287   7.510   2.999   0.818 -0.2763  1.2709 -0.8121
   84MOL0     H11288   7.382   2.995   0.947  1.3767 -4.2465 -1.4938
   84MOL0     H11289   7.343   2.862   0.729 -1.1135 -0.4853  0.3537
   84MOL0     H11290   7.352   3.014   0.640  0.2784  1.1754  0.7270
   84MOL0     H11291   7.102   2.818   0.862 -3.5435 -0.6902 -0.5677
   84MOL0     H11292   6.880   2.832   0.894  2.4652 -0.0488 -3.3960
   84MOL0     H11293   6.817   2.984   0.962 -4.0529 -0.5030 -1.1418
   84MOL0     H11294   6.762   2.898   0.674 -0.4670  0.7004 -1.1349
   84MOL0     H11295   6.678   3.022   0.781 -3.4228 -0.8424  1.9409
   84MOL0     H11296   6.585   2.883   0.935  2.1179 -0.3008  1.6396
   84MOL0     H11297   6.648   2.744   0.847  2.4467  0.3116 -2.9987
   84MOL0     H11298   6.495   2.799   0.659  0.6523 -4.2536  1.5598
   84MOL0     H11299   6.456   2.949   0.746 -1.2015  0.1225 -1.5079
   84MOL0     H11300   6.270   2.760   0.631  2.2794 -0.3228  3.0101
   84MOL0     H11301   6.082   2.786   0.503  1.5096  1.3365  1.6998
   84MOL0     H11302   5.946   2.681   0.547  1.6625 -0.9785 -1.6041
   84MOL0     H11303   5.928   2.859   0.546  0.0063 -0.4603 -1.4563
   84MOL0     H11304   5.685   2.991   0.680  0.4236 -1.8069  2.8414
   84MOL0     H11305   5.457   3.072   0.644  1.2527 -1.9651 -0.7890
   84MOL0     H11306   5.261   3.200   0.693 -0.5294  1.1839  3.3086
   84MOL0     H11307   5.199   3.032   0.661  2.3616  0.9215 -1.3226
   84MOL0     H11308   5.068   3.275   0.812  0.1194 -0.8009 -0.1868
   84MOL0     H11309   5.011   3.207   0.660 -1.3980  3.2987  1.6613
   84MOL0     H11310   5.021   3.059   0.933  1.4950  0.7636  0.2413
   84MOL0     H11311   4.962   2.987   0.782 -1.2334  0.6237 -0.3924
   84MOL0     H11312   4.842   3.253   0.872 -2.2008 -0.8401  0.3710
   84MOL0     H11313   4.773   3.122   0.770  0.8245  1.3966 -0.7439
   84MOL0     H11314   4.823   3.095   1.070 -0.3569 -1.1182  0.9755
   84MOL0     H11315   4.740   2.985   0.955  2.6556 -0.5746  2.3647
   84MOL0     H11316   4.653   3.266   1.048 -3.0328  2.5403 -1.1699
   84MOL0     H11317   4.569   3.179   0.918 -0.9983 -1.9602  1.5702
   84MOL0     H11318   4.583   3.108   1.199 -1.5635  0.1548  0.7863
   84MOL0     H11319   4.528   2.997   1.072  0.0237 -1.0971  1.8943
   84MOL0     H11320   4.338   3.132   1.002 -1.2961  0.2071 -0.6145
   84MOL0     H11321   4.397   3.259   1.112  0.1102 -0.9880  1.6595
   84MOL0     H11322   5.366   3.003   1.062 -1.3427 -0.6318 -1.9115
   84MOL0     H11323   5.594   2.924   1.090  2.2631  2.3126  0.0805
   84MOL0     H11324   6.008   2.836   1.038  4.1317 -2.3735  2.8678
   84MOL0     H11325   6.238   2.841   1.053  2.2891 -1.2299  0.5821
   84MOL0     H11326   7.939   3.376   1.192  0.1659 -2.2641 -1.5504
   84MOL0     H11327   8.170   3.344   1.245  0.0347  0.6208  0.0990
   84MOL0     H11328   8.603   3.347   1.200  1.6488 -1.5120  1.4000
   84MOL0     H11329   8.832   3.330   1.233 -1.0852 -0.1451 -0.6968
   84MOL0     H11330   9.079   3.650   1.457  1.5801 -0.7709 -1.0811
   84MOL0     H11331   8.977   3.561   1.571  0.0185 -2.4016  1.0906
   84MOL0     H11332   9.135   3.358   1.553  0.2290 -0.5600 -1.9882
   84MOL0     H11333   9.205   3.509   1.624 -1.8331  0.0504  0.6312
   84MOL0     H11334   9.323   3.539   1.406  0.4954 -0.3243 -1.0576
   84MOL0     H11335   9.243   3.384   1.337  0.6281 -0.0963 -0.4189
   84MOL0     H11336   9.473   3.350   1.410 -0.4306 -2.4692  0.0024
   84MOL0     H11337   9.370   3.253   1.498  0.6574 -0.4140 -0.0561
   84MOL0     H11338   9.540   3.540   1.785  0.0895 -0.7212  0.9209
   84MOL0     H11339   8.841   3.720   1.429 -2.3269  0.8561  1.6175
   84MOL0     H11340   8.619   3.764   1.348 -0.2234  0.3187 -3.6253
   85MOL0     O11341   2.666   1.041   1.428 -0.4381  1.0850 -0.7087
   85MOL0     C11342   2.697   0.938   1.496 -0.4141 -0.4298 -0.0753
   85MOL0     O11343   2.649   0.809   1.468 -0.7139  0.3962  0.2883
   85MOL0     C11344   2.541   0.784   1.385 -0.3473 -0.9141  0.0210
   85MOL0     C11345   2.541   0.682   1.290  0.5158  0.2103  0.4661
   85MOL0     C11346   2.424   0.639   1.221 -0.1205 -1.0381 -0.0033
   85MOL0     C11347   2.310   0.716   1.243  1.0250 -0.3669  1.0161
   85MOL0     O11348   2.192   0.676   1.178  0.0735  0.6203 -0.5240
   85MOL0     C11349   2.079   0.765   1.177  0.5512  0.0634 -0.1066
   85MOL0     C11350   1.997   0.735   1.052  0.1780  0.3142  0.0491
   85MOL0     C11351   1.839   0.766   1.063  0.0718 -0.4970  0.1032
   85MOL0     C11352   1.773   0.703   0.939 -0.9278  0.4742 -0.9430
   85MOL0     C11353   1.624   0.713   0.935 -0.3088 -0.2615 -0.5490
   85MOL0     C11354   1.563   0.629   0.819 -0.2169  0.1486  0.3279
   85MOL0     C11355   1.405   0.656   0.804  0.0861  0.6039  0.1232
   85MOL0     C11356   1.347   0.578   0.686 -0.8987 -0.3861 -0.0639
   85MOL0     N11357   1.208   0.559   0.698  0.8355 -0.0327  0.3430
   85MOL0     C11358   1.148   0.439   0.743  0.5670 -0.5454  0.4028
   85MOL0     C11359   1.012   0.468   0.760  0.1182  0.4374  1.0161
   85MOL0     C11360   0.903   0.379   0.814 -0.3554  0.4663 -0.4194
   85MOL0     C11361   0.774   0.455   0.853 -0.1452  0.4034 -0.8855
   85MOL0     C11362   0.681   0.354   0.923  0.7566 -0.4105 -0.0857
   85MOL0     C11363   0.533   0.391   0.887 -0.3032  0.7488  0.0587
   85MOL0     O11364   0.442   0.292   0.935  0.1927 -0.0286  0.4875
   85MOL0     C11365   0.312   0.288   0.902  0.3720 -0.2991  0.0827
   85MOL0     C11366   0.241   0.181   0.950 -0.2157  0.2505 -0.2956
   85MOL0     C11367   0.106   0.173   0.928  0.3355  0.1088 -0.6342
   85MOL0     C11368   0.029   0.066   1.006  0.9331  0.7538 -0.7895
   85MOL0     C11369   0.043   0.270   0.854  0.1432 -0.6263 -0.3278
   85MOL0     C11370  -0.100   0.264   0.819 -0.1206 -1.0137  0.5618
   85MOL0     O11371  -0.124   0.277   0.685 -0.2118  0.4952  0.3427
   85MOL0     C11372  -0.231   0.343   0.642  0.3643 -1.2415 -0.3809
   85MOL0     C11373  -0.273   0.468   0.703 -0.1931  0.6903  1.0322
   85MOL0     C11374  -0.400   0.526   0.662  0.1852  0.3031 -0.3499
   85MOL0     C11375  -0.475   0.462   0.569  1.3299  0.1249 -0.7813
   85MOL0     O11376  -0.604   0.505   0.527 -0.5657 -0.3672 -0.2506
   85MOL0     C11377  -0.705   0.507   0.624 -0.2541  0.5243 -0.0178
   85MOL0     C11378  -0.837   0.542   0.552  0.0632 -0.1944  0.5692
   85MOL0     C11379  -0.954   0.476   0.623  0.6005 -0.1264 -0.4431
   85MOL0     C11380  -1.088   0.481   0.548  0.0044 -0.3320  0.5181
   85MOL0     C11381  -1.215   0.437   0.621 -0.2626  0.2414  0.7628
   85MOL0     C11382  -1.329   0.502   0.544  0.9525  0.1355 -0.2138
   85MOL0     C11383  -1.471   0.464   0.598  0.6046 -0.4641 -0.2930
   85MOL0     C11384  -1.499   0.318   0.569 -0.6056 -1.4179  0.6599
   85MOL0    Cl11385  -1.652   0.250   0.642  0.0586 -0.1216 -0.0874
   85MOL0     C11386  -0.426   0.346   0.505 -0.1247  0.5777 -0.1321
   85MOL0     C11387  -0.313   0.280   0.545 -0.5955  0.1258 -0.0849
   85MOL0     O11388  -0.182   0.255   0.906  0.3702 -0.5308 -0.2720
   85MOL0     C11389   0.116   0.379   0.803  0.6208 -0.5224  1.2336
   85MOL0     C11390   0.251   0.392   0.828  0.8603 -0.5300 -0.1113
   85MOL0     N11391   0.992   0.600   0.717 -0.6810  0.0776  1.0884
   85MOL0     N11392   1.104   0.651   0.675  0.5566 -0.7888  0.1948
   85MOL0     C11393   2.305   0.814   1.336  0.1773  0.1134 -0.9724
   85MOL0     C11394   2.419   0.858   1.405 -1.1754  0.3427  0.6525
   85MOL0     C11395   2.800   0.953   1.601 -0.2201  0.6452  0.0536
   85MOL0     C11396   2.841   0.850   1.677  0.5309  0.2043 -0.4854
   85MOL0     C11397   2.936   0.870   1.780  0.1511  0.6896 -0.5421
   85MOL0     C11398   2.999   0.986   1.805  0.2113 -0.4230 -1.3585
   85MOL0     O11399   3.074   0.990   1.925 -0.1250  0.3381  0.5660
   85MOL0     C11400   3.077   1.113   1.991  0.5355  0.1617 -0.2635
   85MOL0     C11401   3.144   1.121   2.120 -0.7532 -0.2614  0.1884
   85MOL0     C11402   3.291   1.135   2.110  0.1219 -0.8156  0.8134
   85MOL0     C11403   3.356   1.026   2.025 -0.2667  0.7179  0.0438
   85MOL0     C11404   3.498   1.052   2.006  0.8296  0.3091 -0.3287
   85MOL0     C11405   3.623   1.067   2.006 -0.1037  0.1131  0.2661
   85MOL0     C11406   2.971   1.096   1.720 -0.3917  0.5089 -0.6832
   85MOL0     C11407   2.879   1.076   1.615 -0.3621 -0.5289  0.5577
   85MOL0     H11408   2.639   0.636   1.289 -0.0508 -1.0395 -0.7564
   85MOL0     H11409   2.421   0.549   1.161  3.2942 -2.3992  1.6836
   85MOL0     H11410   2.026   0.760   1.272  1.8826  5.2252  1.2093
   85MOL0     H11411   2.105   0.871   1.170 -1.2979  0.5670  0.0684
   85MOL0     H11412   2.043   0.778   0.963 -3.1230  2.2271 -0.9052
   85MOL0     H11413   2.011   0.629   1.030 -1.6774  0.3068 -1.3293
   85MOL0     H11414   1.794   0.726   1.155 -2.2355  0.3991 -0.5496
   85MOL0     H11415   1.834   0.875   1.064 -0.6289 -0.5223  0.2806
   85MOL0     H11416   1.815   0.735   0.844  1.8476 -1.0137 -0.3224
   85MOL0     H11417   1.780   0.594   0.944  0.8237  0.5884 -0.3960
   85MOL0     H11418   1.576   0.679   1.028 -1.4325 -2.2537 -1.7753
   85MOL0     H11419   1.591   0.816   0.921  0.4483  0.0906  0.1825
   85MOL0     H11420   1.620   0.629   0.725  1.2989  0.3501  1.2040
   85MOL0     H11421   1.575   0.525   0.852  3.0230  0.1137 -0.5654
   85MOL0     H11422   1.361   0.622   0.898 -0.2345 -4.7046 -1.6439
   85MOL0     H11423   1.379   0.763   0.803  2.3199  1.2317  1.2473
   85MOL0     H11424   1.394   0.480   0.671 -0.1129  0.1011 -0.9008
   85MOL0     H11425   1.365   0.631   0.592  1.4813  1.5592  1.3464
   85MOL0     H11426   1.191   0.342   0.766 -0.2252 -1.2054 -0.7755
   85MOL0     H11427   0.884   0.301   0.740 -1.0170  2.4203 -2.4316
   85MOL0     H11428   0.947   0.328   0.900  0.1575  1.6185  0.0302
   85MOL0     H11429   0.733   0.504   0.765  0.7564 -0.1516 -1.6430
   85MOL0     H11430   0.803   0.534   0.923  0.5548 -1.2429  0.7805
   85MOL0     H11431   0.698   0.374   1.029  0.6841  1.0180 -0.3188
   85MOL0     H11432   0.704   0.251   0.893 -0.2355 -0.7712  0.3564
   85MOL0     H11433   0.526   0.398   0.778  0.5646 -2.0146 -0.2414
   85MOL0     H11434   0.506   0.485   0.937 -3.3397 -0.1976  0.3791
   85MOL0     H11435   0.289   0.114   1.021  0.2705  1.9971  1.0862
   85MOL0     H11436  -0.053   0.023   0.947  2.4775 -0.4399 -2.1566
   85MOL0     H11437   0.085  -0.022   1.036 -1.6581 -0.8615 -0.3592
   85MOL0     H11438  -0.009   0.105   1.101  1.1161  0.6957 -0.6935
   85MOL0     H11439  -0.220   0.517   0.783 -0.3434  3.5042 -0.4623
   85MOL0     H11440  -0.447   0.615   0.704 -0.9800 -0.0742 -0.8019
   85MOL0     H11441  -0.706   0.404   0.662  0.8881 -0.1189 -1.5830
   85MOL0     H11442  -0.691   0.584   0.700 -1.1153  1.2179 -0.5431
   85MOL0     H11443  -0.844   0.651   0.550 -0.0248 -0.1892  0.9990
   85MOL0     H11444  -0.835   0.503   0.450  2.6658 -1.5030  1.0162
   85MOL0     H11445  -0.968   0.518   0.723 -0.3864 -1.1560 -0.1186
   85MOL0     H11446  -0.931   0.371   0.638 -0.4275 -0.0480  2.2402
   85MOL0     H11447  -1.091   0.587   0.523 -0.8297 -1.2395 -4.2241
   85MOL0     H11448  -1.086   0.440   0.446 -0.3619 -0.2806  0.4850
   85MOL0     H11449  -1.208   0.462   0.727  4.1419 -1.2492  1.0511
   85MOL0     H11450  -1.218   0.327   0.615  3.7040 -0.0032  0.4926
   85MOL0     H11451  -1.324   0.610   0.531 -2.7036  0.3830 -0.7469
   85MOL0     H11452  -1.326   0.466   0.440 -1.7927  0.5923 -0.5234
   85MOL0     H11453  -1.553   0.516   0.548 -1.8554 -0.9018  2.9284
   85MOL0     H11454  -1.487   0.496   0.702 -0.3742  0.7926 -0.8044
   85MOL0     H11455  -1.414   0.252   0.588 -1.1977 -2.8613 -1.3916
   85MOL0     H11456  -1.521   0.319   0.462 -2.0928  0.1738  0.9271
   85MOL0     H11457  -0.485   0.295   0.430  2.2937 -0.4013 -1.4808
   85MOL0     H11458  -0.282   0.187   0.499 -3.2773 -0.3316 -1.1474
   85MOL0     H11459   0.068   0.457   0.745  1.5428 -0.1502  0.9535
   85MOL0     H11460   0.300   0.476   0.778  0.1750 -1.5157 -2.5763
   85MOL0     H11461   2.210   0.865   1.354  0.7457  2.1989 -3.3503
   85MOL0     H11462   2.419   0.945   1.471 -3.6987 -0.3031  1.6509
   85MOL0     H11463   2.796   0.752   1.663  0.6944  0.0398  0.0944
   85MOL0     H11464   2.956   0.779   1.835 -2.3466  0.7401  0.5957
   85MOL0     H11465   3.124   1.191   1.931  1.8641 -0.2488  0.1968
   85MOL0     H11466   2.974   1.138   2.019 -0.6376 -4.2759  0.1658
   85MOL0     H11467   3.111   1.043   2.190 -0.7719 -0.2338  0.2104
   85MOL0     H11468   3.119   1.217   2.166  0.9471  0.3949 -0.1977
   85MOL0     H11469   3.331   1.144   2.212 -0.2961  0.0261  0.9109
   85MOL0     H11470   3.312   1.229   2.058 -0.6183 -0.7654  0.5976
   85MOL0     H11471   3.310   1.012   1.926 -0.5438  1.9916 -0.0284
   85MOL0     H11472   3.344   0.922   2.056  0.5221  0.3348 -0.8598
   85MOL0     H11473   3.728   1.060   2.023  0.2383  2.4898 -0.6100
   85MOL0     H11474   2.995   1.200   1.743 -0.3638  0.3546  0.0068
   85MOL0     H11475   2.864   1.158   1.546 -0.7943 -1.1227 -0.0711
   86MOL0     O11476  10.460  10.248   7.538 -0.5620 -0.2018 -0.2432
   86MOL0     C11477  10.567  10.299   7.554  0.8868 -0.0038  0.6211
   86MOL0     O11478  10.589  10.409   7.642 -0.0647 -0.4931  0.1816
   86MOL0     C11479  10.496  10.468   7.728  0.3487 -0.3407 -0.2872
   86MOL0     C11480  10.553  10.536   7.837  0.5090 -0.8881  0.2209
   86MOL0     C11481  10.467  10.580   7.942  0.3674  0.0090 -0.8250
   86MOL0     C11482  10.334  10.560   7.952  1.2664 -0.4740 -0.5902
   86MOL0     O11483  10.268  10.587   8.065 -0.1686  0.2946  0.2205
   86MOL0     C11484  10.132  10.637   8.060 -0.2157  0.2231  0.3107
   86MOL0     C11485  10.108  10.757   8.143 -0.3234 -0.6197 -0.3475
   86MOL0     C11486  10.169  10.896   8.098  0.1217 -1.2445 -0.2142
   86MOL0     C11487  10.173  10.907   7.945  0.8053  0.3665  0.0021
   86MOL0     C11488  10.218  11.043   7.898 -0.9549  0.7321  0.2707
   86MOL0     C11489  10.229  11.045   7.749  0.3619  0.0484  0.4711
   86MOL0     C11490  10.330  10.952   7.684 -0.0232 -0.2908  0.0245
   86MOL0     C11491  10.464  10.933   7.755 -0.3339 -0.0728  0.1325
   86MOL0     N11492  10.549  11.058   7.746  0.0426  0.9522 -0.3638
   86MOL0     C11493  10.576  11.152   7.844 -0.5887  0.9082  1.0082
   86MOL0     C11494  10.676  11.228   7.793  0.1084 -0.4510  0.2271
   86MOL0     C11495  10.731  11.352   7.857  0.2826  0.6789  1.4162
   86MOL0     C11496  10.881  11.328   7.884  0.3665 -0.2101 -0.4983
   86MOL0     C11497  10.938  11.455   7.954  0.2321  0.0963  0.2019
   86MOL0     C11498  10.877  11.496   8.094  0.0814 -0.4952  1.0944
   86MOL0     O11499  10.761  11.575   8.072 -0.0302 -0.2107  0.0505
   86MOL0     C11500  10.673  11.590   8.177 -0.1591  0.0976  0.2329
   86MOL0     C11501  10.575  11.693   8.158  0.1372  0.5922  0.4280
   86MOL0     C11502  10.475  11.719   8.252  0.0580  0.2953 -0.1462
   86MOL0     C11503  10.369  11.837   8.225  0.0374  0.6124 -0.6619
   86MOL0     C11504  10.466  11.632   8.373 -0.3116  0.2758  1.0076
   86MOL0     C11505  10.356  11.635   8.474 -0.5274  0.4513  1.0889
   86MOL0     O11506  10.385  11.608   8.599 -0.6703  0.7639 -0.1760
   86MOL0     C11507  10.285  11.621   8.690  0.6489  0.1669 -0.4602
   86MOL0     C11508  10.255  11.525   8.782  0.0387 -0.1764 -0.6773
   86MOL0     C11509  10.143  11.529   8.867 -0.1466 -0.0423  0.2925
   86MOL0     C11510  10.063  11.647   8.864  0.4993  0.1560  0.4270
   86MOL0     O11511   9.951  11.631   8.934  1.0331  0.2052 -0.4025
   86MOL0     C11512   9.852  11.730   8.909  0.6201  0.8891  0.5276
   86MOL0     C11513   9.720  11.737   8.965 -0.7503 -0.1432 -0.2242
   86MOL0     C11514   9.652  11.597   8.969 -0.2879  0.3039 -0.1613
   86MOL0     C11515   9.531  11.596   9.066 -0.0243  0.6463 -0.6259
   86MOL0     C11516   9.477  11.452   9.078  0.3412  0.4322  0.9758
   86MOL0     C11517   9.419  11.397   8.946 -0.4090 -0.0867  0.7790
   86MOL0     C11518   9.342  11.265   8.979  0.7849  0.5269  0.4365
   86MOL0     C11519   9.263  11.217   8.858 -1.7907 -0.3289  0.3320
   86MOL0    Cl11520   9.109  11.311   8.853 -0.7432 -0.3875 -0.0776
   86MOL0     C11521  10.111  11.753   8.791 -0.4451 -0.4974 -0.0708
   86MOL0     C11522  10.217  11.736   8.707 -0.6884  1.3508 -0.2773
   86MOL0     O11523  10.244  11.658   8.430  0.0661 -0.5362 -0.6679
   86MOL0     C11524  10.558  11.528   8.390 -0.3317 -0.5552 -0.0030
   86MOL0     C11525  10.666  11.519   8.298 -0.6625  0.5415 -0.1836
   86MOL0     N11526  10.705  11.185   7.664 -0.0849  0.3332  0.2436
   86MOL0     N11527  10.638  11.079   7.647  0.5940  1.0692  0.4357
   86MOL0     C11528  10.283  10.496   7.840  0.3693  0.2016 -0.4979
   86MOL0     C11529  10.357  10.452   7.729  0.6279  0.1436  0.7480
   86MOL0     C11530  10.683  10.254   7.481 -0.4067  0.6346 -0.5873
   86MOL0     C11531  10.816  10.262   7.550  0.6797 -0.1414 -0.3097
   86MOL0     C11532  10.923  10.192   7.494 -0.2507  0.4968  0.5774
   86MOL0     C11533  10.914  10.139   7.365 -0.2969 -0.8315  0.0206
   86MOL0     O11534  11.025  10.082   7.295  0.3602 -0.6671  0.1396
   86MOL0     C11535  11.115  10.007   7.374  0.1684  0.6462  0.0659
   86MOL0     C11536  11.219   9.953   7.281  0.2285 -0.1077  0.0885
   86MOL0     C11537  11.272   9.824   7.319  0.8857  0.9378 -0.6031
   86MOL0     C11538  11.345   9.817   7.452 -0.7055 -0.1044  0.1454
   86MOL0     C11539  11.487   9.845   7.419  0.1253  0.1374  0.8909
   86MOL0     C11540  11.608   9.873   7.415 -0.0981  0.8498  0.0160
   86MOL0     C11541  10.792  10.135   7.296  0.2651  0.5118  0.4590
   86MOL0     C11542  10.680  10.193   7.348  0.5384 -0.1524 -0.3539
   86MOL0     H11543  10.659  10.557   7.829  0.1566  0.8790 -0.2285
   86MOL0     H11544  10.506  10.621   8.035  0.0274  2.2918 -1.6302
   86MOL0     H11545  10.084  10.650   7.962 -0.5996  1.7474  0.6743
   86MOL0     H11546  10.077  10.549   8.093 -0.8613  0.4797 -0.0533
   86MOL0     H11547   9.998  10.752   8.145 -0.3133 -0.8454 -0.4176
   86MOL0     H11548  10.138  10.747   8.248 -1.2548  1.8869  0.2443
   86MOL0     H11549  10.099  10.969   8.139  0.5462 -1.8721  1.7113
   86MOL0     H11550  10.268  10.911   8.142 -0.3676 -0.3255  0.6193
   86MOL0     H11551  10.242  10.831   7.907  1.9438  0.0580  2.4464
   86MOL0     H11552  10.074  10.885   7.904  0.9419 -1.9882  0.7536
   86MOL0     H11553  10.138  11.114   7.924  0.1394  0.9427  3.4908
   86MOL0     H11554  10.310  11.071   7.950 -0.1384  0.6104 -1.0663
   86MOL0     H11555  10.134  10.998   7.724  0.9709 -0.1469 -1.6883
   86MOL0     H11556  10.229  11.150   7.718  0.0823  1.2152  3.9696
   86MOL0     H11557  10.293  10.849   7.674 -0.4255 -0.1536  0.0776
   86MOL0     H11558  10.349  10.989   7.582  0.0703  3.4601  1.2656
   86MOL0     H11559  10.519  10.857   7.698 -0.6592  0.2485 -0.6377
   86MOL0     H11560  10.454  10.897   7.857  2.1356 -0.8780  0.1655
   86MOL0     H11561  10.522  11.171   7.936  0.5331  4.7952  1.0400
   86MOL0     H11562  10.716  11.429   7.781  1.0260 -0.0911  0.4725
   86MOL0     H11563  10.687  11.381   7.953  0.1160 -1.3612  1.9995
   86MOL0     H11564  10.924  11.298   7.788 -2.1888  0.4443 -1.9485
   86MOL0     H11565  10.902  11.242   7.948  1.2473 -0.4717 -1.1163
   86MOL0     H11566  10.936  11.542   7.889  1.6692 -1.8336 -2.5996
   86MOL0     H11567  11.044  11.443   7.976  0.3837  0.2537 -0.4335
   86MOL0     H11568  10.951  11.565   8.135  1.0031  0.1969 -1.5012
   86MOL0     H11569  10.846  11.402   8.139 -2.8875 -1.1423 -1.8526
   86MOL0     H11570  10.570  11.758   8.072  2.3973 -1.8736 -1.7606
   86MOL0     H11571  10.363  11.875   8.327 -0.1951  1.8858 -1.1403
   86MOL0     H11572  10.402  11.914   8.155  1.5697 -1.3467 -2.2027
   86MOL0     H11573  10.276  11.793   8.188 -0.4961  0.3713  0.8737
   86MOL0     H11574  10.312  11.433   8.796 -0.0290  0.2125  3.3907
   86MOL0     H11575  10.112  11.447   8.931 -1.3993 -0.0544 -0.3108
   86MOL0     H11576   9.902  11.827   8.914  3.4921 -0.4020 -0.9211
   86MOL0     H11577   9.823  11.718   8.804 -1.5632  0.6094  1.1138
   86MOL0     H11578   9.736  11.781   9.064  1.2230 -1.2456 -0.0026
   86MOL0     H11579   9.653  11.802   8.909 -3.9999 -3.1588 -0.2370
   86MOL0     H11580   9.729  11.522   8.987  1.2119  1.1151 -2.7590
   86MOL0     H11581   9.622  11.571   8.867  1.0876  1.0782 -0.7932
   86MOL0     H11582   9.558  11.633   9.166 -0.9932  0.7956 -0.4125
   86MOL0     H11583   9.455  11.668   9.034  2.0073  2.6250 -1.2766
   86MOL0     H11584   9.404  11.456   9.159 -0.6451  2.6755  0.0553
   86MOL0     H11585   9.558  11.382   9.099  1.2318  0.4290 -1.9495
   86MOL0     H11586   9.359  11.473   8.894  1.5468  0.7390 -0.4097
   86MOL0     H11587   9.500  11.369   8.877 -0.6433 -4.8143  2.0942
   86MOL0     H11588   9.272  11.268   9.063  1.5358 -0.3795  1.1204
   86MOL0     H11589   9.419  11.189   8.997 -0.0335 -0.2474  0.7388
   86MOL0     H11590   9.238  11.112   8.876 -0.5173 -0.1494  4.0908
   86MOL0     H11591   9.313  11.236   8.763  0.7152 -2.0450  1.1979
   86MOL0     H11592  10.059  11.848   8.796  0.4406 -0.0067  0.0701
   86MOL0     H11593  10.245  11.818   8.643  1.0169  0.9111 -0.1435
   86MOL0     H11594  10.559  11.458   8.473 -0.9897  1.2149  1.5579
   86MOL0     H11595  10.732  11.440   8.332 -0.4436  0.9474  0.3562
   86MOL0     H11596  10.177  10.480   7.827 -0.0646 -0.4821  2.8653
   86MOL0     H11597  10.309  10.402   7.645  1.4980  2.3664 -1.1624
   86MOL0     H11598  10.821  10.290   7.655 -3.4992 -0.8255  0.2778
   86MOL0     H11599  11.022  10.187   7.538  1.4782 -3.0949 -3.0801
   86MOL0     H11600  11.167  10.067   7.449  0.7692  0.5426 -0.2693
   86MOL0     H11601  11.058   9.921   7.413 -0.7730  0.9225 -0.6540
   86MOL0     H11602  11.309  10.014   7.270 -0.2847  0.9830  1.5664
   86MOL0     H11603  11.177   9.942   7.181 -1.0709  0.6742  0.5251
   86MOL0     H11604  11.339   9.786   7.241  0.7091  1.5940 -1.0829
   86MOL0     H11605  11.183   9.760   7.326  1.3136 -0.0146 -2.7695
   86MOL0     H11606  11.332   9.718   7.496 -1.0169 -0.8161 -1.5101
   86MOL0     H11607  11.298   9.882   7.527 -1.0788  0.2585 -0.3963
   86MOL0     H11608  11.708   9.908   7.405  0.5961 -0.9812  0.1587
   86MOL0     H11609  10.793  10.097   7.195 -1.1890 -1.4081  1.1068
   86MOL0     H11610  10.583  10.183   7.300  0.0400 -4.3481  1.1241
   87MOL0     O11611  11.142   8.440   4.644 -0.5449  1.0350  0.5605
   87MOL0     C11612  11.211   8.470   4.550 -0.1432  0.0043 -0.4018
   87MOL0     O11613  11.162   8.502   4.422  0.4039 -0.6973 -1.2147
   87MOL0     C11614  11.030   8.532   4.414  0.1505 -1.3956 -0.7828
   87MOL0     C11615  11.005   8.669   4.397 -0.1003  0.3738 -0.1256
   87MOL0     C11616  10.886   8.723   4.367 -0.3659  0.2113  0.2123
   87MOL0     C11617  10.770   8.640   4.354  0.7493  0.5131  1.0614
   87MOL0     O11618  10.637   8.680   4.325 -0.5248 -0.6411  0.2780
   87MOL0     C11619  10.608   8.820   4.337 -0.4115 -0.1375 -0.2586
   87MOL0     C11620  10.461   8.850   4.327 -0.4511 -0.3431 -0.7043
   87MOL0     C11621  10.421   8.989   4.341 -0.1886 -0.4076 -0.0283
   87MOL0     C11622  10.276   9.020   4.303  0.3996  1.0101 -0.3899
   87MOL0     C11623  10.224   9.157   4.350  0.5590 -0.5169  0.2233
   87MOL0     C11624  10.070   9.148   4.372 -0.4081 -1.2999  0.8544
   87MOL0     C11625   9.987   9.143   4.242 -0.6397  0.3751  1.3343
   87MOL0     C11626   9.843   9.089   4.274 -0.3118 -0.0598 -0.0874
   87MOL0     N11627   9.769   9.121   4.158 -0.2799  0.5076 -0.4668
   87MOL0     C11628   9.650   9.191   4.151  0.5806 -0.8104 -0.8015
   87MOL0     C11629   9.611   9.197   4.017 -0.0982  0.0824 -0.3359
   87MOL0     C11630   9.511   9.279   3.951 -0.2289  1.3112 -0.5957
   87MOL0     C11631   9.377   9.269   4.026 -0.5304 -0.3774  0.0898
   87MOL0     C11632   9.272   9.347   3.940  0.6946  0.3818  0.2071
   87MOL0     C11633   9.135   9.327   3.995  0.1398  0.2749  0.3844
   87MOL0     O11634   9.041   9.416   3.928 -0.3944 -0.5232  0.2089
   87MOL0     C11635   8.918   9.446   3.972  0.4613 -0.0522 -0.7463
   87MOL0     C11636   8.846   9.370   4.072 -0.4678 -0.5350  0.4678
   87MOL0     C11637   8.713   9.396   4.094 -0.0264  0.8394  0.1013
   87MOL0     C11638   8.646   9.297   4.190  0.5424  0.1767 -0.1494
   87MOL0     C11639   8.643   9.497   4.029  0.9984  0.0853  0.1265
   87MOL0     C11640   8.493   9.521   4.050  0.1305 -0.2134  1.2394
   87MOL0     O11641   8.433   9.595   3.953 -0.1509  0.1117  0.0087
   87MOL0     C11642   8.325   9.670   3.999 -0.3683  1.0852  0.6518
   87MOL0     C11643   8.191   9.625   3.977  0.3863  0.2891 -0.3144
   87MOL0     C11644   8.084   9.705   4.025 -0.9137 -0.4621 -1.0321
   87MOL0     C11645   8.107   9.820   4.097 -0.1387 -0.2580 -0.2792
   87MOL0     O11646   8.005   9.900   4.136  0.3682 -0.1777 -0.1340
   87MOL0     C11647   7.868   9.879   4.107  0.1098 -0.0056  0.2780
   87MOL0     C11648   7.787   9.987   4.188  0.3171 -1.1092 -0.1378
   87MOL0     C11649   7.632   9.957   4.161  0.2949 -0.4818  0.1999
   87MOL0     C11650   7.541  10.058   4.228 -0.0577 -0.0459 -0.4862
   87MOL0     C11651   7.398  10.039   4.167 -0.2353 -0.1659 -0.1016
   87MOL0     C11652   7.291  10.131   4.232  0.0343  1.1328  0.0675
   87MOL0     C11653   7.149  10.149   4.166 -0.5247  0.2404  1.2319
   87MOL0     C11654   7.041  10.136   4.267 -0.3503  0.4089 -0.0075
   87MOL0    Cl11655   7.036   9.954   4.311 -0.0778 -0.2699  0.0143
   87MOL0     C11656   8.242   9.861   4.126  0.6191  0.3143 -0.2680
   87MOL0     C11657   8.347   9.787   4.077  0.1125  1.3762  0.5338
   87MOL0     O11658   8.434   9.483   4.151  0.2518  0.3953 -0.1720
   87MOL0     C11659   8.707   9.573   3.935 -0.9500  0.8064 -0.0892
   87MOL0     C11660   8.846   9.538   3.902  0.3554 -0.4918 -0.2168
   87MOL0     N11661   9.704   9.117   3.955 -0.3260  0.0344 -0.4000
   87MOL0     N11662   9.799   9.079   4.034  0.1121  0.4438  0.4488
   87MOL0     C11663  10.804   8.499   4.359  0.5971  0.1394 -0.2480
   87MOL0     C11664  10.928   8.447   4.385 -0.0247  0.5842 -0.7481
   87MOL0     C11665  11.362   8.473   4.585 -0.4431 -0.4499 -0.0437
   87MOL0     C11666  11.422   8.463   4.715  0.4677  0.4538 -1.1286
   87MOL0     C11667  11.560   8.460   4.737  0.2919 -0.7530  0.0542
   87MOL0     C11668  11.642   8.458   4.622 -0.0940  0.1122  0.0848
   87MOL0     O11669  11.774   8.447   4.646 -0.2357 -0.1200 -0.6391
   87MOL0     C11670  11.862   8.424   4.535  0.0142  0.1832  0.8196
   87MOL0     C11671  12.006   8.423   4.597  0.5816  0.6528  0.3769
   87MOL0     C11672  12.104   8.377   4.483 -0.4985  0.0173 -0.5157
   87MOL0     C11673  12.236   8.388   4.537 -0.2575 -0.0411 -0.6064
   87MOL0     C11674  12.296   8.523   4.534  0.5706 -0.1728 -0.0390
   87MOL0     C11675  12.352   8.628   4.518 -0.0165  0.7313  0.1851
   87MOL0     C11676  11.589   8.475   4.492  0.5916 -0.2424  0.1929
   87MOL0     C11677  11.448   8.476   4.476  0.5705  0.1048 -0.0841
   87MOL0     H11678  11.095   8.729   4.411 -1.5419  2.5115  0.6198
   87MOL0     H11679  10.893   8.831   4.360  1.6862  0.2397  1.8418
   87MOL0     H11680  10.644   8.854   4.435 -1.2379  1.8073 -0.5854
   87MOL0     H11681  10.674   8.884   4.278 -0.8644  1.2739  0.7156
   87MOL0     H11682  10.435   8.814   4.227  1.0241 -1.4803 -0.7080
   87MOL0     H11683  10.397   8.795   4.396 -0.9242 -1.3917 -1.9425
   87MOL0     H11684  10.428   9.019   4.446 -0.1803 -2.6717  0.6821
   87MOL0     H11685  10.494   9.043   4.279  1.2694 -0.1261  1.8340
   87MOL0     H11686  10.261   9.028   4.195 -0.6750  2.3307 -0.1712
   87MOL0     H11687  10.206   8.942   4.336  0.8170  0.6421 -0.3639
   87MOL0     H11688  10.287   9.204   4.426 -1.1328 -0.3326  1.5729
   87MOL0     H11689  10.230   9.225   4.264 -0.9069 -0.9212 -0.2189
   87MOL0     H11690  10.050   9.058   4.431 -0.0032 -0.9306  1.5799
   87MOL0     H11691  10.042   9.232   4.436 -2.3605 -0.3211 -1.1451
   87MOL0     H11692   9.966   9.238   4.193 -1.0000 -0.1801  0.3887
   87MOL0     H11693  10.043   9.080   4.173 -0.0986  0.8175  1.3574
   87MOL0     H11694   9.793   9.142   4.355 -0.2276 -3.3922  2.3257
   87MOL0     H11695   9.848   8.984   4.304 -0.1449 -0.0173  0.0374
   87MOL0     H11696   9.606   9.236   4.239 -1.0631  0.1159 -2.0279
   87MOL0     H11697   9.541   9.383   3.933  0.2929  1.2569 -0.0629
   87MOL0     H11698   9.488   9.237   3.852  1.1956  0.4757 -0.5937
   87MOL0     H11699   9.385   9.319   4.123 -0.8136  1.8034 -0.9428
   87MOL0     H11700   9.351   9.165   4.047 -1.7431 -0.0820  0.1032
   87MOL0     H11701   9.263   9.309   3.838 -0.7258  1.1037  0.0306
   87MOL0     H11702   9.301   9.453   3.940 -0.0121  0.5807 -0.1564
   87MOL0     H11703   9.143   9.339   4.103  4.1453 -0.0840  0.2780
   87MOL0     H11704   9.100   9.226   3.975 -2.5347  0.9680  1.1496
   87MOL0     H11705   8.908   9.292   4.114  5.0988  2.6703 -0.7634
   87MOL0     H11706   8.716   9.212   4.197 -1.1963 -1.2053  1.7262
   87MOL0     H11707   8.623   9.334   4.291 -0.7350  2.4522 -1.2133
   87MOL0     H11708   8.554   9.252   4.153  1.2576  0.0511 -1.8854
   87MOL0     H11709   8.172   9.538   3.915 -2.4427 -0.7465  1.7965
   87MOL0     H11710   7.983   9.682   3.991 -0.4989  0.3053 -2.9406
   87MOL0     H11711   7.850   9.878   3.999 -0.2714 -0.6340  0.3374
   87MOL0     H11712   7.841   9.782   4.151 -0.3418  0.3763  0.8599
   87MOL0     H11713   7.805   9.981   4.296  0.3326 -1.5281 -0.1624
   87MOL0     H11714   7.817  10.083   4.145  2.0291 -1.5252  0.0719
   87MOL0     H11715   7.610   9.859   4.204 -1.9787  0.2167  0.8004
   87MOL0     H11716   7.625   9.965   4.052  0.5199 -1.4927  0.1030
   87MOL0     H11717   7.543  10.043   4.337 -0.5092 -2.2105 -0.7445
   87MOL0     H11718   7.584  10.155   4.201  2.4273 -0.9019  0.1120
   87MOL0     H11719   7.366   9.936   4.183 -3.3252  1.1674  4.2195
   87MOL0     H11720   7.405  10.073   4.063  0.4476  0.1936  0.0606
   87MOL0     H11721   7.282  10.102   4.337  0.3493 -1.2635 -0.5304
   87MOL0     H11722   7.333  10.232   4.243  1.8584  0.1771  3.1409
   87MOL0     H11723   7.128  10.069   4.095 -1.1641 -1.7218  3.5241
   87MOL0     H11724   7.138  10.248   4.120 -2.3366 -1.0510 -1.3876
   87MOL0     H11725   6.947  10.162   4.216  0.1343  2.4259  0.0308
   87MOL0     H11726   7.050  10.198   4.356 -0.1772 -2.0800  1.8137
   87MOL0     H11727   8.266   9.952   4.179  0.6239  0.8452 -1.1626
   87MOL0     H11728   8.451   9.814   4.097  1.0686 -1.1180 -0.6171
   87MOL0     H11729   8.654   9.652   3.882 -1.9194 -1.2020 -2.2524
   87MOL0     H11730   8.896   9.596   3.824 -0.5464  0.9686  0.2481
   87MOL0     H11731  10.717   8.441   4.331  0.7574  0.0581 -0.5864
   87MOL0     H11732  10.956   8.342   4.386  0.9948  0.8303 -1.8889
   87MOL0     H11733  11.352   8.459   4.798 -0.1225 -2.2295 -1.6543
   87MOL0     H11734  11.598   8.472   4.838 -1.1022  2.5827  0.3124
   87MOL0     H11735  11.833   8.338   4.474  6.0067 -1.2415 -0.6903
   87MOL0     H11736  11.841   8.501   4.460 -2.4405 -2.1039 -1.0209
   87MOL0     H11737  12.000   8.365   4.689 -0.6958  0.2526  0.0732
   87MOL0     H11738  12.028   8.523   4.634  1.4405  0.0638  1.5146
   87MOL0     H11739  12.085   8.435   4.392  1.0529  0.4141 -0.6264
   87MOL0     H11740  12.086   8.269   4.471  2.2081 -0.6684  0.6290
   87MOL0     H11741  12.301   8.321   4.479 -1.6030 -3.0716  1.1263
   87MOL0     H11742  12.240   8.355   4.642  2.8973 -1.2326 -0.9843
   87MOL0     H11743  12.394   8.726   4.510 -0.9804  1.5899  3.9719
   87MOL0     H11744  11.648   8.480   4.401 -0.3041 -0.2183 -0.4048
   87MOL0     H11745  11.407   8.477   4.376 -1.9307  0.9447  0.8603
   88MOL0     O11746   1.109  11.180   7.764 -0.0002  0.6644  0.2756
   88MOL0     C11747   1.222  11.224   7.794 -0.8518  0.2449  0.1432
   88MOL0     O11748   1.251  11.302   7.901  0.7292  0.0681 -0.2892
   88MOL0     C11749   1.160  11.344   7.995  0.6115 -0.4991 -0.0412
   88MOL0     C11750   1.165  11.478   8.035 -0.2102  1.0828 -0.1921
   88MOL0     C11751   1.078  11.530   8.127 -0.5096 -0.5842  0.3902
   88MOL0     C11752   0.978  11.444   8.175 -0.3540 -0.0957  0.4852
   88MOL0     O11753   0.893  11.492   8.267 -0.0320  0.0878 -0.1322
   88MOL0     C11754   0.954  11.466   8.399 -0.8833 -0.3682  0.1752
   88MOL0     C11755   0.872  11.555   8.505 -1.0647 -0.2260 -0.2370
   88MOL0     C11756   0.913  11.708   8.494  0.3328  0.3903 -1.1890
   88MOL0     C11757   0.825  11.802   8.566 -0.1069 -0.0680 -0.0300
   88MOL0     C11758   0.857  11.950   8.554 -0.2011  0.6662 -0.1608
   88MOL0     C11759   0.749  12.034   8.632 -0.0130 -0.6293  0.2412
   88MOL0     C11760   0.808  12.184   8.665 -0.0543 -0.2205 -0.1912
   88MOL0     C11761   0.840  12.282   8.548  0.1377 -0.0462  0.5706
   88MOL0     N11762   0.721  12.336   8.477 -0.4515  0.5450  0.7375
   88MOL0     C11763   0.688  12.307   8.347  0.0651 -0.5105  0.7393
   88MOL0     C11764   0.554  12.333   8.332  0.2111  0.5128 -0.1659
   88MOL0     C11765   0.494  12.331   8.195  0.3415  0.1600  0.1158
   88MOL0     C11766   0.509  12.472   8.125  0.3396 -0.3427  0.4656
   88MOL0     C11767   0.453  12.588   8.206  0.0542  0.2181  0.3287
   88MOL0     C11768   0.317  12.566   8.263 -0.4659  0.2547 -0.3319
   88MOL0     O11769   0.224  12.567   8.149 -0.0582 -0.0057 -0.5793
   88MOL0     C11770   0.095  12.580   8.190  0.0727 -0.1316  0.4140
   88MOL0     C11771   0.028  12.468   8.229  0.0037 -0.3349  0.2212
   88MOL0     C11772  -0.100  12.468   8.282  0.8634 -0.3356  0.2767
   88MOL0     C11773  -0.161  12.337   8.332 -0.2550 -0.7053 -0.1704
   88MOL0     C11774  -0.169  12.594   8.286 -0.1749 -0.8052  0.1331
   88MOL0     C11775  -0.300  12.628   8.344  0.3991  0.3192  0.1239
   88MOL0     O11776  -0.357  12.539   8.429  0.4050 -0.4758 -0.1920
   88MOL0     C11777  -0.475  12.585   8.487 -0.2820  0.2808 -1.3131
   88MOL0     C11778  -0.478  12.683   8.593  0.7316  0.6144  0.3089
   88MOL0     C11779  -0.606  12.717   8.642  0.5112  0.1531 -0.0773
   88MOL0     C11780  -0.724  12.666   8.595 -0.1071 -0.2310  0.7615
   88MOL0     O11781  -0.852  12.708   8.646 -0.6037  0.0909 -0.6493
   88MOL0     C11782  -0.859  12.755   8.784 -0.6859 -0.6508  0.4113
   88MOL0     C11783  -0.979  12.847   8.793 -0.3956  0.0328  0.3616
   88MOL0     C11784  -1.116  12.789   8.744 -0.6602 -0.2747 -0.5108
   88MOL0     C11785  -1.169  12.692   8.852  0.8007  0.0700  0.3006
   88MOL0     C11786  -1.320  12.662   8.853 -0.3758  0.8494  0.8586
   88MOL0     C11787  -1.355  12.567   8.960 -1.1615  0.3178 -1.0262
   88MOL0     C11788  -1.503  12.520   8.964 -0.0956 -0.2491 -0.5894
   88MOL0     C11789  -1.559  12.535   9.106 -0.1485  1.3973  0.4967
   88MOL0    Cl11790  -1.715  12.437   9.085  0.0141 -0.2643  0.3302
   88MOL0     C11791  -0.718  12.582   8.489 -0.2411  0.7822 -0.5646
   88MOL0     C11792  -0.595  12.535   8.444  1.2404  0.0938 -0.5392
   88MOL0     O11793  -0.349  12.730   8.307 -0.4207  0.3037 -0.6740
   88MOL0     C11794  -0.089  12.713   8.243  0.6755  0.5617 -0.1778
   88MOL0     C11795   0.043  12.704   8.193  0.3667 -0.5494  0.3327
   88MOL0     N11796   0.505  12.378   8.456 -0.0412 -0.6074  1.3691
   88MOL0     N11797   0.597  12.371   8.535  0.2998  0.3418 -0.2148
   88MOL0     C11798   0.967  11.314   8.133 -0.4040 -0.4184 -1.6932
   88MOL0     C11799   1.055  11.266   8.032  0.8848 -0.3978  0.3014
   88MOL0     C11800   1.337  11.195   7.710  0.1245  0.1343  0.1379
   88MOL0     C11801   1.327  11.108   7.605  0.0055  0.0045  0.7395
   88MOL0     C11802   1.440  11.071   7.522  0.1500  0.2186  0.0847
   88MOL0     C11803   1.559  11.133   7.545  0.3785  0.2294  0.1367
   88MOL0     O11804   1.671  11.114   7.459  0.8165 -0.0099  0.4699
   88MOL0     C11805   1.799  11.177   7.488 -0.4900  0.4607 -0.6659
   88MOL0     C11806   1.899  11.168   7.373  0.6526 -0.4099 -0.4447
   88MOL0     C11807   2.047  11.185   7.402 -0.4750  0.1667 -0.9891
   88MOL0     C11808   2.133  11.242   7.295  0.4146 -0.3674  0.0938
   88MOL0     C11809   2.274  11.233   7.323 -0.0679  0.0262  0.1028
   88MOL0     C11810   2.394  11.215   7.329 -0.2796  0.1990 -0.7193
   88MOL0     C11811   1.563  11.226   7.653  1.1134 -0.1174  0.1278
   88MOL0     C11812   1.460  11.248   7.741 -0.9236 -0.5947 -0.3594
   88MOL0     H11813   1.251  11.532   7.996 -2.0601  3.1917 -1.5528
   88MOL0     H11814   1.083  11.633   8.164  1.1826 -0.5782  0.2248
   88MOL0     H11815   0.923  11.367   8.434  0.9507 -2.1160 -2.6856
   88MOL0     H11816   1.062  11.482   8.394 -0.6447 -1.9656 -0.2270
   88MOL0     H11817   0.764  11.539   8.492 -0.7849 -1.2735 -1.4800
   88MOL0     H11818   0.900  11.521   8.605 -0.6205 -1.0996 -0.6468
   88MOL0     H11819   1.020  11.712   8.516 -0.1159  1.6044  1.0794
   88MOL0     H11820   0.896  11.742   8.391 -0.1391  1.1962 -0.8550
   88MOL0     H11821   0.718  11.786   8.549 -0.3514 -1.6500  2.5293
   88MOL0     H11822   0.835  11.769   8.670  1.5674  0.3580 -0.0273
   88MOL0     H11823   0.957  11.978   8.589 -0.5815  2.4269 -0.3781
   88MOL0     H11824   0.854  11.964   8.446  3.0400  0.4903 -0.3712
   88MOL0     H11825   0.665  12.056   8.566  0.3689  1.3953  0.3643
   88MOL0     H11826   0.719  11.983   8.724  0.1774 -2.2579 -0.5545
   88MOL0     H11827   0.751  12.241   8.739  1.8805  1.4570  0.0980
   88MOL0     H11828   0.903  12.171   8.718  0.1946 -5.4885 -1.3879
   88MOL0     H11829   0.907  12.224   8.484 -0.7154 -2.9148  2.0994
   88MOL0     H11830   0.886  12.374   8.584 -0.9103  0.1743  1.4032
   88MOL0     H11831   0.743  12.276   8.259 -2.6881 -0.1860 -1.2482
   88MOL0     H11832   0.545  12.255   8.135  0.9101  1.2284 -0.7753
   88MOL0     H11833   0.387  12.308   8.208  0.1598  1.4745  1.1618
   88MOL0     H11834   0.458  12.468   8.029 -0.9069  1.4022  1.0036
   88MOL0     H11835   0.614  12.487   8.097  0.1307 -2.7957 -1.9278
   88MOL0     H11836   0.454  12.675   8.140 -1.4611 -2.5899 -3.7669
   88MOL0     H11837   0.521  12.604   8.291 -1.8204 -1.5810  2.2905
   88MOL0     H11838   0.286  12.648   8.328 -0.6612  0.2078 -0.3670
   88MOL0     H11839   0.318  12.472   8.319  1.7154 -0.3894 -1.3316
   88MOL0     H11840   0.081  12.375   8.212  2.5707  1.5373 -3.5290
   88MOL0     H11841  -0.139  12.342   8.439  1.5129 -1.6637 -0.4464
   88MOL0     H11842  -0.267  12.322   8.309  0.2971 -1.6064 -2.3923
   88MOL0     H11843  -0.111  12.253   8.282 -2.3237 -3.3054  1.8099
   88MOL0     H11844  -0.393  12.732   8.641 -0.1914  0.5110  2.1215
   88MOL0     H11845  -0.592  12.797   8.714  0.7928 -0.8605  1.0376
   88MOL0     H11846  -0.869  12.665   8.846 -0.1512 -1.5778 -0.8043
   88MOL0     H11847  -0.773  12.810   8.824 -1.9276  1.2712  0.5766
   88MOL0     H11848  -0.984  12.887   8.895 -0.7627  0.2442  0.2605
   88MOL0     H11849  -0.961  12.938   8.735 -1.4940  1.3975  2.0679
   88MOL0     H11850  -1.105  12.735   8.649  1.1023 -1.6378  0.3946
   88MOL0     H11851  -1.182  12.876   8.739 -0.1443  0.2328  1.1989
   88MOL0     H11852  -1.112  12.599   8.843 -0.2446 -0.6925  1.2074
   88MOL0     H11853  -1.138  12.733   8.948 -2.1308  0.6713  1.0844
   88MOL0     H11854  -1.351  12.623   8.756 -0.7515 -1.5923  1.8787
   88MOL0     H11855  -1.381  12.751   8.870 -2.0941 -0.4620  1.9445
   88MOL0     H11856  -1.300  12.474   8.944 -3.5716 -1.0106 -2.2753
   88MOL0     H11857  -1.324  12.604   9.058  2.0206  0.2675 -1.9093
   88MOL0     H11858  -1.511  12.414   8.937 -1.5432 -0.4685  0.5919
   88MOL0     H11859  -1.565  12.569   8.888 -1.8156 -1.4076  0.0248
   88MOL0     H11860  -1.570  12.642   9.126  0.5609  1.4042  0.9036
   88MOL0     H11861  -1.493  12.485   9.177  0.4673  0.6050 -0.6207
   88MOL0     H11862  -0.814  12.546   8.453 -0.8896  0.7806  1.0401
   88MOL0     H11863  -0.598  12.467   8.359 -0.2468  0.3137 -0.7030
   88MOL0     H11864  -0.124  12.815   8.233 -2.3343 -0.5685 -3.0715
   88MOL0     H11865   0.080  12.789   8.137 -2.1562 -0.9894 -2.2383
   88MOL0     H11866   0.914  11.233   8.182  0.1957 -0.4574 -1.0771
   88MOL0     H11867   1.050  11.163   7.998 -2.9067 -0.0991 -0.4851
   88MOL0     H11868   1.232  11.072   7.566  1.2900  0.0863 -2.8750
   88MOL0     H11869   1.417  11.000   7.443 -2.6794  0.5503  0.5056
   88MOL0     H11870   1.783  11.285   7.500  1.1574  0.6710 -0.2074
   88MOL0     H11871   1.838  11.135   7.581 -2.0881 -0.2752 -0.2928
   88MOL0     H11872   1.860  11.247   7.308 -0.0745  0.8728  1.4666
   88MOL0     H11873   1.888  11.066   7.333 -2.3906 -0.3560 -0.0038
   88MOL0     H11874   2.095  11.088   7.422  3.9934  2.3982  0.4906
   88MOL0     H11875   2.048  11.242   7.496 -0.3005 -0.2348 -0.7434
   88MOL0     H11876   2.104  11.348   7.301 -1.6540 -0.9983  3.2572
   88MOL0     H11877   2.113  11.208   7.193 -0.2916  1.7091 -0.5128
   88MOL0     H11878   2.500  11.209   7.339 -0.2278 -0.8416 -1.6613
   88MOL0     H11879   1.643  11.295   7.680 -0.3377  0.6558  2.8467
   88MOL0     H11880   1.477  11.321   7.819  1.2434 -1.1640 -0.2375
   89MOL0     O11881   4.608   3.292   5.027 -0.1662  0.0539 -0.9803
   89MOL0     C11882   4.652   3.330   5.138  0.1258  0.9034 -0.6536
   89MOL0     O11883   4.587   3.415   5.224 -0.0446 -0.6522 -0.2906
   89MOL0     C11884   4.456   3.448   5.208 -0.4802  0.0440  0.6168
   89MOL0     C11885   4.357   3.347   5.209 -0.2205  0.6516  0.5855
   89MOL0     C11886   4.223   3.369   5.195  0.0992 -0.3616 -0.3564
   89MOL0     C11887   4.176   3.502   5.193  0.0697 -1.1300  0.4031
   89MOL0     O11888   4.041   3.513   5.170 -0.2364  0.1064 -0.8386
   89MOL0     C11889   3.971   3.488   5.284  0.6302  0.2088 -0.9329
   89MOL0     C11890   3.834   3.546   5.263  0.9695 -0.2572  0.6624
   89MOL0     C11891   3.770   3.539   5.398 -0.6103  0.6388  0.6949
   89MOL0     C11892   3.651   3.629   5.408 -0.6201 -1.4830  0.5548
   89MOL0     C11893   3.527   3.587   5.484 -0.5459 -0.8271 -0.1913
   89MOL0     C11894   3.454   3.489   5.397 -0.9802 -0.0847  0.2331
   89MOL0     C11895   3.358   3.404   5.481 -0.0774 -0.2126 -0.2969
   89MOL0     C11896   3.277   3.484   5.593  0.7337 -0.3470  0.5968
   89MOL0     N11897   3.190   3.573   5.516 -0.1443  0.4910  0.1524
   89MOL0     C11898   3.176   3.705   5.543  0.5438 -0.0012  0.4242
   89MOL0     C11899   3.073   3.747   5.470  0.0543 -0.5874  1.1186
   89MOL0     C11900   3.032   3.895   5.459  0.3781  0.1556 -0.5227
   89MOL0     C11901   2.971   3.924   5.322  0.0303  0.3764  0.7332
   89MOL0     C11902   2.924   4.076   5.296  0.0825 -0.5092 -0.2314
   89MOL0     C11903   2.828   4.077   5.177 -1.0576 -0.3224  0.0458
   89MOL0     O11904   2.702   4.023   5.207 -0.8563  0.0718 -0.6772
   89MOL0     C11905   2.610   4.041   5.108 -0.2630 -0.0264 -0.0813
   89MOL0     C11906   2.575   3.934   5.022 -0.2557  0.2377 -0.8533
   89MOL0     C11907   2.465   3.949   4.930 -0.3800  0.2778  1.2661
   89MOL0     C11908   2.415   3.830   4.851 -0.0147 -0.2186  0.1392
   89MOL0     C11909   2.397   4.067   4.926 -0.5024  0.3909  0.1535
   89MOL0     C11910   2.264   4.082   4.857  0.0627  0.0356  0.3227
   89MOL0     O11911   2.154   3.990   4.885 -0.0092  1.0337  0.2752
   89MOL0     C11912   2.033   4.028   4.844  0.3917 -0.1027 -0.3723
   89MOL0     C11913   1.940   3.938   4.795 -0.0358 -0.1931  0.4048
   89MOL0     C11914   1.813   3.976   4.759 -0.2519 -0.3817  0.1372
   89MOL0     C11915   1.768   4.104   4.773 -0.5131  0.0451  0.4920
   89MOL0     O11916   1.642   4.139   4.733 -0.0294  0.8018 -0.3903
   89MOL0     C11917   1.537   4.037   4.720 -0.2387  0.1362  0.0090
   89MOL0     C11918   1.484   4.000   4.862 -0.2888 -0.5251  0.0894
   89MOL0     C11919   1.419   4.122   4.942  0.9349 -0.5479  0.5107
   89MOL0     C11920   1.273   4.132   4.904 -0.5621 -0.5898 -0.0656
   89MOL0     C11921   1.231   4.270   4.955  0.1925  0.6741  0.2224
   89MOL0     C11922   1.082   4.294   4.933 -0.2263  0.1783  0.9507
   89MOL0     C11923   1.013   4.423   4.981 -0.9811 -0.4833 -0.5848
   89MOL0     C11924   0.920   4.470   4.866  0.2471  0.4407  0.9412
   89MOL0    Cl11925   0.780   4.365   4.852  0.0925  0.0045 -0.4889
   89MOL0     C11926   1.848   4.198   4.831  0.1456 -0.3625  0.3538
   89MOL0     C11927   1.981   4.161   4.871  0.3157  1.0521 -0.2937
   89MOL0     O11928   2.257   4.177   4.776  0.5171 -0.0700  0.5791
   89MOL0     C11929   2.440   4.174   5.004  0.5339  0.5207  0.6123
   89MOL0     C11930   2.543   4.160   5.096  0.4181 -0.2593 -0.5538
   89MOL0     N11931   3.029   3.639   5.385  0.7396 -0.7848 -0.2954
   89MOL0     N11932   3.099   3.537   5.420  0.5368 -0.2627  0.1896
   89MOL0     C11933   4.271   3.613   5.183  0.2866 -0.3235 -0.0494
   89MOL0     C11934   4.409   3.584   5.194  0.0682  0.0710  0.6722
   89MOL0     C11935   4.776   3.267   5.179 -0.6162  0.6487 -0.4325
   89MOL0     C11936   4.847   3.322   5.290  0.4378 -0.6224 -0.8113
   89MOL0     C11937   4.954   3.251   5.351  0.5492  0.4378  1.5091
   89MOL0     C11938   4.991   3.128   5.294 -0.0026  0.2953 -0.4142
   89MOL0     O11939   5.089   3.049   5.343 -0.4426 -0.5214 -0.0879
   89MOL0     C11940   5.169   3.087   5.456  0.6522  0.3601 -0.8713
   89MOL0     C11941   5.303   3.018   5.441  0.8982  0.3683  0.3291
   89MOL0     C11942   5.391   3.063   5.318  0.5557  0.3791  0.7234
   89MOL0     C11943   5.490   2.959   5.271 -0.6391 -0.1886  0.2357
   89MOL0     C11944   5.577   3.000   5.158 -0.7310 -0.7063 -0.1998
   89MOL0     C11945   5.634   3.015   5.048 -1.0450  0.1428  0.0169
   89MOL0     C11946   4.931   3.079   5.177  0.0847 -0.0636 -0.0313
   89MOL0     C11947   4.826   3.146   5.126  0.3256 -0.5653 -0.0197
   89MOL0     H11948   4.402   3.249   5.223 -0.4592  0.5645  0.7452
   89MOL0     H11949   4.143   3.296   5.194  1.7682 -2.5107  3.3318
   89MOL0     H11950   3.942   3.387   5.315  0.1196  1.2008  2.2119
   89MOL0     H11951   4.006   3.536   5.375 -3.2361 -0.6152  1.2376
   89MOL0     H11952   3.833   3.648   5.223 -0.4663 -0.1202  0.9855
   89MOL0     H11953   3.771   3.483   5.199  1.8972 -0.5935  0.0463
   89MOL0     H11954   3.736   3.438   5.422 -0.5452  0.5275  0.3202
   89MOL0     H11955   3.843   3.555   5.478 -2.8105 -2.4477  3.5772
   89MOL0     H11956   3.686   3.729   5.434 -1.8435 -0.8609 -0.1339
   89MOL0     H11957   3.624   3.648   5.303  0.5934 -0.4428  0.3985
   89MOL0     H11958   3.564   3.538   5.574  3.2720  1.3425 -0.3925
   89MOL0     H11959   3.464   3.674   5.505 -0.5830 -0.2957 -2.2673
   89MOL0     H11960   3.385   3.552   5.339  0.2005  3.4819  2.3556
   89MOL0     H11961   3.522   3.423   5.342  0.3390  1.1315  0.3497
   89MOL0     H11962   3.293   3.367   5.401  0.7719  0.2545 -1.2337
   89MOL0     H11963   3.414   3.320   5.523 -1.4783 -1.7239 -1.2988
   89MOL0     H11964   3.348   3.522   5.667 -0.0675 -2.2812  2.4679
   89MOL0     H11965   3.216   3.422   5.659  1.1728  0.5397  1.8595
   89MOL0     H11966   3.238   3.763   5.612  0.9848  0.4065 -0.3014
   89MOL0     H11967   2.966   3.915   5.544 -2.6573  1.1466 -2.9553
   89MOL0     H11968   3.122   3.954   5.480  0.8923 -1.0740  0.9062
   89MOL0     H11969   2.878   3.866   5.318 -0.4084  1.1366 -0.7432
   89MOL0     H11970   3.040   3.892   5.243 -1.0328 -0.5810  0.1509
   89MOL0     H11971   3.006   4.143   5.270  0.9979 -1.9258 -1.1353
   89MOL0     H11972   2.871   4.111   5.385 -0.2389 -0.1791 -0.5522
   89MOL0     H11973   2.870   4.019   5.094 -0.2632 -1.8878  1.4688
   89MOL0     H11974   2.821   4.182   5.149 -0.5229 -0.7647 -1.8671
   89MOL0     H11975   2.624   3.837   5.029 -1.1684 -0.1417  1.0725
   89MOL0     H11976   2.503   3.774   4.816 -0.7186 -0.2500 -1.7018
   89MOL0     H11977   2.358   3.757   4.909  0.4821 -1.3786 -0.7745
   89MOL0     H11978   2.360   3.858   4.760  0.0020 -1.7256 -0.3674
   89MOL0     H11979   1.967   3.833   4.791  0.7799  0.0482 -2.0977
   89MOL0     H11980   1.758   3.895   4.714  2.5097 -1.9380 -0.6416
   89MOL0     H11981   1.461   4.076   4.651 -2.4535 -2.4465  0.8254
   89MOL0     H11982   1.575   3.942   4.680 -1.3961 -0.4902  0.3756
   89MOL0     H11983   1.426   3.908   4.858  0.4771 -0.9955 -0.3392
   89MOL0     H11984   1.567   3.976   4.929  0.2467  0.2386 -0.2815
   89MOL0     H11985   1.468   4.217   4.920  1.9248 -0.5280  2.5514
   89MOL0     H11986   1.430   4.105   5.050 -1.0484  0.6125  0.9536
   89MOL0     H11987   1.260   4.122   4.796  1.2033 -1.0562 -0.2494
   89MOL0     H11988   1.222   4.058   4.967  0.1788 -0.2213  0.9897
   89MOL0     H11989   1.285   4.349   4.902 -2.0354  2.8122  0.9371
   89MOL0     H11990   1.250   4.265   5.063  2.3367 -0.2515 -0.1366
   89MOL0     H11991   1.070   4.285   4.824 -4.7292  0.8645  1.1969
   89MOL0     H11992   1.032   4.209   4.980  2.1820 -0.5100  2.4711
   89MOL0     H11993   1.087   4.502   5.001 -2.5847  1.6199 -2.4338
   89MOL0     H11994   0.967   4.405   5.078  0.5222 -1.2455  0.0304
   89MOL0     H11995   0.979   4.469   4.775 -1.7387  0.4935 -0.4179
   89MOL0     H11996   0.889   4.575   4.876 -1.9790 -0.0130 -0.5867
   89MOL0     H11997   1.807   4.293   4.863 -0.9881 -0.4908 -0.6310
   89MOL0     H11998   2.032   4.227   4.940  2.0422 -2.1116  1.7347
   89MOL0     H11999   2.381   4.265   5.005  2.8903  2.2388 -1.9937
   89MOL0     H12000   2.553   4.234   5.175 -0.2635 -1.2030  0.4414
   89MOL0     H12001   4.234   3.715   5.178 -0.0929 -0.4734 -0.3447
   89MOL0     H12002   4.481   3.665   5.185 -0.4440  0.6341  1.4691
   89MOL0     H12003   4.801   3.405   5.345 -2.0189 -1.6228 -1.2327
   89MOL0     H12004   4.999   3.285   5.444  0.4101 -1.1036  2.1790
   89MOL0     H12005   5.179   3.195   5.471  0.7504  0.0347  2.2340
   89MOL0     H12006   5.126   3.047   5.549 -0.2345  0.2001 -1.3408
   89MOL0     H12007   5.287   2.912   5.463  1.2786  0.2811  0.2019
   89MOL0     H12008   5.360   3.047   5.530  0.1473  2.1852  0.2707
   89MOL0     H12009   5.438   3.156   5.350 -0.1123  0.6205  1.0315
   89MOL0     H12010   5.318   3.079   5.237  2.2454 -1.2094 -1.2359
   89MOL0     H12011   5.425   2.885   5.224 -0.0420  0.6324 -1.9960
   89MOL0     H12012   5.549   2.916   5.353 -0.8820  0.4396  0.7513
   89MOL0     H12013   5.667   3.025   4.946  1.6003 -0.0046  0.8062
   89MOL0     H12014   4.966   2.986   5.133  3.7398  0.4375  1.4553
   89MOL0     H12015   4.777   3.105   5.039  3.0446  2.2459 -3.1754
   90MOL0     O12016   6.368   9.750  10.177 -0.5796  0.5178  0.1654
   90MOL0     C12017   6.440   9.818  10.251  1.3065 -0.1734 -0.2772
   90MOL0     O12018   6.432   9.831  10.388  0.0273  0.3099 -0.2026
   90MOL0     C12019   6.318   9.781  10.457 -0.2932  0.0736  0.6184
   90MOL0     C12020   6.336   9.675  10.542  0.7106  0.2624  0.3176
   90MOL0     C12021   6.227   9.625  10.619 -0.4853 -0.2824  0.6914
   90MOL0     C12022   6.097   9.685  10.609  0.8165  0.0949  0.3239
   90MOL0     O12023   5.972   9.648  10.656 -0.4342  1.1935 -0.3644
   90MOL0     C12024   5.954   9.515  10.714  0.9106  1.2732 -0.6933
   90MOL0     C12025   5.808   9.490  10.756 -0.5487  0.1599  0.0771
   90MOL0     C12026   5.782   9.349  10.787  1.1100  0.1659 -0.1209
   90MOL0     C12027   5.672   9.328  10.899 -0.3073  0.1306  0.6447
   90MOL0     C12028   5.693   9.197  10.979  0.6410  0.1430  0.2881
   90MOL0     C12029   5.586   9.183  11.090  0.1786  1.2642  0.3748
   90MOL0     C12030   5.627   9.068  11.193 -0.1085  0.4292 -0.2254
   90MOL0     C12031   5.527   8.949  11.178 -0.0078 -0.5315 -0.0099
   90MOL0     N12032   5.404   8.982  11.242 -0.2987  0.1424  0.3021
   90MOL0     C12033   5.364   8.975  11.367 -0.2250  0.3487  0.1553
   90MOL0     C12034   5.226   9.000  11.361  0.1123  0.3172  0.0260
   90MOL0     C12035   5.135   9.019  11.478 -0.6946 -0.0761  0.1255
   90MOL0     C12036   5.038   8.908  11.489 -0.7449 -0.3919 -0.6476
   90MOL0     C12037   4.947   8.904  11.374 -0.4346  0.5722  0.1849
   90MOL0     C12038   4.865   9.036  11.337  0.3367 -0.1053 -1.2785
   90MOL0     O12039   4.797   9.093  11.453  0.0702 -0.2354  0.3039
   90MOL0     C12040   4.659   9.106  11.437  0.4746 -0.0160 -1.2986
   90MOL0     C12041   4.573   8.993  11.408 -0.4738 -0.9995  0.0050
   90MOL0     C12042   4.440   9.012  11.406  0.1221  0.3630  1.6579
   90MOL0     C12043   4.363   8.886  11.362 -0.0061 -0.0220  0.9464
   90MOL0     C12044   4.371   9.129  11.438 -0.9704 -0.2840  0.2781
   90MOL0     C12045   4.232   9.155  11.410 -0.0501 -0.1854  0.1724
   90MOL0     O12046   4.195   9.280  11.446  0.0571 -0.1927  0.9301
   90MOL0     C12047   4.068   9.324  11.414 -0.5031  0.7601 -0.7867
   90MOL0     C12048   3.946   9.257  11.427 -0.6109 -0.1671  0.1301
   90MOL0     C12049   3.828   9.321  11.390  0.0426  0.5681 -0.0811
   90MOL0     C12050   3.821   9.455  11.366 -1.1759 -0.2710  0.0859
   90MOL0     O12051   3.699   9.514  11.335  0.3392  0.3780  0.2872
   90MOL0     C12052   3.680   9.517  11.189 -0.1254  0.2532 -0.2128
   90MOL0     C12053   3.593   9.636  11.162 -0.6161  0.3619  0.9312
   90MOL0     C12054   3.541   9.656  11.020 -0.1582 -0.3222  1.2334
   90MOL0     C12055   3.404   9.577  10.997  0.0348  0.3392  0.8718
   90MOL0     C12056   3.378   9.554  10.847 -0.5141 -0.1359 -0.4271
   90MOL0     C12057   3.246   9.479  10.825 -0.5919 -0.0125 -0.3588
   90MOL0     C12058   3.232   9.453  10.678 -0.3459 -0.0102  0.6837
   90MOL0     C12059   3.086   9.431  10.652  0.1303  0.7086  0.0242
   90MOL0    Cl12060   3.056   9.349  10.484  0.0360 -0.3150 -0.0752
   90MOL0     C12061   3.948   9.523  11.343  0.6371  1.5458  0.2887
   90MOL0     C12062   4.066   9.454  11.366  0.7480  0.3944 -0.1703
   90MOL0     O12063   4.163   9.071  11.359 -0.2885 -0.2308  0.3208
   90MOL0     C12064   4.454   9.231  11.488 -0.2024 -0.6381  0.0980
   90MOL0     C12065   4.595   9.217  11.489  0.7283  0.4105 -0.1101
   90MOL0     N12066   5.187   9.015  11.236 -0.1338 -0.5909  0.1764
   90MOL0     N12067   5.292   9.002  11.163 -0.2760 -0.0628  1.0695
   90MOL0     C12068   6.091   9.800  10.533  0.1488  0.6000  0.6036
   90MOL0     C12069   6.192   9.841  10.454  0.1590  0.0345 -0.3976
   90MOL0     C12070   6.534   9.910  10.186  0.5247 -0.1930  0.8643
   90MOL0     C12071   6.606  10.015  10.250  1.2841  0.1539  0.1134
   90MOL0     C12072   6.692  10.111  10.191  0.0021  0.6613  0.5876
   90MOL0     C12073   6.706  10.100  10.050  0.0006  0.2710  0.5957
   90MOL0     O12074   6.779  10.175   9.971 -0.1779  0.3330 -0.0322
   90MOL0     C12075   6.892  10.248  10.020  0.4817  0.7181  0.3021
   90MOL0     C12076   7.009  10.222   9.920 -0.8393  0.2610  0.5486
   90MOL0     C12077   7.013  10.308   9.795  0.2098 -0.4079 -0.0209
   90MOL0     C12078   7.071  10.228   9.677  0.2235  0.8376  0.1022
   90MOL0     C12079   7.207  10.182   9.714 -0.4495  1.1699 -0.0873
   90MOL0     C12080   7.317  10.145   9.755 -0.3826  0.2966 -0.2352
   90MOL0     C12081   6.641   9.998   9.982  0.1179 -0.4740  0.1292
   90MOL0     C12082   6.558   9.908  10.045 -0.1076 -0.5045 -0.3390
   90MOL0     H12083   6.437   9.636  10.548  0.3648 -1.3288 -2.4843
   90MOL0     H12084   6.255   9.544  10.685  1.2856  0.7391  1.2624
   90MOL0     H12085   5.980   9.437  10.642  0.0014  0.5763 -0.2987
   90MOL0     H12086   6.017   9.521  10.803  0.0654  2.0353 -0.1305
   90MOL0     H12087   5.801   9.550  10.847  3.6360  2.9910 -1.2036
   90MOL0     H12088   5.739   9.519  10.677 -1.0051 -1.3987 -0.1390
   90MOL0     H12089   5.736   9.299  10.701  0.4455 -0.0882  0.3735
   90MOL0     H12090   5.877   9.299  10.808  1.6368  0.7599 -1.0458
   90MOL0     H12091   5.680   9.406  10.975  1.0235  0.7491 -0.0938
   90MOL0     H12092   5.572   9.326  10.856  0.2996  2.6815 -1.1167
   90MOL0     H12093   5.698   9.114  10.908  1.2860  0.9953 -0.7025
   90MOL0     H12094   5.793   9.209  11.022  0.2561  4.2974  0.4647
   90MOL0     H12095   5.565   9.278  11.140  1.0307  0.5385  2.1864
   90MOL0     H12096   5.489   9.150  11.050 -0.4634 -0.2045  2.9704
   90MOL0     H12097   5.731   9.042  11.172  1.0407  4.2097  0.0716
   90MOL0     H12098   5.620   9.103  11.297  0.2446  1.9536 -0.6902
   90MOL0     H12099   5.571   8.864  11.231 -0.4625 -1.2631 -0.7820
   90MOL0     H12100   5.506   8.920  11.074 -0.7248  2.9737 -0.9967
   90MOL0     H12101   5.415   8.956  11.461  2.2723 -0.6067 -1.3003
   90MOL0     H12102   5.189   9.032  11.572  0.5350  0.9528 -0.6919
   90MOL0     H12103   5.085   9.115  11.459  1.4213  1.1607  0.5413
   90MOL0     H12104   4.985   8.908  11.585  2.6385 -0.8050  1.3694
   90MOL0     H12105   5.097   8.819  11.508  1.3155  1.2105  0.8172
   90MOL0     H12106   4.872   8.831  11.404  0.6956  0.2725  2.4477
   90MOL0     H12107   4.995   8.856  11.288  1.8732  0.0232  1.7045
   90MOL0     H12108   4.794   9.007  11.259  0.6649 -1.4673 -1.0836
   90MOL0     H12109   4.937   9.111  11.303  0.2157  0.3277 -0.6112
   90MOL0     H12110   4.622   8.898  11.385  1.7419  0.1032 -0.1256
   90MOL0     H12111   4.339   8.899  11.256  2.2817 -0.5360  0.3186
   90MOL0     H12112   4.419   8.792  11.372  3.8327  1.4762 -2.9952
   90MOL0     H12113   4.269   8.865  11.414 -0.1851  0.5683  0.8656
   90MOL0     H12114   3.942   9.155  11.464 -0.4928 -0.0587  0.4440
   90MOL0     H12115   3.729   9.278  11.385  0.8304 -1.2051 -2.1063
   90MOL0     H12116   3.770   9.514  11.128 -0.7777 -2.1836 -1.1455
   90MOL0     H12117   3.618   9.430  11.167 -1.7916  2.0597 -3.4083
   90MOL0     H12118   3.504   9.625  11.224 -0.7930 -0.9235  0.4768
   90MOL0     H12119   3.653   9.719  11.200  2.3130 -0.6629 -1.0718
   90MOL0     H12120   3.617   9.615  10.954  1.2502  2.0220  1.3084
   90MOL0     H12121   3.530   9.761  10.992 -0.4858 -0.6987 -0.0981
   90MOL0     H12122   3.417   9.480  11.044 -2.3705 -0.9026 -0.8082
   90MOL0     H12123   3.319   9.628  11.045 -0.2242 -0.8510  1.7261
   90MOL0     H12124   3.461   9.498  10.804 -1.2936 -1.3711 -0.3651
   90MOL0     H12125   3.376   9.653  10.800 -0.3594 -0.1284 -0.4159
   90MOL0     H12126   3.256   9.380  10.871  2.8516 -1.1066 -3.0412
   90MOL0     H12127   3.158   9.536  10.857 -0.9759 -1.0561  0.4770
   90MOL0     H12128   3.290   9.365  10.648  0.8601  1.0261 -0.1494
   90MOL0     H12129   3.257   9.544  10.623  1.0699 -0.7672  0.0392
   90MOL0     H12130   3.037   9.528  10.660 -2.2812 -0.4525  0.3616
   90MOL0     H12131   3.052   9.365  10.732  0.4639 -0.8918 -1.0875
   90MOL0     H12132   3.934   9.629  11.324 -2.9096  1.9000  3.6513
   90MOL0     H12133   4.159   9.502  11.334  2.0112 -2.8549 -1.7866
   90MOL0     H12134   4.419   9.330  11.515 -0.8088 -1.1697  1.3218
   90MOL0     H12135   4.659   9.297  11.525  1.5895  0.7540 -2.2713
   90MOL0     H12136   6.006   9.865  10.514 -0.0187 -0.1275 -1.3243
   90MOL0     H12137   6.174   9.928  10.392  2.2352 -0.4715 -1.8312
   90MOL0     H12138   6.585  10.021  10.357 -1.0641 -1.4445 -0.1996
   90MOL0     H12139   6.744  10.181  10.255 -2.5050  3.8406 -0.5477
   90MOL0     H12140   6.862  10.353  10.027 -1.8563  0.4125 -2.8502
   90MOL0     H12141   6.928  10.209  10.115 -1.5699 -0.8273  0.5098
   90MOL0     H12142   7.018  10.114   9.905  1.4228  0.1650  2.0170
   90MOL0     H12143   7.101  10.247   9.975  0.3274 -1.1484 -0.6594
   90MOL0     H12144   7.075  10.396   9.816 -0.4403 -0.2974  1.5666
   90MOL0     H12145   6.914  10.351   9.776 -1.0241 -1.9958  2.3354
   90MOL0     H12146   7.075  10.280   9.581 -2.6028 -0.2513 -0.7174
   90MOL0     H12147   7.005  10.142   9.659 -2.4880  3.2482 -2.4315
   90MOL0     H12148   7.413  10.106   9.784 -0.5218 -0.4830 -0.7952
   90MOL0     H12149   6.653  10.002   9.874 -0.1261 -1.7795  0.0366
   90MOL0     H12150   6.518   9.823   9.992  0.8098 -0.3003 -1.3944
   91MOL0     O12151   0.063   7.501   0.962 -0.0002 -0.8401 -0.2756
   91MOL0     C12152   0.103   7.548   0.850 -0.0365  0.5419 -0.4307
   91MOL0     O12153   0.027   7.581   0.754 -0.5046 -0.6409  1.3780
   91MOL0     C12154  -0.108   7.588   0.779 -0.0843 -1.1243 -1.0008
   91MOL0     C12155  -0.153   7.719   0.796  0.3659  0.0782  0.1477
   91MOL0     C12156  -0.293   7.732   0.825  0.1552  0.1436 -0.0060
   91MOL0     C12157  -0.383   7.625   0.846 -0.5329 -0.1601 -1.0090
   91MOL0     O12158  -0.514   7.637   0.890  0.1943  0.6780 -0.0897
   91MOL0     C12159  -0.566   7.765   0.924  0.3893  0.3825 -0.0846
   91MOL0     C12160  -0.708   7.760   0.990 -0.1914  0.8315  0.0235
   91MOL0     C12161  -0.738   7.893   1.051 -0.2525  0.4543 -0.5532
   91MOL0     C12162  -0.770   7.997   0.947 -0.2567 -0.0568 -0.1739
   91MOL0     C12163  -0.812   8.127   1.011 -0.1990 -0.8640  0.1817
   91MOL0     C12164  -0.851   8.242   0.919  0.6407  1.6129 -0.5052
   91MOL0     C12165  -0.888   8.368   0.997 -0.1769  0.3698 -0.3676
   91MOL0     C12166  -0.940   8.487   0.914 -0.5207  0.4481 -0.1322
   91MOL0     N12167  -1.083   8.473   0.871 -0.8794 -0.5160  0.3112
   91MOL0     C12168  -1.185   8.454   0.965 -1.5630 -1.0988 -0.3684
   91MOL0     C12169  -1.301   8.453   0.888 -0.3358  0.1305  0.0590
   91MOL0     C12170  -1.451   8.428   0.934  0.5579 -0.6166 -0.3624
   91MOL0     C12171  -1.545   8.395   0.812  0.0372 -0.1530 -0.0266
   91MOL0     C12172  -1.696   8.403   0.848 -0.0306  0.4413 -1.1250
   91MOL0     C12173  -1.739   8.285   0.941  0.3386 -0.2933 -0.8123
   91MOL0     O12174  -1.888   8.303   0.963 -0.2550 -0.1579 -0.4431
   91MOL0     C12175  -1.978   8.200   1.004  0.6978  0.7866 -0.1590
   91MOL0     C12176  -1.938   8.088   1.064 -0.3610  0.4019  0.5462
   91MOL0     C12177  -2.023   7.990   1.120 -0.4045  0.4760 -0.2727
   91MOL0     C12178  -1.964   7.874   1.198 -0.2712 -0.3603 -0.8573
   91MOL0     C12179  -2.160   8.013   1.095  0.0614 -0.0137  0.4109
   91MOL0     C12180  -2.258   7.915   1.130 -0.0676  0.7940  0.1921
   91MOL0     O12181  -2.344   7.955   1.219 -0.4336  0.0392  0.5256
   91MOL0     C12182  -2.422   7.857   1.280  0.3490 -0.7706 -0.0494
   91MOL0     C12183  -2.386   7.785   1.388 -0.0807  0.1616  0.3866
   91MOL0     C12184  -2.458   7.673   1.434  0.4805  0.2389  0.0913
   91MOL0     C12185  -2.575   7.626   1.361 -0.4414  0.6228  0.2201
   91MOL0     O12186  -2.620   7.502   1.407  0.4869 -0.3842 -0.1307
   91MOL0     C12187  -2.725   7.433   1.335 -0.1218 -0.4314 -0.0919
   91MOL0     C12188  -2.714   7.283   1.350 -0.1731  0.3485 -0.1429
   91MOL0     C12189  -2.842   7.222   1.287 -0.5626  0.1490  0.2039
   91MOL0     C12190  -2.832   7.076   1.301 -0.2058 -0.0074 -0.2599
   91MOL0     C12191  -2.951   7.001   1.239  0.0188 -0.3126 -0.5524
   91MOL0     C12192  -2.904   6.959   1.102  0.8584 -0.5695 -0.0661
   91MOL0     C12193  -3.005   6.878   1.015  0.3244 -0.0217 -0.6375
   91MOL0     C12194  -2.955   6.866   0.865  0.4479 -0.1393  0.0022
   91MOL0    Cl12195  -2.796   6.792   0.848 -0.2669  0.0919 -0.0298
   91MOL0     C12196  -2.612   7.709   1.247  0.1052 -0.0102 -0.1103
   91MOL0     C12197  -2.535   7.822   1.211 -0.3300 -0.8242  0.0296
   91MOL0     O12198  -2.250   7.803   1.077  0.1077 -1.0239  0.5676
   91MOL0     C12199  -2.205   8.135   1.039 -1.3714  0.2665 -0.2856
   91MOL0     C12200  -2.113   8.235   1.001  0.0874  0.3815 -0.4109
   91MOL0     N12201  -1.269   8.457   0.756  0.2195 -0.4120 -0.6223
   91MOL0     N12202  -1.140   8.473   0.748  0.0826  0.1630  0.3197
   91MOL0     C12203  -0.330   7.493   0.823  0.0349 -0.0328  0.2241
   91MOL0     C12204  -0.197   7.476   0.784  0.2297 -0.1413  0.2683
   91MOL0     C12205   0.248   7.568   0.835 -0.8399  0.3636 -0.1245
   91MOL0     C12206   0.307   7.663   0.750  0.2724 -0.1110  0.2708
   91MOL0     C12207   0.444   7.679   0.747 -1.0567  1.1628  0.8908
   91MOL0     C12208   0.533   7.600   0.823  0.6104  0.2413 -0.1562
   91MOL0     O12209   0.672   7.611   0.795  0.2230  0.6372  0.0755
   91MOL0     C12210   0.763   7.506   0.834  0.0653 -0.9616 -0.2015
   91MOL0     C12211   0.905   7.568   0.812 -0.5230 -0.2166  0.2844
   91MOL0     C12212   0.915   7.632   0.669 -0.7971 -0.3242 -0.2115
   91MOL0     C12213   1.063   7.649   0.633  0.1751 -0.3040  0.1114
   91MOL0     C12214   1.141   7.740   0.722  0.2507  0.4956 -0.0626
   91MOL0     C12215   1.193   7.827   0.780 -0.2500 -0.5315  0.2714
   91MOL0     C12216   0.477   7.499   0.906 -0.3191  0.4168 -0.0535
   91MOL0     C12217   0.337   7.484   0.915  0.1333 -0.6749  0.8239
   91MOL0     H12218  -0.082   7.801   0.792 -1.2351  1.5415  0.5058
   91MOL0     H12219  -0.321   7.836   0.842  1.9480  0.6340  0.2349
   91MOL0     H12220  -0.496   7.828   0.979  1.8645 -1.0057 -0.2753
   91MOL0     H12221  -0.573   7.807   0.823  1.6645 -0.7083 -0.6605
   91MOL0     H12222  -0.790   7.733   0.923 -0.2355 -0.6475  0.6187
   91MOL0     H12223  -0.706   7.682   1.067 -2.1304  2.4467  1.8226
   91MOL0     H12224  -0.835   7.883   1.100 -0.0011  1.3264  0.1526
   91MOL0     H12225  -0.655   7.911   1.120 -2.4642  2.7508  1.7543
   91MOL0     H12226  -0.680   8.007   0.885  0.2078 -0.7341  0.3778
   91MOL0     H12227  -0.846   7.961   0.877 -1.4413  1.0493  0.5166
   91MOL0     H12228  -0.891   8.107   1.084 -1.0283  1.6452  0.0654
   91MOL0     H12229  -0.719   8.160   1.058  1.0854  0.0326 -2.7869
   91MOL0     H12230  -0.756   8.259   0.867  3.2598 -2.9657  2.0995
   91MOL0     H12231  -0.925   8.210   0.846 -0.5119  0.6902  0.9956
   91MOL0     H12232  -0.965   8.340   1.069 -1.1502  0.1301 -1.4797
   91MOL0     H12233  -0.806   8.396   1.064  0.5094 -0.7246 -0.7330
   91MOL0     H12234  -0.876   8.489   0.825 -1.5140  2.2506 -0.8743
   91MOL0     H12235  -0.932   8.583   0.965 -0.1006  0.0533  0.5596
   91MOL0     H12236  -1.175   8.442   1.072  3.4076  0.6463 -0.3446
   91MOL0     H12237  -1.457   8.351   1.012  2.1162  1.0099  1.4666
   91MOL0     H12238  -1.487   8.519   0.981 -0.1392 -1.2117  0.2727
   91MOL0     H12239  -1.520   8.301   0.761  1.8826  0.8560 -1.0694
   91MOL0     H12240  -1.537   8.478   0.741  0.8092 -0.1942  0.0047
   91MOL0     H12241  -1.770   8.413   0.768 -2.5780  3.7993  1.3729
   91MOL0     H12242  -1.713   8.496   0.903 -0.2059 -0.8212  1.0547
   91MOL0     H12243  -1.696   8.301   1.040  2.2155 -0.3420 -1.5670
   91MOL0     H12244  -1.699   8.189   0.908  0.3517 -1.0095  1.1960
   91MOL0     H12245  -1.831   8.080   1.078 -0.0237  3.8498  0.9806
   91MOL0     H12246  -1.952   7.792   1.127  4.2633 -0.3961 -0.3357
   91MOL0     H12247  -1.875   7.918   1.243 -0.3051  0.6981 -1.7638
   91MOL0     H12248  -2.037   7.845   1.274  1.0334 -2.9492 -0.4831
   91MOL0     H12249  -2.292   7.808   1.437 -1.2386  1.0015  2.3671
   91MOL0     H12250  -2.429   7.627   1.528 -0.3958  0.0637  0.2805
   91MOL0     H12251  -2.816   7.473   1.381 -0.1561 -0.2543 -0.3115
   91MOL0     H12252  -2.719   7.452   1.227  2.4461 -0.6040 -0.0442
   91MOL0     H12253  -2.628   7.251   1.291  2.3147 -0.6460  3.6686
   91MOL0     H12254  -2.698   7.251   1.454  2.8616 -0.3826 -0.7513
   91MOL0     H12255  -2.851   7.246   1.181  1.2693  1.0871  0.2226
   91MOL0     H12256  -2.930   7.264   1.337 -1.4039 -1.2860 -0.0112
   91MOL0     H12257  -2.745   7.025   1.257 -2.0961 -3.7457 -0.0386
   91MOL0     H12258  -2.818   7.047   1.406  2.6584 -0.9830 -0.8163
   91MOL0     H12259  -3.035   7.069   1.220  0.1690 -0.2536 -1.0363
   91MOL0     H12260  -2.977   6.926   1.313 -1.1294  0.6611  0.0825
   91MOL0     H12261  -2.874   7.049   1.047 -2.0870  1.6980  1.8096
   91MOL0     H12262  -2.820   6.890   1.117  0.8413 -0.8757 -1.2750
   91MOL0     H12263  -3.095   6.940   1.012  1.2678  1.4811  0.4900
   91MOL0     H12264  -3.027   6.780   1.058  1.4564 -0.4919 -1.0698
   91MOL0     H12265  -2.961   6.969   0.830  0.4883  1.0618  3.2015
   91MOL0     H12266  -3.025   6.808   0.804  2.0934 -0.8660 -1.2406
   91MOL0     H12267  -2.693   7.666   1.189 -0.9449  0.0044  1.3033
   91MOL0     H12268  -2.569   7.864   1.117 -0.0979  0.6088  0.5497
   91MOL0     H12269  -2.309   8.167   1.029 -1.2583  0.8374  0.3152
   91MOL0     H12270  -2.143   8.334   0.969  4.4737  1.9077 -0.5369
   91MOL0     H12271  -0.393   7.405   0.829 -4.4592  2.9028  2.4597
   91MOL0     H12272  -0.145   7.383   0.761  1.7450  0.7728 -0.1594
   91MOL0     H12273   0.253   7.736   0.691 -0.1808 -0.8057 -0.1815
   91MOL0     H12274   0.482   7.756   0.681 -3.3514 -1.3118 -3.7985
   91MOL0     H12275   0.751   7.474   0.938 -3.7719 -2.1760 -0.8626
   91MOL0     H12276   0.745   7.416   0.774  3.8740 -2.1155  0.1373
   91MOL0     H12277   0.983   7.492   0.823 -0.1702 -0.3423 -2.4313
   91MOL0     H12278   0.926   7.646   0.885  2.8518 -0.6483 -0.0650
   91MOL0     H12279   0.861   7.727   0.660  1.8612  1.3714  0.5126
   91MOL0     H12280   0.869   7.568   0.592  1.2159  0.2372 -1.9805
   91MOL0     H12281   1.067   7.708   0.541  1.3662 -1.5150 -0.6410
   91MOL0     H12282   1.116   7.553   0.632 -1.7647 -1.5282  2.6681
   91MOL0     H12283   1.230   7.914   0.830 -2.6254 -0.5433  2.2757
   91MOL0     H12284   0.537   7.429   0.963 -2.1951  0.0697  1.5983
   91MOL0     H12285   0.306   7.426   1.002  2.3643  1.4675  3.1859
   92MOL0     O12286   5.789   0.624   7.458  0.5752  0.1263  0.6097
   92MOL0     C12287   5.842   0.548   7.535 -0.2266  0.4363  0.4071
   92MOL0     O12288   5.787   0.487   7.651  0.3670 -0.1111  0.1467
   92MOL0     C12289   5.662   0.426   7.645 -0.4776  0.2409  0.7015
   92MOL0     C12290   5.589   0.392   7.532  1.0738 -0.6895 -1.3043
   92MOL0     C12291   5.457   0.324   7.545 -0.4427  0.4555  0.0461
   92MOL0     C12292   5.408   0.294   7.669  0.7248 -0.1440  0.3799
   92MOL0     O12293   5.277   0.256   7.694 -0.1764  0.0878  0.3474
   92MOL0     C12294   5.181   0.262   7.589  0.2757  0.0758 -0.2723
   92MOL0     C12295   5.046   0.187   7.625 -0.0589 -0.4674 -0.3297
   92MOL0     C12296   4.960   0.195   7.507  0.2632 -0.6192  0.7966
   92MOL0     C12297   4.821   0.127   7.548 -0.2409 -0.3445  0.5842
   92MOL0     C12298   4.713   0.111   7.436  0.3175 -0.3059 -0.2926
   92MOL0     C12299   4.571   0.062   7.480  0.5351 -1.1619  0.1967
   92MOL0     C12300   4.468   0.066   7.369 -0.2690 -0.0050  0.0689
   92MOL0     C12301   4.487  -0.056   7.268  0.2338  0.0046  0.3301
   92MOL0     N12302   4.389  -0.055   7.156 -0.5086  0.2624  0.5109
   92MOL0     C12303   4.267  -0.003   7.157 -0.2530  0.4221 -0.2787
   92MOL0     C12304   4.203  -0.031   7.043  0.0122  0.8759  0.0891
   92MOL0     C12305   4.073   0.019   6.995 -0.1675  0.1746  0.1351
   92MOL0     C12306   3.967  -0.040   7.094 -0.4685  0.6443  0.4002
   92MOL0     C12307   3.828   0.031   7.080 -0.1565  0.6245 -0.1316
   92MOL0     C12308   3.777   0.025   6.938 -0.0610  0.1137 -0.6211
   92MOL0     O12309   3.743  -0.118   6.910  0.2028  0.0333  0.4012
   92MOL0     C12310   3.621  -0.168   6.941  0.0230  0.4256 -0.3926
   92MOL0     C12311   3.517  -0.100   7.003 -1.0130  0.2266 -0.6059
   92MOL0     C12312   3.390  -0.149   7.016 -0.1363  0.5847  0.8972
   92MOL0     C12313   3.282  -0.045   7.050 -0.0413 -0.1289  0.6334
   92MOL0     C12314   3.376  -0.283   6.974 -0.1897  0.3675 -0.4685
   92MOL0     C12315   3.237  -0.349   6.962 -0.6515 -0.6464  0.0279
   92MOL0     O12316   3.234  -0.474   6.924  0.4012 -0.7371  0.6332
   92MOL0     C12317   3.116  -0.537   6.919 -0.4390 -0.2092 -0.2878
   92MOL0     C12318   3.093  -0.617   7.033 -0.5850  0.4786  0.0912
   92MOL0     C12319   2.970  -0.688   7.029  0.3716 -0.1691  0.7333
   92MOL0     C12320   2.884  -0.689   6.916 -0.7634 -0.1669 -0.5910
   92MOL0     O12321   2.761  -0.747   6.927 -0.9821 -0.4688  0.5854
   92MOL0     C12322   2.680  -0.758   6.813  0.5953 -0.7427  0.2009
   92MOL0     C12323   2.580  -0.639   6.796 -0.0461  0.0938 -0.0626
   92MOL0     C12324   2.502  -0.654   6.664  0.5329  0.2036 -0.3519
   92MOL0     C12325   2.387  -0.767   6.675 -0.2057 -0.6287 -0.6375
   92MOL0     C12326   2.259  -0.757   6.599 -0.0842 -0.0492 -0.0627
   92MOL0     C12327   2.151  -0.851   6.674 -0.4236 -0.7809  0.3843
   92MOL0     C12328   2.004  -0.809   6.634 -0.0132  0.6093 -0.0539
   92MOL0     C12329   1.895  -0.886   6.714  1.0468 -0.0281 -0.5542
   92MOL0    Cl12330   1.887  -0.873   6.889 -0.0165 -0.0121  0.1391
   92MOL0     C12331   2.918  -0.601   6.812 -0.1851 -0.7674 -0.1169
   92MOL0     C12332   3.040  -0.537   6.800 -0.3532 -0.6122  0.4669
   92MOL0     O12333   3.136  -0.280   6.997 -0.6399 -0.1529 -0.1552
   92MOL0     C12334   3.478  -0.358   6.912 -0.2856 -0.7050  0.2771
   92MOL0     C12335   3.600  -0.299   6.902  0.4739 -0.2846 -0.7274
   92MOL0     N12336   4.289  -0.106   6.970 -0.5659 -0.1086 -0.3585
   92MOL0     N12337   4.401  -0.120   7.041  0.6660 -0.2137  0.4536
   92MOL0     C12338   5.476   0.331   7.781  0.0715  0.4359 -0.0058
   92MOL0     C12339   5.596   0.403   7.764 -0.0310 -0.0508 -0.1403
   92MOL0     C12340   5.988   0.539   7.523  0.3975  1.0460  0.6487
   92MOL0     C12341   6.061   0.619   7.441 -0.2033  0.3705 -0.7671
   92MOL0     C12342   6.197   0.622   7.449  0.0533 -1.1323 -0.1359
   92MOL0     C12343   6.269   0.532   7.527  0.4189  0.1284  0.1725
   92MOL0     O12344   6.405   0.528   7.531 -0.3247 -0.0050 -0.3044
   92MOL0     C12345   6.471   0.453   7.627 -0.2379  1.1002 -0.8977
   92MOL0     C12346   6.632   0.463   7.618  0.4856  1.1582  0.6728
   92MOL0     C12347   6.679   0.596   7.659  0.3599  0.5467  0.2102
   92MOL0     C12348   6.833   0.598   7.671  0.4634  0.6683  0.4889
   92MOL0     C12349   6.886   0.731   7.677 -0.3639 -0.5519  0.3933
   92MOL0     C12350   6.940   0.834   7.706  0.2824 -0.9243  0.0551
   92MOL0     C12351   6.190   0.431   7.595  0.3149  0.2950  0.7273
   92MOL0     C12352   6.052   0.433   7.597  0.0731 -0.3124 -0.1988
   92MOL0     H12353   5.635   0.424   7.439  2.7786  0.4639 -0.1160
   92MOL0     H12354   5.410   0.309   7.449 -0.0257  1.8589 -0.3955
   92MOL0     H12355   5.157   0.366   7.566 -0.9080 -0.4072 -1.3250
   92MOL0     H12356   5.227   0.220   7.499 -1.7614 -0.2893 -1.1808
   92MOL0     H12357   5.064   0.082   7.649  2.2006 -0.2308 -0.7219
   92MOL0     H12358   5.003   0.245   7.707 -1.7232 -0.0816 -1.4409
   92MOL0     H12359   4.946   0.300   7.480  1.3524 -0.7521 -0.3621
   92MOL0     H12360   5.006   0.157   7.416  3.3434  0.9522  1.5284
   92MOL0     H12361   4.840   0.027   7.589  1.5581  1.2370  4.0197
   92MOL0     H12362   4.776   0.186   7.629 -1.3476  1.0231 -0.9680
   92MOL0     H12363   4.712   0.202   7.375  0.1216 -2.1748 -3.2858
   92MOL0     H12364   4.740   0.027   7.372 -1.3057 -1.9016  1.0139
   92MOL0     H12365   4.572  -0.036   7.528 -0.4863 -2.2617 -1.9244
   92MOL0     H12366   4.529   0.131   7.554 -2.2107 -1.1724 -1.2533
   92MOL0     H12367   4.368   0.064   7.415  0.1225 -1.2211  0.9276
   92MOL0     H12368   4.474   0.163   7.318 -0.8095 -0.0439 -0.0721
   92MOL0     H12369   4.474  -0.145   7.332 -0.4534  1.8813  2.9909
   92MOL0     H12370   4.583  -0.055   7.216 -0.2781  3.2987 -0.7733
   92MOL0     H12371   4.228   0.036   7.250  1.6794 -0.5978  1.0287
   92MOL0     H12372   4.082   0.128   6.993 -0.5762  0.2006 -0.5062
   92MOL0     H12373   4.047  -0.023   6.898  1.2360 -3.2931  1.0978
   92MOL0     H12374   3.998  -0.031   7.198 -3.7526 -1.5593  1.7080
   92MOL0     H12375   3.973  -0.146   7.070  5.9778 -0.1833  3.4993
   92MOL0     H12376   3.822   0.137   7.108 -0.8260  0.1102  1.8170
   92MOL0     H12377   3.760  -0.021   7.148 -0.4326 -0.9502 -1.5437
   92MOL0     H12378   3.852   0.072   6.873 -0.3653  2.8104  0.8756
   92MOL0     H12379   3.684   0.080   6.927 -0.2155 -0.3544 -1.7825
   92MOL0     H12380   3.534  -0.000   7.042  0.4927 -0.9078  1.9537
   92MOL0     H12381   3.241  -0.076   7.147  4.6442 -3.9497  1.7545
   92MOL0     H12382   3.324   0.054   7.066 -0.2079 -0.4261  3.3719
   92MOL0     H12383   3.211  -0.017   6.971 -2.1734  2.0824  3.1269
   92MOL0     H12384   3.169  -0.615   7.110 -1.1188  1.3474  0.6073
   92MOL0     H12385   2.938  -0.737   7.121 -0.9162  0.4449  0.6354
   92MOL0     H12386   2.739  -0.773   6.722  0.1103  2.4578 -0.7626
   92MOL0     H12387   2.615  -0.845   6.831 -1.0852 -0.2037 -2.6287
   92MOL0     H12388   2.519  -0.623   6.886  1.9418 -2.2097  1.8305
   92MOL0     H12389   2.631  -0.543   6.784  1.3347 -0.2237  2.5990
   92MOL0     H12390   2.571  -0.672   6.581 -1.4119  1.3922 -2.3456
   92MOL0     H12391   2.461  -0.554   6.651 -1.0684 -0.1168  1.6922
   92MOL0     H12392   2.437  -0.861   6.652  0.0722 -0.3535 -1.1786
   92MOL0     H12393   2.364  -0.781   6.781 -1.0688 -4.5215 -1.1937
   92MOL0     H12394   2.266  -0.778   6.492 -2.7790  2.7113 -0.9187
   92MOL0     H12395   2.224  -0.653   6.602  0.8130  0.3001 -1.1396
   92MOL0     H12396   2.168  -0.954   6.643 -0.6368 -0.2492 -1.6878
   92MOL0     H12397   2.165  -0.852   6.782  1.8600 -0.6024  0.1320
   92MOL0     H12398   1.984  -0.831   6.528 -0.4571 -0.5907  0.2624
   92MOL0     H12399   2.007  -0.700   6.642  2.8182  0.9512 -3.4756
   92MOL0     H12400   1.895  -0.991   6.685 -1.4720 -0.1874 -0.1544
   92MOL0     H12401   1.797  -0.855   6.678 -0.1372 -1.4508  1.2956
   92MOL0     H12402   2.857  -0.587   6.724  0.9186  1.6267 -0.6139
   92MOL0     H12403   3.063  -0.485   6.708  2.2196  0.7291  1.7727
   92MOL0     H12404   3.456  -0.456   6.872 -3.3433 -0.5593  1.3590
   92MOL0     H12405   3.679  -0.349   6.846  0.2263 -0.0401 -1.3010
   92MOL0     H12406   5.418   0.323   7.872 -1.4900 -1.0910 -1.0542
   92MOL0     H12407   5.628   0.445   7.859  2.9837 -1.6279 -0.3595
   92MOL0     H12408   6.018   0.697   7.378  1.1571 -1.3245 -4.0237
   92MOL0     H12409   6.250   0.703   7.399  0.3602 -1.6516 -0.6724
   92MOL0     H12410   6.435   0.479   7.727  0.3788 -1.4002  0.0531
   92MOL0     H12411   6.453   0.346   7.611 -1.5890  1.5976 -3.1522
   92MOL0     H12412   6.664   0.458   7.513 -0.7463  0.3290  0.3166
   92MOL0     H12413   6.670   0.380   7.677 -1.7183 -1.8115 -1.7649
   92MOL0     H12414   6.639   0.630   7.756  1.6100 -2.3357  1.8484
   92MOL0     H12415   6.663   0.670   7.580  0.0874  0.0024 -0.2405
   92MOL0     H12416   6.874   0.544   7.585  0.7968  0.1425  0.9733
   92MOL0     H12417   6.859   0.535   7.756 -1.3322  0.2861  0.7846
   92MOL0     H12418   6.991   0.928   7.714 -0.3509 -0.7056  2.1190
   92MOL0     H12419   6.240   0.355   7.655 -1.0233 -3.3963 -2.4332
   92MOL0     H12420   5.996   0.361   7.655  0.2401 -0.4528 -0.2127
   93MOL0     O12421  10.278   1.325  10.692  0.6513  0.1176  0.3885
   93MOL0     C12422  10.308   1.206  10.663 -0.2889 -0.6326 -0.1300
   93MOL0     O12423  10.217   1.107  10.646  0.1235 -0.4130 -0.2662
   93MOL0     C12424  10.080   1.116  10.669  1.0795  0.0013  0.2939
   93MOL0     C12425  10.004   1.217  10.734  0.4131 -0.5403  0.1276
   93MOL0     C12426   9.869   1.203  10.748  0.1053  0.8468  0.0917
   93MOL0     C12427   9.796   1.108  10.672 -1.0045 -0.4354 -1.0562
   93MOL0     O12428   9.657   1.088  10.663  0.6807  0.2068  0.9945
   93MOL0     C12429   9.590   1.153  10.772  0.5574 -0.2036 -1.2033
   93MOL0     C12430   9.432   1.154  10.735 -0.2297 -0.5533 -0.8471
   93MOL0     C12431   9.355   1.208  10.865  0.1186 -0.3855 -0.2211
   93MOL0     C12432   9.260   1.104  10.924 -0.1727 -0.6027 -0.5569
   93MOL0     C12433   9.166   1.167  11.021 -0.7326  0.6431  0.7728
   93MOL0     C12434   9.058   1.081  11.090 -0.7076  0.3771  0.4314
   93MOL0     C12435   8.973   1.155  11.192  0.5402  1.5683  0.2235
   93MOL0     C12436   8.848   1.070  11.226  0.2721 -0.1537  0.6013
   93MOL0     N12437   8.762   1.155  11.308 -0.0153  0.2401  0.3190
   93MOL0     C12438   8.651   1.230  11.264 -0.3327 -0.0038  0.1387
   93MOL0     C12439   8.583   1.266  11.383  0.1184 -0.3900 -0.2068
   93MOL0     C12440   8.449   1.328  11.395  0.4966  0.8202  0.6365
   93MOL0     C12441   8.335   1.230  11.442  0.3267  0.2702 -0.3569
   93MOL0     C12442   8.331   1.105  11.353  0.2054 -0.9699  0.5195
   93MOL0     C12443   8.395   0.992  11.430  0.9840 -0.5431  0.4353
   93MOL0     O12444   8.334   0.878  11.378 -0.0472  0.3164 -0.2736
   93MOL0     C12445   8.211   0.835  11.419 -0.0485  0.2768 -0.3209
   93MOL0     C12446   8.164   0.713  11.363  0.5803  0.5209  0.2062
   93MOL0     C12447   8.052   0.650  11.412 -0.3763  0.2088 -0.0210
   93MOL0     C12448   8.008   0.512  11.361  0.1285  0.4831 -0.3477
   93MOL0     C12449   7.969   0.724  11.496  0.5760  0.6572  0.2392
   93MOL0     C12450   7.836   0.669  11.532 -0.4352 -0.3699 -0.0309
   93MOL0     O12451   7.727   0.742  11.517 -0.6739  0.4098 -0.3270
   93MOL0     C12452   7.610   0.684  11.558  0.8726  0.8821  0.4248
   93MOL0     C12453   7.514   0.770  11.617 -0.2740 -0.5995  0.6962
   93MOL0     C12454   7.383   0.740  11.648  0.3356 -1.2394  0.0399
   93MOL0     C12455   7.322   0.613  11.613  0.5847 -0.2726 -0.4696
   93MOL0     O12456   7.195   0.564  11.618 -0.5422  0.0220 -0.6235
   93MOL0     C12457   7.099   0.629  11.699 -0.3600 -0.2785 -0.7500
   93MOL0     C12458   6.966   0.566  11.680  0.1137 -0.2960  1.2849
   93MOL0     C12459   6.926   0.571  11.535 -0.0389 -0.6383  0.6645
   93MOL0     C12460   6.787   0.502  11.522 -0.1659  0.7440  0.2046
   93MOL0     C12461   6.742   0.509  11.372  0.0079 -0.1104 -0.1981
   93MOL0     C12462   6.635   0.402  11.335 -0.0920  0.7114  0.1457
   93MOL0     C12463   6.496   0.447  11.393  0.0095 -0.2902 -0.3522
   93MOL0     C12464   6.384   0.339  11.371  0.0349  0.5620 -0.2134
   93MOL0    Cl12465   6.217   0.404  11.357  0.3360  0.3791  0.0470
   93MOL0     C12466   7.420   0.524  11.562 -1.3380  0.7083 -0.6306
   93MOL0     C12467   7.558   0.557  11.532  0.2512  0.1101 -0.4620
   93MOL0     O12468   7.843   0.561  11.585  0.3520  0.2835  0.0634
   93MOL0     C12469   8.005   0.847  11.544  0.0355  0.0921  0.5408
   93MOL0     C12470   8.121   0.905  11.508  0.2205 -0.5313  0.0673
   93MOL0     N12471   8.665   1.247  11.487  0.2935 -0.1881  0.1934
   93MOL0     N12472   8.760   1.164  11.445 -0.1447 -0.2881  0.5752
   93MOL0     C12473   9.873   1.008  10.607  0.3088 -0.3380 -0.0584
   93MOL0     C12474  10.011   1.013  10.604 -0.7467 -0.6295 -0.3620
   93MOL0     C12475  10.449   1.174  10.642 -0.2080 -0.7926  0.1181
   93MOL0     C12476  10.546   1.270  10.631  0.0821 -0.8119  0.2664
   93MOL0     C12477  10.682   1.244  10.604 -1.0061  0.3799 -0.1210
   93MOL0     C12478  10.723   1.106  10.605 -0.2890 -0.8573  0.5152
   93MOL0     O12479  10.849   1.056  10.580  0.1206 -0.4794 -0.3711
   93MOL0     C12480  10.954   1.150  10.544  0.5074  0.1970 -0.0529
   93MOL0     C12481  11.021   1.089  10.425  0.4055 -0.0597  0.1710
   93MOL0     C12482  11.145   1.177  10.384  0.6297  0.4251 -0.5533
   93MOL0     C12483  11.238   1.100  10.285 -0.2528 -0.0355  1.1452
   93MOL0     C12484  11.345   1.180  10.230 -0.0341 -0.3260  0.1347
   93MOL0     C12485  11.444   1.241  10.188 -0.4607 -0.1679  0.4888
   93MOL0     C12486  10.626   1.005  10.619  0.4213 -0.7188  0.5672
   93MOL0     C12487  10.490   1.038  10.627  0.2079 -0.9101  0.1141
   93MOL0     H12488  10.066   1.288  10.788 -2.4351  0.5105  2.3020
   93MOL0     H12489   9.813   1.269  10.813 -0.2866 -0.1561  0.7966
   93MOL0     H12490   9.608   1.107  10.869 -1.5160 -1.8391 -1.5093
   93MOL0     H12491   9.615   1.259  10.771  0.5384 -0.0994  1.7033
   93MOL0     H12492   9.412   1.214  10.646 -0.2846  0.0835 -0.4131
   93MOL0     H12493   9.403   1.052  10.710 -0.6455  0.0130 -2.8156
   93MOL0     H12494   9.436   1.226  10.937  0.9665  0.6369 -1.3844
   93MOL0     H12495   9.311   1.306  10.849 -0.7667 -0.7348 -0.0029
   93MOL0     H12496   9.201   1.058  10.844  0.0041 -1.2293 -0.3297
   93MOL0     H12497   9.314   1.025  10.977 -2.5901 -1.4551  0.8004
   93MOL0     H12498   9.219   1.205  11.109  1.7847  0.5427 -0.6211
   93MOL0     H12499   9.118   1.245  10.963  1.7365  0.8936 -1.0983
   93MOL0     H12500   8.998   1.032  11.012  1.9685 -2.5441  0.0048
   93MOL0     H12501   9.114   1.002  11.142  1.1876  3.3701  3.3726
   93MOL0     H12502   9.030   1.186  11.281 -2.0290  4.8942  0.9070
   93MOL0     H12503   8.936   1.250  11.152 -0.0911  1.0541 -0.4254
   93MOL0     H12504   8.881   0.985  11.285  1.0303 -0.6329 -0.4765
   93MOL0     H12505   8.787   1.042  11.139 -0.2562  0.8656  0.6213
   93MOL0     H12506   8.611   1.239  11.164  2.8474 -0.6572 -1.3081
   93MOL0     H12507   8.455   1.410  11.466  3.5294  0.7604  0.5680
   93MOL0     H12508   8.431   1.373  11.297  4.4298  1.8242  0.2465
   93MOL0     H12509   8.241   1.285  11.436  0.6411  0.8363 -0.1933
   93MOL0     H12510   8.345   1.204  11.547  4.0636 -0.9640 -0.8684
   93MOL0     H12511   8.374   1.119  11.254 -1.6798 -3.2940 -0.7354
   93MOL0     H12512   8.225   1.092  11.331  0.0926 -0.3618  0.6763
   93MOL0     H12513   8.363   1.005  11.534 -2.1157  5.1691 -0.8249
   93MOL0     H12514   8.504   0.999  11.441  0.9085  2.9970  0.0181
   93MOL0     H12515   8.225   0.663  11.289 -1.1530  1.1772 -1.7555
   93MOL0     H12516   7.903   0.512  11.331 -1.0362 -3.3113  2.8508
   93MOL0     H12517   8.076   0.487  11.279  1.6725  0.2975  0.9520
   93MOL0     H12518   8.009   0.448  11.449 -2.3631  3.3050  1.9651
   93MOL0     H12519   7.551   0.870  11.636 -2.1793  0.7078 -1.7589
   93MOL0     H12520   7.311   0.813  11.686  1.1095 -1.1196  1.3267
   93MOL0     H12521   7.136   0.632  11.802  4.5931  5.4248 -2.1401
   93MOL0     H12522   7.090   0.737  11.683  0.2007 -0.4902 -2.6954
   93MOL0     H12523   6.990   0.466  11.716  2.0664  0.3765  1.9736
   93MOL0     H12524   6.884   0.607  11.740 -1.1056  0.1540 -0.6106
   93MOL0     H12525   6.995   0.522  11.467  2.0347 -0.8113  2.7844
   93MOL0     H12526   6.914   0.678  11.516 -0.5713 -0.6612  0.8385
   93MOL0     H12527   6.791   0.397  11.553  1.2823 -0.3853 -3.3222
   93MOL0     H12528   6.716   0.560  11.582 -0.0083 -1.4615  2.7049
   93MOL0     H12529   6.827   0.504  11.304  2.1126  0.5323  2.2390
   93MOL0     H12530   6.694   0.606  11.352  1.4597  0.3094 -1.8155
   93MOL0     H12531   6.630   0.375  11.229 -1.3133 -1.8107  0.7682
   93MOL0     H12532   6.653   0.309  11.390 -0.3674  0.4400 -0.2221
   93MOL0     H12533   6.467   0.541  11.345  0.8175 -0.4505 -1.1916
   93MOL0     H12534   6.504   0.469  11.500  1.2546  0.3308 -0.5566
   93MOL0     H12535   6.394   0.267  11.453 -0.1946  0.3931 -0.3298
   93MOL0     H12536   6.403   0.272  11.287 -0.5069  1.2300 -0.8788
   93MOL0     H12537   7.378   0.425  11.551  0.2149 -0.1394  0.7643
   93MOL0     H12538   7.626   0.477  11.504  1.1528 -0.4529  2.9231
   93MOL0     H12539   7.938   0.899  11.612 -0.8141  3.8688 -2.8116
   93MOL0     H12540   8.143   1.004  11.547 -0.8550  0.6227 -2.0348
   93MOL0     H12541   9.828   0.914  10.575  1.8656 -0.6580 -1.4642
   93MOL0     H12542  10.069   0.942  10.546  2.3652 -0.0924  1.8337
   93MOL0     H12543  10.515   1.373  10.647  0.0376 -1.0010  1.4728
   93MOL0     H12544  10.755   1.324  10.605 -1.0863  0.5439 -2.5908
   93MOL0     H12545  10.908   1.246  10.518  0.8244  0.6042  0.8583
   93MOL0     H12546  11.032   1.173  10.617 -0.8052  1.9749  0.8682
   93MOL0     H12547  10.952   1.094  10.341  1.0525  2.4500 -0.2748
   93MOL0     H12548  11.046   0.984  10.441  1.4350  0.1682  0.1316
   93MOL0     H12549  11.207   1.207  10.469  0.5681  2.5434 -1.1900
   93MOL0     H12550  11.100   1.267  10.340 -1.3162 -0.5954 -0.7657
   93MOL0     H12551  11.171   1.068  10.206 -2.2757  0.4106  2.6089
   93MOL0     H12552  11.288   1.011  10.324  1.9817 -0.1812 -1.6988
   93MOL0     H12553  11.526   1.299  10.152  0.0830 -0.9198  0.4823
   93MOL0     H12554  10.647   0.899  10.620  0.3762 -0.7735 -0.9533
   93MOL0     H12555  10.418   0.958  10.639  0.8165 -1.6420 -0.9464
   94MOL0     O12556   0.582   6.481   6.466  0.3549 -0.1045  0.1770
   94MOL0     C12557   0.531   6.582   6.413  1.1532 -0.6435  0.8812
   94MOL0     O12558   0.603   6.703   6.398  0.0777  0.7269  0.4500
   94MOL0     C12559   0.732   6.731   6.457  0.4545  0.6693  0.1633
   94MOL0     C12560   0.841   6.632   6.460  0.6979  0.0946  0.0315
   94MOL0     C12561   0.952   6.668   6.531 -0.1330 -0.0772  0.0467
   94MOL0     C12562   0.967   6.797   6.596  0.5181 -0.6408 -0.1866
   94MOL0     O12563   1.075   6.840   6.662 -0.2628 -0.1474  0.1139
   94MOL0     C12564   1.094   6.777   6.787  0.4011 -0.1602  0.1716
   94MOL0     C12565   1.165   6.871   6.892  0.2797  0.1860  0.5294
   94MOL0     C12566   1.203   6.813   7.040  0.5926  0.7541  0.2598
   94MOL0     C12567   1.301   6.903   7.123 -0.3278 -0.2627 -0.2266
   94MOL0     C12568   1.434   6.910   7.062 -0.0193  0.0056 -0.5657
   94MOL0     C12569   1.542   6.956   7.166  0.0202 -0.8637 -0.4906
   94MOL0     C12570   1.537   7.098   7.220 -0.6653  0.8324  0.4931
   94MOL0     C12571   1.659   7.153   7.292 -0.1223  0.9388  0.5332
   94MOL0     N12572   1.689   7.065   7.412 -0.1440 -1.1615  0.0260
   94MOL0     C12573   1.661   7.108   7.536  0.2443  0.0109 -0.0219
   94MOL0     C12574   1.733   7.034   7.621 -0.4099  0.4239 -0.3429
   94MOL0     C12575   1.746   7.038   7.779 -0.8453  0.1859 -0.3551
   94MOL0     C12576   1.604   7.050   7.830 -0.6027  0.4256 -0.1018
   94MOL0     C12577   1.516   6.929   7.791  0.0464 -0.6919 -0.3295
   94MOL0     C12578   1.373   6.971   7.762 -0.3210 -0.2178  0.1856
   94MOL0     O12579   1.365   7.053   7.646 -0.6173  0.3223  0.3488
   94MOL0     C12580   1.243   7.096   7.609  0.2383 -0.8339  0.4617
   94MOL0     C12581   1.121   7.055   7.666  1.1485  0.0670 -0.2554
   94MOL0     C12582   1.003   7.121   7.651 -0.4874 -0.7719  0.5176
   94MOL0     C12583   0.882   7.090   7.735  0.3305  0.7301  0.0737
   94MOL0     C12584   1.003   7.229   7.556 -0.1271 -0.6784  0.1285
   94MOL0     C12585   0.875   7.303   7.523  0.2710 -0.3088  0.9092
   94MOL0     O12586   0.872   7.355   7.395  0.0031  0.5772  0.1469
   94MOL0     C12587   0.758   7.408   7.342  0.0636 -0.2598  0.6582
   94MOL0     C12588   0.676   7.319   7.261 -0.2369 -0.5069 -0.3986
   94MOL0     C12589   0.551   7.360   7.207 -0.9558 -0.8926  0.8982
   94MOL0     C12590   0.512   7.488   7.225 -0.7509  0.1243 -0.4995
   94MOL0     O12591   0.396   7.520   7.167  0.6896 -0.3026 -0.5581
   94MOL0     C12592   0.325   7.644   7.197  0.5953 -0.3409  0.2626
   94MOL0     C12593   0.200   7.649   7.104  0.3472 -0.9024 -0.0253
   94MOL0     C12594   0.097   7.734   7.171 -0.1102 -0.3513  0.0545
   94MOL0     C12595  -0.031   7.711   7.086  1.9025  0.3509  0.0469
   94MOL0     C12596  -0.151   7.811   7.111 -0.1612 -0.7288 -0.5039
   94MOL0     C12597  -0.286   7.764   7.056  0.2858 -1.0000 -0.1811
   94MOL0     C12598  -0.401   7.870   7.071  0.0056 -0.3003 -0.0621
   94MOL0     C12599  -0.534   7.789   7.047  0.7534 -0.7947  0.6508
   94MOL0    Cl12600  -0.537   7.714   6.882 -0.0594 -0.0168  0.0795
   94MOL0     C12601   0.596   7.578   7.293 -0.0055 -0.3541  0.1332
   94MOL0     C12602   0.717   7.539   7.352 -0.9202  0.7115 -0.6269
   94MOL0     O12603   0.785   7.319   7.596 -0.5614  0.4989 -0.1893
   94MOL0     C12604   1.115   7.250   7.474 -0.8152 -0.2730 -0.5594
   94MOL0     C12605   1.232   7.199   7.513 -0.1885  0.2670 -0.0588
   94MOL0     N12606   1.818   6.951   7.548  0.0291  0.2970  1.2310
   94MOL0     N12607   1.791   6.974   7.425  0.3455  0.1504  0.5597
   94MOL0     C12608   0.858   6.884   6.592  0.8738 -0.2982  0.9990
   94MOL0     C12609   0.744   6.854   6.519 -0.1979 -1.1034 -0.6959
   94MOL0     C12610   0.397   6.563   6.354 -0.6650  0.6261  0.7367
   94MOL0     C12611   0.327   6.435   6.356 -0.3322 -1.0652 -0.4638
   94MOL0     C12612   0.202   6.413   6.296 -0.3411  0.0740  0.1067
   94MOL0     C12613   0.130   6.525   6.249 -0.8600 -0.4918 -0.1853
   94MOL0     O12614   0.011   6.549   6.201 -0.7761  0.8525  0.4241
   94MOL0     C12615  -0.094   6.449   6.178 -1.4563  0.5968 -0.4279
   94MOL0     C12616  -0.151   6.400   6.313  1.0087 -0.0182 -0.2277
   94MOL0     C12617  -0.240   6.512   6.379 -0.2995 -1.0323 -0.4898
   94MOL0     C12618  -0.274   6.510   6.528 -0.0527  0.3043  0.0190
   94MOL0     C12619  -0.158   6.500   6.620 -0.4425 -0.1795  0.2539
   94MOL0     C12620  -0.066   6.492   6.701 -0.5819 -0.3154  0.7853
   94MOL0     C12621   0.196   6.652   6.262  0.1116  1.2533  0.2601
   94MOL0     C12622   0.322   6.675   6.309  0.6339 -0.0557 -0.1317
   94MOL0     H12623   0.822   6.531   6.426 -2.2789  0.1979  1.0655
   94MOL0     H12624   1.039   6.606   6.553  1.0409 -0.1818 -4.0866
   94MOL0     H12625   1.002   6.749   6.840  0.8380 -2.8769 -0.3856
   94MOL0     H12626   1.160   6.690   6.785  0.0492 -0.4390  0.4639
   94MOL0     H12627   1.256   6.904   6.842 -0.2590 -0.7973 -1.1948
   94MOL0     H12628   1.094   6.950   6.921 -3.5511 -3.8048  3.4064
   94MOL0     H12629   1.111   6.819   7.098 -0.2375  2.8428 -1.1155
   94MOL0     H12630   1.247   6.715   7.022 -1.2556  0.0708 -0.8869
   94MOL0     H12631   1.253   7.001   7.130 -1.2268 -0.7262  0.3609
   94MOL0     H12632   1.326   6.872   7.225  4.2459  2.3435 -0.3210
   94MOL0     H12633   1.456   6.808   7.027  1.1941 -0.3113  0.9993
   94MOL0     H12634   1.428   6.981   6.979  2.3558  1.1944  0.1775
   94MOL0     H12635   1.529   6.883   7.247 -0.2609 -0.6707 -0.3623
   94MOL0     H12636   1.641   6.944   7.122 -0.0500  0.6416 -1.0977
   94MOL0     H12637   1.497   7.174   7.152 -3.1735  1.0974  2.1504
   94MOL0     H12638   1.465   7.102   7.302  1.7790  1.4235  2.7315
   94MOL0     H12639   1.644   7.257   7.321  1.6542  0.7737  2.2805
   94MOL0     H12640   1.746   7.153   7.226 -0.9064 -1.1977 -0.5813
   94MOL0     H12641   1.590   7.184   7.565 -0.3391 -0.7343  0.5191
   94MOL0     H12642   1.795   6.945   7.807  1.2196  0.8921 -1.4490
   94MOL0     H12643   1.805   7.125   7.809  0.2951 -0.2074 -1.3662
   94MOL0     H12644   1.554   7.134   7.783  1.5103  3.1589  2.1387
   94MOL0     H12645   1.599   7.066   7.938 -1.2343 -3.1968  0.5411
   94MOL0     H12646   1.525   6.852   7.868  3.8821  0.3002  0.4246
   94MOL0     H12647   1.542   6.876   7.699 -3.3564 -2.3161 -0.4903
   94MOL0     H12648   1.341   7.022   7.853  2.6466  2.5588 -0.1324
   94MOL0     H12649   1.317   6.877   7.754 -0.9509 -0.0164  1.9498
   94MOL0     H12650   1.123   6.972   7.736  3.9433  0.4350  0.2212
   94MOL0     H12651   0.898   6.994   7.784  2.2899 -0.6669 -2.9942
   94MOL0     H12652   0.875   7.165   7.815 -0.8019  1.1829 -0.4192
   94MOL0     H12653   0.790   7.096   7.675  0.8955  2.9437 -0.6889
   94MOL0     H12654   0.714   7.218   7.249 -0.6790 -0.3266 -4.7578
   94MOL0     H12655   0.479   7.297   7.156 -2.2774  0.7852  0.5549
   94MOL0     H12656   0.298   7.654   7.302  0.1833  2.3174 -0.0383
   94MOL0     H12657   0.390   7.728   7.171  1.0698 -1.7535 -3.8665
   94MOL0     H12658   0.229   7.709   7.018 -1.8845 -0.0642 -0.2831
   94MOL0     H12659   0.154   7.552   7.081 -1.1442 -0.5882  1.3868
   94MOL0     H12660   0.129   7.838   7.184 -3.0276  0.4435  1.6848
   94MOL0     H12661   0.070   7.695   7.269 -1.4552 -1.2302 -0.6304
   94MOL0     H12662  -0.012   7.707   6.978 -1.6396  1.3213 -0.7678
   94MOL0     H12663  -0.076   7.613   7.105  1.1458  0.0637 -2.7166
   94MOL0     H12664  -0.140   7.910   7.067 -3.5139  0.1220  0.3068
   94MOL0     H12665  -0.172   7.820   7.218  0.6729 -0.5788 -0.3462
   94MOL0     H12666  -0.277   7.729   6.953  1.9828 -0.7767 -0.1436
   94MOL0     H12667  -0.320   7.682   7.121 -1.6207 -0.2549 -0.1800
   94MOL0     H12668  -0.387   7.940   6.988 -3.6316 -2.4952 -2.8855
   94MOL0     H12669  -0.398   7.923   7.166  1.3948  1.2113 -0.8988
   94MOL0     H12670  -0.618   7.858   7.054  1.2794 -0.2501  2.1432
   94MOL0     H12671  -0.546   7.708   7.120 -0.2823 -1.8430 -0.6348
   94MOL0     H12672   0.560   7.680   7.293  2.2918  0.5247  1.5662
   94MOL0     H12673   0.774   7.611   7.410 -0.0708 -1.1974  1.0204
   94MOL0     H12674   1.110   7.306   7.381  1.5845  1.1137  0.0739
   94MOL0     H12675   1.320   7.231   7.457  1.1681 -1.1552  1.1412
   94MOL0     H12676   0.869   6.976   6.648 -1.2868  1.7933 -1.7271
   94MOL0     H12677   0.668   6.931   6.526  0.3513 -0.5963 -0.1726
   94MOL0     H12678   0.385   6.352   6.396  0.3897  0.2845  1.4516
   94MOL0     H12679   0.158   6.314   6.292  0.2949 -0.3557  2.3408
   94MOL0     H12680  -0.176   6.483   6.114 -2.2962  0.5325  0.5744
   94MOL0     H12681  -0.045   6.370   6.120  0.6457  1.6723 -0.2066
   94MOL0     H12682  -0.070   6.356   6.371  1.8031  2.6254  0.8286
   94MOL0     H12683  -0.223   6.320   6.290 -1.8529  3.0483 -3.0791
   94MOL0     H12684  -0.340   6.526   6.336 -1.2560 -0.5095  1.7493
   94MOL0     H12685  -0.191   6.609   6.374 -3.0733  0.5512  0.5645
   94MOL0     H12686  -0.340   6.424   6.538  1.0642 -1.1258 -3.5903
   94MOL0     H12687  -0.325   6.598   6.569  1.3702  2.6198 -2.8461
   94MOL0     H12688   0.015   6.491   6.771  1.5067  0.3715 -1.5043
   94MOL0     H12689   0.140   6.739   6.230 -1.3883  0.4091  0.5389
   94MOL0     H12690   0.349   6.780   6.302  1.0573 -0.2636 -2.5693
   95MOL0     O12691   9.764   1.165   5.839 -0.1712  0.1911 -0.2085
   95MOL0     C12692   9.706   1.059   5.840 -0.3144  0.1956 -0.0956
   95MOL0     O12693   9.592   1.033   5.908 -0.0034  0.6522  0.1797
   95MOL0     C12694   9.501   1.128   5.935 -0.5468 -0.6804  0.4074
   95MOL0     C12695   9.512   1.228   6.027 -0.0114 -0.1445  0.7652
   95MOL0     C12696   9.410   1.314   6.040  0.8872  0.1315  0.4231
   95MOL0     C12697   9.296   1.319   5.962  0.0725  0.4517 -0.2403
   95MOL0     O12698   9.200   1.412   5.978  0.6230  0.1590 -0.0515
   95MOL0     C12699   9.109   1.395   6.097  0.1855  0.4922 -1.3084
   95MOL0     C12700   9.002   1.495   6.098 -0.4087 -0.5834  0.9555
   95MOL0     C12701   8.881   1.445   6.159  0.3871 -0.1516 -0.0229
   95MOL0     C12702   8.775   1.564   6.152 -0.0932 -0.5058  0.3714
   95MOL0     C12703   8.656   1.517   6.237 -0.3201 -0.0174  0.4981
   95MOL0     C12704   8.559   1.629   6.256  0.7111 -0.4014 -0.2727
   95MOL0     C12705   8.423   1.598   6.330  0.2003 -0.2975  0.4175
   95MOL0     C12706   8.452   1.585   6.482 -1.4133  0.3678  0.6264
   95MOL0     N12707   8.334   1.626   6.558 -0.8499  0.2239  0.4825
   95MOL0     C12708   8.215   1.561   6.537 -0.1332  0.8337  0.6818
   95MOL0     C12709   8.117   1.649   6.553  0.0189 -0.2027 -1.3278
   95MOL0     C12710   7.972   1.641   6.533 -0.8345  0.1779  0.4388
   95MOL0     C12711   7.921   1.498   6.513 -1.0391  0.2027 -0.5353
   95MOL0     C12712   7.771   1.508   6.476 -1.1019 -0.2043 -1.1276
   95MOL0     C12713   7.691   1.380   6.444  0.1056 -0.2266 -0.2607
   95MOL0     O12714   7.756   1.326   6.324  0.5781 -0.2522 -0.0694
   95MOL0     C12715   7.697   1.211   6.275  0.5630 -0.7017  0.5904
   95MOL0     C12716   7.748   1.158   6.150  0.4945  0.0917 -0.1681
   95MOL0     C12717   7.700   1.042   6.092  0.3318  0.2363  0.6161
   95MOL0     C12718   7.764   0.990   5.970  0.1974  0.4864  0.5445
   95MOL0     C12719   7.581   0.982   6.149  0.4522 -0.6221 -0.1121
   95MOL0     C12720   7.535   0.839   6.120 -0.2100  0.8543  0.2864
   95MOL0     O12721   7.603   0.767   6.023 -0.0136 -0.2165 -0.1949
   95MOL0     C12722   7.574   0.638   6.008  0.3005  0.3657  0.8150
   95MOL0     C12723   7.475   0.597   5.915  0.1234  0.1346  0.6106
   95MOL0     C12724   7.442   0.459   5.895 -0.0501 -0.4573 -0.3488
   95MOL0     C12725   7.508   0.360   5.972 -1.0224  0.2768  0.0530
   95MOL0     O12726   7.469   0.229   5.941 -0.5011  0.1194 -1.3063
   95MOL0     C12727   7.509   0.118   6.030  0.0209 -1.2165  0.7668
   95MOL0     C12728   7.428  -0.011   5.995 -0.1054  0.1336 -0.1864
   95MOL0     C12729   7.288   0.001   6.047  0.4389  0.0792 -0.4424
   95MOL0     C12730   7.191  -0.095   5.974  0.0469 -0.0232  0.0774
   95MOL0     C12731   7.048  -0.099   6.022 -0.2870  1.0502  0.8194
   95MOL0     C12732   6.951  -0.178   5.920 -0.2462 -0.1820  0.0254
   95MOL0     C12733   6.806  -0.159   5.962  0.5055 -0.9183  0.1657
   95MOL0     C12734   6.719  -0.257   5.891  0.2864  0.1638 -0.6519
   95MOL0    Cl12735   6.678  -0.211   5.723  0.0610  0.2804  0.4927
   95MOL0     C12736   7.595   0.402   6.072 -0.8727  0.3361 -0.6910
   95MOL0     C12737   7.632   0.537   6.082 -0.0398  0.1834  0.2390
   95MOL0     O12738   7.446   0.788   6.191  0.6269  0.2107  0.8026
   95MOL0     C12739   7.518   1.052   6.258 -0.4199  0.3510 -0.3395
   95MOL0     C12740   7.576   1.157   6.328  0.0666  0.6133  0.0549
   95MOL0     N12741   8.172   1.768   6.610 -0.3437  0.3029  0.5493
   95MOL0     N12742   8.309   1.755   6.610  0.6660  0.2217 -0.5078
   95MOL0     C12743   9.285   1.219   5.871 -0.3394 -0.1759 -0.4817
   95MOL0     C12744   9.380   1.116   5.862 -0.2897  0.5987  0.0170
   95MOL0     C12745   9.772   0.949   5.771  1.2465 -0.3272 -0.5755
   95MOL0     C12746   9.740   0.819   5.797  0.4462 -0.1405  0.1641
   95MOL0     C12747   9.801   0.704   5.731  0.2997 -0.1346  0.1644
   95MOL0     C12748   9.908   0.722   5.651  0.3066  0.5793  0.1548
   95MOL0     O12749   9.968   0.608   5.598 -0.2840  0.3578  0.4939
   95MOL0     C12750  10.094   0.609   5.536 -0.2104  0.3047 -0.2317
   95MOL0     C12751  10.114   0.464   5.479 -0.0678 -0.1085  1.0497
   95MOL0     C12752  10.255   0.446   5.434  0.2388 -0.4597 -0.3565
   95MOL0     C12753  10.291   0.522   5.313 -0.9688  0.9581  0.3645
   95MOL0     C12754  10.421   0.494   5.263  0.0638 -0.2784  0.3828
   95MOL0     C12755  10.534   0.472   5.218  0.5548  0.4049 -0.1180
   95MOL0     C12756   9.938   0.860   5.619 -0.3988 -0.6366  0.2389
   95MOL0     C12757   9.871   0.972   5.682 -0.4130 -0.9399  0.8279
   95MOL0     H12758   9.608   1.230   6.079  0.7991  0.7200 -0.7027
   95MOL0     H12759   9.431   1.393   6.112  0.7945  2.3058 -1.7910
   95MOL0     H12760   9.072   1.292   6.088  2.0447 -0.2635 -0.8613
   95MOL0     H12761   9.150   1.398   6.198 -0.6256  0.4013 -0.9633
   95MOL0     H12762   9.031   1.587   6.149  2.6866 -0.9102  0.0244
   95MOL0     H12763   8.977   1.526   5.996 -2.8521  2.3363  2.2901
   95MOL0     H12764   8.836   1.359   6.108  1.0189 -3.0930  3.9066
   95MOL0     H12765   8.903   1.414   6.262  0.7046  0.9057  0.2350
   95MOL0     H12766   8.824   1.654   6.189  1.9298  0.7018 -4.4758
   95MOL0     H12767   8.740   1.586   6.051  1.1278 -0.8386 -0.1370
   95MOL0     H12768   8.607   1.437   6.182 -1.2777  0.5702  0.4690
   95MOL0     H12769   8.705   1.477   6.326  0.3487 -2.4258 -0.8576
   95MOL0     H12770   8.592   1.714   6.315 -0.8664  0.9313 -1.2149
   95MOL0     H12771   8.541   1.682   6.162 -1.3942  0.9045  0.7732
   95MOL0     H12772   8.346   1.673   6.312  0.2910 -0.6294 -1.5635
   95MOL0     H12773   8.378   1.505   6.294  1.4261 -1.2542  1.2393
   95MOL0     H12774   8.540   1.645   6.506 -1.8763  0.7970  1.3088
   95MOL0     H12775   8.479   1.480   6.496 -1.6567  0.3092  0.6776
   95MOL0     H12776   8.208   1.462   6.494  0.9177  1.0354  0.0042
   95MOL0     H12777   7.913   1.686   6.614 -2.1649 -0.3419 -0.2081
   95MOL0     H12778   7.954   1.699   6.443  0.2892  0.3785  0.3378
   95MOL0     H12779   7.930   1.439   6.605 -2.4164  0.1240 -0.4290
   95MOL0     H12780   7.979   1.447   6.435  2.1548 -0.1563  1.8888
   95MOL0     H12781   7.769   1.574   6.389  0.6148  1.4870  0.0363
   95MOL0     H12782   7.720   1.551   6.563  1.2714 -0.9954  0.7621
   95MOL0     H12783   7.584   1.400   6.436 -0.2326 -1.5126  0.7083
   95MOL0     H12784   7.689   1.307   6.525 -4.2620 -3.7850 -3.1080
   95MOL0     H12785   7.833   1.212   6.109  0.2060  1.1172  0.5701
   95MOL0     H12786   7.811   0.893   5.992  0.1640  0.1966 -0.5937
   95MOL0     H12787   7.695   0.988   5.885  0.9616 -0.1249 -0.0859
   95MOL0     H12788   7.847   1.052   5.935 -0.6800  0.5623 -1.5384
   95MOL0     H12789   7.428   0.682   5.865 -0.6544  0.1907  1.4301
   95MOL0     H12790   7.367   0.416   5.829  0.2937 -1.6125 -0.0070
   95MOL0     H12791   7.613   0.093   6.006  0.1453  1.1216 -1.6461
   95MOL0     H12792   7.501   0.154   6.132 -4.2965  3.2406 -0.7549
   95MOL0     H12793   7.431  -0.029   5.887  2.3314  2.5886 -0.6487
   95MOL0     H12794   7.483  -0.087   6.050  0.2066  0.2222 -0.3714
   95MOL0     H12795   7.252   0.104   6.042  0.0927  0.3473  3.9988
   95MOL0     H12796   7.281  -0.013   6.155  2.5796 -1.0806 -0.3888
   95MOL0     H12797   7.189  -0.061   5.869 -0.4693 -0.9738 -0.2306
   95MOL0     H12798   7.235  -0.194   5.982  2.0287  0.9370  1.9319
   95MOL0     H12799   7.017   0.006   6.027  1.6874  1.6393  1.8038
   95MOL0     H12800   7.045  -0.145   6.122  1.0627  0.8210  0.7688
   95MOL0     H12801   6.958  -0.135   5.819  3.8165  0.3576  0.3638
   95MOL0     H12802   6.977  -0.284   5.914 -2.1497 -0.9560  3.1066
   95MOL0     H12803   6.767  -0.060   5.936 -2.6127 -2.5135 -1.9073
   95MOL0     H12804   6.804  -0.173   6.070  0.2584 -0.2733  0.2522
   95MOL0     H12805   6.633  -0.259   5.959  2.2644  2.9248  2.2068
   95MOL0     H12806   6.767  -0.355   5.894 -1.1900 -0.5942 -1.0938
   95MOL0     H12807   7.637   0.327   6.138 -1.1380  0.7509 -0.0337
   95MOL0     H12808   7.696   0.558   6.167  1.6898 -0.2713 -0.9114
   95MOL0     H12809   7.435   1.002   6.307 -0.0343 -0.1609 -0.1977
   95MOL0     H12810   7.525   1.183   6.420 -0.8645 -1.4352  0.1851
   95MOL0     H12811   9.202   1.230   5.803 -1.4666  0.6930  0.9567
   95MOL0     H12812   9.369   1.038   5.788 -1.6822 -1.9148  2.6662
   95MOL0     H12813   9.653   0.800   5.859  1.6398  0.1972  2.0308
   95MOL0     H12814   9.762   0.605   5.749 -0.1002 -0.0923 -0.4646
   95MOL0     H12815  10.085   0.687   5.459 -3.3812 -1.4380 -1.8610
   95MOL0     H12816  10.174   0.638   5.605 -1.6490  0.1109  1.6005
   95MOL0     H12817  10.040   0.456   5.399  0.1949  2.0643  0.5342
   95MOL0     H12818  10.092   0.390   5.556  1.5811 -0.9722  0.7466
   95MOL0     H12819  10.258   0.337   5.426 -1.2056 -0.9668  3.5722
   95MOL0     H12820  10.333   0.465   5.508  1.5754 -1.4424 -1.4734
   95MOL0     H12821  10.296   0.630   5.334  3.0284  0.9601  0.0914
   95MOL0     H12822  10.220   0.501   5.232 -1.0820 -1.2209  0.9794
   95MOL0     H12823  10.633   0.465   5.178  1.8271 -2.2817  3.0208
   95MOL0     H12824  10.014   0.886   5.545  0.2224  1.6524  1.5733
   95MOL0     H12825   9.902   1.068   5.642 -1.4753 -1.0250 -0.2508
   96MOL0     O12826   4.836   8.968  10.680 -0.6087  0.0591  0.3785
   96MOL0     C12827   4.742   8.996  10.747  0.5686  0.1262 -0.2816
   96MOL0     O12828   4.738   9.108  10.834 -0.1097 -0.4490  0.1375
   96MOL0     C12829   4.852   9.191  10.839 -0.5734 -0.0475 -0.2634
   96MOL0     C12830   4.930   9.243  10.740 -0.9601 -0.2952  0.0105
   96MOL0     C12831   5.031   9.337  10.768  0.7364 -0.1632 -0.4773
   96MOL0     C12832   5.065   9.379  10.898 -0.2899 -0.6760  0.7768
   96MOL0     O12833   5.172   9.469  10.928 -0.0098 -0.4176 -0.2265
   96MOL0     C12834   5.211   9.564  10.827 -1.5675  0.4260 -0.1809
   96MOL0     C12835   5.277   9.690  10.887 -0.3647  0.0917 -0.9437
   96MOL0     C12836   5.419   9.675  10.934  0.0370 -0.2495  0.4150
   96MOL0     C12837   5.452   9.736  11.064  0.5541 -0.1552  0.2072
   96MOL0     C12838   5.440   9.887  11.089 -0.5267  0.1233 -0.1345
   96MOL0     C12839   5.535   9.974  11.016 -0.5992  0.2615  0.1496
   96MOL0     C12840   5.554  10.128  11.057 -0.3619  0.6591  0.0426
   96MOL0     C12841   5.422  10.201  11.088  0.2974  0.6610 -0.2583
   96MOL0     N12842   5.341  10.214  10.969 -0.4125  0.2247  0.6930
   96MOL0     C12843   5.242  10.137  10.927 -0.2117 -0.1325  1.0641
   96MOL0     C12844   5.194  10.194  10.812  0.0226 -0.0020 -0.7527
   96MOL0     C12845   5.098  10.128  10.711 -0.1372 -0.8759  0.0316
   96MOL0     C12846   4.955  10.172  10.715  0.9545  0.3819 -0.2778
   96MOL0     C12847   4.943  10.326  10.702 -0.5642  0.2992 -0.7443
   96MOL0     C12848   4.809  10.368  10.640  0.2254 -0.5945 -0.8963
   96MOL0     O12849   4.696  10.310  10.715 -0.0069 -0.3589 -0.3474
   96MOL0     C12850   4.578  10.309  10.644 -0.3526  0.1040 -0.9428
   96MOL0     C12851   4.471  10.231  10.702 -0.3222 -0.0861 -0.5589
   96MOL0     C12852   4.340  10.219  10.651  0.3099 -0.2594  0.0421
   96MOL0     C12853   4.245  10.130  10.727  0.5900  0.3570 -0.3926
   96MOL0     C12854   4.314  10.308  10.539  0.1030 -0.0692 -0.2123
   96MOL0     C12855   4.187  10.323  10.479 -0.7076  0.0550 -0.0105
   96MOL0     O12856   4.086  10.358  10.568 -0.5367 -0.1743 -0.9532
   96MOL0     C12857   3.954  10.357  10.538  0.7640  0.3135  0.3836
   96MOL0     C12858   3.871  10.267  10.594  0.9267  0.4405 -0.2448
   96MOL0     C12859   3.733  10.270  10.563 -0.5544  0.2211  0.0171
   96MOL0     C12860   3.689  10.362  10.464  1.0023  0.1206  0.2698
   96MOL0     O12861   3.563  10.368  10.432 -0.3955 -0.0125  0.2784
   96MOL0     C12862   3.505  10.487  10.374  0.0819 -1.0742 -0.0064
   96MOL0     C12863   3.347  10.495  10.396  0.0594 -0.4421 -0.4335
   96MOL0     C12864   3.321  10.496  10.552  0.5423  0.4724 -0.6690
   96MOL0     C12865   3.164  10.516  10.588  0.0822 -0.9238  0.1205
   96MOL0     C12866   3.139  10.479  10.732  0.2448  0.5615  0.6218
   96MOL0     C12867   2.992  10.478  10.759 -0.3074 -0.4560 -0.5224
   96MOL0     C12868   2.964  10.465  10.908  0.0052  0.0536  0.1685
   96MOL0     C12869   2.823  10.512  10.943 -0.1514  0.1723  0.3053
   96MOL0    Cl12870   2.689  10.415  10.872 -0.3836  0.1237 -0.3631
   96MOL0     C12871   3.780  10.457  10.413  0.5504  0.3464 -0.0268
   96MOL0     C12872   3.914  10.449  10.449 -0.1647 -0.4198  0.8028
   96MOL0     O12873   4.179  10.308  10.363 -0.0590 -0.1024  0.4643
   96MOL0     C12874   4.423  10.377  10.479  0.3174  1.0193  0.1900
   96MOL0     C12875   4.556  10.378  10.526 -0.3953 -0.2388 -0.8938
   96MOL0     N12876   5.260  10.312  10.799 -0.2546 -0.5603 -0.0305
   96MOL0     N12877   5.345  10.329  10.892  0.0751  1.0979  0.3217
   96MOL0     C12878   4.985   9.319  10.991  0.0151  0.5906  0.2035
   96MOL0     C12879   4.884   9.227  10.968 -0.1777  0.5253  0.5153
   96MOL0     C12880   4.613   8.919  10.739 -0.1297  0.0450 -1.3570
   96MOL0     C12881   4.577   8.842  10.625 -0.3905 -0.2687 -0.0605
   96MOL0     C12882   4.451   8.789  10.629  0.6736 -0.4622  0.7789
   96MOL0     C12883   4.356   8.810  10.732 -0.6304  0.2610  0.2763
   96MOL0     O12884   4.229   8.750  10.705 -0.4419  0.0637  0.2077
   96MOL0     C12885   4.126   8.763  10.801  1.0793 -0.6174  0.0390
   96MOL0     C12886   3.997   8.804  10.721 -0.2810  0.7452 -0.7062
   96MOL0     C12887   3.874   8.796  10.818 -0.1126  0.5129  0.5568
   96MOL0     C12888   3.747   8.840  10.743  0.4519 -0.0758  0.3826
   96MOL0     C12889   3.637   8.819  10.839 -0.1027 -0.2667 -0.0044
   96MOL0     C12890   3.533   8.805  10.909 -0.4041 -0.2185 -0.1141
   96MOL0     C12891   4.389   8.884  10.846 -0.7159  0.1304 -0.2943
   96MOL0     C12892   4.521   8.932  10.857 -0.1619 -0.4780  0.4240
   96MOL0     H12893   4.894   9.225  10.639 -0.5911  1.4961 -0.4856
   96MOL0     H12894   5.085   9.363  10.677  0.3484 -1.9963 -1.2792
   96MOL0     H12895   5.272   9.512  10.752 -0.7383 -0.2181  0.9248
   96MOL0     H12896   5.128   9.613  10.774 -1.9212 -0.6161 -0.6184
   96MOL0     H12897   5.272   9.772  10.816 -1.3950  2.1060  1.3174
   96MOL0     H12898   5.220   9.724  10.974  0.9427  1.2389 -0.5132
   96MOL0     H12899   5.437   9.568  10.944  0.8955 -0.1524  0.0153
   96MOL0     H12900   5.486   9.698  10.850  0.4730 -0.7055  0.6325
   96MOL0     H12901   5.391   9.681  11.137  1.2877 -1.3048 -0.0304
   96MOL0     H12902   5.554   9.713  11.096  1.4862  2.0431 -0.9809
   96MOL0     H12903   5.338   9.916  11.062  0.2314  1.5690 -1.6420
   96MOL0     H12904   5.430   9.903  11.197 -3.0845  3.9165 -0.7376
   96MOL0     H12905   5.632   9.925  11.026 -2.3099 -3.9466 -1.6844
   96MOL0     H12906   5.534   9.966  10.907 -0.3125  3.8540 -0.2425
   96MOL0     H12907   5.622  10.128  11.143 -0.2063 -1.3363 -0.0199
   96MOL0     H12908   5.608  10.185  10.981 -1.6155  0.4797 -1.0166
   96MOL0     H12909   5.452  10.301  11.119  3.0094  0.0835 -0.7069
   96MOL0     H12910   5.373  10.151  11.172  0.3083 -0.9914 -1.1956
   96MOL0     H12911   5.213  10.034  10.946 -2.1870 -0.0085 -0.9168
   96MOL0     H12912   5.129  10.159  10.611 -0.5180  1.9103  0.6979
   96MOL0     H12913   5.101  10.019  10.721  2.2653 -0.8787 -0.0916
   96MOL0     H12914   4.918  10.150  10.815  1.9360  1.7611  0.4185
   96MOL0     H12915   4.895  10.116  10.642  0.9686 -1.6945  1.2302
   96MOL0     H12916   5.029  10.365  10.647 -2.3081  2.9460 -1.8577
   96MOL0     H12917   4.954  10.370  10.802  0.6327 -1.2415 -0.1729
   96MOL0     H12918   4.806  10.332  10.536 -0.6354 -1.7811 -0.4831
   96MOL0     H12919   4.800  10.477  10.649 -0.0240 -0.7937  2.7509
   96MOL0     H12920   4.510  10.175  10.786 -1.6621  0.4869  0.4793
   96MOL0     H12921   4.192  10.057  10.665  1.8872 -3.4251  2.5070
   96MOL0     H12922   4.304  10.064  10.792 -0.2786  0.6940  0.7949
   96MOL0     H12923   4.194  10.204  10.790  2.0934 -0.0168  1.3313
   96MOL0     H12924   3.900  10.187  10.661 -3.4477 -2.2694 -1.2025
   96MOL0     H12925   3.661  10.201  10.606 -0.3960 -0.4355 -0.7578
   96MOL0     H12926   3.549  10.575  10.421  2.3514 -1.3997 -1.3560
   96MOL0     H12927   3.521  10.480  10.266 -0.4371 -1.9525 -0.0430
   96MOL0     H12928   3.302  10.584  10.353 -1.3766 -0.5604  0.7164
   96MOL0     H12929   3.301  10.403  10.357  2.3087 -1.9242  0.2299
   96MOL0     H12930   3.380  10.568  10.609  0.0351  0.4710 -0.1393
   96MOL0     H12931   3.334  10.388  10.569 -0.6526  0.5908  1.3085
   96MOL0     H12932   3.136  10.622  10.581 -0.3635 -1.0370  0.1727
   96MOL0     H12933   3.109  10.462  10.511  0.3056  1.6030 -1.9657
   96MOL0     H12934   3.188  10.544  10.806  0.1470 -2.8000  3.9647
   96MOL0     H12935   3.178  10.378  10.750  0.0856  0.3727 -0.0926
   96MOL0     H12936   2.952  10.575  10.726 -0.6446 -0.5848 -0.4850
   96MOL0     H12937   2.949  10.395  10.703 -0.7451 -0.4469 -0.2002
   96MOL0     H12938   3.032  10.532  10.961 -0.0633  0.5073 -0.3096
   96MOL0     H12939   2.980  10.359  10.932 -0.7048 -0.4835 -1.5899
   96MOL0     H12940   2.803  10.611  10.902 -3.6621 -0.8877 -0.8831
   96MOL0     H12941   2.809  10.518  11.052 -2.4508  0.0361  0.0634
   96MOL0     H12942   3.752  10.532  10.339  0.5635  0.9143  0.5377
   96MOL0     H12943   3.989  10.508  10.398 -0.3121 -2.0820 -1.5303
   96MOL0     H12944   4.403  10.448  10.399 -0.7657  1.0274  0.4622
   96MOL0     H12945   4.626  10.439  10.469 -2.1633  5.6464  2.3912
   96MOL0     H12946   5.009   9.330  11.097 -1.8071 -0.5860  0.7917
   96MOL0     H12947   4.832   9.171  11.045 -0.4031 -0.5118 -0.3691
   96MOL0     H12948   4.651   8.829  10.547  0.0335  2.4533 -0.2191
   96MOL0     H12949   4.419   8.735  10.540  0.9605  0.8503 -0.1513
   96MOL0     H12950   4.104   8.664  10.842 -3.0978 -0.9397 -2.3839
   96MOL0     H12951   4.150   8.840  10.874  1.7799  0.8052 -1.6310
   96MOL0     H12952   3.978   8.732  10.641 -1.9797  0.8146 -0.3892
   96MOL0     H12953   3.989   8.906  10.684 -1.4715  1.7385  2.0075
   96MOL0     H12954   3.890   8.858  10.908 -3.5241  1.0524  0.9148
   96MOL0     H12955   3.873   8.694  10.857  1.5628 -0.9297 -2.8061
   96MOL0     H12956   3.721   8.774  10.660  0.8542  1.8211 -1.3390
   96MOL0     H12957   3.751   8.938  10.695  2.2453 -2.4212 -5.0900
   96MOL0     H12958   3.444   8.830  10.963  0.8353  2.3904  0.8881
   96MOL0     H12959   4.329   8.913  10.931  1.4745  0.2572  1.3106
   96MOL0     H12960   4.548   8.992  10.944  0.8515  2.0939 -1.5347
   97MOL0     O12961  10.002   6.371   8.183 -0.3200  0.8232 -0.8319
   97MOL0     C12962  10.030   6.253   8.170  0.2984 -0.3520 -0.9991
   97MOL0     O12963   9.944   6.163   8.130  0.0386  0.2506  0.2049
   97MOL0     C12964   9.818   6.184   8.169 -0.2734  0.2118 -0.0143
   97MOL0     C12965   9.784   6.124   8.286  1.2676  0.1124 -0.1374
   97MOL0     C12966   9.649   6.118   8.330 -0.4379 -0.1611  0.3789
   97MOL0     C12967   9.547   6.188   8.256  0.0696 -0.6138 -0.7393
   97MOL0     O12968   9.417   6.197   8.295 -0.2180 -0.1473 -0.3816
   97MOL0     C12969   9.373   6.092   8.389  0.3188 -0.1067 -0.4781
   97MOL0     C12970   9.223   6.096   8.417 -0.5310  0.3875 -0.1684
   97MOL0     C12971   9.137   6.104   8.284 -0.8089  0.2758  0.9208
   97MOL0     C12972   8.986   6.114   8.322  0.5208 -0.2366 -0.9286
   97MOL0     C12973   8.880   6.096   8.215 -0.1160  0.0613  0.3495
   97MOL0     C12974   8.875   6.205   8.107  0.6518  0.6555 -0.6406
   97MOL0     C12975   8.867   6.354   8.163  0.1582 -0.3257  0.0043
   97MOL0     C12976   8.879   6.455   8.065 -0.8558  0.6178  0.3477
   97MOL0     N12977   9.000   6.441   7.983  0.3873  0.7276  0.5583
   97MOL0     C12978   9.127   6.479   8.021 -0.0933 -0.7659 -0.4065
   97MOL0     C12979   9.211   6.442   7.919 -0.1899  0.7845  0.0604
   97MOL0     C12980   9.365   6.438   7.923 -0.1654  0.6825 -0.5087
   97MOL0     C12981   9.436   6.462   7.791  0.1132  0.2640 -0.3476
   97MOL0     C12982   9.412   6.604   7.731 -0.4244 -1.0617 -0.6844
   97MOL0     C12983   9.470   6.619   7.588  0.1519 -0.1509  0.2322
   97MOL0     O12984   9.426   6.534   7.485  0.2012 -0.6519  0.3985
   97MOL0     C12985   9.285   6.530   7.474  0.8592 -0.2719 -0.2182
   97MOL0     C12986   9.224   6.633   7.403 -0.6578  0.1397  0.5330
   97MOL0     C12987   9.089   6.624   7.380  0.3057  0.2331 -0.2685
   97MOL0     C12988   9.034   6.740   7.299  0.2162  0.4535 -1.3033
   97MOL0     C12989   9.017   6.510   7.435  0.8067  0.4530  0.6737
   97MOL0     C12990   8.869   6.491   7.415 -0.2007  0.6612 -0.2254
   97MOL0     O12991   8.823   6.360   7.417 -0.6046  0.3400  0.9537
   97MOL0     C12992   8.692   6.346   7.406 -0.3107  0.2116  0.3493
   97MOL0     C12993   8.611   6.343   7.518  0.5767 -1.0080  0.4960
   97MOL0     C12994   8.477   6.329   7.507 -0.1092  0.2616  0.1620
   97MOL0     C12995   8.417   6.315   7.384 -1.0573 -1.0936  1.2453
   97MOL0     O12996   8.281   6.313   7.377 -0.8409  0.4194  0.5748
   97MOL0     C12997   8.214   6.213   7.304 -0.5910 -0.1802 -0.2564
   97MOL0     C12998   8.091   6.181   7.375  0.2963 -0.0557  0.3919
   97MOL0     C12999   8.024   6.048   7.321  0.5203  0.0724  0.8308
   97MOL0     C13000   7.896   6.017   7.411 -0.2716 -0.2410  0.0694
   97MOL0     C13001   7.799   5.908   7.350 -0.0979  0.4502  0.8277
   97MOL0     C13002   7.710   5.954   7.223 -0.0032 -0.5476 -0.9515
   97MOL0     C13003   7.599   5.857   7.172  0.5586 -0.1068  0.3870
   97MOL0     C13004   7.649   5.723   7.129  0.5119  0.6425  0.1766
   97MOL0    Cl13005   7.518   5.609   7.128 -0.0459 -0.1295  0.1303
   97MOL0     C13006   8.491   6.317   7.263 -0.2675 -0.5122 -0.7001
   97MOL0     C13007   8.629   6.333   7.280 -0.5981 -0.6298  0.6668
   97MOL0     O13008   8.794   6.588   7.410  0.1718  0.2496 -0.0367
   97MOL0     C13009   9.081   6.411   7.509  0.2423 -0.5165  0.0185
   97MOL0     C13010   9.214   6.426   7.530 -0.0909 -0.8020  0.5212
   97MOL0     N13011   9.137   6.384   7.826 -0.0594 -0.3491 -0.1221
   97MOL0     N13012   9.017   6.365   7.865 -0.9700  0.5909  0.2612
   97MOL0     C13013   9.591   6.258   8.146  0.1911  0.2239  0.3292
   97MOL0     C13014   9.724   6.255   8.094 -0.3358  0.5843 -0.5385
   97MOL0     C13015  10.166   6.220   8.168 -0.3150  0.5614  0.1425
   97MOL0     C13016  10.263   6.320   8.198  0.4921  0.2328 -0.2987
   97MOL0     C13017  10.401   6.290   8.201  0.2211 -0.0089  0.8354
   97MOL0     C13018  10.447   6.160   8.180  0.2487 -0.2195  0.0717
   97MOL0     O13019  10.583   6.131   8.181  0.4030 -0.2998  0.1679
   97MOL0     C13020  10.633   6.004   8.136 -0.5219  0.2213  0.2897
   97MOL0     C13021  10.782   6.015   8.120  0.3175  0.3373  0.1064
   97MOL0     C13022  10.864   5.885   8.075  0.9484 -0.7940 -0.5077
   97MOL0     C13023  10.998   5.913   8.000 -0.7080 -0.0715 -0.5459
   97MOL0     C13024  11.093   5.996   8.075  0.2560  0.4570 -0.8506
   97MOL0     C13025  11.185   6.043   8.136 -0.0248 -0.7828  0.6918
   97MOL0     C13026  10.353   6.072   8.130 -0.1014  0.2278 -0.2324
   97MOL0     C13027  10.217   6.096   8.129  0.1034  0.7232 -0.2109
   97MOL0     H13028   9.852   6.079   8.357  1.4586  0.6622  0.0257
   97MOL0     H13029   9.626   6.063   8.420 -1.0092  1.4935  1.2835
   97MOL0     H13030   9.391   5.993   8.346  0.9179 -0.6650  0.9957
   97MOL0     H13031   9.438   6.088   8.476  0.5969  1.3650 -0.6005
   97MOL0     H13032   9.203   6.002   8.469  4.6603  0.0895  1.9124
   97MOL0     H13033   9.209   6.171   8.495  0.3728  0.0848  0.2963
   97MOL0     H13034   9.161   6.199   8.234 -1.2290  0.2448  0.6530
   97MOL0     H13035   9.169   6.025   8.216  1.3869 -0.6184  2.8444
   97MOL0     H13036   8.959   6.038   8.396 -1.4738 -1.4516 -2.7785
   97MOL0     H13037   8.969   6.212   8.366  1.5960 -0.8418  0.9187
   97MOL0     H13038   8.893   5.995   8.175  0.4175 -0.7947  2.5575
   97MOL0     H13039   8.783   6.105   8.265  1.3837  2.2255  3.1831
   97MOL0     H13040   8.958   6.185   8.039  0.3533 -1.0677 -0.5279
   97MOL0     H13041   8.782   6.177   8.058 -0.3616 -1.8939  2.3771
   97MOL0     H13042   8.785   6.370   8.234  2.7113  0.2481  3.1086
   97MOL0     H13043   8.953   6.379   8.227 -1.6567 -1.9995  3.3578
   97MOL0     H13044   8.876   6.553   8.114 -1.0065  1.1776 -0.7450
   97MOL0     H13045   8.793   6.460   7.997 -0.0923 -1.0835 -0.7852
   97MOL0     H13046   9.148   6.511   8.123 -0.6166 -1.8923  0.0774
   97MOL0     H13047   9.408   6.511   7.991 -1.5736  1.4043 -0.3658
   97MOL0     H13048   9.386   6.340   7.968 -0.4084  0.9953  0.3042
   97MOL0     H13049   9.406   6.379   7.727 -0.6220  0.8176 -0.7260
   97MOL0     H13050   9.543   6.441   7.806 -0.1602 -1.7486 -1.0265
   97MOL0     H13051   9.453   6.678   7.801 -2.0012  2.3359 -3.1007
   97MOL0     H13052   9.308   6.637   7.718  0.0178  1.2226  0.9194
   97MOL0     H13053   9.580   6.619   7.585  0.1723 -1.3881  0.6031
   97MOL0     H13054   9.465   6.720   7.544 -1.1495 -0.1284  0.4210
   97MOL0     H13055   9.276   6.722   7.369 -0.8957 -0.1360 -0.6121
   97MOL0     H13056   8.994   6.813   7.371 -1.8674  0.2027 -2.1268
   97MOL0     H13057   9.115   6.788   7.243  1.6930 -1.7753 -1.1867
   97MOL0     H13058   8.958   6.714   7.225  0.7037 -0.0956 -1.6140
   97MOL0     H13059   8.663   6.362   7.611 -1.0481 -0.7883  1.3994
   97MOL0     H13060   8.418   6.328   7.597 -1.2446 -0.7029 -0.5582
   97MOL0     H13061   8.181   6.241   7.204  0.8819 -2.3909 -1.4424
   97MOL0     H13062   8.282   6.128   7.297 -2.1105 -1.3546 -1.2064
   97MOL0     H13063   8.105   6.180   7.483 -3.0377  0.9114  0.9332
   97MOL0     H13064   8.015   6.249   7.336  2.0978  0.8835 -1.7355
   97MOL0     H13065   8.087   5.958   7.313  1.8982  0.9755  1.0799
   97MOL0     H13066   8.015   6.066   7.214  1.3463  1.1172  0.9160
   97MOL0     H13067   7.944   5.998   7.507 -0.5326 -3.7165 -0.3345
   97MOL0     H13068   7.845   6.113   7.422  2.4258  1.4243 -0.8499
   97MOL0     H13069   7.731   5.880   7.431 -0.4234  1.6250  0.9813
   97MOL0     H13070   7.851   5.819   7.315 -0.4922  0.5798 -0.1151
   97MOL0     H13071   7.656   6.044   7.254 -0.8206 -0.6729 -1.9655
   97MOL0     H13072   7.786   5.976   7.148  1.0957  3.2585  1.0288
   97MOL0     H13073   7.554   5.911   7.088  2.2275 -1.1223 -1.2621
   97MOL0     H13074   7.525   5.841   7.250  0.2967 -1.4949 -0.1233
   97MOL0     H13075   7.714   5.684   7.208 -0.6452  3.1915  2.5312
   97MOL0     H13076   7.704   5.726   7.035  0.9448 -1.6208  0.3016
   97MOL0     H13077   8.442   6.292   7.170  0.4963  0.1938 -1.3063
   97MOL0     H13078   8.697   6.337   7.196 -1.2545 -0.5434  0.1346
   97MOL0     H13079   9.027   6.328   7.554  1.2506  0.0661  2.4157
   97MOL0     H13080   9.267   6.348   7.585 -0.8476 -0.8816  1.1491
   97MOL0     H13081   9.524   6.335   8.109 -1.1962 -0.6007  1.0340
   97MOL0     H13082   9.760   6.297   8.000 -0.8575  0.1212 -0.9543
   97MOL0     H13083  10.242   6.427   8.202 -0.7538  0.1177 -2.4597
   97MOL0     H13084  10.466   6.366   8.242  0.5293 -1.2691  2.8294
   97MOL0     H13085  10.596   5.926   8.203  2.1447 -1.4658 -0.0614
   97MOL0     H13086  10.591   5.975   8.040  2.4111 -1.4835 -0.6198
   97MOL0     H13087  10.841   6.044   8.208  2.3740  3.5367 -2.1201
   97MOL0     H13088  10.798   6.101   8.054 -2.3655 -0.8525 -2.2922
   97MOL0     H13089  10.804   5.835   7.998  0.0066 -0.0690 -0.2494
   97MOL0     H13090  10.876   5.821   8.163  0.1402 -0.3375 -0.0637
   97MOL0     H13091  10.979   5.969   7.908 -0.5021  0.1815 -0.4360
   97MOL0     H13092  11.048   5.822   7.965 -2.4163  0.0672 -3.7196
   97MOL0     H13093  11.261   6.098   8.187 -0.3122  1.8946 -1.5214
   97MOL0     H13094  10.380   5.970   8.104  0.7391  0.5509 -0.6661
   97MOL0     H13095  10.149   6.025   8.083  0.7085  0.5257 -0.8214
   98MOL0     O13096   0.287   0.687   7.075  0.5331  0.2904  0.7717
   98MOL0     C13097   0.293   0.749   6.971 -0.3844  0.4343  0.2794
   98MOL0     O13098   0.183   0.798   6.901 -0.6722 -0.1676  0.6156
   98MOL0     C13099   0.058   0.802   6.955  0.4199  0.9969  0.0081
   98MOL0     C13100  -0.005   0.689   7.005  0.6662 -0.2230  0.3719
   98MOL0     C13101  -0.139   0.690   7.055 -0.3079 -0.3197 -0.5917
   98MOL0     C13102  -0.205   0.810   7.058  0.0459 -0.3882  0.3031
   98MOL0     O13103  -0.321   0.813   7.133  0.2123  0.3712  0.6024
   98MOL0     C13104  -0.399   0.928   7.126 -0.2122  0.4530 -0.0960
   98MOL0     C13105  -0.531   0.884   7.188  1.1514  0.1522 -0.3095
   98MOL0     C13106  -0.649   0.974   7.154  0.3892  0.0297 -0.3783
   98MOL0     C13107  -0.780   0.923   7.202  0.6913  0.0836 -0.1166
   98MOL0     C13108  -0.893   1.029   7.191 -0.8115  0.2392 -0.2351
   98MOL0     C13109  -0.905   1.129   7.306  0.8588 -0.1784 -0.3339
   98MOL0     C13110  -1.001   1.252   7.285 -0.3831 -0.3996  0.2451
   98MOL0     C13111  -0.935   1.377   7.346  0.7346 -0.1465  0.1413
   98MOL0     N13112  -1.012   1.498   7.331  0.4741  0.1619  0.3699
   98MOL0     C13113  -1.124   1.528   7.390 -0.3046 -0.1905 -0.0689
   98MOL0     C13114  -1.174   1.643   7.338  0.2857  0.2413  0.2740
   98MOL0     C13115  -1.314   1.702   7.363  1.1785 -0.0189  0.3623
   98MOL0     C13116  -1.342   1.715   7.508 -0.3217 -0.2452  0.2135
   98MOL0     C13117  -1.452   1.825   7.538 -0.2172 -0.8802 -0.7257
   98MOL0     C13118  -1.590   1.816   7.464  0.1381  0.0310  0.2138
   98MOL0     O13119  -1.597   1.889   7.339 -0.4217 -0.0828 -0.1213
   98MOL0     C13120  -1.723   1.913   7.284 -0.8225  0.0534  0.8658
   98MOL0     C13121  -1.835   1.845   7.318  0.6595 -0.4175 -0.5391
   98MOL0     C13122  -1.959   1.878   7.256  0.1597 -0.3210  0.1003
   98MOL0     C13123  -2.076   1.784   7.300  0.6226 -0.2189  0.3514
   98MOL0     C13124  -1.982   1.980   7.156  0.1229 -0.0646  0.4010
   98MOL0     C13125  -2.107   2.029   7.090 -0.8779 -0.0545 -0.2383
   98MOL0     O13126  -2.096   2.115   6.975  0.4268  0.4428  0.2274
   98MOL0     C13127  -2.214   2.168   6.928 -0.0836 -0.2797  0.5924
   98MOL0     C13128  -2.220   2.309   6.915  0.2994  0.6687 -0.4669
   98MOL0     C13129  -2.334   2.375   6.861 -1.4076 -0.0408 -0.3833
   98MOL0     C13130  -2.448   2.298   6.835  0.0408  0.7180  0.1251
   98MOL0     O13131  -2.566   2.353   6.792  0.3822 -0.5951  0.3639
   98MOL0     C13132  -2.691   2.283   6.765  0.3517 -0.3679  0.0065
   98MOL0     C13133  -2.788   2.389   6.722  0.1761  0.5363  0.3295
   98MOL0     C13134  -2.911   2.305   6.668 -0.5884  0.2577  0.2141
   98MOL0     C13135  -3.035   2.393   6.630  1.6455  0.5134  0.1862
   98MOL0     C13136  -3.154   2.319   6.578  0.7683 -0.4482  0.1024
   98MOL0     C13137  -3.256   2.410   6.520  0.2470 -0.7819  0.0709
   98MOL0     C13138  -3.330   2.502   6.621  0.6839 -0.7587 -1.1552
   98MOL0     C13139  -3.449   2.429   6.673  0.4257 -0.0985  0.0669
   98MOL0    Cl13140  -3.527   2.516   6.803 -0.2114 -0.3666  0.5284
   98MOL0     C13141  -2.444   2.155   6.856 -0.2987  0.5059 -0.3011
   98MOL0     C13142  -2.333   2.092   6.906 -0.4622  0.0271  0.4973
   98MOL0     O13143  -2.214   1.995   7.139  0.2854  0.1720  0.1191
   98MOL0     C13144  -1.860   2.049   7.125  0.2308  0.5715  0.3680
   98MOL0     C13145  -1.736   2.013   7.190 -0.1014  1.1458  0.2644
   98MOL0     N13146  -1.086   1.688   7.251  0.0299 -0.3570  0.6638
   98MOL0     N13147  -0.993   1.606   7.246 -0.2326  0.4317  0.8054
   98MOL0     C13148  -0.143   0.931   7.015  0.0117  0.0641 -0.0952
   98MOL0     C13149  -0.010   0.925   6.959  0.4667  0.3485 -0.0066
   98MOL0     C13150   0.426   0.782   6.926  0.2667  0.5667 -0.1411
   98MOL0     C13151   0.540   0.705   6.948  0.1547 -0.4468  0.0047
   98MOL0     C13152   0.667   0.726   6.900 -0.2528 -0.0655 -0.0451
   98MOL0     C13153   0.687   0.840   6.816 -0.5395  0.1039 -0.4140
   98MOL0     O13154   0.810   0.849   6.766 -0.1556  0.3972  0.2566
   98MOL0     C13155   0.849   0.956   6.685  0.4022 -1.1532 -0.3335
   98MOL0     C13156   0.891   1.072   6.779 -0.1592 -0.1756 -0.2535
   98MOL0     C13157   0.966   1.190   6.705  0.0183  0.1693 -0.6508
   98MOL0     C13158   0.871   1.274   6.616 -0.6839 -0.3980  0.5511
   98MOL0     C13159   0.794   1.368   6.707 -0.3006  0.4756 -0.7994
   98MOL0     C13160   0.738   1.439   6.795  0.0592  0.1588  0.0497
   98MOL0     C13161   0.586   0.922   6.795  1.6538  0.3875 -0.6025
   98MOL0     C13162   0.457   0.895   6.846  0.6176  0.3960  0.1069
   98MOL0     H13163   0.053   0.597   7.001  1.5142  0.2429  1.5276
   98MOL0     H13164  -0.176   0.598   7.098  1.3369 -1.2628 -1.0709
   98MOL0     H13165  -0.358   1.013   7.180  1.3648  0.5600 -1.3968
   98MOL0     H13166  -0.424   0.953   7.023  2.1166  2.5492 -0.2445
   98MOL0     H13167  -0.552   0.781   7.156  1.1378 -0.4320  1.4615
   98MOL0     H13168  -0.531   0.872   7.297 -3.1803 -3.2718 -0.3901
   98MOL0     H13169  -0.634   1.073   7.198 -0.8053 -0.4127  1.1179
   98MOL0     H13170  -0.641   0.982   7.046  0.9732 -1.2593 -0.4438
   98MOL0     H13171  -0.811   0.831   7.151 -1.3082 -1.1552  3.0487
   98MOL0     H13172  -0.756   0.898   7.306 -0.1478  3.7117  1.0699
   98MOL0     H13173  -0.870   1.088   7.102 -0.3846  2.3563  1.2000
   98MOL0     H13174  -0.993   0.985   7.186 -0.0751 -1.8856  2.0655
   98MOL0     H13175  -0.939   1.071   7.392  1.5808  1.2394  0.9514
   98MOL0     H13176  -0.804   1.165   7.325  0.6559  0.6370 -0.7563
   98MOL0     H13177  -1.026   1.264   7.180  0.8302 -2.2362 -0.3043
   98MOL0     H13178  -1.100   1.233   7.328 -1.0922  1.5008 -0.4612
   98MOL0     H13179  -0.836   1.393   7.303  1.7413  1.4754  2.8029
   98MOL0     H13180  -0.930   1.364   7.455  2.4054  1.3396  0.2877
   98MOL0     H13181  -1.177   1.472   7.467 -1.0720 -1.4798 -1.4914
   98MOL0     H13182  -1.313   1.792   7.301  2.7514 -2.3454 -3.3721
   98MOL0     H13183  -1.387   1.642   7.306 -1.3110  2.2096  1.0279
   98MOL0     H13184  -1.256   1.735   7.572 -0.7221 -1.2580  1.1047
   98MOL0     H13185  -1.386   1.616   7.528  1.7872 -1.4326 -0.6548
   98MOL0     H13186  -1.410   1.925   7.526 -0.4627 -0.5075  1.2426
   98MOL0     H13187  -1.491   1.805   7.638  2.1778  3.0758  1.2320
   98MOL0     H13188  -1.664   1.856   7.534 -0.2298 -0.0482 -0.1298
   98MOL0     H13189  -1.606   1.709   7.448 -0.1271  0.3472 -1.9598
   98MOL0     H13190  -1.833   1.775   7.401  1.4148  0.3348  0.0942
   98MOL0     H13191  -2.035   1.702   7.361 -0.4725  0.4720  2.1050
   98MOL0     H13192  -2.145   1.838   7.366  0.0350  0.5468 -0.8560
   98MOL0     H13193  -2.121   1.740   7.211  0.9428  0.2167 -0.0334
   98MOL0     H13194  -2.135   2.368   6.948 -0.4316  1.1995  0.5025
   98MOL0     H13195  -2.326   2.482   6.847  4.5689 -0.4207 -2.5707
   98MOL0     H13196  -2.676   2.203   6.692 -0.1493  2.6083 -3.7040
   98MOL0     H13197  -2.724   2.228   6.853  0.9881 -2.0808 -0.7890
   98MOL0     H13198  -2.812   2.450   6.809 -0.4617 -0.7747  1.0933
   98MOL0     H13199  -2.749   2.443   6.635  3.6836 -0.7350  0.9488
   98MOL0     H13200  -2.924   2.226   6.743 -0.0228  1.7507  1.9784
   98MOL0     H13201  -2.881   2.267   6.570 -2.2995  1.4064 -0.7947
   98MOL0     H13202  -3.058   2.449   6.721 -2.0386 -0.1860 -0.1944
   98MOL0     H13203  -2.999   2.470   6.560  1.0049 -0.2178 -0.9802
   98MOL0     H13204  -3.196   2.264   6.664  1.2081  2.0336  2.0068
   98MOL0     H13205  -3.114   2.265   6.492 -0.6587 -2.3509  0.5500
   98MOL0     H13206  -3.201   2.480   6.458 -0.8932  0.0453 -0.0340
   98MOL0     H13207  -3.330   2.365   6.453  1.1947  2.0044 -3.1051
   98MOL0     H13208  -3.370   2.590   6.571 -1.9261 -1.9525 -1.3090
   98MOL0     H13209  -3.273   2.541   6.706  1.4867 -3.9689 -0.0483
   98MOL0     H13210  -3.420   2.331   6.713 -1.2040 -0.5244  0.2797
   98MOL0     H13211  -3.528   2.424   6.597  1.1616  0.4522 -0.7602
   98MOL0     H13212  -2.528   2.092   6.829 -0.3980 -0.2771  1.7124
   98MOL0     H13213  -2.334   1.988   6.938  1.9042  1.0959  4.7766
   98MOL0     H13214  -1.870   2.137   7.062 -0.4093 -0.2050 -0.6574
   98MOL0     H13215  -1.643   2.062   7.161  2.6654 -2.8577  1.4242
   98MOL0     H13216  -0.195   1.026   7.019  2.6712  1.7800 -2.7807
   98MOL0     H13217   0.037   1.014   6.920  3.0586 -2.2838 -3.5501
   98MOL0     H13218   0.526   0.608   6.994 -1.6072  0.9764  2.7993
   98MOL0     H13219   0.751   0.659   6.913  0.5487  1.2805  2.6833
   98MOL0     H13220   0.925   0.927   6.612 -0.0810  1.7369 -2.1395
   98MOL0     H13221   0.766   0.995   6.625  1.6522 -0.1842 -1.4845
   98MOL0     H13222   0.954   1.047   6.865  0.7574  1.4664 -0.4124
   98MOL0     H13223   0.803   1.112   6.829 -1.4839 -3.9713  0.7747
   98MOL0     H13224   1.046   1.144   6.647  1.4502  1.5453  0.1861
   98MOL0     H13225   1.014   1.253   6.780  1.3043  0.2634 -1.5193
   98MOL0     H13226   0.808   1.211   6.552  0.1056 -0.5084 -0.1428
   98MOL0     H13227   0.939   1.328   6.550 -0.1353 -0.7333  0.8307
   98MOL0     H13228   0.693   1.493   6.876  2.7394  0.9790  1.1012
   98MOL0     H13229   0.590   1.017   6.743  0.4866  1.2328  0.7854
   98MOL0     H13230   0.374   0.962   6.827  0.1834  0.0912  0.8885
   99MOL0     O13231   5.638   8.633  11.293  0.2519  0.0279  0.3237
   99MOL0     C13232   5.601   8.520  11.322 -0.6951 -0.2508 -0.2817
   99MOL0     O13233   5.679   8.423  11.370 -0.1279 -0.0484 -0.3065
   99MOL0     C13234   5.812   8.431  11.385 -0.4467 -0.5880  0.4701
   99MOL0     C13235   5.876   8.380  11.503  0.9035 -0.2356  0.1717
   99MOL0     C13236   6.017   8.385  11.509  0.6409 -0.4888  0.1835
   99MOL0     C13237   6.098   8.432  11.413 -0.0422 -0.2505  0.4238
   99MOL0     O13238   6.235   8.436  11.415 -0.4682  0.5608  0.6886
   99MOL0     C13239   6.307   8.395  11.530 -0.2376  0.1002 -0.4074
   99MOL0     C13240   6.443   8.462  11.552  0.2167 -0.0902 -1.1397
   99MOL0     C13241   6.444   8.617  11.569 -0.3148  0.0469 -0.3673
   99MOL0     C13242   6.592   8.660  11.601  0.3197 -1.1307  0.6056
   99MOL0     C13243   6.601   8.814  11.567  0.1987  0.1198 -0.4413
   99MOL0     C13244   6.744   8.858  11.589 -0.7026  0.4020  0.9659
   99MOL0     C13245   6.755   9.011  11.586  0.6833  0.6868 -0.5787
   99MOL0     C13246   6.892   9.072  11.600 -0.3151 -0.9016  0.6997
   99MOL0     N13247   6.947   9.052  11.730 -0.4280 -1.1533 -1.1802
   99MOL0     C13248   6.917   9.107  11.852 -0.1385  0.6344  0.6649
   99MOL0     C13249   6.952   9.008  11.942 -0.1008 -0.4369 -0.1319
   99MOL0     C13250   6.915   9.011  12.084 -0.4517 -0.7556  0.7523
   99MOL0     C13251   6.774   8.978  12.123 -0.0251  0.6160  0.6019
   99MOL0     C13252   6.744   8.837  12.147 -0.1561  0.6176 -0.8101
   99MOL0     C13253   6.730   8.745  12.026  0.8997  0.2769  0.1947
   99MOL0     O13254   6.615   8.776  11.934 -0.5041  0.4236  0.6153
   99MOL0     C13255   6.490   8.747  11.978  0.3544  1.1451 -0.4291
   99MOL0     C13256   6.384   8.786  11.882  0.4478 -0.2530 -0.7062
   99MOL0     C13257   6.247   8.757  11.912 -0.6000  0.2510 -0.4851
   99MOL0     C13258   6.150   8.798  11.799 -0.9425 -0.7084 -0.4399
   99MOL0     C13259   6.211   8.692  12.035  0.7167  0.9531  0.1272
   99MOL0     C13260   6.072   8.650  12.066  0.4833 -0.0540 -0.1768
   99MOL0     O13261   5.971   8.710  11.989 -0.0400 -0.6437 -0.8099
   99MOL0     C13262   5.845   8.692  12.038 -0.4596 -0.3290  0.8607
   99MOL0     C13263   5.773   8.581  11.977 -0.6105 -0.0133  0.1763
   99MOL0     C13264   5.644   8.547  12.029  0.1600 -0.7455  0.8894
   99MOL0     C13265   5.572   8.632  12.123 -0.4488  1.0327 -0.6079
   99MOL0     O13266   5.443   8.608  12.173 -0.3267  0.2825 -0.1547
   99MOL0     C13267   5.346   8.529  12.091 -1.0645  0.0121 -0.4410
   99MOL0     C13268   5.207   8.507  12.156  0.5187 -0.4032  0.2370
   99MOL0     C13269   5.123   8.630  12.125  0.0483 -0.7058  0.6521
   99MOL0     C13270   4.993   8.632  12.218 -0.6834 -0.5972 -0.0171
   99MOL0     C13271   4.905   8.507  12.202 -0.6697 -0.7189 -0.7073
   99MOL0     C13272   4.860   8.476  12.066  0.0861 -1.5080  0.3332
   99MOL0     C13273   4.734   8.385  12.059  0.3930  0.3089 -0.5159
   99MOL0     C13274   4.598   8.440  12.104 -0.8373 -0.2543  1.1100
   99MOL0    Cl13275   4.494   8.288  12.116 -0.2636  0.1593  0.1491
   99MOL0     C13276   5.657   8.727  12.190  0.3810 -0.6807  0.5396
   99MOL0     C13277   5.792   8.757  12.156  0.4704 -0.4004  0.4852
   99MOL0     O13278   6.052   8.580  12.163  0.2042  0.4191  0.5351
   99MOL0     C13279   6.315   8.657  12.119  0.6692  0.5647  0.3053
   99MOL0     C13280   6.445   8.689  12.097  0.3640 -0.0067 -0.1664
   99MOL0     N13281   7.031   8.920  11.869  0.1805  0.2984 -0.1611
   99MOL0     N13282   7.038   8.957  11.745  0.6612  0.6119  0.0018
   99MOL0     C13283   6.035   8.489  11.301  0.2643 -0.5292  0.8029
   99MOL0     C13284   5.897   8.495  11.288 -0.1348  0.3247  0.7754
   99MOL0     C13285   5.454   8.503  11.311  0.4729  0.2543 -0.0420
   99MOL0     C13286   5.388   8.369  11.312 -0.3374 -1.3375  0.2207
   99MOL0     C13287   5.253   8.347  11.284  0.0991 -0.1397  0.8974
   99MOL0     C13288   5.166   8.459  11.277 -0.4914  1.1204 -0.1093
   99MOL0     O13289   5.033   8.452  11.248  0.0806  0.4133 -0.3777
   99MOL0     C13290   4.976   8.332  11.195 -0.2503  0.4680  0.5837
   99MOL0     C13291   4.946   8.243  11.317 -0.5598  0.1647  0.1111
   99MOL0     C13292   4.925   8.092  11.277 -1.1251 -0.4428  1.0293
   99MOL0     C13293   4.884   8.010  11.400 -0.0238 -0.2186  0.0987
   99MOL0     C13294   4.755   8.060  11.449  0.7993  0.7844 -0.5828
   99MOL0     C13295   4.647   8.091  11.494 -0.0556 -0.3014  0.3121
   99MOL0     C13296   5.228   8.590  11.291  0.2514  0.4317  0.0753
   99MOL0     C13297   5.366   8.615  11.306  0.1177  0.5820 -0.1272
   99MOL0     H13298   5.808   8.343  11.579  2.0264 -0.7753  0.9474
   99MOL0     H13299   6.060   8.333  11.594 -0.6127  1.3989  2.0688
   99MOL0     H13300   6.255   8.427  11.621  2.2134  1.8037  0.4963
   99MOL0     H13301   6.314   8.286  11.533  1.7014  0.1600 -1.2424
   99MOL0     H13302   6.490   8.423  11.642 -0.3732  3.2575  0.8023
   99MOL0     H13303   6.503   8.432  11.467 -0.8375 -2.0534 -1.2387
   99MOL0     H13304   6.410   8.662  11.476 -0.4015  0.3469 -0.1923
   99MOL0     H13305   6.375   8.656  11.645  2.1975  4.0196  0.1403
   99MOL0     H13306   6.633   8.652  11.702  2.9912 -1.3014 -0.3992
   99MOL0     H13307   6.662   8.600  11.543  0.3216 -0.5113 -0.0511
   99MOL0     H13308   6.577   8.843  11.464  0.3249 -2.1161 -1.1516
   99MOL0     H13309   6.539   8.873  11.635  0.1907  0.4949 -0.7650
   99MOL0     H13310   6.791   8.819  11.680 -1.4276  0.2664  1.2836
   99MOL0     H13311   6.808   8.815  11.511  0.7704  1.2765  1.6467
   99MOL0     H13312   6.717   9.050  11.490  1.1880  2.3507 -0.1324
   99MOL0     H13313   6.693   9.049  11.668 -0.9222  1.0693 -1.9053
   99MOL0     H13314   6.876   9.179  11.580  1.7232 -0.7915 -0.5694
   99MOL0     H13315   6.954   9.031  11.520  2.4455 -0.1898  2.3543
   99MOL0     H13316   6.844   9.186  11.863 -0.6916  0.5691 -1.9659
   99MOL0     H13317   6.976   8.943  12.144  0.1468 -0.5120  0.4340
   99MOL0     H13318   6.930   9.112  12.124 -1.7670 -0.9564  1.8168
   99MOL0     H13319   6.697   9.022  12.059  1.0510 -1.4474 -2.3752
   99MOL0     H13320   6.753   9.028  12.218  1.1326 -1.2016  1.8714
   99MOL0     H13321   6.647   8.835  12.196  0.0163 -0.1585 -0.4841
   99MOL0     H13322   6.820   8.790  12.211  0.8341 -0.6596 -2.8121
   99MOL0     H13323   6.725   8.647  12.075 -1.0123  0.6791  0.8829
   99MOL0     H13324   6.827   8.743  11.976  0.0144  2.1694 -1.7440
   99MOL0     H13325   6.418   8.837  11.793 -2.8310  1.9561 -0.8900
   99MOL0     H13326   6.087   8.712  11.775 -3.0617  0.5759  0.2809
   99MOL0     H13327   6.078   8.870  11.839 -1.0303 -1.4941  0.8886
   99MOL0     H13328   6.203   8.835  11.711 -4.0400 -0.5520 -2.3772
   99MOL0     H13329   5.815   8.529  11.891  1.8383  1.2238  0.5417
   99MOL0     H13330   5.585   8.468  11.983  1.1789 -0.1774 -1.5851
   99MOL0     H13331   5.329   8.583  11.998 -0.7307 -0.6479 -0.8922
   99MOL0     H13332   5.399   8.441  12.053  1.1525  0.3580  1.5515
   99MOL0     H13333   5.167   8.414  12.115  2.6536 -2.4112  2.3791
   99MOL0     H13334   5.217   8.505  12.265 -0.5958  1.1700  0.4134
   99MOL0     H13335   5.098   8.638  12.018  0.5940  0.5587  0.6006
   99MOL0     H13336   5.177   8.722  12.150 -1.0230  0.0300  0.3335
   99MOL0     H13337   5.020   8.644  12.323 -0.3571  0.1675 -0.1758
   99MOL0     H13338   4.940   8.723  12.188  1.8222  1.4258  1.3114
   99MOL0     H13339   4.817   8.513  12.267 -1.1260 -2.0014 -1.1763
   99MOL0     H13340   4.974   8.434  12.244  2.0289  2.3248  0.5717
   99MOL0     H13341   4.820   8.562  12.011 -2.1996 -2.6070  0.1633
   99MOL0     H13342   4.940   8.423  12.014  0.1885 -1.1038  0.0745
   99MOL0     H13343   4.756   8.307  12.132 -1.3138  0.8862  0.6853
   99MOL0     H13344   4.716   8.346  11.958 -0.3542 -0.8226  0.0368
   99MOL0     H13345   4.566   8.502  12.020  1.0713 -1.0338 -0.2681
   99MOL0     H13346   4.620   8.484  12.202  4.1680 -1.2997  0.7471
   99MOL0     H13347   5.612   8.789  12.267  2.4555 -0.2262  1.4771
   99MOL0     H13348   5.851   8.841  12.191  0.5227 -0.3068  0.1754
   99MOL0     H13349   6.286   8.588  12.197 -1.4895 -0.1598 -1.0402
   99MOL0     H13350   6.516   8.648  12.168 -0.2169 -0.8624 -0.0710
   99MOL0     H13351   6.097   8.525  11.219  1.8398 -1.0131  1.7362
   99MOL0     H13352   5.852   8.533  11.197  1.0718  0.8709  0.3864
   99MOL0     H13353   5.448   8.279  11.323  1.8641 -0.2535 -1.8841
   99MOL0     H13354   5.233   8.240  11.288  1.6225 -0.4266  4.0381
   99MOL0     H13355   4.879   8.340  11.146 -0.1370 -0.8167  0.1142
   99MOL0     H13356   5.036   8.281  11.119 -1.0806  3.0144 -1.9530
   99MOL0     H13357   4.858   8.285  11.367 -0.3984  0.6335  0.0098
   99MOL0     H13358   5.027   8.260  11.388 -2.1134 -1.5380  2.4389
   99MOL0     H13359   5.013   8.047  11.232 -0.3403  0.1858  1.9005
   99MOL0     H13360   4.847   8.090  11.200  0.6962 -1.5668 -0.8836
   99MOL0     H13361   4.970   8.009  11.467  2.7719 -2.2443 -3.1826
   99MOL0     H13362   4.872   7.905  11.371  2.4742 -0.7666  0.7555
   99MOL0     H13363   4.544   8.105  11.523 -0.3412 -1.6123  0.0208
   99MOL0     H13364   5.153   8.668  11.304  1.1472  1.2057  0.6783
   99MOL0     H13365   5.391   8.720  11.318 -1.1544  0.6720  2.6544
  100MOL0     O13366   8.089   3.465  10.859 -0.6553 -0.1786 -0.2764
  100MOL0     C13367   8.148   3.493  10.760 -0.0514  0.2426 -0.4424
  100MOL0     O13368   8.113   3.472  10.628  1.0935 -0.2803 -0.3941
  100MOL0     C13369   8.001   3.402  10.614  0.2702 -0.1092  0.4199
  100MOL0     C13370   8.000   3.260  10.623 -0.6352 -0.4759 -0.1464
  100MOL0     C13371   7.882   3.188  10.599 -0.0811  0.0408  0.3175
  100MOL0     C13372   7.764   3.260  10.556  0.8330  0.5633 -0.4971
  100MOL0     O13373   7.643   3.200  10.546  0.6330 -0.4580  0.1076
  100MOL0     C13374   7.601   3.104  10.652 -0.3656 -0.7756  0.7330
  100MOL0     C13375   7.449   3.070  10.635 -0.7863  0.7180 -0.4873
  100MOL0     C13376   7.385   3.003  10.747  0.5401  0.0854 -0.3193
  100MOL0     C13377   7.245   2.965  10.703 -0.8504 -0.2685  0.5232
  100MOL0     C13378   7.159   2.944  10.832 -0.6560 -0.1073  0.9096
  100MOL0     C13379   7.008   2.924  10.821  0.0846 -0.1560  0.2609
  100MOL0     C13380   6.939   2.816  10.741 -0.0513 -0.1135  0.0557
  100MOL0     C13381   6.803   2.782  10.802  0.4247  0.4031  0.0595
  100MOL0     N13382   6.727   2.666  10.760  0.1596  0.7704 -0.0251
  100MOL0     C13383   6.639   2.598  10.841  0.2861 -0.0414  0.3037
  100MOL0     C13384   6.573   2.510  10.760 -0.4574  0.0334  0.8414
  100MOL0     C13385   6.468   2.408  10.813 -0.7146  0.5490  0.5666
  100MOL0     C13386   6.333   2.473  10.851 -0.2920 -0.0228  0.6709
  100MOL0     C13387   6.289   2.596  10.763 -0.1544 -0.2848  0.1039
  100MOL0     C13388   6.141   2.622  10.772 -0.4541  0.4053  0.1566
  100MOL0     O13389   6.073   2.579  10.886 -0.0113  0.3600  0.2193
  100MOL0     C13390   5.938   2.579  10.869  0.1725 -0.3218  0.7533
  100MOL0     C13391   5.852   2.650  10.960 -0.1091 -0.7546 -0.0545
  100MOL0     C13392   5.707   2.669  10.936 -1.1494 -0.4446  0.3428
  100MOL0     C13393   5.615   2.770  11.014  0.3523 -0.5359  0.3147
  100MOL0     C13394   5.657   2.600  10.818 -1.4653 -0.2297  0.2573
  100MOL0     C13395   5.514   2.608  10.787 -0.0337 -0.2092  0.5463
  100MOL0     O13396   5.475   2.723  10.749  0.9511 -0.0689  0.6167
  100MOL0     C13397   5.349   2.743  10.697  0.7189  0.4297 -0.0794
  100MOL0     C13398   5.260   2.822  10.766 -0.2576 -0.3474 -0.2255
  100MOL0     C13399   5.131   2.855  10.718 -0.8199 -0.6332 -0.5979
  100MOL0     C13400   5.096   2.822  10.583  1.4637  0.1046 -0.6750
  100MOL0     O13401   4.965   2.851  10.541 -0.1892 -0.1861 -0.0263
  100MOL0     C13402   4.930   2.834  10.408  0.2092 -0.1662 -0.6443
  100MOL0     C13403   4.777   2.857  10.404 -1.0050 -0.0066 -0.5109
  100MOL0     C13404   4.750   3.008  10.400  0.1074  0.3020  0.5339
  100MOL0     C13405   4.715   3.047  10.548 -0.1002 -0.3308  0.7330
  100MOL0     C13406   4.691   3.194  10.567 -0.0469 -0.2587  0.2826
  100MOL0     C13407   4.550   3.238  10.504 -0.1607 -0.2563 -0.5278
  100MOL0     C13408   4.530   3.385  10.526  0.4420  0.3627 -0.4178
  100MOL0     C13409   4.412   3.440  10.450  0.3556 -0.2456 -0.7523
  100MOL0    Cl13410   4.264   3.361  10.532 -0.1797 -0.7248  0.1711
  100MOL0     C13411   5.178   2.740  10.508 -0.7613  0.2119  0.3154
  100MOL0     C13412   5.301   2.702  10.568 -0.0633 -0.7891 -0.3117
  100MOL0     O13413   5.450   2.502  10.780 -0.2490  0.3485  0.6771
  100MOL0     C13414   5.739   2.522  10.740  0.4594  0.1199  0.1014
  100MOL0     C13415   5.875   2.504  10.765 -0.8948 -0.0854 -0.2891
  100MOL0     N13416   6.619   2.516  10.629 -0.2725 -0.9768 -0.1621
  100MOL0     N13417   6.711   2.617  10.630 -0.3074  0.6887  0.3463
  100MOL0     C13418   7.771   3.399  10.518 -0.3361  0.6449 -0.7191
  100MOL0     C13419   7.884   3.469  10.563 -1.0431  0.0632  0.4597
  100MOL0     C13420   8.263   3.578  10.763 -0.2620  0.0771  1.0209
  100MOL0     C13421   8.321   3.628  10.641 -0.2039  0.6641 -0.2515
  100MOL0     C13422   8.428   3.716  10.651  0.6188 -0.2297 -0.1092
  100MOL0     C13423   8.498   3.742  10.768  0.5608 -0.5469 -0.4041
  100MOL0     O13424   8.612   3.828  10.779  0.1784  0.3498 -0.2397
  100MOL0     C13425   8.608   3.937  10.687 -0.7371 -0.6087  0.3845
  100MOL0     C13426   8.688   4.052  10.731 -1.1823 -0.0796 -0.5536
  100MOL0     C13427   8.835   4.003  10.764  0.3267 -0.8283 -0.1674
  100MOL0     C13428   8.920   4.138  10.768 -0.0341  0.6197 -0.7513
  100MOL0     C13429   8.907   4.226  10.888  0.2622  0.1257 -0.1196
  100MOL0     C13430   8.889   4.289  10.989  0.8721  0.6536 -0.5274
  100MOL0     C13431   8.442   3.694  10.889 -0.0367  0.5233  0.6409
  100MOL0     C13432   8.324   3.612  10.888 -0.7660 -0.2221  0.5746
  100MOL0     H13433   8.089   3.207  10.654 -0.5593 -0.4808 -0.3700
  100MOL0     H13434   7.894   3.081  10.615  1.2352  0.2315  0.7186
  100MOL0     H13435   7.666   3.017  10.638  1.4703  0.8260 -1.2692
  100MOL0     H13436   7.631   3.150  10.747  0.4858 -0.8749  0.5201
  100MOL0     H13437   7.392   3.163  10.626  0.3741  1.8752  2.9248
  100MOL0     H13438   7.436   3.018  10.539 -1.2785 -0.3054  0.1158
  100MOL0     H13439   7.445   2.913  10.765  1.2146  0.9142  1.9833
  100MOL0     H13440   7.387   3.072  10.832 -1.8980 -1.8965  1.4724
  100MOL0     H13441   7.210   3.052  10.646  1.6297 -1.8660 -3.9521
  100MOL0     H13442   7.249   2.877  10.638 -0.2492 -1.2651  1.8799
  100MOL0     H13443   7.202   2.854  10.877 -2.9892 -0.8814  1.7448
  100MOL0     H13444   7.183   3.025  10.901 -1.9363  0.4646  0.7082
  100MOL0     H13445   6.966   2.900  10.919 -2.1390 -1.3258 -0.9200
  100MOL0     H13446   6.966   3.023  10.799 -0.3495 -0.1353  1.1237
  100MOL0     H13447   6.930   2.842  10.635 -1.4274 -1.2402 -0.1342
  100MOL0     H13448   7.000   2.725  10.748 -1.7685 -1.5500 -2.3126
  100MOL0     H13449   6.738   2.868  10.786 -1.8797 -1.5023 -1.5329
  100MOL0     H13450   6.823   2.757  10.907 -0.1781 -2.0534 -0.3422
  100MOL0     H13451   6.635   2.608  10.949 -1.7483  3.6118  0.0617
  100MOL0     H13452   6.444   2.345  10.726 -0.2616  2.2061 -0.8204
  100MOL0     H13453   6.521   2.345  10.885 -0.8379 -0.5715 -0.2825
  100MOL0     H13454   6.338   2.484  10.959 -0.8991 -2.0159  0.9554
  100MOL0     H13455   6.253   2.403  10.826  0.0395  0.2228 -1.2129
  100MOL0     H13456   6.317   2.577  10.659 -0.1269 -0.0012  0.0580
  100MOL0     H13457   6.344   2.689  10.784  1.8295 -1.2286 -0.6842
  100MOL0     H13458   6.102   2.572  10.683  1.3274  1.0407 -1.0453
  100MOL0     H13459   6.126   2.730  10.764  0.5538  0.5634  0.1701
  100MOL0     H13460   5.885   2.708  11.045 -1.7475  0.6692 -0.3505
  100MOL0     H13461   5.516   2.724  11.020  1.4379 -3.2661 -1.1275
  100MOL0     H13462   5.665   2.770  11.111  3.6299 -3.6393 -1.1630
  100MOL0     H13463   5.624   2.871  10.973  4.3304  0.7194  3.6463
  100MOL0     H13464   5.289   2.856  10.865  1.3404 -0.2951 -0.6893
  100MOL0     H13465   5.073   2.906  10.794  3.0181 -1.3798  3.1860
  100MOL0     H13466   4.976   2.916  10.352 -0.5636  0.2216 -0.7093
  100MOL0     H13467   4.944   2.735  10.364  1.8169 -0.7107  0.9341
  100MOL0     H13468   4.744   2.818  10.308 -3.1978 -0.3772  0.3465
  100MOL0     H13469   4.722   2.810  10.486 -2.3552  0.6861 -1.0008
  100MOL0     H13470   4.665   3.019  10.333 -0.3743  1.7322  1.3449
  100MOL0     H13471   4.828   3.070  10.355  1.4985 -1.1283  0.8628
  100MOL0     H13472   4.618   3.000  10.569  0.4716 -0.9673  2.0438
  100MOL0     H13473   4.785   3.002  10.617  0.4802 -1.8102 -0.7539
  100MOL0     H13474   4.769   3.253  10.518 -1.8377  1.9840 -0.0573
  100MOL0     H13475   4.676   3.223  10.671  0.5607 -0.1567  0.3464
  100MOL0     H13476   4.542   3.220  10.396 -2.3492 -3.4004  0.0265
  100MOL0     H13477   4.472   3.183  10.555  0.7803 -1.5246 -0.4035
  100MOL0     H13478   4.623   3.437  10.499  0.0016  2.4181  1.7340
  100MOL0     H13479   4.502   3.395  10.631 -1.2249 -2.6001 -0.4816
  100MOL0     H13480   4.412   3.406  10.346  5.0229 -1.7551 -0.5177
  100MOL0     H13481   4.412   3.548  10.461  1.2748 -0.4525  2.7786
  100MOL0     H13482   5.160   2.704  10.407 -0.3719 -1.4997  0.8268
  100MOL0     H13483   5.374   2.646  10.510  2.6310  4.2098 -2.4605
  100MOL0     H13484   5.708   2.466  10.652  1.2938 -2.2827  1.2213
  100MOL0     H13485   5.939   2.448  10.697 -1.0643  1.0041 -1.3891
  100MOL0     H13486   7.683   3.446  10.475 -0.4570  0.0771 -1.1068
  100MOL0     H13487   7.896   3.576  10.550 -0.0933 -0.1045 -0.1869
  100MOL0     H13488   8.281   3.617  10.540  1.9924 -0.1961 -1.0945
  100MOL0     H13489   8.460   3.772  10.563 -1.3281  1.9789  0.4747
  100MOL0     H13490   8.647   3.903  10.590  1.5495  0.4353  0.8564
  100MOL0     H13491   8.505   3.971  10.674 -0.7061  0.1902  1.9862
  100MOL0     H13492   8.656   4.105  10.821 -0.7109  2.1615 -1.6371
  100MOL0     H13493   8.692   4.125  10.650  2.9114  1.1613  0.5458
  100MOL0     H13494   8.878   3.952  10.677  0.7842  0.8324 -0.9480
  100MOL0     H13495   8.853   3.949  10.857 -2.0618  2.0546  2.1502
  100MOL0     H13496   8.899   4.199  10.679  0.7494  1.1711 -0.5706
  100MOL0     H13497   9.025   4.112  10.780 -0.2625  0.6258  1.9628
  100MOL0     H13498   8.871   4.351  11.074  0.1427  0.7061 -0.7182
  100MOL0     H13499   8.485   3.727  10.983 -0.4613  1.7274  0.4300
  100MOL0     H13500   8.285   3.582  10.985 -1.3603  0.5022  0.5759
  101MOL0     O13501   3.889   0.366  11.184 -0.3451  0.1064 -0.3098
  101MOL0     C13502   3.989   0.330  11.251 -0.4295  0.2730  0.9223
  101MOL0     O13503   4.109   0.385  11.257 -0.6095  0.4022  0.2456
  101MOL0     C13504   4.145   0.475  11.161 -0.6978  0.5357 -0.6680
  101MOL0     C13505   4.213   0.577  11.212 -1.3095 -0.6901 -0.0293
  101MOL0     C13506   4.260   0.677  11.123 -0.5861 -0.0534  0.0812
  101MOL0     C13507   4.236   0.674  10.990 -0.1693  0.4674 -0.3544
  101MOL0     O13508   4.273   0.778  10.913  0.1034  0.2408 -0.0254
  101MOL0     C13509   4.279   0.765  10.773  0.3507  0.2388  0.1435
  101MOL0     C13510   4.398   0.670  10.738  0.1922  0.4499  0.6450
  101MOL0     C13511   4.519   0.725  10.795 -0.5542  0.2333 -0.7491
  101MOL0     C13512   4.651   0.654  10.763  0.6825  0.7096  0.1564
  101MOL0     C13513   4.765   0.730  10.804 -1.0946  0.4061 -0.0776
  101MOL0     C13514   4.903   0.683  10.757  0.4547 -0.4628  0.6458
  101MOL0     C13515   5.015   0.762  10.820 -0.0631  0.3903 -0.5124
  101MOL0     C13516   5.147   0.707  10.773 -0.4029 -0.0980 -0.0921
  101MOL0     N13517   5.254   0.755  10.866  0.0626 -0.0575 -0.2560
  101MOL0     C13518   5.313   0.668  10.964 -0.3987 -0.0584  0.5261
  101MOL0     C13519   5.419   0.747  11.008  1.3665  0.5651  0.6652
  101MOL0     C13520   5.521   0.704  11.103 -0.3269  0.2072  0.1701
  101MOL0     C13521   5.543   0.810  11.201  0.6621  0.1348 -0.0127
  101MOL0     C13522   5.420   0.842  11.289  0.4946 -0.1589  0.9393
  101MOL0     C13523   5.464   0.913  11.419 -0.5176  0.0028  0.5436
  101MOL0     O13524   5.507   1.046  11.390  0.7040 -0.2839  0.3225
  101MOL0     C13525   5.630   1.084  11.425  0.0436 -0.3453  0.2308
  101MOL0     C13526   5.666   1.118  11.559 -0.0329  1.4126 -0.1114
  101MOL0     C13527   5.797   1.148  11.593  0.8034 -0.5593  0.4045
  101MOL0     C13528   5.821   1.182  11.745  0.6642  0.1337  0.4582
  101MOL0     C13529   5.898   1.163  11.495  0.5402 -0.2394 -0.8073
  101MOL0     C13530   6.038   1.203  11.526  0.4987 -0.1462 -1.0331
  101MOL0     O13531   6.118   1.239  11.417  0.8184 -0.7450  0.0954
  101MOL0     C13532   6.249   1.267  11.454  0.4247  0.4577  0.0649
  101MOL0     C13533   6.279   1.393  11.508 -0.1101  0.6047 -0.0740
  101MOL0     C13534   6.415   1.421  11.542  0.0293  0.2674  0.6757
  101MOL0     C13535   6.511   1.326  11.517 -0.2235  0.0430  0.3781
  101MOL0     O13536   6.638   1.330  11.560 -0.3560 -0.1354  0.0609
  101MOL0     C13537   6.645   1.362  11.699  0.1696 -0.5490  0.7922
  101MOL0     C13538   6.785   1.344  11.768 -0.3931 -0.1104  0.4464
  101MOL0     C13539   6.898   1.425  11.708 -0.7119  0.1002  0.5350
  101MOL0     C13540   7.030   1.419  11.790  0.3980  0.6789 -0.7064
  101MOL0     C13541   7.141   1.527  11.768  0.0902 -0.3954  0.5592
  101MOL0     C13542   7.248   1.459  11.687  0.3078  0.4441 -0.0321
  101MOL0     C13543   7.355   1.568  11.659  0.1174 -0.4784 -0.8000
  101MOL0     C13544   7.487   1.519  11.620 -1.3955  0.7448 -0.9503
  101MOL0    Cl13545   7.576   1.662  11.571 -0.3548  0.1359  0.0122
  101MOL0     C13546   6.471   1.204  11.458 -0.3165  0.0293 -0.3040
  101MOL0     C13547   6.337   1.170  11.434 -0.0287  0.0651  0.1939
  101MOL0     O13548   6.075   1.178  11.638  0.5725  0.0659 -0.2971
  101MOL0     C13549   5.867   1.134  11.362  0.5809 -0.4209 -0.1134
  101MOL0     C13550   5.736   1.096  11.335  0.6355 -0.3186  0.1164
  101MOL0     N13551   5.421   0.866  10.936 -0.3951 -0.4557  0.3204
  101MOL0     N13552   5.325   0.871  10.848  0.2544 -0.1523 -0.3557
  101MOL0     C13553   4.152   0.567  10.938 -0.0000 -0.5148 -0.5450
  101MOL0     C13554   4.107   0.470  11.030 -0.0601 -0.2820  0.6610
  101MOL0     C13555   3.955   0.226  11.356 -0.2463 -0.2151  0.1929
  101MOL0     C13556   4.046   0.203  11.456  1.6261  0.6865 -0.5283
  101MOL0     C13557   4.029   0.092  11.539 -0.5632  0.1186 -0.3483
  101MOL0     C13558   3.921   0.012  11.539 -0.1842  0.1686  0.6096
  101MOL0     O13559   3.924  -0.109  11.608  0.5020 -0.0662  0.0491
  101MOL0     C13560   3.989  -0.221  11.534 -1.8089  0.5514 -0.8582
  101MOL0     C13561   3.908  -0.346  11.542 -0.0792  1.0340  0.1796
  101MOL0     C13562   3.886  -0.384  11.687  0.9911  0.1793  0.1856
  101MOL0     C13563   3.834  -0.523  11.712 -0.1153 -0.2351 -0.1268
  101MOL0     C13564   3.775  -0.531  11.852  0.5784  0.7594  1.1650
  101MOL0     C13565   3.718  -0.569  11.954  0.6276 -0.7191  0.2780
  101MOL0     C13566   3.823   0.034  11.438 -0.7277 -0.0243  0.0361
  101MOL0     C13567   3.843   0.141  11.344 -0.1775  0.0040  0.2505
  101MOL0     H13568   4.239   0.593  11.316 -2.1295 -2.8017  0.5611
  101MOL0     H13569   4.316   0.767  11.144 -0.7677  0.6141 -2.0350
  101MOL0     H13570   4.183   0.728  10.735  0.4152 -0.2653  0.4680
  101MOL0     H13571   4.305   0.867  10.742  0.3046  0.7037  1.5764
  101MOL0     H13572   4.391   0.566  10.771  0.5395 -0.4325 -1.8279
  101MOL0     H13573   4.401   0.668  10.629 -1.7382  0.9197  0.5536
  101MOL0     H13574   4.536   0.831  10.777  4.3577 -0.2270 -0.4410
  101MOL0     H13575   4.511   0.721  10.903  1.8553  0.7070 -0.4813
  101MOL0     H13576   4.653   0.552  10.802 -0.7305  0.2433 -0.8933
  101MOL0     H13577   4.634   0.652  10.655 -0.3007  1.2600  0.2820
  101MOL0     H13578   4.752   0.832  10.764  0.0636  2.0426  3.3663
  101MOL0     H13579   4.773   0.744  10.912  1.3204  0.6766 -0.2313
  101MOL0     H13580   4.914   0.578  10.785 -2.1531 -0.6752  1.1630
  101MOL0     H13581   4.906   0.693  10.648  0.9725  0.7867  0.7615
  101MOL0     H13582   5.002   0.869  10.796 -2.9370  0.2493 -0.0020
  101MOL0     H13583   5.008   0.752  10.929  1.8543 -1.0713 -0.4812
  101MOL0     H13584   5.167   0.754  10.676 -1.1097  1.3901  0.4431
  101MOL0     H13585   5.154   0.598  10.764  1.4122 -0.0409  0.1824
  101MOL0     H13586   5.287   0.569  10.999  2.1579 -0.5988  1.0915
  101MOL0     H13587   5.486   0.610  11.148 -4.1951  0.8298 -1.1519
  101MOL0     H13588   5.612   0.681  11.047 -1.4327  0.0812 -1.6422
  101MOL0     H13589   5.569   0.903  11.150  1.8922  0.1610  0.6386
  101MOL0     H13590   5.623   0.775  11.267  0.7993  1.0850  0.3490
  101MOL0     H13591   5.367   0.747  11.305  2.2544 -1.5493 -0.9978
  101MOL0     H13592   5.342   0.901  11.240  2.6148  0.3256 -2.1004
  101MOL0     H13593   5.550   0.858  11.460  0.3103  0.6651 -0.2652
  101MOL0     H13594   5.375   0.901  11.482 -0.9423 -0.1983 -0.0866
  101MOL0     H13595   5.590   1.105  11.636 -0.7672  4.0662 -0.2531
  101MOL0     H13596   5.723   1.174  11.792  0.5095 -0.0476  0.1041
  101MOL0     H13597   5.893   1.117  11.797  2.0098  0.7936 -0.5204
  101MOL0     H13598   5.865   1.282  11.750  1.7231 -0.2940  0.0142
  101MOL0     H13599   6.202   1.460  11.542 -0.8184 -0.8912  1.4083
  101MOL0     H13600   6.447   1.518  11.578  1.8618 -0.0037 -0.1533
  101MOL0     H13601   6.610   1.464  11.720  0.8980 -0.1471  0.0977
  101MOL0     H13602   6.578   1.290  11.748  2.5327 -3.0944  0.5235
  101MOL0     H13603   6.773   1.369  11.874  0.9963 -0.1282  0.6270
  101MOL0     H13604   6.813   1.239  11.757 -0.6437 -0.0192 -1.3616
  101MOL0     H13605   6.873   1.531  11.698  1.2468  0.4211 -1.9273
  101MOL0     H13606   6.916   1.392  11.605 -3.2077  0.9930 -0.2733
  101MOL0     H13607   6.996   1.436  11.893 -0.5241 -0.7398 -0.7636
  101MOL0     H13608   7.073   1.320  11.774 -0.3082  0.2889 -0.2507
  101MOL0     H13609   7.179   1.561  11.865 -1.1798 -1.3585  1.4474
  101MOL0     H13610   7.093   1.605  11.708 -1.2278 -0.2334  1.7570
  101MOL0     H13611   7.286   1.367  11.733 -1.4806 -1.2441 -1.7232
  101MOL0     H13612   7.208   1.441  11.587 -1.5049  3.2213  0.0926
  101MOL0     H13613   7.376   1.629  11.747  0.5916 -1.5635 -0.1470
  101MOL0     H13614   7.308   1.628  11.580 -1.6705 -1.7939 -0.7944
  101MOL0     H13615   7.482   1.451  11.534 -1.8771 -0.1788 -0.2167
  101MOL0     H13616   7.520   1.456  11.703  1.2311  2.9258 -0.2183
  101MOL0     H13617   6.555   1.135  11.459  0.4530  0.9380  1.1831
  101MOL0     H13618   6.307   1.073  11.397  0.2518 -0.7673  2.0276
  101MOL0     H13619   5.936   1.137  11.278  0.0187 -1.1749 -0.6125
  101MOL0     H13620   5.711   1.073  11.232  1.4134  3.0598 -0.9643
  101MOL0     H13621   4.121   0.562  10.834 -1.4978 -1.1736 -0.0907
  101MOL0     H13622   4.050   0.383  10.997 -1.6171 -0.1194  2.7362
  101MOL0     H13623   4.137   0.260  11.468  2.1708 -0.3595  0.6247
  101MOL0     H13624   4.105   0.059  11.609 -1.9867 -1.1444  0.6447
  101MOL0     H13625   3.996  -0.194  11.428 -1.5230  1.2548 -0.6623
  101MOL0     H13626   4.095  -0.237  11.553 -1.8797  0.8865 -0.1624
  101MOL0     H13627   3.951  -0.432  11.490 -1.6404 -0.6117  1.4330
  101MOL0     H13628   3.812  -0.338  11.491 -1.6403 -1.9055  2.3141
  101MOL0     H13629   3.830  -0.307  11.741  2.8097  2.0960 -0.4947
  101MOL0     H13630   3.986  -0.380  11.732  1.1808 -0.0134 -0.2036
  101MOL0     H13631   3.910  -0.597  11.685 -0.1313  0.8797 -3.8378
  101MOL0     H13632   3.750  -0.550  11.647 -0.5772 -2.4001  1.2620
  101MOL0     H13633   3.669  -0.611  12.040  3.5511  1.8325  3.5422
  101MOL0     H13634   3.743  -0.039  11.427 -1.0905  0.4628 -0.6849
  101MOL0     H13635   3.775   0.149  11.260 -1.3423 -2.3795  0.8940
  102MOL0     O13636   5.330   8.456   4.320  0.3285 -0.1563 -0.1749
  102MOL0     C13637   5.327   8.486   4.199 -0.6312  1.2354  0.5156
  102MOL0     O13638   5.245   8.430   4.103  0.5007 -0.2804 -0.4664
  102MOL0     C13639   5.156   8.329   4.131 -0.6302  0.9412 -0.2504
  102MOL0     C13640   5.025   8.353   4.094  0.0172 -0.1330  0.2031
  102MOL0     C13641   4.922   8.268   4.123 -0.7328 -0.4241  1.2622
  102MOL0     C13642   4.953   8.142   4.178  1.0154  0.0370 -0.2707
  102MOL0     O13643   4.869   8.054   4.219  0.1806 -0.4948  0.1202
  102MOL0     C13644   4.741   8.051   4.141  0.1821 -0.7728  0.0727
  102MOL0     C13645   4.626   8.113   4.215  0.1677 -0.4063  0.4774
  102MOL0     C13646   4.492   8.068   4.159 -0.0920 -0.3875  0.0849
  102MOL0     C13647   4.454   7.927   4.214  0.4988  1.1510 -0.2398
  102MOL0     C13648   4.313   7.862   4.185  1.3303  0.2720 -0.4673
  102MOL0     C13649   4.270   7.724   4.257 -1.1127 -0.3936  0.1205
  102MOL0     C13650   4.143   7.668   4.201 -0.1084  0.4205  0.0543
  102MOL0     C13651   4.010   7.738   4.244 -0.6183  0.1595 -0.4534
  102MOL0     N13652   3.884   7.688   4.182  0.0126  0.4448  0.1239
  102MOL0     C13653   3.803   7.752   4.098  0.1061 -0.0452 -0.4495
  102MOL0     C13654   3.696   7.669   4.085  0.2861 -0.0391 -0.1670
  102MOL0     C13655   3.578   7.687   3.995  0.9159  0.9136  0.9641
  102MOL0     C13656   3.456   7.747   4.077 -0.0012 -0.8680 -0.8827
  102MOL0     C13657   3.324   7.759   3.999  0.0290 -0.0643  0.0096
  102MOL0     C13658   3.212   7.832   4.083  0.5735  0.0679  0.3971
  102MOL0     O13659   3.127   7.732   4.138  0.4103  0.1974 -0.3877
  102MOL0     C13660   3.041   7.668   4.054 -0.5975  0.9991 -0.2467
  102MOL0     C13661   3.019   7.702   3.919 -0.0476 -0.9719  0.2183
  102MOL0     C13662   2.922   7.642   3.838 -0.1631  1.0539 -0.7404
  102MOL0     C13663   2.917   7.705   3.700  0.8624 -0.3884  0.3726
  102MOL0     C13664   2.839   7.541   3.894  0.0005 -0.1750 -0.5672
  102MOL0     C13665   2.729   7.484   3.820  0.7602  0.2773 -0.1344
  102MOL0     O13666   2.641   7.580   3.762 -0.0999 -0.0424  0.2451
  102MOL0     C13667   2.538   7.524   3.693  0.7614 -0.1654  0.9029
  102MOL0     C13668   2.412   7.514   3.751 -0.4592  0.2872  0.1864
  102MOL0     C13669   2.311   7.452   3.685  1.1202 -0.5479 -0.0223
  102MOL0     C13670   2.330   7.400   3.556 -0.3794 -0.6253  0.4378
  102MOL0     O13671   2.224   7.335   3.498 -0.1144 -0.2500 -0.0204
  102MOL0     C13672   2.255   7.212   3.426  0.7545 -0.5479 -0.4508
  102MOL0     C13673   2.293   7.231   3.277 -0.7218 -0.5904 -1.2541
  102MOL0     C13674   2.206   7.164   3.185  0.1785  0.8578  0.3876
  102MOL0     C13675   2.064   7.230   3.181 -0.2000 -0.7705 -0.2341
  102MOL0     C13676   1.976   7.187   3.063  1.0607 -0.7421  0.2624
  102MOL0     C13677   1.830   7.191   3.104  0.1135  0.3246 -0.0520
  102MOL0     C13678   1.739   7.129   2.997 -0.8296 -0.1003 -0.0222
  102MOL0     C13679   1.698   7.235   2.895  0.3252 -0.1114 -0.1436
  102MOL0    Cl13680   1.575   7.151   2.795 -0.2180  0.2347 -0.5027
  102MOL0     C13681   2.457   7.408   3.498 -0.4582 -0.1293 -0.9988
  102MOL0     C13682   2.559   7.469   3.570 -0.4423  0.1714  0.9003
  102MOL0     O13683   2.710   7.357   3.815  0.1603 -0.6467 -0.3222
  102MOL0     C13684   2.872   7.501   4.021 -0.4250  0.3031  0.2653
  102MOL0     C13685   2.964   7.559   4.097 -0.1262 -0.0115 -0.2430
  102MOL0     N13686   3.725   7.553   4.147  0.1976  0.1589 -0.4241
  102MOL0     N13687   3.836   7.567   4.210  0.2847 -0.4751  0.4975
  102MOL0     C13688   5.087   8.112   4.206 -0.9654 -0.1756  0.1002
  102MOL0     C13689   5.192   8.207   4.190 -0.3495 -0.2441 -0.8936
  102MOL0     C13690   5.425   8.586   4.161 -0.1834  0.1641 -0.2381
  102MOL0     C13691   5.413   8.642   4.037  0.4854 -0.1932 -0.3917
  102MOL0     C13692   5.489   8.749   3.998 -0.3262 -0.0615  0.1805
  102MOL0     C13693   5.590   8.798   4.072 -0.8548  0.3901  0.3404
  102MOL0     O13694   5.668   8.890   4.004  0.2292  0.4917 -0.0188
  102MOL0     C13695   5.774   8.955   4.071 -0.9080 -0.2380  0.2044
  102MOL0     C13696   5.836   9.050   3.969 -0.1372 -0.3553  0.1131
  102MOL0     C13697   5.792   9.202   3.993  0.1166 -0.1786  0.8445
  102MOL0     C13698   5.635   9.233   3.989  0.3144 -1.3818 -0.2471
  102MOL0     C13699   5.586   9.204   3.850  0.1444 -0.3626 -0.2101
  102MOL0     C13700   5.557   9.163   3.740 -0.3610 -0.2654 -0.4708
  102MOL0     C13701   5.604   8.751   4.203 -0.6962  0.7377 -0.3123
  102MOL0     C13702   5.520   8.645   4.250  0.2421  0.3877  0.1819
  102MOL0     H13703   5.011   8.454   4.058  1.1152 -0.1221 -0.2142
  102MOL0     H13704   4.825   8.316   4.115 -0.7635 -0.7339 -0.8559
  102MOL0     H13705   4.752   8.085   4.037 -0.3836 -1.5003 -0.2326
  102MOL0     H13706   4.708   7.947   4.131 -3.7497  0.3684 -0.6695
  102MOL0     H13707   4.631   8.083   4.320 -0.6959  1.7760  1.1930
  102MOL0     H13708   4.619   8.222   4.222  2.2582  0.0860 -2.9990
  102MOL0     H13709   4.424   8.145   4.199  0.8378  0.4298  0.1299
  102MOL0     H13710   4.485   8.056   4.051 -0.7381 -1.4011  0.2305
  102MOL0     H13711   4.525   7.850   4.181 -0.7971  0.1116 -0.7115
  102MOL0     H13712   4.452   7.936   4.323  1.1172 -0.8057 -0.0214
  102MOL0     H13713   4.235   7.936   4.204 -0.8653 -2.5065  2.3487
  102MOL0     H13714   4.311   7.836   4.079 -1.5668 -4.9630  0.5198
  102MOL0     H13715   4.359   7.660   4.250 -0.2810  0.7739 -0.4052
  102MOL0     H13716   4.252   7.746   4.363 -0.3538 -1.8381  0.5831
  102MOL0     H13717   4.144   7.669   4.092 -0.4541 -5.8070 -0.3525
  102MOL0     H13718   4.135   7.565   4.236  1.0667  1.2853  3.2016
  102MOL0     H13719   4.015   7.845   4.223  0.2607  0.0124 -1.0683
  102MOL0     H13720   4.001   7.719   4.351 -0.3721  1.4687 -0.1855
  102MOL0     H13721   3.827   7.851   4.059 -0.2470  0.3808  0.3857
  102MOL0     H13722   3.600   7.767   3.925 -2.9303 -0.0804 -1.6784
  102MOL0     H13723   3.551   7.591   3.949 -2.5965  1.6218  1.2639
  102MOL0     H13724   3.486   7.845   4.114  1.1455 -1.9251  1.2259
  102MOL0     H13725   3.438   7.692   4.171  0.8854 -3.1668 -1.9645
  102MOL0     H13726   3.298   7.657   3.969  0.0941 -0.6848  1.9259
  102MOL0     H13727   3.349   7.820   3.912 -0.6939 -0.0247 -0.1717
  102MOL0     H13728   3.149   7.892   4.016  1.2081 -0.4064 -0.6397
  102MOL0     H13729   3.246   7.904   4.158  0.1572  2.2336 -1.3682
  102MOL0     H13730   3.061   7.792   3.877 -2.7102 -0.1481 -0.9376
  102MOL0     H13731   3.001   7.667   3.641 -0.3323  0.5114 -2.0304
  102MOL0     H13732   2.827   7.676   3.645  0.6573  0.4110  0.2810
  102MOL0     H13733   2.926   7.814   3.706  0.1465 -0.3640  1.5228
  102MOL0     H13734   2.392   7.550   3.851 -1.2073 -0.0518  0.1591
  102MOL0     H13735   2.213   7.443   3.731  1.5423 -0.1792  1.0031
  102MOL0     H13736   2.331   7.160   3.484  0.8330  0.3705  0.2895
  102MOL0     H13737   2.171   7.141   3.429  0.2627 -0.0606 -1.8501
  102MOL0     H13738   2.305   7.337   3.254  0.6837 -0.7509 -1.2974
  102MOL0     H13739   2.393   7.189   3.265 -1.4262 -2.1858 -1.9343
  102MOL0     H13740   2.196   7.057   3.206 -0.7702  0.8888  0.1422
  102MOL0     H13741   2.248   7.173   3.085 -2.3434 -1.9630 -1.0835
  102MOL0     H13742   2.006   7.216   3.273 -2.3922 -0.3393 -1.4692
  102MOL0     H13743   2.072   7.339   3.174  0.6293 -0.7996  0.1743
  102MOL0     H13744   1.995   7.081   3.045 -0.3762 -0.9397 -0.2570
  102MOL0     H13745   2.001   7.263   2.988  1.6687 -1.0649  0.1335
  102MOL0     H13746   1.811   7.131   3.194 -0.0612  1.1958  0.5016
  102MOL0     H13747   1.807   7.298   3.114 -1.3792  0.3461 -2.6856
  102MOL0     H13748   1.644   7.091   3.035 -2.5063  0.7756 -2.9846
  102MOL0     H13749   1.792   7.042   2.956 -0.6229 -0.1211  0.2852
  102MOL0     H13750   1.788   7.272   2.844  1.3212 -0.3834  1.3632
  102MOL0     H13751   1.654   7.320   2.946  0.8012  0.4924 -0.7257
  102MOL0     H13752   2.468   7.360   3.401  0.3401 -1.3456 -0.3351
  102MOL0     H13753   2.658   7.462   3.527 -0.3297  1.6600  0.8452
  102MOL0     H13754   2.811   7.421   4.061 -2.1672 -0.4478 -3.4858
  102MOL0     H13755   2.985   7.533   4.200 -2.4706  2.4653  0.9653
  102MOL0     H13756   5.123   8.020   4.252  2.9042  0.2297 -1.7359
  102MOL0     H13757   5.292   8.191   4.229 -0.3386  1.4211 -0.1689
  102MOL0     H13758   5.346   8.602   3.963 -0.5750  2.1630 -0.8009
  102MOL0     H13759   5.473   8.784   3.897 -1.8020 -1.3059 -0.0635
  102MOL0     H13760   5.748   9.009   4.163  1.9754 -1.3262  1.7932
  102MOL0     H13761   5.850   8.883   4.104 -0.6169 -0.3392 -0.6748
  102MOL0     H13762   5.817   9.015   3.867 -0.0367 -0.4523  0.1272
  102MOL0     H13763   5.945   9.047   3.966 -0.0738 -0.9318 -4.5471
  102MOL0     H13764   5.847   9.275   3.933  2.4103 -1.5509  1.1446
  102MOL0     H13765   5.818   9.229   4.096 -0.0940 -4.1393  2.1197
  102MOL0     H13766   5.632   9.341   4.001  0.6450 -1.5202  1.3373
  102MOL0     H13767   5.572   9.186   4.065  2.0368 -0.0420  2.1499
  102MOL0     H13768   5.525   9.133   3.642 -0.7072  1.2527 -0.8513
  102MOL0     H13769   5.684   8.788   4.266  1.3071 -1.1659 -1.6091
  102MOL0     H13770   5.534   8.609   4.351  4.7207 -2.2683 -1.1290
  103MOL0     O13771   2.419   7.396   5.669  0.4638  0.7007 -0.0018
  103MOL0     C13772   2.398   7.323   5.764 -0.2205 -0.8859  0.8163
  103MOL0     O13773   2.435   7.193   5.769  0.4171  0.3069 -0.5569
  103MOL0     C13774   2.496   7.134   5.653 -0.3660 -0.8605 -1.0830
  103MOL0     C13775   2.625   7.079   5.664 -0.7784  0.5414 -0.1596
  103MOL0     C13776   2.686   7.030   5.547  0.4140  0.0049  0.2149
  103MOL0     C13777   2.619   7.027   5.421 -0.7267  0.3204 -0.6111
  103MOL0     O13778   2.668   6.986   5.298  0.6735  0.2130  0.2535
  103MOL0     C13779   2.811   6.964   5.294  0.2434 -0.3762 -0.3320
  103MOL0     C13780   2.850   6.923   5.150  0.0519 -0.6194  0.1183
  103MOL0     C13781   2.898   7.045   5.079  0.0676 -0.0830 -0.0516
  103MOL0     C13782   2.917   7.038   4.932  0.3395 -0.2318  0.7915
  103MOL0     C13783   2.922   7.178   4.862  0.0793  0.1083 -0.6732
  103MOL0     C13784   2.984   7.177   4.729 -0.0379 -0.5029 -0.0891
  103MOL0     C13785   3.004   7.325   4.684 -0.3799 -0.2444  0.4865
  103MOL0     C13786   2.882   7.421   4.654  0.0366 -0.2427  0.5581
  103MOL0     N13787   2.806   7.388   4.532  0.1501  0.8040 -0.0211
  103MOL0     C13788   2.681   7.318   4.518  0.4261 -0.6781  0.1438
  103MOL0     C13789   2.665   7.295   4.385 -1.0491 -0.1132  0.6051
  103MOL0     C13790   2.538   7.236   4.331 -0.2578 -0.0164 -0.0400
  103MOL0     C13791   2.467   7.335   4.237 -0.5005  0.0063 -0.1376
  103MOL0     C13792   2.370   7.429   4.309  0.2371 -0.2442  0.7218
  103MOL0     C13793   2.299   7.503   4.204 -0.7389  0.6285 -0.2163
  103MOL0     O13794   2.189   7.580   4.247 -0.3156  0.4195  0.4324
  103MOL0     C13795   2.066   7.522   4.255  0.6566  0.2097  0.8437
  103MOL0     C13796   1.995   7.485   4.366 -0.4689  1.1257  0.6927
  103MOL0     C13797   1.872   7.419   4.352  0.0110 -0.0735  0.0375
  103MOL0     C13798   1.819   7.366   4.484  0.3944  0.3014  0.1756
  103MOL0     C13799   1.803   7.411   4.228  0.2869  0.0142  0.4726
  103MOL0     C13800   1.665   7.367   4.205  0.4686 -0.0004  0.4746
  103MOL0     O13801   1.639   7.307   4.079  0.3021  0.1818 -0.4415
  103MOL0     C13802   1.505   7.259   4.058 -0.6242  0.0835 -0.4267
  103MOL0     C13803   1.449   7.273   3.931 -0.3812 -0.2143 -0.1697
  103MOL0     C13804   1.319   7.229   3.900  0.0542 -0.3165 -0.1707
  103MOL0     C13805   1.244   7.163   4.001  0.1673  0.0467 -0.8247
  103MOL0     O13806   1.111   7.117   3.989 -0.1874  0.6453 -0.0486
  103MOL0     C13807   1.039   7.152   3.873  1.0377 -0.5984 -0.0760
  103MOL0     C13808   0.886   7.139   3.897 -0.3500 -0.5598 -0.6523
  103MOL0     C13809   0.815   7.082   3.772  0.5330  0.0953 -0.0677
  103MOL0     C13810   0.664   7.068   3.807  0.8632  0.8213  0.0386
  103MOL0     C13811   0.601   7.023   3.678  0.1363  0.3974 -0.0201
  103MOL0     C13812   0.452   7.033   3.678 -0.3711  0.6612  0.7556
  103MOL0     C13813   0.396   6.998   3.541  0.6275 -0.3918 -0.0951
  103MOL0     C13814   0.236   7.014   3.525 -0.3151  0.1354 -0.5449
  103MOL0    Cl13815   0.146   6.918   3.652  0.2755  0.2376  0.0067
  103MOL0     C13816   1.302   7.139   4.121  0.0648 -0.1794 -1.0779
  103MOL0     C13817   1.431   7.186   4.151 -0.1436  0.6828  0.5768
  103MOL0     O13818   1.588   7.352   4.304 -0.2709 -0.2044  0.1046
  103MOL0     C13819   1.876   7.453   4.116  0.2232  0.0879 -0.2785
  103MOL0     C13820   2.004   7.506   4.133 -0.2577 -1.1886 -0.6613
  103MOL0     N13821   2.778   7.338   4.325 -0.0004 -0.1801  0.8213
  103MOL0     N13822   2.867   7.386   4.410  0.0040  0.3812  0.1579
  103MOL0     C13823   2.487   7.072   5.419  0.1672 -0.2554 -0.1741
  103MOL0     C13824   2.435   7.142   5.533 -0.0123  0.0658  1.1322
  103MOL0     C13825   2.360   7.380   5.885  0.0731 -0.0469  0.4386
  103MOL0     C13826   2.253   7.321   5.946  0.8297 -0.3725  0.5786
  103MOL0     C13827   2.220   7.369   6.081 -0.7610  0.0905  0.2745
  103MOL0     C13828   2.288   7.476   6.140  0.0602 -1.3392 -0.1649
  103MOL0     O13829   2.247   7.530   6.262  0.5576  0.3508 -0.6612
  103MOL0     C13830   2.290   7.656   6.306  0.0462 -0.1193 -0.6664
  103MOL0     C13831   2.209   7.690   6.423  0.6243 -0.4326  0.0569
  103MOL0     C13832   2.059   7.699   6.396 -0.0288 -0.1989 -0.5818
  103MOL0     C13833   1.967   7.732   6.521  0.2736 -0.4557 -0.4189
  103MOL0     C13834   2.001   7.652   6.640  0.6117  0.1464 -0.3706
  103MOL0     C13835   2.040   7.586   6.737  0.0613 -0.6416  0.9672
  103MOL0     C13836   2.396   7.536   6.074 -0.8035  0.6587 -0.3557
  103MOL0     C13837   2.439   7.488   5.949  0.3484  1.3448 -0.2890
  103MOL0     H13838   2.659   7.080   5.767 -2.2615 -3.1710  0.5283
  103MOL0     H13839   2.777   6.972   5.560  1.2261  1.4796  1.4604
  103MOL0     H13840   2.876   7.047   5.324  1.3014 -1.7726  1.4519
  103MOL0     H13841   2.844   6.885   5.363 -2.1669 -0.0889  1.2749
  103MOL0     H13842   2.929   6.847   5.149  1.6182  0.9412  0.4290
  103MOL0     H13843   2.760   6.873   5.114  0.7800 -3.2968  1.7246
  103MOL0     H13844   2.840   7.129   5.117  0.2987 -0.0449  0.2157
  103MOL0     H13845   3.000   7.068   5.110 -0.0011 -2.1881  2.0156
  103MOL0     H13846   3.005   6.983   4.899  2.6979  2.9989  1.1777
  103MOL0     H13847   2.825   6.994   4.891 -0.2105  1.8979 -0.4220
  103MOL0     H13848   2.825   7.227   4.860  1.6856  3.4986 -1.4441
  103MOL0     H13849   2.983   7.239   4.929 -0.8616  0.2657  0.0549
  103MOL0     H13850   3.086   7.136   4.730  0.3797  0.4846 -0.0795
  103MOL0     H13851   2.924   7.128   4.652 -0.9178 -1.5330  1.2194
  103MOL0     H13852   3.074   7.360   4.760  4.0931 -1.2341 -2.7862
  103MOL0     H13853   3.068   7.333   4.595  2.0142  1.3083  2.2345
  103MOL0     H13854   2.908   7.526   4.646 -1.4732  0.1995  1.0927
  103MOL0     H13855   2.816   7.428   4.742 -0.0380  2.2474  0.3745
  103MOL0     H13856   2.615   7.294   4.601  3.5021 -0.3698  2.8688
  103MOL0     H13857   2.568   7.151   4.268  1.5555  1.5758 -1.4195
  103MOL0     H13858   2.466   7.207   4.409 -0.1162 -0.2816 -0.0049
  103MOL0     H13859   2.412   7.283   4.158 -1.1916  3.0358 -1.7966
  103MOL0     H13860   2.549   7.388   4.187  0.4709  0.4320  1.8245
  103MOL0     H13861   2.418   7.506   4.369 -1.1850  0.6510  0.7563
  103MOL0     H13862   2.305   7.365   4.370  0.7153  1.9995  3.8400
  103MOL0     H13863   2.274   7.435   4.123  0.8213  1.8069 -1.7453
  103MOL0     H13864   2.373   7.570   4.160  0.1567 -1.7078 -2.5092
  103MOL0     H13865   2.035   7.496   4.467 -1.0979 -0.7587  1.1966
  103MOL0     H13866   1.811   7.258   4.467 -0.3691  0.3851 -0.0051
  103MOL0     H13867   1.891   7.381   4.565 -1.8595  2.3003  1.9114
  103MOL0     H13868   1.724   7.404   4.522  0.5844  2.0791 -0.9986
  103MOL0     H13869   1.502   7.334   3.858 -1.2754 -2.3287 -2.7234
  103MOL0     H13870   1.284   7.246   3.798  1.5030  1.2285 -0.4664
  103MOL0     H13871   1.071   7.250   3.837  5.4220 -1.7337  0.1667
  103MOL0     H13872   1.062   7.078   3.796 -1.0450 -1.3492 -0.0283
  103MOL0     H13873   0.872   7.078   3.986  3.6585  0.4838  0.9124
  103MOL0     H13874   0.842   7.234   3.930  0.2432  0.0604 -1.5882
  103MOL0     H13875   0.871   6.998   3.732 -0.3713 -0.2502 -0.6538
  103MOL0     H13876   0.831   7.172   3.711 -0.0065  1.0285  1.1004
  103MOL0     H13877   0.640   6.995   3.885 -0.4383 -1.9689 -2.7483
  103MOL0     H13878   0.621   7.160   3.849 -2.5678 -0.4415 -0.3803
  103MOL0     H13879   0.630   6.918   3.665 -1.0315 -0.3357  2.6290
  103MOL0     H13880   0.642   7.087   3.599 -1.0523 -0.1442 -1.1164
  103MOL0     H13881   0.414   6.964   3.755 -1.3234  0.2241 -0.0896
  103MOL0     H13882   0.412   7.134   3.691  0.1895  0.8042  1.4278
  103MOL0     H13883   0.427   6.899   3.510  3.5663  0.2325  0.5479
  103MOL0     H13884   0.441   7.069   3.471 -0.7009 -1.1789 -1.8326
  103MOL0     H13885   0.211   6.979   3.425 -0.9952  0.5674 -0.5320
  103MOL0     H13886   0.209   7.120   3.534  2.1977  0.7063  1.1740
  103MOL0     H13887   1.256   7.081   4.200  1.5196 -0.7219 -0.5949
  103MOL0     H13888   1.470   7.163   4.250  1.1664  1.8529  0.3606
  103MOL0     H13889   1.850   7.429   4.013  2.4439 -1.1114 -0.6265
  103MOL0     H13890   2.059   7.530   4.042 -0.1271  1.5564  0.0507
  103MOL0     H13891   2.434   7.089   5.326  1.4761  2.8039 -0.4698
  103MOL0     H13892   2.339   7.192   5.521 -0.5863 -1.3788 -0.7640
  103MOL0     H13893   2.191   7.243   5.904  0.9831 -0.0674 -0.2263
  103MOL0     H13894   2.132   7.329   6.131 -1.6115  2.4504  0.8221
  103MOL0     H13895   2.397   7.664   6.324  0.0726 -0.4442 -0.6684
  103MOL0     H13896   2.280   7.733   6.230 -1.2354  0.4595  0.0457
  103MOL0     H13897   2.243   7.788   6.458 -0.2612  0.2031 -0.7950
  103MOL0     H13898   2.232   7.623   6.506 -1.3735 -2.9298 -1.2620
  103MOL0     H13899   2.026   7.606   6.348  1.8661 -1.8454  1.1556
  103MOL0     H13900   2.023   7.771   6.322 -1.6755 -0.1194  0.2357
  103MOL0     H13901   1.864   7.721   6.488  0.1517  0.4165 -0.3601
  103MOL0     H13902   1.979   7.835   6.556  1.6932 -0.6781 -0.1782
  103MOL0     H13903   2.100   7.540   6.814  1.3896 -0.6728 -0.0434
  103MOL0     H13904   2.452   7.621   6.111  0.6766  0.3981 -1.8897
  103MOL0     H13905   2.523   7.526   5.891  2.4001 -3.2044 -0.6651
  104MOL0     O13906   6.009   1.796  10.914  0.1675 -0.6004  0.2882
  104MOL0     C13907   5.954   1.752  10.815 -0.1870 -0.8882  1.3732
  104MOL0     O13908   5.820   1.765  10.789 -0.7774 -0.0841 -0.7553
  104MOL0     C13909   5.740   1.657  10.753 -0.3909  0.1312  0.8420
  104MOL0     C13910   5.774   1.516  10.758 -0.1730 -0.3114 -0.0636
  104MOL0     C13911   5.672   1.416  10.742  0.1827  0.4149  0.2400
  104MOL0     C13912   5.537   1.454  10.707 -0.0142  0.8888 -0.0254
  104MOL0     O13913   5.439   1.365  10.668 -0.2997  1.0756 -0.4468
  104MOL0     C13914   5.477   1.226  10.639  0.0918 -0.0157  0.3347
  104MOL0     C13915   5.363   1.131  10.594 -0.0663  0.5511  0.0321
  104MOL0     C13916   5.269   1.185  10.484 -0.0356  0.5067  0.4587
  104MOL0     C13917   5.171   1.090  10.425 -0.4470  1.5994  0.8112
  104MOL0     C13918   5.076   1.149  10.321  0.5259 -0.2237 -0.2896
  104MOL0     C13919   4.991   1.041  10.248  0.0190 -0.4304  0.0685
  104MOL0     C13920   4.913   1.094  10.128  0.9636  0.1511 -0.0475
  104MOL0     C13921   4.971   1.032  10.001  0.7547  0.4531  0.5180
  104MOL0     N13922   4.879   1.042   9.884 -0.8794 -0.3324  0.1490
  104MOL0     C13923   4.785   1.138   9.859 -0.0455 -0.1113 -0.4407
  104MOL0     C13924   4.711   1.077   9.763  1.1174  0.1390 -0.0681
  104MOL0     C13925   4.580   1.136   9.709 -0.6515  0.9283  0.2221
  104MOL0     C13926   4.502   1.011   9.643 -0.2058  0.5470 -0.2332
  104MOL0     C13927   4.420   0.922   9.745  0.2377  0.3709  0.2488
  104MOL0     C13928   4.362   0.804   9.659  0.1803 -0.6748  0.4239
  104MOL0     O13929   4.257   0.743   9.733  0.1096  0.2892  0.0147
  104MOL0     C13930   4.139   0.699   9.677  0.3822 -0.2611 -0.8629
  104MOL0     C13931   4.116   0.675   9.545  0.7745  0.4208  0.3415
  104MOL0     C13932   3.989   0.659   9.501  0.4406 -0.4464  0.9174
  104MOL0     C13933   3.986   0.640   9.347  1.0841 -0.9546  0.4202
  104MOL0     C13934   3.885   0.670   9.590 -0.6488  0.2158  0.1574
  104MOL0     C13935   3.750   0.651   9.552 -0.1512  0.8642 -0.1554
  104MOL0     O13936   3.658   0.728   9.617  0.7447  0.6128 -0.3075
  104MOL0     C13937   3.521   0.722   9.590  0.2176 -0.3516  1.5284
  104MOL0     C13938   3.428   0.735   9.700  0.1867 -0.8541  0.6401
  104MOL0     C13939   3.289   0.745   9.667 -0.2017  0.1560  0.7248
  104MOL0     C13940   3.243   0.756   9.532 -0.1684  0.0293 -0.6470
  104MOL0     O13941   3.111   0.771   9.488 -0.0203  0.0995 -0.0810
  104MOL0     C13942   3.014   0.731   9.587  0.2248  0.4388 -0.5147
  104MOL0     C13943   2.879   0.746   9.530  0.7373  0.1547  0.6762
  104MOL0     C13944   2.846   0.893   9.488  0.1794  0.4907 -0.4187
  104MOL0     C13945   2.836   0.981   9.607  0.6518  0.2446  0.0917
  104MOL0     C13946   2.774   1.116   9.575  0.4839  0.5368  0.0382
  104MOL0     C13947   2.722   1.201   9.698 -0.0403  0.6632  0.7360
  104MOL0     C13948   2.628   1.308   9.655 -0.2611 -1.0781 -0.5204
  104MOL0     C13949   2.555   1.398   9.762 -0.1590  0.0750  0.2907
  104MOL0    Cl13950   2.462   1.516   9.678 -0.3057 -0.1660  0.2498
  104MOL0     C13951   3.339   0.747   9.430 -0.1221 -0.4877 -0.2206
  104MOL0     C13952   3.474   0.734   9.462  0.3432 -0.0052  0.3039
  104MOL0     O13953   3.720   0.560   9.476  0.0630  0.5167 -0.1298
  104MOL0     C13954   3.905   0.684   9.724  0.0710 -0.1372 -0.1771
  104MOL0     C13955   4.031   0.700   9.768 -0.7162 -0.2218 -0.4513
  104MOL0     N13956   4.766   0.959   9.731 -0.3633  0.0762  0.7849
  104MOL0     N13957   4.879   0.955   9.782  0.0785 -0.2247 -0.3343
  104MOL0     C13958   5.510   1.594  10.701  0.5889  0.3696 -0.0362
  104MOL0     C13959   5.608   1.695  10.724 -0.2259 -0.3236 -0.2741
  104MOL0     C13960   6.031   1.693  10.706  0.1791  0.1644  0.0782
  104MOL0     C13961   5.997   1.692  10.572 -0.3446  0.9177 -0.4993
  104MOL0     C13962   6.077   1.626  10.473 -0.8355 -0.5372 -0.0604
  104MOL0     C13963   6.188   1.543  10.507 -0.1529 -0.3953  0.3325
  104MOL0     O13964   6.269   1.476  10.412  0.7398  0.7232  0.2277
  104MOL0     C13965   6.369   1.388  10.460 -0.7346  0.4500  0.2107
  104MOL0     C13966   6.420   1.287  10.349 -0.1659  0.1764 -0.2275
  104MOL0     C13967   6.358   1.147  10.363  0.4440 -0.1099  0.5341
  104MOL0     C13968   6.217   1.156  10.312  0.2804 -0.0258  0.3528
  104MOL0     C13969   6.168   1.025  10.271 -0.6054 -0.9390  0.0511
  104MOL0     C13970   6.149   0.912  10.229 -0.0038 -0.7921 -0.5452
  104MOL0     C13971   6.210   1.545  10.647 -0.2775  0.1454 -0.3076
  104MOL0     C13972   6.142   1.619  10.747  0.2976 -1.0044  0.6453
  104MOL0     H13973   5.867   1.471  10.791 -0.3201  1.1817  2.7237
  104MOL0     H13974   5.703   1.312  10.746  0.1753  0.3745 -0.5423
  104MOL0     H13975   5.565   1.224  10.575  0.6941  1.3832  1.0843
  104MOL0     H13976   5.524   1.189  10.730  3.1539  0.7369 -0.8258
  104MOL0     H13977   5.415   1.043  10.554 -1.0532 -1.2472  2.4699
  104MOL0     H13978   5.304   1.103  10.682  0.7928 -0.1280  0.4053
  104MOL0     H13979   5.214   1.269  10.527 -0.1876  1.1158 -0.8818
  104MOL0     H13980   5.327   1.232  10.404 -0.2532  0.1519  0.0847
  104MOL0     H13981   5.227   1.004  10.387  1.3564  3.8929 -2.1184
  104MOL0     H13982   5.108   1.039  10.499 -0.0852 -0.0553  0.0297
  104MOL0     H13983   5.009   1.210  10.382 -1.2446 -1.9900 -0.3753
  104MOL0     H13984   5.143   1.199  10.250  1.2726  1.6951  1.6670
  104MOL0     H13985   5.066   0.962  10.231 -0.1404 -0.7620  0.8335
  104MOL0     H13986   4.918   0.996  10.316  1.8414 -3.6913  0.1050
  104MOL0     H13987   4.807   1.070  10.131  1.0519 -0.3181 -0.5084
  104MOL0     H13988   4.915   1.202  10.110 -3.0872  0.9002  2.6905
  104MOL0     H13989   4.992   0.928  10.031  0.0854  0.5778  1.4435
  104MOL0     H13990   5.065   1.083   9.979  0.6884  0.1742 -0.4473
  104MOL0     H13991   4.757   1.227   9.914 -1.2587 -0.2050 -0.8620
  104MOL0     H13992   4.522   1.193   9.782 -1.3303 -1.3455  1.5437
  104MOL0     H13993   4.616   1.211   9.637 -0.5324  0.6046 -0.0571
  104MOL0     H13994   4.567   0.947   9.582 -0.2366 -2.0105  2.2422
  104MOL0     H13995   4.434   1.037   9.561  2.8987 -1.0921 -3.6263
  104MOL0     H13996   4.344   0.981   9.797  2.0587  2.0052  1.2241
  104MOL0     H13997   4.483   0.871   9.819 -0.9132 -2.4270 -0.5742
  104MOL0     H13998   4.435   0.730   9.626  1.0377  0.6858 -0.8840
  104MOL0     H13999   4.307   0.859   9.581 -1.0473 -0.1520  1.6157
  104MOL0     H14000   4.206   0.670   9.484  0.5118  5.1897 -0.8307
  104MOL0     H14001   3.890   0.605   9.309  0.5167 -0.2770  1.1913
  104MOL0     H14002   3.995   0.730   9.285 -1.3355 -0.9327  0.0228
  104MOL0     H14003   4.062   0.566   9.319 -0.9942 -2.7321 -0.7715
  104MOL0     H14004   3.470   0.737   9.800  3.0618  4.2745 -0.2975
  104MOL0     H14005   3.205   0.751   9.736 -2.0525 -2.6437 -1.0685
  104MOL0     H14006   3.032   0.630   9.625 -0.2839  0.6493  0.3010
  104MOL0     H14007   3.020   0.795   9.675 -3.6829 -1.0376  1.0463
  104MOL0     H14008   2.868   0.674   9.449  0.8907  0.1956  0.6164
  104MOL0     H14009   2.814   0.717   9.613  1.2434 -1.6827  0.4807
  104MOL0     H14010   2.745   0.881   9.448 -0.4493 -0.5781  1.3910
  104MOL0     H14011   2.920   0.934   9.419  1.2259 -0.2227  0.2572
  104MOL0     H14012   2.768   0.927   9.674 -0.4727 -0.9353 -1.9057
  104MOL0     H14013   2.934   0.986   9.654  0.5455  0.1939  0.3205
  104MOL0     H14014   2.693   1.095   9.505  0.4706 -0.0915  0.2350
  104MOL0     H14015   2.852   1.183   9.539  2.2251  1.1162  4.2504
  104MOL0     H14016   2.683   1.129   9.770  0.7832 -0.5039  0.0533
  104MOL0     H14017   2.811   1.252   9.736  0.9484  1.9657 -2.9128
  104MOL0     H14018   2.559   1.271   9.579  2.1504  0.9054 -3.9855
  104MOL0     H14019   2.691   1.376   9.596 -3.5459  1.6022 -1.2471
  104MOL0     H14020   2.619   1.444   9.838 -0.7807 -0.2484  1.0254
  104MOL0     H14021   2.478   1.341   9.814 -0.2986 -1.0901 -1.1143
  104MOL0     H14022   3.302   0.755   9.328  1.3463 -1.7865 -0.9091
  104MOL0     H14023   3.543   0.744   9.379  0.1682  3.3157  0.3993
  104MOL0     H14024   3.822   0.684   9.794  1.0107  2.4218  1.0426
  104MOL0     H14025   4.044   0.717   9.874  2.2986  2.4017 -1.0531
  104MOL0     H14026   5.414   1.623  10.660  0.9917 -0.4841 -1.6763
  104MOL0     H14027   5.579   1.798  10.706  0.9087  0.2488  0.9854
  104MOL0     H14028   5.901   1.732  10.542 -0.1146  1.0804 -1.0407
  104MOL0     H14029   6.046   1.643  10.370  2.2539  1.8588 -0.7739
  104MOL0     H14030   6.458   1.449  10.477  1.1534 -1.2024 -2.8447
  104MOL0     H14031   6.344   1.325  10.546  2.5641 -0.9922  0.2598
  104MOL0     H14032   6.528   1.283  10.368  0.3404  3.3066 -1.6639
  104MOL0     H14033   6.409   1.325  10.246  0.0491  1.4600  0.1973
  104MOL0     H14034   6.352   1.101  10.463 -0.7331 -1.1358  0.0192
  104MOL0     H14035   6.425   1.086  10.303  1.3623  2.0051 -0.6543
  104MOL0     H14036   6.191   1.230  10.237 -0.8982  1.0818  1.7812
  104MOL0     H14037   6.155   1.183  10.398 -0.0733  1.3644 -0.3156
  104MOL0     H14038   6.124   0.812  10.199 -1.0656 -0.6473 -0.1745
  104MOL0     H14039   6.300   1.498  10.687 -0.0515  0.5487 -0.3388
  104MOL0     H14040   6.178   1.604  10.849  3.2284 -2.4695 -0.4882
  105MOL0     O14041   7.178  10.622   7.947  0.8090 -0.3103 -0.0505
  105MOL0     C14042   7.091  10.689   7.893 -0.6972 -0.1758  0.3274
  105MOL0     O14043   7.109  10.796   7.807 -0.6050  0.2541 -0.1898
  105MOL0     C14044   7.243  10.826   7.767  0.6144 -0.1845 -0.1515
  105MOL0     C14045   7.362  10.832   7.845 -0.0242 -0.2314  0.6817
  105MOL0     C14046   7.478  10.889   7.783 -0.7837 -0.0557 -0.3922
  105MOL0     C14047   7.485  10.939   7.649  0.1860 -0.3937 -1.1516
  105MOL0     O14048   7.607  10.993   7.601  0.9741  0.3383  0.0835
  105MOL0     C14049   7.604  11.097   7.506 -0.0350  0.7515 -0.0297
  105MOL0     C14050   7.616  11.225   7.587 -0.9703 -0.4391  0.3739
  105MOL0     C14051   7.653  11.352   7.502  0.4343  1.2462 -0.2810
  105MOL0     C14052   7.801  11.352   7.448  0.7777  0.2099 -0.1852
  105MOL0     C14053   7.808  11.457   7.344 -0.6532  0.6178  0.0519
  105MOL0     C14054   7.947  11.432   7.267  0.3863  0.0444 -0.9692
  105MOL0     C14055   7.957  11.551   7.164  0.1667 -0.5837  0.5812
  105MOL0     C14056   7.855  11.553   7.051  0.0492  0.0675  0.0887
  105MOL0     N14057   7.859  11.438   6.960 -0.0961 -0.6600 -0.6887
  105MOL0     C14058   7.965  11.404   6.883 -0.0703  0.7221  0.3085
  105MOL0     C14059   7.911  11.318   6.792  0.1888  0.7343 -0.1488
  105MOL0     C14060   7.979  11.224   6.689  0.6635 -0.9406  0.3613
  105MOL0     C14061   7.951  11.267   6.551 -0.6900  0.1172  0.9671
  105MOL0     C14062   8.058  11.212   6.447 -0.0767  0.1585  0.3747
  105MOL0     C14063   7.984  11.100   6.360  0.5690 -0.2532  0.3482
  105MOL0     O14064   8.078  11.028   6.270  0.3609 -0.2074  0.2939
  105MOL0     C14065   8.192  10.974   6.326 -0.1435  0.5242 -0.6324
  105MOL0     C14066   8.183  10.874   6.426  0.1041 -0.6608  0.3951
  105MOL0     C14067   8.296  10.801   6.455 -0.0298 -0.0092 -0.4638
  105MOL0     C14068   8.289  10.713   6.577  0.0396 -0.1510 -0.1480
  105MOL0     C14069   8.412  10.814   6.381  0.2482 -0.7137 -0.5859
  105MOL0     C14070   8.522  10.718   6.397 -0.5097 -0.4414 -0.0769
  105MOL0     O14071   8.637  10.752   6.328  0.9849  0.3739  0.1754
  105MOL0     C14072   8.754  10.686   6.372 -0.0891  1.7963  0.7284
  105MOL0     C14073   8.779  10.546   6.349  0.3884 -0.7253  0.2577
  105MOL0     C14074   8.910  10.502   6.382 -0.5651  0.1064  0.4320
  105MOL0     C14075   9.007  10.586   6.437  0.3424 -0.4751  0.0416
  105MOL0     O14076   9.130  10.543   6.469 -0.4282 -0.1081 -0.4246
  105MOL0     C14077   9.151  10.434   6.558  1.1399  0.6050 -0.8648
  105MOL0     C14078   9.295  10.457   6.612  0.7154  0.6765  0.7792
  105MOL0     C14079   9.357  10.361   6.718  0.4917  0.8452 -0.2224
  105MOL0     C14080   9.385  10.216   6.664  0.7594  0.5540 -0.0850
  105MOL0     C14081   9.477  10.145   6.765  0.4031 -0.3373 -0.2540
  105MOL0     C14082   9.623  10.173   6.740 -0.7432  0.0065  0.0837
  105MOL0     C14083   9.679  10.070   6.641 -0.3558  0.1159 -0.2120
  105MOL0     C14084   9.831  10.073   6.617  0.0422  0.4033  0.2407
  105MOL0    Cl14085   9.914   9.993   6.767 -0.1072 -0.3511  0.2364
  105MOL0     C14086   8.974  10.717   6.460  1.0903 -0.4433  0.3869
  105MOL0     C14087   8.850  10.767   6.427 -0.3361 -0.4904 -0.9298
  105MOL0     O14088   8.511  10.619   6.472 -0.1214 -0.0424  0.4175
  105MOL0     C14089   8.422  10.918   6.290 -0.2624  0.2256 -0.5745
  105MOL0     C14090   8.316  10.991   6.257  0.7490 -0.4135  0.1106
  105MOL0     N14091   7.775  11.316   6.807  0.4739 -0.0102  1.1473
  105MOL0     N14092   7.746  11.379   6.911  0.8735  0.3606 -0.5210
  105MOL0     C14093   7.362  10.946   7.583  0.2208 -0.7349  0.1407
  105MOL0     C14094   7.244  10.895   7.643 -0.3391 -0.9959 -0.1355
  105MOL0     C14095   6.951  10.657   7.917 -0.3841  0.5871  0.4244
  105MOL0     C14096   6.900  10.540   7.980 -0.3917  0.1766 -0.7855
  105MOL0     C14097   6.759  10.516   7.995 -0.1036 -0.2737  0.0247
  105MOL0     C14098   6.668  10.605   7.933 -0.4128  0.5216 -0.2050
  105MOL0     O14099   6.531  10.574   7.922  0.1935  0.2427  0.3924
  105MOL0     C14100   6.475  10.481   8.011 -0.0513 -0.5452  0.1025
  105MOL0     C14101   6.328  10.513   8.051 -1.1033  0.2160 -0.1309
  105MOL0     C14102   6.318  10.650   8.128 -0.0190  0.4380 -0.0458
  105MOL0     C14103   6.178  10.696   8.119  0.1053  0.5661 -0.2398
  105MOL0     C14104   6.094  10.596   8.201 -0.0228  0.5185 -0.2025
  105MOL0     C14105   6.015  10.534   8.263  0.7905  0.6461  0.0935
  105MOL0     C14106   6.714  10.726   7.872  0.6202  0.5652 -0.0987
  105MOL0     C14107   6.852  10.754   7.865  0.5023  0.2083 -0.1270
  105MOL0     H14108   7.368  10.786   7.943  2.3713  0.9556  1.1856
  105MOL0     H14109   7.569  10.886   7.842  0.0806  1.6990 -1.5539
  105MOL0     H14110   7.693  11.077   7.447 -0.4807 -0.9731 -0.1769
  105MOL0     H14111   7.510  11.104   7.450  0.1438 -1.5154 -0.7132
  105MOL0     H14112   7.519  11.253   7.630 -2.1129  5.9510 -4.7320
  105MOL0     H14113   7.703  11.220   7.653  0.4122  0.6664 -1.2624
  105MOL0     H14114   7.579  11.370   7.423  0.8191  2.3778 -0.3962
  105MOL0     H14115   7.643  11.434   7.573 -0.6176 -0.0815  1.1798
  105MOL0     H14116   7.872  11.353   7.532  0.7567 -3.0560 -0.0047
  105MOL0     H14117   7.821  11.259   7.393  0.0326  0.7899 -1.4725
  105MOL0     H14118   7.727  11.454   7.270  0.0155  1.0723 -0.7165
  105MOL0     H14119   7.802  11.559   7.383  2.1912  2.1126 -2.9031
  105MOL0     H14120   8.033  11.436   7.333  0.0907 -2.6936 -0.2988
  105MOL0     H14121   7.943  11.338   7.211 -0.1377 -0.8878  0.5826
  105MOL0     H14122   7.945  11.645   7.219  0.0830 -0.5182  0.4516
  105MOL0     H14123   8.055  11.544   7.117 -0.3194 -2.1893 -0.2875
  105MOL0     H14124   7.858  11.646   6.993  2.2551  0.5895  0.9390
  105MOL0     H14125   7.753  11.559   7.090 -0.3082  0.9425 -0.9504
  105MOL0     H14126   8.071  11.428   6.874  0.4142 -1.4854 -0.4429
  105MOL0     H14127   8.084  11.203   6.713  1.6874  1.3598 -1.6685
  105MOL0     H14128   7.935  11.124   6.691  0.9815 -1.0969 -0.1576
  105MOL0     H14129   7.968  11.374   6.539 -0.8019  0.1674  1.2579
  105MOL0     H14130   7.854  11.235   6.511  0.1353 -1.7003  0.2747
  105MOL0     H14131   8.152  11.180   6.493  0.6204 -0.4127 -1.3439
  105MOL0     H14132   8.087  11.291   6.377  1.7990  1.1133  2.1138
  105MOL0     H14133   7.917  11.150   6.290 -2.0611 -3.0859  0.6823
  105MOL0     H14134   7.920  11.035   6.420  0.6085 -0.6017  0.0138
  105MOL0     H14135   8.087  10.859   6.474  1.1629 -0.7105  2.6262
  105MOL0     H14136   8.377  10.722   6.641 -2.1829  0.5227  3.0146
  105MOL0     H14137   8.203  10.741   6.638  1.9273  0.6513  2.2805
  105MOL0     H14138   8.283  10.608   6.544  0.8456  0.5930 -2.9049
  105MOL0     H14139   8.703  10.488   6.299  0.9915 -1.4569  0.1722
  105MOL0     H14140   8.940  10.400   6.363  0.0820  0.5847 -1.3560
  105MOL0     H14141   9.082  10.436   6.643  0.1421  1.8547 -1.6772
  105MOL0     H14142   9.146  10.333   6.517  2.2501 -0.3743  1.2279
  105MOL0     H14143   9.365  10.470   6.529 -0.1399  2.6829  0.3262
  105MOL0     H14144   9.292  10.555   6.660 -1.9843  0.7524  0.5994
  105MOL0     H14145   9.276  10.351   6.791  1.2905 -2.0174  0.3822
  105MOL0     H14146   9.446  10.404   6.764  0.2990  1.2341 -0.2058
  105MOL0     H14147   9.294  10.156   6.657  0.8528  0.3971  0.0482
  105MOL0     H14148   9.441  10.212   6.571  3.3341  2.6169  1.2407
  105MOL0     H14149   9.458  10.037   6.775  0.5000 -0.3310  0.0135
  105MOL0     H14150   9.448  10.186   6.862  0.6275  0.3207 -0.4615
  105MOL0     H14151   9.631  10.278   6.709  0.6744 -0.4244 -1.1001
  105MOL0     H14152   9.676  10.162   6.834 -1.6594  2.7571  1.0403
  105MOL0     H14153   9.634  10.092   6.544 -0.9746  1.7802  0.4119
  105MOL0     H14154   9.665   9.969   6.681  2.5885 -0.3522 -0.1639
  105MOL0     H14155   9.869  10.172   6.592  3.8186 -0.5492  1.6120
  105MOL0     H14156   9.844  10.016   6.525  1.3431  1.2885 -0.1506
  105MOL0     H14157   9.050  10.784   6.501  0.6858 -0.4097  1.1019
  105MOL0     H14158   8.826  10.872   6.441 -1.2916 -0.5617 -1.9467
  105MOL0     H14159   8.510  10.919   6.227 -0.2897  0.1745 -0.6141
  105MOL0     H14160   8.315  11.064   6.176 -0.4290  0.3792  0.7984
  105MOL0     H14161   7.345  10.999   7.490  0.8201 -0.3928  0.2226
  105MOL0     H14162   7.153  10.919   7.589  0.3801 -1.1307 -1.4593
  105MOL0     H14163   6.964  10.461   8.018  0.0443  0.3123 -1.2268
  105MOL0     H14164   6.732  10.426   8.049  1.2973 -1.1154 -0.6234
  105MOL0     H14165   6.480  10.398   7.940 -0.0004  1.5579 -2.4800
  105MOL0     H14166   6.535  10.463   8.101 -0.6598 -1.5624  0.3229
  105MOL0     H14167   6.268  10.438   8.102 -3.0883  0.9155 -1.3322
  105MOL0     H14168   6.282  10.538   7.955 -0.9311  3.4648  0.5204
  105MOL0     H14169   6.379  10.733   8.091 -1.1759  2.2994  1.9684
  105MOL0     H14170   6.353  10.644   8.231 -1.0243 -0.3488  0.2668
  105MOL0     H14171   6.142  10.700   8.016  1.4629  0.7954 -0.7264
  105MOL0     H14172   6.166  10.792   8.170 -2.8718  0.9037 -1.4259
  105MOL0     H14173   5.947  10.488   8.331  2.8570  0.5237  2.2205
  105MOL0     H14174   6.641  10.792   7.826  2.5961  1.5041 -2.0872
  105MOL0     H14175   6.880  10.850   7.822 -0.7868 -0.2190 -2.0708
  106MOL0     O14176   3.595  10.009  11.006 -0.3391 -0.3528  0.2495
  106MOL0     C14177   3.627  10.086  10.919  0.2072 -0.8041 -0.7257
  106MOL0     O14178   3.548  10.141  10.822 -0.6587  0.4769 -0.3736
  106MOL0     C14179   3.416  10.120  10.816 -0.1281  0.5955 -0.1454
  106MOL0     C14180   3.327  10.068  10.915 -0.2502 -0.5353 -0.0021
  106MOL0     C14181   3.205  10.016  10.886 -0.4153  0.1241  0.4410
  106MOL0     C14182   3.154  10.038  10.760  0.5699  0.2354  0.7469
  106MOL0     O14183   3.026   9.999  10.734  0.5294 -0.8675 -0.6804
  106MOL0     C14184   2.927  10.074  10.800  0.4194 -0.1102 -0.4943
  106MOL0     C14185   2.796  10.034  10.745 -0.1614  0.2436 -0.3844
  106MOL0     C14186   2.748   9.897  10.803  0.0220  0.5011  0.0867
  106MOL0     C14187   2.604   9.872  10.756 -0.1455 -0.3471 -0.2288
  106MOL0     C14188   2.555   9.734  10.789 -0.0656  0.4897 -0.0266
  106MOL0     C14189   2.400   9.714  10.786  0.3356  0.4228  0.3359
  106MOL0     C14190   2.343   9.718  10.645 -0.6176  0.4414 -0.4777
  106MOL0     C14191   2.204   9.658  10.631  0.1998 -0.4319 -0.6298
  106MOL0     N14192   2.140   9.662  10.504  0.5559  0.0689  0.5930
  106MOL0     C14193   2.029   9.743  10.470 -0.7667  0.8106 -0.5668
  106MOL0     C14194   2.013   9.720  10.336 -0.0876 -0.6382 -0.6266
  106MOL0     C14195   1.915   9.790  10.248  0.0564  0.2364 -0.4627
  106MOL0     C14196   1.943   9.937  10.216 -1.0555  0.1082 -0.6051
  106MOL0     C14197   2.040   9.939  10.095  0.5234 -0.3205 -0.3793
  106MOL0     C14198   2.185   9.952  10.131 -0.3174 -0.6891  0.8848
  106MOL0     O14199   2.262   9.960  10.004  0.4732  0.7860  0.4130
  106MOL0     C14200   2.291   9.852   9.924 -0.8302  1.8684 -0.9253
  106MOL0     C14201   2.250   9.727   9.962  0.4186  0.4416 -0.6376
  106MOL0     C14202   2.305   9.612   9.887  0.0474 -0.0911  0.4043
  106MOL0     C14203   2.268   9.470   9.936  0.1859 -0.1241 -1.1062
  106MOL0     C14204   2.397   9.634   9.784  1.0575  0.8163 -0.6392
  106MOL0     C14205   2.450   9.520   9.694 -0.0748 -0.2093 -0.1556
  106MOL0     O14206   2.425   9.386   9.725  0.0473  0.0524 -0.5208
  106MOL0     C14207   2.501   9.279   9.669  0.4060 -0.1132 -0.4807
  106MOL0     C14208   2.439   9.172   9.601 -0.0966  0.0215 -0.2212
  106MOL0     C14209   2.505   9.052   9.579 -0.0482  0.1332 -0.1051
  106MOL0     C14210   2.634   9.037   9.626 -0.3324 -0.3870 -0.0502
  106MOL0     O14211   2.703   8.919   9.601  1.2927 -0.0763 -0.6030
  106MOL0     C14212   2.792   8.861   9.702 -1.1841  0.5798  1.1643
  106MOL0     C14213   2.920   8.819   9.630 -0.3348  0.2833 -0.5592
  106MOL0     C14214   3.019   8.930   9.606 -0.2167  0.0895  0.1232
  106MOL0     C14215   3.165   8.897   9.616 -0.1990 -0.5723  0.7106
  106MOL0     C14216   3.225   8.855   9.474 -0.6929 -0.3160 -0.8138
  106MOL0     C14217   3.173   8.721   9.415  0.0339  0.3890  0.0072
  106MOL0     C14218   3.221   8.602   9.509  0.1980 -0.0959  0.3697
  106MOL0     C14219   3.205   8.463   9.439  0.5626 -0.5135 -1.3420
  106MOL0    Cl14220   3.338   8.432   9.326  0.3967  0.1613  1.2058
  106MOL0     C14221   2.709   9.148   9.675 -0.0622  0.3492  0.1921
  106MOL0     C14222   2.639   9.263   9.697 -0.8058  0.5131  0.5278
  106MOL0     O14223   2.520   9.557   9.598  0.2096  0.0133 -0.0109
  106MOL0     C14224   2.439   9.768   9.754 -0.0191 -0.3461 -1.0022
  106MOL0     C14225   2.376   9.872   9.821  0.0083 -0.4384  0.6950
  106MOL0     N14226   2.104   9.618  10.304  0.3101  0.6496  0.7165
  106MOL0     N14227   2.171   9.584  10.402  0.9613 -0.0208 -0.2126
  106MOL0     C14228   3.232  10.109  10.665  1.0930  0.7057  0.0499
  106MOL0     C14229   3.360  10.134  10.694 -1.0554 -0.6736  0.3961
  106MOL0     C14230   3.750  10.155  10.940 -0.8631  0.0241 -0.3636
  106MOL0     C14231   3.871  10.086  10.976 -0.7771 -0.6018  0.4873
  106MOL0     C14232   3.983  10.157  11.007 -0.0147  0.4104 -0.1501
  106MOL0     C14233   3.982  10.294  11.016  0.3839  0.2030 -0.1769
  106MOL0     O14234   4.095  10.359  11.048  0.1367 -0.0167  0.0816
  106MOL0     C14235   4.101  10.507  11.028  0.4531  0.7731  0.9623
  106MOL0     C14236   4.242  10.516  11.063  0.5185  0.6154 -0.1175
  106MOL0     C14237   4.341  10.511  10.948  0.2907 -0.7780  0.6693
  106MOL0     C14238   4.481  10.574  10.965  0.0882  0.0272  0.0328
  106MOL0     C14239   4.582  10.496  11.046  0.5876 -0.5461  0.7888
  106MOL0     C14240   4.648  10.446  11.141 -0.5886 -0.5232 -0.3823
  106MOL0     C14241   3.863  10.366  10.991 -0.2186  0.1925  0.0147
  106MOL0     C14242   3.747  10.292  10.960 -0.4742  0.7180 -0.4778
  106MOL0     H14243   3.356  10.059  11.019 -2.0620  0.4270  0.6265
  106MOL0     H14244   3.145   9.951  10.950  0.2172 -5.3109 -3.6791
  106MOL0     H14245   2.925  10.055  10.908 -1.6698  1.0732 -0.2773
  106MOL0     H14246   2.928  10.181  10.778  1.6429  0.0197  0.0759
  106MOL0     H14247   2.714  10.101  10.774 -0.7900 -0.2403 -1.0236
  106MOL0     H14248   2.801  10.038  10.636 -0.0277  0.5362 -0.3687
  106MOL0     H14249   2.808   9.811  10.771  1.8789  0.7557  2.5499
  106MOL0     H14250   2.738   9.906  10.912 -2.0587  3.2154 -0.2150
  106MOL0     H14251   2.535   9.947  10.793 -0.7796 -1.2540  0.4824
  106MOL0     H14252   2.603   9.878  10.647 -2.7932  0.2400 -0.2285
  106MOL0     H14253   2.601   9.664  10.718  0.4343 -0.2940  1.0401
  106MOL0     H14254   2.587   9.707  10.890 -0.1863  3.2755  0.8266
  106MOL0     H14255   2.383   9.611  10.820  2.2665  0.3874  1.3655
  106MOL0     H14256   2.355   9.785  10.856 -0.2361 -0.1400  0.5505
  106MOL0     H14257   2.347   9.818  10.600  2.3328  0.0117 -1.3594
  106MOL0     H14258   2.402   9.652  10.581 -0.5495  2.7321 -2.9566
  106MOL0     H14259   2.142   9.712  10.703 -0.7941 -1.5709 -0.6128
  106MOL0     H14260   2.204   9.551  10.653 -1.5884 -0.8037 -2.2219
  106MOL0     H14261   1.984   9.818  10.535  1.5919  0.5150  1.5564
  106MOL0     H14262   1.894   9.737  10.155 -1.2756  0.1784 -0.1507
  106MOL0     H14263   1.823   9.800  10.306 -1.0753 -0.6215 -2.0089
  106MOL0     H14264   1.978   9.991  10.305 -1.0896  0.5484 -0.8533
  106MOL0     H14265   1.860   9.994  10.172 -2.9517 -0.4136  2.0752
  106MOL0     H14266   2.020  10.030  10.037  1.8018  1.3269  1.6518
  106MOL0     H14267   2.024   9.843  10.045  3.0927 -1.1693  0.2915
  106MOL0     H14268   2.218   9.878  10.205 -1.2723 -0.1010  1.9388
  106MOL0     H14269   2.191  10.050  10.179  2.4542  0.5012 -1.5920
  106MOL0     H14270   2.189   9.715  10.051 -0.7708  1.0599 -1.3532
  106MOL0     H14271   2.223   9.418   9.851  0.4358  3.3465 -3.5380
  106MOL0     H14272   2.350   9.406   9.972 -1.9849 -3.4239 -1.6167
  106MOL0     H14273   2.190   9.476  10.012  2.6057 -1.8836  1.7839
  106MOL0     H14274   2.336   9.177   9.566  0.3864 -3.7417 -2.7307
  106MOL0     H14275   2.444   8.978   9.529 -1.4604  1.7002 -0.8024
  106MOL0     H14276   2.818   8.927   9.786  3.6324  1.2043 -0.5183
  106MOL0     H14277   2.741   8.770   9.734 -0.6116  0.9397  3.2403
  106MOL0     H14278   2.969   8.743   9.692  1.0982  1.1386 -0.5962
  106MOL0     H14279   2.890   8.775   9.534  1.2005  3.2491 -2.5696
  106MOL0     H14280   2.997   9.001   9.687 -1.7896 -0.2898  0.0453
  106MOL0     H14281   2.994   8.972   9.509 -0.5716 -1.7814 -0.6416
  106MOL0     H14282   3.220   8.989   9.638  0.6740 -0.6110 -1.1977
  106MOL0     H14283   3.185   8.831   9.701  1.2775 -2.7826 -1.2501
  106MOL0     H14284   3.334   8.847   9.469 -0.5917  0.5248 -0.0868
  106MOL0     H14285   3.194   8.933   9.403 -0.4081 -0.9986 -1.7056
  106MOL0     H14286   3.064   8.723   9.405 -0.3454  0.2598  3.0774
  106MOL0     H14287   3.211   8.734   9.313 -0.2038  0.2745 -0.0958
  106MOL0     H14288   3.149   8.589   9.590  0.1477 -4.3322 -0.1667
  106MOL0     H14289   3.318   8.612   9.557  0.6658 -0.0598 -0.5578
  106MOL0     H14290   3.107   8.454   9.391  0.0726 -2.9537 -0.0205
  106MOL0     H14291   3.230   8.394   9.520 -0.8765  1.9605  1.4206
  106MOL0     H14292   2.814   9.144   9.702 -0.7729 -4.0253  3.4185
  106MOL0     H14293   2.693   9.342   9.749  2.6140 -0.7900 -0.8065
  106MOL0     H14294   2.514   9.786   9.677  2.9650  1.2954  2.0510
  106MOL0     H14295   2.392   9.976   9.795 -0.5959 -0.7733 -1.1615
  106MOL0     H14296   3.200  10.099  10.562  1.1243 -0.1441  0.1227
  106MOL0     H14297   3.429  10.170  10.618 -1.3382  2.1466  1.3802
  106MOL0     H14298   3.873   9.978  10.979 -0.9120 -0.7058 -1.7016
  106MOL0     H14299   4.070  10.096  11.025  1.3410  1.3971 -2.7520
  106MOL0     H14300   4.076  10.537  10.926  0.2667 -2.2251  0.0578
  106MOL0     H14301   4.036  10.562  11.098 -0.0329  1.5516 -0.0701
  106MOL0     H14302   4.271  10.453  11.148 -2.2635 -0.9000 -0.1878
  106MOL0     H14303   4.239  10.618  11.102  0.4328  0.8794 -0.7950
  106MOL0     H14304   4.281  10.553  10.867 -0.6937 -1.5853  0.9631
  106MOL0     H14305   4.356  10.405  10.928 -0.9180 -1.5633  3.3520
  106MOL0     H14306   4.466  10.675  11.005 -0.5970  0.9627 -2.4004
  106MOL0     H14307   4.514  10.584  10.861  1.7125 -3.4029  0.0907
  106MOL0     H14308   4.715  10.401  11.212  0.2897  1.4782  0.1181
  106MOL0     H14309   3.855  10.473  11.000  0.1569  0.1471  1.0324
  106MOL0     H14310   3.658  10.351  10.944 -2.0876 -0.9290  1.8345
  107MOL0     O14311  10.988   9.531   8.962 -0.9211 -0.4708  0.0361
  107MOL0     C14312  11.050   9.451   9.031  0.7747  0.7745 -0.1358
  107MOL0     O14313  11.161   9.373   8.990 -0.3441 -0.1432 -0.0001
  107MOL0     C14314  11.234   9.403   8.881 -0.7006 -0.0680  0.1183
  107MOL0     C14315  11.256   9.523   8.814  0.4721 -0.6551 -0.2598
  107MOL0     C14316  11.352   9.523   8.703 -0.6724  0.4139  0.7364
  107MOL0     C14317  11.446   9.423   8.693 -0.8656 -0.2334 -1.1078
  107MOL0     O14318  11.558   9.430   8.615  0.9060 -0.3322 -0.2968
  107MOL0     C14319  11.550   9.449   8.477  0.0414 -0.1609 -0.1102
  107MOL0     C14320  11.588   9.319   8.402 -0.2114 -0.6773  0.1296
  107MOL0     C14321  11.614   9.350   8.259 -0.0389  0.4675  0.4905
  107MOL0     C14322  11.509   9.426   8.177  0.1121 -0.0371 -0.4795
  107MOL0     C14323  11.363   9.373   8.178 -0.9667 -0.2639 -0.1890
  107MOL0     C14324  11.340   9.227   8.127  0.4036 -0.6045 -0.3193
  107MOL0     C14325  11.382   9.212   7.982 -0.3917  0.0455 -0.5996
  107MOL0     C14326  11.384   9.064   7.944  0.6688  0.3529  0.0139
  107MOL0     N14327  11.472   8.976   8.020 -0.2518 -0.4414 -0.2872
  107MOL0     C14328  11.609   8.989   8.045 -0.4610 -0.4356  0.3233
  107MOL0     C14329  11.637   8.895   8.139  0.2596 -0.4429  0.2063
  107MOL0     C14330  11.770   8.852   8.200  0.2242  0.2968 -0.6179
  107MOL0     C14331  11.859   8.983   8.238  0.5639  0.3436  0.4341
  107MOL0     C14332  11.954   8.966   8.355 -0.2487  0.2507  0.1034
  107MOL0     C14333  11.883   8.918   8.479  1.1698  0.7394 -0.4339
  107MOL0     O14334  11.759   8.988   8.489  0.5261 -0.6707  0.5899
  107MOL0     C14335  11.665   8.940   8.573  0.8850 -0.2676 -0.4286
  107MOL0     C14336  11.694   8.908   8.705  0.9174 -0.1634  0.2977
  107MOL0     C14337  11.595   8.846   8.786  0.0007 -0.4460  0.3256
  107MOL0     C14338  11.646   8.792   8.918 -0.1429  0.6006 -0.7982
  107MOL0     C14339  11.458   8.841   8.742 -0.3299  0.4343 -0.5857
  107MOL0     C14340  11.347   8.798   8.828 -0.6609  0.7762 -0.0117
  107MOL0     O14341  11.245   8.751   8.758 -0.2853  0.2618 -0.3769
  107MOL0     C14342  11.130   8.712   8.824 -0.0641 -0.5150  0.6272
  107MOL0     C14343  11.018   8.801   8.811 -0.9810 -0.1027 -0.0870
  107MOL0     C14344  10.895   8.768   8.867 -0.6222  0.0692  0.1193
  107MOL0     C14345  10.887   8.675   8.970 -0.3448 -0.9684  0.3796
  107MOL0     O14346  10.791   8.689   9.071  0.4221 -0.2252  0.2791
  107MOL0     C14347  10.655   8.728   9.030  0.0478 -0.0577 -0.1529
  107MOL0     C14348  10.615   8.869   9.066 -0.7051  0.2084 -0.3182
  107MOL0     C14349  10.635   8.902   9.210  0.8609  0.8610  0.6796
  107MOL0     C14350  10.652   9.056   9.225  0.1578  0.8432  0.9399
  107MOL0     C14351  10.614   9.112   9.366 -0.6260 -0.3952 -0.7840
  107MOL0     C14352  10.718   9.069   9.473  0.4372  0.5276 -0.5414
  107MOL0     C14353  10.658   9.057   9.613 -0.6390  0.5121 -0.0673
  107MOL0     C14354  10.766   9.042   9.721  0.5461  1.2677 -0.1258
  107MOL0    Cl14355  10.698   9.028   9.888  0.4984 -0.2641 -0.4889
  107MOL0     C14356  10.997   8.600   8.996 -0.7750 -0.6247 -0.1335
  107MOL0     C14357  11.119   8.619   8.933 -0.7590  0.0588 -0.3970
  107MOL0     O14358  11.354   8.820   8.948  0.1342 -0.1499 -0.1014
  107MOL0     C14359  11.436   8.870   8.604  0.6924  0.2338 -0.4654
  107MOL0     C14360  11.536   8.926   8.516  0.3303  1.0475 -1.1337
  107MOL0     N14361  11.513   8.836   8.172  0.4978 -0.5914  1.2192
  107MOL0     N14362  11.423   8.881   8.105  0.3111  0.4744 -0.0559
  107MOL0     C14363  11.419   9.296   8.748 -0.2609  0.3631 -0.5330
  107MOL0     C14364  11.309   9.287   8.841  0.4991 -0.3516 -1.1149
  107MOL0     C14365  11.018   9.439   9.171  0.4968  0.0067 -0.3596
  107MOL0     C14366  10.918   9.517   9.234  0.2442  0.0208  0.0403
  107MOL0     C14367  10.887   9.501   9.370  0.1407 -0.1260  0.2184
  107MOL0     C14368  10.950   9.398   9.443  0.0218 -0.1651  0.5183
  107MOL0     O14369  10.920   9.370   9.570 -0.2998 -0.0336 -0.8970
  107MOL0     C14370  10.929   9.471   9.678 -0.7096  0.3508 -0.3076
  107MOL0     C14371  10.810   9.555   9.696 -0.4758 -0.3084  0.0353
  107MOL0     C14372  10.823   9.653   9.818  0.1418 -0.0576  0.6983
  107MOL0     C14373  10.733   9.776   9.822  0.5271  0.4851  0.0603
  107MOL0     C14374  10.583   9.746   9.839 -0.7913 -0.2442  0.7059
  107MOL0     C14375  10.467   9.717   9.842  0.3053 -0.5532 -0.1206
  107MOL0     C14376  11.059   9.335   9.380 -0.2005  0.6484  0.6916
  107MOL0     C14377  11.092   9.359   9.248 -0.2203  1.0077  0.1749
  107MOL0     H14378  11.201   9.614   8.834 -0.0042 -1.3754  1.9819
  107MOL0     H14379  11.362   9.608   8.637 -0.8811 -1.0461 -1.2645
  107MOL0     H14380  11.452   9.484   8.443  1.2378  0.3767 -3.4143
  107MOL0     H14381  11.618   9.531   8.452 -1.0424  0.6946 -0.3109
  107MOL0     H14382  11.669   9.275   8.461 -2.2497  1.9423  5.5599
  107MOL0     H14383  11.507   9.246   8.404  0.8305 -1.9231 -1.2341
  107MOL0     H14384  11.707   9.408   8.257  0.8701 -0.9123  0.8946
  107MOL0     H14385  11.649   9.260   8.206  2.9538  1.1083  1.1932
  107MOL0     H14386  11.514   9.533   8.198  0.0184  0.0332 -0.8036
  107MOL0     H14387  11.551   9.425   8.075 -0.2501 -1.3405 -0.6256
  107MOL0     H14388  11.331   9.382   8.283  0.6557  0.7767  0.2476
  107MOL0     H14389  11.306   9.442   8.114 -1.0129  2.3440  2.4314
  107MOL0     H14390  11.399   9.160   8.190 -0.8641 -0.8861  0.6117
  107MOL0     H14391  11.239   9.184   8.133  0.1770 -0.0993 -0.4596
  107MOL0     H14392  11.319   9.268   7.913  1.5295  3.0153 -0.1308
  107MOL0     H14393  11.484   9.247   7.967 -0.4128  0.7658  0.8228
  107MOL0     H14394  11.399   9.057   7.836 -3.3025 -1.5759 -0.5982
  107MOL0     H14395  11.282   9.026   7.943  0.2447  1.2965 -2.7775
  107MOL0     H14396  11.682   9.052   7.996  1.6633 -1.5091  1.9305
  107MOL0     H14397  11.755   8.792   8.290  1.4873  0.9751  0.0585
  107MOL0     H14398  11.823   8.800   8.119  3.5048  2.3262  0.0698
  107MOL0     H14399  11.785   9.064   8.249  2.2748  2.0528 -0.0614
  107MOL0     H14400  11.911   9.016   8.147 -0.6465 -0.0943 -0.4556
  107MOL0     H14401  12.002   9.062   8.379 -2.5306  1.4115  0.2738
  107MOL0     H14402  12.036   8.899   8.328 -0.2874  0.8582 -1.6631
  107MOL0     H14403  11.955   8.923   8.561 -0.5068 -0.2986  1.1614
  107MOL0     H14404  11.861   8.812   8.467 -0.1860  1.0002 -0.3341
  107MOL0     H14405  11.796   8.929   8.737  0.4514  0.6877  1.2511
  107MOL0     H14406  11.636   8.684   8.902 -1.5224  0.9286 -2.5161
  107MOL0     H14407  11.746   8.834   8.930 -0.6355  1.4184  0.5482
  107MOL0     H14408  11.595   8.814   9.011  1.5001 -1.2353  0.6380
  107MOL0     H14409  11.021   8.888   8.746 -2.1166  0.2015  0.2574
  107MOL0     H14410  10.825   8.850   8.860 -1.1179  0.0552  3.3083
  107MOL0     H14411  10.642   8.711   8.922 -0.1919  2.0176 -0.4878
  107MOL0     H14412  10.585   8.658   9.077 -0.7518 -0.7056 -2.1624
  107MOL0     H14413  10.694   8.925   9.015 -0.2685 -1.0289 -1.0286
  107MOL0     H14414  10.519   8.897   9.020 -1.6515 -1.3768  0.5813
  107MOL0     H14415  10.726   8.860   9.253  1.7496  1.4098 -0.5806
  107MOL0     H14416  10.546   8.874   9.267  0.0559 -0.7386 -1.2291
  107MOL0     H14417  10.753   9.095   9.208  0.6369  0.3764  2.5325
  107MOL0     H14418  10.578   9.103   9.160  0.9289  0.4544 -0.2620
  107MOL0     H14419  10.522   9.064   9.400  0.0544 -0.6600  0.7409
  107MOL0     H14420  10.607   9.222   9.363  2.1358 -0.0758  0.9460
  107MOL0     H14421  10.763   8.973   9.445 -3.0044 -1.9385  1.6288
  107MOL0     H14422  10.800   9.143   9.469  1.2149 -0.3300 -0.8240
  107MOL0     H14423  10.581   8.979   9.618  0.2284 -0.3010  1.2228
  107MOL0     H14424  10.604   9.149   9.635 -0.2032  0.8174 -0.2741
  107MOL0     H14425  10.838   9.125   9.717  1.1605  0.8681  1.7149
  107MOL0     H14426  10.829   8.955   9.699 -0.8718  0.1969 -0.1123
  107MOL0     H14427  10.980   8.523   9.071  0.6274 -0.2079  0.6469
  107MOL0     H14428  11.210   8.561   8.943 -1.0218 -0.0819  1.4456
  107MOL0     H14429  11.333   8.857   8.573 -0.4030 -0.3902  2.9681
  107MOL0     H14430  11.510   8.951   8.414 -0.0914 -0.7994 -1.5134
  107MOL0     H14431  11.492   9.219   8.723 -1.4235 -0.8293 -0.3220
  107MOL0     H14432  11.292   9.190   8.888 -2.3905 -0.2511 -1.7381
  107MOL0     H14433  10.855   9.574   9.167 -0.4368  1.4904  1.8403
  107MOL0     H14434  10.811   9.567   9.413  1.5357  0.7478  1.4436
  107MOL0     H14435  10.955   9.406   9.761 -0.2200  0.9022 -0.0259
  107MOL0     H14436  11.020   9.526   9.655  0.1668 -0.5068  0.9758
  107MOL0     H14437  10.728   9.491   9.730  0.9177 -1.1530  2.0066
  107MOL0     H14438  10.779   9.606   9.604  0.3006 -2.1275 -1.2923
  107MOL0     H14439  10.918   9.706   9.828 -1.1477  3.0308 -1.7522
  107MOL0     H14440  10.809   9.592   9.908  0.1430 -3.4189 -1.4148
  107MOL0     H14441  10.740   9.832   9.729  1.4238 -0.9378 -0.7746
  107MOL0     H14442  10.766   9.834   9.908 -2.4540  0.2923  1.4744
  107MOL0     H14443  10.366   9.685   9.856  0.1490 -1.2220 -2.4301
  107MOL0     H14444  11.114   9.263   9.440 -0.2244  0.3431  0.3547
  107MOL0     H14445  11.177   9.312   9.199  1.9955  4.2998  0.5149
  108MOL0     O14446   3.532   6.132   8.784 -0.1775  0.8891 -0.9041
  108MOL0     C14447   3.616   6.150   8.701  1.5700 -0.5600  0.2963
  108MOL0     O14448   3.591   6.220   8.583 -0.3756  0.0964  0.1175
  108MOL0     C14449   3.455   6.223   8.543 -0.1122  0.6860  0.1545
  108MOL0     C14450   3.399   6.342   8.483  0.9137 -0.4057 -0.2030
  108MOL0     C14451   3.270   6.355   8.433  0.0750 -0.4786  0.7030
  108MOL0     C14452   3.184   6.238   8.457 -1.6768  0.0044  0.3282
  108MOL0     O14453   3.049   6.258   8.425  0.0892  0.2925  0.4416
  108MOL0     C14454   2.954   6.154   8.463  0.5536  0.1136 -0.0247
  108MOL0     C14455   2.822   6.228   8.479 -0.2529  0.2746  0.2179
  108MOL0     C14456   2.709   6.136   8.511  0.7831 -0.4451  0.1221
  108MOL0     C14457   2.668   6.056   8.394  0.5624 -0.2510  0.0100
  108MOL0     C14458   2.574   5.932   8.426  0.6881 -0.0946  0.2218
  108MOL0     C14459   2.427   5.976   8.458 -0.3306  0.8510  0.0018
  108MOL0     C14460   2.341   5.858   8.504  0.0414  0.0357 -1.2746
  108MOL0     C14461   2.355   5.834   8.655  0.5875  0.2825  0.4387
  108MOL0     N14462   2.240   5.873   8.731  0.3501 -0.9446 -0.4066
  108MOL0     C14463   2.226   5.998   8.798  0.1647  0.0146  0.5540
  108MOL0     C14464   2.096   5.998   8.853 -0.0361 -0.0881  0.5114
  108MOL0     C14465   2.049   6.114   8.941 -0.6116  0.4027 -0.7060
  108MOL0     C14466   1.951   6.222   8.887 -0.7345 -0.1936  0.6263
  108MOL0     C14467   2.009   6.305   8.764  0.4679  1.4062  0.1728
  108MOL0     C14468   1.911   6.421   8.720 -0.6174  0.5185  0.2468
  108MOL0     O14469   1.961   6.480   8.603 -0.6477 -0.3330  0.2219
  108MOL0     C14470   2.039   6.588   8.610  1.0248 -0.4374  0.5134
  108MOL0     C14471   2.103   6.612   8.488 -0.8883  0.0883 -0.3360
  108MOL0     C14472   2.181   6.729   8.472 -0.2170 -0.0392 -0.0579
  108MOL0     C14473   2.254   6.759   8.346 -0.0291  0.3474  0.1974
  108MOL0     C14474   2.189   6.824   8.581 -0.2416 -0.4670  0.1807
  108MOL0     C14475   2.272   6.951   8.581  0.5282  0.9092  0.2513
  108MOL0     O14476   2.334   6.984   8.700  0.1353  0.1872  0.0044
  108MOL0     C14477   2.460   7.041   8.713  0.7944 -0.9033 -0.5819
  108MOL0     C14478   2.536   7.088   8.610 -0.0027 -0.1336  0.2478
  108MOL0     C14479   2.658   7.154   8.646 -0.4558  0.3713 -0.3412
  108MOL0     C14480   2.704   7.165   8.778  0.6823 -0.7726 -0.0054
  108MOL0     O14481   2.815   7.235   8.805 -0.8429  1.0476  0.0625
  108MOL0     C14482   2.903   7.198   8.918  0.3356 -2.0195  0.7063
  108MOL0     C14483   3.019   7.305   8.933  0.2532  0.0256  0.3203
  108MOL0     C14484   3.111   7.314   8.813  0.8257  0.3278  0.2383
  108MOL0     C14485   3.218   7.428   8.818 -0.1613 -0.0565  0.9193
  108MOL0     C14486   3.358   7.363   8.804  1.3368  0.2269  0.0459
  108MOL0     C14487   3.436   7.345   8.936 -0.7030  0.0020  0.3541
  108MOL0     C14488   3.587   7.340   8.898  0.1711 -0.5815 -0.0629
  108MOL0     C14489   3.668   7.357   9.020  0.3592 -0.5327 -0.3036
  108MOL0    Cl14490   3.730   7.523   9.038  0.1623  0.0615  0.3707
  108MOL0     C14491   2.627   7.104   8.880  0.0964  0.1596  0.3879
  108MOL0     C14492   2.507   7.044   8.843 -0.1420  0.3226  0.2536
  108MOL0     O14493   2.288   7.014   8.479  0.6819 -0.4347 -0.3091
  108MOL0     C14494   2.118   6.800   8.705  0.5670  0.1200 -0.4579
  108MOL0     C14495   2.031   6.689   8.713 -1.4627 -0.5518  0.8665
  108MOL0     N14496   2.031   5.890   8.811  0.4098  0.4624 -0.0872
  108MOL0     N14497   2.111   5.814   8.745 -0.7492 -0.0441  0.2594
  108MOL0     C14498   3.236   6.119   8.504  0.1098  0.1067  0.2167
  108MOL0     C14499   3.367   6.110   8.539 -0.0351 -0.3845  0.1380
  108MOL0     C14500   3.753   6.099   8.707 -0.1456  0.2186 -0.2649
  108MOL0     C14501   3.846   6.149   8.616 -0.2560  0.5051 -0.3482
  108MOL0     C14502   3.981   6.122   8.624 -0.3309 -0.1935 -0.0706
  108MOL0     C14503   4.030   6.037   8.724  0.6338  0.2066 -0.2317
  108MOL0     O14504   4.161   5.999   8.729 -0.1858 -0.2830  0.3357
  108MOL0     C14505   4.231   5.998   8.857 -0.1760 -0.0637  0.3090
  108MOL0     C14506   4.379   5.958   8.846  0.9807 -0.3013 -0.6423
  108MOL0     C14507   4.383   5.821   8.786 -0.6361  0.0304  0.0315
  108MOL0     C14508   4.396   5.714   8.899 -0.2060  0.1098  1.0614
  108MOL0     C14509   4.401   5.581   8.835 -0.0119 -1.0540  0.6791
  108MOL0     C14510   4.425   5.472   8.790  0.3908 -0.5257  1.0068
  108MOL0     C14511   3.933   5.986   8.816 -1.2631  0.3281 -0.2191
  108MOL0     C14512   3.803   6.016   8.806  0.3127  0.0981  0.1855
  108MOL0     H14513   3.474   6.417   8.459  0.2803 -0.5394 -2.7963
  108MOL0     H14514   3.222   6.434   8.376  0.5957 -2.8976 -3.4373
  108MOL0     H14515   2.948   6.072   8.392 -2.5793 -0.4079  0.6818
  108MOL0     H14516   2.982   6.106   8.558 -0.8526 -1.2880 -0.2877
  108MOL0     H14517   2.833   6.297   8.563 -0.4516  1.4596 -0.6908
  108MOL0     H14518   2.793   6.281   8.387 -4.9214 -2.5810 -0.3041
  108MOL0     H14519   2.742   6.065   8.588  0.7795  0.1582  0.6915
  108MOL0     H14520   2.626   6.192   8.556 -0.1588 -1.4952 -0.2459
  108MOL0     H14521   2.627   6.119   8.314  0.3798 -0.2690  0.0873
  108MOL0     H14522   2.759   6.017   8.347 -0.9018 -1.9551 -1.6431
  108MOL0     H14523   2.566   5.862   8.343 -1.4288 -0.5920  0.7984
  108MOL0     H14524   2.618   5.883   8.513  1.4738  0.3683  0.0997
  108MOL0     H14525   2.433   6.057   8.532 -0.3635 -0.2837  1.2797
  108MOL0     H14526   2.388   6.027   8.369  0.4501  4.1120  1.3781
  108MOL0     H14527   2.233   5.874   8.503 -0.3126 -1.8410 -0.0418
  108MOL0     H14528   2.354   5.772   8.438 -2.0923 -0.6890 -0.8356
  108MOL0     H14529   2.437   5.901   8.681  1.0672  0.0322 -0.4000
  108MOL0     H14530   2.387   5.731   8.678 -1.8331 -0.7988 -0.6856
  108MOL0     H14531   2.298   6.075   8.824  0.0839 -0.6223  2.7914
  108MOL0     H14532   2.010   6.060   9.027  1.0541 -2.7233 -1.7423
  108MOL0     H14533   2.137   6.164   8.983  1.0851 -2.6309 -0.3492
  108MOL0     H14534   1.932   6.294   8.967  0.5245 -0.0808  0.8576
  108MOL0     H14535   1.850   6.190   8.861 -0.6783 -0.6021  0.8891
  108MOL0     H14536   2.040   6.243   8.680  1.7715 -1.8532  2.8678
  108MOL0     H14537   2.098   6.356   8.802  1.0179 -0.6617  1.8032
  108MOL0     H14538   1.904   6.481   8.811  0.4911  0.7413  0.2026
  108MOL0     H14539   1.810   6.390   8.692 -0.5082 -0.0031  0.4145
  108MOL0     H14540   2.091   6.532   8.415 -0.6136  0.0719 -0.3644
  108MOL0     H14541   2.353   6.800   8.369 -1.0997  4.1955 -1.3848
  108MOL0     H14542   2.265   6.675   8.277  1.4068  1.7049 -1.3212
  108MOL0     H14543   2.207   6.846   8.300 -0.3195  0.8451  1.3946
  108MOL0     H14544   2.510   7.084   8.504  2.6616 -0.1842 -0.4832
  108MOL0     H14545   2.731   7.196   8.577  0.6968  0.9812  1.1712
  108MOL0     H14546   2.834   7.210   9.002 -2.1755  0.6676 -1.5373
  108MOL0     H14547   2.932   7.093   8.906  1.0430 -1.7004 -0.5645
  108MOL0     H14548   2.963   7.398   8.945  0.2129  0.0254  0.1350
  108MOL0     H14549   3.083   7.290   9.021 -0.1145 -1.4619  0.3671
  108MOL0     H14550   3.054   7.320   8.720  1.8227  1.3359 -0.3437
  108MOL0     H14551   3.156   7.214   8.813  0.2324  0.0268  1.9309
  108MOL0     H14552   3.200   7.502   8.740 -1.3468 -1.4099 -0.1607
  108MOL0     H14553   3.205   7.478   8.915  2.1139  3.9269 -0.6284
  108MOL0     H14554   3.409   7.432   8.736 -2.7233 -0.4415 -4.2016
  108MOL0     H14555   3.365   7.271   8.745  0.3991  2.1127 -3.2945
  108MOL0     H14556   3.415   7.429   9.003 -1.0764 -0.2899  0.6087
  108MOL0     H14557   3.418   7.253   8.993  1.4415  0.5407  2.0615
  108MOL0     H14558   3.613   7.417   8.826  0.1963 -0.3134  0.2337
  108MOL0     H14559   3.607   7.239   8.860  1.7957  0.1924 -1.3720
  108MOL0     H14560   3.757   7.294   9.018  2.5902  2.4695 -1.3687
  108MOL0     H14561   3.611   7.341   9.113 -1.9482  2.5900 -1.0002
  108MOL0     H14562   2.653   7.107   8.985 -1.5419  2.0392  0.7907
  108MOL0     H14563   2.446   6.999   8.920  1.3671 -0.5472  0.9711
  108MOL0     H14564   2.134   6.856   8.797 -1.4671  0.6440 -0.3737
  108MOL0     H14565   1.984   6.671   8.809 -1.8814  2.9950  1.4632
  108MOL0     H14566   3.162   6.040   8.509 -0.0624  0.3536  2.1750
  108MOL0     H14567   3.396   6.012   8.576  1.1164  0.2740  1.0111
  108MOL0     H14568   3.806   6.214   8.539 -2.1275 -1.7481 -1.4263
  108MOL0     H14569   4.045   6.158   8.543 -1.8581 -1.1759 -1.7878
  108MOL0     H14570   4.219   6.097   8.902 -1.0374 -0.8001  1.7805
  108MOL0     H14571   4.181   5.926   8.922 -0.5447 -2.2338 -2.1983
  108MOL0     H14572   4.426   5.960   8.944  0.5842 -2.4863 -0.3712
  108MOL0     H14573   4.420   6.035   8.779  0.3255 -1.0368 -1.9355
  108MOL0     H14574   4.474   5.819   8.726 -1.2652 -2.9667 -1.0038
  108MOL0     H14575   4.303   5.783   8.722  1.3186 -2.6000 -1.0074
  108MOL0     H14576   4.314   5.716   8.971 -0.8287 -0.4182  0.3712
  108MOL0     H14577   4.488   5.738   8.954  0.3694 -0.1880  0.2465
  108MOL0     H14578   4.441   5.381   8.736  1.0986  0.4012 -0.3876
  108MOL0     H14579   3.963   5.924   8.900 -2.2667  0.0889 -0.0236
  108MOL0     H14580   3.739   5.965   8.877  0.4690 -2.7896 -1.6044
  109MOL0     O14581  10.491  11.095   0.625  0.2428 -0.1153  0.4999
  109MOL0     C14582  10.468  10.976   0.641 -0.4442  0.1133 -0.6199
  109MOL0     O14583  10.348  10.906   0.645  0.3179  0.5664 -0.7018
  109MOL0     C14584  10.229  10.967   0.642  0.2209 -0.4010  1.1803
  109MOL0     C14585  10.127  10.903   0.567  0.4935  0.1841  0.6167
  109MOL0     C14586   9.993  10.947   0.582  0.1332 -0.2846  0.3580
  109MOL0     C14587   9.965  11.069   0.653  0.1545  0.2906 -0.3116
  109MOL0     O14588   9.833  11.095   0.674  0.1831 -0.1698  0.0638
  109MOL0     C14589   9.807  11.231   0.731  0.2195  0.5080  0.9463
  109MOL0     C14590   9.663  11.283   0.681 -0.4711 -1.0680  0.1025
  109MOL0     C14591   9.535  11.191   0.702  0.2566  0.5858  0.4055
  109MOL0     C14592   9.389  11.254   0.696 -0.4770 -0.3760 -0.0088
  109MOL0     C14593   9.360  11.308   0.557  0.2580  0.8795 -0.5252
  109MOL0     C14594   9.240  11.411   0.547  0.3218  0.5919  0.7466
  109MOL0     C14595   9.248  11.540   0.611 -0.1829 -0.5427  0.2872
  109MOL0     C14596   9.122  11.620   0.583 -0.2680 -0.4779 -0.3739
  109MOL0     N14597   9.106  11.669   0.444 -0.4683 -0.5434  0.3203
  109MOL0     C14598   9.199  11.752   0.386  0.3399 -0.0894 -0.7528
  109MOL0     C14599   9.177  11.736   0.254 -0.1383  0.0581 -0.0537
  109MOL0     C14600   9.262  11.802   0.146  0.0974 -0.4151  0.3667
  109MOL0     C14601   9.189  11.842   0.022 -0.1237  0.1228 -0.3819
  109MOL0     C14602   9.280  11.918  -0.078  0.1431  0.0123 -0.6369
  109MOL0     C14603   9.212  11.961  -0.208  0.0715  0.8183 -0.5884
  109MOL0     O14604   9.108  12.056  -0.173  0.1733 -0.3669 -0.4186
  109MOL0     C14605   8.987  12.056  -0.242  0.5343  1.2227 -0.4460
  109MOL0     C14606   8.879  12.104  -0.161 -0.0722 -0.1056 -0.3841
  109MOL0     C14607   8.743  12.084  -0.213 -0.0240  0.1858  0.2704
  109MOL0     C14608   8.628  12.153  -0.129 -0.6186 -0.1496 -0.1092
  109MOL0     C14609   8.720  12.022  -0.339 -0.1419  0.4836 -1.0554
  109MOL0     C14610   8.582  11.993  -0.388 -0.4812  0.3794  0.2441
  109MOL0     O14611   8.550  12.049  -0.508 -0.5020  0.6173 -0.0480
  109MOL0     C14612   8.424  12.065  -0.561 -0.1138 -0.9609 -1.0825
  109MOL0     C14613   8.401  12.073  -0.699  0.9317 -0.5614 -0.9627
  109MOL0     C14614   8.264  12.091  -0.741 -0.5035  0.3595  0.2665
  109MOL0     C14615   8.158  12.102  -0.650 -0.4261 -0.2600 -0.2204
  109MOL0     O14616   8.031  12.123  -0.700  0.4571 -0.1893  0.3446
  109MOL0     C14617   7.943  12.207  -0.626 -0.8846 -0.4801 -0.2447
  109MOL0     C14618   7.818  12.237  -0.723 -0.8378 -0.0368 -0.0470
  109MOL0     C14619   7.731  12.344  -0.652  0.1844  0.5452 -0.3471
  109MOL0     C14620   7.611  12.372  -0.738  0.0156  0.1203 -0.3787
  109MOL0     C14621   7.513  12.473  -0.667  0.4332 -0.2874  0.3817
  109MOL0     C14622   7.440  12.420  -0.538 -1.0222  0.1809 -0.0538
  109MOL0     C14623   7.306  12.479  -0.517 -0.4053  1.2437  0.5781
  109MOL0     C14624   7.278  12.500  -0.371 -0.2500 -0.0410 -0.5296
  109MOL0    Cl14625   7.124  12.579  -0.349 -0.3523  0.2943  0.0510
  109MOL0     C14626   8.188  12.108  -0.514 -0.6371 -0.6485  0.6389
  109MOL0     C14627   8.316  12.088  -0.467 -0.3630  0.6076  0.6552
  109MOL0     O14628   8.523  11.909  -0.329 -0.3851 -0.1528 -0.1346
  109MOL0     C14629   8.825  11.981  -0.419  1.1603  0.0239  0.7728
  109MOL0     C14630   8.952  11.994  -0.371 -0.5894 -0.1931  0.6791
  109MOL0     N14631   9.069  11.650   0.234  0.0836  0.3421  0.0712
  109MOL0     N14632   9.030  11.601   0.351  0.4496 -0.1820  0.5008
  109MOL0     C14633  10.070  11.134   0.721  0.0426  0.0054  0.7026
  109MOL0     C14634  10.196  11.077   0.714  0.7765 -0.6808 -0.0950
  109MOL0     C14635  10.600  10.905   0.648  0.3758  0.6015 -0.8545
  109MOL0     C14636  10.725  10.971   0.627 -0.3663  0.8678  0.3713
  109MOL0     C14637  10.847  10.890   0.638  0.0293 -0.0039 -0.3540
  109MOL0     C14638  10.848  10.754   0.660  0.0198  0.0185  0.2754
  109MOL0     O14639  10.966  10.681   0.663  0.1035 -0.2442 -0.3835
  109MOL0     C14640  10.980  10.600   0.542  0.2026 -0.0557 -0.4790
  109MOL0     C14641  11.100  10.660   0.453 -0.1842  0.7058 -0.6595
  109MOL0     C14642  11.117  10.579   0.317 -0.1163 -0.4338 -0.1241
  109MOL0     C14643  11.197  10.665   0.227 -0.3980  0.1832 -0.1320
  109MOL0     C14644  11.241  10.589   0.114 -0.2446  0.3396 -0.1259
  109MOL0     C14645  11.256  10.540   0.005  0.2343 -0.1420  0.3839
  109MOL0     C14646  10.726  10.688   0.678  0.2073  0.1539 -0.6172
  109MOL0     C14647  10.610  10.765   0.677  0.8187  0.9210  0.0987
  109MOL0     H14648  10.129  10.810   0.510 -3.4005  0.8776 -0.9935
  109MOL0     H14649   9.915  10.892   0.530  1.3523 -0.6239 -1.1936
  109MOL0     H14650   9.802  11.229   0.840 -3.1349  0.0653  0.8939
  109MOL0     H14651   9.888  11.302   0.710 -1.2165  1.7527 -0.7653
  109MOL0     H14652   9.658  11.386   0.718  0.6268 -1.9459  2.9337
  109MOL0     H14653   9.667  11.304   0.573 -1.7346  0.7592  0.3544
  109MOL0     H14654   9.531  11.118   0.622 -3.2702  1.8440 -0.7928
  109MOL0     H14655   9.547  11.137   0.796  1.7414 -0.5358 -0.4041
  109MOL0     H14656   9.315  11.177   0.719  1.7196 -3.0293 -1.1376
  109MOL0     H14657   9.387  11.333   0.771  1.2065 -0.2067 -0.1063
  109MOL0     H14658   9.450  11.364   0.531  1.1791  1.2570  2.9871
  109MOL0     H14659   9.352  11.216   0.497 -1.3513  0.1560  0.7253
  109MOL0     H14660   9.221  11.427   0.440 -2.2440 -1.8670  0.6961
  109MOL0     H14661   9.151  11.360   0.586 -0.6910  1.9923  0.3666
  109MOL0     H14662   9.273  11.535   0.717 -0.5346  2.1925  0.5595
  109MOL0     H14663   9.328  11.597   0.562  0.1880 -0.5228  0.9040
  109MOL0     H14664   9.121  11.700   0.658 -0.6870 -0.3218 -0.5456
  109MOL0     H14665   9.028  11.567   0.601 -0.1525 -0.4207  0.4343
  109MOL0     H14666   9.279  11.818   0.419  0.1310 -0.0378 -0.3434
  109MOL0     H14667   9.311  11.886   0.195 -1.4815 -0.0990  1.4539
  109MOL0     H14668   9.333  11.725   0.114 -0.2083  0.7483 -3.6603
  109MOL0     H14669   9.106  11.907   0.053 -2.6003 -1.8825 -2.3408
  109MOL0     H14670   9.139  11.746   0.002 -1.0521 -0.2410  2.9907
  109MOL0     H14671   9.361  11.848  -0.098  0.1403 -0.1645 -0.0440
  109MOL0     H14672   9.319  12.009  -0.032 -0.4415 -0.1951  0.2986
  109MOL0     H14673   9.184  11.869  -0.261  0.8208  0.9348 -1.2147
  109MOL0     H14674   9.280  12.015  -0.275 -1.3093  0.7367 -2.1111
  109MOL0     H14675   8.890  12.135  -0.058 -2.6485 -0.8438  0.1752
  109MOL0     H14676   8.597  12.240  -0.188  0.4740 -1.1061 -2.1850
  109MOL0     H14677   8.546  12.082  -0.118  0.6339 -1.6827 -0.2473
  109MOL0     H14678   8.651  12.172  -0.024 -0.0779 -0.9275 -0.0761
  109MOL0     H14679   8.477  12.055  -0.774  1.2957 -2.7311 -0.1612
  109MOL0     H14680   8.247  12.108  -0.847  1.8863 -2.4010 -0.6752
  109MOL0     H14681   7.898  12.159  -0.538 -0.8562  2.3013  1.3932
  109MOL0     H14682   7.979  12.307  -0.603 -2.3285  0.5814 -2.2783
  109MOL0     H14683   7.866  12.268  -0.816  2.2491 -2.6088  0.5206
  109MOL0     H14684   7.768  12.141  -0.740 -0.1156 -0.6595  1.1782
  109MOL0     H14685   7.794  12.433  -0.642  1.1857 -0.3109  1.3712
  109MOL0     H14686   7.705  12.301  -0.555  2.2704 -2.8103 -1.0924
  109MOL0     H14687   7.641  12.405  -0.838  1.9414  0.3268  0.2328
  109MOL0     H14688   7.555  12.278  -0.745 -2.5463  1.6509 -1.9520
  109MOL0     H14689   7.434  12.509  -0.733 -0.6762  1.7998  2.6959
  109MOL0     H14690   7.567  12.563  -0.635 -1.7678  1.5383 -0.7951
  109MOL0     H14691   7.431  12.313  -0.555  2.6558 -0.3353  0.3238
  109MOL0     H14692   7.514  12.423  -0.457  2.6776  2.9157 -3.1602
  109MOL0     H14693   7.229  12.411  -0.554  0.8789  1.1366 -2.1071
  109MOL0     H14694   7.297  12.575  -0.570 -1.1008 -0.3077 -2.2691
  109MOL0     H14695   7.358  12.547  -0.313  0.4049 -4.1651  2.3532
  109MOL0     H14696   7.267  12.404  -0.321 -2.0753 -0.1158 -0.9897
  109MOL0     H14697   8.111  12.127  -0.440 -2.5095  0.1640 -1.4018
  109MOL0     H14698   8.340  12.090  -0.361 -1.2395  2.7610  0.8669
  109MOL0     H14699   8.795  11.930  -0.510  2.1052 -1.4965  1.2820
  109MOL0     H14700   9.032  11.948  -0.427  2.2088  2.1449  2.5005
  109MOL0     H14701  10.048  11.219   0.784 -1.8843 -2.0227  2.9701
  109MOL0     H14702  10.279  11.124   0.766 -1.5762  2.7358  0.9418
  109MOL0     H14703  10.738  11.077   0.606  0.3928  0.6102 -0.5090
  109MOL0     H14704  10.944  10.934   0.618  0.2881  1.8951  4.0738
  109MOL0     H14705  11.007  10.500   0.576  1.7977 -0.1423 -1.8553
  109MOL0     H14706  10.891  10.588   0.479  0.6369 -1.6697 -0.8354
  109MOL0     H14707  11.191  10.639   0.510 -0.3776 -1.3552 -1.0229
  109MOL0     H14708  11.083  10.767   0.441  1.6772  1.0514 -0.6004
  109MOL0     H14709  11.021  10.542   0.280 -0.5396 -2.7641  2.8356
  109MOL0     H14710  11.176  10.492   0.350 -1.6196 -2.0631 -1.5389
  109MOL0     H14711  11.286  10.699   0.281  0.1853 -0.2704 -0.7920
  109MOL0     H14712  11.133  10.742   0.183 -0.3165  0.1291 -0.3496
  109MOL0     H14713  11.274  10.509  -0.096 -0.9120  3.9499 -1.3053
  109MOL0     H14714  10.716  10.581   0.691  0.1656  0.0589 -1.3755
  109MOL0     H14715  10.522  10.707   0.702  1.9392 -1.0952 -0.3684
  110MOL0     O14716   7.145   8.647   7.966  0.2768 -0.3675 -0.0682
  110MOL0     C14717   7.210   8.675   7.869 -0.8841 -0.3904  0.5480
  110MOL0     O14718   7.166   8.744   7.770 -0.1794 -0.4971 -1.3554
  110MOL0     C14719   7.030   8.780   7.775  0.0379  0.8487 -0.2519
  110MOL0     C14720   6.918   8.694   7.754  0.5020 -0.2255  0.4983
  110MOL0     C14721   6.786   8.753   7.741 -0.9868  0.2622  0.1444
  110MOL0     C14722   6.776   8.890   7.721  0.6131  0.3910  0.2288
  110MOL0     O14723   6.647   8.922   7.676 -0.1234 -0.0976  0.3769
  110MOL0     C14724   6.611   9.057   7.660  0.8293  0.6662  0.2365
  110MOL0     C14725   6.538   9.084   7.520  0.0868 -0.3784 -1.2590
  110MOL0     C14726   6.396   9.022   7.505 -0.2941 -0.1409 -0.3884
  110MOL0     C14727   6.294   9.103   7.591  0.0377 -0.4469 -0.1575
  110MOL0     C14728   6.158   9.039   7.560 -0.2808  1.7187 -0.0192
  110MOL0     C14729   6.046   9.112   7.642 -0.2644 -1.0947  1.0607
  110MOL0     C14730   5.911   9.053   7.639 -0.9272 -0.0407 -0.0396
  110MOL0     C14731   5.819   9.153   7.712  0.5378 -0.5625  0.0365
  110MOL0     N14732   5.682   9.113   7.725  0.1329 -0.0815  0.2192
  110MOL0     C14733   5.603   9.102   7.607  0.3045  0.7226 -0.5156
  110MOL0     C14734   5.510   9.012   7.645  0.7785  0.6507  0.4067
  110MOL0     C14735   5.407   8.955   7.555 -0.4357  0.4008 -0.8427
  110MOL0     C14736   5.274   9.033   7.560  0.7225 -0.1931 -0.2856
  110MOL0     C14737   5.215   9.068   7.695  0.8718 -0.1876 -0.4992
  110MOL0     C14738   5.278   9.190   7.760 -0.4563 -0.0800  0.2374
  110MOL0     O14739   5.250   9.186   7.908  0.4510 -0.0797  0.1665
  110MOL0     C14740   5.120   9.182   7.962  0.6901  0.4355 -0.0702
  110MOL0     C14741   5.118   9.164   8.103  0.3229 -0.6216  0.0148
  110MOL0     C14742   5.002   9.169   8.177  0.2834 -0.3424  0.3851
  110MOL0     C14743   5.020   9.158   8.327 -0.5889 -0.5832 -0.3952
  110MOL0     C14744   4.880   9.170   8.107 -0.7821 -1.0228 -0.7423
  110MOL0     C14745   4.754   9.176   8.172  0.5489  1.0789 -0.1462
  110MOL0     O14746   4.659   9.263   8.126  0.0232  0.6647 -0.8003
  110MOL0     C14747   4.548   9.285   8.188  1.1140  0.5484  0.7772
  110MOL0     C14748   4.421   9.264   8.132  0.2392 -0.3862  0.1724
  110MOL0     C14749   4.303   9.294   8.192  0.3539 -0.1703  0.0065
  110MOL0     C14750   4.304   9.371   8.307 -1.1539  0.0803  0.7696
  110MOL0     O14751   4.189   9.410   8.370 -0.3226  0.0062 -0.2122
  110MOL0     C14752   4.071   9.340   8.330  0.1678  0.0172 -0.1342
  110MOL0     C14753   3.945   9.372   8.402  0.7376  0.4012 -0.3167
  110MOL0     C14754   3.937   9.342   8.553 -0.5596  0.2652  0.5465
  110MOL0     C14755   3.793   9.387   8.590  0.4808 -0.3401 -0.4099
  110MOL0     C14756   3.774   9.396   8.744 -0.3660  0.3269  0.4228
  110MOL0     C14757   3.629   9.417   8.759 -0.0434  0.0913  0.1248
  110MOL0     C14758   3.583   9.426   8.911  0.0773  0.5382 -0.3291
  110MOL0     C14759   3.440   9.503   8.915  0.0588 -0.5502 -0.6687
  110MOL0    Cl14760   3.352   9.489   9.084 -0.0359 -0.0932  0.0503
  110MOL0     C14761   4.427   9.400   8.367 -0.4942 -0.7902  0.0380
  110MOL0     C14762   4.548   9.356   8.315 -0.2046  0.6651 -0.2471
  110MOL0     O14763   4.740   9.106   8.277 -0.5360 -0.1686  0.7954
  110MOL0     C14764   4.875   9.184   7.965 -0.4130  0.5374  0.2341
  110MOL0     C14765   4.995   9.201   7.892 -0.5279  0.0580  0.0659
  110MOL0     N14766   5.525   8.972   7.774  0.1348 -0.4115  0.5866
  110MOL0     N14767   5.626   9.035   7.819 -0.1426 -0.5840 -0.4217
  110MOL0     C14768   6.890   8.966   7.741  0.0242 -0.3327  0.3428
  110MOL0     C14769   7.015   8.913   7.771  0.0699  0.4877  0.5274
  110MOL0     C14770   7.350   8.631   7.859  0.2838  0.1240 -0.1361
  110MOL0     C14771   7.438   8.607   7.965 -0.1169 -0.2654 -0.1026
  110MOL0     C14772   7.584   8.580   7.957 -0.0859  0.3524 -0.0078
  110MOL0     C14773   7.633   8.564   7.825 -1.6951 -0.3935 -0.0035
  110MOL0     O14774   7.768   8.527   7.827  0.3963 -0.6601  0.2381
  110MOL0     C14775   7.845   8.547   7.701  0.2942 -0.3726  0.1446
  110MOL0     C14776   7.951   8.444   7.672  1.3834 -0.5940  0.1536
  110MOL0     C14777   8.063   8.503   7.580 -0.2685  0.9066  0.8904
  110MOL0     C14778   8.172   8.386   7.550 -0.2777  0.1738  0.0328
  110MOL0     C14779   8.248   8.423   7.433 -0.2769  0.3133  0.3321
  110MOL0     C14780   8.304   8.476   7.335  0.4938 -0.1711  0.9249
  110MOL0     C14781   7.544   8.584   7.711 -0.5421  0.1874  0.0542
  110MOL0     C14782   7.414   8.629   7.734  0.7245  0.6093 -0.5391
  110MOL0     H14783   6.920   8.585   7.759  0.4976 -0.2314  5.5445
  110MOL0     H14784   6.701   8.687   7.751  0.3933 -1.1975  3.8576
  110MOL0     H14785   6.540   9.086   7.738 -1.1655 -2.2279 -0.3340
  110MOL0     H14786   6.702   9.117   7.654  1.0469  0.1821 -3.3357
  110MOL0     H14787   6.524   9.192   7.518  0.0104 -0.3117  0.5538
  110MOL0     H14788   6.610   9.062   7.441  2.6632 -3.7466  1.7125
  110MOL0     H14789   6.364   9.036   7.401 -2.5802 -3.4404 -0.2529
  110MOL0     H14790   6.408   8.916   7.528  1.0095 -0.5179 -2.5154
  110MOL0     H14791   6.321   9.093   7.696  0.7767 -2.1786 -0.4770
  110MOL0     H14792   6.302   9.209   7.565  0.3015 -0.3339  0.3797
  110MOL0     H14793   6.141   9.048   7.452  3.1219  0.7850 -0.7634
  110MOL0     H14794   6.159   8.933   7.588 -0.5968  1.7919  0.2680
  110MOL0     H14795   6.082   9.100   7.745  0.6686  1.0480  1.0312
  110MOL0     H14796   6.040   9.215   7.606  2.6295 -0.7271  1.4439
  110MOL0     H14797   5.877   9.031   7.537 -0.7005  0.3525 -0.1983
  110MOL0     H14798   5.909   8.966   7.706 -4.7557 -0.6985 -0.7686
  110MOL0     H14799   5.824   9.254   7.671  0.0274  0.5100  2.4396
  110MOL0     H14800   5.851   9.177   7.813  0.5872  0.2096 -0.1533
  110MOL0     H14801   5.613   9.138   7.505 -0.3230 -1.7983 -1.5397
  110MOL0     H14802   5.447   8.952   7.453 -0.7590  3.7716 -1.1872
  110MOL0     H14803   5.383   8.853   7.586 -0.1937  0.1380 -1.5037
  110MOL0     H14804   5.201   8.972   7.506 -1.0382  1.5744  0.0071
  110MOL0     H14805   5.285   9.115   7.488 -1.1658 -1.9000 -2.6953
  110MOL0     H14806   5.236   8.984   7.762 -0.5998  0.2500  0.5645
  110MOL0     H14807   5.106   9.077   7.686  1.0014 -0.8707 -4.1234
  110MOL0     H14808   5.233   9.279   7.717 -0.7238 -0.3292 -0.0001
  110MOL0     H14809   5.384   9.205   7.738 -1.1093  2.6505 -1.5013
  110MOL0     H14810   5.215   9.154   8.149  1.4571 -0.3299 -2.1984
  110MOL0     H14811   4.938   9.208   8.380  0.7394 -0.5020  1.7095
  110MOL0     H14812   5.019   9.052   8.355 -1.2130 -1.2109 -2.5541
  110MOL0     H14813   5.119   9.199   8.348 -0.2702 -2.7427  2.9798
  110MOL0     H14814   4.415   9.217   8.034  3.9205 -1.5585  0.3771
  110MOL0     H14815   4.215   9.284   8.129  1.4943  3.0828 -2.3823
  110MOL0     H14816   4.038   9.374   8.231  0.3567  1.3499  0.2354
  110MOL0     H14817   4.078   9.231   8.332 -1.9667 -0.1508  2.2663
  110MOL0     H14818   3.934   9.479   8.385  3.1512  0.9076  0.9783
  110MOL0     H14819   3.861   9.316   8.358  1.1757 -1.0970  0.6580
  110MOL0     H14820   4.007   9.412   8.599 -0.3096  2.7032 -3.1127
  110MOL0     H14821   3.959   9.237   8.572 -1.7106 -0.1777 -0.3823
  110MOL0     H14822   3.761   9.476   8.536 -0.1763 -1.3057 -1.6608
  110MOL0     H14823   3.730   9.302   8.562 -1.6159  0.3365  1.9341
  110MOL0     H14824   3.837   9.478   8.779  0.9722 -0.1668 -0.7565
  110MOL0     H14825   3.794   9.307   8.803 -0.0103 -1.0823 -1.7156
  110MOL0     H14826   3.598   9.509   8.708 -1.4069  0.6006  1.7710
  110MOL0     H14827   3.572   9.334   8.716  0.7985 -0.2439 -0.3664
  110MOL0     H14828   3.661   9.472   8.973 -1.5286  2.3686  0.4280
  110MOL0     H14829   3.569   9.323   8.945 -1.2318  1.1602  1.1737
  110MOL0     H14830   3.377   9.459   8.836 -1.4084  0.9395 -0.3923
  110MOL0     H14831   3.461   9.607   8.890 -1.1573  0.2601  1.4527
  110MOL0     H14832   4.429   9.470   8.449 -2.0162  2.4334 -2.4568
  110MOL0     H14833   4.643   9.382   8.361  0.2739 -0.9842 -0.2578
  110MOL0     H14834   4.781   9.191   7.911 -0.7193  2.4781  0.9336
  110MOL0     H14835   4.995   9.219   7.785 -3.9804 -1.9988 -0.4227
  110MOL0     H14836   6.892   9.074   7.731  0.8792  0.0464  3.5029
  110MOL0     H14837   7.102   8.978   7.765  3.2980 -3.5248 -0.3430
  110MOL0     H14838   7.394   8.625   8.062  1.5916  0.8333  0.5293
  110MOL0     H14839   7.661   8.550   8.028  1.2232 -0.2486 -1.6291
  110MOL0     H14840   7.774   8.558   7.618  0.7058 -1.8208 -0.4282
  110MOL0     H14841   7.895   8.645   7.700 -1.5816  0.6333  0.7480
  110MOL0     H14842   7.905   8.350   7.638 -2.0523  1.0122 -0.0602
  110MOL0     H14843   7.987   8.406   7.768 -3.5155  0.3483  2.7090
  110MOL0     H14844   8.127   8.565   7.644  0.5468 -0.1155  1.0920
  110MOL0     H14845   8.033   8.561   7.493  3.7856 -0.3824 -1.6779
  110MOL0     H14846   8.130   8.287   7.532  3.0299 -1.5261  0.7913
  110MOL0     H14847   8.241   8.367   7.632 -0.7797  0.2451  0.4758
  110MOL0     H14848   8.363   8.520   7.256 -0.4390 -1.9548 -0.8646
  110MOL0     H14849   7.582   8.572   7.609  1.4281 -1.4406  0.9017
  110MOL0     H14850   7.355   8.652   7.645 -1.5705  2.2596  1.2677
  111MOL0     O14851   1.019   2.813   0.575 -0.3578  0.5746  0.4851
  111MOL0     C14852   1.079   2.723   0.520 -0.0347 -0.0431  0.2473
  111MOL0     O14853   1.030   2.597   0.494 -0.0737 -0.7955  0.2520
  111MOL0     C14854   0.910   2.554   0.547  0.7174 -0.2496 -0.2280
  111MOL0     C14855   0.865   2.571   0.673  0.3915 -0.2738  0.2612
  111MOL0     C14856   0.729   2.530   0.702  0.5914  0.3103 -0.0358
  111MOL0     C14857   0.651   2.461   0.605  0.6144 -0.0924  0.2876
  111MOL0     O14858   0.529   2.404   0.623  0.2146 -0.1721 -0.4904
  111MOL0     C14859   0.475   2.415   0.753 -0.1925 -0.1822 -0.5751
  111MOL0     C14860   0.332   2.350   0.763 -0.0177  0.8286 -0.9429
  111MOL0     C14861   0.238   2.414   0.672  0.2839 -0.7738  0.2778
  111MOL0     C14862   0.113   2.320   0.646  0.7889 -0.2203 -0.6878
  111MOL0     C14863   0.044   2.360   0.516  0.4617 -0.1107 -0.3285
  111MOL0     C14864  -0.041   2.251   0.451 -0.2741 -0.6251  0.1629
  111MOL0     C14865  -0.143   2.191   0.557  0.0335  0.4314 -0.4491
  111MOL0     C14866  -0.250   2.120   0.483 -0.1322 -0.0453  0.6945
  111MOL0     N14867  -0.318   2.208   0.387  0.0476 -0.3856 -0.3906
  111MOL0     C14868  -0.395   2.314   0.419  0.4348  0.0879 -0.6108
  111MOL0     C14869  -0.418   2.370   0.299  0.1345 -0.5500  0.4500
  111MOL0     C14870  -0.504   2.485   0.267 -0.4630 -0.1796 -0.5730
  111MOL0     C14871  -0.634   2.455   0.194 -0.5390 -0.3219 -0.6094
  111MOL0     C14872  -0.704   2.324   0.238 -0.3361  0.5918 -0.3054
  111MOL0     C14873  -0.826   2.292   0.148 -0.7275 -0.2888 -0.1772
  111MOL0     O14874  -0.907   2.401   0.121 -0.2841  0.2799 -0.0744
  111MOL0     C14875  -1.035   2.385   0.089 -0.8090  0.4399  0.0070
  111MOL0     C14876  -1.114   2.497   0.099 -0.0784 -0.1593  0.0263
  111MOL0     C14877  -1.254   2.492   0.057  0.1310 -0.8028 -0.2122
  111MOL0     C14878  -1.344   2.618   0.083  0.1796  0.3099 -0.2753
  111MOL0     C14879  -1.302   2.377  -0.004  0.7374  0.2216 -0.2163
  111MOL0     C14880  -1.432   2.362  -0.058 -0.2715  0.2297  0.1294
  111MOL0     O14881  -1.536   2.437  -0.006  0.8500  0.2857 -0.3507
  111MOL0     C14882  -1.660   2.443  -0.055 -0.0721  0.3508  0.2130
  111MOL0     C14883  -1.764   2.490   0.026 -0.5196 -0.4754 -0.4023
  111MOL0     C14884  -1.894   2.513  -0.020 -0.5232 -0.1287 -0.1219
  111MOL0     C14885  -1.929   2.496  -0.154 -0.9679  0.0309 -0.9421
  111MOL0     O14886  -2.054   2.524  -0.195  0.4524  0.0440  0.2310
  111MOL0     C14887  -2.078   2.547  -0.336  0.1617 -0.0670 -0.5378
  111MOL0     C14888  -2.221   2.577  -0.372  0.3534 -0.5132  0.7256
  111MOL0     C14889  -2.300   2.646  -0.264  0.6981  0.0206 -0.3376
  111MOL0     C14890  -2.443   2.658  -0.314  0.1046  0.0490 -0.9642
  111MOL0     C14891  -2.525   2.745  -0.223  0.1701 -0.4345 -0.0418
  111MOL0     C14892  -2.663   2.761  -0.281 -1.4054  0.5211 -0.2700
  111MOL0     C14893  -2.767   2.781  -0.178  0.5063  0.0289  0.3182
  111MOL0     C14894  -2.750   2.913  -0.099 -0.2987 -0.5220 -0.2735
  111MOL0    Cl14895  -2.908   2.963  -0.020  0.0528  0.1152  0.0626
  111MOL0     C14896  -1.825   2.440  -0.239  0.2223 -0.4470 -1.5274
  111MOL0     C14897  -1.701   2.412  -0.192 -0.8117 -0.3376 -0.2791
  111MOL0     O14898  -1.444   2.273  -0.144 -0.1642  0.2581 -0.2515
  111MOL0     C14899  -1.220   2.257  -0.005  0.1613 -0.1409  0.3800
  111MOL0     C14900  -1.090   2.266   0.043 -0.4847 -1.0533  0.2477
  111MOL0     N14901  -0.370   2.292   0.195 -0.2781 -0.4927 -0.1078
  111MOL0     N14902  -0.319   2.188   0.251 -0.5022 -0.1279 -0.0969
  111MOL0     C14903   0.717   2.429   0.481 -0.6110 -0.3242  0.4571
  111MOL0     C14904   0.833   2.482   0.452 -0.3694 -0.0771 -0.2469
  111MOL0     C14905   1.222   2.758   0.487  0.2508  0.7643  0.6629
  111MOL0     C14906   1.266   2.890   0.499  1.3716  0.0696 -0.6555
  111MOL0     C14907   1.391   2.933   0.459  0.3728 -0.0693  0.2818
  111MOL0     C14908   1.486   2.839   0.412  0.0796  0.0969  0.1120
  111MOL0     O14909   1.619   2.860   0.379 -0.3627 -0.3105 -0.2487
  111MOL0     C14910   1.646   2.982   0.310  0.4433  0.4300 -0.7143
  111MOL0     C14911   1.796   2.992   0.289 -0.9334 -0.1201 -0.6001
  111MOL0     C14912   1.870   3.020   0.423  0.5605  0.5550  0.3819
  111MOL0     C14913   1.915   3.159   0.440  0.4421 -0.7633  0.1184
  111MOL0     C14914   2.034   3.193   0.360  1.5054  0.7550  0.8776
  111MOL0     C14915   2.131   3.215   0.288 -0.6069  0.9995 -0.1067
  111MOL0     C14916   1.452   2.706   0.408  1.4241 -0.2622 -0.2788
  111MOL0     C14917   1.321   2.662   0.444 -0.5578  0.7935  0.0808
  111MOL0     H14918   0.930   2.625   0.740  1.4796 -0.7829 -0.3546
  111MOL0     H14919   0.682   2.554   0.797 -0.5486 -0.1617 -0.4589
  111MOL0     H14920   0.535   2.352   0.819 -0.5901  0.6960  0.6609
  111MOL0     H14921   0.474   2.520   0.785  0.4288  0.2029 -1.7336
  111MOL0     H14922   0.332   2.242   0.744 -4.4975 -0.0338  2.3905
  111MOL0     H14923   0.285   2.358   0.861 -1.2464  4.0221 -1.6776
  111MOL0     H14924   0.213   2.519   0.690  0.1841 -0.4708 -1.4312
  111MOL0     H14925   0.290   2.413   0.576  2.6966  0.1375  1.4917
  111MOL0     H14926   0.147   2.216   0.648  2.5161  0.3175  1.1290
  111MOL0     H14927   0.040   2.336   0.726 -0.0435 -0.1439 -1.4477
  111MOL0     H14928  -0.016   2.449   0.538  1.5352  0.0120  2.4445
  111MOL0     H14929   0.117   2.380   0.438 -0.9705 -2.8460 -2.5856
  111MOL0     H14930  -0.101   2.296   0.371 -1.8191 -2.3805  0.2673
  111MOL0     H14931   0.025   2.176   0.406 -2.2123 -1.3272 -1.6840
  111MOL0     H14932  -0.092   2.122   0.626 -1.1708  1.0899  1.1605
  111MOL0     H14933  -0.190   2.274   0.611  0.0757  0.3134 -0.2284
  111MOL0     H14934  -0.320   2.070   0.550 -0.7814 -0.2505 -0.1153
  111MOL0     H14935  -0.203   2.052   0.411  0.0749  1.0229 -0.2006
  111MOL0     H14936  -0.410   2.352   0.520 -1.8483 -1.2683 -0.3668
  111MOL0     H14937  -0.516   2.536   0.363 -1.8830 -1.2306 -0.1766
  111MOL0     H14938  -0.438   2.552   0.210  0.4308 -0.0665  0.5603
  111MOL0     H14939  -0.603   2.443   0.089 -0.0305 -0.1900 -0.4771
  111MOL0     H14940  -0.703   2.539   0.209 -1.1486  0.1155 -4.6376
  111MOL0     H14941  -0.736   2.335   0.342  1.6297  0.5142  0.3588
  111MOL0     H14942  -0.638   2.237   0.233 -0.6089  0.3813 -0.2483
  111MOL0     H14943  -0.876   2.202   0.186 -1.2671 -0.4627 -1.2682
  111MOL0     H14944  -0.785   2.253   0.055 -0.9331 -3.2261  0.8623
  111MOL0     H14945  -1.080   2.589   0.145  3.0810 -0.8362 -0.7368
  111MOL0     H14946  -1.417   2.644   0.006 -1.5904 -0.1026  1.1857
  111MOL0     H14947  -1.399   2.605   0.177  2.6332  1.0884  1.3618
  111MOL0     H14948  -1.275   2.702   0.091  0.2710  0.1391  1.1700
  111MOL0     H14949  -1.739   2.512   0.130 -0.0795 -0.8629 -0.4223
  111MOL0     H14950  -1.975   2.554   0.041  0.6756  2.0547  0.1007
  111MOL0     H14951  -2.015   2.632  -0.363  1.1339 -0.4207  0.5213
  111MOL0     H14952  -2.043   2.457  -0.389  2.1454  0.0091  0.5278
  111MOL0     H14953  -2.238   2.621  -0.470  1.0847  3.7306  2.3095
  111MOL0     H14954  -2.263   2.476  -0.363 -1.0572  0.1856  2.6552
  111MOL0     H14955  -2.246   2.740  -0.250  0.2064  0.3623 -0.7173
  111MOL0     H14956  -2.306   2.593  -0.169  0.8819  2.2074  0.9529
  111MOL0     H14957  -2.445   2.695  -0.417  2.6246  3.5157  0.0403
  111MOL0     H14958  -2.481   2.556  -0.302  0.3559  0.1250  0.8167
  111MOL0     H14959  -2.486   2.844  -0.196  1.3155 -0.6008 -1.0247
  111MOL0     H14960  -2.538   2.697  -0.126 -1.1853  1.0066  0.5402
  111MOL0     H14961  -2.667   2.842  -0.355  1.9503  1.3409  0.2933
  111MOL0     H14962  -2.685   2.666  -0.330  1.3789 -0.2049 -0.2887
  111MOL0     H14963  -2.763   2.691  -0.115  3.8425 -0.2393 -0.0610
  111MOL0     H14964  -2.865   2.778  -0.226  0.0331  0.0766  1.2582
  111MOL0     H14965  -2.720   2.998  -0.162 -1.9147 -0.0145 -0.4058
  111MOL0     H14966  -2.684   2.902  -0.013 -0.1051  1.6140 -0.0829
  111MOL0     H14967  -1.843   2.422  -0.345 -2.0059 -0.3401 -1.2140
  111MOL0     H14968  -1.630   2.376  -0.266 -0.2995 -0.1996  0.1410
  111MOL0     H14969  -1.248   2.158  -0.039 -1.7731  0.1429  0.9690
  111MOL0     H14970  -1.028   2.178   0.031  0.3257 -0.4971  0.2773
  111MOL0     H14971   0.663   2.394   0.394 -0.6514 -1.1268  0.7876
  111MOL0     H14972   0.865   2.486   0.348 -0.5561  0.0716 -0.3002
  111MOL0     H14973   1.206   2.966   0.548  2.6915  0.8626 -0.2069
  111MOL0     H14974   1.409   3.040   0.457 -0.2603  0.0352  0.1032
  111MOL0     H14975   1.593   2.987   0.214 -1.8846  1.3827  0.5343
  111MOL0     H14976   1.614   3.069   0.368 -3.5266 -0.6281 -1.0457
  111MOL0     H14977   1.820   3.078   0.225 -0.0598  0.1913  0.1154
  111MOL0     H14978   1.845   2.905   0.245  4.0119  2.0121  0.0114
  111MOL0     H14979   1.955   2.951   0.424  1.8741  2.0790  2.3815
  111MOL0     H14980   1.803   2.988   0.504 -1.9279  1.4219 -1.2260
  111MOL0     H14981   1.949   3.174   0.544  0.8335  2.0412 -0.3294
  111MOL0     H14982   1.821   3.212   0.420  0.0862 -1.6626 -0.6005
  111MOL0     H14983   2.207   3.228   0.214 -1.6236 -2.5992 -1.9990
  111MOL0     H14984   1.520   2.636   0.359  2.2018  1.5979 -1.9797
  111MOL0     H14985   1.291   2.558   0.435 -0.1340  0.7604 -1.0965
  112MOL0     O14986   1.688   4.787   4.844 -0.5981 -0.1988  0.3229
  112MOL0     C14987   1.636   4.738   4.743  0.0020 -0.1506  0.9961
  112MOL0     O14988   1.704   4.674   4.641 -0.0450 -0.3594 -0.2396
  112MOL0     C14989   1.843   4.661   4.653  0.6039  0.6648 -0.9042
  112MOL0     C14990   1.922   4.768   4.648  0.1847  0.6947 -0.6375
  112MOL0     C14991   2.065   4.760   4.645  0.2285  1.5115 -0.2110
  112MOL0     C14992   2.124   4.630   4.649 -0.4458 -0.1106 -0.4917
  112MOL0     O14993   2.257   4.629   4.655 -0.3393  0.3405  0.4577
  112MOL0     C14994   2.329   4.510   4.687 -0.6008  0.2321  0.4310
  112MOL0     C14995   2.484   4.519   4.684  1.2693 -0.3090 -0.0853
  112MOL0     C14996   2.527   4.544   4.536 -0.6082 -1.1548  0.2120
  112MOL0     C14997   2.680   4.525   4.530  0.5347  0.3113 -0.5581
  112MOL0     C14998   2.737   4.562   4.392  0.0065 -0.6085  0.0136
  112MOL0     C14999   2.883   4.510   4.388  0.1380 -0.0571 -0.3137
  112MOL0     C15000   2.967   4.570   4.269 -0.3626 -0.2208  1.1229
  112MOL0     C15001   3.088   4.498   4.233  0.4630  0.5734  0.0581
  112MOL0     N15002   3.157   4.550   4.113 -0.2510 -0.5981 -0.1060
  112MOL0     C15003   3.104   4.530   3.986  0.0738 -0.5584 -0.0810
  112MOL0     C15004   3.200   4.575   3.903 -0.7285  0.5644  0.2089
  112MOL0     C15005   3.202   4.589   3.755 -0.1309  0.0621 -0.1899
  112MOL0     C15006   3.323   4.522   3.689 -0.1389 -0.1808 -0.0806
  112MOL0     C15007   3.368   4.563   3.551  0.0624 -0.1098  0.1505
  112MOL0     C15008   3.237   4.550   3.457  0.4122 -0.3620  0.5995
  112MOL0     O15009   3.227   4.417   3.414  0.6770  0.3554  0.2607
  112MOL0     C15010   3.107   4.389   3.341  0.8565 -0.1894  0.4521
  112MOL0     C15011   3.002   4.472   3.307 -0.2051  0.1653  0.2629
  112MOL0     C15012   2.887   4.434   3.237  0.0478 -0.7660  0.4930
  112MOL0     C15013   2.787   4.548   3.212  0.1807  0.5250  0.0301
  112MOL0     C15014   2.876   4.303   3.183 -0.0895  0.3069 -0.5220
  112MOL0     C15015   2.760   4.258   3.111 -0.0623  0.3573 -0.1086
  112MOL0     O15016   2.639   4.290   3.153 -0.1903 -0.7004  0.0233
  112MOL0     C15017   2.531   4.222   3.105  0.0819 -0.1293  0.2452
  112MOL0     C15018   2.522   4.086   3.066  0.1577 -0.4149  0.1621
  112MOL0     C15019   2.406   4.036   3.007 -0.2815  0.2546  0.5206
  112MOL0     C15020   2.288   4.108   3.006  0.2162 -0.7982  0.7700
  112MOL0     O15021   2.170   4.057   2.947 -0.5447 -0.6470 -0.0567
  112MOL0     C15022   2.055   4.142   2.913 -0.6843  0.1982  1.2604
  112MOL0     C15023   1.940   4.045   2.870  0.2314 -0.5791 -0.3083
  112MOL0     C15024   1.809   4.113   2.815 -0.1359 -0.9150  0.1542
  112MOL0     C15025   1.737   4.181   2.944 -1.2894  0.6750 -0.7368
  112MOL0     C15026   1.676   4.087   3.054 -0.3495  0.4888 -0.5646
  112MOL0     C15027   1.528   4.044   3.026  0.7258 -0.3091  0.3715
  112MOL0     C15028   1.473   3.951   3.139  0.1624  0.5839  0.7271
  112MOL0     C15029   1.409   3.827   3.069  0.4837  0.2923  0.2641
  112MOL0    Cl15030   1.348   3.716   3.183  0.5833  0.4663  0.0427
  112MOL0     C15031   2.295   4.239   3.062 -0.0042  0.2997  0.1021
  112MOL0     C15032   2.418   4.299   3.108 -0.0690  0.4909  0.3405
  112MOL0     O15033   2.786   4.188   3.018  0.2949 -0.4169 -0.1124
  112MOL0     C15034   2.987   4.216   3.212 -0.1358  0.3730  0.5058
  112MOL0     C15035   3.088   4.258   3.300  0.7470  0.1115 -0.7227
  112MOL0     N15036   3.298   4.633   3.983  0.3320 -0.0277  0.3296
  112MOL0     N15037   3.275   4.620   4.111  0.1860  0.0489  0.1177
  112MOL0     C15038   2.039   4.520   4.650  0.6118 -0.0792  0.5768
  112MOL0     C15039   1.899   4.536   4.642  0.1619  0.4228  0.2310
  112MOL0     C15040   1.490   4.745   4.731 -0.6084  0.5968  0.1490
  112MOL0     C15041   1.412   4.660   4.644  0.1070 -0.1830 -0.5597
  112MOL0     C15042   1.268   4.657   4.653  0.2152 -0.5514  0.3671
  112MOL0     C15043   1.198   4.734   4.741 -0.5085 -0.1745 -0.1902
  112MOL0     O15044   1.064   4.751   4.728  0.4004  0.4417 -0.3499
  112MOL0     C15045   1.026   4.873   4.667  0.0021 -0.3349  0.1301
  112MOL0     C15046   0.873   4.875   4.653  0.4460  0.8012 -0.1108
  112MOL0     C15047   0.819   4.814   4.516  0.2103 -0.0737 -0.7267
  112MOL0     C15048   0.668   4.815   4.492  1.1091  1.2731 -0.6567
  112MOL0     C15049   0.593   4.719   4.584 -0.9671 -0.3240  0.9866
  112MOL0     C15050   0.538   4.658   4.676  0.5155  0.2611  0.1289
  112MOL0     C15051   1.275   4.816   4.831 -0.0208 -0.4643 -0.4402
  112MOL0     C15052   1.419   4.830   4.817  0.6273 -0.1697 -0.3771
  112MOL0     H15053   1.881   4.867   4.629  0.6418  0.7323 -1.4677
  112MOL0     H15054   2.121   4.853   4.647  1.0971  1.0215 -1.0198
  112MOL0     H15055   2.297   4.476   4.786 -1.0741 -0.9471 -0.1069
  112MOL0     H15056   2.317   4.435   4.608 -0.1164  1.6022 -0.9827
  112MOL0     H15057   2.522   4.601   4.744  1.7059  0.4982 -1.4079
  112MOL0     H15058   2.521   4.423   4.721 -0.4285  0.2082  3.2513
  112MOL0     H15059   2.481   4.475   4.464  0.3038  0.0060 -1.5785
  112MOL0     H15060   2.505   4.648   4.510  0.2927 -0.9375  0.2762
  112MOL0     H15061   2.725   4.588   4.606  1.3607 -1.6201  0.6221
  112MOL0     H15062   2.702   4.421   4.555  0.2171 -0.0447 -1.6777
  112MOL0     H15063   2.677   4.532   4.306  1.6174 -2.0107 -0.6808
  112MOL0     H15064   2.748   4.671   4.394  2.3831 -0.7963  0.9001
  112MOL0     H15065   2.939   4.544   4.475 -1.8385  1.0890  0.5628
  112MOL0     H15066   2.890   4.401   4.386  1.3227  0.0135 -1.5302
  112MOL0     H15067   2.908   4.550   4.179 -0.2125  0.6086  0.8284
  112MOL0     H15068   2.977   4.678   4.287 -1.5029 -0.2600  2.1750
  112MOL0     H15069   3.057   4.394   4.225 -3.7325  1.6524 -0.3469
  112MOL0     H15070   3.163   4.501   4.313  0.9673 -3.9291 -0.0228
  112MOL0     H15071   3.006   4.489   3.962  0.2657 -0.7954 -0.4755
  112MOL0     H15072   3.108   4.550   3.716  0.8333 -2.2698 -0.3352
  112MOL0     H15073   3.211   4.696   3.735 -1.4292  0.3989  0.9122
  112MOL0     H15074   3.307   4.414   3.682 -4.3508  0.1989  1.3146
  112MOL0     H15075   3.408   4.532   3.757 -1.2722 -1.0003  1.5201
  112MOL0     H15076   3.444   4.494   3.514  3.1273  2.1201  1.7980
  112MOL0     H15077   3.409   4.665   3.546  1.8890 -0.6186  2.6169
  112MOL0     H15078   3.251   4.618   3.371  1.3192  1.8543  2.3911
  112MOL0     H15079   3.142   4.572   3.505 -1.4947 -3.0317 -1.6481
  112MOL0     H15080   3.010   4.574   3.345  3.1764 -0.0968  0.5496
  112MOL0     H15081   2.705   4.545   3.285  1.0898 -3.2859  1.1319
  112MOL0     H15082   2.825   4.648   3.191  2.2902 -0.7464 -2.7483
  112MOL0     H15083   2.747   4.524   3.113  2.3351  1.1478 -1.0446
  112MOL0     H15084   2.599   4.011   3.076 -1.6934 -2.3889  0.4835
  112MOL0     H15085   2.396   3.938   2.962 -2.0377  0.8363 -0.4347
  112MOL0     H15086   2.022   4.206   2.995 -0.8705  2.6676 -0.6196
  112MOL0     H15087   2.070   4.211   2.829 -2.9969  1.1102  1.5172
  112MOL0     H15088   1.991   3.985   2.793  2.1349  3.1605 -2.2318
  112MOL0     H15089   1.911   3.983   2.955  0.2525  0.9819  0.8664
  112MOL0     H15090   1.749   4.038   2.762  0.3610 -0.3360 -1.2773
  112MOL0     H15091   1.831   4.190   2.741  0.8664 -1.1468  0.2078
  112MOL0     H15092   1.811   4.239   3.000 -0.8226  0.7694 -1.4398
  112MOL0     H15093   1.655   4.246   2.911 -3.3556  0.7064  3.7299
  112MOL0     H15094   1.668   4.143   3.148  1.2039 -3.2996  2.1178
  112MOL0     H15095   1.737   4.001   3.082 -0.1025  0.4646 -1.1659
  112MOL0     H15096   1.466   4.133   3.016  1.2293  0.1280  1.0654
  112MOL0     H15097   1.527   3.993   2.929  0.4674 -1.3766  0.9202
  112MOL0     H15098   1.395   4.008   3.189  2.0850  2.0746  2.1715
  112MOL0     H15099   1.547   3.930   3.217  1.7615 -2.1343 -1.3255
  112MOL0     H15100   1.479   3.778   3.001  1.1742 -0.3796  1.4394
  112MOL0     H15101   1.320   3.859   3.014 -0.2018 -1.4789  0.2981
  112MOL0     H15102   2.213   4.310   3.059  0.3597  0.6950 -1.5823
  112MOL0     H15103   2.421   4.405   3.133  1.2247  0.7370 -0.7604
  112MOL0     H15104   2.982   4.118   3.167 -2.3638  2.1184 -3.5804
  112MOL0     H15105   3.163   4.183   3.325 -0.4304 -1.4975 -1.7893
  112MOL0     H15106   2.074   4.419   4.662 -0.0781 -0.5344 -1.0232
  112MOL0     H15107   1.846   4.444   4.618  1.2465  0.2171 -1.5880
  112MOL0     H15108   1.459   4.602   4.564 -1.2796  0.0192 -1.5639
  112MOL0     H15109   1.213   4.585   4.593  3.5689 -3.5433  0.5500
  112MOL0     H15110   1.052   4.952   4.737  1.7889  0.9044 -1.8155
  112MOL0     H15111   1.064   4.899   4.568 -0.4561  6.1801  1.2258
  112MOL0     H15112   0.848   4.980   4.667  0.3164  1.0358 -1.9280
  112MOL0     H15113   0.833   4.814   4.735  2.7717  1.1322  1.3884
  112MOL0     H15114   0.853   4.710   4.509 -3.4711 -1.6341  1.5198
  112MOL0     H15115   0.871   4.868   4.437  1.9112  0.2099  0.5310
  112MOL0     H15116   0.654   4.784   4.388 -0.4760  1.7221 -0.6031
  112MOL0     H15117   0.642   4.920   4.506  2.3038  1.9822 -3.1026
  112MOL0     H15118   0.488   4.615   4.761  0.4319 -0.4837 -0.2837
  112MOL0     H15119   1.217   4.882   4.895 -0.1434 -0.3227 -0.6956
  112MOL0     H15120   1.471   4.904   4.877  1.1312 -1.4842  0.8615
  113MOL0     O15121  10.639   0.166   4.370  0.1819 -0.1940  0.2399
  113MOL0     C15122  10.638   0.290   4.375 -0.4607 -0.1025  0.8047
  113MOL0     O15123  10.531   0.375   4.411  0.6038  1.4016 -0.0600
  113MOL0     C15124  10.411   0.305   4.423  0.6295  0.8210  0.5617
  113MOL0     C15125  10.309   0.334   4.332  0.0660 -0.5957 -0.6315
  113MOL0     C15126  10.195   0.254   4.334  0.3953 -0.5322 -0.0849
  113MOL0     C15127  10.185   0.147   4.427 -0.8527 -0.7863 -0.7585
  113MOL0     O15128  10.078   0.060   4.443 -0.2111  0.0261 -0.1701
  113MOL0     C15129   9.946   0.096   4.390  0.8870 -1.2779 -0.1084
  113MOL0     C15130   9.833   0.015   4.448  0.5089  1.2787 -0.5035
  113MOL0     C15131   9.816   0.020   4.599  0.3514  0.1044  0.6141
  113MOL0     C15132   9.693  -0.046   4.636  1.0348 -0.0686  1.0024
  113MOL0     C15133   9.654  -0.040   4.785 -0.3641 -0.1206  0.3786
  113MOL0     C15134   9.500  -0.049   4.795 -0.0176 -0.5007  0.7371
  113MOL0     C15135   9.441  -0.018   4.945 -0.1372  0.1972  0.2110
  113MOL0     C15136   9.524  -0.087   5.059 -0.9171  0.6843 -0.0555
  113MOL0     N15137   9.469  -0.054   5.193 -0.0060 -0.0917 -0.3126
  113MOL0     C15138   9.362   0.032   5.218  0.5282 -0.8351 -0.3516
  113MOL0     C15139   9.340   0.022   5.356  0.0997  0.5544  0.8311
  113MOL0     C15140   9.229   0.083   5.430  0.2384  0.1535 -0.1601
  113MOL0     C15141   9.252   0.234   5.457 -0.0419  0.3003  0.0317
  113MOL0     C15142   9.186   0.275   5.591 -0.0300 -0.3179  1.0755
  113MOL0     C15143   9.033   0.287   5.581 -0.3321 -0.4035 -0.0583
  113MOL0     O15144   8.999   0.383   5.482  0.0656 -0.1921  0.2421
  113MOL0     C15145   8.899   0.482   5.505  0.4311  0.4027  0.8536
  113MOL0     C15146   8.802   0.471   5.600 -0.8024 -0.7385 -0.9607
  113MOL0     C15147   8.716   0.576   5.637 -0.9013 -0.5253  0.1746
  113MOL0     C15148   8.636   0.568   5.760  0.4765 -0.2123 -0.9717
  113MOL0     C15149   8.727   0.701   5.571 -0.0662  0.7627 -0.3559
  113MOL0     C15150   8.633   0.818   5.568  0.3776 -0.2433  0.4057
  113MOL0     O15151   8.504   0.799   5.574  0.2875 -0.4551 -0.0646
  113MOL0     C15152   8.426   0.913   5.562 -0.3965  0.0088 -0.1715
  113MOL0     C15153   8.339   0.918   5.459  1.1529 -0.4663  0.2401
  113MOL0     C15154   8.260   1.034   5.430 -0.0902 -0.2455  0.0764
  113MOL0     C15155   8.267   1.141   5.524 -0.4472 -0.1434  0.0510
  113MOL0     O15156   8.204   1.264   5.517  0.8036 -0.6015  0.3896
  113MOL0     C15157   8.103   1.281   5.420 -0.5315  0.2814  0.1928
  113MOL0     C15158   8.034   1.414   5.420  0.7558 -0.6161  0.1643
  113MOL0     C15159   8.134   1.532   5.406 -0.3144 -0.2075  0.4826
  113MOL0     C15160   8.071   1.667   5.445 -0.6642  0.1278  0.2749
  113MOL0     C15161   7.992   1.737   5.341  0.3488 -0.5375  0.8310
  113MOL0     C15162   7.844   1.696   5.331  0.2395  0.5875 -0.5068
  113MOL0     C15163   7.753   1.791   5.250  0.1413 -0.2630  0.2537
  113MOL0     C15164   7.603   1.744   5.282 -0.1911  0.2081 -1.1937
  113MOL0    Cl15165   7.485   1.881   5.245 -0.0463 -0.1733  0.5162
  113MOL0     C15166   8.343   1.127   5.637  0.7066  0.9655 -0.1494
  113MOL0     C15167   8.427   1.019   5.653  0.7455  0.9394  0.0365
  113MOL0     O15168   8.693   0.930   5.566 -0.1409  0.1073  0.9189
  113MOL0     C15169   8.832   0.706   5.475 -0.4502  0.1643  0.6841
  113MOL0     C15170   8.918   0.602   5.438  0.4891  0.0480  0.6434
  113MOL0     N15171   9.440  -0.052   5.409  0.7396 -0.7926  0.3707
  113MOL0     N15172   9.523  -0.099   5.316  0.2627  0.7774 -0.1696
  113MOL0     C15173  10.288   0.133   4.518 -0.2081 -0.3832  0.1931
  113MOL0     C15174  10.395   0.207   4.518 -0.1428  0.2022 -0.1052
  113MOL0     C15175  10.769   0.346   4.340  0.2165 -0.1117 -0.2683
  113MOL0     C15176  10.877   0.264   4.294 -0.4603 -0.5550  1.0180
  113MOL0     C15177  11.012   0.307   4.287 -0.4128  0.2901  0.7821
  113MOL0     C15178  11.051   0.441   4.334  0.6006  0.9355  0.9469
  113MOL0     O15179  11.179   0.490   4.342  0.0735  0.2856  0.0238
  113MOL0     C15180  11.292   0.405   4.306  0.5434  0.4824 -1.0897
  113MOL0     C15181  11.340   0.314   4.416 -0.1624  0.5457 -0.7407
  113MOL0     C15182  11.343   0.381   4.555  0.7989  0.7681  0.5324
  113MOL0     C15183  11.212   0.370   4.634 -0.3857  0.2983  0.6078
  113MOL0     C15184  11.175   0.228   4.647  0.7752 -0.9362 -0.6387
  113MOL0     C15185  11.152   0.113   4.676  0.6786  0.2691  0.6095
  113MOL0     C15186  10.948   0.519   4.381 -1.1057  0.0361 -0.4283
  113MOL0     C15187  10.811   0.470   4.393  0.5294  0.3999  0.6037
  113MOL0     H15188  10.313   0.403   4.248 -3.2772 -1.0575 -1.3031
  113MOL0     H15189  10.119   0.284   4.262 -1.9869  2.7816  3.3942
  113MOL0     H15190   9.925   0.201   4.415 -0.8793 -1.6434  0.1093
  113MOL0     H15191   9.954   0.081   4.282  2.7183 -2.6613  0.1703
  113MOL0     H15192   9.748   0.042   4.385 -1.0883 -1.6008  0.2475
  113MOL0     H15193   9.856  -0.088   4.418 -1.3505  0.1920  1.5556
  113MOL0     H15194   9.906  -0.016   4.649  0.1181  1.1915  1.8632
  113MOL0     H15195   9.823   0.125   4.629  0.8428 -0.2675  1.8683
  113MOL0     H15196   9.615   0.003   4.577  0.0483 -0.8086  1.6721
  113MOL0     H15197   9.720  -0.147   4.604 -1.0689 -0.5829  0.6696
  113MOL0     H15198   9.700  -0.112   4.853 -0.0994  0.0204  0.3487
  113MOL0     H15199   9.686   0.056   4.825 -0.4031  0.7338 -1.5568
  113MOL0     H15200   9.468   0.032   4.730  0.9591  0.3203  1.2359
  113MOL0     H15201   9.462  -0.145   4.761  0.4228 -0.4449  0.0711
  113MOL0     H15202   9.454   0.090   4.952 -0.7489  0.9233 -5.2365
  113MOL0     H15203   9.336  -0.045   4.956 -0.5484  2.3156  2.1202
  113MOL0     H15204   9.620  -0.035   5.059  0.0449 -1.0166 -0.2611
  113MOL0     H15205   9.534  -0.195   5.048 -2.1974  0.3326  1.8004
  113MOL0     H15206   9.297   0.087   5.150  0.2588 -0.9997 -0.2293
  113MOL0     H15207   9.137   0.050   5.380  2.0336 -5.5763 -0.3538
  113MOL0     H15208   9.228   0.044   5.532 -1.2154  1.5173  0.4104
  113MOL0     H15209   9.224   0.294   5.370 -2.3322 -1.3200 -0.4335
  113MOL0     H15210   9.355   0.259   5.485 -0.8098  0.2636  3.2572
  113MOL0     H15211   9.223   0.371   5.629  1.7002 -0.4193 -0.2261
  113MOL0     H15212   9.216   0.200   5.665 -2.8957 -2.4316  0.2617
  113MOL0     H15213   8.995   0.307   5.682  1.6195  0.9647  0.4418
  113MOL0     H15214   8.991   0.189   5.554 -1.6281 -0.4093  1.7896
  113MOL0     H15215   8.800   0.383   5.664  1.9717  0.0926  0.4152
  113MOL0     H15216   8.663   0.632   5.844 -0.7452 -1.3480  0.3307
  113MOL0     H15217   8.533   0.596   5.734  0.0995 -1.5995 -1.0549
  113MOL0     H15218   8.640   0.467   5.801  0.5670  0.2571  0.1990
  113MOL0     H15219   8.347   0.835   5.390  0.9909 -0.3275  0.0533
  113MOL0     H15220   8.204   1.035   5.337 -0.9532 -0.1089  0.5802
  113MOL0     H15221   8.163   1.295   5.329  1.4577  0.4838  1.4622
  113MOL0     H15222   8.031   1.201   5.404 -2.5602  1.3419  3.1851
  113MOL0     H15223   7.967   1.406   5.334  0.6837  1.8054 -0.0738
  113MOL0     H15224   7.980   1.422   5.516 -0.1917  0.5226 -0.4363
  113MOL0     H15225   8.183   1.546   5.309 -2.1626 -1.1210 -0.6262
  113MOL0     H15226   8.207   1.524   5.487 -0.9747  0.2592  1.1416
  113MOL0     H15227   8.010   1.662   5.536  0.3268 -0.1529  0.9440
  113MOL0     H15228   8.157   1.727   5.477 -0.1533 -0.6705  0.4510
  113MOL0     H15229   8.042   1.721   5.245 -2.7859 -0.0833 -1.0156
  113MOL0     H15230   8.004   1.841   5.373  0.9462 -0.6277  0.9039
  113MOL0     H15231   7.843   1.597   5.285 -0.0722  0.4298 -0.1696
  113MOL0     H15232   7.824   1.695   5.439  1.0199 -0.5745 -0.3502
  113MOL0     H15233   7.774   1.785   5.143 -0.2136  0.2017  0.1535
  113MOL0     H15234   7.766   1.894   5.283 -1.5205  0.4367 -1.0859
  113MOL0     H15235   7.588   1.725   5.389  3.3580 -2.3599 -0.9843
  113MOL0     H15236   7.598   1.648   5.231  0.1120  0.4679 -1.7215
  113MOL0     H15237   8.350   1.200   5.717  2.0774  0.1343  0.5277
  113MOL0     H15238   8.483   1.015   5.746 -1.4979  1.9945  1.5551
  113MOL0     H15239   8.835   0.803   5.428 -2.4275  0.2619  0.6741
  113MOL0     H15240   8.994   0.618   5.362 -0.0353  2.4907  0.5517
  113MOL0     H15241  10.278   0.044   4.581 -3.7777  1.6137  2.8126
  113MOL0     H15242  10.480   0.200   4.585  0.6938  0.4599 -1.1152
  113MOL0     H15243  10.856   0.160   4.269  0.0064 -0.5811  0.7311
  113MOL0     H15244  11.088   0.236   4.255 -3.0406 -1.7572 -1.4583
  113MOL0     H15245  11.265   0.346   4.218 -1.9269  0.7734 -0.5947
  113MOL0     H15246  11.371   0.475   4.276 -0.5434  2.5351  0.5357
  113MOL0     H15247  11.442   0.281   4.392  1.6223  1.9777  3.8780
  113MOL0     H15248  11.270   0.230   4.412 -1.9022  1.8317  0.8829
  113MOL0     H15249  11.364   0.487   4.536 -1.6554  0.8726 -2.3230
  113MOL0     H15250  11.423   0.341   4.618  1.0511  3.0852  1.7915
  113MOL0     H15251  11.133   0.428   4.586 -0.1797  1.2907  1.4151
  113MOL0     H15252  11.223   0.410   4.736 -3.3319  1.0889  0.6977
  113MOL0     H15253  11.140   0.014   4.714  1.1735  0.0032  0.0989
  113MOL0     H15254  10.982   0.617   4.414 -1.9024  0.2936 -0.3261
  113MOL0     H15255  10.726   0.526   4.430 -1.0751 -0.4418 -1.5416
  114MOL0     O15256  11.377   8.535   5.834 -0.5013 -0.2045 -0.9670
  114MOL0     C15257  11.461   8.457   5.790 -0.7002 -0.4094 -0.6398
  114MOL0     O15258  11.446   8.349   5.711  0.1114  0.6437  0.7339
  114MOL0     C15259  11.322   8.325   5.657  1.0534  1.1631  0.4283
  114MOL0     C15260  11.267   8.416   5.565  0.3486 -0.3051 -0.7880
  114MOL0     C15261  11.155   8.386   5.493 -0.7745  1.4305 -1.0899
  114MOL0     C15262  11.094   8.257   5.513 -0.3178  0.4823  0.4892
  114MOL0     O15263  10.983   8.229   5.442  0.3075  0.0547  0.4850
  114MOL0     C15264  10.992   8.117   5.349  0.5903  0.0840 -0.0544
  114MOL0     C15265  10.861   8.061   5.290  1.2291 -0.6699 -0.6609
  114MOL0     C15266  10.751   8.038   5.395 -0.4984 -0.2695 -0.4408
  114MOL0     C15267  10.621   8.059   5.328  0.3634 -0.2553  0.6526
  114MOL0     C15268  10.511   8.014   5.424 -0.4558 -0.2542 -0.2912
  114MOL0     C15269  10.366   8.048   5.375  0.3621 -0.1348  0.1019
  114MOL0     C15270  10.260   8.025   5.488  0.0158 -0.0713 -0.2845
  114MOL0     C15271  10.151   8.134   5.489 -1.2286 -0.4587 -0.1283
  114MOL0     N15272  10.073   8.137   5.363  0.7690 -0.1410 -0.0151
  114MOL0     C15273  10.107   8.204   5.247  0.4677 -0.7252 -0.7915
  114MOL0     C15274   9.996   8.189   5.170  0.4975 -0.7629 -0.2220
  114MOL0     C15275   9.978   8.233   5.028  0.5417 -0.2544  0.2626
  114MOL0     C15276  10.101   8.310   4.975  0.3571  0.8529  0.3794
  114MOL0     C15277  10.083   8.358   4.825  1.0162  0.4187 -0.4643
  114MOL0     C15278  10.114   8.240   4.728  0.1483 -0.3964 -0.1340
  114MOL0     O15279  10.008   8.152   4.718 -0.3123  0.5323  0.8760
  114MOL0     C15280   9.885   8.182   4.663 -0.0184  0.9170  0.0938
  114MOL0     C15281   9.861   8.266   4.553  0.1130 -0.5390  1.0130
  114MOL0     C15282   9.723   8.286   4.503 -0.7043 -0.1472 -0.7764
  114MOL0     C15283   9.707   8.401   4.402 -0.8922 -0.5393  0.3426
  114MOL0     C15284   9.619   8.210   4.557  0.2145 -0.4710  0.2501
  114MOL0     C15285   9.479   8.237   4.512  0.2186 -0.5708  0.2675
  114MOL0     O15286   9.386   8.165   4.594  0.3391 -0.1175  0.4074
  114MOL0     C15287   9.258   8.145   4.547 -0.7934 -0.5130  1.2000
  114MOL0     C15288   9.145   8.217   4.601 -0.5136 -0.3252 -0.1283
  114MOL0     C15289   9.016   8.179   4.570  1.3253 -0.8241  0.2759
  114MOL0     C15290   8.991   8.068   4.489  0.1128 -0.6217 -0.3265
  114MOL0     O15291   8.859   8.033   4.484  0.3638 -0.1265 -0.4857
  114MOL0     C15292   8.821   7.912   4.421 -0.6615 -0.1987  0.3448
  114MOL0     C15293   8.677   7.881   4.456  0.0398 -0.7115  0.9480
  114MOL0     C15294   8.642   7.870   4.602  0.0811  0.6968  0.5911
  114MOL0     C15295   8.503   7.793   4.612  1.5056  0.0603  0.5940
  114MOL0     C15296   8.434   7.791   4.740 -0.4549  0.2480  0.8707
  114MOL0     C15297   8.399   7.930   4.796  0.2434 -0.0032 -0.0590
  114MOL0     C15298   8.315   8.012   4.696 -0.0359  0.0192 -0.0688
  114MOL0     C15299   8.224   8.123   4.761 -0.8679 -0.0923 -0.0121
  114MOL0    Cl15300   8.084   8.165   4.653  0.2493 -0.1688  0.4459
  114MOL0     C15301   9.088   8.002   4.428 -0.3907 -0.6729 -0.2581
  114MOL0     C15302   9.224   8.044   4.456 -0.3830 -0.4088 -0.0251
  114MOL0     O15303   9.453   8.288   4.402 -0.4876  0.3660  0.3488
  114MOL0     C15304   9.655   8.115   4.661 -0.3150  1.4380  0.2855
  114MOL0     C15305   9.781   8.109   4.713  0.3159  0.2266  0.2899
  114MOL0     N15306   9.912   8.103   5.234 -0.8092 -0.5228 -0.1453
  114MOL0     N15307   9.955   8.069   5.344  0.6987 -0.2149  0.0897
  114MOL0     C15308  11.142   8.174   5.616  0.2405 -0.2768 -0.4559
  114MOL0     C15309  11.256   8.205   5.685  1.3715 -0.8253 -0.1969
  114MOL0     C15310  11.607   8.490   5.806  0.1601  0.6597 -0.3929
  114MOL0     C15311  11.708   8.417   5.738  0.3404 -0.7780  0.2847
  114MOL0     C15312  11.843   8.447   5.752 -0.9843  0.4518 -0.5780
  114MOL0     C15313  11.884   8.549   5.840  0.1156 -0.4232 -0.9986
  114MOL0     O15314  12.017   8.568   5.858  0.6710  0.4112 -0.1694
  114MOL0     C15315  12.067   8.679   5.942  0.4617 -0.4223 -0.5054
  114MOL0     C15316  12.202   8.719   5.885  0.4750  0.5311  0.7354
  114MOL0     C15317  12.307   8.612   5.854 -0.0619  0.8262 -0.4726
  114MOL0     C15318  12.422   8.667   5.774 -0.5458  0.1344  0.0562
  114MOL0     C15319  12.404   8.685   5.629  0.2010  0.2107 -0.2295
  114MOL0     C15320  12.381   8.695   5.511  0.2688 -0.3095  0.7637
  114MOL0     C15321  11.782   8.620   5.903  0.0332  0.6145  0.6783
  114MOL0     C15322  11.651   8.593   5.880  0.6372 -0.1621 -0.0643
  114MOL0     H15323  11.305   8.517   5.553 -0.4052  0.0940  0.0342
  114MOL0     H15324  11.136   8.463   5.419  1.5868  0.6551 -2.6083
  114MOL0     H15325  11.065   8.144   5.272  2.7089 -0.8987  1.5562
  114MOL0     H15326  11.043   8.041   5.407  1.3729  0.5355 -0.1384
  114MOL0     H15327  10.835   8.141   5.220  3.7848  0.5121 -0.3628
  114MOL0     H15328  10.871   7.976   5.220 -1.0998 -0.2185 -1.6175
  114MOL0     H15329  10.766   7.936   5.432 -0.5307 -0.7556 -1.7093
  114MOL0     H15330  10.764   8.111   5.476  0.6817  0.0178 -0.8690
  114MOL0     H15331  10.605   8.164   5.304 -1.8498 -1.1387 -2.5005
  114MOL0     H15332  10.611   8.011   5.230 -0.8241 -0.4821  0.8711
  114MOL0     H15333  10.514   7.905   5.435 -2.1209 -0.3640 -0.6026
  114MOL0     H15334  10.527   8.059   5.522 -0.5058  1.0101 -0.8477
  114MOL0     H15335  10.369   8.155   5.352 -0.6088 -0.3305 -1.0290
  114MOL0     H15336  10.326   8.000   5.286 -4.3404  0.6175  1.4884
  114MOL0     H15337  10.226   7.924   5.466 -0.7187  0.0682  0.1733
  114MOL0     H15338  10.296   8.020   5.590  0.3904 -1.1324 -0.4659
  114MOL0     H15339  10.208   8.226   5.505 -0.1971 -0.8848 -1.2048
  114MOL0     H15340  10.090   8.115   5.579 -1.0034 -0.7791 -0.0407
  114MOL0     H15341  10.192   8.270   5.231  0.6800 -0.2554  1.8906
  114MOL0     H15342   9.966   8.142   4.968  2.5996 -0.9139  0.7812
  114MOL0     H15343   9.893   8.300   5.013 -1.2622 -2.4868 -0.1085
  114MOL0     H15344  10.192   8.251   4.989  0.7729  1.8133  1.9318
  114MOL0     H15345  10.114   8.400   5.036 -1.1036  0.3556  1.4956
  114MOL0     H15346  10.152   8.441   4.812 -0.4183  2.0761  1.8411
  114MOL0     H15347   9.985   8.406   4.813 -0.0146 -1.5584 -0.4371
  114MOL0     H15348  10.210   8.194   4.753 -0.7425 -1.5713  1.2874
  114MOL0     H15349  10.128   8.273   4.625 -1.8278  0.2691 -0.2443
  114MOL0     H15350   9.942   8.329   4.516  0.9814 -2.9812 -1.5063
  114MOL0     H15351   9.801   8.458   4.405 -0.7709 -0.7619  0.8891
  114MOL0     H15352   9.693   8.374   4.296 -3.1009  1.6571  0.0072
  114MOL0     H15353   9.621   8.462   4.431 -2.8672 -1.0762 -3.6828
  114MOL0     H15354   9.149   8.298   4.673 -3.6005 -0.4514  0.2966
  114MOL0     H15355   8.935   8.220   4.629 -0.3050  0.1022 -2.4442
  114MOL0     H15356   8.824   7.917   4.312 -0.7884 -0.8550  0.3063
  114MOL0     H15357   8.880   7.825   4.451  1.6158  1.1469 -0.0110
  114MOL0     H15358   8.613   7.954   4.407 -1.5114 -2.7932 -0.3168
  114MOL0     H15359   8.659   7.782   4.412  1.4567  0.4442 -2.5925
  114MOL0     H15360   8.635   7.965   4.655 -2.3956 -0.4808  2.5772
  114MOL0     H15361   8.720   7.815   4.654 -0.9707  0.2855  1.7750
  114MOL0     H15362   8.428   7.820   4.537  1.0841 -0.3920  0.8467
  114MOL0     H15363   8.526   7.689   4.586 -2.4982 -0.4427 -1.7675
  114MOL0     H15364   8.511   7.749   4.805  0.0033 -0.7022 -0.2476
  114MOL0     H15365   8.351   7.719   4.739  1.4141 -2.0277 -0.8645
  114MOL0     H15366   8.338   7.913   4.885  0.4603 -2.2132 -0.2811
  114MOL0     H15367   8.496   7.972   4.827  1.1609 -2.8387  1.1743
  114MOL0     H15368   8.242   7.947   4.648 -0.2036 -0.0005  0.2130
  114MOL0     H15369   8.390   8.042   4.622  1.8686  0.4632  1.9284
  114MOL0     H15370   8.284   8.205   4.800 -2.5038  0.3385  1.7654
  114MOL0     H15371   8.187   8.080   4.855 -1.6747 -1.6828 -1.0100
  114MOL0     H15372   9.073   7.931   4.348 -0.3791 -0.5378 -0.3800
  114MOL0     H15373   9.313   8.006   4.406  0.5652 -0.2829  1.4932
  114MOL0     H15374   9.568   8.066   4.705  0.9854 -1.5354 -0.2388
  114MOL0     H15375   9.808   8.042   4.794  0.9610 -3.0996 -2.4797
  114MOL0     H15376  11.085   8.086   5.641 -0.4053  0.1590 -0.3683
  114MOL0     H15377  11.294   8.135   5.759  0.2695 -2.1031 -0.8075
  114MOL0     H15378  11.683   8.334   5.672  1.3307 -0.6865 -0.2229
  114MOL0     H15379  11.910   8.377   5.703  0.0710  0.7395  0.4155
  114MOL0     H15380  12.006   8.770   5.936  1.5767  0.2531 -4.0421
  114MOL0     H15381  12.068   8.652   6.048  1.1775 -1.0280 -0.6553
  114MOL0     H15382  12.242   8.807   5.937  4.6448 -0.8845  0.2824
  114MOL0     H15383  12.183   8.774   5.792  0.4259 -0.9856 -0.1766
  114MOL0     H15384  12.256   8.537   5.792  0.5611  1.2905 -1.5885
  114MOL0     H15385  12.348   8.570   5.947 -1.3940 -1.1328 -0.7021
  114MOL0     H15386  12.515   8.608   5.776 -0.8242 -0.3131  0.0466
  114MOL0     H15387  12.440   8.765   5.818 -1.5306 -0.0870  0.9857
  114MOL0     H15388  12.349   8.720   5.412 -1.6523 -0.3973  1.3180
  114MOL0     H15389  11.805   8.707   5.963 -1.1433  1.8336 -0.5626
  114MOL0     H15390  11.588   8.653   5.945  0.3026 -0.5205 -0.0542
  115MOL0     O15391   9.837   8.050   1.021  0.5126  0.8423 -0.2067
  115MOL0     C15392   9.934   7.996   1.074  0.0799 -0.1498  0.2693
  115MOL0     O15393   9.962   8.001   1.210 -0.2463  0.2818  0.0858
  115MOL0     C15394   9.873   8.070   1.293 -1.3547  0.5599  0.4773
  115MOL0     C15395   9.765   7.993   1.347  0.4022 -1.2694  1.4438
  115MOL0     C15396   9.669   8.047   1.422  0.7753 -0.4444 -0.0815
  115MOL0     C15397   9.671   8.189   1.445  0.9687  0.0138 -0.0641
  115MOL0     O15398   9.581   8.249   1.528  0.0017  0.4432  0.3941
  115MOL0     C15399   9.510   8.361   1.477  0.0357  0.3100 -0.0587
  115MOL0     C15400   9.363   8.340   1.497  0.1303  0.2755  0.5062
  115MOL0     C15401   9.321   8.226   1.402 -0.9173  0.3475 -0.3309
  115MOL0     C15402   9.212   8.142   1.446  0.4043  0.5301  0.2571
  115MOL0     C15403   9.068   8.193   1.443  0.0415  0.3582  0.4709
  115MOL0     C15404   9.046   8.269   1.578 -0.4141 -0.6124  0.1555
  115MOL0     C15405   8.901   8.287   1.625  0.2288 -0.3748 -0.5263
  115MOL0     C15406   8.816   8.389   1.552  0.2058  0.6104 -0.2657
  115MOL0     N15407   8.679   8.381   1.589 -0.2301 -0.5196  0.2813
  115MOL0     C15408   8.630   8.417   1.714  0.1557 -0.4232  0.5641
  115MOL0     C15409   8.501   8.387   1.712 -0.1041 -0.2090 -0.1091
  115MOL0     C15410   8.430   8.402   1.842 -0.2750 -0.9003  0.3492
  115MOL0     C15411   8.437   8.287   1.933  0.1022 -0.0346 -1.6211
  115MOL0     C15412   8.359   8.161   1.894 -0.2898  0.1231  0.2866
  115MOL0     C15413   8.423   8.060   1.790  0.6339  0.0404  0.7418
  115MOL0     O15414   8.357   7.934   1.806  0.2805 -0.4404 -0.6895
  115MOL0     C15415   8.225   7.915   1.763 -0.9484  0.6569 -0.4764
  115MOL0     C15416   8.142   8.005   1.696  0.5949 -0.5785 -0.3513
  115MOL0     C15417   8.015   7.975   1.658  0.0392 -0.6777 -0.4372
  115MOL0     C15418   7.946   8.077   1.571 -1.0959  0.1657  0.1955
  115MOL0     C15419   7.962   7.847   1.690 -0.4180  0.0778  0.6387
  115MOL0     C15420   7.819   7.814   1.665  0.4801 -0.7004  0.0782
  115MOL0     O15421   7.731   7.903   1.615 -0.7579 -0.3731 -0.1779
  115MOL0     C15422   7.609   7.854   1.577 -0.6482 -0.6971 -0.6993
  115MOL0     C15423   7.501   7.839   1.669 -0.3983  0.2381 -0.5753
  115MOL0     C15424   7.374   7.796   1.625  0.4780  0.2802  0.4919
  115MOL0     C15425   7.345   7.756   1.492  0.7052  0.0944 -0.0941
  115MOL0     O15426   7.221   7.718   1.436  0.0991 -0.1360 -0.4383
  115MOL0     C15427   7.138   7.660   1.530  0.2550 -0.1303  0.3581
  115MOL0     C15428   7.034   7.580   1.442  0.2331  0.2033 -0.1011
  115MOL0     C15429   6.955   7.482   1.527  0.1207  0.5725  0.0406
  115MOL0     C15430   6.855   7.412   1.434 -0.3660 -0.4674  0.8104
  115MOL0     C15431   6.753   7.320   1.505 -0.2973 -0.8072 -0.3351
  115MOL0     C15432   6.806   7.194   1.576  0.1148  0.7353  0.0809
  115MOL0     C15433   6.712   7.120   1.690 -0.3910 -0.5176  0.8338
  115MOL0     C15434   6.565   7.099   1.650 -1.4284  0.1340  0.7084
  115MOL0    Cl15435   6.499   6.961   1.741 -0.0507 -0.2867  0.5889
  115MOL0     C15436   7.454   7.769   1.404 -0.2113 -0.4477 -0.7910
  115MOL0     C15437   7.581   7.814   1.447  0.6564 -1.2860  0.1887
  115MOL0     O15438   7.786   7.694   1.699  0.7996  0.2667 -0.7591
  115MOL0     C15439   8.046   7.751   1.744 -0.1610 -0.9287 -0.3016
  115MOL0     C15440   8.176   7.783   1.780  0.1329 -0.3783  0.9593
  115MOL0     N15441   8.469   8.339   1.588 -0.0104 -0.3897  0.0563
  115MOL0     N15442   8.569   8.329   1.514  0.5107  0.2145 -0.3996
  115MOL0     C15443   9.780   8.262   1.399  0.3258  0.1747  0.3622
  115MOL0     C15444   9.872   8.210   1.311 -0.4122 -0.2474 -0.6995
  115MOL0     C15445  10.019   7.904   0.987  0.3013 -0.3011  0.1241
  115MOL0     C15446  10.141   7.864   1.028 -0.3393  0.0775  0.0304
  115MOL0     C15447  10.216   7.769   0.965 -0.2059  1.2893  0.3602
  115MOL0     C15448  10.168   7.719   0.839 -0.0506 -0.0750 -0.5828
  115MOL0     O15449  10.237   7.628   0.765  0.0137 -0.3558 -0.2018
  115MOL0     C15450  10.229   7.498   0.816  0.3191  0.3109 -0.2051
  115MOL0     C15451  10.330   7.414   0.732  0.7232 -0.7285  0.0731
  115MOL0     C15452  10.478   7.451   0.753  0.1455  0.6056  0.2182
  115MOL0     C15453  10.548   7.375   0.863  0.3083 -0.7629  0.6729
  115MOL0     C15454  10.559   7.229   0.830 -0.5205 -0.0573 -0.3512
  115MOL0     C15455  10.559   7.113   0.786 -0.5369 -1.0971  0.3586
  115MOL0     C15456  10.040   7.766   0.795  0.0121 -0.4890 -0.1870
  115MOL0     C15457   9.971   7.864   0.864  0.9083  0.1752  0.0982
  115MOL0     H15458   9.745   7.887   1.332 -1.1446 -0.7662 -0.4610
  115MOL0     H15459   9.604   7.986   1.484  2.6824 -0.2379  2.2720
  115MOL0     H15460   9.535   8.454   1.530 -0.7717  1.6202 -1.8841
  115MOL0     H15461   9.548   8.390   1.379  1.5639 -1.2028  0.0389
  115MOL0     H15462   9.348   8.324   1.604 -1.0909  0.2312  0.3467
  115MOL0     H15463   9.306   8.431   1.477  1.7566  1.1461 -0.3643
  115MOL0     H15464   9.311   8.265   1.300  1.8268 -0.8988 -1.1549
  115MOL0     H15465   9.406   8.160   1.382 -1.4612 -0.1445 -1.0465
  115MOL0     H15466   9.216   8.050   1.386  0.3858 -0.2656  1.4376
  115MOL0     H15467   9.239   8.102   1.544  1.0515  0.0715 -0.1027
  115MOL0     H15468   9.042   8.251   1.354  1.5504 -1.5447 -1.2895
  115MOL0     H15469   8.992   8.115   1.441 -1.8873  2.0952 -3.0470
  115MOL0     H15470   9.089   8.207   1.657  0.9894 -3.5152 -2.6708
  115MOL0     H15471   9.102   8.363   1.577 -0.6260 -0.3371  3.4008
  115MOL0     H15472   8.857   8.187   1.623  0.3678 -0.4418 -0.2341
  115MOL0     H15473   8.902   8.317   1.731  2.3802  0.0525 -0.6181
  115MOL0     H15474   8.825   8.364   1.446  0.5570 -1.1379  0.1570
  115MOL0     H15475   8.850   8.491   1.577 -1.7432  0.9886  1.0761
  115MOL0     H15476   8.683   8.447   1.804  1.8597 -1.9993  0.1581
  115MOL0     H15477   8.461   8.494   1.892  2.0802  0.3255 -2.9365
  115MOL0     H15478   8.323   8.412   1.822 -0.4742  0.2800  1.8340
  115MOL0     H15479   8.399   8.321   2.030  1.6449 -0.2686 -0.9153
  115MOL0     H15480   8.533   8.241   1.958  0.5479  2.3719  1.7221
  115MOL0     H15481   8.259   8.191   1.859  0.2258  0.4376 -0.9763
  115MOL0     H15482   8.341   8.099   1.982 -1.2557 -3.3798 -2.1388
  115MOL0     H15483   8.529   8.064   1.813  0.8575 -0.5535 -0.1242
  115MOL0     H15484   8.418   8.097   1.687 -0.7212  3.0197  1.7381
  115MOL0     H15485   8.193   8.096   1.667  2.0021 -0.9595  0.7779
  115MOL0     H15486   7.897   8.031   1.485 -0.5512  2.2331 -1.3156
  115MOL0     H15487   7.870   8.142   1.615 -1.8052  0.1327 -0.9420
  115MOL0     H15488   8.024   8.139   1.527 -0.9096 -1.0848 -1.3037
  115MOL0     H15489   7.520   7.879   1.768 -0.0594 -0.1560 -0.4792
  115MOL0     H15490   7.289   7.806   1.691  1.1744 -1.4757  1.7155
  115MOL0     H15491   7.189   7.592   1.600  0.3238  1.8578  2.3396
  115MOL0     H15492   7.076   7.737   1.576 -2.0029 -0.6901 -1.5457
  115MOL0     H15493   6.971   7.645   1.380 -2.1783 -4.1971 -2.8138
  115MOL0     H15494   7.092   7.522   1.370  0.5653  0.7286 -0.2587
  115MOL0     H15495   6.912   7.536   1.612  0.3552  1.9933 -0.7207
  115MOL0     H15496   7.020   7.406   1.572  0.1192  0.8103  0.4514
  115MOL0     H15497   6.792   7.490   1.389 -1.7071 -0.6170  2.3256
  115MOL0     H15498   6.907   7.357   1.355  0.9220  2.8264 -0.8314
  115MOL0     H15499   6.672   7.287   1.439  0.0206  1.3919 -1.9231
  115MOL0     H15500   6.705   7.385   1.579  1.3011 -1.5271  1.4147
  115MOL0     H15501   6.841   7.115   1.509 -1.5499  1.3372 -1.6053
  115MOL0     H15502   6.885   7.233   1.641  0.7118 -0.5041  0.1244
  115MOL0     H15503   6.706   7.180   1.781  0.2287 -0.0892  0.5981
  115MOL0     H15504   6.749   7.026   1.734 -0.2504  0.4671  2.9534
  115MOL0     H15505   6.555   7.088   1.541 -3.0449 -2.2450  1.0302
  115MOL0     H15506   6.512   7.191   1.679  0.5793  1.2713  0.9266
  115MOL0     H15507   7.447   7.742   1.299 -0.9532 -0.7618 -0.6703
  115MOL0     H15508   7.655   7.835   1.370  0.1975 -0.1392  0.0416
  115MOL0     H15509   8.027   7.651   1.782  2.3243 -0.9736  1.0771
  115MOL0     H15510   8.222   7.698   1.828 -1.2958 -1.2430  0.8675
  115MOL0     H15511   9.802   8.365   1.427  1.0965 -0.0871  0.7368
  115MOL0     H15512   9.950   8.261   1.255 -1.0380  0.3281 -1.0679
  115MOL0     H15513  10.190   7.903   1.117  0.1374 -0.9373  0.2286
  115MOL0     H15514  10.313   7.730   0.995  1.2102  4.7228  0.6242
  115MOL0     H15515  10.244   7.493   0.925  1.1539  0.1140 -0.3179
  115MOL0     H15516  10.123   7.475   0.807 -0.5535  2.7178  2.3795
  115MOL0     H15517  10.301   7.425   0.627  2.7863  0.3673 -0.4331
  115MOL0     H15518  10.325   7.309   0.763  1.4459 -0.9736 -0.6134
  115MOL0     H15519  10.481   7.556   0.781 -1.4852  0.5687  0.6005
  115MOL0     H15520  10.527   7.435   0.656  0.1709 -1.1355  0.4705
  115MOL0     H15521  10.499   7.387   0.960  2.4314 -0.8122  1.7982
  115MOL0     H15522  10.650   7.412   0.874  0.2007  0.0158 -0.6941
  115MOL0     H15523  10.534   7.022   0.735  0.9646 -0.0648 -2.4799
  115MOL0     H15524  10.000   7.722   0.704  1.9557  0.7813 -1.7428
  115MOL0     H15525   9.882   7.910   0.824  0.8219 -0.1545 -0.0961
  116MOL0     O15526  10.123   8.434   1.346  0.0771  0.8691  0.0903
  116MOL0     C15527  10.182   8.541   1.349  0.1778  0.2811  0.0788
  116MOL0     O15528  10.115   8.664   1.342 -0.8237  0.5387  0.1360
  116MOL0     C15529   9.982   8.665   1.358  0.0610 -0.4153  0.0308
  116MOL0     C15530   9.911   8.633   1.472  0.0379  0.0316  0.0743
  116MOL0     C15531   9.772   8.628   1.466  0.1722  0.5358 -0.3571
  116MOL0     C15532   9.699   8.653   1.341 -1.3797  0.3554 -0.5446
  116MOL0     O15533   9.563   8.652   1.339 -0.1090 -0.5068  0.1218
  116MOL0     C15534   9.484   8.715   1.236  0.3313 -0.1244 -0.4137
  116MOL0     C15535   9.452   8.623   1.122 -0.0266  0.3110 -0.6730
  116MOL0     C15536   9.377   8.693   1.016 -0.0449 -0.0702  0.9526
  116MOL0     C15537   9.230   8.679   1.010 -0.6730 -0.4328  0.2025
  116MOL0     C15538   9.180   8.744   0.880  0.3828  0.0204  0.6706
  116MOL0     C15539   9.148   8.892   0.892  0.0897 -0.2175 -0.0623
  116MOL0     C15540   8.996   8.916   0.917  0.7766 -0.6227  0.0918
  116MOL0     C15541   8.954   8.873   1.054  0.3064  0.2520  0.2309
  116MOL0     N15542   8.803   8.891   1.065 -0.4232  0.1411 -0.2227
  116MOL0     C15543   8.716   8.780   1.074 -0.3970 -0.5619  0.4155
  116MOL0     C15544   8.596   8.827   1.101 -0.7118 -0.1925 -0.7135
  116MOL0     C15545   8.464   8.743   1.099  0.3574 -0.1365  0.6380
  116MOL0     C15546   8.396   8.738   1.234  0.0365  0.1936  0.1020
  116MOL0     C15547   8.304   8.627   1.253  0.3066  0.2498 -0.0210
  116MOL0     C15548   8.300   8.605   1.399 -0.7258 -0.0833  0.7718
  116MOL0     O15549   8.193   8.525   1.429 -0.2199 -0.2646  0.3945
  116MOL0     C15550   8.073   8.585   1.485 -0.5820  1.3944 -0.8625
  116MOL0     C15551   8.037   8.713   1.474  0.1108 -0.4077  0.2828
  116MOL0     C15552   7.913   8.762   1.531  0.8479  0.9466  0.1690
  116MOL0     C15553   7.879   8.911   1.513  0.7665  0.7928 -0.5287
  116MOL0     C15554   7.821   8.665   1.595 -0.4662  0.0330  0.9255
  116MOL0     C15555   7.689   8.695   1.659 -0.2079  0.8959  0.6961
  116MOL0     O15556   7.641   8.599   1.744 -1.0038 -0.1065  0.1069
  116MOL0     C15557   7.513   8.619   1.792  0.9306 -0.0836 -0.1272
  116MOL0     C15558   7.406   8.565   1.722 -0.1992 -0.9117 -0.1200
  116MOL0     C15559   7.270   8.598   1.748 -0.1521  0.5427  0.6375
  116MOL0     C15560   7.243   8.681   1.855  0.9327 -0.6285  0.5176
  116MOL0     O15561   7.112   8.735   1.868 -0.0110 -0.0336 -0.7096
  116MOL0     C15562   7.018   8.624   1.895  0.8121 -0.7021 -0.4817
  116MOL0     C15563   6.878   8.684   1.930 -0.0115  0.7053 -1.1378
  116MOL0     C15564   6.797   8.741   1.821  0.4234  0.1177 -0.2056
  116MOL0     C15565   6.713   8.635   1.736  0.3095  0.5050  0.0336
  116MOL0     C15566   6.594   8.574   1.821 -1.4653 -0.5236 -0.2402
  116MOL0     C15567   6.517   8.493   1.724 -0.4718  0.6711  0.3096
  116MOL0     C15568   6.399   8.424   1.784 -0.0223  0.8571  0.3630
  116MOL0     C15569   6.304   8.369   1.670 -0.2132 -0.1475 -0.1614
  116MOL0    Cl15570   6.384   8.254   1.574 -0.3217  0.0486 -0.3140
  116MOL0     C15571   7.343   8.729   1.932 -0.8475 -1.7452 -0.8547
  116MOL0     C15572   7.479   8.704   1.904 -0.4741  0.7868  0.1815
  116MOL0     O15573   7.626   8.789   1.619  0.0238  0.0259  0.7502
  116MOL0     C15574   7.871   8.534   1.610 -0.7115  0.0290  0.3182
  116MOL0     C15575   7.991   8.495   1.558 -1.5358 -0.1136 -0.1207
  116MOL0     N15576   8.608   8.966   1.125  0.2983  0.8585 -0.5693
  116MOL0     N15577   8.732   9.000   1.113  0.0820 -0.1888 -0.4309
  116MOL0     C15578   9.777   8.676   1.230  1.0206 -0.0189 -0.6147
  116MOL0     C15579   9.911   8.675   1.237 -0.1548 -0.4559 -0.5055
  116MOL0     C15580  10.325   8.538   1.333  0.4714 -0.3167  0.1963
  116MOL0     C15581  10.389   8.655   1.288 -0.4999  0.3499 -0.0440
  116MOL0     C15582  10.528   8.647   1.276  0.0250 -0.3501 -0.6766
  116MOL0     C15583  10.597   8.530   1.298 -0.2848  0.3408  0.0501
  116MOL0     O15584  10.735   8.546   1.311  0.1442 -0.8274  0.2720
  116MOL0     C15585  10.812   8.422   1.300 -0.3589  0.0399 -0.6322
  116MOL0     C15586  10.951   8.455   1.246 -0.0358  0.4421  0.6479
  116MOL0     C15587  10.961   8.470   1.093 -0.2240  0.4133  0.4623
  116MOL0     C15588  10.877   8.581   1.030 -0.0722  0.5294 -0.4134
  116MOL0     C15589  10.851   8.560   0.882 -0.4506 -0.2213 -0.1796
  116MOL0     C15590  10.829   8.536   0.766 -0.1738  0.4252 -0.5918
  116MOL0     C15591  10.532   8.415   1.342  0.0399 -0.3302  0.6189
  116MOL0     C15592  10.398   8.421   1.360 -0.1812 -0.4904  0.7801
  116MOL0     H15593   9.964   8.618   1.566  2.0302 -0.9310 -1.1450
  116MOL0     H15594   9.724   8.597   1.558 -3.7736 -0.7592 -2.6117
  116MOL0     H15595   9.394   8.741   1.293 -0.1332  0.4946 -1.3966
  116MOL0     H15596   9.527   8.809   1.199  0.8736 -0.2457 -0.1012
  116MOL0     H15597   9.549   8.592   1.082 -0.1377  0.3242 -0.9566
  116MOL0     H15598   9.404   8.529   1.153 -0.4928  1.1882  1.4014
  116MOL0     H15599   9.393   8.801   1.022  0.1696 -0.1281  1.5222
  116MOL0     H15600   9.418   8.660   0.920 -1.0088 -0.8957  0.8101
  116MOL0     H15601   9.199   8.574   1.014  2.3789 -1.3781  2.7572
  116MOL0     H15602   9.194   8.722   1.104  0.3987  0.3702  0.2534
  116MOL0     H15603   9.247   8.718   0.797 -1.9147 -0.8767 -1.0269
  116MOL0     H15604   9.084   8.699   0.851  0.8525 -1.1037  0.7880
  116MOL0     H15605   9.189   8.949   0.977 -2.7080  2.8097 -0.5522
  116MOL0     H15606   9.169   8.957   0.806 -0.2823  1.9049  1.3490
  116MOL0     H15607   8.968   9.021   0.905  0.6894 -0.8780 -2.5550
  116MOL0     H15608   8.942   8.865   0.837 -1.7518  0.2447  1.1597
  116MOL0     H15609   9.016   8.935   1.120 -0.3674  2.0016 -0.6902
  116MOL0     H15610   8.978   8.768   1.073  2.3988  0.3230 -1.6230
  116MOL0     H15611   8.751   8.683   1.042  0.0696 -0.3144  0.1735
  116MOL0     H15612   8.398   8.779   1.019 -0.6648  0.6737  1.8099
  116MOL0     H15613   8.486   8.641   1.066 -3.7364 -0.3425 -2.2497
  116MOL0     H15614   8.339   8.831   1.239 -0.8282 -0.3611  0.8090
  116MOL0     H15615   8.483   8.729   1.300 -0.8421 -3.2512  0.9942
  116MOL0     H15616   8.345   8.539   1.201  2.0759  2.1089 -1.9779
  116MOL0     H15617   8.207   8.645   1.204  0.1106 -1.9369 -0.5706
  116MOL0     H15618   8.304   8.696   1.460 -0.3224  0.8150 -0.5581
  116MOL0     H15619   8.391   8.550   1.426  0.7435  2.4632  1.3974
  116MOL0     H15620   8.105   8.778   1.420  1.3315 -0.1023  2.1024
  116MOL0     H15621   7.811   8.913   1.427  1.6458 -0.1156 -1.2592
  116MOL0     H15622   7.842   8.948   1.609 -1.1677 -1.3647 -0.3509
  116MOL0     H15623   7.964   8.976   1.491  0.6987  0.6737 -1.1740
  116MOL0     H15624   7.431   8.498   1.640 -0.5363 -1.2180  0.0278
  116MOL0     H15625   7.187   8.557   1.692  1.2501 -2.4530  0.5448
  116MOL0     H15626   7.001   8.557   1.810 -1.9745  0.6335 -1.0873
  116MOL0     H15627   7.051   8.567   1.982 -1.8977  0.2412  1.3061
  116MOL0     H15628   6.821   8.609   1.985  1.3584 -0.3098 -1.0496
  116MOL0     H15629   6.893   8.760   2.008 -2.7800 -0.1397  0.3378
  116MOL0     H15630   6.867   8.788   1.751 -0.8615  0.8288 -1.0631
  116MOL0     H15631   6.746   8.822   1.874  4.5316  1.1543  2.6461
  116MOL0     H15632   6.676   8.697   1.654  2.8836  1.4587 -0.5099
  116MOL0     H15633   6.773   8.550   1.702  2.7036  2.1013  0.0064
  116MOL0     H15634   6.528   8.651   1.860 -1.6555 -0.8498  0.0833
  116MOL0     H15635   6.614   8.522   1.915 -3.3658 -1.6433 -0.3979
  116MOL0     H15636   6.467   8.552   1.647 -1.7396 -1.5042 -0.6195
  116MOL0     H15637   6.580   8.428   1.663  1.1974  0.2164  2.3811
  116MOL0     H15638   6.340   8.490   1.849  3.5248  1.8112  2.9624
  116MOL0     H15639   6.428   8.348   1.857  2.9523  2.4827  1.0485
  116MOL0     H15640   6.266   8.454   1.614  1.3008  0.6319 -0.0574
  116MOL0     H15641   6.223   8.310   1.714  2.5250 -2.3243  2.3652
  116MOL0     H15642   7.309   8.804   2.003  0.7375  1.2920 -3.0846
  116MOL0     H15643   7.560   8.741   1.965 -0.5293 -1.5240  1.8123
  116MOL0     H15644   7.803   8.458   1.647  0.1835 -0.9033  0.1040
  116MOL0     H15645   8.012   8.388   1.564 -3.6655 -0.5931 -0.3161
  116MOL0     H15646   9.726   8.687   1.134  0.5787 -0.7940 -0.4789
  116MOL0     H15647   9.970   8.700   1.149  1.1577 -2.1000 -0.1370
  116MOL0     H15648  10.334   8.746   1.267 -0.7182  0.0159 -0.9585
  116MOL0     H15649  10.581   8.739   1.256 -0.8494  2.1764  5.9861
  116MOL0     H15650  10.823   8.389   1.404  0.0947 -0.4004 -0.8170
  116MOL0     H15651  10.765   8.343   1.241  0.1934 -1.3926  0.7498
  116MOL0     H15652  11.033   8.387   1.273  0.9162  1.4964  0.4907
  116MOL0     H15653  10.970   8.548   1.301  0.4710  2.0859 -2.1067
  116MOL0     H15654  10.915   8.377   1.057 -3.6694  1.4660  1.7638
  116MOL0     H15655  11.067   8.476   1.065 -0.3720 -2.2468 -1.0491
  116MOL0     H15656  10.918   8.682   1.043 -1.7570  1.0103  1.5563
  116MOL0     H15657  10.780   8.604   1.073  1.4225  6.0558  0.8537
  116MOL0     H15658  10.825   8.520   0.660  3.5446 -0.0627 -0.7893
  116MOL0     H15659  10.591   8.330   1.375  3.0128  0.5716 -1.8951
  116MOL0     H15660  10.356   8.330   1.400 -1.8659  0.2195  0.7128
  117MOL0     O15661   6.622   9.093   4.881 -0.0398  1.0140 -0.2662
  117MOL0     C15662   6.708   9.163   4.932 -0.7936 -0.1393 -0.1656
  117MOL0     O15663   6.676   9.286   4.986  0.1632 -0.3909  0.3232
  117MOL0     C15664   6.547   9.328   5.000 -0.1670 -0.1708  0.3562
  117MOL0     C15665   6.458   9.270   5.091 -0.2546  0.1033  0.1615
  117MOL0     C15666   6.332   9.323   5.114 -0.0578  0.5517  0.8263
  117MOL0     C15667   6.287   9.436   5.053  0.2913 -1.0907 -0.4390
  117MOL0     O15668   6.161   9.475   5.086  0.4973 -1.1613  0.3207
  117MOL0     C15669   6.069   9.468   4.974 -0.7200 -0.3584  0.2080
  117MOL0     C15670   5.937   9.533   4.996  0.4625 -0.3033 -0.1827
  117MOL0     C15671   5.935   9.689   5.023 -0.5039  0.1381 -0.4489
  117MOL0     C15672   5.790   9.730   5.033  0.0202 -0.8620 -0.6346
  117MOL0     C15673   5.782   9.876   5.081  0.0895  0.1674 -0.1841
  117MOL0     C15674   5.645   9.901   5.126  0.4120 -0.6945  0.0478
  117MOL0     C15675   5.533   9.874   5.031  0.9765 -0.1249 -0.4545
  117MOL0     C15676   5.538   9.951   4.899 -0.6576  0.5319 -0.8036
  117MOL0     N15677   5.413   9.963   4.838  0.8638 -0.9599 -0.0901
  117MOL0     C15678   5.323   9.870   4.788  0.5216  0.3627 -0.2066
  117MOL0     C15679   5.234   9.948   4.721 -0.0315  0.5346 -0.6203
  117MOL0     C15680   5.105   9.895   4.661 -0.6440 -0.1496  0.6460
  117MOL0     C15681   5.143   9.802   4.544 -0.3551  0.0199  0.0571
  117MOL0     C15682   5.068   9.853   4.418 -0.0795  0.3790  0.4284
  117MOL0     C15683   5.063   9.749   4.302  0.3949 -0.0866  0.1046
  117MOL0     O15684   4.977   9.791   4.197 -0.6259  0.3245 -0.6369
  117MOL0     C15685   4.843   9.788   4.210  0.2212  0.4385 -0.3774
  117MOL0     C15686   4.782   9.839   4.097  0.0931 -0.0970 -0.3969
  117MOL0     C15687   4.643   9.838   4.079 -0.4065  0.5518 -0.5482
  117MOL0     C15688   4.601   9.908   3.950  0.6399  0.2734 -0.2742
  117MOL0     C15689   4.559   9.781   4.176  0.4215  0.5264 -0.5222
  117MOL0     C15690   4.412   9.774   4.166 -0.2832  0.0124 -0.2110
  117MOL0     O15691   4.345   9.852   4.077 -0.1170  0.4285  0.3077
  117MOL0     C15692   4.220   9.811   4.051  0.6012 -0.3726  0.1435
  117MOL0     C15693   4.124   9.908   4.055 -0.1536 -0.1391 -0.7299
  117MOL0     C15694   3.990   9.883   4.023 -0.4148 -0.5416  0.8765
  117MOL0     C15695   3.948   9.768   3.962 -0.0123  0.6166 -0.7843
  117MOL0     O15696   3.819   9.751   3.935  0.0549 -0.5751 -0.7436
  117MOL0     C15697   3.757   9.634   3.886  0.4686 -1.1156  0.5482
  117MOL0     C15698   3.611   9.670   3.861 -0.3604 -0.0395 -0.3820
  117MOL0     C15699   3.516   9.542   3.869 -0.3399 -0.1974 -0.3494
  117MOL0     C15700   3.369   9.585   3.837 -1.4864  0.3672  0.3965
  117MOL0     C15701   3.292   9.450   3.846 -0.2728 -0.4058  0.2079
  117MOL0     C15702   3.144   9.475   3.808 -0.1410 -0.7170 -0.4256
  117MOL0     C15703   3.073   9.343   3.763 -0.3724  0.8146 -0.2800
  117MOL0     C15704   2.939   9.371   3.696 -0.0514 -0.3604 -0.1617
  117MOL0    Cl15705   2.871   9.210   3.644  0.1801 -0.3362 -0.1469
  117MOL0     C15706   4.049   9.663   3.946 -0.1584 -0.3482 -0.1096
  117MOL0     C15707   4.184   9.692   3.983 -0.3654 -0.1335  0.4957
  117MOL0     O15708   4.362   9.695   4.252 -0.2051  0.1152 -0.3825
  117MOL0     C15709   4.622   9.727   4.295 -0.0085 -0.0987  0.0081
  117MOL0     C15710   4.758   9.732   4.307  0.0190 -0.2599  0.5059
  117MOL0     N15711   5.270  10.077   4.722  0.3605 -0.5642  0.0209
  117MOL0     N15712   5.362  10.092   4.803  0.0436  0.3983 -1.2137
  117MOL0     C15713   6.379   9.502   4.969  0.9701 -0.0610  0.1624
  117MOL0     C15714   6.508   9.439   4.931  0.0490 -0.2582  0.3013
  117MOL0     C15715   6.848   9.122   4.934 -0.8404  0.5649 -0.8466
  117MOL0     C15716   6.944   9.208   4.998 -0.9641  0.0426  0.3318
  117MOL0     C15717   7.085   9.184   4.988 -0.3157  0.6874 -0.6693
  117MOL0     C15718   7.131   9.077   4.908  0.2628  0.5138 -0.5295
  117MOL0     O15719   7.264   9.048   4.881 -0.6749 -0.1157 -0.0697
  117MOL0     C15720   7.371   9.143   4.884  0.9690  0.4909  0.0538
  117MOL0     C15721   7.429   9.127   5.020 -0.1056 -0.7660  0.2280
  117MOL0     C15722   7.513   9.011   5.043 -0.7131 -0.3259 -0.2944
  117MOL0     C15723   7.565   9.012   5.184 -0.0871  0.0921 -0.4374
  117MOL0     C15724   7.665   9.111   5.209 -0.2244 -0.6930  0.5165
  117MOL0     C15725   7.741   9.203   5.228  0.5853 -0.3927 -0.5975
  117MOL0     C15726   7.033   9.002   4.841 -0.2228 -0.1811  0.1704
  117MOL0     C15727   6.892   9.015   4.848  0.2256  0.4241  0.0862
  117MOL0     H15728   6.485   9.178   5.142 -0.9279  0.2664  0.8260
  117MOL0     H15729   6.259   9.267   5.171 -1.8178  1.7980 -0.0987
  117MOL0     H15730   6.119   9.509   4.885 -0.1010 -1.0568  0.2236
  117MOL0     H15731   6.046   9.364   4.950 -0.6372 -0.1376 -0.8940
  117MOL0     H15732   5.872   9.497   4.916 -1.0435 -2.4034  1.8900
  117MOL0     H15733   5.890   9.498   5.087 -0.8785  2.3037  0.2310
  117MOL0     H15734   5.991   9.709   5.115  1.5877  3.9371 -2.3235
  117MOL0     H15735   6.000   9.734   4.948 -0.5128  2.6041  0.9200
  117MOL0     H15736   5.732   9.723   4.940  0.0500  0.6051 -0.7835
  117MOL0     H15737   5.738   9.676   5.112  1.1450  2.2471  2.4512
  117MOL0     H15738   5.861   9.896   5.154  0.6341 -2.0266 -0.1166
  117MOL0     H15739   5.806   9.948   5.002  0.6230  0.1872 -0.0043
  117MOL0     H15740   5.620   9.838   5.212 -0.9892  1.7032  1.4933
  117MOL0     H15741   5.649  10.006   5.156  3.6184 -0.4781 -0.7771
  117MOL0     H15742   5.518   9.768   5.009 -3.2320  0.2769 -0.3603
  117MOL0     H15743   5.443   9.906   5.085  0.4321 -0.0505 -1.3902
  117MOL0     H15744   5.607   9.892   4.837 -0.9696 -2.0437  1.1248
  117MOL0     H15745   5.578  10.051   4.917  1.0391 -0.0777 -0.9226
  117MOL0     H15746   5.333   9.762   4.794  0.8914  0.4083  0.0484
  117MOL0     H15747   5.052   9.833   4.733  0.5832 -1.6575  0.3286
  117MOL0     H15748   5.044   9.983   4.642 -2.1452 -1.4770 -1.0540
  117MOL0     H15749   5.101   9.704   4.570 -0.4838 -0.4129 -1.6674
  117MOL0     H15750   5.248   9.795   4.514 -1.1694 -0.7551 -2.9165
  117MOL0     H15751   5.128   9.940   4.389  1.2208  0.2423  2.4765
  117MOL0     H15752   4.964   9.877   4.443 -0.2230 -1.1853  1.4341
  117MOL0     H15753   5.029   9.652   4.341 -1.2117  0.3736 -0.0791
  117MOL0     H15754   5.163   9.736   4.259 -0.1587  0.3207 -1.3877
  117MOL0     H15755   4.838   9.884   4.016  0.2497  0.3842 -0.0317
  117MOL0     H15756   4.567  10.010   3.971 -3.0991 -0.5354 -1.6594
  117MOL0     H15757   4.676   9.912   3.871 -1.5229 -1.1612 -2.5498
  117MOL0     H15758   4.522   9.840   3.916  0.3114 -0.5807  1.9840
  117MOL0     H15759   4.157  10.011   4.072 -0.9500  0.0047  0.0049
  117MOL0     H15760   3.930   9.972   4.034 -0.0739 -0.4238  1.8357
  117MOL0     H15761   3.800   9.599   3.792  1.2769 -1.3839  1.0044
  117MOL0     H15762   3.779   9.558   3.961 -0.8935  1.1235  3.4176
  117MOL0     H15763   3.585   9.737   3.944  1.9899 -1.2886  1.4924
  117MOL0     H15764   3.588   9.715   3.765 -2.2752 -1.0441 -0.4513
  117MOL0     H15765   3.529   9.506   3.971  0.8501  1.5468  0.1655
  117MOL0     H15766   3.567   9.468   3.806  2.4264 -0.7509  2.3273
  117MOL0     H15767   3.340   9.661   3.910 -0.7454  2.1563 -1.0910
  117MOL0     H15768   3.358   9.643   3.745 -2.7640  1.6086  1.2982
  117MOL0     H15769   3.292   9.413   3.949 -0.3509 -1.1651 -0.0543
  117MOL0     H15770   3.338   9.382   3.773 -0.1245  0.3490 -0.4070
  117MOL0     H15771   3.097   9.521   3.895 -0.3167 -2.9650  0.7417
  117MOL0     H15772   3.146   9.534   3.715  1.9608  1.1644  0.7052
  117MOL0     H15773   3.055   9.289   3.857 -1.3691  1.7396  0.0787
  117MOL0     H15774   3.145   9.285   3.705 -0.3579 -0.9206  1.3513
  117MOL0     H15775   2.963   9.429   3.606 -4.3098  1.9024 -0.1080
  117MOL0     H15776   2.872   9.428   3.761  0.4819  1.0037 -0.7632
  117MOL0     H15777   4.026   9.581   3.879  0.8043 -0.2312 -0.5921
  117MOL0     H15778   4.262   9.622   3.958 -0.1274  0.7017 -1.2393
  117MOL0     H15779   4.562   9.692   4.379  1.1102 -2.4016 -0.0583
  117MOL0     H15780   4.816   9.695   4.391 -0.3394  1.9058  1.7787
  117MOL0     H15781   6.350   9.597   4.926  1.1721 -0.0039  0.1488
  117MOL0     H15782   6.573   9.490   4.861 -1.1108 -0.7057 -1.1583
  117MOL0     H15783   6.904   9.286   5.062 -0.3850  0.0663  0.6759
  117MOL0     H15784   7.161   9.244   5.038  2.3708 -2.0210 -1.2280
  117MOL0     H15785   7.440   9.114   4.804  2.2172 -2.5174  2.0534
  117MOL0     H15786   7.326   9.243   4.886 -1.2623 -0.4215 -0.8946
  117MOL0     H15787   7.352   9.133   5.098  1.1868 -1.5770  1.6348
  117MOL0     H15788   7.495   9.212   5.042  1.9579 -1.9294 -1.1247
  117MOL0     H15789   7.598   8.996   4.976  2.2860 -2.8018  3.6384
  117MOL0     H15790   7.449   8.922   5.042  0.2248 -1.2199  3.5754
  117MOL0     H15791   7.599   8.911   5.207  0.7085  0.1084 -1.4588
  117MOL0     H15792   7.490   9.033   5.261  3.6999  1.0406  3.3591
  117MOL0     H15793   7.808   9.286   5.236 -2.3154  2.0389  0.3444
  117MOL0     H15794   7.071   8.929   4.769 -0.4165 -0.0202 -0.0975
  117MOL0     H15795   6.826   8.948   4.794 -0.2033  0.0979  0.9953
  118MOL0     O15796   1.030   7.686   7.295  0.1531  0.6549  0.5646
  118MOL0     C15797   1.086   7.589   7.249 -1.1145 -0.0805  1.0807
  118MOL0     O15798   1.045   7.506   7.149 -0.5173 -0.8681  0.1189
  118MOL0     C15799   0.947   7.534   7.053 -0.1298  0.2582  0.0394
  118MOL0     C15800   0.968   7.478   6.922  0.6578  0.4243 -0.0848
  118MOL0     C15801   0.875   7.506   6.818 -0.0688 -0.1945 -0.1745
  118MOL0     C15802   0.759   7.578   6.850 -0.1356 -0.6564  0.8145
  118MOL0     O15803   0.675   7.569   6.744  0.3431  0.5194  0.9218
  118MOL0     C15804   0.559   7.654   6.741  0.3395  0.0383  0.4034
  118MOL0     C15805   0.520   7.655   6.597 -0.3613  0.1018 -0.1460
  118MOL0     C15806   0.408   7.747   6.573 -0.5761 -0.8484 -1.2958
  118MOL0     C15807   0.360   7.759   6.416 -0.5866  0.1006 -0.2231
  118MOL0     C15808   0.235   7.843   6.402 -0.6778 -0.1111  0.3535
  118MOL0     C15809   0.194   7.852   6.254  0.5167 -0.6948 -0.7430
  118MOL0     C15810   0.085   7.959   6.226 -0.0904 -0.8448 -0.0791
  118MOL0     C15811   0.018   7.947   6.091 -0.6376 -0.0459 -0.3723
  118MOL0     N15812  -0.088   8.045   6.070 -0.2083 -0.1790 -0.6397
  118MOL0     C15813  -0.064   8.174   6.063  0.7304 -0.6297 -0.2510
  118MOL0     C15814  -0.190   8.227   6.042 -0.2950  0.0059  0.4178
  118MOL0     C15815  -0.213   8.377   6.024  0.3363  0.0260 -1.0908
  118MOL0     C15816  -0.303   8.410   6.140 -0.7021  0.0872 -0.3073
  118MOL0     C15817  -0.322   8.561   6.174  0.7092 -0.3584 -0.7544
  118MOL0     C15818  -0.460   8.572   6.261  0.3296  0.4090 -0.4269
  118MOL0     O15819  -0.482   8.479   6.361  0.9439  0.1018 -0.5435
  118MOL0     C15820  -0.610   8.472   6.404 -0.2906 -0.7724 -0.1041
  118MOL0     C15821  -0.724   8.469   6.310 -0.6345  0.6846  0.1583
  118MOL0     C15822  -0.850   8.464   6.359  0.1611 -0.1837 -0.2018
  118MOL0     C15823  -0.945   8.448   6.247  0.1973  0.4352  0.1783
  118MOL0     C15824  -0.881   8.453   6.497  0.5663 -0.9274  0.3330
  118MOL0     C15825  -1.013   8.424   6.547 -0.4674  1.0645  0.2696
  118MOL0     O15826  -1.018   8.470   6.682  0.3006  0.2520  1.1454
  118MOL0     C15827  -1.123   8.424   6.755  0.0344  0.3391  0.1119
  118MOL0     C15828  -1.106   8.360   6.885 -1.1409 -0.1618 -0.8231
  118MOL0     C15829  -1.212   8.301   6.960  0.7091  0.5141 -0.4783
  118MOL0     C15830  -1.341   8.318   6.917  0.6968 -0.2121  0.0462
  118MOL0     O15831  -1.456   8.271   6.981 -0.5480  0.3310  0.2429
  118MOL0     C15832  -1.437   8.188   7.096 -0.3064 -1.0756 -1.1592
  118MOL0     C15833  -1.570   8.131   7.143  1.4448 -0.2791  0.2880
  118MOL0     C15834  -1.674   8.233   7.170  0.4112  0.2705  0.1008
  118MOL0     C15835  -1.815   8.190   7.192 -0.2795  0.5624  0.0792
  118MOL0     C15836  -1.818   8.099   7.314  0.2593  0.6517  0.4686
  118MOL0     C15837  -1.964   8.062   7.359  0.9794 -0.5160 -0.1547
  118MOL0     C15838  -1.964   7.971   7.483  1.0597  0.8325  1.2190
  118MOL0     C15839  -2.098   7.901   7.506 -0.5479 -0.2631 -0.3228
  118MOL0    Cl15840  -2.144   7.774   7.382 -0.3708  0.2701 -0.2823
  118MOL0     C15841  -1.358   8.383   6.798 -0.4372 -0.0583 -0.2948
  118MOL0     C15842  -1.256   8.440   6.722 -0.3629 -0.4447 -0.2618
  118MOL0     O15843  -1.088   8.347   6.493  0.1182  0.2872  0.3760
  118MOL0     C15844  -0.766   8.449   6.582  0.1166 -0.6406 -0.1286
  118MOL0     C15845  -0.631   8.465   6.538  0.4843  0.0221 -0.7933
  118MOL0     N15846  -0.287   8.132   6.055 -0.2629 -0.6918  0.3484
  118MOL0     N15847  -0.221   8.026   6.068  0.3274  0.1543 -0.6892
  118MOL0     C15848   0.741   7.636   6.974 -0.0516 -0.2371 -0.8356
  118MOL0     C15849   0.839   7.615   7.073 -0.5508 -0.2027 -0.7220
  118MOL0     C15850   1.209   7.548   7.322  0.0593 -0.8120 -0.3583
  118MOL0     C15851   1.322   7.495   7.249  0.9917  0.7921  0.0454
  118MOL0     C15852   1.436   7.468   7.323  0.2246  0.4425  0.2726
  118MOL0     C15853   1.451   7.505   7.455 -0.2004 -0.5500 -0.1718
  118MOL0     O15854   1.580   7.500   7.509  0.1432 -0.3584 -0.1863
  118MOL0     C15855   1.632   7.611   7.588  0.1107 -0.1871 -0.3839
  118MOL0     C15856   1.780   7.638   7.554 -0.3290 -0.1449  0.0315
  118MOL0     C15857   1.802   7.675   7.405  1.2212 -0.4532 -0.0439
  118MOL0     C15858   1.934   7.759   7.386 -0.1662  0.4840 -0.3100
  118MOL0     C15859   1.964   7.773   7.244  1.2489  0.8974  0.4863
  118MOL0     C15860   1.975   7.782   7.118  0.5649 -0.4719  0.5898
  118MOL0     C15861   1.350   7.566   7.521  0.4066 -0.3354  0.7748
  118MOL0     C15862   1.227   7.584   7.456 -1.2692 -1.0326 -0.3471
  118MOL0     H15863   1.057   7.425   6.889 -0.4836 -0.8274 -1.2962
  118MOL0     H15864   0.887   7.477   6.714 -0.1701  2.5520 -1.0417
  118MOL0     H15865   0.486   7.598   6.800  2.3836 -2.0385  1.1422
  118MOL0     H15866   0.567   7.754   6.784 -1.6333  0.3086  0.2331
  118MOL0     H15867   0.611   7.692   6.548  0.4140 -0.8556  0.5287
  118MOL0     H15868   0.504   7.554   6.559  1.5064  0.3802 -1.8688
  118MOL0     H15869   0.328   7.688   6.618 -1.1089 -0.3335 -1.5571
  118MOL0     H15870   0.417   7.847   6.617 -0.1170 -1.3842 -0.1380
  118MOL0     H15871   0.439   7.821   6.373 -0.8347  0.5901  0.0220
  118MOL0     H15872   0.344   7.669   6.355 -0.3085 -1.1031  1.3994
  118MOL0     H15873   0.158   7.792   6.462  0.5180 -3.2833 -0.6279
  118MOL0     H15874   0.252   7.940   6.450 -0.7788 -0.5932  1.3959
  118MOL0     H15875   0.284   7.873   6.196 -0.0580 -0.0119 -1.4115
  118MOL0     H15876   0.156   7.754   6.223  1.4891 -1.0702 -0.7563
  118MOL0     H15877   0.014   7.962   6.308  0.6898 -0.7108  0.6037
  118MOL0     H15878   0.140   8.054   6.224  2.9690 -2.4835 -0.3787
  118MOL0     H15879  -0.026   7.847   6.081 -0.0508 -0.3106 -0.3547
  118MOL0     H15880   0.092   7.963   6.012 -0.2704  0.5196  0.0805
  118MOL0     H15881   0.033   8.223   6.062  0.0436  0.7775 -1.1278
  118MOL0     H15882  -0.120   8.432   6.041 -0.1505  0.4861  0.2331
  118MOL0     H15883  -0.259   8.394   5.926 -0.6159  1.9508 -0.3485
  118MOL0     H15884  -0.257   8.363   6.228  1.4618 -0.1085 -1.4817
  118MOL0     H15885  -0.398   8.357   6.128 -1.1429  0.5393  0.9934
  118MOL0     H15886  -0.314   8.619   6.082 -2.9239  3.9233  1.2650
  118MOL0     H15887  -0.246   8.602   6.242  2.3626 -0.6956 -2.3108
  118MOL0     H15888  -0.540   8.576   6.187  0.9180 -1.7781 -1.2324
  118MOL0     H15889  -0.463   8.668   6.314  0.8257  1.7085 -2.6200
  118MOL0     H15890  -0.694   8.455   6.207  0.8575 -1.4151  0.8184
  118MOL0     H15891  -0.991   8.349   6.253 -5.7437  2.7404 -0.8957
  118MOL0     H15892  -1.031   8.515   6.256 -0.2191  0.3261 -2.3420
  118MOL0     H15893  -0.905   8.465   6.147 -0.3315  0.1502 -0.0805
  118MOL0     H15894  -1.002   8.349   6.916 -1.6799 -3.1244  0.2163
  118MOL0     H15895  -1.183   8.235   7.041  3.7183 -1.8271 -3.1969
  118MOL0     H15896  -1.366   8.108   7.078  2.5886  1.2299 -0.7932
  118MOL0     H15897  -1.404   8.249   7.180 -2.0336 -0.2033 -1.0687
  118MOL0     H15898  -1.603   8.067   7.061  0.0700  3.1093 -2.0313
  118MOL0     H15899  -1.553   8.071   7.234 -2.4151 -0.9352  0.7559
  118MOL0     H15900  -1.692   8.287   7.077 -0.1034  1.5278  0.9102
  118MOL0     H15901  -1.640   8.292   7.255  0.1155  1.3613 -0.5224
  118MOL0     H15902  -1.877   8.279   7.212 -1.7944 -0.4434  0.0152
  118MOL0     H15903  -1.853   8.140   7.103 -1.6615 -0.5887  1.2641
  118MOL0     H15904  -1.767   8.149   7.397 -3.2567  1.3025  2.4294
  118MOL0     H15905  -1.764   8.004   7.302 -1.9333 -1.0473  2.9656
  118MOL0     H15906  -2.019   8.154   7.382  0.1951 -1.2501  0.9657
  118MOL0     H15907  -2.022   8.009   7.283 -1.2183 -0.9876  1.7406
  118MOL0     H15908  -1.925   8.035   7.563  2.0603  1.9229 -0.0968
  118MOL0     H15909  -1.901   7.881   7.475  0.1164 -0.3969  5.3311
  118MOL0     H15910  -2.171   7.983   7.503  0.6921  0.8476 -3.0428
  118MOL0     H15911  -2.103   7.859   7.607  3.6393  1.0229  0.6537
  118MOL0     H15912  -1.455   8.403   6.754  0.0820 -0.1006 -1.5171
  118MOL0     H15913  -1.277   8.490   6.628 -0.1184 -0.9630 -0.5927
  118MOL0     H15914  -0.778   8.438   6.689  1.2274 -2.6198 -0.1564
  118MOL0     H15915  -0.541   8.483   6.596  0.8604  0.9837 -1.6538
  118MOL0     H15916   0.659   7.700   7.005  0.0444 -1.1036  1.3600
  118MOL0     H15917   0.834   7.692   7.149 -1.6911  1.0818 -2.0537
  118MOL0     H15918   1.321   7.490   7.141  1.8326 -0.1815  0.0688
  118MOL0     H15919   1.529   7.436   7.276  0.1685  1.8172 -0.8238
  118MOL0     H15920   1.576   7.704   7.571  0.3288  0.8305  3.5676
  118MOL0     H15921   1.616   7.596   7.695  0.0732 -0.7688 -0.4690
  118MOL0     H15922   1.833   7.543   7.566  3.7179  1.5634 -2.3384
  118MOL0     H15923   1.812   7.712   7.628 -0.4523 -0.0936  0.0347
  118MOL0     H15924   1.723   7.737   7.363  0.4087 -0.5284  1.3251
  118MOL0     H15925   1.807   7.592   7.334  1.4081 -0.8216  0.3915
  118MOL0     H15926   2.019   7.707   7.432 -1.0430 -1.8720 -1.2205
  118MOL0     H15927   1.938   7.863   7.421 -0.9979  0.0611  1.1397
  118MOL0     H15928   1.991   7.790   7.012 -0.1280 -2.4942  0.2773
  118MOL0     H15929   1.363   7.602   7.623  3.9779  1.0033 -0.0253
  118MOL0     H15930   1.149   7.640   7.508 -0.0148  0.5410 -0.0693
  119MOL0     O15931   1.383   8.101   2.057 -0.2326 -0.1269  0.0522
  119MOL0     C15932   1.466   8.017   2.059  0.0523 -0.3874  0.0351
  119MOL0     O15933   1.437   7.875   2.045  0.3632 -0.1672 -0.4651
  119MOL0     C15934   1.302   7.853   2.050  0.2649 -0.2368 -0.0735
  119MOL0     C15935   1.253   7.798   2.168  0.2640 -0.6196 -0.4080
  119MOL0     C15936   1.116   7.760   2.188 -0.2350  0.8502 -0.4577
  119MOL0     C15937   1.021   7.781   2.088 -0.7560 -0.3764  0.0428
  119MOL0     O15938   0.894   7.734   2.110  0.2503 -0.2286 -0.2590
  119MOL0     C15939   0.789   7.768   2.014 -0.8638  0.9867 -0.2770
  119MOL0     C15940   0.643   7.744   2.064 -0.9805  0.3407 -0.1708
  119MOL0     C15941   0.597   7.602   2.038  1.1863  0.0589 -0.0300
  119MOL0     C15942   0.444   7.587   2.032  1.0013 -0.8412 -0.0007
  119MOL0     C15943   0.401   7.440   2.010 -0.1108  0.3337 -0.4039
  119MOL0     C15944   0.413   7.345   2.129  0.3457 -0.7317  0.4089
  119MOL0     C15945   0.423   7.199   2.084  0.4987  0.3748  0.3763
  119MOL0     C15946   0.395   7.097   2.197 -0.6590 -0.8392  0.3741
  119MOL0     N15947   0.252   7.094   2.246  0.4455  0.6423  0.0128
  119MOL0     C15948   0.193   7.111   2.376  0.3911  0.4583  0.9512
  119MOL0     C15949   0.062   7.068   2.368  1.4159  0.6208  0.0982
  119MOL0     C15950  -0.035   7.048   2.481 -0.4200 -0.3072 -0.6856
  119MOL0     C15951  -0.139   6.937   2.448 -0.1639 -0.8786 -0.2306
  119MOL0     C15952  -0.068   6.803   2.454  0.4861  0.1357  0.2027
  119MOL0     C15953  -0.145   6.701   2.363  0.0629  0.7884 -0.0932
  119MOL0     O15954  -0.267   6.669   2.433 -0.1654 -0.0123  0.2140
  119MOL0     C15955  -0.354   6.589   2.375 -0.3540 -0.4144  0.4286
  119MOL0     C15956  -0.468   6.561   2.440 -0.5813  0.3317 -0.1893
  119MOL0     C15957  -0.578   6.478   2.399 -0.0105 -0.1042  0.0344
  119MOL0     C15958  -0.695   6.450   2.490  0.3857 -0.3281 -0.8408
  119MOL0     C15959  -0.562   6.425   2.268 -0.4446  0.8122  1.0010
  119MOL0     C15960  -0.674   6.354   2.191 -0.7302 -0.2120 -0.0448
  119MOL0     O15961  -0.804   6.365   2.237  0.0860 -0.6205  0.0271
  119MOL0     C15962  -0.912   6.294   2.185 -0.4477 -0.0363 -0.5821
  119MOL0     C15963  -0.970   6.323   2.063 -0.6315 -0.7345  0.7012
  119MOL0     C15964  -1.086   6.257   2.022  1.2301  0.2876  0.7645
  119MOL0     C15965  -1.139   6.149   2.093 -0.2297 -0.1691 -0.3455
  119MOL0     O15966  -1.240   6.075   2.038  0.0820  0.0817 -0.6408
  119MOL0     C15967  -1.294   5.960   2.109  0.0002  0.8779  0.6968
  119MOL0     C15968  -1.412   5.922   2.023  0.9128 -0.6690  0.6235
  119MOL0     C15969  -1.386   5.902   1.877  0.6549  0.4001  0.0846
  119MOL0     C15970  -1.490   5.815   1.804 -0.9178  0.4599 -0.3953
  119MOL0     C15971  -1.631   5.870   1.788  0.3616  0.0366  0.0550
  119MOL0     C15972  -1.714   5.775   1.705 -0.7321 -0.1567 -0.3733
  119MOL0     C15973  -1.758   5.644   1.776 -0.1545 -0.0109  0.3298
  119MOL0     C15974  -1.868   5.562   1.705  0.5755 -0.7010 -0.5091
  119MOL0    Cl15975  -2.023   5.651   1.676 -0.1116  0.1233  0.1782
  119MOL0     C15976  -1.067   6.111   2.207 -0.6824  0.6861 -0.0441
  119MOL0     C15977  -0.960   6.187   2.263 -0.0363 -0.5610  0.9881
  119MOL0     O15978  -0.642   6.292   2.090 -1.1842 -0.4364  0.2322
  119MOL0     C15979  -0.444   6.449   2.193  1.1616 -0.0689  0.0605
  119MOL0     C15980  -0.338   6.522   2.246  0.5512  0.2437  0.2391
  119MOL0     N15981   0.037   7.048   2.229  0.3963  0.5220  0.1010
  119MOL0     N15982   0.149   7.056   2.164  0.2974 -0.7050  0.6026
  119MOL0     C15983   1.070   7.837   1.963  0.0932  0.2810 -0.7553
  119MOL0     C15984   1.205   7.860   1.944  0.1081  0.0773 -0.4829
  119MOL0     C15985   1.606   8.061   2.055  0.5890 -0.1876  0.0191
  119MOL0     C15986   1.644   8.194   2.045 -0.0148  0.0533 -1.1230
  119MOL0     C15987   1.781   8.228   2.037  0.7079  1.2276  0.0240
  119MOL0     C15988   1.880   8.129   2.041 -0.3643 -0.1630  0.1143
  119MOL0     O15989   2.008   8.177   2.010  0.2004 -0.6959 -0.5093
  119MOL0     C15990   2.111   8.081   2.012  0.0489  0.1315  0.5021
  119MOL0     C15991   2.251   8.158   2.011  0.7068 -0.9263 -0.1487
  119MOL0     C15992   2.244   8.278   2.113 -0.4099 -0.5990  1.0602
  119MOL0     C15993   2.386   8.343   2.127 -0.6795 -0.5396  0.1693
  119MOL0     C15994   2.451   8.407   2.010  0.6115  0.4924  0.1779
  119MOL0     C15995   2.496   8.456   1.911 -0.3987  0.2943  0.1423
  119MOL0     C15996   1.839   7.994   2.060  0.6418 -0.9825 -0.5057
  119MOL0     C15997   1.705   7.962   2.057  0.0433 -0.4930 -0.0100
  119MOL0     H15998   1.321   7.776   2.250  1.2611  1.8976 -0.4913
  119MOL0     H15999   1.086   7.716   2.282 -0.1482 -1.5720 -1.4860
  119MOL0     H16000   0.806   7.872   1.984  1.7334  0.6732 -0.0957
  119MOL0     H16001   0.817   7.702   1.931  3.0332  2.1837 -0.1300
  119MOL0     H16002   0.634   7.749   2.173  1.8908 -0.7901  0.2180
  119MOL0     H16003   0.584   7.823   2.017  4.8297  3.8874 -2.5527
  119MOL0     H16004   0.624   7.572   1.936 -1.7392 -2.1200 -0.2612
  119MOL0     H16005   0.640   7.529   2.108  1.1872 -2.1418 -2.1879
  119MOL0     H16006   0.403   7.628   2.125  1.0090  1.6094 -1.0032
  119MOL0     H16007   0.411   7.647   1.947 -1.8713 -1.4915  0.5668
  119MOL0     H16008   0.299   7.452   1.973  0.1462  1.6268 -0.7173
  119MOL0     H16009   0.459   7.393   1.929  0.8232  0.4303  0.1928
  119MOL0     H16010   0.508   7.372   2.175  0.6981 -1.9687  0.4375
  119MOL0     H16011   0.338   7.371   2.204 -0.3635  0.8586 -0.7978
  119MOL0     H16012   0.353   7.182   2.002  1.8869 -1.2065 -0.5559
  119MOL0     H16013   0.526   7.183   2.050  0.4539  1.0313 -0.0871
  119MOL0     H16014   0.472   7.115   2.273  1.5743  2.2228 -2.3624
  119MOL0     H16015   0.420   6.997   2.161  2.3099  0.2381 -0.8374
  119MOL0     H16016   0.252   7.135   2.464  2.9525 -0.0600 -0.5129
  119MOL0     H16017   0.027   7.018   2.566 -0.0597 -0.0993 -0.8767
  119MOL0     H16018  -0.094   7.138   2.501 -0.5804 -0.2553 -1.3816
  119MOL0     H16019  -0.183   6.958   2.350  0.4757 -0.1611 -0.3730
  119MOL0     H16020  -0.208   6.943   2.533  1.6814  0.5853  1.2624
  119MOL0     H16021  -0.056   6.768   2.557 -1.3922  0.8519  0.7109
  119MOL0     H16022   0.029   6.817   2.406 -0.0497 -1.1798 -1.3941
  119MOL0     H16023  -0.083   6.613   2.341 -1.1766  0.6506 -3.5365
  119MOL0     H16024  -0.180   6.735   2.266  0.6951 -0.6334 -0.8545
  119MOL0     H16025  -0.469   6.595   2.543 -1.1401 -2.1867  0.7126
  119MOL0     H16026  -0.717   6.345   2.508  2.5465 -0.2392  3.7470
  119MOL0     H16027  -0.678   6.486   2.592  1.2374 -2.0731 -0.3330
  119MOL0     H16028  -0.780   6.501   2.443  1.1557  1.0584 -0.7854
  119MOL0     H16029  -0.928   6.391   1.989 -2.3672  0.0131  0.3560
  119MOL0     H16030  -1.137   6.298   1.935 -1.1294  1.3257  2.5136
  119MOL0     H16031  -1.215   5.883   2.113  0.4687  1.2490 -0.7962
  119MOL0     H16032  -1.321   5.973   2.214  1.7290 -4.0315  2.0770
  119MOL0     H16033  -1.465   5.837   2.065 -0.6693 -0.7766 -1.4271
  119MOL0     H16034  -1.476   6.011   2.021 -0.5281 -1.6725  0.3396
  119MOL0     H16035  -1.287   5.855   1.866 -0.5291 -2.4751  0.6991
  119MOL0     H16036  -1.401   6.001   1.834 -2.8666  0.2707  0.7468
  119MOL0     H16037  -1.447   5.796   1.705 -2.5824  0.0657 -1.0850
  119MOL0     H16038  -1.503   5.719   1.854  1.5323 -0.5811 -1.5605
  119MOL0     H16039  -1.629   5.970   1.743 -2.6815  0.5624  0.8821
  119MOL0     H16040  -1.679   5.875   1.886 -1.6585 -2.1351 -0.7330
  119MOL0     H16041  -1.802   5.826   1.665  0.4468  1.9307 -0.4388
  119MOL0     H16042  -1.661   5.753   1.612 -2.6874  1.9282 -2.1176
  119MOL0     H16043  -1.781   5.664   1.881  0.2897 -2.9397  1.0805
  119MOL0     H16044  -1.671   5.578   1.778  0.6648  1.0552  0.9306
  119MOL0     H16045  -1.887   5.469   1.758  2.9192 -1.4771 -0.9273
  119MOL0     H16046  -1.819   5.544   1.609 -1.0484  0.0325 -1.5269
  119MOL0     H16047  -1.097   6.021   2.260  2.1699 -0.8368 -0.7992
  119MOL0     H16048  -0.905   6.149   2.348 -1.0714 -2.2365  0.9595
  119MOL0     H16049  -0.416   6.420   2.092  3.0924  0.1179  0.4996
  119MOL0     H16050  -0.254   6.547   2.182  0.0714  0.4260 -0.3235
  119MOL0     H16051   1.004   7.855   1.879  0.8266  3.5286 -0.7539
  119MOL0     H16052   1.232   7.881   1.841  1.6356  1.8554  0.2319
  119MOL0     H16053   1.577   8.278   2.032 -0.3504 -0.0623 -0.2316
  119MOL0     H16054   1.809   8.333   2.029 -1.9608  1.8509 -3.3486
  119MOL0     H16055   2.112   8.026   2.106 -1.2847 -1.3103 -0.2850
  119MOL0     H16056   2.098   8.006   1.933 -1.4194  0.4444  0.4228
  119MOL0     H16057   2.276   8.193   1.911 -0.2387  3.0719  0.8201
  119MOL0     H16058   2.321   8.079   2.038  1.4333 -1.1906 -2.5735
  119MOL0     H16059   2.197   8.249   2.207 -0.0431  1.7501  2.0307
  119MOL0     H16060   2.186   8.361   2.073 -1.0089 -0.4479  2.2198
  119MOL0     H16061   2.471   8.276   2.144  0.8713  0.9635 -1.2722
  119MOL0     H16062   2.385   8.429   2.195  1.6076  0.1480 -0.5662
  119MOL0     H16063   2.532   8.468   1.811  1.6361 -2.6763  0.3791
  119MOL0     H16064   1.907   7.910   2.072 -0.8773 -2.0684  0.8165
  119MOL0     H16065   1.686   7.855   2.050  2.3869 -0.9150 -0.7695
  120MOL0     O16066   8.706   1.392   9.946  0.1605  0.1846 -0.4848
  120MOL0     C16067   8.693   1.333   9.837 -1.1819 -0.1978 -0.8202
  120MOL0     O16068   8.574   1.302   9.773 -0.3459 -0.7568  0.6452
  120MOL0     C16069   8.457   1.342   9.832 -0.0796 -0.3919 -0.1642
  120MOL0     C16070   8.430   1.481   9.863 -1.0154  1.2348 -0.1269
  120MOL0     C16071   8.306   1.528   9.913  0.2020 -0.1379 -0.3238
  120MOL0     C16072   8.201   1.432   9.927 -0.0586  1.3644  0.4268
  120MOL0     O16073   8.082   1.453   9.986 -0.4132  0.5707 -0.3987
  120MOL0     C16074   8.069   1.572  10.071 -0.5389  0.6519  0.4725
  120MOL0     C16075   7.923   1.576  10.108 -0.9795 -0.0076 -0.4264
  120MOL0     C16076   7.909   1.679  10.212  0.9257  0.0942 -0.8636
  120MOL0     C16077   7.760   1.680  10.245  0.0172 -0.6202  0.3791
  120MOL0     C16078   7.746   1.732  10.391 -0.2170 -0.1199 -0.3351
  120MOL0     C16079   7.597   1.776  10.392 -0.1113  1.2505 -0.0526
  120MOL0     C16080   7.544   1.816  10.532  0.4901  0.1729  0.1407
  120MOL0     C16081   7.525   1.708  10.635 -0.1693  0.5758 -0.6191
  120MOL0     N16082   7.419   1.598  10.610 -0.3085 -0.3014 -0.7048
  120MOL0     C16083   7.429   1.496  10.519  0.1248  0.1080 -0.5550
  120MOL0     C16084   7.322   1.420  10.538 -0.2710  0.0835  0.3798
  120MOL0     C16085   7.276   1.322  10.440  0.1475 -0.2498  0.5128
  120MOL0     C16086   7.152   1.236  10.479  0.4608 -0.7403 -0.6458
  120MOL0     C16087   7.106   1.122  10.386  0.8739 -0.4382  0.3860
  120MOL0     C16088   7.187   0.993  10.417 -0.2011  0.5386 -0.1235
  120MOL0     O16089   7.317   1.001  10.342  0.5907  0.2096 -0.3457
  120MOL0     C16090   7.412   0.902  10.348 -0.0594 -0.7003 -0.5489
  120MOL0     C16091   7.417   0.792  10.431 -0.1873  0.3229 -0.2240
  120MOL0     C16092   7.523   0.698  10.426  0.0067  0.3782  0.2005
  120MOL0     C16093   7.525   0.588  10.528 -0.1317 -0.8168 -0.2096
  120MOL0     C16094   7.627   0.717  10.335  0.9069 -0.4020  0.1618
  120MOL0     C16095   7.728   0.627  10.313 -0.0486  1.0243 -0.5875
  120MOL0     O16096   7.857   0.673  10.320 -0.1091  1.0444 -0.3009
  120MOL0     C16097   7.961   0.578  10.314  1.1676 -0.1762  0.4054
  120MOL0     C16098   8.034   0.567  10.205  0.2954 -0.6300  0.3426
  120MOL0     C16099   8.146   0.482  10.216 -0.4586  0.0246  0.3079
  120MOL0     C16100   8.185   0.408  10.335  0.7339  0.0305  0.6832
  120MOL0     O16101   8.308   0.341  10.352 -0.7311  0.0109 -0.2036
  120MOL0     C16102   8.340   0.256  10.243 -0.2527 -0.3470 -0.0359
  120MOL0     C16103   8.417   0.132  10.300 -0.4056  0.3616  0.5806
  120MOL0     C16104   8.422   0.029  10.195 -0.3659  0.8869  0.7828
  120MOL0     C16105   8.291  -0.044  10.185 -0.1998  0.0392 -0.5976
  120MOL0     C16106   8.274  -0.143  10.069  0.0525 -0.3430  0.5999
  120MOL0     C16107   8.364  -0.265  10.060  0.1794 -0.1839 -0.0156
  120MOL0     C16108   8.357  -0.339   9.926  0.2479 -0.1456 -1.1188
  120MOL0     C16109   8.442  -0.475   9.941  0.0271  0.8240  0.1911
  120MOL0    Cl16110   8.592  -0.453   9.851 -0.3982 -0.4222  0.5344
  120MOL0     C16111   8.108   0.424  10.448  0.6680 -0.0685  0.1686
  120MOL0     C16112   7.990   0.506  10.439 -0.8679 -0.1658 -0.1945
  120MOL0     O16113   7.699   0.510  10.312  0.5198 -0.2205 -0.3830
  120MOL0     C16114   7.631   0.826  10.250  0.8200 -0.0114  1.1939
  120MOL0     C16115   7.517   0.909  10.251  0.2899  0.3836 -1.7151
  120MOL0     N16116   7.243   1.482  10.627  0.3405 -0.1626 -0.3758
  120MOL0     N16117   7.291   1.585  10.664 -0.1093 -0.3014  0.2272
  120MOL0     C16118   8.232   1.294   9.890  0.4039 -0.1230  0.6096
  120MOL0     C16119   8.361   1.250   9.843 -0.6588 -0.5602 -0.7871
  120MOL0     C16120   8.820   1.309   9.770  0.6478 -0.1796  0.2738
  120MOL0     C16121   8.820   1.296   9.629 -0.3571  0.4571 -0.0044
  120MOL0     C16122   8.941   1.269   9.557  0.1548 -0.3883 -0.3323
  120MOL0     C16123   9.063   1.244   9.624  0.3832  0.6522  0.1345
  120MOL0     O16124   9.186   1.224   9.568 -0.1650  0.3986  0.5262
  120MOL0     C16125   9.196   1.248   9.432  0.1170  0.4308  0.1186
  120MOL0     C16126   9.331   1.208   9.379  0.2332 -1.0050  1.0913
  120MOL0     C16127   9.443   1.300   9.431 -0.1204 -0.2012  0.0661
  120MOL0     C16128   9.583   1.272   9.379 -0.0751 -0.7278 -0.4425
  120MOL0     C16129   9.678   1.373   9.430  0.4441  0.0172  0.5580
  120MOL0     C16130   9.740   1.473   9.456 -0.3486  0.6856  0.5420
  120MOL0     C16131   9.056   1.260   9.765 -0.6482 -0.3507  1.2581
  120MOL0     C16132   8.939   1.286   9.838  0.1511 -0.3750  0.3906
  120MOL0     H16133   8.515   1.548   9.854 -0.7469  1.0624  0.9206
  120MOL0     H16134   8.282   1.630   9.941  0.8731  0.2791 -1.2200
  120MOL0     H16135   8.130   1.571  10.162 -2.9996 -1.5135  2.2577
  120MOL0     H16136   8.081   1.662  10.010 -2.4253 -0.0773 -1.0797
  120MOL0     H16137   7.867   1.600  10.017  0.5611  1.8026 -0.9376
  120MOL0     H16138   7.908   1.476  10.152  0.2699 -0.2166 -0.4629
  120MOL0     H16139   7.965   1.651  10.301  1.6534 -0.0980 -1.3704
  120MOL0     H16140   7.949   1.777  10.182  3.8069  0.1032  2.4008
  120MOL0     H16141   7.710   1.740  10.169  0.8145  1.0238  1.1012
  120MOL0     H16142   7.721   1.578  10.249 -1.5000 -0.3221 -3.5341
  120MOL0     H16143   7.767   1.651  10.462  2.0485  3.5427  3.6189
  120MOL0     H16144   7.808   1.816  10.424 -0.6766  1.2989 -2.7801
  120MOL0     H16145   7.586   1.862  10.326  0.3247  0.5039 -1.1315
  120MOL0     H16146   7.533   1.696  10.354 -1.3008  1.0626  2.1975
  120MOL0     H16147   7.608   1.891  10.578 -2.6031  2.6247  0.7823
  120MOL0     H16148   7.451   1.868  10.507  0.3501 -0.6982 -1.2819
  120MOL0     H16149   7.499   1.758  10.729  3.2977  2.6441 -0.5795
  120MOL0     H16150   7.620   1.656  10.648  0.6991  2.1922 -0.2437
  120MOL0     H16151   7.505   1.476  10.444  0.6606 -0.5753  0.1519
  120MOL0     H16152   7.245   1.380  10.353 -1.1416  1.3840  1.9948
  120MOL0     H16153   7.359   1.259  10.407 -0.5126 -1.3895  0.9759
  120MOL0     H16154   7.068   1.307  10.474  0.8673 -0.2280 -0.2609
  120MOL0     H16155   7.158   1.202  10.583  2.0068 -0.9491 -0.7859
  120MOL0     H16156   7.121   1.154  10.283 -0.9308  2.0933  0.8140
  120MOL0     H16157   6.999   1.099  10.385  0.0892  2.7078 -0.2447
  120MOL0     H16158   7.128   0.909  10.380 -1.7061  1.8866 -0.9453
  120MOL0     H16159   7.195   0.979  10.525  0.7525 -4.5846 -0.6246
  120MOL0     H16160   7.331   0.777  10.496  2.5109 -0.1101  3.5998
  120MOL0     H16161   7.442   0.602  10.598 -1.7716  1.3057 -2.3864
  120MOL0     H16162   7.508   0.491  10.482 -1.8666  0.0732 -1.5944
  120MOL0     H16163   7.620   0.586  10.582 -0.6498  2.8138  1.1305
  120MOL0     H16164   8.007   0.623  10.116 -2.6146 -0.2970  1.3278
  120MOL0     H16165   8.218   0.483  10.134 -1.1699 -0.9633 -0.3412
  120MOL0     H16166   8.244   0.227  10.198 -0.2788  0.7161 -0.7131
  120MOL0     H16167   8.398   0.314  10.171 -1.0025  1.0412  0.4455
  120MOL0     H16168   8.517   0.159  10.337 -0.6453  1.2339  0.6227
  120MOL0     H16169   8.364   0.097  10.389 -2.5625  2.7477  0.3490
  120MOL0     H16170   8.501  -0.046  10.204 -1.1166  0.2577  2.4208
  120MOL0     H16171   8.447   0.086  10.105 -1.0255 -0.4091 -0.2563
  120MOL0     H16172   8.276  -0.094  10.282 -3.3914 -0.1023 -1.0653
  120MOL0     H16173   8.206   0.024  10.175  2.2724  3.8227  1.6515
  120MOL0     H16174   8.272  -0.091   9.973 -0.9387 -0.2513  0.6615
  120MOL0     H16175   8.172  -0.181  10.084 -0.9695  3.2589  4.9573
  120MOL0     H16176   8.470  -0.241  10.071  0.7165 -2.1756 -0.4988
  120MOL0     H16177   8.330  -0.326  10.144 -1.6780 -0.1713 -0.7187
  120MOL0     H16178   8.387  -0.282   9.838 -0.1257  0.2255 -1.0058
  120MOL0     H16179   8.252  -0.369   9.922 -0.1420  0.3160  2.2708
  120MOL0     H16180   8.379  -0.557   9.904  1.6802 -0.4538  0.0975
  120MOL0     H16181   8.465  -0.491  10.047 -1.3251  1.4217  0.5960
  120MOL0     H16182   8.138   0.376  10.541 -1.7308 -4.1930 -0.9086
  120MOL0     H16183   7.939   0.540  10.529  1.8998  1.9973  0.6844
  120MOL0     H16184   7.708   0.833  10.173 -0.9360 -0.2303 -0.6829
  120MOL0     H16185   7.513   0.984  10.173 -3.5659  0.6456 -1.4666
  120MOL0     H16186   8.150   1.222   9.893  2.2061 -2.3324 -0.4009
  120MOL0     H16187   8.376   1.146   9.819  0.7021 -0.4166 -0.6654
  120MOL0     H16188   8.737   1.332   9.569  0.0341 -0.7269 -1.2985
  120MOL0     H16189   8.946   1.276   9.449  3.0828 -5.0922 -0.7870
  120MOL0     H16190   9.129   1.177   9.382  0.5104  0.0174  0.1763
  120MOL0     H16191   9.172   1.348   9.394  1.1408  1.8514  2.9098
  120MOL0     H16192   9.323   1.202   9.270 -0.4071 -2.6802  1.1971
  120MOL0     H16193   9.363   1.111   9.421  2.0631 -1.2524 -0.6715
  120MOL0     H16194   9.435   1.299   9.540 -4.0442  4.1618  0.1308
  120MOL0     H16195   9.412   1.403   9.410 -2.0890 -0.3756  1.8487
  120MOL0     H16196   9.576   1.282   9.270 -2.1548 -0.4415 -0.3289
  120MOL0     H16197   9.617   1.171   9.404 -0.6455 -0.5142  1.3405
  120MOL0     H16198   9.789   1.568   9.461 -0.2227  0.8329 -2.1791
  120MOL0     H16199   9.149   1.256   9.820 -1.0797  0.4129  2.0774
  120MOL0     H16200   8.944   1.286   9.946 -2.1944 -0.6949  0.5641
  121MOL0     O16201   2.183   3.832  10.906  0.6904 -0.3035 -0.2122
  121MOL0     C16202   2.229   3.833  11.024  0.4600  0.5541  0.6160
  121MOL0     O16203   2.159   3.793  11.139  0.2351 -0.0681  0.3322
  121MOL0     C16204   2.032   3.747  11.129  0.2743 -0.5126  0.5552
  121MOL0     C16205   1.932   3.782  11.221 -0.6055  0.5523 -0.1011
  121MOL0     C16206   1.799   3.744  11.210  0.0593  0.5210 -0.9705
  121MOL0     C16207   1.755   3.661  11.102 -0.4010  0.2085 -0.0847
  121MOL0     O16208   1.631   3.613  11.102 -0.0546 -0.2524 -0.1681
  121MOL0     C16209   1.617   3.495  11.011  0.0408 -0.2367  0.3109
  121MOL0     C16210   1.465   3.460  10.964  0.1596 -0.4145 -0.7860
  121MOL0     C16211   1.379   3.412  11.077  0.3865 -0.7739 -0.9181
  121MOL0     C16212   1.233   3.416  11.054  0.6171 -0.4416  1.3674
  121MOL0     C16213   1.192   3.317  10.940 -0.6026 -0.3165  0.3466
  121MOL0     C16214   1.049   3.256  10.965  0.0776  0.1162 -0.8090
  121MOL0     C16215   0.947   3.364  10.975 -0.4161 -1.0846  0.3536
  121MOL0     C16216   0.810   3.322  10.947 -0.2208  0.8310  0.2424
  121MOL0     N16217   0.718   3.413  11.015 -0.1214 -0.2901 -0.2216
  121MOL0     C16218   0.677   3.399  11.145  0.7136 -0.0843 -0.1443
  121MOL0     C16219   0.606   3.511  11.171 -0.0498 -0.9424 -0.2229
  121MOL0     C16220   0.522   3.540  11.296  0.2446  0.1788 -0.2019
  121MOL0     C16221   0.419   3.435  11.339 -0.3955 -0.2935  0.5708
  121MOL0     C16222   0.332   3.474  11.454  0.2153  0.1604 -0.4557
  121MOL0     C16223   0.235   3.356  11.487 -0.4108  0.3916 -0.0959
  121MOL0     O16224   0.120   3.373  11.401  0.2286  0.3883  0.0844
  121MOL0     C16225   0.075   3.272  11.317  1.0712  0.3611 -0.0984
  121MOL0     C16226   0.117   3.144  11.304 -0.6414 -0.1566  0.7274
  121MOL0     C16227   0.079   3.044  11.222 -0.0069 -0.6779 -0.3301
  121MOL0     C16228   0.149   2.913  11.224  0.1919  0.3899 -0.5404
  121MOL0     C16229  -0.027   3.088  11.132 -0.5104  0.5784 -0.1317
  121MOL0     C16230  -0.068   3.021  11.006 -0.1428  0.4040 -0.8996
  121MOL0     O16231  -0.172   3.067  10.941  0.3617  0.0786  0.3931
  121MOL0     C16232  -0.223   3.004  10.829 -0.0286  1.0025 -0.6561
  121MOL0     C16233  -0.325   2.918  10.845 -0.1352  0.4084  0.5758
  121MOL0     C16234  -0.364   2.843  10.729 -0.0123 -0.2741  0.1712
  121MOL0     C16235  -0.314   2.876  10.600  0.1538 -0.0513 -0.1614
  121MOL0     O16236  -0.334   2.805  10.484 -0.0240  0.2634 -0.4493
  121MOL0     C16237  -0.467   2.759  10.458 -0.5271  0.2695 -0.0598
  121MOL0     C16238  -0.554   2.873  10.416 -0.1050 -0.0651  1.5889
  121MOL0     C16239  -0.702   2.834  10.417  0.1037 -0.1638 -0.5149
  121MOL0     C16240  -0.757   2.802  10.559  0.2819 -0.9597  0.1460
  121MOL0     C16241  -0.894   2.870  10.592 -0.1204  0.6263 -0.0667
  121MOL0     C16242  -0.942   2.842  10.742  0.0189  0.0309 -0.1452
  121MOL0     C16243  -0.890   2.944  10.853 -0.5673  0.3994  0.5206
  121MOL0     C16244  -0.734   2.918  10.880 -0.4587 -0.3136  0.4686
  121MOL0    Cl16245  -0.655   3.026  11.007 -0.0799 -0.6071 -0.1578
  121MOL0     C16246  -0.218   2.982  10.594  0.9543  0.3614 -1.1251
  121MOL0     C16247  -0.170   3.044  10.709  0.2307 -0.0344 -0.0158
  121MOL0     O16248   0.007   2.923  10.970 -0.0670 -0.8576  0.5889
  121MOL0     C16249  -0.085   3.218  11.151  0.4370  0.1436 -0.8664
  121MOL0     C16250  -0.031   3.304  11.243  0.2114  1.0736  0.0004
  121MOL0     N16251   0.620   3.600  11.066  0.0872 -0.2210  0.1955
  121MOL0     N16252   0.699   3.547  10.982  0.3024 -0.2762  0.5574
  121MOL0     C16253   1.860   3.619  11.009  0.6317 -0.1741  0.3073
  121MOL0     C16254   1.995   3.664  11.024 -0.9604  0.0517  0.0325
  121MOL0     C16255   2.370   3.856  11.031  0.5756 -0.1700  0.3387
  121MOL0     C16256   2.432   3.822  11.154  0.2295 -0.5138  0.0568
  121MOL0     C16257   2.568   3.842  11.166  0.0600  0.2125  0.0560
  121MOL0     C16258   2.646   3.887  11.060  1.4523 -0.4648  0.2446
  121MOL0     O16259   2.781   3.886  11.081 -0.4231  0.1353  0.1154
  121MOL0     C16260   2.875   3.915  10.976 -0.1301 -0.1635 -0.2479
  121MOL0     C16261   3.009   3.829  10.971  0.1446  0.4230 -0.0703
  121MOL0     C16262   3.103   3.873  11.076 -0.0209  0.2172  0.0463
  121MOL0     C16263   3.235   3.793  11.090  0.4480 -1.1379 -0.0672
  121MOL0     C16264   3.317   3.791  10.972 -0.3315  0.1054  1.0493
  121MOL0     C16265   3.396   3.781  10.877  0.0107 -1.0265 -0.1664
  121MOL0     C16266   2.580   3.920  10.941 -0.2396  0.1094 -0.3868
  121MOL0     C16267   2.442   3.918  10.929 -0.4512  0.2674  0.1157
  121MOL0     H16268   1.971   3.831  11.309  1.2878  0.6199 -0.9450
  121MOL0     H16269   1.725   3.761  11.288  0.5305  0.0407 -0.4075
  121MOL0     H16270   1.665   3.505  10.913 -0.5916  0.7932  0.0863
  121MOL0     H16271   1.657   3.412  11.070 -0.4316 -2.5136 -2.3530
  121MOL0     H16272   1.428   3.554  10.922  0.6798 -0.1270 -0.6122
  121MOL0     H16273   1.456   3.387  10.883  1.4138 -0.2344 -1.1192
  121MOL0     H16274   1.412   3.317  11.122  4.0694  0.3156 -0.9877
  121MOL0     H16275   1.396   3.484  11.157  0.8080 -0.4188 -1.3207
  121MOL0     H16276   1.184   3.373  11.142 -2.6796 -3.1886 -1.5123
  121MOL0     H16277   1.190   3.514  11.030 -2.1557 -2.3860 -2.6473
  121MOL0     H16278   1.193   3.348  10.835  0.6889 -1.5556 -0.0497
  121MOL0     H16279   1.264   3.235  10.949 -1.7696 -1.4723 -0.4443
  121MOL0     H16280   1.023   3.192  10.881  3.8177 -4.0958  0.7992
  121MOL0     H16281   1.035   3.190  11.051 -0.1262 -1.5375 -2.0622
  121MOL0     H16282   0.956   3.405  11.076  4.8447 -0.2929 -0.1575
  121MOL0     H16283   0.959   3.445  10.902 -1.2016  0.7785  2.2014
  121MOL0     H16284   0.799   3.221  10.988 -1.4316 -0.0775 -2.1632
  121MOL0     H16285   0.789   3.319  10.840  2.2732  3.4298 -0.4235
  121MOL0     H16286   0.676   3.305  11.200  0.1417 -0.4639 -0.7854
  121MOL0     H16287   0.592   3.559  11.378  0.9911  2.5073 -1.3149
  121MOL0     H16288   0.468   3.633  11.275  1.1657  0.5981 -0.7330
  121MOL0     H16289   0.473   3.345  11.371  0.5149  0.1805  0.4146
  121MOL0     H16290   0.358   3.416  11.251  0.2168 -1.1617  0.3175
  121MOL0     H16291   0.272   3.559  11.421  0.7628 -0.2203 -2.6497
  121MOL0     H16292   0.392   3.494  11.543  1.4282 -2.6459 -0.5014
  121MOL0     H16293   0.200   3.368  11.590 -0.8181  0.3242 -0.2263
  121MOL0     H16294   0.283   3.258  11.491 -0.2787  0.4561  3.6870
  121MOL0     H16295   0.203   3.120  11.366  0.7654  3.1656  0.2405
  121MOL0     H16296   0.206   2.890  11.315 -0.3968  1.8644  0.2392
  121MOL0     H16297   0.067   2.841  11.215 -1.0549  1.7553 -0.4083
  121MOL0     H16298   0.206   2.921  11.131 -0.8116  2.0027 -1.0534
  121MOL0     H16299  -0.368   2.902  10.944  0.0616  0.9625  0.7561
  121MOL0     H16300  -0.449   2.777  10.743  0.2443 -1.4082 -2.8529
  121MOL0     H16301  -0.465   2.687  10.377 -2.2961  0.6488 -0.4795
  121MOL0     H16302  -0.509   2.712  10.547 -1.8073 -1.0100 -1.2894
  121MOL0     H16303  -0.545   2.954  10.490  2.0749 -2.0348  3.6566
  121MOL0     H16304  -0.517   2.898  10.316  0.7144 -3.2046  0.9964
  121MOL0     H16305  -0.722   2.746  10.355 -4.3820 -1.8771  2.8038
  121MOL0     H16306  -0.764   2.912  10.373 -3.5463 -2.3760  0.3328
  121MOL0     H16307  -0.780   2.695  10.567  1.8362 -1.2498  1.1868
  121MOL0     H16308  -0.692   2.808  10.647 -0.9489  0.7913  0.9965
  121MOL0     H16309  -0.975   2.827  10.532 -0.4674  0.5033  0.4828
  121MOL0     H16310  -0.890   2.973  10.558  3.1983  0.2543 -1.1360
  121MOL0     H16311  -1.051   2.840  10.744 -0.0720  2.2556  2.2624
  121MOL0     H16312  -0.900   2.745  10.769  0.9686  0.1831 -1.0109
  121MOL0     H16313  -0.933   2.927  10.952  1.4198 -0.2281  1.3282
  121MOL0     H16314  -0.904   3.045  10.813 -2.1568 -0.6385 -1.7708
  121MOL0     H16315  -0.671   2.941  10.793  1.0924 -4.0155  0.4483
  121MOL0     H16316  -0.731   2.810  10.897 -1.5461 -0.2794  0.9593
  121MOL0     H16317  -0.181   2.996  10.493 -1.0905 -1.1849 -2.1810
  121MOL0     H16318  -0.088   3.114  10.720 -0.0897 -0.0581  3.5083
  121MOL0     H16319  -0.175   3.255  11.104 -1.1012 -3.1663 -0.8314
  121MOL0     H16320  -0.077   3.401  11.258 -1.6065 -0.1447  3.4065
  121MOL0     H16321   1.856   3.548  10.927  3.5979  0.2875 -0.3630
  121MOL0     H16322   2.072   3.622  10.961 -1.4461 -2.6603  1.1095
  121MOL0     H16323   2.374   3.778  11.234 -1.1768  0.0877 -0.6039
  121MOL0     H16324   2.630   3.817  11.252 -3.0905 -0.2801  2.3720
  121MOL0     H16325   2.829   3.892  10.880 -0.6081 -1.6463  0.3088
  121MOL0     H16326   2.901   4.021  10.974  0.9586 -0.4378 -1.6736
  121MOL0     H16327   3.055   3.839  10.872  0.6804 -0.5689  0.0679
  121MOL0     H16328   3.000   3.722  10.990 -0.7017  0.7511  1.5629
  121MOL0     H16329   3.050   3.874  11.172 -1.0259  1.4969 -0.4790
  121MOL0     H16330   3.136   3.975  11.053  1.7313 -0.2051  0.5163
  121MOL0     H16331   3.211   3.689  11.113 -2.2506 -0.1766  2.0547
  121MOL0     H16332   3.310   3.834  11.158  2.1825 -1.5676 -1.6369
  121MOL0     H16333   3.458   3.799  10.792  0.8229  0.8205  0.7653
  121MOL0     H16334   2.635   3.965  10.858 -1.4443  2.3671 -0.0346
  121MOL0     H16335   2.392   3.952  10.838 -1.6635  2.2927  1.4637
  122MOL0     O16336   0.660   9.425   5.089  0.4311 -0.7569 -0.4311
  122MOL0     C16337   0.656   9.432   5.209  0.7437  0.7816 -0.0354
  122MOL0     O16338   0.759   9.417   5.297  0.4138 -0.2357  0.0004
  122MOL0     C16339   0.892   9.407   5.250  0.9787 -0.4549  0.2939
  122MOL0     C16340   0.980   9.505   5.285 -0.1257  0.4373 -0.2965
  122MOL0     C16341   1.114   9.493   5.242  0.3068 -0.5912  0.4691
  122MOL0     C16342   1.154   9.400   5.140  0.3022  0.2397 -0.9854
  122MOL0     O16343   1.272   9.410   5.084  0.1188 -0.8169  0.2197
  122MOL0     C16344   1.276   9.378   4.945 -0.0483  1.0066 -0.6964
  122MOL0     C16345   1.391   9.461   4.892  0.3523 -0.1232  0.2556
  122MOL0     C16346   1.406   9.439   4.743  0.4937 -0.2450  0.8564
  122MOL0     C16347   1.511   9.524   4.679  0.3470  0.4330  0.0273
  122MOL0     C16348   1.520   9.509   4.518 -0.1278 -0.1933 -0.0673
  122MOL0     C16349   1.623   9.409   4.469 -0.5787  0.3707 -0.2887
  122MOL0     C16350   1.599   9.375   4.314 -0.4156 -0.6678 -0.2942
  122MOL0     C16351   1.708   9.286   4.264  0.2680  0.0169 -0.9721
  122MOL0     N16352   1.740   9.174   4.351 -0.1036  0.5561  0.5029
  122MOL0     C16353   1.647   9.070   4.381  0.3774 -0.2703 -0.0613
  122MOL0     C16354   1.703   8.997   4.472 -0.0613  0.9309  0.0430
  122MOL0     C16355   1.647   8.874   4.553 -0.2365 -0.4824  0.6244
  122MOL0     C16356   1.503   8.888   4.603  0.6990 -0.2270 -0.3286
  122MOL0     C16357   1.473   8.775   4.712 -0.1361 -0.2325  0.0365
  122MOL0     C16358   1.324   8.771   4.742  0.9385  0.0911 -0.6835
  122MOL0     O16359   1.297   8.898   4.793 -0.0466 -0.6154  0.7358
  122MOL0     C16360   1.174   8.924   4.861 -0.2723  1.0636 -0.3796
  122MOL0     C16361   1.060   8.884   4.793  0.5426 -0.7540  0.4604
  122MOL0     C16362   0.935   8.890   4.864  0.5133 -0.3338  0.9622
  122MOL0     C16363   0.817   8.853   4.781 -0.3687 -0.2711  0.5042
  122MOL0     C16364   0.933   8.932   4.996 -0.5212 -0.1189  0.3341
  122MOL0     C16365   0.814   8.930   5.083 -0.2279 -0.7194 -0.3499
  122MOL0     O16366   0.818   8.988   5.206 -0.2418  0.6813 -0.2782
  122MOL0     C16367   0.702   8.979   5.283  0.1261 -0.1993  0.1438
  122MOL0     C16368   0.616   9.088   5.278 -0.0028 -0.7525 -1.1013
  122MOL0     C16369   0.504   9.087   5.366  0.6129  0.6615 -0.9490
  122MOL0     C16370   0.476   8.975   5.456  0.8339  0.3127 -0.1552
  122MOL0     O16371   0.365   8.977   5.539 -0.4770 -1.1266  0.0805
  122MOL0     C16372   0.263   9.058   5.503  0.2239 -0.3271  0.2527
  122MOL0     C16373   0.131   9.006   5.554 -0.5022  0.1505 -0.6123
  122MOL0     C16374   0.091   8.882   5.467  0.1330 -0.8383  0.8520
  122MOL0     C16375  -0.019   8.803   5.548  0.5512  0.0954  0.7840
  122MOL0     C16376  -0.165   8.863   5.540 -0.6047  0.0717 -0.1431
  122MOL0     C16377  -0.261   8.774   5.610 -0.0858  0.8443 -0.0428
  122MOL0     C16378  -0.389   8.835   5.674  0.6710 -0.3878 -0.4329
  122MOL0     C16379  -0.513   8.857   5.572  0.0548  0.0643  0.8682
  122MOL0    Cl16380  -0.633   8.950   5.667 -0.3729 -0.1179 -0.4137
  122MOL0     C16381   0.570   8.871   5.459  0.1507 -0.2118 -1.0291
  122MOL0     C16382   0.681   8.868   5.370 -0.5525  0.0369 -0.2477
  122MOL0     O16383   0.722   8.860   5.049  0.2355 -0.2265 -0.2628
  122MOL0     C16384   1.055   8.968   5.057  0.5480  0.6757 -0.3517
  122MOL0     C16385   1.167   8.968   4.991 -0.0793 -0.3119 -0.5733
  122MOL0     N16386   1.833   9.033   4.475 -0.0634 -0.2535  0.7144
  122MOL0     N16387   1.855   9.139   4.400 -0.0488 -0.9669 -0.2691
  122MOL0     C16388   1.056   9.307   5.104 -0.4338  0.7465  0.0030
  122MOL0     C16389   0.930   9.313   5.162  0.6699  0.8998  0.1922
  122MOL0     C16390   0.524   9.440   5.279 -0.6503  0.4092  0.5626
  122MOL0     C16391   0.519   9.451   5.420  0.1477  0.4729 -1.0862
  122MOL0     C16392   0.398   9.450   5.488  0.0761 -0.5662  0.1717
  122MOL0     C16393   0.276   9.432   5.420 -0.2614 -0.3334 -0.1012
  122MOL0     O16394   0.150   9.441   5.477  1.0230  0.7315 -0.3759
  122MOL0     C16395   0.143   9.435   5.621 -0.6111 -0.4518  0.1700
  122MOL0     C16396  -0.005   9.455   5.659 -0.2571 -0.3858  0.2348
  122MOL0     C16397  -0.032   9.399   5.794  1.1290  1.0201 -0.1063
  122MOL0     C16398  -0.074   9.245   5.779 -0.3287 -1.5823  0.7229
  122MOL0     C16399  -0.210   9.233   5.735  0.4776 -0.0560  0.1956
  122MOL0     C16400  -0.311   9.203   5.677  0.1907 -0.0159 -0.1993
  122MOL0     C16401   0.281   9.412   5.282 -0.2333 -0.3879 -0.2895
  122MOL0     C16402   0.400   9.416   5.212  0.1225 -0.2736  0.5549
  122MOL0     H16403   0.956   9.573   5.366 -0.6579 -1.3664  1.1281
  122MOL0     H16404   1.186   9.563   5.284  1.2623  1.4591 -3.9870
  122MOL0     H16405   1.302   9.272   4.946  1.2714  1.3115 -0.8847
  122MOL0     H16406   1.186   9.399   4.887 -0.3623 -0.1728 -0.6720
  122MOL0     H16407   1.374   9.569   4.894  0.4538 -0.0872 -0.6816
  122MOL0     H16408   1.485   9.447   4.946 -0.6406 -0.7295  1.9015
  122MOL0     H16409   1.426   9.334   4.719 -1.5473 -0.7331  1.1283
  122MOL0     H16410   1.308   9.465   4.704 -0.2587 -2.6655  0.9950
  122MOL0     H16411   1.484   9.626   4.709  0.6797 -0.3790  3.4913
  122MOL0     H16412   1.608   9.503   4.724  0.6597  0.4482 -0.6284
  122MOL0     H16413   1.426   9.483   4.467  1.0225 -2.4254 -1.2199
  122MOL0     H16414   1.546   9.612   4.491 -3.1042  1.2853  2.0242
  122MOL0     H16415   1.723   9.440   4.500 -2.2625  2.3653  3.9197
  122MOL0     H16416   1.606   9.317   4.524  2.7503 -0.2903 -0.1857
  122MOL0     H16417   1.497   9.335   4.304 -0.5828 -1.2320  2.6730
  122MOL0     H16418   1.607   9.465   4.253  0.5596 -0.2561  0.4195
  122MOL0     H16419   1.800   9.345   4.259  0.9531 -0.2112  3.9362
  122MOL0     H16420   1.690   9.246   4.163  1.8834 -1.8604 -0.5863
  122MOL0     H16421   1.545   9.059   4.347  0.6289 -0.3830 -0.7853
  122MOL0     H16422   1.655   8.784   4.492  2.1527 -3.0987  4.3491
  122MOL0     H16423   1.718   8.861   4.636 -2.1564 -1.1958  2.2300
  122MOL0     H16424   1.427   8.885   4.524 -0.5080 -0.4738  0.8078
  122MOL0     H16425   1.499   8.985   4.653 -0.8517 -0.7748  0.6760
  122MOL0     H16426   1.530   8.797   4.804  1.7922 -0.1541 -1.1217
  122MOL0     H16427   1.489   8.680   4.661  0.7033  0.0306 -0.2128
  122MOL0     H16428   1.309   8.698   4.823 -1.5597  2.6336  1.3420
  122MOL0     H16429   1.262   8.760   4.653 -2.6166 -2.9234  1.8577
  122MOL0     H16430   1.059   8.844   4.692  0.8055 -1.0660  0.5804
  122MOL0     H16431   0.838   8.860   4.674  3.9362 -0.5950  1.1465
  122MOL0     H16432   0.793   8.750   4.807 -2.9702  0.3455  0.8232
  122MOL0     H16433   0.736   8.923   4.803  0.6003  1.8029 -1.9701
  122MOL0     H16434   0.643   9.187   5.242  0.2390  0.0834  1.1709
  122MOL0     H16435   0.438   9.173   5.371 -1.7179 -1.1178  1.0579
  122MOL0     H16436   0.274   9.163   5.534  0.7936 -0.2437 -0.2245
  122MOL0     H16437   0.258   9.066   5.394  0.4565 -0.5924  0.2215
  122MOL0     H16438   0.156   8.982   5.658  1.9621 -3.8508 -1.9141
  122MOL0     H16439   0.050   9.080   5.546  0.4894  1.1945 -1.3603
  122MOL0     H16440   0.175   8.820   5.434  0.7466  0.3072  0.2032
  122MOL0     H16441   0.047   8.916   5.372  1.3089  1.4206  1.0630
  122MOL0     H16442  -0.020   8.708   5.495 -1.5600  0.8708 -0.7032
  122MOL0     H16443   0.026   8.783   5.646  1.8830  1.1439  0.4151
  122MOL0     H16444  -0.188   8.879   5.434 -0.0800 -1.5941 -0.5419
  122MOL0     H16445  -0.163   8.966   5.576  0.7508  0.6392 -1.6968
  122MOL0     H16446  -0.279   8.704   5.528  0.6067  3.1546 -2.3028
  122MOL0     H16447  -0.207   8.722   5.689  1.1011  2.5527  0.3241
  122MOL0     H16448  -0.354   8.925   5.727  0.4226 -0.3460 -0.3390
  122MOL0     H16449  -0.424   8.777   5.759 -0.0960 -3.7075 -2.8249
  122MOL0     H16450  -0.551   8.758   5.545 -0.6781  0.9588 -1.6326
  122MOL0     H16451  -0.478   8.911   5.484 -0.3017 -1.8599 -0.5131
  122MOL0     H16452   0.565   8.778   5.515  0.0276  0.5004  0.1669
  122MOL0     H16453   0.756   8.790   5.380  0.7627  1.0447 -1.6372
  122MOL0     H16454   1.055   8.989   5.163  0.8035 -2.0315  0.2517
  122MOL0     H16455   1.247   9.001   5.057 -1.4797 -0.6142  1.3890
  122MOL0     H16456   1.082   9.231   5.031  0.5550  0.1275  0.9576
  122MOL0     H16457   0.860   9.235   5.131  1.7972  0.3909 -1.1852
  122MOL0     H16458   0.613   9.463   5.473  0.3338 -0.6349 -1.1562
  122MOL0     H16459   0.405   9.453   5.596 -0.7405 -0.7042  0.2319
  122MOL0     H16460   0.174   9.335   5.652 -0.0217 -1.0437 -2.1094
  122MOL0     H16461   0.203   9.514   5.668 -0.1809  0.2395 -1.4511
  122MOL0     H16462  -0.064   9.417   5.574 -1.9418  3.5794 -0.5903
  122MOL0     H16463  -0.035   9.560   5.665  0.7638 -0.1602  1.6335
  122MOL0     H16464  -0.113   9.458   5.837  1.0753 -0.2226  1.5693
  122MOL0     H16465   0.055   9.405   5.861  1.7878 -2.4584 -0.4671
  122MOL0     H16466  -0.056   9.198   5.876  0.3497 -0.2614  1.2749
  122MOL0     H16467  -0.010   9.203   5.701 -0.0196  0.6620 -0.3076
  122MOL0     H16468  -0.398   9.164   5.628 -0.5797  0.4532  0.7517
  122MOL0     H16469   0.190   9.385   5.230 -0.0998  0.0747 -0.7733
  122MOL0     H16470   0.384   9.389   5.108  1.2003  1.3970 -0.0938
  123MOL0     O16471   2.206   2.273   0.325  0.3389 -0.3518  0.2221
  123MOL0     C16472   2.227   2.155   0.292 -0.0913 -0.6313  0.4288
  123MOL0     O16473   2.170   2.035   0.341  0.9157  0.1790  0.3667
  123MOL0     C16474   2.053   2.031   0.415 -1.2783  0.4989 -0.2160
  123MOL0     C16475   2.045   2.090   0.537 -0.0489 -0.2305 -0.0441
  123MOL0     C16476   1.938   2.087   0.620  0.2807 -0.1168 -0.1691
  123MOL0     C16477   1.824   2.019   0.580 -0.0908  0.2724  0.3042
  123MOL0     O16478   1.726   1.983   0.675  0.5383  0.0693  0.0212
  123MOL0     C16479   1.621   1.897   0.637  0.1151 -0.4664 -0.5436
  123MOL0     C16480   1.527   1.904   0.752  0.0005 -0.4562  0.6141
  123MOL0     C16481   1.385   1.848   0.718 -0.5322 -0.0668 -0.3928
  123MOL0     C16482   1.398   1.701   0.699 -0.1221 -1.2786  0.3369
  123MOL0     C16483   1.256   1.648   0.671  0.8532 -0.1390  0.0179
  123MOL0     C16484   1.259   1.490   0.641 -0.3841  0.3225  0.0766
  123MOL0     C16485   1.288   1.458   0.493  0.2393 -0.4842  0.0492
  123MOL0     C16486   1.268   1.320   0.434 -0.8362 -0.3887 -0.2888
  123MOL0     N16487   1.130   1.302   0.400 -0.5569  1.1086 -0.1059
  123MOL0     C16488   1.020   1.280   0.487 -0.3744  0.5170  0.5044
  123MOL0     C16489   0.915   1.257   0.403 -0.3565  0.4763 -0.0873
  123MOL0     C16490   0.768   1.239   0.445 -0.2202 -0.1710  0.8139
  123MOL0     C16491   0.681   1.306   0.328 -0.0211  0.2891  0.2631
  123MOL0     C16492   0.530   1.266   0.325 -0.0289 -0.5604  0.7902
  123MOL0     C16493   0.449   1.363   0.233  0.1114  0.1427 -0.8220
  123MOL0     O16494   0.316   1.316   0.236  0.3113  0.0380 -0.0422
  123MOL0     C16495   0.227   1.345   0.339  0.0066  0.4456 -0.2933
  123MOL0     C16496   0.250   1.425   0.453 -0.3290 -0.0075  0.1199
  123MOL0     C16497   0.157   1.416   0.555  0.3541 -0.0883 -0.2405
  123MOL0     C16498   0.194   1.482   0.687 -0.5432  0.5949 -0.4831
  123MOL0     C16499   0.027   1.354   0.537  0.3481 -0.4059 -0.0570
  123MOL0     C16500  -0.072   1.339   0.641  1.2754 -0.3064  0.0019
  123MOL0     O16501  -0.143   1.218   0.638 -0.3131  0.2472 -0.1646
  123MOL0     C16502  -0.248   1.210   0.716  0.0867  0.6813  0.6201
  123MOL0     C16503  -0.243   1.129   0.824 -0.2148 -0.2496  0.4203
  123MOL0     C16504  -0.352   1.102   0.907 -0.6378  0.2243 -0.3166
  123MOL0     C16505  -0.474   1.168   0.882  0.6301  0.8439 -0.5092
  123MOL0     O16506  -0.588   1.148   0.968 -0.9349 -0.3562  0.3263
  123MOL0     C16507  -0.575   1.080   1.095 -0.2483 -0.1361 -0.3265
  123MOL0     C16508  -0.603   0.927   1.085 -0.4271  0.0830  0.5590
  123MOL0     C16509  -0.743   0.904   1.042  0.1034 -0.6832  0.0244
  123MOL0     C16510  -0.777   0.763   1.005  0.5389  0.3928  0.1472
  123MOL0     C16511  -0.853   0.700   1.123 -0.9980 -0.5786 -1.1388
  123MOL0     C16512  -0.905   0.562   1.111 -0.2885  0.6942  0.0319
  123MOL0     C16513  -1.033   0.555   1.037 -0.7141 -0.3566  0.3518
  123MOL0     C16514  -1.065   0.412   1.036 -0.5657  0.3250 -0.1229
  123MOL0    Cl16515  -1.237   0.389   1.019 -0.2105  0.1971 -0.1984
  123MOL0     C16516  -0.484   1.256   0.775 -0.0429 -0.7103  1.0257
  123MOL0     C16517  -0.371   1.267   0.689 -0.5046 -0.9981 -0.5501
  123MOL0     O16518  -0.088   1.427   0.726  0.0967  0.8163  0.1455
  123MOL0     C16519   0.007   1.282   0.417  0.6960 -0.2106 -0.8709
  123MOL0     C16520   0.101   1.284   0.321 -1.0213 -0.5765 -0.1093
  123MOL0     N16521   0.966   1.270   0.272 -0.0555  0.1075 -0.6290
  123MOL0     N16522   1.095   1.280   0.270 -0.3813 -0.2811  0.3794
  123MOL0     C16523   1.820   1.963   0.451 -0.3779 -0.1005  0.0647
  123MOL0     C16524   1.939   1.965   0.372 -0.1568 -0.3176 -0.3848
  123MOL0     C16525   2.339   2.133   0.204  0.0095 -0.5286  1.0592
  123MOL0     C16526   2.400   2.247   0.154  0.2663  0.5489  0.8131
  123MOL0     C16527   2.511   2.234   0.065  0.3672  0.4609  0.0420
  123MOL0     C16528   2.553   2.104   0.015 -0.1498  0.0248  0.0776
  123MOL0     O16529   2.659   2.114  -0.072 -0.2397 -0.8029  0.3527
  123MOL0     C16530   2.709   1.991  -0.104  0.5893 -0.6112 -0.7954
  123MOL0     C16531   2.842   2.000  -0.178 -0.5180  0.4964  0.0459
  123MOL0     C16532   2.828   2.075  -0.310 -0.6462 -0.8985  0.8069
  123MOL0     C16533   2.962   2.083  -0.381 -0.4351  0.3341 -1.1317
  123MOL0     C16534   2.966   2.180  -0.486  0.5655 -0.0369 -0.4363
  123MOL0     C16535   2.943   2.255  -0.582 -0.0170 -0.7035  0.5003
  123MOL0     C16536   2.494   1.988   0.077 -0.1141 -1.2411 -1.0084
  123MOL0     C16537   2.385   2.002   0.163 -0.1079 -0.2118 -0.3571
  123MOL0     H16538   2.133   2.130   0.587 -0.6839 -0.0468  0.9432
  123MOL0     H16539   1.942   2.136   0.716 -1.2271 -2.7083  1.3112
  123MOL0     H16540   1.565   1.944   0.555  0.4263 -1.6817 -1.4859
  123MOL0     H16541   1.652   1.799   0.601 -0.3270  0.3157 -3.3170
  123MOL0     H16542   1.572   1.857   0.840  0.5498 -2.2901 -0.5996
  123MOL0     H16543   1.512   2.011   0.774  0.6543  0.2175 -1.9393
  123MOL0     H16544   1.318   1.856   0.804  0.3620 -0.1417  0.3187
  123MOL0     H16545   1.353   1.895   0.625 -0.9321  0.4462 -0.0003
  123MOL0     H16546   1.467   1.681   0.617 -1.1432 -0.6872 -0.6837
  123MOL0     H16547   1.444   1.659   0.789 -2.3797 -1.0935  1.6680
  123MOL0     H16548   1.192   1.669   0.757  1.4492  3.7592 -0.3160
  123MOL0     H16549   1.218   1.700   0.582  2.1324 -4.6704 -3.6061
  123MOL0     H16550   1.328   1.440   0.710  0.5620 -0.6223 -1.4837
  123MOL0     H16551   1.154   1.463   0.654 -0.9983  2.9000  1.0559
  123MOL0     H16552   1.221   1.524   0.437  2.2683  0.1481 -1.7751
  123MOL0     H16553   1.390   1.494   0.475  0.0362  1.1402  1.8318
  123MOL0     H16554   1.298   1.245   0.508 -1.4850  1.3466  1.8498
  123MOL0     H16555   1.330   1.300   0.346 -2.0424  3.1654 -2.1644
  123MOL0     H16556   1.020   1.288   0.595  2.9300 -0.3139  0.6657
  123MOL0     H16557   0.751   1.132   0.454  0.3792 -0.7635 -3.3160
  123MOL0     H16558   0.746   1.290   0.540  0.4272  3.8733 -0.9696
  123MOL0     H16559   0.716   1.275   0.230  1.2253  0.2429  0.7049
  123MOL0     H16560   0.670   1.415   0.331 -0.6959  0.2679 -0.9422
  123MOL0     H16561   0.501   1.276   0.430 -0.3251  0.3044  0.6309
  123MOL0     H16562   0.530   1.159   0.299 -0.9022 -0.2560 -0.5459
  123MOL0     H16563   0.492   1.358   0.133 -1.3808 -1.6158 -1.4298
  123MOL0     H16564   0.469   1.465   0.269  2.1199 -0.8623  1.1807
  123MOL0     H16565   0.340   1.486   0.465  0.7838 -1.4929 -0.3621
  123MOL0     H16566   0.295   1.521   0.670  1.3472 -3.8228 -0.8326
  123MOL0     H16567   0.119   1.559   0.708  1.5580  3.1767 -1.8570
  123MOL0     H16568   0.196   1.417   0.774  1.6796 -2.6178 -2.7077
  123MOL0     H16569  -0.150   1.074   0.839  0.0306  0.8345  3.4815
  123MOL0     H16570  -0.336   1.041   0.995  1.3848  1.4521  0.2310
  123MOL0     H16571  -0.478   1.107   1.139 -2.5150  3.6609  3.0831
  123MOL0     H16572  -0.648   1.114   1.169  0.3901  1.3042 -0.3264
  123MOL0     H16573  -0.525   0.888   1.019 -0.9327  1.7739 -1.1007
  123MOL0     H16574  -0.586   0.881   1.184  1.6223 -0.7050 -0.0978
  123MOL0     H16575  -0.768   0.958   0.950 -3.0606 -2.3372 -0.2381
  123MOL0     H16576  -0.804   0.935   1.127 -0.0466 -3.4679  1.0505
  123MOL0     H16577  -0.844   0.765   0.918 -0.1872 -0.7502  0.6591
  123MOL0     H16578  -0.687   0.704   0.986  1.4420  1.2298  1.6525
  123MOL0     H16579  -0.931   0.767   1.160 -0.6922 -0.9135  0.1978
  123MOL0     H16580  -0.779   0.706   1.204 -0.6719  1.0247 -1.5298
  123MOL0     H16581  -0.836   0.493   1.062 -2.0969 -0.8989 -0.4260
  123MOL0     H16582  -0.904   0.519   1.212  2.0039  2.0954  0.6797
  123MOL0     H16583  -1.016   0.588   0.934  1.3525  0.1284  0.8014
  123MOL0     H16584  -1.109   0.626   1.073  1.7491  4.2625 -2.5025
  123MOL0     H16585  -1.029   0.350   1.119  0.3765 -0.3046 -0.9831
  123MOL0     H16586  -1.008   0.372   0.951 -2.1111 -2.0151 -0.1589
  123MOL0     H16587  -0.582   1.298   0.754  0.8268  1.3576  0.8822
  123MOL0     H16588  -0.385   1.332   0.602  0.3139 -2.3042 -1.6885
  123MOL0     H16589  -0.088   1.233   0.398 -0.5480  1.3142  0.9498
  123MOL0     H16590   0.076   1.243   0.224  0.5583  0.4741 -0.9847
  123MOL0     H16591   1.731   1.915   0.411 -1.8121  2.1649  0.3773
  123MOL0     H16592   1.932   1.908   0.280 -2.9593 -1.3152  0.3448
  123MOL0     H16593   2.363   2.345   0.182 -2.7374 -0.1475 -0.3481
  123MOL0     H16594   2.532   2.333   0.026 -2.4649  0.2337 -2.3657
  123MOL0     H16595   2.726   1.921  -0.022  1.0687 -0.4939 -0.7966
  123MOL0     H16596   2.637   1.934  -0.164  1.4877 -0.8797 -1.6517
  123MOL0     H16597   2.862   1.893  -0.192 -0.2430  0.4981  0.4118
  123MOL0     H16598   2.919   2.048  -0.118 -0.3598  0.4427 -0.1156
  123MOL0     H16599   2.787   2.176  -0.295  0.9588  0.1474 -1.3303
  123MOL0     H16600   2.756   2.033  -0.381  1.6379 -0.0645 -2.1864
  123MOL0     H16601   2.982   1.982  -0.419 -2.2880  0.2316 -1.9246
  123MOL0     H16602   3.043   2.110  -0.313 -0.5642 -0.3369 -0.6972
  123MOL0     H16603   2.919   2.321  -0.664 -0.6898 -1.2411  0.2490
  123MOL0     H16604   2.542   1.890   0.080 -0.9119 -1.6817  2.6396
  123MOL0     H16605   2.351   1.916   0.220  0.2676  1.1287  1.9727
  124MOL0     O16606  11.302   8.104  11.183 -0.1704 -0.0043  0.1857
  124MOL0     C16607  11.347   7.988  11.190  0.1376  0.2157 -0.7067
  124MOL0     O16608  11.272   7.875  11.184 -0.4437 -0.7091 -0.3319
  124MOL0     C16609  11.143   7.891  11.150 -0.3179 -0.1078  0.3253
  124MOL0     C16610  11.102   7.904  11.008 -0.1400 -0.4678 -0.2746
  124MOL0     C16611  10.960   7.911  10.975 -0.2454  0.0742 -0.4441
  124MOL0     C16612  10.866   7.900  11.084 -0.2491  0.5116 -0.1150
  124MOL0     O16613  10.735   7.907  11.038  0.9889  0.2843 -0.4817
  124MOL0     C16614  10.634   7.872  11.130 -0.2601  0.5499  0.2375
  124MOL0     C16615  10.499   7.902  11.075  0.0662 -0.5934 -0.4953
  124MOL0     C16616  10.469   7.838  10.944 -0.5654  0.4045  0.0962
  124MOL0     C16617  10.329   7.879  10.884 -0.6872  0.8948  0.1111
  124MOL0     C16618  10.218   7.808  10.956  0.1714 -1.5230  0.5303
  124MOL0     C16619  10.078   7.860  10.893 -0.2703  0.4401 -0.2549
  124MOL0     C16620   9.971   7.770  10.945 -0.2312 -0.3613 -0.8848
  124MOL0     C16621   9.834   7.784  10.879  0.4454  0.3306  0.1659
  124MOL0     N16622   9.740   7.703  10.959  0.0785  0.3941 -0.6589
  124MOL0     C16623   9.734   7.564  10.964 -0.7579  0.0394  0.4241
  124MOL0     C16624   9.650   7.539  11.072 -0.8720  0.3724 -0.0914
  124MOL0     C16625   9.606   7.407  11.126 -0.2203 -0.7139  0.8429
  124MOL0     C16626   9.459   7.384  11.070 -0.2389 -0.0747 -0.0268
  124MOL0     C16627   9.453   7.298  10.941 -0.0976 -1.4769  0.9075
  124MOL0     C16628   9.310   7.274  10.896  0.2983  0.0534  0.0993
  124MOL0     O16629   9.315   7.199  10.774 -0.3146 -0.0883  0.5349
  124MOL0     C16630   9.195   7.171  10.719 -0.7490 -0.5240 -0.8180
  124MOL0     C16631   9.204   7.096  10.601 -0.0029  0.3594 -0.6167
  124MOL0     C16632   9.091   7.048  10.537 -0.2799 -0.5826 -0.1789
  124MOL0     C16633   9.106   6.964  10.411  0.6358 -0.2080 -0.2041
  124MOL0     C16634   8.967   7.096  10.578  0.8038  0.9285  0.1228
  124MOL0     C16635   8.845   7.074  10.499  1.0767  0.7354 -0.3739
  124MOL0     O16636   8.738   7.069  10.579  0.6632  0.2226 -0.7389
  124MOL0     C16637   8.611   7.039  10.528  0.1188 -0.2857 -0.6742
  124MOL0     C16638   8.575   6.923  10.460 -0.1943 -0.4909  0.1498
  124MOL0     C16639   8.439   6.919  10.410 -0.5649  0.7718 -0.3588
  124MOL0     C16640   8.344   7.022  10.428 -0.6246 -0.2381  0.1179
  124MOL0     O16641   8.215   7.006  10.382  0.4641 -0.3040 -0.1993
  124MOL0     C16642   8.153   6.885  10.325 -0.4714 -0.0938  0.0437
  124MOL0     C16643   7.998   6.907  10.335 -1.3327  0.1688 -0.4413
  124MOL0     C16644   7.916   6.791  10.270  0.0193 -0.6085  1.0343
  124MOL0     C16645   7.908   6.671  10.366 -0.3757  0.4415  1.1802
  124MOL0     C16646   7.811   6.561  10.318 -0.5780 -0.2983  0.2492
  124MOL0     C16647   7.667   6.588  10.374  0.9299 -0.5559  1.0139
  124MOL0     C16648   7.586   6.469  10.333  0.0518 -0.5432  0.4454
  124MOL0     C16649   7.437   6.476  10.351 -0.1627  0.8219 -0.3444
  124MOL0    Cl16650   7.366   6.358  10.245  0.1846 -0.0020 -0.2738
  124MOL0     C16651   8.382   7.134  10.508  0.0932  0.1478 -0.3427
  124MOL0     C16652   8.513   7.139  10.548  0.4567 -0.2735  0.5204
  124MOL0     O16653   8.843   7.048  10.379 -0.5274  0.1244 -0.5381
  124MOL0     C16654   8.953   7.168  10.703 -0.5169  0.0967  0.2694
  124MOL0     C16655   9.069   7.206  10.770 -0.3517 -0.2103 -0.1784
  124MOL0     N16656   9.601   7.660  11.118 -0.2761 -0.3385 -0.5997
  124MOL0     N16657   9.660   7.754  11.050 -0.8103  0.0282  0.2948
  124MOL0     C16658  10.908   7.891  11.216 -0.0791  0.4444  0.4096
  124MOL0     C16659  11.042   7.888  11.250 -0.0072 -1.1686 -0.5852
  124MOL0     C16660  11.501   7.976  11.196 -0.3743  0.4493  0.1537
  124MOL0     C16661  11.575   8.076  11.249  0.9427 -0.2034 -0.5956
  124MOL0     C16662  11.713   8.064  11.272 -0.0419 -0.0529  0.2719
  124MOL0     C16663  11.776   7.945  11.222 -0.2553  0.4961 -0.5249
  124MOL0     O16664  11.911   7.926  11.215  0.0956  0.7255  1.0957
  124MOL0     C16665  11.999   8.034  11.239 -0.3891 -0.2624 -0.2945
  124MOL0     C16666  12.000   8.144  11.133 -0.3200  0.2831 -0.7082
  124MOL0     C16667  12.052   8.093  10.991  0.9837  0.2626 -0.5355
  124MOL0     C16668  12.194   8.056  10.990 -0.2354  0.5916  0.3694
  124MOL0     C16669  12.236   8.017  10.858  0.7594  0.2182 -0.3788
  124MOL0     C16670  12.250   7.970  10.747 -0.2271  0.5902 -0.3291
  124MOL0     C16671  11.695   7.842  11.157 -0.2973 -0.3387 -0.0170
  124MOL0     C16672  11.558   7.857  11.154 -0.4318 -0.7955  0.3198
  124MOL0     H16673  11.181   7.909  10.933 -2.2432 -1.5702 -2.6792
  124MOL0     H16674  10.930   7.919  10.871  1.7650 -1.5934 -1.2096
  124MOL0     H16675  10.632   7.767  11.158 -0.5145  0.6955  0.7677
  124MOL0     H16676  10.640   7.937  11.218 -1.5923  1.5343 -0.3635
  124MOL0     H16677  10.426   7.883  11.155  0.0254 -0.7397 -0.5674
  124MOL0     H16678  10.490   8.009  11.056 -0.9741 -0.2150  1.7870
  124MOL0     H16679  10.548   7.855  10.869 -1.5553  1.2750 -0.7918
  124MOL0     H16680  10.478   7.730  10.955  1.3045  0.5172  0.1524
  124MOL0     H16681  10.317   7.988  10.895 -2.1499  0.9586 -1.6425
  124MOL0     H16682  10.329   7.851  10.779 -1.1219  3.0350 -0.5224
  124MOL0     H16683  10.235   7.701  10.940  1.9192 -1.0718 -1.0367
  124MOL0     H16684  10.233   7.825  11.063 -2.1494  0.2194  0.6562
  124MOL0     H16685  10.076   7.966  10.922  1.5559  0.5727 -0.4600
  124MOL0     H16686  10.077   7.858  10.784 -1.3643 -1.9535 -0.2476
  124MOL0     H16687  10.002   7.667  10.925  1.1925  0.3064 -2.3736
  124MOL0     H16688   9.959   7.801  11.049 -1.4102  0.5381 -1.2682
  124MOL0     H16689   9.843   7.758  10.773  1.2008 -0.9852  0.5183
  124MOL0     H16690   9.803   7.888  10.886  1.0363  0.4618  1.0752
  124MOL0     H16691   9.785   7.491  10.903 -1.0933 -1.1962  1.5698
  124MOL0     H16692   9.680   7.333  11.094 -0.3428 -0.6595  0.4219
  124MOL0     H16693   9.600   7.399  11.235  2.1905 -1.8936  0.9504
  124MOL0     H16694   9.404   7.476  11.051 -2.0868 -1.6651 -3.3785
  124MOL0     H16695   9.405   7.324  11.144 -2.3962  0.6692 -0.9095
  124MOL0     H16696   9.504   7.201  10.950  2.1177 -0.3297  1.3987
  124MOL0     H16697   9.496   7.348  10.855 -4.5037 -0.3727 -0.9355
  124MOL0     H16698   9.260   7.372  10.896  1.1289  0.5124  1.9206
  124MOL0     H16699   9.253   7.219  10.972 -0.0907  1.2240  0.6742
  124MOL0     H16700   9.296   7.068  10.552 -0.1988 -0.6631 -0.4382
  124MOL0     H16701   9.041   6.882  10.381 -0.5142  0.5659  0.1192
  124MOL0     H16702   9.115   7.036  10.329  0.0304 -0.3619 -0.4070
  124MOL0     H16703   9.208   6.924  10.416  1.8916  2.7760  0.3411
  124MOL0     H16704   8.650   6.846  10.441 -0.7949 -1.1252  0.3355
  124MOL0     H16705   8.420   6.846  10.333  0.2454  1.0504 -0.8289
  124MOL0     H16706   8.200   6.867  10.228  0.6055  1.9441  0.1443
  124MOL0     H16707   8.172   6.793  10.382  0.8900  2.3855  3.9725
  124MOL0     H16708   7.977   6.911  10.443  2.6283 -0.5929  0.5119
  124MOL0     H16709   7.974   7.004  10.292  1.0330  0.8458 -0.3713
  124MOL0     H16710   7.968   6.753  10.182 -2.7380  0.0355 -1.0433
  124MOL0     H16711   7.815   6.823  10.243  0.7754 -0.0592 -1.3628
  124MOL0     H16712   8.010   6.633  10.371 -1.2582 -1.9298  3.3117
  124MOL0     H16713   7.894   6.695  10.472  3.5172 -1.1539  2.2403
  124MOL0     H16714   7.842   6.464  10.358 -0.6342 -0.3272  0.2228
  124MOL0     H16715   7.808   6.547  10.210  1.4020 -0.6178  0.1978
  124MOL0     H16716   7.666   6.616  10.480 -1.5314  0.9940  0.6460
  124MOL0     H16717   7.631   6.681  10.329 -1.4585 -1.9588 -0.1792
  124MOL0     H16718   7.617   6.385  10.397 -0.4501 -1.7912 -0.8926
  124MOL0     H16719   7.601   6.446  10.227 -0.4626  2.5137 -0.3781
  124MOL0     H16720   7.413   6.579  10.321  2.5617  0.8816 -2.8278
  124MOL0     H16721   7.412   6.460  10.456 -3.4494 -0.0624 -1.1561
  124MOL0     H16722   8.322   7.222  10.527  0.1888 -0.0292  0.8706
  124MOL0     H16723   8.547   7.229  10.598  1.3012  0.2633 -0.9361
  124MOL0     H16724   8.857   7.207  10.735 -0.5099  0.0600  0.3337
  124MOL0     H16725   9.053   7.253  10.867  2.0329 -3.0653  1.7832
  124MOL0     H16726  10.830   7.885  11.292  0.9090  2.8506  1.7408
  124MOL0     H16727  11.082   7.870  11.349  0.6342 -0.6491 -0.7430
  124MOL0     H16728  11.524   8.164  11.287  1.3459 -0.9817  1.9052
  124MOL0     H16729  11.766   8.146  11.319 -1.2355  0.7137  0.3336
  124MOL0     H16730  11.971   8.080  11.334  0.7421 -2.9294  1.4881
  124MOL0     H16731  12.098   7.991  11.260  0.0928  1.3055  0.8128
  124MOL0     H16732  12.069   8.221  11.169  0.5465  0.2261 -2.1243
  124MOL0     H16733  11.901   8.190  11.126 -0.6438  0.1894  2.2083
  124MOL0     H16734  12.023   8.175  10.923  1.1391  0.6354 -0.1567
  124MOL0     H16735  12.002   8.001  10.961  0.8047  0.3117 -0.3837
  124MOL0     H16736  12.222   7.979  11.063 -0.1474 -1.3123 -1.5826
  124MOL0     H16737  12.240   8.153  11.010 -0.9439  0.6960  1.6576
  124MOL0     H16738  12.274   7.929  10.651 -2.4813  1.1139 -1.1885
  124MOL0     H16739  11.740   7.755  11.109 -0.3906 -0.3855 -0.0204
  124MOL0     H16740  11.492   7.781  11.115 -0.7434 -1.2946  1.7470
  125MOL0     O16741  10.579   1.665   1.984  0.2469 -0.0027 -0.3401
  125MOL0     C16742  10.612   1.780   1.957  0.5912  0.1348  0.0397
  125MOL0     O16743  10.524   1.874   1.918 -0.0898 -0.3880 -0.0711
  125MOL0     C16744  10.394   1.846   1.894  1.1218  0.0819  0.6591
  125MOL0     C16745  10.290   1.918   1.943  0.3920 -0.3417 -0.5376
  125MOL0     C16746  10.159   1.881   1.929  0.5443  0.9589  0.3359
  125MOL0     C16747  10.119   1.795   1.824 -0.4910  0.0232 -0.2444
  125MOL0     O16748   9.990   1.773   1.771 -0.0236 -0.4807  0.4307
  125MOL0     C16749   9.881   1.848   1.818 -0.5435 -0.2404 -0.2546
  125MOL0     C16750   9.762   1.844   1.724  0.2386  0.7683  0.9393
  125MOL0     C16751   9.697   1.715   1.700 -0.1407 -0.2311 -0.4409
  125MOL0     C16752   9.563   1.732   1.627  0.0502 -0.3271 -0.2189
  125MOL0     C16753   9.471   1.612   1.627 -0.1966  0.2873  0.4958
  125MOL0     C16754   9.344   1.641   1.552 -0.5849 -0.5770  0.2408
  125MOL0     C16755   9.243   1.523   1.542 -0.0037  0.2326 -0.0900
  125MOL0     C16756   9.104   1.596   1.534 -0.0652 -0.4807  0.3059
  125MOL0     N16757   9.000   1.510   1.476 -0.4795  0.3400 -0.1970
  125MOL0     C16758   8.948   1.390   1.529 -0.2320  0.1730 -0.9875
  125MOL0     C16759   8.853   1.353   1.439  0.4768  0.0388  0.2691
  125MOL0     C16760   8.753   1.235   1.456  0.2930 -0.1936  0.0658
  125MOL0     C16761   8.609   1.269   1.444  0.1944 -0.7431  0.4212
  125MOL0     C16762   8.527   1.141   1.438 -0.3913  0.4115 -0.5671
  125MOL0     C16763   8.377   1.158   1.434 -0.8333  0.4644 -0.3109
  125MOL0     O16764   8.315   1.028   1.463 -0.0117 -0.2766 -0.2173
  125MOL0     C16765   8.186   1.018   1.496 -0.2949 -0.2536 -0.0717
  125MOL0     C16766   8.117   0.910   1.441 -0.5748  0.0047  0.5751
  125MOL0     C16767   7.986   0.882   1.460  0.2568  0.0864  0.0791
  125MOL0     C16768   7.917   0.758   1.393 -0.3560 -0.4439 -0.2645
  125MOL0     C16769   7.910   0.969   1.548 -0.2564 -0.3083  0.1858
  125MOL0     C16770   7.775   0.935   1.603 -0.0842  0.2650  0.6428
  125MOL0     O16771   7.761   0.971   1.729 -0.3115  0.0734 -1.2141
  125MOL0     C16772   7.649   0.937   1.795 -0.0115 -0.4155 -0.2219
  125MOL0     C16773   7.532   1.004   1.750 -0.5673  0.2333 -0.8129
  125MOL0     C16774   7.407   0.943   1.781 -0.2929 -0.5188 -0.8908
  125MOL0     C16775   7.398   0.833   1.866  0.8996 -0.2152 -0.7865
  125MOL0     O16776   7.278   0.774   1.884 -0.2578  0.9302  0.0680
  125MOL0     C16777   7.207   0.792   2.002  0.6525 -0.4782 -0.5969
  125MOL0     C16778   7.057   0.794   1.960  0.1116 -0.2132 -1.1646
  125MOL0     C16779   6.973   0.880   2.054 -0.0515 -0.0560 -0.1014
  125MOL0     C16780   6.828   0.856   2.029  1.2838  0.3280 -0.1435
  125MOL0     C16781   6.745   0.952   2.117 -0.7992 -1.2452 -0.2380
  125MOL0     C16782   6.594   0.940   2.085 -0.7990 -0.6011  0.1704
  125MOL0     C16783   6.525   1.057   2.152  0.4728  0.1125 -0.8542
  125MOL0     C16784   6.376   1.044   2.120 -1.1568 -0.5009 -0.5184
  125MOL0    Cl16785   6.275   1.163   2.206 -0.6858 -0.7621  0.1502
  125MOL0     C16786   7.513   0.765   1.914  0.1434 -0.9397  0.4315
  125MOL0     C16787   7.637   0.828   1.884  0.5946 -0.0951 -0.9385
  125MOL0     O16788   7.688   0.875   1.536 -0.4591 -0.1340  0.3765
  125MOL0     C16789   7.981   1.077   1.610  0.7319 -0.3293 -0.5842
  125MOL0     C16790   8.116   1.098   1.587  0.3730 -0.4340 -0.2548
  125MOL0     N16791   8.837   1.443   1.340 -0.1095 -0.7533 -0.3911
  125MOL0     N16792   8.936   1.530   1.362  0.0437 -0.1127 -0.1221
  125MOL0     C16793  10.222   1.726   1.758 -0.8527  0.6757 -0.2955
  125MOL0     C16794  10.358   1.750   1.796 -0.5490 -0.7914 -0.9576
  125MOL0     C16795  10.757   1.800   1.949 -0.6933 -0.8956  0.0901
  125MOL0     C16796  10.806   1.920   1.898  0.3483  0.8349 -0.0128
  125MOL0     C16797  10.945   1.943   1.882 -0.3393  0.7609 -0.6177
  125MOL0     C16798  11.033   1.845   1.937 -1.0450 -1.5213  0.5298
  125MOL0     O16799  11.170   1.883   1.944 -0.2462 -1.0125  0.6199
  125MOL0     C16800  11.268   1.786   1.999  0.1351  0.3047  0.0417
  125MOL0     C16801  11.408   1.858   1.982  0.8267 -0.6930 -0.8668
  125MOL0     C16802  11.449   1.874   1.835 -0.1078 -0.1165  0.1761
  125MOL0     C16803  11.499   1.735   1.788  0.4608  0.0191  0.2296
  125MOL0     C16804  11.646   1.721   1.790  0.9475  0.3502  0.2890
  125MOL0     C16805  11.764   1.683   1.787  0.3690  0.2414  0.1411
  125MOL0     C16806  10.985   1.723   1.968  0.5019 -0.6367  0.3505
  125MOL0     C16807  10.849   1.707   1.983 -0.4883  0.2977 -0.5846
  125MOL0     H16808  10.320   1.996   2.012  2.4838 -3.0530  1.8793
  125MOL0     H16809  10.086   1.942   1.982  0.4809  0.9231  0.2882
  125MOL0     H16810   9.858   1.817   1.920 -2.4645  3.9332  0.8076
  125MOL0     H16811   9.907   1.953   1.838 -0.0435 -0.5381  0.6738
  125MOL0     H16812   9.696   1.915   1.774  2.8046  1.4002  3.7024
  125MOL0     H16813   9.789   1.891   1.629 -1.6151  1.1585  0.5777
  125MOL0     H16814   9.760   1.647   1.642 -1.0051 -1.7813  0.3800
  125MOL0     H16815   9.688   1.674   1.801  1.5891 -0.5681 -0.3837
  125MOL0     H16816   9.510   1.824   1.651  0.9166  0.0208  0.3990
  125MOL0     H16817   9.592   1.748   1.522 -1.2166  0.7970 -0.4152
  125MOL0     H16818   9.528   1.534   1.577  1.0553  0.3852  1.6949
  125MOL0     H16819   9.446   1.580   1.729 -2.8356 -3.1122 -0.9926
  125MOL0     H16820   9.289   1.718   1.607 -0.0916  0.8526 -1.1998
  125MOL0     H16821   9.365   1.663   1.447 -1.6540 -1.5564 -0.2049
  125MOL0     H16822   9.270   1.468   1.452  3.3634  0.8775  0.3872
  125MOL0     H16823   9.262   1.469   1.635  1.7561  2.3849  0.8895
  125MOL0     H16824   9.111   1.683   1.468 -0.4189 -2.8115 -3.1415
  125MOL0     H16825   9.080   1.637   1.632  0.7574  0.7853  0.0061
  125MOL0     H16826   8.965   1.349   1.628  2.5713 -0.6170 -1.7275
  125MOL0     H16827   8.776   1.179   1.365 -0.1143  0.8267 -0.6823
  125MOL0     H16828   8.773   1.179   1.547 -3.5012 -0.7860  0.7155
  125MOL0     H16829   8.593   1.318   1.348 -1.9513 -0.4628  0.8759
  125MOL0     H16830   8.574   1.338   1.522 -1.4051 -0.0896 -0.8026
  125MOL0     H16831   8.541   1.084   1.530 -1.2453 -0.0852 -0.7287
  125MOL0     H16832   8.555   1.082   1.350  1.5934 -0.6682  0.7096
  125MOL0     H16833   8.344   1.189   1.335 -3.3302 -0.8555  0.0055
  125MOL0     H16834   8.345   1.235   1.505 -0.6735  2.3255 -2.1847
  125MOL0     H16835   8.176   0.833   1.393 -1.8292 -0.8381  0.3239
  125MOL0     H16836   7.984   0.719   1.315 -0.0497  2.6255 -1.6812
  125MOL0     H16837   7.876   0.688   1.467 -2.5470  1.8469  0.8097
  125MOL0     H16838   7.821   0.789   1.351 -0.9775  2.1911  2.6936
  125MOL0     H16839   7.549   1.086   1.682 -1.2601  1.5267  0.5003
  125MOL0     H16840   7.327   0.979   1.719 -0.7905 -0.7333 -0.3819
  125MOL0     H16841   7.222   0.707   2.070  2.8388 -0.0163 -0.4339
  125MOL0     H16842   7.243   0.878   2.058 -0.3645 -0.6838  0.4085
  125MOL0     H16843   7.049   0.835   1.859  3.2703  0.2456 -1.3352
  125MOL0     H16844   7.014   0.694   1.960 -1.8668  0.4371  2.5909
  125MOL0     H16845   7.000   0.985   2.043  2.2405 -0.7417 -1.7792
  125MOL0     H16846   6.992   0.849   2.157 -0.3692 -1.9263 -0.5678
  125MOL0     H16847   6.808   0.870   1.922  0.2594 -1.0572 -0.1599
  125MOL0     H16848   6.810   0.751   2.056 -1.7505  0.5587 -0.8867
  125MOL0     H16849   6.772   1.057   2.107  1.5553 -1.7897 -0.0803
  125MOL0     H16850   6.766   0.924   2.221  3.3926  1.3437 -0.1499
  125MOL0     H16851   6.581   0.952   1.977 -1.4282 -2.5555 -0.0166
  125MOL0     H16852   6.556   0.842   2.115  0.1156 -1.1050 -0.2855
  125MOL0     H16853   6.560   1.157   2.124  0.0410  1.0858  1.8336
  125MOL0     H16854   6.530   1.046   2.261  0.9135 -0.6514 -0.9451
  125MOL0     H16855   6.334   0.948   2.152  0.7139 -1.7208 -1.5143
  125MOL0     H16856   6.349   1.051   2.014  0.3216 -0.9798 -0.9476
  125MOL0     H16857   7.512   0.672   1.969 -0.5521 -2.4246 -1.9202
  125MOL0     H16858   7.729   0.785   1.923  0.1087 -1.0310 -0.7963
  125MOL0     H16859   7.946   1.131   1.697  3.6854 -2.7469  2.4095
  125MOL0     H16860   8.180   1.160   1.649  2.3926 -0.1899 -2.4442
  125MOL0     H16861  10.204   1.654   1.679  1.4699 -0.3261  0.0154
  125MOL0     H16862  10.435   1.694   1.743 -0.0168  0.9705 -2.1565
  125MOL0     H16863  10.745   1.999   1.856  1.4031  3.1081  2.4856
  125MOL0     H16864  10.977   2.045   1.859 -1.9543  2.3057  3.2064
  125MOL0     H16865  11.239   1.763   2.102 -1.4832  0.2240 -0.3955
  125MOL0     H16866  11.271   1.691   1.947  0.6609 -0.1254  0.8361
  125MOL0     H16867  11.471   1.786   2.033 -3.2296 -3.5630  0.6461
  125MOL0     H16868  11.412   1.955   2.032  0.3726 -0.3180 -1.5318
  125MOL0     H16869  11.521   1.952   1.809 -2.0356  1.4237 -0.7844
  125MOL0     H16870  11.360   1.902   1.778  1.1836  1.8295 -1.0019
  125MOL0     H16871  11.464   1.740   1.684  3.1388  1.5949 -0.7109
  125MOL0     H16872  11.445   1.656   1.841 -2.9951  0.7691 -1.8480
  125MOL0     H16873  11.865   1.652   1.770  0.4234  0.9343 -0.9079
  125MOL0     H16874  11.067   1.653   1.986  3.9311  1.9682 -3.4602
  125MOL0     H16875  10.807   1.617   2.027 -3.1164  1.7382  0.0628
  126MOL0     O16876   8.861   2.913   3.530  0.1008 -0.1871 -0.4398
  126MOL0     C16877   8.925   2.964   3.627  0.8136 -0.0350 -0.5970
  126MOL0     O16878   8.875   3.051   3.719 -0.3370 -0.7699 -0.0826
  126MOL0     C16879   8.744   3.067   3.731  0.7758 -1.1621 -0.5485
  126MOL0     C16880   8.640   2.970   3.723  0.2406 -0.5865 -0.0818
  126MOL0     C16881   8.513   3.026   3.739  0.0368 -1.5169  0.1865
  126MOL0     C16882   8.483   3.162   3.759  0.6145 -0.6432  0.5960
  126MOL0     O16883   8.339   3.191   3.774  0.0964  0.1714 -0.3665
  126MOL0     C16884   8.299   3.321   3.817  0.8187  0.7517 -0.5779
  126MOL0     C16885   8.153   3.319   3.787  0.8092 -0.8562  0.1498
  126MOL0     C16886   8.110   3.333   3.647 -0.2656  0.4280 -0.1218
  126MOL0     C16887   7.963   3.291   3.627  0.1889 -1.3766 -1.0628
  126MOL0     C16888   7.907   3.328   3.484  0.2802 -0.6762 -0.6436
  126MOL0     C16889   7.797   3.424   3.491  0.8595 -0.2314  0.0771
  126MOL0     C16890   7.668   3.359   3.532 -0.3454 -0.8903  0.8974
  126MOL0     C16891   7.573   3.465   3.578  0.0578  0.4049  0.9199
  126MOL0     N16892   7.507   3.540   3.460  0.1451  0.2686  0.7608
  126MOL0     C16893   7.427   3.492   3.358  0.2850 -0.3491  0.1508
  126MOL0     C16894   7.397   3.587   3.267 -0.2719 -0.1073 -0.1108
  126MOL0     C16895   7.326   3.567   3.129  0.1790  0.7501  0.5721
  126MOL0     C16896   7.196   3.632   3.107  0.0223  0.0643  0.2016
  126MOL0     C16897   7.144   3.594   2.963  0.4137 -0.7899  0.0463
  126MOL0     C16898   6.990   3.607   2.955  1.2444  0.6380 -0.6823
  126MOL0     O16899   6.944   3.742   2.975 -0.4339  0.1366  0.5814
  126MOL0     C16900   6.814   3.752   3.009 -0.2884  0.5157  0.8725
  126MOL0     C16901   6.711   3.709   2.926 -0.4160 -0.3794 -0.0371
  126MOL0     C16902   6.579   3.723   2.963 -0.0496  0.6589 -1.5077
  126MOL0     C16903   6.486   3.688   2.855  0.9939  0.3808 -0.8205
  126MOL0     C16904   6.540   3.775   3.095 -0.5037  0.5269  0.0778
  126MOL0     C16905   6.401   3.784   3.143  0.2153 -0.2926  0.6530
  126MOL0     O16906   6.299   3.720   3.081 -0.5306 -0.2759 -0.6890
  126MOL0     C16907   6.182   3.718   3.147  1.0631 -1.1361 -0.5297
  126MOL0     C16908   6.110   3.835   3.200 -0.3392  0.4411 -0.4888
  126MOL0     C16909   5.987   3.818   3.251  0.2263 -0.9633 -0.4664
  126MOL0     C16910   5.915   3.698   3.246  0.2077  0.0626 -0.6788
  126MOL0     O16911   5.787   3.681   3.298 -0.3104  0.6533 -0.7239
  126MOL0     C16912   5.715   3.802   3.340  0.4665  0.0430 -0.1594
  126MOL0     C16913   5.587   3.765   3.405  0.4600 -0.2434 -0.6306
  126MOL0     C16914   5.512   3.672   3.306  0.1838 -1.1465  0.6161
  126MOL0     C16915   5.365   3.668   3.334 -0.5023  0.2359 -0.5822
  126MOL0     C16916   5.287   3.592   3.222 -0.0949  0.4512 -0.4108
  126MOL0     C16917   5.306   3.446   3.243 -0.3472  0.2544 -0.1688
  126MOL0     C16918   5.237   3.364   3.139  0.5411 -0.6634 -0.0007
  126MOL0     C16919   5.090   3.337   3.180 -0.5098  0.2217  0.4891
  126MOL0    Cl16920   5.078   3.274   3.350  0.2707  0.1764 -0.0688
  126MOL0     C16921   5.976   3.584   3.183  0.9957 -0.1194  0.6554
  126MOL0     C16922   6.111   3.600   3.141  0.5506 -0.3214  0.3260
  126MOL0     O16923   6.391   3.840   3.250 -0.3653  1.0342 -0.4501
  126MOL0     C16924   6.647   3.806   3.177  0.0157 -0.8423  1.2199
  126MOL0     C16925   6.776   3.787   3.136  0.4327  0.6101 -0.1553
  126MOL0     N16926   7.472   3.699   3.304 -0.7744  0.3082 -0.5664
  126MOL0     N16927   7.536   3.665   3.416 -0.4474  0.5517 -0.1591
  126MOL0     C16928   8.585   3.248   3.774 -0.1453  0.7084 -1.0337
  126MOL0     C16929   8.717   3.200   3.767 -0.8975 -0.0059 -0.7968
  126MOL0     C16930   9.067   2.920   3.664  0.7704  1.1117  0.0354
  126MOL0     C16931   9.138   2.844   3.569  0.1368 -0.5259 -0.4932
  126MOL0     C16932   9.259   2.797   3.601  0.3604  0.5572 -0.0756
  126MOL0     C16933   9.331   2.821   3.720  0.2877  0.5762  0.4811
  126MOL0     O16934   9.454   2.765   3.746 -0.3015  0.6001 -0.4849
  126MOL0     C16935   9.543   2.803   3.850  0.3683 -0.1510  0.0514
  126MOL0     C16936   9.610   2.946   3.841  0.7108  0.6187  0.6241
  126MOL0     C16937   9.655   2.982   3.701 -0.9734  0.1237  0.1417
  126MOL0     C16938   9.783   2.896   3.655  0.9888 -0.4686 -0.6596
  126MOL0     C16939   9.849   2.963   3.543 -0.4418  0.9614  0.4552
  126MOL0     C16940   9.918   3.025   3.467 -0.1997 -0.1851  0.2500
  126MOL0     C16941   9.252   2.891   3.812 -0.8630  0.5787 -0.0055
  126MOL0     C16942   9.126   2.951   3.778 -0.4537 -0.9428 -0.0370
  126MOL0     H16943   8.654   2.864   3.705  2.7274 -0.2726 -0.2966
  126MOL0     H16944   8.424   2.964   3.737 -1.4770  0.5736 -1.7700
  126MOL0     H16945   8.324   3.335   3.923 -0.3616 -0.3977 -0.1094
  126MOL0     H16946   8.343   3.407   3.767 -1.1715  2.5017  0.5021
  126MOL0     H16947   8.119   3.222   3.824 -0.2999 -0.0817  1.2237
  126MOL0     H16948   8.100   3.397   3.842 -1.5930 -1.6940 -0.8548
  126MOL0     H16949   8.115   3.441   3.625 -3.8672  0.6258 -0.5631
  126MOL0     H16950   8.168   3.269   3.579 -1.4474 -2.2941  1.2983
  126MOL0     H16951   7.961   3.182   3.635  2.4997 -1.4653 -0.9587
  126MOL0     H16952   7.906   3.337   3.708  1.7162 -0.1284 -0.6431
  126MOL0     H16953   7.980   3.383   3.424  1.9783 -0.5090  1.4524
  126MOL0     H16954   7.875   3.236   3.435 -4.4608  0.8661 -0.9693
  126MOL0     H16955   7.822   3.510   3.554 -2.9481  2.7515 -2.0205
  126MOL0     H16956   7.778   3.472   3.394  2.5252 -1.5037 -0.9429
  126MOL0     H16957   7.628   3.298   3.451  0.6770  0.0323 -0.3416
  126MOL0     H16958   7.696   3.286   3.608  2.5011  0.0213  0.8453
  126MOL0     H16959   7.615   3.537   3.648 -3.5667  2.3478  1.3496
  126MOL0     H16960   7.489   3.413   3.626  1.8382 -3.2963  0.3622
  126MOL0     H16961   7.397   3.388   3.349 -2.0470  0.1730  0.9903
  126MOL0     H16962   7.400   3.616   3.065 -0.7114  0.8951 -0.3734
  126MOL0     H16963   7.316   3.460   3.107 -3.8033  1.4187 -1.8430
  126MOL0     H16964   7.200   3.740   3.122 -1.3256 -0.0483  1.5747
  126MOL0     H16965   7.127   3.597   3.184 -0.0471  2.2305  1.1902
  126MOL0     H16966   7.172   3.490   2.945  2.5683 -0.0070 -1.4549
  126MOL0     H16967   7.184   3.653   2.880 -1.7141 -0.0965 -0.5656
  126MOL0     H16968   6.951   3.526   3.016  4.3133 -3.1280 -3.2523
  126MOL0     H16969   6.954   3.583   2.854 -3.4020  0.9516  0.6529
  126MOL0     H16970   6.732   3.686   2.822 -0.3242 -1.6493  0.2468
  126MOL0     H16971   6.527   3.637   2.767  1.0086  3.0515 -2.4770
  126MOL0     H16972   6.401   3.626   2.886  0.9286  0.5680 -0.6184
  126MOL0     H16973   6.452   3.785   2.816  0.6665  0.5725 -0.0710
  126MOL0     H16974   6.153   3.934   3.208  0.3471  0.1565 -0.5852
  126MOL0     H16975   5.936   3.908   3.285 -0.2549 -0.1490 -3.0444
  126MOL0     H16976   5.773   3.852   3.419  0.1944  0.2423 -0.0841
  126MOL0     H16977   5.706   3.860   3.247  1.0803  0.5190  0.0678
  126MOL0     H16978   5.612   3.719   3.500  1.4044 -0.4695 -0.9736
  126MOL0     H16979   5.525   3.852   3.430  0.6567 -0.2988  0.0547
  126MOL0     H16980   5.551   3.570   3.308  2.3418 -0.3690  0.4897
  126MOL0     H16981   5.527   3.719   3.209  0.7597  0.4311  1.4303
  126MOL0     H16982   5.356   3.613   3.428  0.8441  0.2524 -0.4221
  126MOL0     H16983   5.314   3.765   3.342  0.0439  0.5623 -0.9712
  126MOL0     H16984   5.329   3.623   3.126  4.0445 -0.7989  0.7750
  126MOL0     H16985   5.182   3.621   3.223 -0.4501 -0.7296 -1.6354
  126MOL0     H16986   5.414   3.428   3.230  0.0624  3.1342 -1.8047
  126MOL0     H16987   5.273   3.414   3.342  1.6261  0.2752  0.5394
  126MOL0     H16988   5.294   3.270   3.144  0.4762 -0.7006  0.0385
  126MOL0     H16989   5.249   3.401   3.037  0.1129 -1.1899 -0.2459
  126MOL0     H16990   5.048   3.266   3.108 -0.2725  0.3065  0.2665
  126MOL0     H16991   5.018   3.418   3.164  0.3859  0.9744  0.2050
  126MOL0     H16992   5.919   3.496   3.157 -0.4104  1.5704 -2.6480
  126MOL0     H16993   6.143   3.506   3.096 -0.8516 -0.1214 -1.1939
  126MOL0     H16994   6.623   3.835   3.279  0.7468  0.5780  1.0054
  126MOL0     H16995   6.859   3.814   3.200  0.6145  1.4679 -0.7404
  126MOL0     H16996   8.572   3.355   3.786  2.6660  0.8379  2.1924
  126MOL0     H16997   8.803   3.267   3.776 -2.2047  1.5658  0.9058
  126MOL0     H16998   9.093   2.818   3.474 -2.7562 -0.1343  0.6809
  126MOL0     H16999   9.323   2.740   3.533  2.0333  0.0012  1.8515
  126MOL0     H17000   9.490   2.794   3.945 -3.3573 -3.2643 -2.0275
  126MOL0     H17001   9.622   2.728   3.851  2.0859  1.5599  1.8770
  126MOL0     H17002   9.691   2.955   3.913 -0.4542  2.3078  1.8019
  126MOL0     H17003   9.535   3.023   3.864 -1.0877 -0.4504 -1.2782
  126MOL0     H17004   9.677   3.089   3.696  0.2210 -0.1452 -0.9734
  126MOL0     H17005   9.567   2.961   3.639 -1.5328  2.1943  0.1579
  126MOL0     H17006   9.749   2.802   3.612  1.1616  0.6470 -3.4573
  126MOL0     H17007   9.854   2.887   3.738 -1.6134  0.9067  1.8911
  126MOL0     H17008   9.970   3.078   3.390 -0.1130  1.2624  1.2604
  126MOL0     H17009   9.312   2.911   3.901  1.8189 -1.0776 -1.2964
  126MOL0     H17010   9.077   3.010   3.855  4.2282  2.8788  0.5359
  127MOL0     O17011  10.444   7.874   7.788 -0.5393 -0.7626  0.0408
  127MOL0     C17012  10.467   7.754   7.804 -0.7842  0.3896  0.2164
  127MOL0     O17013  10.595   7.697   7.817  0.1960 -0.0338 -0.6031
  127MOL0     C17014  10.707   7.779   7.807 -0.5403 -0.3462 -0.1871
  127MOL0     C17015  10.781   7.789   7.923  0.1050 -0.6152 -0.9684
  127MOL0     C17016  10.904   7.850   7.912 -0.3395  0.2785  0.1387
  127MOL0     C17017  10.942   7.913   7.796  0.5739 -0.3725  0.5267
  127MOL0     O17018  11.052   7.990   7.788 -0.3915 -0.2708 -0.1690
  127MOL0     C17019  11.151   8.001   7.888 -0.7049 -0.4230 -0.8709
  127MOL0     C17020  11.249   8.114   7.854  0.3344 -0.3930 -0.5387
  127MOL0     C17021  11.363   8.112   7.959  0.3729 -0.6824 -0.9140
  127MOL0     C17022  11.493   8.130   7.906  0.2311 -0.1139  0.2458
  127MOL0     C17023  11.606   8.123   8.015 -0.1962  0.3160  0.3237
  127MOL0     C17024  11.750   8.140   7.954 -0.1554  0.2167 -0.1366
  127MOL0     C17025  11.857   8.108   8.051 -1.1847  0.2230  0.2290
  127MOL0     C17026  11.984   8.061   7.969 -0.3240 -0.4914  0.3255
  127MOL0     N17027  12.095   8.036   8.063 -0.0653  0.5918 -0.1224
  127MOL0     C17028  12.160   7.912   8.081  0.6019  0.3305  0.2030
  127MOL0     C17029  12.260   7.940   8.163  0.0224  0.1444 -0.0455
  127MOL0     C17030  12.368   7.850   8.199 -0.6637  0.1176  0.3791
  127MOL0     C17031  12.439   7.867   8.337 -0.1639 -1.0745  0.4738
  127MOL0     C17032  12.510   7.737   8.378 -0.2263 -0.1123 -0.6196
  127MOL0     C17033  12.614   7.756   8.486  0.8572 -0.0058  0.6524
  127MOL0     O17034  12.693   7.643   8.511 -0.2865 -0.1819 -0.2068
  127MOL0     C17035  12.760   7.647   8.631  0.8006 -0.5135 -0.0080
  127MOL0     C17036  12.843   7.537   8.646  0.5026 -0.6811 -0.0662
  127MOL0     C17037  12.919   7.528   8.767 -1.1985 -0.6594  0.5640
  127MOL0     C17038  13.006   7.406   8.777 -0.4739 -0.4176 -0.1411
  127MOL0     C17039  12.915   7.628   8.866 -0.4556 -0.3546  0.0065
  127MOL0     C17040  13.010   7.628   8.982  0.4765 -0.3946  0.1573
  127MOL0     O17041  13.021   7.741   9.049 -0.1023  0.0266 -0.6222
  127MOL0     C17042  13.092   7.740   9.163 -0.1683  0.3234 -1.1283
  127MOL0     C17043  13.027   7.728   9.289  0.3706 -0.8681  0.6851
  127MOL0     C17044  13.096   7.723   9.413  0.4891 -0.4555 -0.1702
  127MOL0     C17045  13.236   7.746   9.418 -0.1939 -0.2311 -0.3423
  127MOL0     O17046  13.304   7.764   9.534 -0.7162  0.4502 -0.6688
  127MOL0     C17047  13.240   7.837   9.635  0.1263 -0.2938 -0.9197
  127MOL0     C17048  13.327   7.915   9.729  0.0786  0.3911  1.2029
  127MOL0     C17049  13.437   7.994   9.664  0.1222  0.4915 -1.0293
  127MOL0     C17050  13.403   8.129   9.607 -0.0979  0.0160 -0.0857
  127MOL0     C17051  13.525   8.206   9.562  0.3737 -0.5902  0.3988
  127MOL0     C17052  13.583   8.124   9.445 -0.0453  1.0330 -1.1836
  127MOL0     C17053  13.678   8.208   9.358 -0.7729  0.4652 -0.0260
  127MOL0     C17054  13.788   8.118   9.298 -0.5475 -0.2397  0.2763
  127MOL0    Cl17055  13.906   8.205   9.202  0.0904  0.2906  0.2246
  127MOL0     C17056  13.307   7.761   9.296 -0.0622  0.0851 -1.2166
  127MOL0     C17057  13.239   7.755   9.174 -1.5652  1.0218  0.2188
  127MOL0     O17058  13.059   7.523   9.013 -0.6590 -0.7024  0.3073
  127MOL0     C17059  12.827   7.737   8.849  0.1989  0.1810  0.7059
  127MOL0     C17060  12.755   7.745   8.730 -0.6266 -0.5364 -0.2343
  127MOL0     N17061  12.258   8.072   8.184 -0.2367 -0.6416 -0.1380
  127MOL0     N17062  12.165   8.133   8.125  0.5777  0.7067  0.3639
  127MOL0     C17063  10.867   7.897   7.676 -0.1490 -0.3898  0.2118
  127MOL0     C17064  10.748   7.829   7.686 -1.1537 -0.3372 -0.8668
  127MOL0     C17065  10.350   7.668   7.808  0.6053  0.4784  1.2115
  127MOL0     C17066  10.365   7.520   7.806  0.9279  0.1642  0.2248
  127MOL0     C17067  10.252   7.439   7.782  0.5465  0.3566 -0.2343
  127MOL0     C17068  10.121   7.494   7.763  0.0811  0.9414  0.7162
  127MOL0     O17069  10.005   7.416   7.761 -0.4605 -0.1677 -0.1471
  127MOL0     C17070  10.009   7.292   7.685  0.1385  0.4775  0.3407
  127MOL0     C17071   9.862   7.259   7.647 -0.4933 -0.0036 -0.2875
  127MOL0     C17072   9.846   7.107   7.625  0.9477 -0.1785 -1.1231
  127MOL0     C17073   9.934   7.048   7.519  0.0849  0.0271  0.5625
  127MOL0     C17074   9.896   6.912   7.466  0.2201 -0.4116  0.5760
  127MOL0     C17075   9.863   6.802   7.434 -0.2035  0.1559  0.5835
  127MOL0     C17076  10.116   7.627   7.769 -0.2453 -0.8850 -1.0620
  127MOL0     C17077  10.221   7.716   7.793 -0.4205 -0.4355  1.5466
  127MOL0     H17078  10.748   7.762   8.023  1.3312 -1.4465 -0.7602
  127MOL0     H17079  10.966   7.863   8.001 -0.8853  1.3545  0.3771
  127MOL0     H17080  11.116   8.007   7.991  0.0676 -2.7344 -0.4186
  127MOL0     H17081  11.209   7.908   7.883  3.4500  1.9492 -1.3242
  127MOL0     H17082  11.278   8.103   7.749 -0.0203 -0.2132 -0.6609
  127MOL0     H17083  11.199   8.211   7.863 -2.0991 -1.5778 -0.3685
  127MOL0     H17084  11.345   8.193   8.030  0.5073 -2.2216  0.9767
  127MOL0     H17085  11.352   8.023   8.023 -0.3122  0.2106  0.2602
  127MOL0     H17086  11.504   8.052   7.829  0.7750 -1.0072  1.1940
  127MOL0     H17087  11.498   8.229   7.861 -2.5278  0.3376  0.7720
  127MOL0     H17088  11.598   8.195   8.098 -2.0715  1.3231 -0.6521
  127MOL0     H17089  11.593   8.026   8.063  4.0575 -0.0334  1.1661
  127MOL0     H17090  11.769   8.071   7.871  0.0222  2.2654 -1.8753
  127MOL0     H17091  11.774   8.244   7.928  4.5232 -1.2864 -3.1469
  127MOL0     H17092  11.886   8.185   8.123  3.8875 -1.8552  0.8756
  127MOL0     H17093  11.822   8.021   8.108  0.2258 -0.7043 -0.2682
  127MOL0     H17094  12.006   8.147   7.905  2.0963 -0.6164  0.9033
  127MOL0     H17095  11.952   7.975   7.909 -2.0241  0.9097 -0.8974
  127MOL0     H17096  12.125   7.823   8.030 -0.4332  1.9894 -2.1464
  127MOL0     H17097  12.353   7.742   8.190  1.1687 -0.0914 -0.4440
  127MOL0     H17098  12.444   7.872   8.123 -1.8691  1.5435 -0.4859
  127MOL0     H17099  12.370   7.903   8.413  1.7463  1.0345  1.3243
  127MOL0     H17100  12.517   7.942   8.326  1.7708 -3.0901 -0.4339
  127MOL0     H17101  12.559   7.688   8.293  0.3805  1.6875 -1.3597
  127MOL0     H17102  12.429   7.677   8.421 -0.4011  1.2907  1.1485
  127MOL0     H17103  12.556   7.780   8.575  0.7928 -0.4338  0.7253
  127MOL0     H17104  12.689   7.833   8.463 -1.1483  2.2347  1.2457
  127MOL0     H17105  12.842   7.465   8.565 -1.5390 -2.5762  1.5422
  127MOL0     H17106  13.111   7.435   8.773 -1.0138  2.0763  1.5072
  127MOL0     H17107  12.972   7.351   8.864 -1.0159  0.2594  0.0904
  127MOL0     H17108  12.988   7.339   8.692 -2.2091  0.2185 -0.3157
  127MOL0     H17109  12.920   7.717   9.286  0.3475 -0.4656 -0.7411
  127MOL0     H17110  13.041   7.710   9.506  0.4546 -2.6518 -0.4459
  127MOL0     H17111  13.168   7.905   9.588 -0.3544  1.0035  1.5459
  127MOL0     H17112  13.186   7.766   9.698  2.7803 -1.9377 -0.3333
  127MOL0     H17113  13.259   7.970   9.795 -0.1540  0.0133  1.2769
  127MOL0     H17114  13.373   7.843   9.797  1.3996 -1.3768 -1.3953
  127MOL0     H17115  13.476   7.928   9.586 -1.0017  0.4184 -1.5490
  127MOL0     H17116  13.519   8.004   9.736 -1.1329 -0.6706  0.6442
  127MOL0     H17117  13.328   8.125   9.528  1.0698  1.0426 -1.2879
  127MOL0     H17118  13.360   8.194   9.684  2.1376  1.7494 -0.2026
  127MOL0     H17119  13.591   8.228   9.647  1.1005 -0.7562 -0.1145
  127MOL0     H17120  13.492   8.304   9.526 -0.1133 -0.3741  1.4110
  127MOL0     H17121  13.648   8.049   9.491 -1.9579  1.5925  2.9266
  127MOL0     H17122  13.512   8.068   9.383  2.2109 -0.9147 -2.1550
  127MOL0     H17123  13.723   8.286   9.420  0.2834  0.7156 -1.0644
  127MOL0     H17124  13.626   8.250   9.271 -1.8907 -3.8309 -1.7094
  127MOL0     H17125  13.746   8.055   9.219  0.6760  0.0430 -0.6112
  127MOL0     H17126  13.836   8.052   9.371 -3.8201 -0.9364  2.0214
  127MOL0     H17127  13.414   7.779   9.292 -0.5927  5.2739  0.6024
  127MOL0     H17128  13.297   7.775   9.085  0.6748 -0.7402  1.1733
  127MOL0     H17129  12.817   7.814   8.925  0.9896 -0.7763  1.8132
  127MOL0     H17130  12.695   7.833   8.710 -1.2483 -0.9423 -0.1827
  127MOL0     H17131  10.892   7.931   7.576  0.1546 -0.8721  0.1212
  127MOL0     H17132  10.691   7.817   7.595 -1.9350  1.9151 -0.7360
  127MOL0     H17133  10.462   7.474   7.821  0.6900 -1.2002 -1.9831
  127MOL0     H17134  10.273   7.332   7.783  0.4880  0.3451  0.7494
  127MOL0     H17135  10.076   7.292   7.599 -2.1822  0.2708 -1.5965
  127MOL0     H17136  10.054   7.207   7.737  1.7729  1.1032 -0.0034
  127MOL0     H17137   9.831   7.322   7.563  4.2255  2.0907 -0.7568
  127MOL0     H17138   9.800   7.287   7.733  3.8263  2.0838  2.5374
  127MOL0     H17139   9.739   7.100   7.601  0.6520  0.3374 -0.0140
  127MOL0     H17140   9.861   7.052   7.719  1.6575  2.0540  0.1433
  127MOL0     H17141  10.036   7.044   7.557  0.6085  0.5207 -0.7211
  127MOL0     H17142   9.936   7.108   7.427  0.7681 -1.0976 -0.1730
  127MOL0     H17143   9.829   6.705   7.404 -1.3541  0.8593 -0.4613
  127MOL0     H17144  10.017   7.671   7.767 -0.2519 -0.8297 -0.2127
  127MOL0     H17145  10.196   7.820   7.808 -0.7615 -0.1912 -0.4398
  128MOL0     O17146   3.458   8.097   4.091 -0.1932  0.0692 -0.0751
  128MOL0     C17147   3.470   8.123   3.972 -0.0634 -0.0873  0.6748
  128MOL0     O17148   3.370   8.137   3.883 -0.1329  0.1873 -0.1747
  128MOL0     C17149   3.242   8.152   3.923 -0.1265 -0.4661 -0.0434
  128MOL0     C17150   3.138   8.116   3.837 -0.3564 -0.0676  0.5467
  128MOL0     C17151   3.006   8.147   3.864  0.1795 -0.5065  0.2714
  128MOL0     C17152   2.977   8.199   3.988 -0.6086 -0.1701 -0.8279
  128MOL0     O17153   2.852   8.211   4.032  0.0497  0.3718 -0.3367
  128MOL0     C17154   2.772   8.307   3.961 -1.4653  0.1465 -0.6337
  128MOL0     C17155   2.630   8.286   4.014  0.0785  0.3375 -0.6381
  128MOL0     C17156   2.545   8.406   3.981  0.2534  0.0502 -0.6030
  128MOL0     C17157   2.399   8.359   3.979  0.1531 -0.4626  0.2908
  128MOL0     C17158   2.313   8.487   3.966 -0.7541 -0.5605 -0.3565
  128MOL0     C17159   2.159   8.464   3.996  0.0888 -0.1971  0.3974
  128MOL0     C17160   2.102   8.337   3.933 -0.3953 -1.0950 -0.5638
  128MOL0     C17161   2.098   8.356   3.785 -0.0251 -0.0342  0.8416
  128MOL0     N17162   2.028   8.239   3.722 -1.2887 -0.1593  0.0032
  128MOL0     C17163   1.900   8.206   3.736 -0.7381  0.3480 -0.7689
  128MOL0     C17164   1.879   8.101   3.651  0.1573  0.6190  0.0908
  128MOL0     C17165   1.751   8.021   3.638  0.8719  0.1717 -0.3544
  128MOL0     C17166   1.648   8.042   3.521 -0.0145 -0.4194 -0.0975
  128MOL0     C17167   1.591   8.190   3.514 -0.0369 -0.4571  0.7395
  128MOL0     C17168   1.498   8.219   3.401 -1.1065 -0.5378  0.7347
  128MOL0     O17169   1.393   8.315   3.445  0.3016  0.1219  0.5212
  128MOL0     C17170   1.266   8.278   3.428 -0.9001  0.2679 -0.3503
  128MOL0     C17171   1.198   8.248   3.310 -0.4457  0.4673 -0.5463
  128MOL0     C17172   1.060   8.210   3.309  0.2524  0.3374  1.1741
  128MOL0     C17173   0.996   8.159   3.190  0.2323  0.3059  0.4194
  128MOL0     C17174   0.979   8.243   3.428 -0.2523 -0.0210 -0.3630
  128MOL0     C17175   0.833   8.215   3.439  0.2369 -0.5966 -1.2259
  128MOL0     O17176   0.757   8.249   3.330 -0.1315  0.7328  0.8629
  128MOL0     C17177   0.624   8.207   3.328  0.5472 -0.3421 -0.2750
  128MOL0     C17178   0.576   8.155   3.210  0.0788  0.8620  0.2420
  128MOL0     C17179   0.439   8.121   3.196 -0.1230  0.2202  0.6026
  128MOL0     C17180   0.346   8.164   3.294 -0.2697  0.2256 -0.2078
  128MOL0     O17181   0.211   8.165   3.265 -0.2838 -0.1926 -0.0333
  128MOL0     C17182   0.114   8.129   3.359 -0.7917  0.6490  0.5485
  128MOL0     C17183  -0.007   8.071   3.285 -0.3691 -0.2917  0.5445
  128MOL0     C17184  -0.093   8.179   3.211 -0.0325 -0.2847 -0.2736
  128MOL0     C17185  -0.241   8.139   3.221 -0.5974  0.1988 -0.2342
  128MOL0     C17186  -0.324   8.216   3.115  0.4203  0.7469  1.4219
  128MOL0     C17187  -0.469   8.166   3.120  0.2018  0.0135 -0.0862
  128MOL0     C17188  -0.573   8.274   3.063 -0.5605 -0.0250 -0.4531
  128MOL0     C17189  -0.548   8.313   2.917 -0.0198  0.3962 -0.0183
  128MOL0    Cl17190  -0.668   8.433   2.850  0.1733 -0.0292 -0.1159
  128MOL0     C17191   0.388   8.203   3.419 -0.6425 -0.1130 -0.0998
  128MOL0     C17192   0.529   8.237   3.435  0.2369  0.0538 -0.1606
  128MOL0     O17193   0.797   8.166   3.546  0.5109  0.3083 -0.0585
  128MOL0     C17194   1.045   8.287   3.543 -0.1420  0.3208 -0.3422
  128MOL0     C17195   1.189   8.301   3.541  0.2171  0.7094 -0.5782
  128MOL0     N17196   1.993   8.078   3.583  0.0277  0.0634 -0.3949
  128MOL0     N17197   2.083   8.159   3.624  0.5366 -0.1811  0.6987
  128MOL0     C17198   3.074   8.236   4.083  0.5023  1.0513  0.1894
  128MOL0     C17199   3.208   8.214   4.049 -0.2514  0.7182  0.0924
  128MOL0     C17200   3.609   8.125   3.916  0.1220 -1.4863 -0.4217
  128MOL0     C17201   3.726   8.144   4.002  0.7342  0.7198 -0.1770
  128MOL0     C17202   3.851   8.162   3.951 -0.5203  0.4853  0.2848
  128MOL0     C17203   3.873   8.141   3.813 -0.0550  0.6241 -0.0287
  128MOL0     O17204   3.994   8.147   3.745  0.4774 -0.3594  0.0598
  128MOL0     C17205   4.114   8.182   3.823  0.6070  0.1491  0.3383
  128MOL0     C17206   4.217   8.198   3.724 -0.9329  0.0315  0.0706
  128MOL0     C17207   4.352   8.244   3.775 -1.1389 -0.1982 -0.0927
  128MOL0     C17208   4.459   8.238   3.673 -0.3457  0.4788  0.4211
  128MOL0     C17209   4.590   8.226   3.729  0.4652  0.7076  0.1278
  128MOL0     C17210   4.697   8.223   3.777  0.5362  0.2702 -0.4565
  128MOL0     C17211   3.769   8.116   3.721 -0.1676  0.7500  0.3026
  128MOL0     C17212   3.631   8.125   3.778 -0.0200  1.0569 -0.2549
  128MOL0     H17213   3.161   8.086   3.735  1.3272 -1.2848  1.2380
  128MOL0     H17214   2.922   8.106   3.808  0.9219 -2.1487  0.3117
  128MOL0     H17215   2.797   8.413   3.967  0.1699 -0.2734  1.5560
  128MOL0     H17216   2.775   8.298   3.852  1.4957 -0.9839 -0.5708
  128MOL0     H17217   2.585   8.197   3.967 -1.2088  0.7477 -0.2212
  128MOL0     H17218   2.635   8.271   4.122  0.2813  2.9443 -0.2266
  128MOL0     H17219   2.570   8.483   4.055  0.9565  0.7987 -1.5888
  128MOL0     H17220   2.574   8.456   3.888 -1.8002  0.9925 -0.7912
  128MOL0     H17221   2.387   8.286   3.897 -0.1229 -3.1537  2.5845
  128MOL0     H17222   2.377   8.297   4.066  2.2965 -0.1162  1.1340
  128MOL0     H17223   2.342   8.563   4.040 -1.5381  1.5259 -2.0668
  128MOL0     H17224   2.329   8.517   3.862  0.0660 -2.6507 -0.8741
  128MOL0     H17225   2.157   8.457   4.105 -0.8476  0.5260  0.4433
  128MOL0     H17226   2.096   8.548   3.965 -2.4614 -1.9151  0.6541
  128MOL0     H17227   2.160   8.249   3.961 -1.2236 -0.3637  4.1585
  128MOL0     H17228   1.998   8.322   3.964 -1.2213  0.3638 -2.4031
  128MOL0     H17229   2.197   8.379   3.744 -0.2673  4.3723  2.1731
  128MOL0     H17230   2.039   8.442   3.751 -1.5233 -0.0321  3.1957
  128MOL0     H17231   1.834   8.250   3.810  0.9912  0.3629  0.8395
  128MOL0     H17232   1.786   7.919   3.618 -0.3026 -0.2561 -0.2977
  128MOL0     H17233   1.705   8.010   3.737  0.8031 -0.8788 -0.4832
  128MOL0     H17234   1.566   7.971   3.532 -1.3425  1.1523  0.4029
  128MOL0     H17235   1.701   8.021   3.427 -0.7443 -1.8827 -0.2065
  128MOL0     H17236   1.681   8.252   3.508  1.0850 -2.0714 -0.0230
  128MOL0     H17237   1.525   8.208   3.599 -4.4908  0.7416 -2.5973
  128MOL0     H17238   1.448   8.128   3.367 -1.2369  0.3722 -1.6968
  128MOL0     H17239   1.554   8.261   3.317 -2.5091  2.3861  1.1330
  128MOL0     H17240   1.261   8.242   3.222  0.9845  3.0194  0.1941
  128MOL0     H17241   0.914   8.093   3.223 -1.9624  2.6701 -0.0119
  128MOL0     H17242   0.954   8.244   3.136 -0.2041 -0.5950 -0.7158
  128MOL0     H17243   1.067   8.096   3.136 -0.6654  1.3196 -2.0784
  128MOL0     H17244   0.635   8.121   3.126 -0.6742  0.5708 -0.1798
  128MOL0     H17245   0.407   8.079   3.102 -0.8510  0.4299  0.7526
  128MOL0     H17246   0.153   8.051   3.425 -2.8555 -1.8728 -0.9953
  128MOL0     H17247   0.075   8.218   3.409 -3.4148  0.7061 -1.3751
  128MOL0     H17248   0.022   7.995   3.212  3.1735  0.1690  1.2958
  128MOL0     H17249  -0.069   8.023   3.362 -2.3805  0.6666 -0.3808
  128MOL0     H17250  -0.060   8.182   3.107 -3.0444 -4.2368 -1.6157
  128MOL0     H17251  -0.084   8.269   3.273 -1.4600 -1.6977  2.1650
  128MOL0     H17252  -0.259   8.031   3.218  0.4098  0.0076  0.1857
  128MOL0     H17253  -0.279   8.175   3.316 -0.0973 -2.1708  0.9487
  128MOL0     H17254  -0.292   8.177   3.017 -1.1081  0.2296  1.1033
  128MOL0     H17255  -0.317   8.324   3.122 -1.2789  0.8426  2.1346
  128MOL0     H17256  -0.489   8.072   3.069 -3.0138  0.9066 -0.6605
  128MOL0     H17257  -0.497   8.140   3.222  1.2322 -0.3582  0.1134
  128MOL0     H17258  -0.579   8.359   3.133 -1.9618  0.8968 -1.6199
  128MOL0     H17259  -0.670   8.224   3.065 -0.2921 -0.5492 -0.5063
  128MOL0     H17260  -0.544   8.224   2.854 -1.2717  0.6829 -0.5409
  128MOL0     H17261  -0.453   8.366   2.903 -0.8803  1.7987 -0.7154
  128MOL0     H17262   0.324   8.233   3.501  0.2824 -1.9925  1.4029
  128MOL0     H17263   0.563   8.293   3.521 -0.1590 -0.9429  0.6632
  128MOL0     H17264   0.986   8.313   3.630 -1.2131  1.1916 -1.3010
  128MOL0     H17265   1.234   8.337   3.633  2.0874 -3.0926  0.1890
  128MOL0     H17266   3.058   8.280   4.181  2.0402 -0.3945  1.1500
  128MOL0     H17267   3.290   8.249   4.112  0.4664 -0.7162 -0.0029
  128MOL0     H17268   3.720   8.144   4.111  1.1186  0.4112 -0.1550
  128MOL0     H17269   3.935   8.194   4.012  2.2376 -2.9330 -1.3359
  128MOL0     H17270   4.106   8.281   3.868  1.4111  0.7864 -0.8456
  128MOL0     H17271   4.143   8.114   3.903 -0.1680 -3.1975 -2.0308
  128MOL0     H17272   4.174   8.270   3.653  2.0203  0.2039 -1.7454
  128MOL0     H17273   4.231   8.106   3.667  1.1618 -0.0214  0.5612
  128MOL0     H17274   4.380   8.178   3.858  2.3026 -1.4340 -2.0484
  128MOL0     H17275   4.345   8.347   3.812  2.1231  0.1298 -0.0212
  128MOL0     H17276   4.454   8.324   3.605  0.8296  0.5661  0.4256
  128MOL0     H17277   4.448   8.147   3.613  2.0503  0.0710  0.4993
  128MOL0     H17278   4.794   8.212   3.820  1.6990  0.8413 -2.7402
  128MOL0     H17279   3.795   8.108   3.616  1.2704 -0.9081  0.7186
  128MOL0     H17280   3.550   8.096   3.712 -0.4844 -0.9398  1.0921
  129MOL0     O17281   4.940   5.012   1.472 -0.4375  0.0718 -0.2133
  129MOL0     C17282   5.002   4.965   1.568 -0.6821 -0.7161 -0.2207
  129MOL0     O17283   4.967   4.861   1.653  0.0917 -0.0278 -0.2134
  129MOL0     C17284   4.842   4.799   1.664  0.1991  1.1847 -0.4080
  129MOL0     C17285   4.832   4.685   1.753  0.9685 -0.3355  0.1350
  129MOL0     C17286   4.731   4.591   1.743  0.7927  0.3104  0.9841
  129MOL0     C17287   4.629   4.610   1.652  0.6339  0.3923 -0.0296
  129MOL0     O17288   4.526   4.520   1.621 -0.7193  0.4214 -0.6163
  129MOL0     C17289   4.538   4.392   1.678  0.0433 -0.9413 -0.7986
  129MOL0     C17290   4.480   4.286   1.583 -0.4049 -0.7895 -0.5298
  129MOL0     C17291   4.451   4.158   1.666  0.0483  0.0528 -0.3395
  129MOL0     C17292   4.396   4.049   1.570  0.4057  0.1289  0.3545
  129MOL0     C17293   4.242   4.081   1.545 -0.1970 -0.2090 -0.3573
  129MOL0     C17294   4.183   3.965   1.463 -0.5166 -0.5277  0.2040
  129MOL0     C17295   4.031   3.984   1.446 -0.0448 -0.1954  0.4009
  129MOL0     C17296   3.991   4.083   1.330  0.3678 -0.4055 -0.3104
  129MOL0     N17297   3.963   4.017   1.201  0.0551 -0.2451  0.5842
  129MOL0     C17298   3.842   4.011   1.131  0.2656  0.8175  0.2108
  129MOL0     C17299   3.875   4.008   1.007  0.5404  0.1644 -0.0542
  129MOL0     C17300   3.782   4.006   0.893  0.3082 -0.6644  0.2118
  129MOL0     C17301   3.719   4.143   0.877  1.2506  0.2806 -0.0445
  129MOL0     C17302   3.611   4.151   0.761  0.1313 -1.0425 -0.3322
  129MOL0     C17303   3.557   4.297   0.729 -0.4897  0.6466  0.2328
  129MOL0     O17304   3.435   4.287   0.655  0.8764  0.3065 -0.1585
  129MOL0     C17305   3.442   4.239   0.525 -1.1239  0.5660  0.0344
  129MOL0     C17306   3.551   4.227   0.443  0.1721 -1.5712  0.2860
  129MOL0     C17307   3.548   4.195   0.307  0.0865  0.0112  0.2625
  129MOL0     C17308   3.671   4.187   0.225 -1.4927 -0.1551  1.3355
  129MOL0     C17309   3.418   4.163   0.248 -1.0561  0.2489  1.1852
  129MOL0     C17310   3.395   4.117   0.103 -0.5605  0.5448 -0.0458
  129MOL0     O17311   3.484   4.144   0.004 -0.3582 -0.3131  0.7561
  129MOL0     C17312   3.440   4.152  -0.129 -0.2311 -0.2493 -0.0137
  129MOL0     C17313   3.504   4.088  -0.236 -0.3486 -0.2448 -1.0456
  129MOL0     C17314   3.457   4.101  -0.365 -0.3086 -0.7710 -0.1410
  129MOL0     C17315   3.354   4.183  -0.396  0.6808  0.2282  0.0472
  129MOL0     O17316   3.301   4.205  -0.517  0.1592  0.3143  0.2381
  129MOL0     C17317   3.362   4.173  -0.633  0.3131  0.2232  0.3433
  129MOL0     C17318   3.256   4.199  -0.746 -0.3017 -0.7991  0.2537
  129MOL0     C17319   3.119   4.141  -0.713  0.4445  0.3028 -0.2959
  129MOL0     C17320   3.042   4.097  -0.841 -0.3365  0.8659 -0.8387
  129MOL0     C17321   3.027   4.207  -0.947  1.1598  0.4076 -0.0626
  129MOL0     C17322   2.927   4.138  -1.048  0.1216 -0.2656  0.6792
  129MOL0     C17323   2.898   4.239  -1.164  0.1549  0.4474  0.5631
  129MOL0     C17324   2.796   4.195  -1.257  0.6575 -1.2181  0.2002
  129MOL0    Cl17325   2.740   4.323  -1.362 -0.0262 -0.3878  0.3239
  129MOL0     C17326   3.277   4.244  -0.286 -0.0829 -0.1622  1.3262
  129MOL0     C17327   3.323   4.233  -0.154 -0.6068  0.4889  0.7151
  129MOL0     O17328   3.300   4.041   0.092 -0.1048 -0.0809 -0.5214
  129MOL0     C17329   3.313   4.166   0.332  1.0000  0.1540  0.0097
  129MOL0     C17330   3.323   4.215   0.462  0.4829  1.0849 -0.0720
  129MOL0     N17331   4.013   4.002   0.997  0.6417 -0.5862  0.9758
  129MOL0     N17332   4.065   3.997   1.115  0.5270  0.1521  0.1054
  129MOL0     C17333   4.626   4.728   1.571  0.4985  0.6233 -0.1867
  129MOL0     C17334   4.730   4.820   1.580 -0.2615 -0.2078 -0.1356
  129MOL0     C17335   5.129   5.034   1.593 -1.3493  0.2593 -0.9423
  129MOL0     C17336   5.195   5.006   1.720 -0.0455 -0.0765  0.7841
  129MOL0     C17337   5.323   5.056   1.738 -0.0854 -0.3805  0.7219
  129MOL0     C17338   5.382   5.151   1.653  0.3794  0.9855 -0.2991
  129MOL0     O17339   5.501   5.200   1.706  0.3293  0.4724 -0.1768
  129MOL0     C17340   5.577   5.294   1.636 -0.2970 -0.2693  0.6545
  129MOL0     C17341   5.662   5.357   1.741  0.8473 -0.3793  0.0273
  129MOL0     C17342   5.702   5.504   1.725  0.4618  0.4838  1.6239
  129MOL0     C17343   5.778   5.560   1.839 -0.0936 -0.6124 -0.3331
  129MOL0     C17344   5.744   5.707   1.854  0.0603 -0.0761 -0.1040
  129MOL0     C17345   5.717   5.830   1.869 -0.8430 -0.0928  0.5338
  129MOL0     C17346   5.313   5.184   1.533 -0.7421 -0.5252  0.1921
  129MOL0     C17347   5.188   5.125   1.505  0.5654 -0.2994 -0.6791
  129MOL0     H17348   4.906   4.668   1.831 -0.2282 -1.6442  1.0262
  129MOL0     H17349   4.733   4.513   1.819 -0.2924  2.0093  2.8805
  129MOL0     H17350   4.640   4.367   1.708 -0.7724 -1.0460  2.2796
  129MOL0     H17351   4.481   4.399   1.771 -4.1415  3.0648 -3.2449
  129MOL0     H17352   4.391   4.322   1.529 -1.9828 -1.5903  1.3990
  129MOL0     H17353   4.560   4.279   1.508  1.9583  1.2089  1.6356
  129MOL0     H17354   4.541   4.112   1.710 -0.4795  0.0302  0.7678
  129MOL0     H17355   4.383   4.180   1.749 -1.3607 -1.2690 -1.0949
  129MOL0     H17356   4.448   4.051   1.474 -1.9601 -0.0500 -1.0346
  129MOL0     H17357   4.412   3.949   1.612 -1.6569 -0.7641 -0.7961
  129MOL0     H17358   4.186   4.089   1.639 -1.0786  2.0438 -0.9905
  129MOL0     H17359   4.221   4.173   1.489  1.1489 -0.9332 -2.1236
  129MOL0     H17360   4.225   3.966   1.362 -0.4058 -1.8667  0.2116
  129MOL0     H17361   4.198   3.869   1.515 -1.8922 -0.0712  1.5207
  129MOL0     H17362   3.991   3.885   1.421 -0.6477  0.4382 -1.2979
  129MOL0     H17363   3.988   4.022   1.539  0.0428 -2.8976  1.6610
  129MOL0     H17364   4.075   4.149   1.307 -0.4973  0.4104 -1.2204
  129MOL0     H17365   3.907   4.147   1.359 -1.1758 -2.2495 -0.4747
  129MOL0     H17366   3.739   4.036   1.155 -0.7720  1.2039 -3.9648
  129MOL0     H17367   3.833   3.971   0.803 -1.0817 -4.0549  0.5947
  129MOL0     H17368   3.697   3.941   0.914 -1.5677  1.9536  1.2426
  129MOL0     H17369   3.788   4.221   0.845 -0.0222  1.6859  0.5348
  129MOL0     H17370   3.661   4.164   0.967 -1.8847 -0.1828 -1.8190
  129MOL0     H17371   3.526   4.095   0.803  0.8419  0.3632  3.4373
  129MOL0     H17372   3.666   4.105   0.678  0.6761 -1.1901  0.1008
  129MOL0     H17373   3.635   4.351   0.674  0.0059 -1.3895 -1.2071
  129MOL0     H17374   3.529   4.358   0.815  0.2988  0.4846  0.6096
  129MOL0     H17375   3.648   4.250   0.486 -1.4046 -0.0290  3.2939
  129MOL0     H17376   3.668   4.118   0.139 -0.2614  0.0545  1.1091
  129MOL0     H17377   3.686   4.288   0.185  0.3381 -0.9741 -0.2064
  129MOL0     H17378   3.752   4.155   0.290 -1.6921  0.4442  1.8938
  129MOL0     H17379   3.606   4.052  -0.234  0.3601  1.4127 -3.0879
  129MOL0     H17380   3.518   4.051  -0.440  1.1076  0.2484  0.2999
  129MOL0     H17381   3.450   4.236  -0.650 -0.0094  0.9590  1.2565
  129MOL0     H17382   3.381   4.067  -0.645 -1.5506 -0.3572  1.8575
  129MOL0     H17383   3.250   4.307  -0.764  2.3670 -0.4286  1.1790
  129MOL0     H17384   3.281   4.149  -0.839 -4.8427 -1.5019 -0.8445
  129MOL0     H17385   3.065   4.220  -0.660  1.3317  0.3216  0.6227
  129MOL0     H17386   3.135   4.060  -0.641  2.5671  1.5265  0.7035
  129MOL0     H17387   3.104   4.017  -0.883 -0.1379 -0.7271  2.2116
  129MOL0     H17388   2.948   4.050  -0.812  1.4043 -2.7826 -0.5589
  129MOL0     H17389   3.117   4.221  -1.007  0.8460 -0.1068 -0.6665
  129MOL0     H17390   2.982   4.302  -0.917 -1.7322 -0.8157 -0.1157
  129MOL0     H17391   2.968   4.049  -1.098  0.1773  0.9983 -1.6474
  129MOL0     H17392   2.826   4.119  -1.010  0.1421 -1.9500 -0.0007
  129MOL0     H17393   2.985   4.275  -1.219  1.1229 -0.1235  1.6655
  129MOL0     H17394   2.854   4.326  -1.113  0.2368 -0.8482  3.0298
  129MOL0     H17395   2.708   4.174  -1.196  2.4907 -3.0946  2.3614
  129MOL0     H17396   2.820   4.102  -1.309 -0.0440 -1.0535 -0.4474
  129MOL0     H17397   3.190   4.307  -0.301 -1.2689 -1.5238  2.1508
  129MOL0     H17398   3.279   4.295  -0.077  0.6813  1.5986  0.6042
  129MOL0     H17399   3.217   4.126   0.302  0.5950  0.8780  0.3141
  129MOL0     H17400   3.230   4.217   0.517 -0.7197  1.2584 -1.9986
  129MOL0     H17401   4.537   4.752   1.513 -1.4565 -1.6615  1.6612
  129MOL0     H17402   4.725   4.908   1.518  1.2918  2.5755  3.3357
  129MOL0     H17403   5.150   4.931   1.784 -1.4860  0.3652  0.3296
  129MOL0     H17404   5.381   5.034   1.827  0.4401  2.2051  1.0896
  129MOL0     H17405   5.648   5.245   1.569 -0.4890 -1.4712  1.2834
  129MOL0     H17406   5.522   5.375   1.588  1.2751  0.4096 -0.0462
  129MOL0     H17407   5.749   5.291   1.747  1.1969 -0.0428 -1.1441
  129MOL0     H17408   5.600   5.351   1.832  1.5684  0.0003  0.5479
  129MOL0     H17409   5.607   5.558   1.720 -0.1041 -0.3068  3.1214
  129MOL0     H17410   5.751   5.519   1.628 -0.6956 -2.9623  0.3744
  129MOL0     H17411   5.886   5.539   1.843  0.6031  2.3966  4.0086
  129MOL0     H17412   5.745   5.520   1.935  1.7962  1.6489  1.3876
  129MOL0     H17413   5.700   5.935   1.874 -2.6656 -0.3698  1.0778
  129MOL0     H17414   5.344   5.263   1.465 -1.4408 -2.2403 -2.2674
  129MOL0     H17415   5.146   5.151   1.408 -0.1222  0.1285 -0.2745
  130MOL0     O17416   3.453  10.025   9.131  0.1658  0.5076  0.4099
  130MOL0     C17417   3.509  10.009   9.022  0.4217 -0.0575 -0.7422
  130MOL0     O17418   3.465  10.077   8.907 -0.6037 -0.5835  0.1409
  130MOL0     C17419   3.366  10.166   8.915 -0.5429 -0.9247  0.6307
  130MOL0     C17420   3.353  10.263   9.015 -0.3021 -0.5419 -0.1986
  130MOL0     C17421   3.263  10.369   8.999 -0.5097  0.0577 -0.1379
  130MOL0     C17422   3.191  10.391   8.885  0.7929  0.0037 -0.1098
  130MOL0     O17423   3.111  10.494   8.851 -0.0923 -0.0413  0.4000
  130MOL0     C17424   3.010  10.533   8.947 -0.1971 -0.1461 -0.2190
  130MOL0     C17425   2.956  10.669   8.918  0.1886  0.1062  0.7293
  130MOL0     C17426   2.868  10.670   8.796  0.2789  0.1007 -0.0793
  130MOL0     C17427   2.813  10.812   8.764  0.3894  0.9084 -0.3206
  130MOL0     C17428   2.742  10.804   8.632  0.6167 -0.7203  0.4028
  130MOL0     C17429   2.669  10.938   8.595 -0.2332  0.5764 -0.4848
  130MOL0     C17430   2.565  10.993   8.697  0.1796  0.0656 -0.6011
  130MOL0     C17431   2.477  10.896   8.759  0.3714  0.2959  0.3451
  130MOL0     N17432   2.358  10.875   8.664 -1.0913 -0.4903  0.5727
  130MOL0     C17433   2.352  10.778   8.563  0.7396  0.2020 -0.6102
  130MOL0     C17434   2.230  10.784   8.511  0.6731  0.3491 -0.6297
  130MOL0     C17435   2.193  10.696   8.396  0.6655 -0.4227  0.8342
  130MOL0     C17436   2.056  10.707   8.336 -0.3558  0.1595  0.6733
  130MOL0     C17437   1.946  10.643   8.423  0.7393 -0.3153 -0.2794
  130MOL0     C17438   1.801  10.659   8.362  0.6764  0.2112  1.2616
  130MOL0     O17439   1.788  10.547   8.283  0.7256  0.2868  0.4818
  130MOL0     C17440   1.673  10.529   8.220  0.0417 -0.6684 -0.9643
  130MOL0     C17441   1.652  10.406   8.152 -0.1469  0.8697 -0.1400
  130MOL0     C17442   1.533  10.373   8.091  0.1093 -0.0255 -0.1824
  130MOL0     C17443   1.521  10.235   8.023  0.4032 -0.1173  0.1442
  130MOL0     C17444   1.424  10.463   8.100 -0.5180 -0.7156  0.0073
  130MOL0     C17445   1.283  10.437   8.043  0.2120 -0.3230  0.2897
  130MOL0     O17446   1.244  10.305   8.033 -0.2557  0.2346  0.2548
  130MOL0     C17447   1.118  10.267   7.987  0.7933 -0.1614  0.1385
  130MOL0     C17448   1.033  10.201   8.083  0.4108  0.2250 -0.3100
  130MOL0     C17449   0.894  10.184   8.051  0.4894  0.4230 -0.5565
  130MOL0     C17450   0.845  10.211   7.922  0.0941 -1.3646  0.6765
  130MOL0     O17451   0.717  10.200   7.881 -0.4538  0.0070 -0.0923
  130MOL0     C17452   0.650  10.087   7.952 -0.1863 -0.3812  0.3921
  130MOL0     C17453   0.550  10.018   7.857 -0.4341  0.0367 -0.2261
  130MOL0     C17454   0.504   9.882   7.898  0.5708  0.7174 -0.1526
  130MOL0     C17455   0.440   9.807   7.778  1.3318 -1.0809 -0.9327
  130MOL0     C17456   0.368   9.673   7.822 -0.5214 -0.1062  0.2586
  130MOL0     C17457   0.340   9.591   7.690  0.2656 -0.2041 -0.3117
  130MOL0     C17458   0.270   9.466   7.738  0.7523  0.1516  0.1735
  130MOL0     C17459   0.207   9.392   7.623  0.8280  0.0355  1.0353
  130MOL0    Cl17460   0.081   9.492   7.547 -0.4138 -0.3281 -0.1503
  130MOL0     C17461   0.933  10.275   7.827  0.2063  0.7131  0.4047
  130MOL0     C17462   1.062  10.301   7.859 -0.3670 -0.1685 -0.2337
  130MOL0     O17463   1.210  10.535   8.032  0.0261 -0.2185  0.6461
  130MOL0     C17464   1.445  10.586   8.173  0.0679  0.1092  0.2190
  130MOL0     C17465   1.563  10.619   8.239 -1.6457  0.0039  0.2211
  130MOL0     N17466   2.164  10.890   8.572 -0.3054 -0.0900 -0.3485
  130MOL0     N17467   2.248  10.941   8.663  0.3497 -0.4521  0.3001
  130MOL0     C17468   3.201  10.288   8.784  0.5234  0.2186  0.2146
  130MOL0     C17469   3.281  10.170   8.805 -0.1259  0.6430  0.0159
  130MOL0     C17470   3.630   9.924   9.015  0.6051  0.7712 -0.0362
  130MOL0     C17471   3.668   9.874   8.886 -0.1067  0.4133  0.0000
  130MOL0     C17472   3.782   9.782   8.884  0.0412  0.3752  0.2757
  130MOL0     C17473   3.858   9.743   8.998  0.8556  0.6787  0.6508
  130MOL0     O17474   3.968   9.667   9.002  0.7874 -0.4295  0.5422
  130MOL0     C17475   4.060   9.682   8.890 -0.5846  1.4018 -1.0457
  130MOL0     C17476   4.125   9.813   8.866 -0.2640 -0.0935 -0.1510
  130MOL0     C17477   4.199   9.864   8.996  0.1162  0.2510 -0.1342
  130MOL0     C17478   4.206  10.020   8.997 -0.1795  0.3197 -0.6782
  130MOL0     C17479   4.322  10.070   8.915 -0.1431 -0.5550 -0.0292
  130MOL0     C17480   4.426  10.124   8.878 -0.0516  0.1249  0.2261
  130MOL0     C17481   3.808   9.787   9.125  0.6548  0.9136  0.4206
  130MOL0     C17482   3.698   9.884   9.128 -0.7350  0.6854  0.4037
  130MOL0     H17483   3.429  10.278   9.091  0.0332 -2.2619 -0.1603
  130MOL0     H17484   3.275  10.444   9.076 -0.9043 -0.8321  0.8112
  130MOL0     H17485   2.924  10.470   8.923 -0.4475  0.7022 -1.7064
  130MOL0     H17486   3.048  10.526   9.049 -2.6208 -0.1668  0.7435
  130MOL0     H17487   2.899  10.704   9.005  0.4649  0.3968  0.7976
  130MOL0     H17488   3.034  10.744   8.901  0.3769 -0.4085 -0.8064
  130MOL0     H17489   2.928  10.644   8.708  0.6012 -0.3195  0.2568
  130MOL0     H17490   2.789  10.595   8.808  2.0868 -1.9172 -0.0596
  130MOL0     H17491   2.747  10.834   8.848  2.6438  1.6883  1.3402
  130MOL0     H17492   2.890  10.888   8.755  1.1670 -0.0066 -1.9013
  130MOL0     H17493   2.821  10.784   8.559  0.8378 -1.5392  0.8542
  130MOL0     H17494   2.663  10.729   8.644 -2.1053  1.9411  0.4807
  130MOL0     H17495   2.738  11.022   8.590 -1.9726  2.1253  0.2756
  130MOL0     H17496   2.628  10.924   8.494 -2.4237  2.1621  0.1113
  130MOL0     H17497   2.610  11.053   8.776 -0.2993  0.0228 -0.2937
  130MOL0     H17498   2.509  11.078   8.656 -0.2514 -0.1134 -0.3919
  130MOL0     H17499   2.442  10.935   8.855 -0.7027 -3.6203  1.7504
  130MOL0     H17500   2.522  10.801   8.788 -3.9345 -1.8638  0.7660
  130MOL0     H17501   2.442  10.723   8.537  0.1120 -0.8577 -0.6074
  130MOL0     H17502   2.263  10.725   8.317  1.0208 -0.1475  1.2456
  130MOL0     H17503   2.210  10.589   8.412  0.5620 -0.3627  1.3587
  130MOL0     H17504   2.052  10.650   8.243  0.3239  1.2596 -0.0518
  130MOL0     H17505   2.024  10.811   8.324  1.1204  0.3595 -2.6740
  130MOL0     H17506   1.945  10.701   8.516 -0.5111 -0.1965 -0.3396
  130MOL0     H17507   1.973  10.538   8.441  2.3468 -0.1318 -1.4278
  130MOL0     H17508   1.793  10.746   8.297  0.1968  0.5885  1.8140
  130MOL0     H17509   1.725  10.669   8.440 -1.5642  0.6169 -0.8695
  130MOL0     H17510   1.738  10.341   8.139 -1.8145 -0.9072 -3.8039
  130MOL0     H17511   1.450  10.174   8.080 -1.7565  1.6319 -0.5123
  130MOL0     H17512   1.470  10.243   7.927 -0.8368  0.7342  0.8367
  130MOL0     H17513   1.615  10.179   8.014  0.5062  0.1664 -0.5879
  130MOL0     H17514   1.074  10.173   8.180  2.1719 -0.8749 -1.3173
  130MOL0     H17515   0.826  10.146   8.127  1.3800  2.2116  1.2207
  130MOL0     H17516   0.721  10.009   7.983 -0.7027 -0.7806  0.5864
  130MOL0     H17517   0.602  10.132   8.039  2.1635  0.8800  1.1170
  130MOL0     H17518   0.457  10.076   7.853 -0.8302 -0.6646 -1.9125
  130MOL0     H17519   0.600  10.004   7.760 -1.8190 -0.3845 -0.9034
  130MOL0     H17520   0.439   9.895   7.985 -1.4447  0.2997 -1.5352
  130MOL0     H17521   0.582   9.812   7.931 -1.0061  0.1297  2.6333
  130MOL0     H17522   0.359   9.875   7.750 -0.7131 -2.9443  0.1324
  130MOL0     H17523   0.520   9.805   7.704  1.8534  2.2053 -0.6162
  130MOL0     H17524   0.270   9.699   7.862 -0.1594  2.1539 -0.1856
  130MOL0     H17525   0.436   9.630   7.897  0.2115  0.6768  0.0710
  130MOL0     H17526   0.275   9.645   7.620  0.3129  2.1259  1.3391
  130MOL0     H17527   0.437   9.577   7.642  2.0889  3.2933  1.8978
  130MOL0     H17528   0.192   9.480   7.814  0.2970 -0.9350 -0.0795
  130MOL0     H17529   0.340   9.396   7.785 -0.1521 -0.5147  0.5469
  130MOL0     H17530   0.159   9.299   7.652  0.5524  0.8570  3.4733
  130MOL0     H17531   0.270   9.359   7.540 -0.6757 -0.1639 -0.0604
  130MOL0     H17532   0.888  10.305   7.733  1.1775 -1.8696 -0.9921
  130MOL0     H17533   1.129  10.351   7.791 -0.3730 -0.8406 -0.7446
  130MOL0     H17534   1.368  10.661   8.189  1.1048  0.9282  1.6739
  130MOL0     H17535   1.551  10.705   8.305 -2.9315 -0.3343  0.4644
  130MOL0     H17536   3.139  10.295   8.695  0.7242 -1.0073 -0.0532
  130MOL0     H17537   3.302  10.105   8.720  4.0637 -0.3944  1.6065
  130MOL0     H17538   3.620   9.896   8.792  0.7251  0.5244 -0.4080
  130MOL0     H17539   3.805   9.749   8.783 -1.1136  1.0228 -0.2216
  130MOL0     H17540   4.137   9.611   8.921 -1.5135  1.2366  1.0953
  130MOL0     H17541   4.005   9.631   8.810  0.3258 -3.5295  1.0781
  130MOL0     H17542   4.040   9.880   8.851 -1.2272 -1.1181  0.5819
  130MOL0     H17543   4.189   9.798   8.779 -0.4590 -1.8252 -0.0445
  130MOL0     H17544   4.297   9.820   9.017 -1.2153 -2.6575  0.5072
  130MOL0     H17545   4.142   9.822   9.079 -1.1128 -0.3856 -1.2429
  130MOL0     H17546   4.226  10.048   9.101  2.3162 -2.6919 -0.1882
  130MOL0     H17547   4.108  10.055   8.962 -1.8749 -4.9786 -2.1810
  130MOL0     H17548   4.509  10.183   8.842 -0.3672  0.0977 -0.5738
  130MOL0     H17549   3.870   9.771   9.213  2.3081  1.2435 -0.6350
  130MOL0     H17550   3.659   9.927   9.220 -1.0612  0.3416  0.4272
  131MOL0     O17551  10.906   2.442   8.367 -0.1911 -0.2070 -1.2249
  131MOL0     C17552  11.027   2.459   8.379 -0.6903 -0.1502 -0.2804
  131MOL0     O17553  11.107   2.487   8.264 -0.0812 -0.4831  0.0364
  131MOL0     C17554  11.034   2.476   8.144 -0.7777  0.6938 -0.1070
  131MOL0     C17555  10.977   2.359   8.101 -0.7011 -0.0710 -0.2851
  131MOL0     C17556  10.894   2.361   7.994  0.7351  0.4354 -0.5718
  131MOL0     C17557  10.884   2.473   7.903  0.0599  0.9432  0.6061
  131MOL0     O17558  10.807   2.484   7.788 -0.2019 -0.4682  0.2463
  131MOL0     C17559  10.736   2.369   7.737 -0.1942 -0.6759 -0.2315
  131MOL0     C17560  10.719   2.388   7.589  0.5173 -0.1342 -0.5893
  131MOL0     C17561  10.628   2.273   7.539  1.0623 -0.3073  0.5778
  131MOL0     C17562  10.481   2.316   7.557  0.4111 -0.2544  0.4063
  131MOL0     C17563  10.391   2.200   7.515  0.1624  0.1997 -0.3210
  131MOL0     C17564  10.330   2.132   7.644 -0.1835  0.9078 -0.1292
  131MOL0     C17565  10.423   2.011   7.699  0.5839  0.2261 -0.7444
  131MOL0     C17566  10.357   1.892   7.783  0.3139  0.4461 -0.1619
  131MOL0     N17567  10.267   1.936   7.888 -0.4904  0.1066  0.3666
  131MOL0     C17568  10.297   2.020   7.992  0.0436 -0.1931  1.4067
  131MOL0     C17569  10.194   2.033   8.073  0.3002  0.1484  0.0646
  131MOL0     C17570  10.182   2.127   8.188  0.1966  0.1715  0.4653
  131MOL0     C17571  10.263   2.084   8.311  0.1100 -0.2877  0.1330
  131MOL0     C17572  10.207   1.958   8.377  0.0115 -0.8150  0.0976
  131MOL0     C17573  10.056   1.935   8.389  0.5678 -0.0226  0.0015
  131MOL0     O17574   9.994   2.042   8.455 -0.8740  0.2404 -0.2206
  131MOL0     C17575   9.856   2.036   8.468  0.2793 -0.3507  0.1137
  131MOL0     C17576   9.800   1.949   8.556  0.0891  0.0924  0.5097
  131MOL0     C17577   9.669   1.950   8.594 -0.2201  0.2717  0.5832
  131MOL0     C17578   9.622   1.848   8.701 -0.4596 -0.6461 -0.1220
  131MOL0     C17579   9.589   2.040   8.513 -0.9871  0.1933  0.1677
  131MOL0     C17580   9.438   2.040   8.520 -1.3458  0.4909 -0.9025
  131MOL0     O17581   9.364   2.140   8.472  0.0421  0.0100 -0.4113
  131MOL0     C17582   9.231   2.123   8.463 -0.4288 -0.1613 -0.6857
  131MOL0     C17583   9.149   2.122   8.575 -0.0653 -0.0476 -0.1013
  131MOL0     C17584   9.011   2.142   8.559 -0.0179 -0.4309  0.5768
  131MOL0     C17585   8.953   2.169   8.429 -0.2165  0.2701  0.1006
  131MOL0     O17586   8.824   2.182   8.421  0.2662  0.0386  0.5688
  131MOL0     C17587   8.756   2.295   8.483 -1.0342  0.3916  0.0336
  131MOL0     C17588   8.610   2.268   8.465 -0.4960 -0.0020  0.8157
  131MOL0     C17589   8.520   2.382   8.505  0.2037  0.0752 -0.2161
  131MOL0     C17590   8.372   2.351   8.458 -0.5669 -0.3639 -0.2895
  131MOL0     C17591   8.280   2.468   8.503  0.0559 -0.2487 -0.1254
  131MOL0     C17592   8.141   2.449   8.465 -0.1662  1.0691  0.0109
  131MOL0     C17593   8.130   2.488   8.310  1.0415  0.0283 -0.2281
  131MOL0     C17594   8.125   2.637   8.276  0.6055  0.4398 -0.3206
  131MOL0    Cl17595   7.993   2.722   8.353  0.3982 -0.2582  0.3890
  131MOL0     C17596   9.029   2.171   8.316  0.2902 -0.7304 -0.7840
  131MOL0     C17597   9.172   2.145   8.338  0.1196 -0.7148 -0.4786
  131MOL0     O17598   9.395   1.936   8.565 -0.2520 -0.4507 -0.0703
  131MOL0     C17599   9.644   2.128   8.413 -0.5531  0.9423 -0.8081
  131MOL0     C17600   9.779   2.129   8.392  0.8544  1.0291 -0.1094
  131MOL0     N17601  10.095   1.957   8.009  0.1142  0.4367 -0.5313
  131MOL0     N17602  10.136   1.906   7.899 -0.0104 -0.0882  0.4980
  131MOL0     C17603  10.964   2.586   7.942  0.1843  0.2737  0.0469
  131MOL0     C17604  11.035   2.582   8.059 -0.4553 -0.4265  0.5485
  131MOL0     C17605  11.087   2.469   8.506 -0.0362  0.1595 -0.1443
  131MOL0     C17606  11.006   2.491   8.619  0.7504  0.7574  0.2464
  131MOL0     C17607  11.055   2.489   8.742  1.6046 -0.1729 -0.2777
  131MOL0     C17608  11.197   2.488   8.760  0.4289  0.0502  0.0877
  131MOL0     O17609  11.259   2.490   8.886  0.2000 -0.3687  0.3020
  131MOL0     C17610  11.182   2.533   9.003 -0.3191 -0.4582  1.1267
  131MOL0     C17611  11.268   2.522   9.127 -0.2977  0.7798  0.4273
  131MOL0     C17612  11.378   2.627   9.128 -1.4501 -0.1963 -0.2022
  131MOL0     C17613  11.506   2.576   9.054  0.2442 -0.1836  0.0610
  131MOL0     C17614  11.622   2.655   9.102  0.2278 -0.0260 -0.1050
  131MOL0     C17615  11.729   2.701   9.128  1.2191 -0.3472  0.9154
  131MOL0     C17616  11.274   2.479   8.650  0.4713  0.2629 -0.6112
  131MOL0     C17617  11.225   2.467   8.524 -0.7663  0.2818 -0.2822
  131MOL0     H17618  10.991   2.276   8.169 -0.6617  1.5208  1.7355
  131MOL0     H17619  10.830   2.275   7.973 -1.6530  2.3179 -1.5798
  131MOL0     H17620  10.791   2.280   7.767  3.4766  0.7304 -2.1451
  131MOL0     H17621  10.634   2.357   7.776 -0.9677 -0.6543 -2.1503
  131MOL0     H17622  10.682   2.486   7.559  1.7623  0.7860  0.7802
  131MOL0     H17623  10.815   2.382   7.537  1.0775 -3.2503  0.5630
  131MOL0     H17624  10.649   2.260   7.433  1.7181 -1.5713  0.8492
  131MOL0     H17625  10.651   2.181   7.593  0.6741 -0.8737 -0.2081
  131MOL0     H17626  10.464   2.330   7.664 -1.0542  2.4467 -0.0770
  131MOL0     H17627  10.448   2.404   7.502  3.5432  0.6927 -0.1650
  131MOL0     H17628  10.307   2.245   7.461 -0.9389 -0.6240  0.6778
  131MOL0     H17629  10.443   2.134   7.445 -0.6206 -0.5362 -0.2215
  131MOL0     H17630  10.301   2.207   7.718 -1.7123  0.5643 -0.3544
  131MOL0     H17631  10.239   2.080   7.613 -1.5813  1.3724  2.8331
  131MOL0     H17632  10.455   1.964   7.605  0.6569  0.8851 -1.0548
  131MOL0     H17633  10.514   2.051   7.744  1.9372 -0.2343 -2.8738
  131MOL0     H17634  10.438   1.837   7.832  0.2898  0.3373 -0.2442
  131MOL0     H17635  10.299   1.827   7.716  0.2449  0.8156 -0.4640
  131MOL0     H17636  10.394   2.069   7.989  1.1794 -2.0055  3.9927
  131MOL0     H17637  10.216   2.229   8.164  0.9473  0.1377  1.3397
  131MOL0     H17638  10.077   2.150   8.205  0.4507  2.5867 -0.7831
  131MOL0     H17639  10.266   2.163   8.387  2.5017  0.6733 -0.8649
  131MOL0     H17640  10.364   2.067   8.272 -0.8290 -3.5597 -1.2550
  131MOL0     H17641  10.242   1.957   8.481  1.6789 -1.1998 -0.4468
  131MOL0     H17642  10.252   1.877   8.319 -0.2194 -0.2776 -0.8644
  131MOL0     H17643  10.037   1.842   8.442  1.0269  0.6253  1.3539
  131MOL0     H17644  10.007   1.930   8.292  2.3452  1.4647 -1.0456
  131MOL0     H17645   9.869   1.875   8.594  1.5510  1.4841  0.6521
  131MOL0     H17646   9.585   1.904   8.788 -1.4146 -1.2905 -0.0978
  131MOL0     H17647   9.562   1.763   8.667  0.8900 -2.7274  2.3546
  131MOL0     H17648   9.714   1.804   8.740  0.1434  1.3236  0.8344
  131MOL0     H17649   9.203   2.116   8.669 -1.2388 -0.6092  0.5482
  131MOL0     H17650   8.955   2.145   8.652 -0.9553  2.7444  0.0341
  131MOL0     H17651   8.780   2.303   8.590 -0.9742  2.8763 -0.0959
  131MOL0     H17652   8.787   2.385   8.429 -1.2411 -0.3898 -1.4223
  131MOL0     H17653   8.600   2.245   8.359  0.2364 -2.0154  1.1276
  131MOL0     H17654   8.583   2.180   8.525 -0.9550 -0.4253 -0.0003
  131MOL0     H17655   8.537   2.476   8.453 -0.0938 -1.1517 -2.6907
  131MOL0     H17656   8.528   2.392   8.614  1.6772  0.0802 -0.3002
  131MOL0     H17657   8.368   2.330   8.351  1.5922  0.6444 -0.6200
  131MOL0     H17658   8.340   2.264   8.515  2.2968 -1.1160  0.3494
  131MOL0     H17659   8.320   2.565   8.473 -0.7187  1.2215  3.1127
  131MOL0     H17660   8.283   2.474   8.612  0.5508 -6.2937  0.5293
  131MOL0     H17661   8.109   2.344   8.466  0.1321  0.9804  0.6561
  131MOL0     H17662   8.062   2.505   8.514 -1.6193 -2.5073  2.1626
  131MOL0     H17663   8.036   2.445   8.272 -1.3643  3.4340  1.3108
  131MOL0     H17664   8.209   2.452   8.244 -0.2445 -0.2691 -1.6901
  131MOL0     H17665   8.132   2.649   8.167  6.8549  1.1211 -0.2153
  131MOL0     H17666   8.215   2.680   8.320  3.1462 -3.6847 -0.9228
  131MOL0     H17667   8.983   2.180   8.219 -1.8105  0.6147  0.2599
  131MOL0     H17668   9.234   2.141   8.249  1.9480  1.2496  0.6330
  131MOL0     H17669   9.576   2.191   8.358 -2.1398  0.2111  0.2312
  131MOL0     H17670   9.829   2.199   8.325  0.5534  0.6787 -0.7001
  131MOL0     H17671  10.966   2.673   7.877  0.4900  0.3440  0.1492
  131MOL0     H17672  11.075   2.681   8.081 -0.8180 -0.6026  2.1306
  131MOL0     H17673  10.898   2.486   8.611  0.9045 -0.1676 -2.3745
  131MOL0     H17674  10.988   2.486   8.828  0.7675 -1.3621 -0.9537
  131MOL0     H17675  11.164   2.641   9.009 -0.0188 -0.3919  0.8634
  131MOL0     H17676  11.095   2.467   9.008  0.7267 -2.4999 -3.0426
  131MOL0     H17677  11.312   2.422   9.128 -2.4683 -0.2497 -0.5611
  131MOL0     H17678  11.199   2.529   9.211 -3.3743 -0.7299 -1.7523
  131MOL0     H17679  11.403   2.636   9.234  1.6982 -1.5238 -0.6941
  131MOL0     H17680  11.340   2.718   9.082 -4.2148 -1.2917 -0.2891
  131MOL0     H17681  11.499   2.579   8.945  0.2284  0.0120  0.0675
  131MOL0     H17682  11.519   2.470   9.078 -0.3135  0.1281  1.9315
  131MOL0     H17683  11.824   2.746   9.148  2.0757 -1.4016 -0.5043
  131MOL0     H17684  11.379   2.464   8.674  0.5224 -0.2588 -1.1314
  131MOL0     H17685  11.286   2.460   8.434 -0.9764  1.4209 -0.5336
  132MOL0     O17686   4.240   1.636   6.774 -0.0331 -0.6712 -0.2688
  132MOL0     C17687   4.248   1.723   6.688  0.5200  0.5199  0.4262
  132MOL0     O17688   4.199   1.713   6.561 -0.6184 -0.3271 -0.5895
  132MOL0     C17689   4.107   1.624   6.529 -0.8121 -0.1613  0.2276
  132MOL0     C17690   4.134   1.519   6.441 -0.0871 -0.0633 -0.4883
  132MOL0     C17691   4.029   1.438   6.409 -0.9431 -0.4623 -0.9391
  132MOL0     C17692   3.897   1.456   6.454  0.5789 -0.6507  0.4196
  132MOL0     O17693   3.797   1.369   6.412 -0.0683  0.2006 -0.0411
  132MOL0     C17694   3.659   1.390   6.442  0.0815  0.7721 -0.3651
  132MOL0     C17695   3.579   1.278   6.367  1.1465  0.8164  0.4814
  132MOL0     C17696   3.426   1.291   6.398  1.0903 -0.3529 -0.4832
  132MOL0     C17697   3.357   1.149   6.366 -0.2204 -0.4332 -0.8284
  132MOL0     C17698   3.210   1.166   6.396 -0.9348 -0.7546  0.4391
  132MOL0     C17699   3.136   1.029   6.398 -0.1127  0.6754 -0.2328
  132MOL0     C17700   2.982   1.023   6.400  0.2373 -0.2315  0.0534
  132MOL0     C17701   2.930   1.072   6.265  0.6932  0.4825 -0.1322
  132MOL0     N17702   2.786   1.077   6.251 -0.5721 -0.3555 -0.2524
  132MOL0     C17703   2.703   1.082   6.139  0.4337 -0.2700  0.3263
  132MOL0     C17704   2.582   1.047   6.188  0.2469  0.4389 -0.3558
  132MOL0     C17705   2.456   1.017   6.119 -0.4826  0.6059  0.0412
  132MOL0     C17706   2.382   1.149   6.089 -1.4376 -0.2908 -0.0830
  132MOL0     C17707   2.261   1.136   5.995 -0.0522  0.2428 -0.1840
  132MOL0     C17708   2.147   1.037   6.041 -0.4428 -0.1221  0.2346
  132MOL0     O17709   2.057   1.010   5.934  0.2929 -0.2935  0.6049
  132MOL0     C17710   1.954   1.093   5.895  0.1563 -0.2994 -0.3857
  132MOL0     C17711   1.956   1.204   5.818 -1.0187 -0.1100  0.5577
  132MOL0     C17712   1.844   1.294   5.805  0.6384 -0.6447  0.0607
  132MOL0     C17713   1.855   1.419   5.714  0.5337  0.1894 -0.4309
  132MOL0     C17714   1.721   1.255   5.863 -0.7222  0.0074 -0.3909
  132MOL0     C17715   1.585   1.318   5.833  0.5108  0.1884 -1.7786
  132MOL0     O17716   1.578   1.450   5.811 -0.0982  0.6757  0.3007
  132MOL0     C17717   1.468   1.531   5.815  0.8261 -0.1330  0.7060
  132MOL0     C17718   1.337   1.487   5.863 -0.5243 -0.3760 -0.1281
  132MOL0     C17719   1.229   1.574   5.871 -0.3299  0.1437  0.2018
  132MOL0     C17720   1.240   1.704   5.827 -0.5778 -0.2867 -0.0471
  132MOL0     O17721   1.129   1.785   5.820 -0.2235 -0.1791 -0.2354
  132MOL0     C17722   1.133   1.909   5.745  0.2851 -0.1079 -0.7129
  132MOL0     C17723   0.999   1.959   5.701 -0.0819 -0.1261  0.3166
  132MOL0     C17724   0.933   1.846   5.620 -0.2361 -0.2404 -0.6205
  132MOL0     C17725   0.780   1.878   5.596 -0.1832 -1.1031  0.6636
  132MOL0     C17726   0.707   1.759   5.534 -0.9569  0.0827  0.2561
  132MOL0     C17727   0.754   1.743   5.390  0.4986 -0.7271  0.2771
  132MOL0     C17728   0.661   1.645   5.324  0.8366  0.3887 -0.6285
  132MOL0     C17729   0.515   1.692   5.303  0.0068 -0.2277  0.0918
  132MOL0    Cl17730   0.468   1.647   5.137 -0.0730  0.3516 -0.3922
  132MOL0     C17731   1.377   1.752   5.786 -0.1197 -0.1489  1.0619
  132MOL0     C17732   1.485   1.668   5.793 -0.0635 -0.1178 -0.0934
  132MOL0     O17733   1.493   1.246   5.845  0.3558  1.2549  0.2816
  132MOL0     C17734   1.725   1.133   5.944 -0.3546 -0.3176 -0.2097
  132MOL0     C17735   1.839   1.062   5.963 -0.3250  1.0906  0.0358
  132MOL0     N17736   2.593   1.048   6.326 -0.1252  0.4333  0.3700
  132MOL0     N17737   2.713   1.068   6.360 -0.0015 -0.7769  0.8427
  132MOL0     C17738   3.867   1.569   6.533  0.3840 -0.2552  0.1392
  132MOL0     C17739   3.971   1.658   6.573 -0.9260 -0.0441 -0.4683
  132MOL0     C17740   4.331   1.840   6.708  0.1355  0.3111 -0.2547
  132MOL0     C17741   4.353   1.933   6.602 -0.0173 -0.8449  0.0725
  132MOL0     C17742   4.441   2.036   6.621 -0.7463 -0.1208 -0.6234
  132MOL0     C17743   4.504   2.065   6.743  0.8791  0.4731 -0.5543
  132MOL0     O17744   4.589   2.174   6.751 -1.0493  0.0322 -0.1858
  132MOL0     C17745   4.724   2.161   6.804  0.1684  0.3495 -0.8719
  132MOL0     C17746   4.779   2.285   6.863  0.0969 -0.3398  0.5310
  132MOL0     C17747   4.929   2.285   6.881 -0.3912  0.5622  0.0755
  132MOL0     C17748   4.994   2.165   6.954 -0.8222 -0.0620  0.7027
  132MOL0     C17749   4.953   2.157   7.092  0.1446 -0.9691  0.2055
  132MOL0     C17750   4.948   2.134   7.208  0.5365  0.6638 -0.2601
  132MOL0     C17751   4.479   1.981   6.846 -0.4609  0.5232 -0.2634
  132MOL0     C17752   4.392   1.870   6.830  0.5639  0.3697  0.0029
  132MOL0     H17753   4.237   1.514   6.405  1.0203  4.6912  1.2131
  132MOL0     H17754   4.062   1.354   6.350  3.1228 -0.1066  0.4894
  132MOL0     H17755   3.626   1.386   6.546  1.7358 -0.5825  0.1389
  132MOL0     H17756   3.626   1.488   6.406 -0.2536  0.8359  0.1150
  132MOL0     H17757   3.597   1.304   6.262 -0.3395  2.3462  0.5685
  132MOL0     H17758   3.619   1.178   6.388  0.1198 -0.4669 -2.9746
  132MOL0     H17759   3.414   1.312   6.505  1.4334  0.5943 -0.6140
  132MOL0     H17760   3.378   1.365   6.335  0.5230  0.3838  0.7745
  132MOL0     H17761   3.370   1.119   6.261 -0.0972 -0.4244 -0.8155
  132MOL0     H17762   3.393   1.080   6.443 -4.0292 -1.5703  0.1445
  132MOL0     H17763   3.203   1.218   6.492  1.6509  1.0316 -0.2522
  132MOL0     H17764   3.169   1.236   6.322 -0.3717 -1.6407 -0.7425
  132MOL0     H17765   3.184   0.961   6.326 -0.8477  1.8487 -1.8937
  132MOL0     H17766   3.150   0.987   6.498 -0.7593  0.1119 -0.3642
  132MOL0     H17767   2.941   0.923   6.413 -3.5856  1.4654  2.9299
  132MOL0     H17768   2.928   1.091   6.468 -0.4581  2.5249 -2.9858
  132MOL0     H17769   2.957   0.992   6.195  0.5516  0.5108 -0.2184
  132MOL0     H17770   2.967   1.171   6.234  0.3339 -0.1921 -3.0587
  132MOL0     H17771   2.741   1.092   6.038 -2.7100 -2.8317 -1.3257
  132MOL0     H17772   2.465   0.960   6.027  1.1636  1.2559 -0.2365
  132MOL0     H17773   2.402   0.953   6.190 -0.8868  1.6124  0.6660
  132MOL0     H17774   2.450   1.225   6.049  0.9832 -2.4441 -0.3314
  132MOL0     H17775   2.351   1.196   6.182  1.1088 -0.5402  0.9916
  132MOL0     H17776   2.284   1.107   5.892  1.1578  1.6450 -0.3434
  132MOL0     H17777   2.219   1.236   6.006  0.4991  0.4172  0.4775
  132MOL0     H17778   2.105   1.082   6.131  1.2142  2.7965 -0.3308
  132MOL0     H17779   2.188   0.941   6.074 -1.3907 -1.2359 -1.6347
  132MOL0     H17780   2.055   1.228   5.782 -1.0879  0.3816  0.6956
  132MOL0     H17781   1.959   1.432   5.684 -0.3500 -0.4723 -4.2349
  132MOL0     H17782   1.798   1.394   5.624  0.8523  0.7582 -0.7889
  132MOL0     H17783   1.836   1.519   5.753  1.1821 -0.1158  0.7210
  132MOL0     H17784   1.326   1.385   5.899  0.1843 -0.8773 -1.2749
  132MOL0     H17785   1.131   1.544   5.907 -1.3675  1.5390 -1.3060
  132MOL0     H17786   1.173   1.993   5.803  2.4224  0.4306 -2.8410
  132MOL0     H17787   1.197   1.902   5.657 -0.8269 -1.5928 -1.4356
  132MOL0     H17788   0.930   1.990   5.781 -0.2070 -2.9906  1.4198
  132MOL0     H17789   1.013   2.044   5.633 -1.7835  0.1195  0.2267
  132MOL0     H17790   0.945   1.750   5.669 -0.1395  0.2171  0.2684
  132MOL0     H17791   0.988   1.838   5.526 -0.1134 -1.0088 -0.4841
  132MOL0     H17792   0.737   1.905   5.693  0.7611  0.2780  0.7382
  132MOL0     H17793   0.769   1.962   5.527  1.1896  1.9381  3.8150
  132MOL0     H17794   0.598   1.770   5.537 -1.2325 -1.6546 -1.6768
  132MOL0     H17795   0.725   1.677   5.604 -1.2620 -0.2577 -0.0681
  132MOL0     H17796   0.747   1.832   5.327 -1.5204 -1.1951 -0.2514
  132MOL0     H17797   0.853   1.697   5.389  0.0113 -1.8927  1.7040
  132MOL0     H17798   0.665   1.554   5.385 -1.6276  0.9519  0.5011
  132MOL0     H17799   0.703   1.632   5.224 -0.1081  1.3646 -1.1688
  132MOL0     H17800   0.512   1.801   5.303 -2.0360 -0.2019 -1.9304
  132MOL0     H17801   0.437   1.659   5.372  0.1761  3.2412  2.1466
  132MOL0     H17802   1.392   1.859   5.779 -2.7774  0.5167  3.6580
  132MOL0     H17803   1.579   1.711   5.760 -0.3239  0.1210 -0.5436
  132MOL0     H17804   1.645   1.071   5.984  0.5802 -1.8089 -0.5419
  132MOL0     H17805   1.836   0.978   6.032  1.3951 -0.1612 -1.3164
  132MOL0     H17806   3.768   1.584   6.574  1.4478  2.1773  2.1095
  132MOL0     H17807   3.952   1.743   6.636 -1.2643 -0.4887  0.0400
  132MOL0     H17808   4.292   1.917   6.513 -3.3419 -1.4906  2.3042
  132MOL0     H17809   4.444   2.123   6.557  4.4963  3.4347  3.5075
  132MOL0     H17810   4.743   2.069   6.861 -0.0759  0.9530  0.2150
  132MOL0     H17811   4.781   2.160   6.711 -0.9828  2.2779 -1.6632
  132MOL0     H17812   4.739   2.302   6.964  2.9146  2.0554  1.3828
  132MOL0     H17813   4.750   2.364   6.793 -2.3428 -1.2330  0.4219
  132MOL0     H17814   4.970   2.374   6.930  1.8602 -0.1726 -0.3169
  132MOL0     H17815   4.975   2.281   6.782 -0.3157 -0.0615  0.1316
  132MOL0     H17816   5.103   2.156   6.948 -0.9239 -1.5679  0.7615
  132MOL0     H17817   4.971   2.068   6.911  0.2737 -0.6868  1.4481
  132MOL0     H17818   4.927   2.115   7.311 -0.5231 -1.8890 -0.8862
  132MOL0     H17819   4.521   1.993   6.945  1.3033 -2.5423 -0.5172
  132MOL0     H17820   4.364   1.795   6.904 -2.7785  0.9175 -0.5628
  133MOL0     O17821   4.668   9.679   7.409 -0.3659 -0.0550 -0.0371
  133MOL0     C17822   4.584   9.765   7.443  0.1479 -0.0856 -0.7077
  133MOL0     O17823   4.602   9.903   7.452 -1.2415 -0.2230  0.8640
  133MOL0     C17824   4.729   9.952   7.426  0.3253 -0.0752 -0.1233
  133MOL0     C17825   4.816   9.914   7.326 -0.8194  0.0845 -0.3993
  133MOL0     C17826   4.941   9.978   7.319  1.0065  0.3239 -0.0440
  133MOL0     C17827   4.981  10.085   7.397  0.0440  0.2208  0.2333
  133MOL0     O17828   5.108  10.150   7.389  0.7234 -0.4831 -0.6596
  133MOL0     C17829   5.150  10.236   7.501  0.1723  0.1766  0.4074
  133MOL0     C17830   5.296  10.266   7.488  0.8690 -0.5564  0.0077
  133MOL0     C17831   5.335  10.386   7.575 -0.8549 -0.6529  0.8556
  133MOL0     C17832   5.424  10.340   7.691  0.8909  0.2394 -0.7986
  133MOL0     C17833   5.467  10.451   7.798 -0.4710  0.8637  0.5307
  133MOL0     C17834   5.549  10.404   7.922 -0.2930  0.6934  1.0388
  133MOL0     C17835   5.577  10.520   8.020 -0.3582 -0.1836 -0.7091
  133MOL0     C17836   5.689  10.487   8.121  0.1135 -0.5576  0.7796
  133MOL0     N17837   5.660  10.369   8.191  0.4939  0.6979 -0.1516
  133MOL0     C17838   5.541  10.330   8.242  0.4745 -0.2130  0.7816
  133MOL0     C17839   5.554  10.193   8.263 -0.1126  0.0993 -0.8924
  133MOL0     C17840   5.451  10.101   8.311 -1.3215 -0.6095  0.3740
  133MOL0     C17841   5.379  10.043   8.191 -0.0173  0.6056 -0.2587
  133MOL0     C17842   5.276  10.139   8.145 -0.3181 -0.0716  0.3230
  133MOL0     C17843   5.173  10.095   8.033  0.3592 -0.2974 -1.1735
  133MOL0     O17844   5.044  10.160   8.055 -0.1685 -0.7080  0.6708
  133MOL0     C17845   4.936  10.129   7.982  0.2365 -0.2050 -0.8366
  133MOL0     C17846   4.812  10.179   8.038 -0.1810 -0.6042  0.6250
  133MOL0     C17847   4.688  10.161   7.979 -0.3705 -0.3969  0.0532
  133MOL0     C17848   4.571  10.243   8.026  0.5158  1.1590 -0.1045
  133MOL0     C17849   4.683  10.071   7.868 -0.7576  0.0182  0.7088
  133MOL0     C17850   4.563  10.054   7.796  0.5421  0.7365 -1.0250
  133MOL0     O17851   4.523  10.162   7.716  0.7172  1.0313 -0.2766
  133MOL0     C17852   4.389  10.140   7.680 -0.2826 -1.2191 -0.1630
  133MOL0     C17853   4.352  10.159   7.552  0.9945  0.4325  0.9233
  133MOL0     C17854   4.211  10.163   7.524  0.4933  0.1969  0.3953
  133MOL0     C17855   4.112  10.139   7.612  0.2845 -0.6922 -0.3556
  133MOL0     O17856   3.982  10.162   7.572 -0.0972  0.3396  0.5762
  133MOL0     C17857   3.893  10.054   7.602  0.0104 -0.2058  0.2548
  133MOL0     C17858   3.786  10.055   7.489 -0.4359 -0.3762 -1.1217
  133MOL0     C17859   3.667   9.965   7.526 -0.0341  0.5143  0.2029
  133MOL0     C17860   3.543  10.015   7.447  0.7165  0.2576  0.5241
  133MOL0     C17861   3.422   9.926   7.488 -0.5204  0.3247 -0.2875
  133MOL0     C17862   3.288   9.954   7.417  0.3125  0.1380  0.7048
  133MOL0     C17863   3.176   9.854   7.468  0.2886  0.1766  0.0305
  133MOL0     C17864   3.036   9.924   7.466 -0.3882 -0.1824 -0.0448
  133MOL0    Cl17865   3.029  10.082   7.545  0.1710 -0.3486  0.0603
  133MOL0     C17866   4.153  10.136   7.748 -0.5246  0.0089  0.3910
  133MOL0     C17867   4.289  10.132   7.780  0.7359 -0.9487  0.7385
  133MOL0     O17868   4.519   9.940   7.794 -0.3302 -0.8266 -0.1266
  133MOL0     C17869   4.798  10.009   7.823 -0.9264  0.0317  0.0457
  133MOL0     C17870   4.927  10.041   7.877  0.9560 -0.6310  0.4376
  133MOL0     N17871   5.681  10.157   8.226 -0.0497  0.0386  0.0495
  133MOL0     N17872   5.743  10.263   8.194 -0.9412 -0.5072  0.6402
  133MOL0     C17873   4.882  10.127   7.484  0.2262 -0.0696 -0.2752
  133MOL0     C17874   4.759  10.065   7.488 -1.2105 -0.8630  0.6378
  133MOL0     C17875   4.450   9.708   7.472 -0.6360  0.0820 -0.4941
  133MOL0     C17876   4.423   9.569   7.447 -1.1695 -0.1021  0.0271
  133MOL0     C17877   4.302   9.524   7.488  0.0485  0.4076  0.0696
  133MOL0     C17878   4.199   9.605   7.542 -0.6139  0.0146 -0.4846
  133MOL0     O17879   4.088   9.540   7.578  0.1246  0.0779 -0.0978
  133MOL0     C17880   3.955   9.596   7.570 -0.6182  0.2093 -0.0584
  133MOL0     C17881   3.846   9.499   7.515 -0.2131  0.8695  0.5395
  133MOL0     C17882   3.702   9.523   7.558  0.0835 -0.6668  0.3664
  133MOL0     C17883   3.617   9.404   7.533  0.3016 -0.2348  0.1996
  133MOL0     C17884   3.483   9.442   7.529  0.6114  0.1613 -0.5518
  133MOL0     C17885   3.373   9.481   7.530  1.0425  0.2893 -0.3448
  133MOL0     C17886   4.220   9.741   7.558 -0.2570  0.0759  0.3816
  133MOL0     C17887   4.346   9.789   7.528 -0.5089 -0.4059 -0.0407
  133MOL0     H17888   4.795   9.826   7.266  2.4847 -0.9776 -0.2073
  133MOL0     H17889   5.010   9.933   7.249 -0.9953 -0.0929 -1.8877
  133MOL0     H17890   5.086  10.325   7.498  1.2436  0.9881  0.8447
  133MOL0     H17891   5.149  10.185   7.597  0.3516 -0.9595 -0.1791
  133MOL0     H17892   5.352  10.180   7.524  0.0659 -0.1658  2.3591
  133MOL0     H17893   5.329  10.280   7.385 -0.9343  1.5210 -0.3631
  133MOL0     H17894   5.388  10.445   7.500 -0.2817 -1.2031  0.8264
  133MOL0     H17895   5.253  10.447   7.616  0.0784  0.9803  0.3726
  133MOL0     H17896   5.374  10.264   7.752  2.4322  1.0949  1.7200
  133MOL0     H17897   5.520  10.298   7.659 -0.0038 -2.5135 -0.1282
  133MOL0     H17898   5.536  10.524   7.752 -0.8656  0.0465 -1.4868
  133MOL0     H17899   5.376  10.497   7.837 -2.0388 -1.7746  0.2058
  133MOL0     H17900   5.503  10.321   7.977 -0.3769 -0.5823 -0.8724
  133MOL0     H17901   5.642  10.360   7.885 -0.6859  0.5957  0.1405
  133MOL0     H17902   5.607  10.609   7.964  2.8514  0.6917  2.0891
  133MOL0     H17903   5.483  10.540   8.072 -1.5642  2.0455 -3.4601
  133MOL0     H17904   5.693  10.567   8.195 -3.9283 -0.4217  1.0430
  133MOL0     H17905   5.777  10.479   8.057 -0.2216  2.4242 -0.1912
  133MOL0     H17906   5.447  10.382   8.260  1.2402  1.6214 -0.2976
  133MOL0     H17907   5.499  10.026   8.375 -0.0936  1.9752  2.6614
  133MOL0     H17908   5.386  10.150   8.384 -0.2686  2.7682 -0.7597
  133MOL0     H17909   5.328   9.953   8.228  3.7261 -1.2292  0.9008
  133MOL0     H17910   5.450  10.009   8.115 -1.0706  0.2150 -1.0965
  133MOL0     H17911   5.327  10.223   8.097  4.1683 -3.2119 -1.0813
  133MOL0     H17912   5.222  10.178   8.231  0.6619 -0.1832  1.0018
  133MOL0     H17913   5.165   9.987   8.020  2.9981 -0.4944 -1.7206
  133MOL0     H17914   5.229  10.130   7.945  1.2194  1.8151  0.1451
  133MOL0     H17915   4.800  10.248   8.121  1.9207  0.4043  0.1700
  133MOL0     H17916   4.564  10.223   8.133 -1.6629  0.5086 -0.3284
  133MOL0     H17917   4.572  10.348   7.995 -0.6970  0.2368 -3.8215
  133MOL0     H17918   4.480  10.194   7.991  0.4402  1.2651 -0.0561
  133MOL0     H17919   4.433  10.166   7.480  1.9319 -0.5817  1.8391
  133MOL0     H17920   4.183  10.169   7.419  2.0661  1.2565 -0.0043
  133MOL0     H17921   3.951   9.961   7.599  0.7477  0.2711 -2.1475
  133MOL0     H17922   3.852  10.056   7.703  1.2963 -1.3774  0.8276
  133MOL0     H17923   3.753  10.159   7.498 -5.3031 -1.6433 -1.6582
  133MOL0     H17924   3.835  10.045   7.392 -0.7138  1.1677 -1.4569
  133MOL0     H17925   3.646   9.968   7.633  3.1893  0.4451  0.9258
  133MOL0     H17926   3.692   9.861   7.505 -0.5110  0.6322 -1.0311
  133MOL0     H17927   3.512  10.119   7.461  1.1150  0.3908  0.4267
  133MOL0     H17928   3.556   9.999   7.340 -0.8937  0.9699  0.1846
  133MOL0     H17929   3.408   9.928   7.597  1.5784 -2.3859  0.1452
  133MOL0     H17930   3.455   9.823   7.471  0.0447  0.0708  1.9615
  133MOL0     H17931   3.265  10.060   7.430 -1.3525 -0.0961 -0.0319
  133MOL0     H17932   3.303   9.944   7.309  0.3428  0.7657  0.6470
  133MOL0     H17933   3.197   9.823   7.571  1.2088 -0.5204 -0.3593
  133MOL0     H17934   3.185   9.762   7.410  2.0074  0.1439  0.3048
  133MOL0     H17935   2.984   9.853   7.531 -0.0494  0.8742  1.4334
  133MOL0     H17936   2.994   9.919   7.365  1.9458 -1.7471 -1.0385
  133MOL0     H17937   4.077  10.145   7.825 -0.9933  0.7388 -0.1264
  133MOL0     H17938   4.305  10.105   7.884 -2.8015  0.8103  1.9041
  133MOL0     H17939   4.783   9.931   7.749 -1.9811 -1.8775  2.1487
  133MOL0     H17940   5.017   9.994   7.837  0.1315 -1.4283 -0.5325
  133MOL0     H17941   4.893  10.221   7.535  2.0084  0.9440 -2.3413
  133MOL0     H17942   4.677  10.110   7.543 -2.7990 -0.1417 -2.0956
  133MOL0     H17943   4.499   9.503   7.405 -0.4807  0.6169  0.1224
  133MOL0     H17944   4.288   9.417   7.482  0.9350  0.3036 -0.4499
  133MOL0     H17945   3.923   9.633   7.668 -0.1381 -0.1821  0.2517
  133MOL0     H17946   3.962   9.684   7.505  0.8210 -0.1305 -0.4135
  133MOL0     H17947   3.867   9.403   7.563 -0.9301  0.8477  0.8139
  133MOL0     H17948   3.868   9.483   7.409  3.5815  4.2909  0.5223
  133MOL0     H17949   3.664   9.611   7.505  1.0839 -1.1366 -1.1874
  133MOL0     H17950   3.711   9.543   7.665  2.8434  3.9657 -0.4334
  133MOL0     H17951   3.618   9.338   7.621 -1.6880  0.0963  0.5385
  133MOL0     H17952   3.641   9.343   7.445  0.6392  0.4280 -0.1740
  133MOL0     H17953   3.275   9.520   7.546  0.1743 -3.0782  5.2521
  133MOL0     H17954   4.143   9.803   7.601 -0.9256 -0.6292  0.2161
  133MOL0     H17955   4.372   9.890   7.558 -2.5790 -0.1487  1.1414
  134MOL0     O17956   5.130   7.599  10.067 -0.5307 -0.6257 -0.0477
  134MOL0     C17957   5.159   7.693   9.996 -0.7060  0.4036  0.5675
  134MOL0     O17958   5.076   7.799   9.967 -0.6953  0.3846  0.3411
  134MOL0     C17959   4.941   7.776   9.984  0.0906  0.1458  0.1127
  134MOL0     C17960   4.879   7.733  10.100  0.6106 -0.4513  0.5500
  134MOL0     C17961   4.735   7.741  10.109  0.9582  0.3001 -0.3293
  134MOL0     C17962   4.658   7.785  10.006 -0.0569  0.5856  0.3638
  134MOL0     O17963   4.521   7.804  10.008 -0.5554  1.0483 -0.3082
  134MOL0     C17964   4.463   7.728  10.114 -0.3085 -0.9718  0.0337
  134MOL0     C17965   4.313   7.738  10.106 -0.9430 -0.3457 -0.7317
  134MOL0     C17966   4.248   7.869  10.150 -0.3789 -0.5886  0.2543
  134MOL0     C17967   4.109   7.899  10.087  0.4225 -0.2980 -0.1739
  134MOL0     C17968   4.017   7.786  10.131 -0.5774  0.8471  0.2665
  134MOL0     C17969   3.865   7.817  10.122  0.4803 -0.2808  0.3367
  134MOL0     C17970   3.772   7.720  10.208 -0.1692 -0.3370  0.0711
  134MOL0     C17971   3.626   7.764  10.212  0.2521  0.3727 -0.6636
  134MOL0     N17972   3.543   7.671  10.291 -0.5867 -0.2165  0.0793
  134MOL0     C17973   3.530   7.537  10.268 -0.0684 -1.1014  0.5294
  134MOL0     C17974   3.440   7.495  10.357 -0.0232 -0.5447 -0.3493
  134MOL0     C17975   3.381   7.353  10.352  0.1261  0.2099 -0.2293
  134MOL0     C17976   3.239   7.358  10.290  0.2239 -0.4617  0.9895
  134MOL0     C17977   3.129   7.399  10.391 -0.9757 -0.6216 -0.2933
  134MOL0     C17978   3.034   7.496  10.322  0.1656  0.6039 -0.1489
  134MOL0     O17979   2.928   7.517  10.410  0.3109  0.0077 -0.5822
  134MOL0     C17980   2.798   7.524  10.358  0.3426  0.0213  1.0253
  134MOL0     C17981   2.688   7.524  10.449  0.2241  0.2531  0.5949
  134MOL0     C17982   2.555   7.511  10.400 -0.5734  0.0237 -0.0764
  134MOL0     C17983   2.442   7.484  10.502  1.2475 -0.6719  0.3004
  134MOL0     C17984   2.531   7.531  10.261 -1.7039  0.6883 -0.2595
  134MOL0     C17985   2.397   7.510  10.196 -0.3114  0.2797 -0.0651
  134MOL0     O17986   2.351   7.607  10.114  0.2869 -0.3603  0.2496
  134MOL0     C17987   2.220   7.584  10.074 -0.5198  0.0260  0.5271
  134MOL0     C17988   2.192   7.609   9.941  0.1531 -0.2787 -0.4381
  134MOL0     C17989   2.064   7.615   9.899  0.1765  0.4387  0.2195
  134MOL0     C17990   1.957   7.603   9.990 -0.2706 -0.0394  0.1102
  134MOL0     O17991   1.832   7.618   9.958  0.7102 -0.0108 -0.0430
  134MOL0     C17992   1.754   7.506   9.962  0.4019  1.0812 -0.3433
  134MOL0     C17993   1.609   7.529   9.922 -0.3217  0.2571 -0.1618
  134MOL0     C17994   1.523   7.590  10.039  0.5812  0.2390  0.2307
  134MOL0     C17995   1.382   7.617  10.006  0.0182 -0.9247  0.2001
  134MOL0     C17996   1.315   7.479   9.963 -0.5708  0.4025  0.0908
  134MOL0     C17997   1.165   7.525   9.945 -0.6897 -0.4789  0.2336
  134MOL0     C17998   1.083   7.397   9.926  0.2741 -0.2741 -0.1106
  134MOL0     C17999   0.938   7.421   9.952  0.4864  0.3637  0.1450
  134MOL0    Cl18000   0.877   7.557   9.859 -0.1108  0.0406  0.2660
  134MOL0     C18001   1.985   7.580  10.127  0.2020 -0.1974 -0.0082
  134MOL0     C18002   2.115   7.568  10.175  0.1459 -0.0046  0.2300
  134MOL0     O18003   2.340   7.403  10.220 -0.0542 -0.1391 -0.1315
  134MOL0     C18004   2.643   7.552  10.176  1.5835  0.3514 -0.1347
  134MOL0     C18005   2.769   7.530  10.221 -0.0092  0.2356  0.8882
  134MOL0     N18006   3.397   7.603  10.434  0.1799 -0.5755  0.2735
  134MOL0     N18007   3.464   7.707  10.391  0.1898 -0.3907 -0.2095
  134MOL0     C18008   4.720   7.829   9.891 -0.0392 -0.0554  0.1076
  134MOL0     C18009   4.861   7.825   9.887  0.4794  0.3353 -0.0461
  134MOL0     C18010   5.305   7.701   9.960 -0.5103 -0.8762 -0.8363
  134MOL0     C18011   5.348   7.792   9.859  0.0587 -0.0674  0.6479
  134MOL0     C18012   5.481   7.805   9.828  0.0492  0.7844 -0.7112
  134MOL0     C18013   5.580   7.728   9.895  0.1689 -0.5570  1.0168
  134MOL0     O18014   5.711   7.758   9.878 -0.8823 -0.7296  0.7608
  134MOL0     C18015   5.757   7.872   9.802 -0.0169 -0.6550 -0.6814
  134MOL0     C18016   5.912   7.849   9.796  0.4726  0.4701 -0.2782
  134MOL0     C18017   5.988   7.846   9.938  0.8304  1.0888 -0.3309
  134MOL0     C18018   6.128   7.901   9.943  0.6110 -0.7274  0.7224
  134MOL0     C18019   6.154   8.040   9.905 -0.3090 -0.0826 -0.9871
  134MOL0     C18020   6.183   8.154   9.862  0.9377  0.5594  0.2439
  134MOL0     C18021   5.536   7.630   9.989  0.0383  0.1849  0.0371
  134MOL0     C18022   5.399   7.613  10.017 -0.8465 -1.3349 -0.0195
  134MOL0     H18023   4.934   7.702  10.189  0.0366 -1.5963  0.5185
  134MOL0     H18024   4.685   7.703  10.198 -0.3846  1.4796 -0.5516
  134MOL0     H18025   4.491   7.623  10.103  2.9767 -0.6502  3.3559
  134MOL0     H18026   4.494   7.779  10.206 -1.7239 -1.1485  0.6463
  134MOL0     H18027   4.290   7.717  10.001 -1.7558 -2.0112 -0.2554
  134MOL0     H18028   4.259   7.671  10.173 -1.0136  2.3188  2.0963
  134MOL0     H18029   4.251   7.875  10.259 -0.3580  4.6260  0.2106
  134MOL0     H18030   4.319   7.945  10.114  2.2696 -2.3167  1.5094
  134MOL0     H18031   4.075   7.992  10.133  0.8504 -0.1765 -0.1004
  134MOL0     H18032   4.113   7.915   9.979 -0.7827 -0.5262 -0.2739
  134MOL0     H18033   4.047   7.698  10.074 -1.2387  1.0225 -0.3619
  134MOL0     H18034   4.037   7.761  10.236 -2.5745 -1.1154  0.2291
  134MOL0     H18035   3.856   7.922  10.153  1.7959 -0.7567  2.4935
  134MOL0     H18036   3.829   7.805  10.019 -1.1185  0.3371  0.7828
  134MOL0     H18037   3.773   7.622  10.161 -0.2248 -1.0113  1.4458
  134MOL0     H18038   3.812   7.723  10.310 -0.5324  1.6907  0.2111
  134MOL0     H18039   3.592   7.764  10.108  2.9020  1.2794 -1.6261
  134MOL0     H18040   3.613   7.857  10.269 -0.3963  0.5957 -1.1732
  134MOL0     H18041   3.579   7.479  10.191 -0.8343  0.3346 -1.1020
  134MOL0     H18042   3.446   7.288  10.292 -1.2484 -1.9370  0.4720
  134MOL0     H18043   3.377   7.294  10.444  2.2871 -1.7035 -1.2375
  134MOL0     H18044   3.221   7.254  10.261  0.1482  0.0608 -0.9796
  134MOL0     H18045   3.240   7.431  10.209 -0.3242 -1.9877 -0.4468
  134MOL0     H18046   3.179   7.446  10.476  1.3260 -1.0410 -1.3454
  134MOL0     H18047   3.068   7.313  10.422  0.8605 -1.8130  0.2192
  134MOL0     H18048   3.014   7.448  10.226  1.5843  2.4395 -1.4302
  134MOL0     H18049   3.067   7.598  10.301 -1.4331  1.6590  2.0075
  134MOL0     H18050   2.722   7.529  10.552  0.2604  0.8576  0.5576
  134MOL0     H18051   2.376   7.404  10.469 -0.7294  1.2566 -0.6919
  134MOL0     H18052   2.491   7.444  10.591 -0.9480 -1.3536  1.2738
  134MOL0     H18053   2.384   7.574  10.526 -0.8984 -2.1000  0.7522
  134MOL0     H18054   2.278   7.635   9.880  0.2115  2.0701  0.5238
  134MOL0     H18055   2.036   7.643   9.798  0.3933  0.5025  0.1766
  134MOL0     H18056   1.796   7.439   9.886  0.8269 -2.0387  2.3781
  134MOL0     H18057   1.743   7.461  10.061 -3.3516  0.8050 -0.7684
  134MOL0     H18058   1.596   7.584   9.829  0.1018 -1.1227 -1.0667
  134MOL0     H18059   1.567   7.429   9.909 -2.0551  1.0669 -1.0717
  134MOL0     H18060   1.563   7.691  10.055 -3.7142  2.8165 -3.0185
  134MOL0     H18061   1.536   7.529  10.129  0.6598  0.5926  0.4649
  134MOL0     H18062   1.335   7.650  10.099 -2.3186  0.6701 -1.4264
  134MOL0     H18063   1.363   7.695   9.931 -1.8692 -0.7250  0.8535
  134MOL0     H18064   1.339   7.402  10.037 -0.2163  0.3934 -0.0339
  134MOL0     H18065   1.348   7.428   9.873 -0.4153 -1.7197  1.2829
  134MOL0     H18066   1.129   7.583  10.030 -1.6105 -0.0020 -0.4662
  134MOL0     H18067   1.149   7.582   9.852  0.9396 -0.7259 -0.2396
  134MOL0     H18068   1.125   7.315   9.984  1.7495 -0.1849 -1.0060
  134MOL0     H18069   1.090   7.356   9.824 -0.1908  0.4760 -0.4570
  134MOL0     H18070   0.931   7.433  10.060 -1.1359 -1.7999  0.3360
  134MOL0     H18071   0.880   7.331   9.932  0.9523 -0.4496  2.2285
  134MOL0     H18072   1.903   7.568  10.197 -0.8000  2.7249 -0.5730
  134MOL0     H18073   2.132   7.566  10.282 -1.9719 -0.7456  0.5868
  134MOL0     H18074   2.620   7.580  10.074 -0.2867 -0.2714  0.0637
  134MOL0     H18075   2.843   7.524  10.141 -1.1650 -1.9653 -0.1027
  134MOL0     H18076   4.665   7.868   9.806  2.0959  1.9545 -0.4489
  134MOL0     H18077   4.910   7.858   9.796 -0.2345 -4.4465 -2.4602
  134MOL0     H18078   5.278   7.851   9.801 -0.1465 -1.2261 -0.3286
  134MOL0     H18079   5.487   7.886   9.755  0.3689  0.9889 -0.4646
  134MOL0     H18080   5.717   7.862   9.700 -0.8117  0.7577 -0.5304
  134MOL0     H18081   5.733   7.971   9.840  0.3644 -0.9936  0.4653
  134MOL0     H18082   5.952   7.932   9.736 -0.3684  1.4856  0.5265
  134MOL0     H18083   5.934   7.761   9.736 -2.3021 -4.2335  4.7020
  134MOL0     H18084   5.991   7.744   9.975 -3.0759 -0.1737 -2.8275
  134MOL0     H18085   5.923   7.902  10.006  0.1717  1.6687 -1.4112
  134MOL0     H18086   6.190   7.839   9.877  0.3087  0.9794 -1.2928
  134MOL0     H18087   6.153   7.902  10.049 -1.5968  5.4040  1.5992
  134MOL0     H18088   6.227   8.244   9.825  0.3347  0.2669 -1.2693
  134MOL0     H18089   5.605   7.579  10.055  0.6359  3.4066  2.1388
  134MOL0     H18090   5.374   7.539  10.093  2.3131 -1.2059  1.3051
  135MOL0     O18091   2.947   5.020   0.275 -0.2475  0.5797 -0.0060
  135MOL0     C18092   3.020   5.027   0.180  0.2489  0.0896 -0.9957
  135MOL0     O18093   2.982   5.019   0.051 -0.0987  0.0579 -0.2403
  135MOL0     C18094   2.849   5.018   0.014 -0.5242 -0.3195  0.4277
  135MOL0     C18095   2.739   5.070   0.087 -0.3971  0.4400  0.2156
  135MOL0     C18096   2.607   5.070   0.039 -0.4982 -0.3066 -0.3698
  135MOL0     C18097   2.582   5.018  -0.085  0.0526 -0.0493  1.1482
  135MOL0     O18098   2.456   5.025  -0.141  0.0537  0.4784  0.4715
  135MOL0     C18099   2.377   5.143  -0.110 -0.3219  0.2284  0.4273
  135MOL0     C18100   2.282   5.175  -0.227  0.3465 -1.1883 -0.3212
  135MOL0     C18101   2.343   5.169  -0.368 -1.0358 -0.0730 -0.1840
  135MOL0     C18102   2.243   5.176  -0.483 -0.6078 -0.2329 -0.1588
  135MOL0     C18103   2.152   5.303  -0.475 -0.3022  0.9053  0.4795
  135MOL0     C18104   2.058   5.329  -0.594 -0.7289  0.1344  0.1086
  135MOL0     C18105   1.980   5.208  -0.644  0.6339  0.2499 -0.2657
  135MOL0     C18106   1.873   5.171  -0.531 -0.0378 -0.1022 -0.1372
  135MOL0     N18107   1.780   5.290  -0.495 -0.2254 -0.2638 -0.1879
  135MOL0     C18108   1.709   5.323  -0.385 -0.7225 -0.3176 -1.2181
  135MOL0     C18109   1.640   5.437  -0.411 -0.6594  0.4177  0.0009
  135MOL0     C18110   1.566   5.524  -0.310  0.4372  0.5855 -1.1462
  135MOL0     C18111   1.665   5.560  -0.199 -0.5683 -0.2610  0.3673
  135MOL0     C18112   1.789   5.641  -0.253 -0.9260 -0.5078  0.0149
  135MOL0     C18113   1.929   5.570  -0.247  0.3925  0.1677  0.3249
  135MOL0     O18114   1.938   5.543  -0.102 -0.2197  0.5250 -0.0590
  135MOL0     C18115   2.061   5.511  -0.052 -0.5540  0.6189 -1.0532
  135MOL0     C18116   2.066   5.449   0.079 -0.2214 -0.7158 -0.6933
  135MOL0     C18117   2.190   5.431   0.144  0.9274 -0.1221  0.9632
  135MOL0     C18118   2.182   5.364   0.276 -0.0416  0.7160 -0.7708
  135MOL0     C18119   2.310   5.450   0.072 -0.9191 -0.2909 -0.5558
  135MOL0     C18120   2.435   5.410   0.126 -0.4745  0.3044  0.4055
  135MOL0     O18121   2.447   5.433   0.263  0.1003  0.4330  0.6905
  135MOL0     C18122   2.567   5.415   0.322 -0.1788  0.3789 -0.0081
  135MOL0     C18123   2.647   5.525   0.337  0.4195 -0.7206 -0.1783
  135MOL0     C18124   2.758   5.526   0.419 -0.1499  0.0517 -0.6024
  135MOL0     C18125   2.806   5.404   0.462  1.2762  0.1982 -0.2178
  135MOL0     O18126   2.933   5.391   0.503  0.1963  0.1052  0.0613
  135MOL0     C18127   3.030   5.491   0.472  0.7324 -0.1110 -0.0561
  135MOL0     C18128   3.168   5.431   0.509 -0.1794  0.0518  0.4601
  135MOL0     C18129   3.183   5.387   0.651  0.1829 -0.7159  0.9225
  135MOL0     C18130   3.321   5.400   0.697 -0.2985 -1.3076 -0.9391
  135MOL0     C18131   3.430   5.310   0.634  0.2443  0.8106  0.3332
  135MOL0     C18132   3.542   5.284   0.741 -1.3349 -0.4878 -0.0047
  135MOL0     C18133   3.642   5.399   0.727 -0.2853 -0.5949 -0.5831
  135MOL0     C18134   3.783   5.367   0.766 -0.9634  0.3033  0.5675
  135MOL0    Cl18135   3.866   5.235   0.679  0.0675  0.5082 -0.1806
  135MOL0     C18136   2.725   5.288   0.433  0.2944 -0.4095  0.2158
  135MOL0     C18137   2.601   5.293   0.368  0.3454  0.1376  0.1326
  135MOL0     O18138   2.531   5.385   0.051  1.1581 -0.5591  0.6777
  135MOL0     C18139   2.304   5.494  -0.060 -0.0388  0.1525 -0.2890
  135MOL0     C18140   2.181   5.523  -0.118 -0.0299 -0.3340 -0.2655
  135MOL0     N18141   1.649   5.460  -0.541 -0.4938 -0.0010  0.5133
  135MOL0     N18142   1.737   5.384  -0.597  0.6062  0.4567 -0.2913
  135MOL0     C18143   2.688   4.970  -0.161 -0.3347  0.1409 -0.0183
  135MOL0     C18144   2.820   4.968  -0.108  0.6259  0.1673 -0.3185
  135MOL0     C18145   3.165   5.043   0.210  0.5613 -0.3862 -0.2571
  135MOL0     C18146   3.255   5.059   0.111  0.0353 -0.1841 -0.0194
  135MOL0     C18147   3.394   5.070   0.135  0.1292  0.3284  0.7108
  135MOL0     C18148   3.446   5.045   0.257  0.1511 -0.4318  0.0913
  135MOL0     O18149   3.584   5.039   0.268 -0.5640  0.7287  0.1398
  135MOL0     C18150   3.648   5.033   0.401  0.9613 -0.8053 -0.0731
  135MOL0     C18151   3.800   5.028   0.395  0.4898 -0.4862 -0.0235
  135MOL0     C18152   3.853   4.942   0.513 -0.5628 -0.4620  0.1272
  135MOL0     C18153   4.004   4.926   0.524 -0.5556 -0.0033 -0.4748
  135MOL0     C18154   4.036   4.845   0.645  0.5547 -0.3586 -0.9866
  135MOL0     C18155   4.088   4.769   0.728 -0.5886 -0.4980 -0.2292
  135MOL0     C18156   3.358   5.018   0.357  0.3596 -1.0724  0.4611
  135MOL0     C18157   3.220   5.017   0.335  0.2113 -0.1893 -0.0390
  135MOL0     H18158   2.764   5.129   0.175  0.2321  0.4692  0.0224
  135MOL0     H18159   2.531   5.115   0.102 -0.9927 -0.9103 -0.5294
  135MOL0     H18160   2.316   5.126  -0.021  0.0665 -1.1449  0.4615
  135MOL0     H18161   2.445   5.228  -0.101 -0.7167  0.3518  3.0044
  135MOL0     H18162   2.204   5.101  -0.209 -0.1099 -1.0249 -1.5532
  135MOL0     H18163   2.240   5.275  -0.211 -0.7815 -1.6114 -0.5358
  135MOL0     H18164   2.417   5.249  -0.372  1.7543 -2.4830  0.3771
  135MOL0     H18165   2.401   5.077  -0.377 -1.9885 -0.5331 -2.6172
  135MOL0     H18166   2.307   5.179  -0.571  0.8393 -0.2659  0.8538
  135MOL0     H18167   2.187   5.082  -0.486  0.1335 -0.7355  0.9392
  135MOL0     H18168   2.088   5.307  -0.387  0.2109 -1.7823  1.0822
  135MOL0     H18169   2.216   5.392  -0.469 -0.1530  0.9874 -1.4774
  135MOL0     H18170   2.001   5.417  -0.563  1.5076  1.5450  0.4509
  135MOL0     H18171   2.120   5.365  -0.676  0.2071 -0.4015  0.5583
  135MOL0     H18172   1.932   5.235  -0.739  0.5655  0.7596 -0.0883
  135MOL0     H18173   2.051   5.128  -0.663  2.8365  1.6452  1.5998
  135MOL0     H18174   1.914   5.132  -0.437 -0.5873  2.2146  1.1501
  135MOL0     H18175   1.819   5.088  -0.577  0.1633  0.4611 -1.4232
  135MOL0     H18176   1.733   5.282  -0.287  0.7108  1.2016 -0.8961
  135MOL0     H18177   1.515   5.612  -0.350  2.0292  1.1640 -1.9704
  135MOL0     H18178   1.487   5.465  -0.263 -0.8999  2.0309 -1.5069
  135MOL0     H18179   1.698   5.471  -0.146  0.7300  0.3022  0.5320
  135MOL0     H18180   1.609   5.625  -0.130 -1.9431  0.1295 -1.0694
  135MOL0     H18181   1.803   5.732  -0.195  3.0121  0.4635 -2.1347
  135MOL0     H18182   1.771   5.678  -0.355 -1.0909 -1.5833 -0.3657
  135MOL0     H18183   2.001   5.640  -0.291  0.0548  0.0629 -0.4162
  135MOL0     H18184   1.921   5.479  -0.307 -3.1653 -1.2650  2.6248
  135MOL0     H18185   1.973   5.435   0.134 -0.6109  1.8375 -0.5960
  135MOL0     H18186   2.077   5.336   0.292 -0.4836  1.8445 -1.5290
  135MOL0     H18187   2.241   5.273   0.284 -1.5947 -0.3411 -0.9632
  135MOL0     H18188   2.216   5.423   0.361  0.5365 -2.3333  1.2638
  135MOL0     H18189   2.608   5.619   0.299  3.5929 -0.3064 -2.8767
  135MOL0     H18190   2.800   5.623   0.446 -0.1351 -0.4527  1.3562
  135MOL0     H18191   3.041   5.509   0.365  0.2737  0.6845  0.0243
  135MOL0     H18192   3.004   5.588   0.516  1.3113 -0.3808  0.9070
  135MOL0     H18193   3.190   5.347   0.441  1.6951  1.6430 -1.0450
  135MOL0     H18194   3.246   5.506   0.493 -2.4661  2.2494 -1.2138
  135MOL0     H18195   3.153   5.282   0.659  1.1208 -1.1178 -0.4834
  135MOL0     H18196   3.127   5.464   0.705 -0.0055  1.2033 -1.7938
  135MOL0     H18197   3.360   5.502   0.687 -0.3347 -1.4214 -2.5891
  135MOL0     H18198   3.317   5.389   0.806  3.9508  2.7945 -0.0496
  135MOL0     H18199   3.471   5.348   0.540  2.9762 -1.8802  0.2832
  135MOL0     H18200   3.384   5.215   0.607 -1.6664  1.8352 -0.2179
  135MOL0     H18201   3.496   5.289   0.840 -3.0910  2.3431 -0.8737
  135MOL0     H18202   3.582   5.183   0.723  2.3138  0.7538  0.2269
  135MOL0     H18203   3.614   5.471   0.805 -1.7278 -0.2398 -1.3965
  135MOL0     H18204   3.642   5.437   0.624  0.2969 -0.3187 -0.4804
  135MOL0     H18205   3.779   5.327   0.868 -1.4845 -3.1247 -0.6526
  135MOL0     H18206   3.842   5.458   0.756 -0.1035 -0.2339  0.6331
  135MOL0     H18207   2.752   5.186   0.456  3.4306  0.5610  1.4502
  135MOL0     H18208   2.540   5.206   0.346  0.1467  0.5745 -1.1359
  135MOL0     H18209   2.396   5.505  -0.116  0.2565  0.4843  0.2557
  135MOL0     H18210   2.191   5.570  -0.216  1.3758  0.4885  0.2278
  135MOL0     H18211   2.652   4.942  -0.260  1.1405 -0.0661 -0.5264
  135MOL0     H18212   2.892   4.916  -0.171 -1.7938 -0.4887 -2.7637
  135MOL0     H18213   3.221   5.072   0.009 -0.3836 -1.3444 -0.0492
  135MOL0     H18214   3.453   5.066   0.045  2.5072  3.5904  1.9585
  135MOL0     H18215   3.621   5.119   0.463  0.4135  0.6640 -2.2218
  135MOL0     H18216   3.611   4.941   0.446  1.6468 -0.5308  1.0921
  135MOL0     H18217   3.844   5.127   0.410  0.0243 -0.3946  0.8288
  135MOL0     H18218   3.837   4.994   0.298  1.6682  2.5808 -0.7456
  135MOL0     H18219   3.800   4.846   0.513 -3.4006  0.9820 -0.2334
  135MOL0     H18220   3.807   4.978   0.605 -0.1378  0.5807 -0.0518
  135MOL0     H18221   4.051   5.024   0.529 -1.2971  0.4911 -2.4092
  135MOL0     H18222   4.035   4.861   0.442 -3.8280 -1.2976 -0.8544
  135MOL0     H18223   4.135   4.694   0.788  0.5491  0.0166 -0.4491
  135MOL0     H18224   3.387   5.003   0.461 -0.5774  2.3437  1.3440
  135MOL0     H18225   3.153   5.002   0.419  2.6139 -1.5599  1.7878
  136MOL0     O18226   6.422   9.500   3.020  0.3694 -0.3406  1.1492
  136MOL0     C18227   6.461   9.385   3.042 -0.1537 -0.2702  0.4001
  136MOL0     O18228   6.382   9.271   3.035 -0.4414 -0.0426  0.0061
  136MOL0     C18229   6.247   9.290   3.018  0.1323  0.8072 -0.4136
  136MOL0     C18230   6.190   9.332   2.902  0.6053 -0.6077  0.0527
  136MOL0     C18231   6.049   9.345   2.895  0.3480  0.4574 -0.5120
  136MOL0     C18232   5.972   9.318   3.006 -1.0364  0.3222  0.3503
  136MOL0     O18233   5.845   9.359   2.993  0.5945 -0.1183  1.0377
  136MOL0     C18234   5.750   9.333   3.094 -0.2550  0.8474  0.2707
  136MOL0     C18235   5.610   9.363   3.051  0.0575 -0.3629 -0.5298
  136MOL0     C18236   5.589   9.510   3.018  0.3933  0.4807 -0.1639
  136MOL0     C18237   5.441   9.557   2.979  0.3069 -0.4492  0.1571
  136MOL0     C18238   5.425   9.707   3.022  1.1172 -0.5345 -0.0659
  136MOL0     C18239   5.273   9.762   3.012 -0.4477 -0.9917  0.2423
  136MOL0     C18240   5.268   9.911   3.063  0.4020 -0.3360  0.1024
  136MOL0     C18241   5.135   9.986   3.058  0.8901 -0.5126 -0.2576
  136MOL0     N18242   5.030   9.893   3.086 -0.4983 -0.4014  0.5573
  136MOL0     C18243   4.931   9.860   2.997  0.5512 -0.1869  0.5614
  136MOL0     C18244   4.839   9.792   3.063 -0.2066 -1.1780 -0.3397
  136MOL0     C18245   4.707   9.741   3.020  0.3390  0.5358  0.6395
  136MOL0     C18246   4.705   9.583   3.049 -0.0122  0.3984  0.4369
  136MOL0     C18247   4.567   9.521   3.017 -0.0547 -0.4726 -0.1892
  136MOL0     C18248   4.561   9.374   3.025  0.1140  0.3865  0.8866
  136MOL0     O18249   4.444   9.315   2.961 -0.6479  0.1401 -0.7342
  136MOL0     C18250   4.335   9.304   3.049 -0.5563  0.0556 -0.0306
  136MOL0     C18251   4.257   9.418   3.067  0.2027 -0.8212 -0.1704
  136MOL0     C18252   4.139   9.415   3.142 -0.1762  0.1257  0.2390
  136MOL0     C18253   4.048   9.535   3.143 -0.0828 -0.0614  0.1310
  136MOL0     C18254   4.102   9.294   3.214  0.5364  0.0830 -0.4253
  136MOL0     C18255   3.987   9.274   3.297  0.6409  0.1232 -0.2215
  136MOL0     O18256   3.993   9.176   3.394 -0.0574 -0.3703 -0.0599
  136MOL0     C18257   3.893   9.149   3.488  0.1560  0.3686  0.3996
  136MOL0     C18258   3.881   9.014   3.516  0.3207 -0.6636 -1.0620
  136MOL0     C18259   3.766   8.963   3.584  0.2311  0.3592 -0.6173
  136MOL0     C18260   3.672   9.053   3.634  0.3343 -0.4469  0.2739
  136MOL0     O18261   3.563   9.009   3.702  0.0788  0.0959 -0.2089
  136MOL0     C18262   3.437   9.079   3.714 -0.9489 -0.5831 -0.4367
  136MOL0     C18263   3.351   8.976   3.785 -0.2200 -0.8596  1.1806
  136MOL0     C18264   3.211   9.026   3.808 -0.4111  1.1426  0.4519
  136MOL0     C18265   3.116   8.905   3.846  0.3696 -0.1101 -0.0722
  136MOL0     C18266   2.977   8.966   3.899 -0.4082  0.5731 -0.2393
  136MOL0     C18267   2.890   8.858   3.949  1.0940 -0.4214  0.4937
  136MOL0     C18268   2.755   8.911   3.980  0.3111  0.1693 -0.3583
  136MOL0     C18269   2.654   8.795   3.998 -0.6469  1.3581  0.3960
  136MOL0    Cl18270   2.495   8.842   4.059 -0.1475  0.0029 -0.0833
  136MOL0     C18271   3.689   9.190   3.599 -0.6888  0.0223  1.0253
  136MOL0     C18272   3.801   9.242   3.538 -0.0060 -0.1067  0.8098
  136MOL0     O18273   3.877   9.331   3.265 -0.6401  0.3025  0.4665
  136MOL0     C18274   4.189   9.182   3.196 -0.5429 -0.0418  0.0290
  136MOL0     C18275   4.299   9.181   3.119 -0.9769 -0.1487  0.4634
  136MOL0     N18276   4.885   9.789   3.196  0.7780  0.1759  0.1838
  136MOL0     N18277   4.998   9.849   3.211  0.9684 -0.1248  0.7230
  136MOL0     C18278   6.035   9.265   3.121 -0.7822 -0.0360 -0.0491
  136MOL0     C18279   6.172   9.243   3.120 -0.0910  0.4546 -1.1268
  136MOL0     C18280   6.607   9.368   3.060  0.5506 -0.2808 -0.2707
  136MOL0     C18281   6.673   9.244   3.008 -0.4182 -0.5121  0.8757
  136MOL0     C18282   6.815   9.236   3.025  0.4386 -0.4551  0.2596
  136MOL0     C18283   6.887   9.341   3.075 -1.0426  0.8733  0.0882
  136MOL0     O18284   7.022   9.313   3.092 -0.0889 -0.3627 -0.3558
  136MOL0     C18285   7.094   9.403   3.177 -0.4471 -0.5763 -0.1166
  136MOL0     C18286   7.152   9.524   3.095 -0.7463  0.0930  0.3238
  136MOL0     C18287   7.232   9.484   2.975  0.7127  0.4536 -0.4698
  136MOL0     C18288   7.355   9.407   3.015  0.1752  0.3172 -0.2343
  136MOL0     C18289   7.440   9.389   2.897  0.4102  0.3106 -0.3172
  136MOL0     C18290   7.499   9.343   2.802  0.0662  1.1325  0.3701
  136MOL0     C18291   6.823   9.463   3.113  0.1845  1.1255  0.2857
  136MOL0     C18292   6.687   9.475   3.100  0.3836 -0.0102 -0.0948
  136MOL0     H18293   6.246   9.375   2.820  1.1431 -0.6062  0.4159
  136MOL0     H18294   6.003   9.395   2.810  2.1583 -0.1539 -1.9299
  136MOL0     H18295   5.767   9.230   3.129 -0.5167  0.6485 -0.1703
  136MOL0     H18296   5.775   9.395   3.180 -1.4607  0.5378  0.8623
  136MOL0     H18297   5.563   9.301   2.974 -4.9894 -2.9708  3.9612
  136MOL0     H18298   5.552   9.320   3.134  1.6551 -0.2539  0.6872
  136MOL0     H18299   5.620   9.560   3.111  0.1466 -0.9723  0.7297
  136MOL0     H18300   5.661   9.543   2.942  0.9549  2.9091  1.3005
  136MOL0     H18301   5.442   9.550   2.869  0.4288  1.2251  0.0358
  136MOL0     H18302   5.366   9.489   3.021  0.8984 -0.7672  0.7103
  136MOL0     H18303   5.452   9.707   3.128 -0.1438  1.3549  0.3017
  136MOL0     H18304   5.494   9.771   2.966 -0.2776  1.5106  0.4512
  136MOL0     H18305   5.221   9.751   2.916 -2.7619 -0.0463  1.3152
  136MOL0     H18306   5.207   9.709   3.081 -2.0610  0.6578  0.0427
  136MOL0     H18307   5.300   9.920   3.168 -1.1038  1.6847  0.4678
  136MOL0     H18308   5.344   9.976   3.020  1.9677 -0.1661  2.8689
  136MOL0     H18309   5.112  10.042   2.966  1.1800 -0.8830 -0.5564
  136MOL0     H18310   5.140  10.051   3.146  1.8913 -2.4369  1.1859
  136MOL0     H18311   4.919   9.900   2.897 -1.3355  1.6066  1.4265
  136MOL0     H18312   4.621   9.774   3.079 -0.9680 -1.0344 -0.2872
  136MOL0     H18313   4.683   9.747   2.913  0.3829  1.9420  0.6865
  136MOL0     H18314   4.725   9.574   3.157  0.0508  0.8126  0.4631
  136MOL0     H18315   4.780   9.527   2.994  1.8327 -0.4853  3.6081
  136MOL0     H18316   4.547   9.549   2.914 -2.8854 -0.4249  0.3024
  136MOL0     H18317   4.489   9.576   3.070  0.7421  2.4060 -1.8176
  136MOL0     H18318   4.569   9.351   3.131  1.3509 -0.8369  0.5446
  136MOL0     H18319   4.648   9.328   2.978 -0.7373 -0.1113 -0.2593
  136MOL0     H18320   4.284   9.508   3.013 -2.9291  0.6724  0.5509
  136MOL0     H18321   4.085   9.603   3.067 -1.2030 -0.5470 -0.8884
  136MOL0     H18322   3.944   9.507   3.122  0.1247 -2.6386  1.9596
  136MOL0     H18323   4.044   9.586   3.240  0.4486 -3.3102  2.0276
  136MOL0     H18324   3.962   8.946   3.494  1.7287 -0.0399  1.7079
  136MOL0     H18325   3.753   8.857   3.607 -1.2964  0.7177  0.2969
  136MOL0     H18326   3.434   9.163   3.784 -0.9218 -0.0184 -1.0905
  136MOL0     H18327   3.390   9.117   3.622 -0.7822 -0.4623 -0.4742
  136MOL0     H18328   3.348   8.877   3.740 -1.8592  0.0754 -0.9535
  136MOL0     H18329   3.390   8.963   3.887  0.4469  1.9164  1.3479
  136MOL0     H18330   3.165   9.072   3.720  0.4863  0.2471 -0.5152
  136MOL0     H18331   3.210   9.099   3.889 -1.4759  1.6116  0.0301
  136MOL0     H18332   3.099   8.841   3.758  0.2240  0.3531 -0.3858
  136MOL0     H18333   3.170   8.838   3.914  1.8782  0.3514 -0.7625
  136MOL0     H18334   2.924   9.024   3.822  0.9506  3.3197  0.7447
  136MOL0     H18335   2.989   9.032   3.985 -3.3579  1.8176 -0.6521
  136MOL0     H18336   2.882   8.803   3.855  0.4808  2.0245 -0.9935
  136MOL0     H18337   2.921   8.792   4.031 -1.7621 -2.7210 -0.1177
  136MOL0     H18338   2.722   8.968   3.893 -2.2914 -0.1694  0.3051
  136MOL0     H18339   2.758   8.981   4.064 -1.0487  0.8344 -0.8320
  136MOL0     H18340   2.697   8.711   4.052  1.5790  1.6200 -0.8387
  136MOL0     H18341   2.642   8.753   3.898 -0.1223 -1.1967  1.3339
  136MOL0     H18342   3.615   9.254   3.646  0.1302  1.5990  0.2392
  136MOL0     H18343   3.810   9.350   3.526  0.3595 -0.2528 -0.4147
  136MOL0     H18344   4.189   9.094   3.260  2.7684  1.1713  1.8956
  136MOL0     H18345   4.353   9.088   3.107 -0.8313 -0.0357  0.2325
  136MOL0     H18346   5.986   9.239   3.214 -1.8291 -1.8465 -1.0511
  136MOL0     H18347   6.225   9.196   3.202 -2.5019  0.2800  0.4347
  136MOL0     H18348   6.594   9.179   2.973 -2.8605  3.1710 -1.1162
  136MOL0     H18349   6.867   9.149   2.987  1.8515  0.6165 -0.3347
  136MOL0     H18350   7.033   9.441   3.259 -0.0638 -1.7605  0.7491
  136MOL0     H18351   7.185   9.351   3.208 -0.5592 -0.5162  0.3241
  136MOL0     H18352   7.218   9.578   3.163  2.5620 -4.8575  1.6370
  136MOL0     H18353   7.070   9.586   3.060 -0.7106 -0.5146 -0.8872
  136MOL0     H18354   7.252   9.584   2.934  1.5737  0.1112 -0.8825
  136MOL0     H18355   7.168   9.428   2.907 -1.1752  2.4379 -0.4557
  136MOL0     H18356   7.331   9.306   3.049 -2.5272  1.0435  0.3157
  136MOL0     H18357   7.417   9.468   3.081 -0.6338  2.4328 -1.3463
  136MOL0     H18358   7.556   9.328   2.713 -0.4349  1.6978 -0.0527
  136MOL0     H18359   6.875   9.551   3.150 -3.2563  3.2907  0.4601
  136MOL0     H18360   6.648   9.576   3.114  0.7077  0.3683 -1.7674
  137MOL0     O18361   2.113   0.852   7.912 -0.4112 -0.6722  0.3240
  137MOL0     C18362   2.190   0.836   8.006  0.7965 -0.1350 -0.2351
  137MOL0     O18363   2.142   0.807   8.127 -0.2287 -0.0091 -0.9256
  137MOL0     C18364   2.011   0.824   8.162  0.0815 -0.7501 -0.3750
  137MOL0     C18365   1.903   0.772   8.084  0.0723 -1.0778  0.3070
  137MOL0     C18366   1.772   0.783   8.125 -0.3868 -0.5699 -0.5270
  137MOL0     C18367   1.743   0.848   8.247  0.1635 -0.6289  0.8617
  137MOL0     O18368   1.612   0.838   8.284  0.0686  0.7490 -1.0398
  137MOL0     C18369   1.576   0.856   8.424  0.4079  0.5347 -0.0537
  137MOL0     C18370   1.608   0.736   8.518 -0.1898 -0.1683  0.5701
  137MOL0     C18371   1.554   0.759   8.656  0.3460  0.3622  0.0857
  137MOL0     C18372   1.572   0.638   8.749 -0.4738 -0.0465 -0.1912
  137MOL0     C18373   1.715   0.621   8.798  0.7062 -1.2889  0.3338
  137MOL0     C18374   1.771   0.732   8.891 -0.0774  0.4204  0.1458
  137MOL0     C18375   1.688   0.760   9.022  0.0680  0.2149 -1.1184
  137MOL0     C18376   1.753   0.881   9.089  0.8921 -0.0576 -0.1146
  137MOL0     N18377   1.711   0.893   9.236  0.7393 -0.5708 -0.8714
  137MOL0     C18378   1.678   0.790   9.320  0.0656  0.1973  0.1018
  137MOL0     C18379   1.663   0.839   9.441  0.5998  0.2562  0.5043
  137MOL0     C18380   1.644   0.755   9.569  0.7156  0.8152  0.1788
  137MOL0     C18381   1.547   0.795   9.681  0.8227 -0.5982  0.7017
  137MOL0     C18382   1.405   0.740   9.657 -0.9000 -0.2476  0.4083
  137MOL0     C18383   1.314   0.783   9.766  0.0131 -0.2142 -0.0996
  137MOL0     O18384   1.182   0.723   9.744  0.0779 -0.1285 -0.3052
  137MOL0     C18385   1.070   0.786   9.798  1.2895 -0.1762  0.4379
  137MOL0     C18386   0.945   0.738   9.749  0.8912 -0.5974 -1.0301
  137MOL0     C18387   0.827   0.802   9.783  0.3651  0.2328 -0.0639
  137MOL0     C18388   0.694   0.759   9.707 -0.0458  0.4172 -1.0755
  137MOL0     C18389   0.834   0.916   9.879  0.1663 -0.8452  0.4471
  137MOL0     C18390   0.710   0.982   9.918 -0.9664  0.1633  0.3787
  137MOL0     O18391   0.718   1.120   9.943 -0.5544 -0.2182  0.5124
  137MOL0     C18392   0.612   1.205   9.978 -0.5015 -0.4615 -0.2436
  137MOL0     C18393   0.653   1.337  10.005  0.1037  0.5684 -0.1154
  137MOL0     C18394   0.549   1.435  10.031 -0.2096 -0.7335 -0.8374
  137MOL0     C18395   0.411   1.405  10.018 -0.7680 -0.7028 -0.4010
  137MOL0     O18396   0.317   1.506  10.045 -0.2008 -0.1508  0.3902
  137MOL0     C18397   0.352   1.589  10.156  0.7170 -0.0942 -0.0622
  137MOL0     C18398   0.226   1.658  10.218 -0.1083 -0.0505 -0.4554
  137MOL0     C18399   0.134   1.561  10.294 -0.1648  0.1543  0.9502
  137MOL0     C18400   0.020   1.644  10.349  0.2561  0.2388  0.2959
  137MOL0     C18401  -0.085   1.550  10.398 -0.0859  0.3439  1.4040
  137MOL0     C18402  -0.216   1.606  10.441  0.0820  0.4626  0.6758
  137MOL0     C18403  -0.312   1.614  10.323 -0.0232 -0.2755 -0.6460
  137MOL0     C18404  -0.443   1.672  10.365  1.7160 -0.0933 -0.5393
  137MOL0    Cl18405  -0.529   1.566  10.482  0.0255 -0.0311  0.3238
  137MOL0     C18406   0.380   1.271  10.006  0.9240 -0.6703 -0.5531
  137MOL0     C18407   0.479   1.172   9.979 -0.0377  0.1200  0.9930
  137MOL0     O18408   0.615   0.903   9.944 -0.1067  0.3933 -0.3371
  137MOL0     C18409   0.957   0.953   9.931 -0.0479 -0.1362  0.3000
  137MOL0     C18410   1.074   0.895   9.886  0.2113 -0.5876  0.3674
  137MOL0     N18411   1.682   0.972   9.439  0.7513 -0.0025  0.6385
  137MOL0     N18412   1.701   1.005   9.311  0.1412 -0.4873  0.0157
  137MOL0     C18413   1.841   0.915   8.314  0.1313  0.3688  0.3682
  137MOL0     C18414   1.976   0.893   8.278 -0.0732  0.3962 -0.0917
  137MOL0     C18415   2.332   0.870   7.977 -0.0287 -0.0720  0.0912
  137MOL0     C18416   2.426   0.885   8.080 -0.5951 -0.3971 -0.0708
  137MOL0     C18417   2.557   0.932   8.049  0.3824 -0.9340  0.2825
  137MOL0     C18418   2.597   0.945   7.918  0.6743 -0.4637 -0.2997
  137MOL0     O18419   2.722   0.989   7.899 -0.5345  0.5780  0.2115
  137MOL0     C18420   2.760   1.039   7.770 -0.4162  0.7876  0.4499
  137MOL0     C18421   2.889   1.115   7.771 -0.2770  0.0291  0.1535
  137MOL0     C18422   3.016   1.028   7.774 -0.3923 -0.3016 -0.4709
  137MOL0     C18423   3.139   1.104   7.752 -1.2210 -0.3275  0.0277
  137MOL0     C18424   3.255   1.012   7.769  0.3424 -0.3949  0.7036
  137MOL0     C18425   3.349   0.944   7.768 -0.1624  1.0176 -0.5640
  137MOL0     C18426   2.508   0.920   7.814 -0.1049  0.2344 -0.1976
  137MOL0     C18427   2.372   0.893   7.843 -1.1432  0.4636  1.2097
  137MOL0     H18428   1.934   0.726   7.990  4.9893  2.9522 -0.4299
  137MOL0     H18429   1.697   0.735   8.063  0.6408 -0.1585 -2.1675
  137MOL0     H18430   1.635   0.938   8.466  1.1624 -0.9212  1.8666
  137MOL0     H18431   1.472   0.890   8.426  1.2001  3.4051  3.3231
  137MOL0     H18432   1.564   0.643   8.481  0.4110  0.1102 -0.9179
  137MOL0     H18433   1.716   0.720   8.526 -0.1843 -0.3093  0.2297
  137MOL0     H18434   1.603   0.845   8.702 -1.3416  1.3782  0.0539
  137MOL0     H18435   1.451   0.794   8.641  0.4590  0.1443 -1.4111
  137MOL0     H18436   1.518   0.652   8.843 -0.0629  1.3882 -0.1344
  137MOL0     H18437   1.549   0.543   8.701 -1.7711 -1.1912  2.4800
  137MOL0     H18438   1.723   0.524   8.848 -0.3716 -1.0796  0.9466
  137MOL0     H18439   1.777   0.615   8.708  1.1086 -0.1520  0.5248
  137MOL0     H18440   1.874   0.700   8.910  0.3531  1.8429  0.3697
  137MOL0     H18441   1.775   0.830   8.843  2.5963  0.4761  0.3211
  137MOL0     H18442   1.584   0.792   9.009 -0.8716 -0.5283  3.2672
  137MOL0     H18443   1.683   0.674   9.089 -2.4966  2.5726  2.0712
  137MOL0     H18444   1.721   0.973   9.040  0.2873 -1.0445 -1.6475
  137MOL0     H18445   1.858   0.856   9.074  1.1195  0.6630  0.2387
  137MOL0     H18446   1.674   0.689   9.282  3.7652  0.4173 -1.2009
  137MOL0     H18447   1.623   0.651   9.540 -2.8995  0.6474  2.6531
  137MOL0     H18448   1.742   0.757   9.618  1.7154 -2.1740 -1.4490
  137MOL0     H18449   1.544   0.903   9.696  2.7014 -0.7613  2.6590
  137MOL0     H18450   1.596   0.765   9.774  0.8173 -3.4140 -0.0924
  137MOL0     H18451   1.409   0.634   9.634  1.2071  0.3990 -2.9364
  137MOL0     H18452   1.369   0.774   9.559 -1.4357 -1.0224  0.3331
  137MOL0     H18453   1.311   0.893   9.769  4.1748  0.0343  0.1033
  137MOL0     H18454   1.344   0.741   9.862  0.1224 -1.3031 -0.5928
  137MOL0     H18455   0.966   0.656   9.682  2.6531 -2.3371  1.4593
  137MOL0     H18456   0.719   0.692   9.625 -0.2250 -2.7256  1.2799
  137MOL0     H18457   0.640   0.697   9.778  2.4173 -0.5155  0.1007
  137MOL0     H18458   0.629   0.842   9.676 -0.0396  0.5824 -0.6595
  137MOL0     H18459   0.757   1.363  10.017  0.5014 -0.9399 -0.0190
  137MOL0     H18460   0.575   1.539  10.044 -0.8468 -0.3930 -2.1780
  137MOL0     H18461   0.406   1.534  10.233 -1.1310 -2.3087 -0.2392
  137MOL0     H18462   0.420   1.670  10.126 -1.9155  1.9469 -0.9595
  137MOL0     H18463   0.269   1.739  10.277 -0.1263  0.1456 -0.7095
  137MOL0     H18464   0.184   1.705  10.129  1.6961  1.0246 -0.7961
  137MOL0     H18465   0.185   1.492  10.362 -3.1606 -1.8293  1.3400
  137MOL0     H18466   0.084   1.506  10.214  1.4627  0.6153 -0.4482
  137MOL0     H18467   0.051   1.700  10.438  1.3014 -1.4702  1.0386
  137MOL0     H18468  -0.014   1.710  10.269 -1.1450  1.0104  1.4746
  137MOL0     H18469  -0.048   1.491  10.483 -0.6244 -2.4988 -0.2417
  137MOL0     H18470  -0.106   1.471  10.326 -0.1321 -0.4811  2.2908
  137MOL0     H18471  -0.252   1.525  10.505  1.1767  0.3705  1.1880
  137MOL0     H18472  -0.195   1.697  10.497  0.6070  0.3736  0.6201
  137MOL0     H18473  -0.324   1.512  10.285  0.2911  0.9635 -4.5199
  137MOL0     H18474  -0.267   1.682  10.250  2.8041 -0.8263  0.4907
  137MOL0     H18475  -0.512   1.673  10.280  0.2442  1.2430  0.6249
  137MOL0     H18476  -0.443   1.777  10.393 -0.8187 -0.1631 -0.0605
  137MOL0     H18477   0.280   1.233   9.991  1.4311 -2.9289  1.3383
  137MOL0     H18478   0.447   1.070   9.959 -0.9612  0.3571  1.2211
  137MOL0     H18479   0.964   1.042   9.993  0.5746  1.0339 -1.3762
  137MOL0     H18480   1.162   0.958   9.887  1.9127 -2.5663 -3.3113
  137MOL0     H18481   1.825   0.972   8.405  0.5041 -1.8927  1.9507
  137MOL0     H18482   2.054   0.929   8.344  2.6233  0.7605 -3.2344
  137MOL0     H18483   2.398   0.878   8.185  3.8772  0.5100  1.4254
  137MOL0     H18484   2.634   0.957   8.122 -2.0939  2.1519  2.0846
  137MOL0     H18485   2.762   0.968   7.687  2.0818 -0.7294  1.6853
  137MOL0     H18486   2.676   1.107   7.754 -2.2302 -1.4169 -0.1131
  137MOL0     H18487   2.886   1.182   7.858  0.1793 -0.6464  0.6939
  137MOL0     H18488   2.888   1.172   7.677  0.3210  1.9890  1.2728
  137MOL0     H18489   3.005   0.936   7.715  3.2215 -1.2829  0.1486
  137MOL0     H18490   3.022   0.995   7.878 -0.8734 -0.4455 -0.4861
  137MOL0     H18491   3.142   1.174   7.836 -0.5941  0.1781 -0.4109
  137MOL0     H18492   3.141   1.166   7.662 -0.1585 -1.4136 -0.7095
  137MOL0     H18493   3.438   0.885   7.767  0.5746  1.9740  1.7054
  137MOL0     H18494   2.540   0.941   7.712 -1.9288  1.5900 -0.5311
  137MOL0     H18495   2.310   0.862   7.759  1.6782 -0.6156 -0.6133
  138MOL0     O18496   4.175   2.454   4.425 -0.1586 -0.7051  0.4587
  138MOL0     C18497   4.160   2.359   4.355 -0.6370  0.3622  0.1891
  138MOL0     O18498   4.047   2.338   4.278 -0.7467  0.8263 -0.3268
  138MOL0     C18499   3.951   2.428   4.283 -0.6995 -0.0278 -0.0892
  138MOL0     C18500   3.845   2.407   4.366  0.4269 -0.1547  0.1504
  138MOL0     C18501   3.736   2.493   4.370  0.5452 -0.1058  0.4600
  138MOL0     C18502   3.737   2.610   4.286 -0.3892  0.4190  0.2861
  138MOL0     O18503   3.629   2.696   4.275 -0.4553 -0.4547  0.5141
  138MOL0     C18504   3.526   2.682   4.373 -0.0841 -0.3422 -0.2539
  138MOL0     C18505   3.419   2.788   4.359  1.0516 -0.1895 -0.4891
  138MOL0     C18506   3.282   2.740   4.400  0.0906  0.0070 -0.4487
  138MOL0     C18507   3.182   2.854   4.394 -0.0036  0.7193  0.0744
  138MOL0     C18508   3.035   2.805   4.445  0.2079  0.0140  0.0626
  138MOL0     C18509   2.955   2.922   4.489  0.4959 -0.2590 -0.3637
  138MOL0     C18510   2.811   2.878   4.502  0.3851  0.0363  0.1716
  138MOL0     C18511   2.721   2.993   4.555 -1.2346  1.1154  0.3729
  138MOL0     N18512   2.576   2.970   4.516 -0.0150  0.1937 -0.4377
  138MOL0     C18513   2.483   2.867   4.553  0.0479 -0.1022  0.8712
  138MOL0     C18514   2.369   2.897   4.483  0.0635 -0.1818 -0.0537
  138MOL0     C18515   2.243   2.810   4.499 -0.1993  0.4567  0.0769
  138MOL0     C18516   2.126   2.847   4.415 -0.0669  0.1637  0.2364
  138MOL0     C18517   2.061   2.973   4.459 -1.1111  0.8017 -0.3623
  138MOL0     C18518   1.933   3.000   4.388 -0.9221  0.6314 -0.1310
  138MOL0     O18519   1.883   3.131   4.413 -0.5335 -0.2632 -0.3859
  138MOL0     C18520   1.747   3.154   4.387 -0.4202  0.2087 -0.4798
  138MOL0     C18521   1.688   3.260   4.453  0.9180  0.5922 -0.3319
  138MOL0     C18522   1.552   3.279   4.429  0.0103  0.1101  0.5191
  138MOL0     C18523   1.501   3.412   4.473  1.1000 -0.2795 -0.1305
  138MOL0     C18524   1.478   3.193   4.339  0.5676 -0.6807 -0.7817
  138MOL0     C18525   1.332   3.198   4.324  0.0577 -0.0252  0.7741
  138MOL0     O18526   1.276   3.217   4.449  0.4258 -0.6666 -0.0541
  138MOL0     C18527   1.145   3.259   4.470  0.2022 -0.4308  0.2466
  138MOL0     C18528   1.041   3.193   4.400 -0.3330 -0.3628  0.7095
  138MOL0     C18529   0.909   3.232   4.432  0.3986  0.4333  0.2533
  138MOL0     C18530   0.883   3.340   4.515 -0.3244 -0.8582 -0.0809
  138MOL0     O18531   0.754   3.374   4.530 -0.1721 -0.8653 -0.3382
  138MOL0     C18532   0.715   3.477   4.624 -0.3892 -0.3407  0.8094
  138MOL0     C18533   0.568   3.474   4.662  0.7865 -0.1099  0.1813
  138MOL0     C18534   0.459   3.445   4.544 -0.3082 -0.3507 -0.3621
  138MOL0     C18535   0.341   3.375   4.613  0.2167 -0.4716  0.3075
  138MOL0     C18536   0.222   3.335   4.519 -0.2800  0.3408 -0.4833
  138MOL0     C18537   0.108   3.267   4.588 -0.1571 -0.4928  0.1798
  138MOL0     C18538   0.020   3.185   4.496 -0.2953 -0.1845 -0.1553
  138MOL0     C18539  -0.126   3.191   4.545  0.2250  0.3257 -0.0102
  138MOL0    Cl18540  -0.221   3.050   4.479 -0.2888 -1.0078  0.0397
  138MOL0     C18541   0.990   3.407   4.579 -0.3920 -0.7235 -0.2168
  138MOL0     C18542   1.117   3.364   4.553  0.2581  0.6618  0.3001
  138MOL0     O18543   1.277   3.174   4.214 -0.4064 -0.1681 -0.0255
  138MOL0     C18544   1.552   3.097   4.265  0.4031  0.1986 -0.3101
  138MOL0     C18545   1.680   3.075   4.299 -0.5607  0.9018 -0.4693
  138MOL0     N18546   2.395   3.016   4.405 -0.1521  0.2987  0.8986
  138MOL0     N18547   2.516   3.050   4.425 -0.1290 -0.2118 -0.0469
  138MOL0     C18548   3.836   2.632   4.190  0.8875 -0.2968 -1.0142
  138MOL0     C18549   3.938   2.531   4.187  0.4568 -0.0287 -0.9992
  138MOL0     C18550   4.266   2.261   4.352  0.2630 -0.3790  1.4495
  138MOL0     C18551   4.254   2.158   4.252 -0.1797 -0.2109  0.7749
  138MOL0     C18552   4.366   2.074   4.235  0.0106  0.1077 -0.0550
  138MOL0     C18553   4.476   2.080   4.320 -0.6653  0.4764  0.5392
  138MOL0     O18554   4.572   1.988   4.308 -0.5036  1.0372  0.1961
  138MOL0     C18555   4.697   2.041   4.254  1.1361 -0.6436 -0.3562
  138MOL0     C18556   4.813   2.033   4.349  0.9369  0.0134  0.6671
  138MOL0     C18557   4.929   2.102   4.277 -0.1196  0.5180  0.8092
  138MOL0     C18558   5.051   2.104   4.365 -0.3155  0.1208  0.1107
  138MOL0     C18559   5.168   2.139   4.282  0.0162 -0.6528  0.1972
  138MOL0     C18560   5.275   2.163   4.234  0.0791  0.2371  0.2797
  138MOL0     C18561   4.479   2.184   4.413  0.4095  0.2935 -0.8799
  138MOL0     C18562   4.372   2.273   4.434 -0.6106  0.2034  0.5201
  138MOL0     H18563   3.849   2.326   4.438 -1.2856  2.2846  3.2545
  138MOL0     H18564   3.657   2.465   4.439 -1.8572  2.7716 -0.8978
  138MOL0     H18565   3.482   2.583   4.358  0.2633 -0.1652 -2.8965
  138MOL0     H18566   3.566   2.692   4.474  0.4809 -0.4122 -0.4663
  138MOL0     H18567   3.440   2.871   4.426  2.9300 -2.6479  2.2132
  138MOL0     H18568   3.417   2.830   4.258 -0.7319 -0.2193 -0.5012
  138MOL0     H18569   3.255   2.654   4.339 -1.6023 -0.1481  0.4570
  138MOL0     H18570   3.283   2.722   4.508 -1.8523  0.3742 -0.3273
  138MOL0     H18571   3.214   2.936   4.459  1.5734 -0.9194  1.4643
  138MOL0     H18572   3.182   2.898   4.294 -1.9239 -0.3104 -0.4387
  138MOL0     H18573   2.987   2.750   4.364 -1.1453 -0.0458  0.8625
  138MOL0     H18574   3.050   2.748   4.537  0.8473  1.1729  0.6956
  138MOL0     H18575   2.996   2.958   4.583  1.0131  4.3946 -2.0886
  138MOL0     H18576   2.966   3.014   4.430 -0.7915  1.5087  1.9981
  138MOL0     H18577   2.769   2.848   4.405  1.2762  0.9318 -0.4995
  138MOL0     H18578   2.800   2.791   4.567 -1.4059 -0.8759 -1.2618
  138MOL0     H18579   2.761   3.083   4.510  0.1121  1.1151  1.5011
  138MOL0     H18580   2.729   3.016   4.662  1.6035  3.2513 -0.2001
  138MOL0     H18581   2.494   2.790   4.629 -1.2510  1.4238  2.6917
  138MOL0     H18582   2.258   2.708   4.462 -2.6293  0.6990 -1.8482
  138MOL0     H18583   2.221   2.797   4.606  2.0807 -2.2223  0.3721
  138MOL0     H18584   2.048   2.771   4.428 -1.2403  1.5390  1.7382
  138MOL0     H18585   2.160   2.860   4.312  1.9612 -0.0789  0.8306
  138MOL0     H18586   2.136   3.052   4.450 -0.0926  0.0672  1.2290
  138MOL0     H18587   2.044   2.965   4.566  0.9182  0.4106 -0.0317
  138MOL0     H18588   1.857   2.933   4.429 -0.1852 -0.1736 -0.0549
  138MOL0     H18589   1.957   2.989   4.281  1.9034  1.0060  0.3703
  138MOL0     H18590   1.742   3.322   4.523 -0.8696  0.1925  1.5021
  138MOL0     H18591   1.473   3.419   4.579 -1.6802  0.6502 -0.8454
  138MOL0     H18592   1.583   3.481   4.448  0.3777 -0.4821 -3.5004
  138MOL0     H18593   1.412   3.439   4.417  0.0816 -2.6428  0.2355
  138MOL0     H18594   1.054   3.114   4.327  0.8435  0.9540 -0.5699
  138MOL0     H18595   0.824   3.182   4.385  0.2427 -0.2261  1.2150
  138MOL0     H18596   0.771   3.454   4.715 -0.9958  0.3489  1.3656
  138MOL0     H18597   0.756   3.570   4.584  1.4813 -1.7161 -0.6866
  138MOL0     H18598   0.570   3.389   4.731  1.0860  0.4184  0.8397
  138MOL0     H18599   0.537   3.564   4.716  2.3606  1.4644 -1.3763
  138MOL0     H18600   0.495   3.377   4.466  1.5727  0.4613 -0.2608
  138MOL0     H18601   0.424   3.534   4.493 -2.7023 -2.0785 -1.9391
  138MOL0     H18602   0.365   3.280   4.663  0.4927 -0.8292 -0.4923
  138MOL0     H18603   0.296   3.441   4.688 -1.2111  1.4031 -2.0537
  138MOL0     H18604   0.259   3.270   4.440  3.5298  0.6670  0.8176
  138MOL0     H18605   0.183   3.430   4.481  1.5390  2.3261  2.2050
  138MOL0     H18606   0.145   3.213   4.675  1.5134  0.6757  0.2392
  138MOL0     H18607   0.038   3.343   4.625  1.2386 -0.9982  4.3862
  138MOL0     H18608   0.043   3.079   4.510 -2.5545 -0.8162 -0.8325
  138MOL0     H18609   0.028   3.204   4.389  0.0849  1.3900  0.1344
  138MOL0     H18610  -0.181   3.279   4.510 -2.2113 -1.0836  0.0636
  138MOL0     H18611  -0.140   3.200   4.653 -1.0541  4.3341 -0.3420
  138MOL0     H18612   0.981   3.478   4.661  3.4582 -1.2814  0.9069
  138MOL0     H18613   1.203   3.405   4.605  1.0494 -2.2370  1.4487
  138MOL0     H18614   1.499   3.033   4.195  0.2410 -2.8019  2.3404
  138MOL0     H18615   1.728   2.994   4.245 -0.4553 -0.5460  1.6548
  138MOL0     H18616   3.815   2.708   4.115 -0.6821 -1.5207 -1.8834
  138MOL0     H18617   4.022   2.535   4.119  2.1213  0.3738  0.9862
  138MOL0     H18618   4.157   2.138   4.208  0.0515 -0.1970  0.2509
  138MOL0     H18619   4.367   2.002   4.155  2.8083 -1.1149  0.9810
  138MOL0     H18620   4.729   1.993   4.161  1.2857 -0.8248 -0.2121
  138MOL0     H18621   4.685   2.149   4.241  2.0989 -0.0184  2.9491
  138MOL0     H18622   4.839   1.930   4.375 -1.7540 -0.7017  0.7994
  138MOL0     H18623   4.788   2.086   4.441 -1.0432  2.3806 -1.1221
  138MOL0     H18624   4.909   2.204   4.245  1.7623  1.2499  1.7997
  138MOL0     H18625   4.941   2.044   4.185 -0.4334 -0.0494  1.1154
  138MOL0     H18626   5.065   2.012   4.422  1.2335  0.9362  1.1178
  138MOL0     H18627   5.046   2.185   4.438 -0.0338 -1.5174  2.0182
  138MOL0     H18628   5.372   2.192   4.199 -0.2741  2.9680  1.3046
  138MOL0     H18629   4.565   2.201   4.477 -0.6459  1.3589  0.3235
  138MOL0     H18630   4.403   2.347   4.506 -0.1462  0.7944 -0.2726
  139MOL0     O18631   0.068   7.473   6.415  0.0662 -0.3453  0.0719
  139MOL0     C18632   0.076   7.483   6.532  0.0350  0.2411 -0.5893
  139MOL0     O18633  -0.012   7.553   6.606 -0.0615 -0.2001 -0.3948
  139MOL0     C18634  -0.117   7.633   6.550 -0.3026 -0.1714 -1.1540
  139MOL0     C18635  -0.111   7.691   6.419  0.5966 -0.2760 -0.3624
  139MOL0     C18636  -0.221   7.770   6.386  1.1785  0.2499  2.4575
  139MOL0     C18637  -0.329   7.788   6.474  0.0733  0.9806 -0.1056
  139MOL0     O18638  -0.435   7.870   6.448 -0.0247  0.1518 -0.3950
  139MOL0     C18639  -0.424   7.974   6.346  0.6225  0.3166 -0.0368
  139MOL0     C18640  -0.549   8.066   6.334  0.7358  1.0922  0.3269
  139MOL0     C18641  -0.677   7.981   6.311  1.0223 -0.2388  0.1336
  139MOL0     C18642  -0.810   8.068   6.344 -0.4831  0.1367 -0.6144
  139MOL0     C18643  -0.928   7.973   6.341 -0.0375 -0.1857 -0.2459
  139MOL0     C18644  -1.063   8.042   6.379  0.1212  0.3629  0.4393
  139MOL0     C18645  -1.173   7.944   6.403 -0.1024  0.2434 -0.6380
  139MOL0     C18646  -1.317   7.996   6.443 -0.3718  0.0491  0.0766
  139MOL0     N18647  -1.369   8.105   6.362 -0.6747 -0.0037 -0.2551
  139MOL0     C18648  -1.373   8.244   6.396 -0.4173  0.2753  0.6273
  139MOL0     C18649  -1.468   8.299   6.316 -0.1294  0.6782  0.3235
  139MOL0     C18650  -1.511   8.447   6.330 -0.5434  0.2956 -0.8450
  139MOL0     C18651  -1.381   8.528   6.327  0.4233  0.5422 -0.3382
  139MOL0     C18652  -1.394   8.678   6.307  0.3175 -0.2993 -0.1494
  139MOL0     C18653  -1.259   8.744   6.289  1.3085  0.1436  0.5051
  139MOL0     O18654  -1.179   8.723   6.407 -0.0020 -0.1043 -0.6031
  139MOL0     C18655  -1.049   8.778   6.413 -0.3342 -0.0403 -0.7953
  139MOL0     C18656  -0.972   8.817   6.295  0.1027 -0.3011 -0.4677
  139MOL0     C18657  -0.839   8.848   6.302  0.3052 -0.1782  0.2465
  139MOL0     C18658  -0.769   8.884   6.173 -0.2840 -0.0754 -0.2888
  139MOL0     C18659  -0.773   8.847   6.432 -0.0954  0.7208  0.3691
  139MOL0     C18660  -0.625   8.875   6.444 -0.2801  0.1259 -0.6448
  139MOL0     O18661  -0.564   8.863   6.577  0.5464 -0.1146 -0.6420
  139MOL0     C18662  -0.426   8.873   6.587  0.0569  0.8468  1.1245
  139MOL0     C18663  -0.347   8.763   6.614  0.1328  0.1969  0.4421
  139MOL0     C18664  -0.211   8.769   6.607  0.1669 -0.0262 -0.1425
  139MOL0     C18665  -0.146   8.897   6.575 -0.2437 -0.5659  0.5050
  139MOL0     O18666  -0.004   8.919   6.569  0.7239  0.2898 -0.2860
  139MOL0     C18667   0.081   8.806   6.594 -0.0018  0.0602  0.3117
  139MOL0     C18668   0.222   8.872   6.601  0.1379  0.5642 -0.8703
  139MOL0     C18669   0.254   8.987   6.706  0.0925  0.7928  0.3626
  139MOL0     C18670   0.404   9.031   6.697 -0.5265  0.4708 -0.7467
  139MOL0     C18671   0.503   8.966   6.793 -0.0289  0.6418 -0.5012
  139MOL0     C18672   0.519   8.807   6.801  0.4537  0.9249  0.6395
  139MOL0     C18673   0.592   8.760   6.680  0.4663  0.4454  0.5885
  139MOL0     C18674   0.642   8.612   6.714 -0.5907 -0.5628  0.1582
  139MOL0    Cl18675   0.709   8.536   6.570  0.4244  0.0877 -0.0866
  139MOL0     C18676  -0.225   9.008   6.551 -0.0134 -0.4128  0.3811
  139MOL0     C18677  -0.357   8.998   6.559  1.0174  0.1730  0.1411
  139MOL0     O18678  -0.566   8.926   6.348  0.3553  0.3956 -0.0835
  139MOL0     C18679  -0.847   8.820   6.548 -0.3361 -0.4032 -0.6581
  139MOL0     C18680  -0.983   8.775   6.533  0.1947  0.4053 -0.4289
  139MOL0     N18681  -1.523   8.198   6.242  0.2157 -1.0767  0.2354
  139MOL0     N18682  -1.464   8.091   6.259  1.0073 -0.3093 -0.9799
  139MOL0     C18683  -0.329   7.733   6.601  0.2205 -0.1718 -0.5169
  139MOL0     C18684  -0.217   7.660   6.644 -0.0235 -0.5197 -0.2125
  139MOL0     C18685   0.181   7.423   6.617 -0.5600  0.3535  0.1273
  139MOL0     C18686   0.281   7.348   6.560  0.2763  0.6928 -0.3022
  139MOL0     C18687   0.380   7.280   6.650  0.5751 -0.4848  0.6383
  139MOL0     C18688   0.377   7.308   6.789  0.4017 -0.1802  0.6632
  139MOL0     O18689   0.461   7.259   6.880 -0.3010 -0.2316  0.2195
  139MOL0     C18690   0.584   7.199   6.827  0.1549 -0.6215  0.3203
  139MOL0     C18691   0.661   7.154   6.947  0.4183  1.1799 -0.2199
  139MOL0     C18692   0.763   7.051   6.903 -0.0645 -0.4259  0.8602
  139MOL0     C18693   0.794   6.951   7.011  0.2207 -0.1698  1.4450
  139MOL0     C18694   0.870   7.014   7.121  0.3785  0.7825  0.2251
  139MOL0     C18695   0.927   7.075   7.212  0.5095 -0.5496 -0.2108
  139MOL0     C18696   0.275   7.384   6.849  0.0655  0.1954 -0.0186
  139MOL0     C18697   0.186   7.443   6.762  0.5951  0.1549 -0.0900
  139MOL0     H18698  -0.029   7.680   6.349  1.6878  1.0513  0.6406
  139MOL0     H18699  -0.219   7.832   6.297 -0.9083 -0.3326  1.9407
  139MOL0     H18700  -0.341   8.043   6.366  0.0746  0.9452  0.0943
  139MOL0     H18701  -0.420   7.923   6.250 -2.5823  2.4674 -1.4914
  139MOL0     H18702  -0.557   8.113   6.433  3.1005  3.4621 -0.4961
  139MOL0     H18703  -0.544   8.146   6.260 -3.1314  0.4851 -0.7684
  139MOL0     H18704  -0.694   7.947   6.209 -1.8881  0.8704  0.1553
  139MOL0     H18705  -0.669   7.896   6.380 -0.5026 -1.7381 -1.4438
  139MOL0     H18706  -0.795   8.111   6.443  2.5999 -0.1015 -0.8641
  139MOL0     H18707  -0.824   8.163   6.291 -3.0073  1.0607  1.5197
  139MOL0     H18708  -0.932   7.927   6.242 -1.0480  0.5679 -0.5691
  139MOL0     H18709  -0.907   7.891   6.410 -0.4973  0.7823  1.0916
  139MOL0     H18710  -1.058   8.092   6.476 -1.3758  1.6303 -0.0959
  139MOL0     H18711  -1.087   8.112   6.298 -1.2193  0.3908  0.8499
  139MOL0     H18712  -1.174   7.872   6.321  1.2166 -0.7712  0.1945
  139MOL0     H18713  -1.146   7.889   6.494 -4.7338 -1.9327 -0.3052
  139MOL0     H18714  -1.324   8.037   6.545 -1.2716  2.3759 -0.8594
  139MOL0     H18715  -1.388   7.914   6.433  0.2417 -0.3484 -1.1313
  139MOL0     H18716  -1.311   8.296   6.469  1.5456  1.1597 -1.5153
  139MOL0     H18717  -1.588   8.472   6.257 -0.0797 -3.9752 -3.1371
  139MOL0     H18718  -1.556   8.457   6.429  4.2049  0.1613  1.6068
  139MOL0     H18719  -1.314   8.489   6.251  0.3967  2.8996 -1.6762
  139MOL0     H18720  -1.334   8.519   6.426  3.2237  2.2750 -1.3949
  139MOL0     H18721  -1.443   8.721   6.395 -1.6632 -0.9134 -0.8851
  139MOL0     H18722  -1.465   8.697   6.226 -0.9295 -3.8917 -0.0397
  139MOL0     H18723  -1.275   8.851   6.274 -0.2846 -0.1968 -0.4326
  139MOL0     H18724  -1.220   8.700   6.197 -0.0371 -0.4908  0.2077
  139MOL0     H18725  -1.014   8.815   6.195  0.6296 -2.6329 -0.6928
  139MOL0     H18726  -0.832   8.868   6.085  1.6788 -2.3258 -1.4243
  139MOL0     H18727  -0.737   8.988   6.184  0.0971 -0.2199  0.0195
  139MOL0     H18728  -0.684   8.815   6.164  0.2024  0.4934 -0.1043
  139MOL0     H18729  -0.388   8.668   6.645 -0.9340  0.7883  0.8789
  139MOL0     H18730  -0.165   8.672   6.626 -0.0956 -0.2983 -0.8490
  139MOL0     H18731   0.047   8.763   6.689 -0.3418  3.2915  1.8128
  139MOL0     H18732   0.087   8.719   6.528 -2.9141  0.5530 -0.7933
  139MOL0     H18733   0.291   8.789   6.619 -2.4711 -1.4693  0.3962
  139MOL0     H18734   0.239   8.913   6.501  0.0269  1.1744 -0.6417
  139MOL0     H18735   0.228   8.962   6.809 -1.7574  2.5437  0.3762
  139MOL0     H18736   0.183   9.068   6.684 -0.8252  0.3062  1.4297
  139MOL0     H18737   0.431   9.011   6.593  0.7036 -1.3427 -0.1417
  139MOL0     H18738   0.416   9.137   6.722  1.1307 -0.7025  5.1142
  139MOL0     H18739   0.453   8.992   6.887 -0.3399  0.8373 -0.7138
  139MOL0     H18740   0.604   9.007   6.789  0.8675 -1.4447 -0.2328
  139MOL0     H18741   0.569   8.788   6.896  3.8740 -2.2085 -1.5528
  139MOL0     H18742   0.417   8.768   6.806  1.0131 -0.7537 -0.2436
  139MOL0     H18743   0.672   8.828   6.651 -0.1931  0.7952 -0.4743
  139MOL0     H18744   0.520   8.754   6.597 -1.4307 -1.1967  2.2317
  139MOL0     H18745   0.567   8.538   6.744  0.3733 -1.9711 -0.8226
  139MOL0     H18746   0.731   8.613   6.777 -0.7374  0.4509  0.3777
  139MOL0     H18747  -0.201   9.111   6.527 -2.8260 -0.0271 -1.3021
  139MOL0     H18748  -0.418   9.085   6.539  0.2086  0.0082  1.7367
  139MOL0     H18749  -0.802   8.828   6.646 -0.5000 -0.4723 -0.5782
  139MOL0     H18750  -1.032   8.744   6.625  0.4998  1.8219  0.2426
  139MOL0     H18751  -0.406   7.756   6.674  1.3840  0.0644  0.6835
  139MOL0     H18752  -0.195   7.616   6.741 -0.3444  1.2443  0.7087
  139MOL0     H18753   0.290   7.334   6.453 -1.8456  1.8639 -0.6883
  139MOL0     H18754   0.465   7.227   6.608 -0.5487 -2.8323  1.1679
  139MOL0     H18755   0.557   7.116   6.761 -0.2880  1.4206 -2.2418
  139MOL0     H18756   0.640   7.270   6.765  0.4808 -1.0210  0.1514
  139MOL0     H18757   0.593   7.106   7.018  0.8527  1.2758  0.2660
  139MOL0     H18758   0.714   7.241   6.987  2.5094  2.2323 -4.6296
  139MOL0     H18759   0.859   7.091   6.870 -0.9291 -0.2971 -1.7582
  139MOL0     H18760   0.723   6.983   6.826  0.2976  0.5365 -0.2119
  139MOL0     H18761   0.858   6.870   6.975 -0.8762 -0.3905 -0.1224
  139MOL0     H18762   0.701   6.903   7.043 -0.6064 -0.8754 -1.7163
  139MOL0     H18763   0.975   7.120   7.297 -2.9613  1.1286  1.0756
  139MOL0     H18764   0.276   7.401   6.956 -0.2814 -4.0558  0.8395
  139MOL0     H18765   0.108   7.504   6.807  0.4406  0.4118 -0.6979
  140MOL0     O18766   0.955   7.996   9.229 -0.4611 -0.1880 -0.8312
  140MOL0     C18767   1.066   7.934   9.218  0.3370  0.2423  0.7452
  140MOL0     O18768   1.087   7.814   9.154 -0.5459  0.2659 -0.6255
  140MOL0     C18769   0.985   7.749   9.097 -0.2425  0.1052  1.0563
  140MOL0     C18770   0.933   7.803   8.978  0.3427 -1.1584  0.4005
  140MOL0     C18771   0.813   7.753   8.922 -1.4742 -0.1861 -0.3483
  140MOL0     C18772   0.753   7.642   8.973 -0.1495 -0.6587  0.9856
  140MOL0     O18773   0.633   7.612   8.919 -0.1523  0.2912  0.0575
  140MOL0     C18774   0.527   7.617   9.012  0.3864 -0.7016  0.1458
  140MOL0     C18775   0.389   7.574   8.956  0.2458  0.4512  0.3591
  140MOL0     C18776   0.358   7.630   8.823  0.6314 -0.2759 -0.4835
  140MOL0     C18777   0.251   7.557   8.742 -0.3277 -0.4131  0.8938
  140MOL0     C18778   0.168   7.664   8.664  0.5970 -0.2250 -0.2540
  140MOL0     C18779   0.074   7.609   8.552 -0.4438  0.2183 -0.0932
  140MOL0     C18780  -0.057   7.539   8.616 -0.5612 -0.0866  0.5644
  140MOL0     C18781  -0.154   7.498   8.506 -0.8529 -0.0816 -0.0086
  140MOL0     N18782  -0.127   7.357   8.472 -0.7726  0.3361 -0.4855
  140MOL0     C18783  -0.221   7.256   8.473 -0.7448 -0.5008  0.5757
  140MOL0     C18784  -0.152   7.142   8.441 -0.0893  0.2039 -0.2987
  140MOL0     C18785  -0.207   7.005   8.447  0.2474  0.7706  0.9806
  140MOL0     C18786  -0.294   6.970   8.318 -0.0138  0.2539 -0.4785
  140MOL0     C18787  -0.396   6.849   8.336 -0.8018 -0.0046 -0.3992
  140MOL0     C18788  -0.510   6.859   8.228  0.3762 -0.2460 -0.9533
  140MOL0     O18789  -0.576   6.984   8.261  0.6705  0.2446  0.3317
  140MOL0     C18790  -0.697   7.015   8.206 -0.2482  0.2230  0.1310
  140MOL0     C18791  -0.781   7.095   8.279  0.6397  1.1923  0.7528
  140MOL0     C18792  -0.907   7.121   8.227 -0.0018  0.6809 -0.7709
  140MOL0     C18793  -0.996   7.206   8.317 -0.1890  0.8650  0.7344
  140MOL0     C18794  -0.944   7.083   8.094  0.8061 -0.2087  0.8526
  140MOL0     C18795  -1.081   7.118   8.040 -0.4310 -0.1825  0.0563
  140MOL0     O18796  -1.181   7.156   8.125 -0.3847  0.0227 -0.2874
  140MOL0     C18797  -1.313   7.200   8.091 -0.7801 -0.4524  0.0085
  140MOL0     C18798  -1.399   7.129   8.010  0.7223  0.3949 -0.0313
  140MOL0     C18799  -1.537   7.167   8.004  0.3639 -1.5315  0.8608
  140MOL0     C18800  -1.585   7.281   8.073 -0.9712  0.3195  0.1198
  140MOL0     O18801  -1.714   7.326   8.092 -0.5759 -0.1027  0.3659
  140MOL0     C18802  -1.797   7.305   7.984  0.0804  0.6689 -0.1675
  140MOL0     C18803  -1.942   7.345   8.021  0.2531 -0.4194  0.2819
  140MOL0     C18804  -2.042   7.253   7.927 -0.1972 -0.0616 -0.3544
  140MOL0     C18805  -2.176   7.242   7.993 -0.0998  0.5629  0.6458
  140MOL0     C18806  -2.260   7.359   7.962 -0.1330  0.1693 -0.3144
  140MOL0     C18807  -2.355   7.384   8.081 -0.1409 -0.1387 -0.8836
  140MOL0     C18808  -2.451   7.263   8.118  0.3408 -0.2267  0.1303
  140MOL0     C18809  -2.532   7.290   8.246  0.6197  0.8090 -0.6873
  140MOL0    Cl18810  -2.690   7.380   8.221  0.2693  0.0633  0.3380
  140MOL0     C18811  -1.498   7.341   8.166 -0.6615 -0.3408 -0.0120
  140MOL0     C18812  -1.359   7.301   8.172  0.7299 -0.0021  0.0379
  140MOL0     O18813  -1.095   7.120   7.921  0.4994 -0.2449 -0.3781
  140MOL0     C18814  -0.864   6.988   8.028  0.3252 -0.1636 -0.3311
  140MOL0     C18815  -0.743   6.953   8.078 -0.8351 -0.1137 -0.6146
  140MOL0     N18816  -0.022   7.181   8.407  0.2875  0.8005 -0.3236
  140MOL0     N18817  -0.008   7.302   8.433 -0.5933  0.1398  0.2276
  140MOL0     C18818   0.821   7.572   9.080 -0.2096 -0.5964  0.6787
  140MOL0     C18819   0.927   7.631   9.145 -0.0177 -0.7578  0.6411
  140MOL0     C18820   1.181   8.006   9.262  0.1563 -0.0415 -0.0205
  140MOL0     C18821   1.174   8.144   9.311  0.0343 -0.1390 -0.0008
  140MOL0     C18822   1.292   8.214   9.346  0.5066 -0.2217  0.5831
  140MOL0     C18823   1.419   8.153   9.335  0.2648  0.2491  0.4214
  140MOL0     O18824   1.526   8.230   9.376 -0.1834  0.4460  0.4265
  140MOL0     C18825   1.665   8.193   9.363 -0.2612  0.3436 -0.6690
  140MOL0     C18826   1.716   8.237   9.219 -0.1318  0.5693 -0.8485
  140MOL0     C18827   1.867   8.217   9.214  0.2708 -0.2841  0.3042
  140MOL0     C18828   1.921   8.152   9.082  0.0516 -0.0573 -0.8645
  140MOL0     C18829   1.887   8.249   8.976  0.0108 -0.0272 -0.3782
  140MOL0     C18830   1.849   8.323   8.884 -0.1303 -0.0829 -0.0731
  140MOL0     C18831   1.426   8.020   9.292  0.6641  0.0619  0.7223
  140MOL0     C18832   1.311   7.944   9.257  0.2356  0.0692  0.0518
  140MOL0     H18833   0.961   7.901   8.942  2.1270 -1.0127  2.0796
  140MOL0     H18834   0.772   7.812   8.841 -0.5733 -1.4762 -1.8081
  140MOL0     H18835   0.545   7.564   9.106  0.3699 -0.6915  0.1548
  140MOL0     H18836   0.514   7.720   9.046  1.1743 -1.1573  1.9600
  140MOL0     H18837   0.385   7.466   8.942  1.2774  0.5480 -0.8190
  140MOL0     H18838   0.315   7.596   9.034  1.2371 -1.6042  1.9800
  140MOL0     H18839   0.337   7.737   8.837  0.7384 -0.0731 -1.8042
  140MOL0     H18840   0.448   7.610   8.764 -0.4159 -0.3464 -2.1140
  140MOL0     H18841   0.292   7.481   8.675 -2.5342  1.7079 -3.2111
  140MOL0     H18842   0.183   7.509   8.813 -0.7658 -1.7272 -0.3742
  140MOL0     H18843   0.113   7.728   8.734 -0.6083 -0.2829 -1.1275
  140MOL0     H18844   0.233   7.737   8.615 -0.5162 -1.0774 -3.2344
  140MOL0     H18845   0.034   7.690   8.491 -2.0366  0.3479  1.0540
  140MOL0     H18846   0.129   7.540   8.487  0.0776  1.1803 -0.6976
  140MOL0     H18847  -0.016   7.455   8.674  2.2160 -1.7785 -3.3831
  140MOL0     H18848  -0.094   7.617   8.682 -1.7992  1.1418 -1.5029
  140MOL0     H18849  -0.156   7.567   8.421  0.1503 -0.8663 -0.6834
  140MOL0     H18850  -0.254   7.513   8.548 -0.1028 -1.4622  2.4652
  140MOL0     H18851  -0.327   7.274   8.483 -1.0910 -0.5328 -2.3039
  140MOL0     H18852  -0.133   6.933   8.481  0.8829 -0.5841 -2.7687
  140MOL0     H18853  -0.287   7.008   8.522 -1.2819  4.8075 -0.4913
  140MOL0     H18854  -0.231   6.946   8.233 -0.9330  1.1537 -1.4404
  140MOL0     H18855  -0.350   7.062   8.301 -3.0086 -1.1826  0.9306
  140MOL0     H18856  -0.439   6.845   8.437 -2.9765  2.0187 -1.1657
  140MOL0     H18857  -0.337   6.757   8.334 -0.6957  0.0541 -0.1019
  140MOL0     H18858  -0.583   6.779   8.210 -0.0212 -0.2714  0.6695
  140MOL0     H18859  -0.464   6.861   8.128  2.7527  1.0897  0.1016
  140MOL0     H18860  -0.747   7.130   8.376  1.2067  2.1363  0.2325
  140MOL0     H18861  -1.033   7.292   8.262 -1.2513  0.0492  0.1331
  140MOL0     H18862  -1.075   7.144   8.361 -0.3503  0.1359 -0.5479
  140MOL0     H18863  -0.942   7.251   8.401  2.8468  0.2572 -0.7427
  140MOL0     H18864  -1.355   7.052   7.948  2.8214  2.6350 -1.5051
  140MOL0     H18865  -1.612   7.109   7.950 -0.5819  0.5089 -0.1055
  140MOL0     H18866  -1.770   7.377   7.906 -1.7213  1.3340 -0.2404
  140MOL0     H18867  -1.786   7.200   7.955 -0.5185  0.3506  0.7166
  140MOL0     H18868  -1.958   7.345   8.129  2.5488  0.8028  0.6959
  140MOL0     H18869  -1.955   7.448   7.987 -1.6180 -0.7970 -0.2795
  140MOL0     H18870  -2.002   7.153   7.913 -0.3604  0.1711 -2.9727
  140MOL0     H18871  -2.037   7.297   7.827  0.8325  0.9236  0.1035
  140MOL0     H18872  -2.222   7.150   7.955  2.4651  0.6375 -3.1543
  140MOL0     H18873  -2.153   7.226   8.099  1.8522 -0.4702  0.1167
  140MOL0     H18874  -2.319   7.342   7.871  2.3041 -0.5674 -1.8346
  140MOL0     H18875  -2.196   7.445   7.944 -0.4168  0.7467  1.2832
  140MOL0     H18876  -2.280   7.409   8.156  0.0485  2.7326 -1.8950
  140MOL0     H18877  -2.399   7.482   8.060  0.4220 -0.0670 -1.7900
  140MOL0     H18878  -2.387   7.177   8.136 -0.9154 -1.1342  0.3761
  140MOL0     H18879  -2.511   7.237   8.030  2.1987  0.1326 -1.3117
  140MOL0     H18880  -2.474   7.338   8.325  0.6452 -0.5975  0.1889
  140MOL0     H18881  -2.548   7.185   8.274  1.8572  0.6286 -0.6225
  140MOL0     H18882  -1.535   7.417   8.234  3.8019  0.6082  1.7344
  140MOL0     H18883  -1.290   7.346   8.243  1.4738 -0.3141 -0.4681
  140MOL0     H18884  -0.879   6.947   7.929 -0.7474 -4.7456  1.4840
  140MOL0     H18885  -0.688   6.882   8.017 -0.5371 -0.6011  0.2066
  140MOL0     H18886   0.792   7.471   9.107 -1.5757 -0.6041 -0.6716
  140MOL0     H18887   0.965   7.591   9.239  1.3028 -1.1218 -0.0151
  140MOL0     H18888   1.080   8.197   9.326 -0.2824 -0.5602 -0.4751
  140MOL0     H18889   1.275   8.306   9.401  1.5349 -0.1725  0.8520
  140MOL0     H18890   1.728   8.225   9.446  0.4568 -4.3640  0.9232
  140MOL0     H18891   1.677   8.085   9.376  0.4531  0.4834 -0.0757
  140MOL0     H18892   1.695   8.343   9.204 -4.1387  0.7437  3.6268
  140MOL0     H18893   1.665   8.179   9.142  3.6736  1.5771 -4.4546
  140MOL0     H18894   1.898   8.145   9.290 -0.7303 -3.6703 -2.3004
  140MOL0     H18895   1.912   8.314   9.238  1.6947 -0.9530  0.4263
  140MOL0     H18896   1.878   8.052   9.075 -0.3260 -0.1098  1.2941
  140MOL0     H18897   2.030   8.144   9.093  0.0284  0.2001 -0.3808
  140MOL0     H18898   1.824   8.403   8.818  3.8944  0.7137 -0.8805
  140MOL0     H18899   1.524   7.974   9.279 -0.4267 -2.3008  0.3251
  140MOL0     H18900   1.318   7.843   9.218  3.5321  0.9570 -2.1283
  141MOL0     O18901   7.303   5.829   2.394  0.4574  0.4161  0.0100
  141MOL0     C18902   7.207   5.823   2.319 -0.4198 -0.6441 -0.1138
  141MOL0     O18903   7.210   5.847   2.191  0.0266 -0.9043  0.8869
  141MOL0     C18904   7.322   5.850   2.107 -0.4592  0.5962  0.2703
  141MOL0     C18905   7.291   5.889   1.975 -0.5512  0.5460  0.1819
  141MOL0     C18906   7.402   5.909   1.883  0.2515 -1.0294 -0.1982
  141MOL0     C18907   7.534   5.896   1.925 -0.2755 -0.3573  0.3675
  141MOL0     O18908   7.631   5.897   1.827 -0.1320  0.4247 -0.4233
  141MOL0     C18909   7.766   5.921   1.873 -0.3566 -0.0005 -0.0194
  141MOL0     C18910   7.858   5.960   1.754 -0.0601  0.9419 -1.4063
  141MOL0     C18911   7.994   5.995   1.816  0.0128  0.8827 -0.0574
  141MOL0     C18912   8.095   6.053   1.719  0.2938 -0.7347  0.0600
  141MOL0     C18913   8.232   6.045   1.786 -0.1925 -0.3163 -0.2996
  141MOL0     C18914   8.339   6.136   1.721  0.1254  0.5097 -0.8310
  141MOL0     C18915   8.462   6.131   1.806  0.3387 -0.4563  0.4317
  141MOL0     C18916   8.575   6.204   1.738  0.1552 -0.0414  0.5244
  141MOL0     N18917   8.585   6.149   1.604 -0.4030  0.3247 -0.3238
  141MOL0     C18918   8.632   6.027   1.555  0.5632  0.4647  0.9885
  141MOL0     C18919   8.634   6.041   1.416  0.1567 -0.7017  0.0180
  141MOL0     C18920   8.707   5.950   1.323  0.8082  0.4465 -0.1852
  141MOL0     C18921   8.600   5.906   1.224 -0.5773  0.6062 -0.0150
  141MOL0     C18922   8.668   5.844   1.092 -0.3391  0.0899 -0.0533
  141MOL0     C18923   8.574   5.796   0.982 -0.1832  0.1040  0.1102
  141MOL0     O18924   8.523   5.664   1.021 -0.7392  0.2030 -0.2957
  141MOL0     C18925   8.391   5.630   1.000 -0.6856 -0.4323 -0.1712
  141MOL0     C18926   8.312   5.674   0.891  0.4435 -0.2307 -0.6795
  141MOL0     C18927   8.187   5.623   0.864 -0.0494  0.0437  0.0973
  141MOL0     C18928   8.124   5.663   0.737  0.2208  0.3756 -0.0412
  141MOL0     C18929   8.126   5.540   0.959 -0.2078  0.6312 -1.0323
  141MOL0     C18930   7.995   5.472   0.936  0.1391  1.1859  0.1540
  141MOL0     O18931   7.896   5.523   0.853 -0.6901 -0.2955 -0.1706
  141MOL0     C18932   7.776   5.476   0.851 -0.1933 -0.3634 -0.0911
  141MOL0     C18933   7.723   5.407   0.742  0.2101  0.0924  0.0520
  141MOL0     C18934   7.596   5.346   0.753 -0.3532  0.3148  0.2097
  141MOL0     C18935   7.526   5.345   0.875 -0.1686 -0.2320 -0.1285
  141MOL0     O18936   7.398   5.295   0.899 -0.2245  0.2306 -0.3758
  141MOL0     C18937   7.330   5.229   0.801 -0.5360  0.1674  0.2196
  141MOL0     C18938   7.205   5.158   0.851 -0.3829  0.1150 -0.1785
  141MOL0     C18939   7.107   5.087   0.754  0.3081  0.6728  0.1578
  141MOL0     C18940   7.026   4.960   0.809  0.4783  0.4456 -0.8206
  141MOL0     C18941   6.933   4.996   0.926  0.4748  0.3595 -0.0347
  141MOL0     C18942   6.846   5.118   0.899  0.3421 -0.5523  0.3308
  141MOL0     C18943   6.716   5.114   0.981  0.4599 -0.0142  0.0003
  141MOL0     C18944   6.626   5.239   0.956  0.4426  0.6719 -0.2570
  141MOL0    Cl18945   6.523   5.194   0.814  0.2799 -0.7650  0.1263
  141MOL0     C18946   7.581   5.414   0.984 -1.0823  0.6895 -0.0942
  141MOL0     C18947   7.710   5.471   0.972 -0.1447 -0.4010  0.1548
  141MOL0     O18948   7.987   5.364   1.002 -0.1767  0.0110 -0.6540
  141MOL0     C18949   8.200   5.499   1.062 -0.1102  0.1511  1.0260
  141MOL0     C18950   8.335   5.537   1.085  0.8762  0.1932 -0.2426
  141MOL0     N18951   8.596   6.171   1.384  0.7240 -0.1144  0.1330
  141MOL0     N18952   8.562   6.228   1.490  0.1613 -0.4941  0.3060
  141MOL0     C18953   7.555   5.860   2.057 -0.1247 -0.5992  0.3547
  141MOL0     C18954   7.455   5.848   2.144  0.5877  0.2534 -0.1234
  141MOL0     C18955   7.067   5.786   2.379 -1.0709  0.2625  0.0385
  141MOL0     C18956   7.050   5.756   2.516 -0.2557  0.1258  0.8046
  141MOL0     C18957   6.923   5.711   2.563 -0.4569 -0.0258 -0.4762
  141MOL0     C18958   6.805   5.706   2.477 -0.0950  0.7129 -0.4341
  141MOL0     O18959   6.675   5.695   2.516 -0.4978 -0.0250  0.8675
  141MOL0     C18960   6.655   5.600   2.623 -0.8062 -0.3523  0.5232
  141MOL0     C18961   6.509   5.571   2.656  0.1074 -0.1233  0.0664
  141MOL0     C18962   6.411   5.693   2.666  0.3735  0.9819 -0.1786
  141MOL0     C18963   6.459   5.825   2.737 -1.0909  0.2365  0.2022
  141MOL0     C18964   6.487   5.799   2.883 -0.1313  1.3495 -0.1625
  141MOL0     C18965   6.521   5.769   3.000  0.0309 -0.1053  1.3446
  141MOL0     C18966   6.825   5.724   2.343 -0.4628 -0.5711 -0.7215
  141MOL0     C18967   6.953   5.765   2.295  0.6161 -0.6630 -0.4309
  141MOL0     H18968   7.191   5.902   1.934  0.5980 -2.6589 -4.4323
  141MOL0     H18969   7.383   5.934   1.779 -2.1398  1.3239  0.6788
  141MOL0     H18970   7.768   6.014   1.930 -0.2651 -1.0052  1.7074
  141MOL0     H18971   7.808   5.840   1.934  1.2797  0.0085 -1.0939
  141MOL0     H18972   7.862   5.880   1.680 -3.5823 -1.2357  0.5035
  141MOL0     H18973   7.817   6.052   1.712  2.1323  2.3794 -0.6169
  141MOL0     H18974   7.987   6.069   1.897  0.6992  2.1328 -1.1060
  141MOL0     H18975   8.027   5.896   1.848  0.3218  1.5702  1.8654
  141MOL0     H18976   8.102   6.008   1.620 -0.4323  2.2279 -1.4567
  141MOL0     H18977   8.066   6.157   1.702  1.5800 -0.3228  0.2278
  141MOL0     H18978   8.231   6.071   1.892  3.2070 -0.0802 -0.2114
  141MOL0     H18979   8.260   5.939   1.781  0.5557 -0.1272 -0.2407
  141MOL0     H18980   8.355   6.097   1.620  0.6763  1.5962 -1.1739
  141MOL0     H18981   8.308   6.240   1.713 -0.3583  0.2930 -1.9331
  141MOL0     H18982   8.441   6.170   1.906 -0.4243 -0.5449  0.3134
  141MOL0     H18983   8.490   6.026   1.816 -2.7077 -1.6518 -2.0994
  141MOL0     H18984   8.665   6.185   1.798  0.7899  0.0497 -0.3887
  141MOL0     H18985   8.557   6.312   1.740 -0.2311 -0.0839 -0.2556
  141MOL0     H18986   8.674   5.946   1.613  0.6230  0.5801  1.1070
  141MOL0     H18987   8.785   5.999   1.263  0.2092 -2.3164 -3.5502
  141MOL0     H18988   8.754   5.874   1.386 -3.2736 -0.3467  2.2380
  141MOL0     H18989   8.542   5.996   1.204 -0.1425  0.3319 -2.8044
  141MOL0     H18990   8.535   5.833   1.273 -0.1778 -0.2899 -0.7915
  141MOL0     H18991   8.747   5.776   1.124  1.6382  1.8843 -0.8746
  141MOL0     H18992   8.722   5.928   1.047  1.4500  0.4197  2.4962
  141MOL0     H18993   8.629   5.779   0.889  3.3614 -0.2647  2.1041
  141MOL0     H18994   8.499   5.874   0.968 -0.8261 -0.2541  1.3566
  141MOL0     H18995   8.353   5.749   0.823 -0.4576 -0.7833 -1.8745
  141MOL0     H18996   8.029   5.715   0.751  0.2579  0.3945  0.1381
  141MOL0     H18997   8.183   5.728   0.672  1.0122 -0.3633 -0.0786
  141MOL0     H18998   8.118   5.569   0.681  1.5736  1.0544 -1.3830
  141MOL0     H18999   7.771   5.395   0.645 -2.5620 -1.5531 -1.2430
  141MOL0     H19000   7.556   5.295   0.666  1.4582 -2.8047  1.0565
  141MOL0     H19001   7.302   5.294   0.717  2.0992  0.7879 -0.2697
  141MOL0     H19002   7.397   5.148   0.769 -0.3049 -0.0537  1.2397
  141MOL0     H19003   7.245   5.077   0.913  1.3671  1.8140  1.0108
  141MOL0     H19004   7.151   5.225   0.918  0.5705  1.4678 -0.7102
  141MOL0     H19005   7.177   5.052   0.677  0.2028 -4.9191  2.1186
  141MOL0     H19006   7.047   5.170   0.717 -0.3889  1.8042  3.4379
  141MOL0     H19007   6.975   4.914   0.724 -0.7607 -1.6191  0.9664
  141MOL0     H19008   7.092   4.883   0.851  1.8612  1.9211 -0.1522
  141MOL0     H19009   6.990   5.023   1.014 -2.3866  2.1521  1.4373
  141MOL0     H19010   6.884   4.901   0.951 -0.3490  0.7412 -0.1498
  141MOL0     H19011   6.907   5.207   0.919 -1.1291  0.2549  1.3619
  141MOL0     H19012   6.823   5.125   0.792 -0.7212 -2.0584  0.4337
  141MOL0     H19013   6.751   5.114   1.084  1.4114  1.2775 -0.3063
  141MOL0     H19014   6.664   5.019   0.965 -0.3390  0.5567 -0.9184
  141MOL0     H19015   6.689   5.327   0.940 -1.6976  2.8439  2.3163
  141MOL0     H19016   6.568   5.266   1.044  0.7338  1.5986 -0.3447
  141MOL0     H19017   7.521   5.428   1.073 -3.1807 -0.2962 -1.2701
  141MOL0     H19018   7.741   5.528   1.059  0.0127 -2.4533  1.5244
  141MOL0     H19019   8.159   5.438   1.142 -2.1636  1.3282  0.9436
  141MOL0     H19020   8.385   5.483   1.164  1.3525  0.8247 -0.1011
  141MOL0     H19021   7.655   5.852   2.099 -0.3123  0.8399  1.1385
  141MOL0     H19022   7.475   5.827   2.249  0.9035 -2.1451 -0.6184
  141MOL0     H19023   7.134   5.769   2.583  0.6013 -0.2701 -0.1519
  141MOL0     H19024   6.916   5.697   2.670  2.2317  0.8626 -0.1135
  141MOL0     H19025   6.698   5.499   2.615 -0.2067 -0.3773  3.2526
  141MOL0     H19026   6.702   5.645   2.711 -3.1528  0.0191  1.6589
  141MOL0     H19027   6.493   5.526   2.755 -0.8748  2.6678  1.2797
  141MOL0     H19028   6.473   5.492   2.590 -2.9407 -1.0649  2.6174
  141MOL0     H19029   6.316   5.661   2.709  1.8889 -2.6185  0.9446
  141MOL0     H19030   6.387   5.718   2.563  3.2573  0.0606 -1.1729
  141MOL0     H19031   6.386   5.906   2.724 -0.5322  0.8446  0.7915
  141MOL0     H19032   6.548   5.874   2.697 -0.2620  0.7231  2.5140
  141MOL0     H19033   6.548   5.760   3.103  2.1107 -0.7843  0.7847
  141MOL0     H19034   6.750   5.729   2.265 -0.2413  0.3599 -0.8860
  141MOL0     H19035   6.977   5.782   2.190  0.2385 -2.1882 -0.7868
  142MOL0     O19036   1.106   3.599   2.047 -0.3027 -0.5130 -0.7200
  142MOL0     C19037   1.187   3.513   2.087 -0.2098  0.1438  0.3178
  142MOL0     O19038   1.181   3.382   2.044 -0.0286 -0.6302  0.4413
  142MOL0     C19039   1.074   3.344   1.977  0.5447  0.0221 -0.2348
  142MOL0     C19040   0.955   3.298   2.045 -0.8277  0.0028 -0.3126
  142MOL0     C19041   0.848   3.257   1.968 -0.6986 -0.5791 -0.0382
  142MOL0     C19042   0.837   3.268   1.835  0.0587 -0.6221  0.2148
  142MOL0     O19043   0.734   3.231   1.759  0.1638  0.1534  0.7132
  142MOL0     C19044   0.601   3.223   1.810 -0.1062  0.1240 -0.4704
  142MOL0     C19045   0.491   3.269   1.721 -0.6310 -0.9644  0.8242
  142MOL0     C19046   0.357   3.197   1.751  1.0269 -1.0914 -0.8152
  142MOL0     C19047   0.295   3.264   1.875  0.8619 -0.3898  0.6677
  142MOL0     C19048   0.178   3.171   1.930 -1.0773  0.2911 -0.4366
  142MOL0     C19049   0.108   3.244   2.048  0.5591  0.2237 -1.1457
  142MOL0     C19050  -0.026   3.191   2.090 -0.5844 -0.2766  0.5620
  142MOL0     C19051  -0.019   3.048   2.130 -0.2649  0.1690  0.9916
  142MOL0     N19052  -0.152   2.995   2.152  0.3572  0.5309  0.4468
  142MOL0     C19053  -0.280   3.019   2.097 -0.5297  0.0801 -0.4459
  142MOL0     C19054  -0.366   2.936   2.169 -0.0785  0.0905  0.3857
  142MOL0     C19055  -0.516   2.936   2.174  0.6762 -0.8461 -0.1564
  142MOL0     C19056  -0.554   2.868   2.045 -0.5912 -0.3749 -0.2514
  142MOL0     C19057  -0.698   2.841   2.020  0.4095 -0.9269 -0.5232
  142MOL0     C19058  -0.757   2.731   2.114 -0.4036  0.9665  0.7264
  142MOL0     O19059  -0.768   2.599   2.048 -0.8419 -0.0842 -0.3516
  142MOL0     C19060  -0.888   2.529   2.053  0.4091 -0.1278 -0.3209
  142MOL0     C19061  -0.989   2.548   2.151 -0.4437 -0.4299  0.5158
  142MOL0     C19062  -1.111   2.478   2.150 -0.2107 -0.0181 -1.4634
  142MOL0     C19063  -1.206   2.507   2.270  0.3521  0.7294 -0.2800
  142MOL0     C19064  -1.134   2.389   2.039  0.3754  0.4977  0.1295
  142MOL0     C19065  -1.270   2.319   2.021  0.0713  0.0810  0.0395
  142MOL0     O19066  -1.386   2.380   2.064 -0.5448 -0.1487 -0.4249
  142MOL0     C19067  -1.498   2.335   2.015 -0.5759  0.6155  0.1033
  142MOL0     C19068  -1.537   2.349   1.887 -0.7822 -0.5984 -0.1355
  142MOL0     C19069  -1.659   2.291   1.838  0.6968  0.5676  0.6999
  142MOL0     C19070  -1.737   2.199   1.912  0.5173  0.4985  0.4961
  142MOL0     O19071  -1.841   2.133   1.849  0.1436 -0.8172  0.1793
  142MOL0     C19072  -1.938   2.078   1.938  0.1665 -0.8263 -0.3979
  142MOL0     C19073  -2.061   2.046   1.851  0.6151  0.8847 -0.8022
  142MOL0     C19074  -2.120   1.912   1.908 -0.8736 -0.6707 -0.4318
  142MOL0     C19075  -2.268   1.882   1.874 -0.5343  0.0226 -0.2596
  142MOL0     C19076  -2.310   1.753   1.938  0.1634  1.0346  1.1652
  142MOL0     C19077  -2.458   1.728   1.926  0.2732  0.1771  0.7825
  142MOL0     C19078  -2.492   1.577   1.975 -0.4466 -0.3073  0.0489
  142MOL0     C19079  -2.633   1.536   1.974  0.7410 -0.6189 -0.0421
  142MOL0    Cl19080  -2.710   1.637   2.087 -0.1216 -0.0313 -0.3653
  142MOL0     C19081  -1.685   2.172   2.048  0.0320 -0.0845  0.0445
  142MOL0     C19082  -1.585   2.260   2.098 -0.4144  0.5152 -0.4203
  142MOL0     O19083  -1.259   2.200   1.977 -0.1951  0.1873  0.3866
  142MOL0     C19084  -1.037   2.378   1.938  0.9436  0.5039 -0.1294
  142MOL0     C19085  -0.911   2.433   1.945 -0.2881 -0.7178  0.4538
  142MOL0     N19086  -0.284   2.865   2.250  0.6566 -0.2761  0.2725
  142MOL0     N19087  -0.162   2.890   2.241 -0.7352 -0.4985  0.5883
  142MOL0     C19088   0.944   3.327   1.768  0.3792  0.3634  0.1026
  142MOL0     C19089   1.068   3.350   1.840  0.8242  0.2002  0.8638
  142MOL0     C19090   1.281   3.557   2.198  0.3397  0.1625  0.0667
  142MOL0     C19091   1.330   3.458   2.296 -0.3607  0.0757 -0.1198
  142MOL0     C19092   1.415   3.507   2.392 -0.5818 -0.4764 -0.7791
  142MOL0     C19093   1.458   3.643   2.397  0.2847 -0.6953 -0.2170
  142MOL0     O19094   1.526   3.686   2.508 -0.1580 -0.4349 -0.3393
  142MOL0     C19095   1.665   3.636   2.505  0.6323  0.2161  0.2240
  142MOL0     C19096   1.758   3.746   2.544  0.1824  0.3968  0.2722
  142MOL0     C19097   1.791   3.835   2.422 -0.0627  0.1910 -0.4884
  142MOL0     C19098   1.885   3.960   2.454 -0.0576  0.7415  0.5434
  142MOL0     C19099   1.901   4.048   2.340 -0.9109  0.3978  0.5049
  142MOL0     C19100   1.930   4.148   2.278  0.0393  0.0822  0.1675
  142MOL0     C19101   1.415   3.739   2.299 -0.4303  0.2990  0.7300
  142MOL0     C19102   1.329   3.691   2.201  0.3644 -0.2337  0.3040
  142MOL0     H19103   0.936   3.294   2.152 -2.1136  1.2108 -0.4685
  142MOL0     H19104   0.762   3.221   2.024  0.5230 -0.0845  2.2543
  142MOL0     H19105   0.594   3.115   1.820  0.6087 -0.1750 -2.7563
  142MOL0     H19106   0.595   3.266   1.911  0.2508 -0.8086 -0.0363
  142MOL0     H19107   0.480   3.377   1.728 -0.8434 -0.7167 -2.2138
  142MOL0     H19108   0.527   3.237   1.622  1.5154 -2.2049  1.9252
  142MOL0     H19109   0.291   3.200   1.663 -0.1214  0.1853  0.0503
  142MOL0     H19110   0.376   3.092   1.777 -1.2724 -1.2727  0.3302
  142MOL0     H19111   0.368   3.276   1.956  2.1760 -1.5565 -0.2872
  142MOL0     H19112   0.253   3.360   1.842  0.6931 -0.2704  1.2128
  142MOL0     H19113   0.105   3.149   1.852  1.0768 -2.9871 -1.7273
  142MOL0     H19114   0.214   3.076   1.971 -2.3876 -1.4286 -3.0279
  142MOL0     H19115   0.170   3.245   2.138 -0.1089 -0.1783 -0.6699
  142MOL0     H19116   0.090   3.348   2.021 -1.1924  0.5645  1.0881
  142MOL0     H19117  -0.056   3.256   2.173  6.4195  4.4740  0.2942
  142MOL0     H19118  -0.095   3.219   2.010 -1.0177 -2.0629  0.2720
  142MOL0     H19119   0.033   3.029   2.224  2.5431 -1.4933 -0.7710
  142MOL0     H19120   0.021   2.990   2.046 -0.1876  0.8688  0.5395
  142MOL0     H19121  -0.297   3.093   2.019 -1.9355  1.2692  0.9097
  142MOL0     H19122  -0.545   2.883   2.266 -0.0728 -0.1223  0.0327
  142MOL0     H19123  -0.561   3.034   2.187  0.6702 -1.1711  3.4601
  142MOL0     H19124  -0.506   2.770   2.042  2.2099  0.8067  1.3952
  142MOL0     H19125  -0.515   2.931   1.965 -0.5061 -1.2250 -0.8942
  142MOL0     H19126  -0.717   2.799   1.921 -1.4647 -2.0041  0.2372
  142MOL0     H19127  -0.755   2.933   2.038 -2.7026 -3.1836  2.2194
  142MOL0     H19128  -0.856   2.773   2.133 -0.3259  1.3845  0.2353
  142MOL0     H19129  -0.707   2.713   2.210 -0.2325 -1.8170  0.1941
  142MOL0     H19130  -0.972   2.613   2.236 -0.9944 -0.6890  0.8345
  142MOL0     H19131  -1.263   2.414   2.275 -1.2260  1.6245 -0.7132
  142MOL0     H19132  -1.157   2.540   2.362 -1.8210  0.2436  1.1374
  142MOL0     H19133  -1.271   2.590   2.240  3.6588  2.4971 -3.2889
  142MOL0     H19134  -1.477   2.414   1.823 -1.0045 -2.4450 -2.3979
  142MOL0     H19135  -1.687   2.310   1.735  3.5339 -1.7623 -0.6467
  142MOL0     H19136  -1.909   1.990   1.995 -0.0876 -0.0217  1.0287
  142MOL0     H19137  -1.958   2.152   2.016 -0.3545  0.8102 -2.0011
  142MOL0     H19138  -2.139   2.122   1.853 -0.1469  0.1341 -1.3095
  142MOL0     H19139  -2.043   2.039   1.743  1.9068  2.6603 -0.7473
  142MOL0     H19140  -2.107   1.903   2.016 -2.5997 -0.8895 -0.2094
  142MOL0     H19141  -2.057   1.835   1.863 -2.0080 -2.5413  1.0496
  142MOL0     H19142  -2.332   1.963   1.909 -2.2284 -2.2347  2.2527
  142MOL0     H19143  -2.274   1.871   1.765 -2.3344  1.6883 -0.3669
  142MOL0     H19144  -2.288   1.761   2.045  1.1309  0.3037  1.0354
  142MOL0     H19145  -2.252   1.671   1.895 -1.3662  0.3944  0.2429
  142MOL0     H19146  -2.510   1.800   1.990 -0.2607  2.2379 -1.7916
  142MOL0     H19147  -2.488   1.738   1.821  2.2107 -0.9794  0.0685
  142MOL0     H19148  -2.445   1.553   2.070 -0.5166 -3.4864 -0.6250
  142MOL0     H19149  -2.437   1.515   1.903 -1.3327 -0.3462 -0.6123
  142MOL0     H19150  -2.660   1.432   1.998  0.8792 -0.6294  0.0696
  142MOL0     H19151  -2.670   1.560   1.874 -0.7828 -2.5807 -0.0028
  142MOL0     H19152  -1.726   2.096   2.114  0.1333 -1.0153 -0.9284
  142MOL0     H19153  -1.538   2.247   2.195  1.9756  3.0173 -1.1305
  142MOL0     H19154  -1.048   2.302   1.861 -3.4842  0.2550  0.4769
  142MOL0     H19155  -0.835   2.414   1.869  1.9365 -0.6272  2.5387
  142MOL0     H19156   0.933   3.358   1.665 -0.5628  1.1764  0.4290
  142MOL0     H19157   1.146   3.387   1.774 -0.7855  0.0736 -1.2084
  142MOL0     H19158   1.303   3.353   2.293 -0.4295 -0.1182  3.0623
  142MOL0     H19159   1.456   3.449   2.474 -2.5808  0.4203  0.9427
  142MOL0     H19160   1.680   3.552   2.573 -0.7052 -1.0216 -0.9445
  142MOL0     H19161   1.688   3.589   2.410  1.4894 -1.8966  1.4046
  142MOL0     H19162   1.857   3.714   2.578  0.9890 -0.6901 -2.7759
  142MOL0     H19163   1.701   3.798   2.622 -1.7522  1.3720 -1.6816
  142MOL0     H19164   1.692   3.870   2.391 -0.9489  0.0047  1.9091
  142MOL0     H19165   1.834   3.783   2.335  1.3439  3.1741 -1.7106
  142MOL0     H19166   1.989   3.927   2.461  0.3432  0.4510 -4.1543
  142MOL0     H19167   1.850   4.022   2.538 -1.5685  2.4750 -1.2546
  142MOL0     H19168   1.940   4.231   2.211  0.1436 -1.3141 -1.6330
  142MOL0     H19169   1.439   3.844   2.290 -1.0449  0.3447 -0.5146
  142MOL0     H19170   1.282   3.764   2.136  0.4919  1.7956  2.3410
  143MOL0     O19171   3.399   0.211  11.372  0.6896 -0.1161 -0.3895
  143MOL0     C19172   3.484   0.235  11.463  0.0378 -0.0138 -0.7642
  143MOL0     O19173   3.515   0.152  11.568 -0.0215 -0.3377 -0.2196
  143MOL0     C19174   3.455   0.027  11.580  0.4961 -0.2881 -0.0799
  143MOL0     C19175   3.315   0.021  11.579  1.1229  1.0060  0.2865
  143MOL0     C19176   3.255  -0.100  11.590  0.6944 -0.4040  0.2447
  143MOL0     C19177   3.323  -0.220  11.620 -0.4234  0.0386  0.8105
  143MOL0     O19178   3.243  -0.331  11.619 -0.1840  0.5303  0.2812
  143MOL0     C19179   3.254  -0.431  11.519 -0.8597  0.6857 -0.4238
  143MOL0     C19180   3.113  -0.472  11.479 -0.1086 -0.2075  0.2636
  143MOL0     C19181   3.033  -0.530  11.603  0.4667 -0.1199  0.1369
  143MOL0     C19182   2.886  -0.528  11.591 -0.6751 -0.8511  0.8663
  143MOL0     C19183   2.796  -0.584  11.702 -0.2711 -0.1895 -0.0539
  143MOL0     C19184   2.658  -0.625  11.653 -0.0578  0.3294 -0.6809
  143MOL0     C19185   2.583  -0.512  11.603  0.0783  0.8335  0.5076
  143MOL0     C19186   2.443  -0.556  11.563  1.3246  0.1820  0.4113
  143MOL0     N19187   2.349  -0.575  11.683 -0.0707 -0.6025  0.1570
  143MOL0     C19188   2.312  -0.703  11.733  0.9947  0.8394 -0.1649
  143MOL0     C19189   2.226  -0.670  11.837 -1.3098 -0.3035  0.0675
  143MOL0     C19190   2.133  -0.754  11.918 -0.1224 -0.5814 -0.1408
  143MOL0     C19191   2.044  -0.852  11.839 -0.0378  0.4229  0.1875
  143MOL0     C19192   1.940  -0.915  11.928  1.0060  0.3567 -0.8306
  143MOL0     C19193   1.824  -0.976  11.852 -0.5736 -0.0792  0.5007
  143MOL0     O19194   1.747  -1.055  11.940 -0.9160  0.0490  0.5637
  143MOL0     C19195   1.691  -1.161  11.893 -1.0952 -0.1111 -0.2257
  143MOL0     C19196   1.716  -1.277  11.958  0.0900 -0.1976 -0.1385
  143MOL0     C19197   1.662  -1.407  11.922 -0.5075 -1.1399  0.3015
  143MOL0     C19198   1.711  -1.524  12.000  0.2187 -0.2110 -0.5294
  143MOL0     C19199   1.575  -1.419  11.812 -0.4191  0.1266 -0.3805
  143MOL0     C19200   1.508  -1.541  11.762  0.5829  0.0085  1.1245
  143MOL0     O19201   1.411  -1.528  11.668 -0.0810  0.4514 -0.3265
  143MOL0     C19202   1.354  -1.627  11.589 -0.2490 -0.1546 -0.1594
  143MOL0     C19203   1.388  -1.628  11.461 -0.2652 -0.3054 -0.1455
  143MOL0     C19204   1.331  -1.721  11.369 -0.2015 -0.2217  0.6656
  143MOL0     C19205   1.237  -1.818  11.410  0.3827  0.5482 -0.7607
  143MOL0     O19206   1.191  -1.913  11.322 -0.0870 -0.0768  0.7493
  143MOL0     C19207   1.136  -2.029  11.376  0.5801 -0.0062 -0.3514
  143MOL0     C19208   0.984  -2.022  11.410  0.0667  0.4323  0.4136
  143MOL0     C19209   0.903  -2.007  11.283 -0.2327 -0.1546 -0.1585
  143MOL0     C19210   0.753  -1.988  11.315 -0.4864 -0.3250  0.4287
  143MOL0     C19211   0.689  -2.118  11.335 -0.3597  0.4501 -0.0850
  143MOL0     C19212   0.539  -2.099  11.380 -0.0453 -0.4544  0.7851
  143MOL0     C19213   0.453  -2.016  11.276 -0.1817  0.2689  0.2898
  143MOL0     C19214   0.478  -2.062  11.128 -0.2566  0.5535  1.8482
  143MOL0    Cl19215   0.359  -2.005  11.028  0.1708 -0.2132  0.1632
  143MOL0     C19216   1.201  -1.808  11.549  0.6016 -0.7816 -0.7550
  143MOL0     C19217   1.250  -1.709  11.636 -0.5935 -0.6175  0.5965
  143MOL0     O19218   1.543  -1.651  11.802  0.3243  0.0005  0.6612
  143MOL0     C19219   1.552  -1.300  11.740 -0.0081 -0.2200  0.4768
  143MOL0     C19220   1.608  -1.179  11.784  1.0759 -0.0559  0.8814
  143MOL0     N19221   2.217  -0.530  11.854 -0.3294 -0.6163  0.3293
  143MOL0     N19222   2.286  -0.481  11.757 -0.0583 -0.5628  0.5315
  143MOL0     C19223   3.458  -0.211  11.644 -0.3299 -0.1286  0.2901
  143MOL0     C19224   3.531  -0.087  11.622  0.0257  0.4810 -0.1980
  143MOL0     C19225   3.545   0.367  11.457 -0.5427 -0.3390 -0.0587
  143MOL0     C19226   3.652   0.394  11.548 -0.2086 -0.8081  0.8653
  143MOL0     C19227   3.733   0.513  11.542  0.8844  0.1339  0.3599
  143MOL0     C19228   3.700   0.606  11.440 -0.9334 -0.6106 -0.5472
  143MOL0     O19229   3.769   0.730  11.435 -0.2085  0.2582  0.2421
  143MOL0     C19230   3.884   0.716  11.357  0.2278 -0.0903  0.0387
  143MOL0     C19231   3.859   0.729  11.213  0.0884  0.5813  0.5313
  143MOL0     C19232   3.823   0.875  11.169 -0.0992 -0.5998  0.1939
  143MOL0     C19233   3.818   0.903  11.017 -0.5095  0.4622  0.6382
  143MOL0     C19234   3.951   0.955  10.973  0.3929 -0.1070 -0.1916
  143MOL0     C19235   4.062   0.983  10.946  0.6867 -0.7493 -0.9376
  143MOL0     C19236   3.586   0.578  11.357 -0.1102 -1.3558 -0.4049
  143MOL0     C19237   3.517   0.462  11.358 -0.2313  0.1192 -0.3543
  143MOL0     H19238   3.252   0.109  11.565  1.3056  0.9322 -1.2090
  143MOL0     H19239   3.149  -0.103  11.570  0.2780  0.8632  2.0673
  143MOL0     H19240   3.305  -0.393  11.431 -3.1266  1.2043 -1.5992
  143MOL0     H19241   3.317  -0.512  11.555  0.4062  1.2939 -1.2129
  143MOL0     H19242   3.064  -0.385  11.437 -0.4090 -0.9901 -1.0722
  143MOL0     H19243   3.110  -0.544  11.396  0.0981  0.7186 -0.5757
  143MOL0     H19244   3.066  -0.634  11.603  0.4012 -0.2118 -2.7270
  143MOL0     H19245   3.058  -0.480  11.697  0.4955  1.5826 -0.7246
  143MOL0     H19246   2.856  -0.423  11.581  1.1045 -0.3257  0.7007
  143MOL0     H19247   2.861  -0.585  11.501  2.2017 -0.1349 -0.5106
  143MOL0     H19248   2.850  -0.673  11.735  1.1099  0.5111 -0.3565
  143MOL0     H19249   2.786  -0.502  11.773 -0.5349 -1.5212  1.5105
  143MOL0     H19250   2.680  -0.700  11.576  1.7392 -0.0013  0.0862
  143MOL0     H19251   2.616  -0.675  11.741 -0.2866  0.6781 -0.5933
  143MOL0     H19252   2.572  -0.425  11.669 -3.5756  0.9906 -0.0581
  143MOL0     H19253   2.625  -0.475  11.509 -1.5850 -0.7190 -0.9306
  143MOL0     H19254   2.447  -0.643  11.498  1.0598  1.1728 -0.9861
  143MOL0     H19255   2.400  -0.479  11.498 -1.3861 -0.8038  0.9161
  143MOL0     H19256   2.328  -0.806  11.703 -0.6005 -0.5210  3.1517
  143MOL0     H19257   2.181  -0.809  11.999  0.7582 -0.4264 -0.5416
  143MOL0     H19258   2.055  -0.693  11.963  0.4283  0.3606 -0.4229
  143MOL0     H19259   2.094  -0.938  11.792  3.3590 -0.6714  5.0304
  143MOL0     H19260   1.993  -0.805  11.755 -0.0034 -3.1694 -2.0530
  143MOL0     H19261   1.907  -0.846  12.006 -2.6057 -1.6818 -0.3203
  143MOL0     H19262   1.979  -1.004  11.977 -5.7576 -2.0897  1.1715
  143MOL0     H19263   1.859  -1.027  11.762  4.1139  3.2313  0.0842
  143MOL0     H19264   1.757  -0.898  11.815 -2.1193 -2.4054 -2.0466
  143MOL0     H19265   1.778  -1.274  12.047  0.5048  4.2826 -0.3643
  143MOL0     H19266   1.803  -1.509  12.057  0.5947 -2.0279 -0.6019
  143MOL0     H19267   1.627  -1.556  12.062 -0.6312 -1.0998 -2.0610
  143MOL0     H19268   1.731  -1.610  11.935 -1.6207 -1.1613  0.1076
  143MOL0     H19269   1.469  -1.570  11.420 -0.5926 -0.1806 -0.6288
  143MOL0     H19270   1.348  -1.700  11.264 -0.4712  1.0231  0.8554
  143MOL0     H19271   1.161  -2.102  11.299  2.1016  1.5350 -1.3876
  143MOL0     H19272   1.193  -2.054  11.467  0.9943  3.4702  0.4872
  143MOL0     H19273   0.941  -2.112  11.456  0.4211 -1.0622 -2.0224
  143MOL0     H19274   0.964  -1.939  11.479 -2.9291  0.2449 -0.0991
  143MOL0     H19275   0.916  -2.088  11.211  1.9495 -0.7139  0.7894
  143MOL0     H19276   0.947  -1.920  11.235  2.0099 -0.9384  0.3842
  143MOL0     H19277   0.749  -1.936  11.412  0.0170 -2.0208  1.4057
  143MOL0     H19278   0.702  -1.921  11.246 -1.1378  0.2350  1.4184
  143MOL0     H19279   0.731  -2.175  11.418 -2.2897 -1.2882 -0.2070
  143MOL0     H19280   0.701  -2.178  11.244  1.2473 -0.0970  0.4534
  143MOL0     H19281   0.488  -2.196  11.380 -0.5808 -0.1964  2.3723
  143MOL0     H19282   0.528  -2.052  11.477 -0.5163  1.2692 -0.0744
  143MOL0     H19283   0.465  -1.908  11.293 -2.4709  0.2953  2.3172
  143MOL0     H19284   0.348  -2.033  11.299 -0.5266  1.4227 -0.3184
  143MOL0     H19285   0.485  -2.169  11.109 -1.6309  0.9587 -1.5797
  143MOL0     H19286   0.579  -2.030  11.102  0.4982 -2.0081  1.4323
  143MOL0     H19287   1.130  -1.880  11.586  0.3296  0.0499  0.3997
  143MOL0     H19288   1.217  -1.702  11.740 -3.2718 -0.3600 -0.2163
  143MOL0     H19289   1.496  -1.302  11.648  0.0700 -3.5419  0.4078
  143MOL0     H19290   1.575  -1.097  11.721 -0.1277 -0.7606  0.5644
  143MOL0     H19291   3.507  -0.302  11.679  1.3323  0.7083  0.2748
  143MOL0     H19292   3.639  -0.072  11.623  0.1999 -0.7140 -0.3575
  143MOL0     H19293   3.687   0.319  11.619  0.3539 -4.1607 -2.6006
  143MOL0     H19294   3.808   0.539  11.615 -1.6191  3.4515  2.0117
  143MOL0     H19295   3.960   0.793  11.377  0.3284  0.0116 -0.7167
  143MOL0     H19296   3.939   0.625  11.383  1.1670  0.6308  0.6730
  143MOL0     H19297   3.780   0.657  11.190 -0.9281 -0.0714  5.1041
  143MOL0     H19298   3.945   0.695  11.153 -1.4721  0.5145 -1.7932
  143MOL0     H19299   3.899   0.938  11.216  1.7938 -1.5293 -1.4630
  143MOL0     H19300   3.731   0.909  11.218  0.9856  3.9801 -0.4921
  143MOL0     H19301   3.739   0.971  10.982  0.8509  1.7220 -0.1398
  143MOL0     H19302   3.792   0.810  10.966  0.8373 -1.1175  2.7315
  143MOL0     H19303   4.154   1.034  10.923 -0.3767  0.1868 -3.4931
  143MOL0     H19304   3.560   0.654  11.283  1.6437 -2.0627 -1.8300
  143MOL0     H19305   3.433   0.435  11.295  0.0811 -0.4221 -0.5408
  144MOL0     O19306   3.536   5.736  11.040  0.1698 -0.3711 -0.3469
  144MOL0     C19307   3.533   5.827  10.955 -0.7079 -0.7506 -0.0136
  144MOL0     O19308   3.648   5.868  10.887  0.1006 -0.2720 -0.5540
  144MOL0     C19309   3.759   5.788  10.902  0.3615 -0.0970 -0.4277
  144MOL0     C19310   3.766   5.656  10.861  0.5970  1.4031  0.2002
  144MOL0     C19311   3.883   5.585  10.865  0.0780 -0.7165 -0.2366
  144MOL0     C19312   3.996   5.633  10.920  0.3296 -0.4445 -0.7232
  144MOL0     O19313   4.091   5.531  10.935  0.0391  0.0141  0.0353
  144MOL0     C19314   4.236   5.572  10.946  0.6929 -0.0924  0.8365
  144MOL0     C19315   4.308   5.437  10.993 -0.4909 -0.2804  0.0239
  144MOL0     C19316   4.270   5.416  11.139 -0.4290  0.0660 -0.1108
  144MOL0     C19317   4.157   5.312  11.167  0.0677  0.3731  1.1026
  144MOL0     C19318   4.104   5.311  11.312  0.7320  0.5023  0.9035
  144MOL0     C19319   4.084   5.439  11.394 -0.7964  0.2835  0.1106
  144MOL0     C19320   3.977   5.530  11.353  0.4700 -0.3464  0.1876
  144MOL0     C19321   3.836   5.498  11.386 -0.0053  0.6325  0.2194
  144MOL0     N19322   3.760   5.411  11.288  0.3325 -0.9410 -0.3083
  144MOL0     C19323   3.698   5.469  11.181 -0.3375 -0.3462  1.2039
  144MOL0     C19324   3.618   5.374  11.142 -0.5828 -0.4860 -0.2881
  144MOL0     C19325   3.528   5.374  11.022 -0.2304  0.1195 -0.3519
  144MOL0     C19326   3.398   5.438  11.058 -0.9230  0.2319  0.3284
  144MOL0     C19327   3.305   5.362  11.157  1.6297  0.3800  0.1625
  144MOL0     C19328   3.163   5.421  11.168 -0.4448 -0.6195 -0.6201
  144MOL0     O19329   3.081   5.367  11.063  0.0820 -1.0881  0.2734
  144MOL0     C19330   2.965   5.442  11.030 -0.2390  0.3432  0.0654
  144MOL0     C19331   2.961   5.503  10.910  0.5430  0.0820 -0.8097
  144MOL0     C19332   2.846   5.570  10.853  0.3526 -0.3816  0.3148
  144MOL0     C19333   2.854   5.621  10.715 -0.8609  0.6535 -0.3501
  144MOL0     C19334   2.741   5.588  10.946  1.3510  0.5359  0.0408
  144MOL0     C19335   2.615   5.648  10.900  0.3503  1.0254 -0.2379
  144MOL0     O19336   2.504   5.599  10.962 -0.2877  1.0026 -0.0431
  144MOL0     C19337   2.385   5.656  10.937  0.3680  0.4324 -0.2751
  144MOL0     C19338   2.323   5.624  10.817  0.2157  0.5772 -0.8336
  144MOL0     C19339   2.198   5.683  10.788 -0.4989 -0.8781  0.2227
  144MOL0     C19340   2.148   5.783  10.880 -0.0370 -0.9650 -0.1714
  144MOL0     O19341   2.039   5.869  10.854  0.0016  0.5227 -0.2980
  144MOL0     C19342   1.939   5.826  10.757 -0.3924 -0.2977  0.4323
  144MOL0     C19343   1.830   5.931  10.742 -0.4445  0.3338  0.0189
  144MOL0     C19344   1.882   6.059  10.679  0.8166  0.0701 -0.6764
  144MOL0     C19345   1.776   6.172  10.686 -0.5221  0.1898  0.0066
  144MOL0     C19346   1.823   6.315  10.630 -0.0285 -0.1195 -0.6921
  144MOL0     C19347   1.779   6.440  10.711  0.3991  0.3690 -0.5490
  144MOL0     C19348   1.836   6.575  10.660  0.6523  0.0920 -0.0992
  144MOL0     C19349   1.890   6.666  10.771  0.5093  0.5585 -1.0586
  144MOL0    Cl19350   1.758   6.695  10.890  0.4023 -0.0681 -0.2637
  144MOL0     C19351   2.212   5.810  11.003 -0.3681 -0.1618 -0.2109
  144MOL0     C19352   2.333   5.745  11.034  0.4415 -0.1939  0.0751
  144MOL0     O19353   2.616   5.740  10.824  0.3065 -0.5049 -0.0108
  144MOL0     C19354   2.750   5.525  11.075 -0.6053  1.0012 -0.3883
  144MOL0     C19355   2.861   5.455  11.113 -0.0704 -0.8386 -0.3788
  144MOL0     N19356   3.632   5.262  11.224 -0.1615 -0.6739  0.0892
  144MOL0     N19357   3.730   5.280  11.304  1.0000 -0.1202  0.6415
  144MOL0     C19358   3.988   5.766  10.969 -0.3215  0.2451  0.6372
  144MOL0     C19359   3.875   5.854  10.944 -0.5076 -0.0765 -0.1053
  144MOL0     C19360   3.398   5.862  10.906 -0.0056 -0.1460  0.1650
  144MOL0     C19361   3.272   5.816  10.964 -1.1826  0.3894  1.4148
  144MOL0     C19362   3.153   5.845  10.908 -0.5504 -0.7426  0.1020
  144MOL0     C19363   3.155   5.944  10.807 -1.0876  0.3597  0.6915
  144MOL0     O19364   3.042   5.981  10.745 -0.3989  0.2493  0.4047
  144MOL0     C19365   2.919   5.997  10.820 -0.4253  0.0540 -0.4530
  144MOL0     C19366   2.829   6.082  10.737 -0.0003 -0.7021  0.0652
  144MOL0     C19367   2.767   6.017  10.613  0.3591  0.0996  0.2976
  144MOL0     C19368   2.668   6.122  10.554 -0.2921 -0.1949  0.7370
  144MOL0     C19369   2.599   6.085  10.431  0.2878  0.8120  0.0194
  144MOL0     C19370   2.551   6.051  10.323 -0.1303  1.1014  0.1526
  144MOL0     C19371   3.272   6.003  10.759  0.6381 -0.7219 -0.0368
  144MOL0     C19372   3.391   5.965  10.809 -0.8846 -0.5737 -0.8590
  144MOL0     H19373   3.668   5.612  10.844  0.7380  0.2463  2.0743
  144MOL0     H19374   3.882   5.483  10.827 -2.3469 -0.8142 -0.0834
  144MOL0     H19375   4.261   5.605  10.845  1.7160  0.6276  1.3113
  144MOL0     H19376   4.246   5.656  11.014  0.4691  1.3319 -0.8286
  144MOL0     H19377   4.273   5.352  10.932 -1.2485  1.0285 -1.4384
  144MOL0     H19378   4.417   5.435  10.994 -0.2937  3.5542  0.0400
  144MOL0     H19379   4.353   5.386  11.203 -0.3163  1.6391  0.5156
  144MOL0     H19380   4.237   5.509  11.186 -1.5329 -2.0724  3.7697
  144MOL0     H19381   4.066   5.326  11.109 -0.0452 -0.1182  1.1617
  144MOL0     H19382   4.202   5.216  11.140  2.2367  1.6315 -0.0434
  144MOL0     H19383   4.009   5.256  11.304  0.6131  0.9527 -1.6470
  144MOL0     H19384   4.175   5.240  11.356 -0.0568 -4.2553 -4.2497
  144MOL0     H19385   4.060   5.405  11.495 -2.6459 -1.1792 -0.7466
  144MOL0     H19386   4.175   5.500  11.396  0.4014 -1.3517 -1.1818
  144MOL0     H19387   3.991   5.626  11.404 -2.3052 -1.4073  3.3509
  144MOL0     H19388   3.964   5.538  11.245  1.4604  3.4938  0.2126
  144MOL0     H19389   3.783   5.594  11.388  0.2313  0.7879 -0.5397
  144MOL0     H19390   3.841   5.454  11.486  4.4411 -0.5925 -0.3217
  144MOL0     H19391   3.714   5.563  11.128 -0.0475 -1.1692 -0.2177
  144MOL0     H19392   3.568   5.431  10.938 -2.0029  2.5599  0.3340
  144MOL0     H19393   3.520   5.271  10.985 -1.2624 -0.3936  1.1770
  144MOL0     H19394   3.340   5.450  10.967 -2.8124  0.4901  1.5188
  144MOL0     H19395   3.408   5.538  11.102 -2.4852  1.0969 -1.1523
  144MOL0     H19396   3.354   5.355  11.255  0.0911 -0.8232  0.8959
  144MOL0     H19397   3.299   5.262  11.113  0.6031 -1.1551  3.5151
  144MOL0     H19398   3.168   5.530  11.157  1.1799 -0.5794  0.1644
  144MOL0     H19399   3.109   5.398  11.261 -0.6972 -1.6489 -1.0072
  144MOL0     H19400   3.047   5.487  10.846  1.8608 -1.8061  1.2947
  144MOL0     H19401   2.899   5.721  10.721  1.3194 -0.3594  1.4532
  144MOL0     H19402   2.917   5.570  10.642 -0.6004  2.4180 -1.4140
  144MOL0     H19403   2.756   5.632  10.666 -0.2135 -1.5179 -2.3185
  144MOL0     H19404   2.366   5.556  10.743 -0.8570  0.2796 -1.2125
  144MOL0     H19405   2.161   5.680  10.686 -2.7924  0.7022  0.9267
  144MOL0     H19406   1.987   5.800  10.662  1.3875 -1.2755  1.5330
  144MOL0     H19407   1.887   5.739  10.800  0.1974 -1.0346 -0.3228
  144MOL0     H19408   1.738   5.896  10.693 -1.3605  1.5414  0.7999
  144MOL0     H19409   1.805   5.949  10.847  1.3788  1.4887  0.2993
  144MOL0     H19410   1.914   6.036  10.577 -1.4088 -2.3714 -0.9210
  144MOL0     H19411   1.969   6.090  10.738 -0.3404 -0.8111  1.6125
  144MOL0     H19412   1.680   6.141  10.642 -0.9875  1.2679  0.2218
  144MOL0     H19413   1.758   6.183  10.793 -3.0027  1.1034 -0.4327
  144MOL0     H19414   1.800   6.326  10.524  1.5429  2.0047 -0.8937
  144MOL0     H19415   1.933   6.321  10.630 -0.0430  0.3416 -1.8060
  144MOL0     H19416   1.671   6.454  10.723  0.2270 -0.4397 -1.1142
  144MOL0     H19417   1.821   6.430  10.812  4.5594 -0.1999 -2.1228
  144MOL0     H19418   1.759   6.618  10.597  3.3845  1.1441 -2.9883
  144MOL0     H19419   1.922   6.564  10.593 -0.1990  0.1495 -1.2325
  144MOL0     H19420   1.897   6.764  10.722 -1.5861  0.9511 -0.6984
  144MOL0     H19421   1.983   6.628  10.813 -1.0529 -2.8887 -0.3577
  144MOL0     H19422   2.171   5.884  11.072  2.1451  0.3879  0.7794
  144MOL0     H19423   2.396   5.769  11.119  3.0857 -2.7706 -0.9853
  144MOL0     H19424   2.663   5.535  11.139  0.0747 -0.6312  0.8526
  144MOL0     H19425   2.863   5.408  11.211 -0.6670  2.0529  1.1492
  144MOL0     H19426   4.069   5.821  11.016 -0.7810  3.4331 -1.9534
  144MOL0     H19427   3.878   5.960  10.968 -1.1810 -0.2227  0.6487
  144MOL0     H19428   3.276   5.740  11.041 -2.2674 -0.2566  0.8594
  144MOL0     H19429   3.059   5.797  10.936  0.4711 -1.7638  1.9418
  144MOL0     H19430   2.874   5.902  10.850  1.5040 -0.0547  2.3858
  144MOL0     H19431   2.940   6.036  10.920  3.0088 -1.6766 -0.3652
  144MOL0     H19432   2.892   6.160  10.693  0.5459  1.3085  3.9484
  144MOL0     H19433   2.752   6.129  10.799  1.5621  1.6131  0.3558
  144MOL0     H19434   2.720   5.923  10.642  3.9783 -1.6081  1.3419
  144MOL0     H19435   2.840   5.996  10.534 -0.9672 -0.4070 -0.8208
  144MOL0     H19436   2.730   6.206  10.519 -1.5843  0.6197  0.3397
  144MOL0     H19437   2.592   6.146  10.628 -1.9087 -4.9963  0.9991
  144MOL0     H19438   2.499   6.029  10.232  0.1661 -3.0224  0.8068
  144MOL0     H19439   3.269   6.080  10.683 -1.3224  0.4585  1.1321
  144MOL0     H19440   3.477   6.015  10.767 -0.0089 -0.4192  1.0016
  145MOL0     O19441   8.612   6.321   2.052  0.5090  0.1300 -0.4079
  145MOL0     C19442   8.651   6.260   2.152  0.3457  0.5536  0.6441
  145MOL0     O19443   8.573   6.171   2.225 -0.2362  0.3040 -0.1067
  145MOL0     C19444   8.440   6.148   2.208 -0.0044 -0.2400  0.1165
  145MOL0     C19445   8.340   6.246   2.168 -0.6880 -0.1969 -0.0959
  145MOL0     C19446   8.205   6.213   2.181 -0.2546  0.1577  0.4004
  145MOL0     C19447   8.174   6.073   2.208 -0.4044 -0.4785  0.6083
  145MOL0     O19448   8.050   6.013   2.207 -0.0440  0.9298  0.5232
  145MOL0     C19449   7.933   6.093   2.205  0.0396 -0.1291  0.1537
  145MOL0     C19450   7.891   6.145   2.336  0.4341 -0.2061 -0.0560
  145MOL0     C19451   7.914   6.039   2.458 -0.2283 -0.6877 -0.2777
  145MOL0     C19452   7.814   5.931   2.443  0.0376  0.2505 -0.4018
  145MOL0     C19453   7.844   5.810   2.533 -0.5996  0.5001 -0.7259
  145MOL0     C19454   7.735   5.707   2.523 -0.8929 -0.0148  0.2083
  145MOL0     C19455   7.631   5.756   2.628 -0.0140 -0.1067  0.3184
  145MOL0     C19456   7.505   5.677   2.632 -0.6710  0.1120 -0.3659
  145MOL0     N19457   7.508   5.563   2.723  0.3393  0.5823  0.0386
  145MOL0     C19458   7.387   5.524   2.790  0.7084  0.6519 -0.1633
  145MOL0     C19459   7.408   5.396   2.831 -0.0555  0.4632  0.3583
  145MOL0     C19460   7.312   5.314   2.919  0.2905 -0.6372  0.2848
  145MOL0     C19461   7.257   5.188   2.844  0.7503  0.2098 -0.5613
  145MOL0     C19462   7.164   5.100   2.933  0.7257  0.2384  0.6322
  145MOL0     C19463   7.252   5.019   3.028 -0.1239 -0.9462 -0.1215
  145MOL0     O19464   7.168   4.931   3.095 -0.5316  0.7799 -0.5359
  145MOL0     C19465   7.111   4.971   3.213  0.3983  0.0302 -0.7133
  145MOL0     C19466   7.039   4.884   3.301 -0.9663 -0.6958 -0.5284
  145MOL0     C19467   6.977   4.918   3.422  0.4142 -0.2464  0.0422
  145MOL0     C19468   6.913   4.801   3.488  0.6376 -0.7003 -0.5661
  145MOL0     C19469   6.967   5.055   3.457 -0.6758  0.1027 -0.6144
  145MOL0     C19470   6.897   5.113   3.572  0.2535 -0.6122 -1.0607
  145MOL0     O19471   6.895   5.250   3.574 -0.1873  0.7600 -0.2242
  145MOL0     C19472   6.836   5.317   3.685 -0.2637  0.2988  0.5784
  145MOL0     C19473   6.922   5.367   3.783 -1.0533  0.8425  0.6194
  145MOL0     C19474   6.859   5.446   3.880 -0.2245  0.3278  0.0756
  145MOL0     C19475   6.723   5.460   3.885  0.5414 -0.2223  0.6498
  145MOL0     O19476   6.685   5.548   3.983 -0.4791  0.0082 -0.2866
  145MOL0     C19477   6.544   5.578   4.004 -0.3309  0.4669  0.7010
  145MOL0     C19478   6.558   5.703   4.093  0.0744 -0.2284  0.0494
  145MOL0     C19479   6.600   5.829   4.010 -0.2344  0.6415 -0.3984
  145MOL0     C19480   6.649   5.951   4.095  0.3389 -0.5425 -0.6005
  145MOL0     C19481   6.541   6.054   4.134 -0.0707  0.4234  1.1025
  145MOL0     C19482   6.599   6.139   4.255  0.5552 -0.1322 -0.0316
  145MOL0     C19483   6.545   6.285   4.268 -0.9940 -0.3077  0.0738
  145MOL0     C19484   6.582   6.343   4.406 -0.3090 -0.3723  0.1755
  145MOL0    Cl19485   6.476   6.489   4.433 -0.3128 -0.0963  0.5025
  145MOL0     C19486   6.642   5.386   3.801 -0.4313  0.4192 -0.9372
  145MOL0     C19487   6.702   5.319   3.697  0.7979 -0.4339  0.0964
  145MOL0     O19488   6.839   5.041   3.653 -0.8882 -0.3611  1.1950
  145MOL0     C19489   7.048   5.143   3.384  0.3057 -0.2583 -0.2816
  145MOL0     C19490   7.120   5.104   3.261  0.2817 -0.1491  0.1983
  145MOL0     N19491   7.532   5.357   2.789  0.5346  0.3299  0.2094
  145MOL0     N19492   7.595   5.454   2.731 -0.4192 -0.3176 -0.1315
  145MOL0     C19493   8.271   5.986   2.247  0.2367  0.7391  0.5053
  145MOL0     C19494   8.402   6.025   2.252 -0.0118 -0.5460 -0.5366
  145MOL0     C19495   8.790   6.275   2.195 -0.1831  0.6253 -0.3978
  145MOL0     C19496   8.886   6.365   2.133  0.3692 -0.6398  0.5986
  145MOL0     C19497   9.018   6.382   2.170  0.2017  0.2790  0.2478
  145MOL0     C19498   9.063   6.310   2.283 -0.2476 -0.7503  0.5565
  145MOL0     O19499   9.192   6.307   2.321 -0.5512 -0.4839 -0.7738
  145MOL0     C19500   9.290   6.401   2.266 -0.6921 -0.1757 -1.5340
  145MOL0     C19501   9.410   6.399   2.356 -1.0516  0.3662  0.4723
  145MOL0     C19502   9.514   6.517   2.318  1.0717 -0.2870  0.8815
  145MOL0     C19503   9.638   6.516   2.408 -0.6877 -0.8207  0.4520
  145MOL0     C19504   9.675   6.657   2.426  0.1447  0.1304 -0.4789
  145MOL0     C19505   9.706   6.774   2.450 -0.2614  0.1152 -0.2643
  145MOL0     C19506   8.974   6.225   2.355  0.2889  0.3736  0.1255
  145MOL0     C19507   8.845   6.208   2.308 -0.3212 -0.2238 -0.6979
  145MOL0     H19508   8.366   6.346   2.134 -0.1314 -0.7377 -1.3281
  145MOL0     H19509   8.128   6.283   2.151  1.8674  1.6625 -1.8881
  145MOL0     H19510   7.938   6.182   2.142  0.4322  1.0293  1.7596
  145MOL0     H19511   7.846   6.045   2.159 -2.2167  3.4861  0.2309
  145MOL0     H19512   7.957   6.229   2.361 -3.2284  3.3900 -1.4533
  145MOL0     H19513   7.791   6.187   2.330  1.1218  1.3433 -1.3886
  145MOL0     H19514   8.013   5.993   2.447  0.3624  0.4655  0.0481
  145MOL0     H19515   7.898   6.085   2.556 -0.9588 -4.3040  1.4713
  145MOL0     H19516   7.716   5.978   2.451  0.5153  1.3680 -0.7884
  145MOL0     H19517   7.824   5.899   2.339 -0.2264  1.6803 -0.8971
  145MOL0     H19518   7.944   5.773   2.507 -0.3197  2.0469 -2.0234
  145MOL0     H19519   7.856   5.837   2.638  1.0536  0.1081 -0.7888
  145MOL0     H19520   7.693   5.709   2.422 -2.0922  0.4978  0.7042
  145MOL0     H19521   7.771   5.613   2.566  0.8797  0.5182 -0.0518
  145MOL0     H19522   7.675   5.750   2.728 -1.4678 -0.7855  0.9564
  145MOL0     H19523   7.612   5.863   2.614 -1.7531 -0.4452 -0.1735
  145MOL0     H19524   7.479   5.637   2.534  0.8251  2.4624 -1.8235
  145MOL0     H19525   7.431   5.752   2.661 -2.2942 -1.4869 -0.1547
  145MOL0     H19526   7.289   5.572   2.796  0.0623 -0.3098 -2.0552
  145MOL0     H19527   7.368   5.279   3.006  2.0139 -3.5060 -1.7797
  145MOL0     H19528   7.232   5.380   2.953  0.5360  0.9463 -2.0095
  145MOL0     H19529   7.342   5.126   2.813  0.9730  0.2238  0.0066
  145MOL0     H19530   7.199   5.221   2.758 -1.6585 -1.3991  0.3537
  145MOL0     H19531   7.103   5.038   2.866  3.3407  1.1053 -2.7922
  145MOL0     H19532   7.093   5.163   2.987 -2.2811 -1.2230 -1.3133
  145MOL0     H19533   7.314   5.083   3.091  1.4171 -0.8757 -1.6610
  145MOL0     H19534   7.323   4.968   2.963 -1.0917  0.8550 -2.7887
  145MOL0     H19535   7.053   4.782   3.267 -0.5958 -0.0179 -2.5506
  145MOL0     H19536   6.820   4.830   3.537  1.0790 -0.4125  0.1209
  145MOL0     H19537   6.878   4.723   3.419 -1.6322  0.5791 -0.9775
  145MOL0     H19538   6.988   4.753   3.551  1.7097 -0.4472 -1.6064
  145MOL0     H19539   7.029   5.350   3.774 -1.1363  1.1708 -1.3549
  145MOL0     H19540   6.920   5.509   3.945 -0.2756  1.1302 -0.6324
  145MOL0     H19541   6.494   5.595   3.909 -1.1925  0.3024  1.1139
  145MOL0     H19542   6.493   5.491   4.049  0.5841 -1.6167 -2.0400
  145MOL0     H19543   6.460   5.717   4.141 -0.6343 -2.5626 -0.5435
  145MOL0     H19544   6.625   5.685   4.177  1.4045  1.0691 -0.7047
  145MOL0     H19545   6.516   5.861   3.947 -1.3520 -0.7623  0.3202
  145MOL0     H19546   6.682   5.792   3.947  0.8100 -0.7461  1.6800
  145MOL0     H19547   6.689   5.904   4.186 -1.0364  0.8191  0.7523
  145MOL0     H19548   6.728   5.997   4.034  3.2329 -2.8068  1.1412
  145MOL0     H19549   6.444   6.007   4.151  1.0008 -1.5376  2.1143
  145MOL0     H19550   6.540   6.115   4.043 -0.3840  0.3479  1.0550
  145MOL0     H19551   6.572   6.095   4.352  1.3039 -2.4304 -0.8207
  145MOL0     H19552   6.708   6.138   4.248  0.6194 -1.3657  0.8579
  145MOL0     H19553   6.436   6.291   4.259 -0.9500  0.5279  0.0746
  145MOL0     H19554   6.584   6.351   4.191 -2.9790  0.0061 -0.7259
  145MOL0     H19555   6.688   6.369   4.396  0.4449 -3.1010  0.2121
  145MOL0     H19556   6.562   6.271   4.486  2.4384 -1.2447  0.2021
  145MOL0     H19557   6.533   5.389   3.805 -0.3943  0.6642  1.9430
  145MOL0     H19558   6.643   5.259   3.629  0.0542  0.4835 -0.0889
  145MOL0     H19559   7.070   5.246   3.411  0.3979  0.4486 -2.8420
  145MOL0     H19560   7.176   5.171   3.197 -2.4631 -1.5264 -4.1155
  145MOL0     H19561   8.238   5.889   2.282  0.1798  1.4160  2.4494
  145MOL0     H19562   8.481   5.962   2.292 -1.0952  0.0346  2.7879
  145MOL0     H19563   8.855   6.411   2.039  1.4146  0.3615  0.7152
  145MOL0     H19564   9.091   6.446   2.121  1.0989  0.2939  1.5608
  145MOL0     H19565   9.319   6.364   2.167 -3.0929 -1.0735 -1.9747
  145MOL0     H19566   9.244   6.499   2.252 -1.4236 -0.5304 -1.6347
  145MOL0     H19567   9.462   6.302   2.355  0.3067  1.0008 -2.4508
  145MOL0     H19568   9.387   6.426   2.459 -0.1251 -0.3319  0.8779
  145MOL0     H19569   9.464   6.613   2.337  1.5420 -0.6165  4.3868
  145MOL0     H19570   9.545   6.513   2.213  2.7448 -0.3828  1.3541
  145MOL0     H19571   9.717   6.448   2.374 -1.8708 -1.9612 -0.0876
  145MOL0     H19572   9.607   6.482   2.507  2.0511 -1.1851  1.2807
  145MOL0     H19573   9.728   6.878   2.463  1.7154 -0.1120 -1.3776
  145MOL0     H19574   8.999   6.169   2.444 -0.0594  1.3636  0.8685
  145MOL0     H19575   8.787   6.139   2.369  2.0103 -2.6880 -1.1081
  146MOL0     O19576   6.029   7.408   9.786 -0.0393  0.6143  0.4012
  146MOL0     C19577   6.003   7.395   9.906 -0.3643  0.0641  0.8616
  146MOL0     O19578   6.097   7.366   9.997 -0.1012  0.4476 -0.0289
  146MOL0     C19579   6.225   7.398   9.970  0.1430 -0.0394  0.1703
  146MOL0     C19580   6.252   7.538   9.949 -0.4832 -0.2548  0.1575
  146MOL0     C19581   6.381   7.575   9.915 -0.6606 -0.0448  0.6131
  146MOL0     C19582   6.483   7.478   9.905  0.4717 -0.0840 -0.0581
  146MOL0     O19583   6.599   7.543   9.868 -0.4935 -0.4822  0.3317
  146MOL0     C19584   6.717   7.469   9.857 -0.2534  0.2847  0.3451
  146MOL0     C19585   6.832   7.546   9.801  0.3413 -0.2347  1.0552
  146MOL0     C19586   6.960   7.461   9.777  1.2636 -0.0287 -0.5656
  146MOL0     C19587   7.022   7.391   9.900 -0.0808  0.4044  0.0507
  146MOL0     C19588   7.078   7.484   9.999 -0.0944 -0.3429  0.2982
  146MOL0     C19589   7.132   7.414  10.126  0.4982 -0.5309  0.1244
  146MOL0     C19590   7.184   7.513  10.228  0.4345 -0.2178  0.7453
  146MOL0     C19591   7.215   7.443  10.361  0.2883 -0.3328  0.9752
  146MOL0     N19592   7.094   7.421  10.453  0.2999  0.2313  0.2176
  146MOL0     C19593   6.981   7.350  10.421 -0.1884  0.7547 -0.0225
  146MOL0     C19594   6.903   7.366  10.528  0.0302  0.0448  0.2212
  146MOL0     C19595   6.779   7.293  10.553  0.2237  0.1356  0.2592
  146MOL0     C19596   6.699   7.337  10.672 -0.2867 -0.0419 -0.5586
  146MOL0     C19597   6.648   7.478  10.644 -0.5164 -0.5702 -0.0306
  146MOL0     C19598   6.545   7.515  10.757  0.0999 -0.5676  1.0898
  146MOL0     O19599   6.452   7.415  10.786  0.1525  0.0497 -0.8772
  146MOL0     C19600   6.344   7.379  10.710  0.1647  0.4235  0.5550
  146MOL0     C19601   6.261   7.285  10.761  0.9685 -0.3760 -0.2422
  146MOL0     C19602   6.138   7.250  10.695 -0.0334 -0.6784 -0.6068
  146MOL0     C19603   6.076   7.127  10.744  0.1752  0.1415  0.9942
  146MOL0     C19604   6.097   7.320  10.577 -0.5759 -0.5979  0.2763
  146MOL0     C19605   5.960   7.320  10.524  0.4285  0.6419  0.6812
  146MOL0     O19606   5.855   7.291  10.598 -0.3077 -0.6787 -0.0330
  146MOL0     C19607   5.732   7.273  10.537  0.1012 -0.1963  0.0944
  146MOL0     C19608   5.633   7.380  10.533 -0.1792  0.2521 -0.1636
  146MOL0     C19609   5.506   7.356  10.493  0.7932 -0.2518  0.5847
  146MOL0     C19610   5.470   7.233  10.445  0.3080  0.0960 -0.4788
  146MOL0     O19611   5.346   7.191  10.413  0.1427 -0.6052 -0.0726
  146MOL0     C19612   5.260   7.292  10.373  0.4073  0.1400 -0.4431
  146MOL0     C19613   5.130   7.242  10.307 -0.3331 -0.0346  0.3361
  146MOL0     C19614   5.021   7.345  10.276 -0.4031  0.1808  0.9576
  146MOL0     C19615   4.888   7.291  10.281  0.3533 -0.3714  1.0092
  146MOL0     C19616   4.768   7.368  10.224  0.1311  0.3524 -0.0881
  146MOL0     C19617   4.634   7.300  10.257  0.3262  0.5453  0.4718
  146MOL0     C19618   4.517   7.370  10.189  0.2342  0.3243  0.4943
  146MOL0     C19619   4.420   7.284  10.122  0.6714  0.5777 -0.4030
  146MOL0    Cl19620   4.338   7.188  10.252 -0.1609 -0.3841 -0.0559
  146MOL0     C19621   5.568   7.132  10.437 -0.8492 -0.2174  0.1237
  146MOL0     C19622   5.697   7.152  10.491 -0.1538 -0.3123  0.1522
  146MOL0     O19623   5.946   7.341  10.402 -0.0614 -0.3406 -0.1639
  146MOL0     C19624   6.189   7.412  10.530  0.0497  0.4750  1.4263
  146MOL0     C19625   6.303   7.444  10.597 -0.3241  0.4093  0.6601
  146MOL0     N19626   6.958   7.445  10.621 -0.2233  0.0862 -0.2086
  146MOL0     N19627   7.070   7.478  10.572 -0.3160  0.3264  0.2447
  146MOL0     C19628   6.455   7.345   9.921  0.2118  0.5934  0.5884
  146MOL0     C19629   6.330   7.306   9.961 -0.0213  0.4285 -0.7510
  146MOL0     C19630   5.861   7.370   9.939 -0.2051 -0.7684 -0.5714
  146MOL0     C19631   5.824   7.402  10.070 -0.2857 -0.1487  0.5003
  146MOL0     C19632   5.697   7.355  10.111  0.4083  0.6001 -0.1320
  146MOL0     C19633   5.604   7.292  10.023  0.5308  0.0725 -1.1656
  146MOL0     O19634   5.477   7.273  10.075 -0.2768  0.3791 -0.2613
  146MOL0     C19635   5.400   7.160  10.030  0.1208 -0.0952 -0.1517
  146MOL0     C19636   5.442   7.043  10.121  0.1873  0.0422  0.0878
  146MOL0     C19637   5.338   6.935  10.105  0.3578 -0.6636 -0.0907
  146MOL0     C19638   5.351   6.837  10.232 -0.0158  0.5591  0.1290
  146MOL0     C19639   5.289   6.711  10.190  0.2714  0.6274 -0.1699
  146MOL0     C19640   5.237   6.625  10.124 -0.7397  0.2923 -0.9053
  146MOL0     C19641   5.632   7.288   9.889 -0.4391 -0.9148  0.1634
  146MOL0     C19642   5.762   7.323   9.852  0.6505 -0.4370  0.3721
  146MOL0     H19643   6.173   7.613   9.955 -0.0546  0.0994  1.7802
  146MOL0     H19644   6.418   7.677   9.918  0.7028 -0.5309  2.0779
  146MOL0     H19645   6.748   7.415   9.947  2.5224 -0.5883 -1.0021
  146MOL0     H19646   6.695   7.390   9.785 -1.8712  0.5376  0.5323
  146MOL0     H19647   6.808   7.587   9.702 -0.6202  0.8363  1.7014
  146MOL0     H19648   6.849   7.643   9.850  1.9601 -1.0944  2.2773
  146MOL0     H19649   6.949   7.392   9.693  2.1053 -0.1693 -0.5675
  146MOL0     H19650   7.031   7.541   9.752  1.0789  0.5548  0.6698
  146MOL0     H19651   6.952   7.320   9.946 -1.8772  0.6078 -2.2061
  146MOL0     H19652   7.106   7.337   9.856 -1.0917 -0.2733 -1.1010
  146MOL0     H19653   7.159   7.543   9.955  1.8674 -2.4521  0.8934
  146MOL0     H19654   6.997   7.551  10.030 -1.6687 -0.7345 -2.6628
  146MOL0     H19655   7.054   7.347  10.163 -0.6395  0.4938 -0.3514
  146MOL0     H19656   7.213   7.343  10.106  0.8154  0.4682 -2.4649
  146MOL0     H19657   7.274   7.561  10.189 -1.8783  4.0438 -0.0188
  146MOL0     H19658   7.111   7.593  10.247  3.0851  2.2144  1.3846
  146MOL0     H19659   7.277   7.504  10.427 -0.6441 -0.4947  2.0215
  146MOL0     H19660   7.287   7.362  10.342  0.9394  0.3640  0.4079
  146MOL0     H19661   6.954   7.285  10.339 -2.0741 -0.6419  1.6179
  146MOL0     H19662   6.714   7.285  10.465 -1.1344  1.3594  1.1064
  146MOL0     H19663   6.810   7.192  10.580  0.3114  0.1497  0.2114
  146MOL0     H19664   6.755   7.333  10.766 -4.2281 -0.3966  2.0457
  146MOL0     H19665   6.614   7.268  10.678 -2.0606  1.8521 -2.2187
  146MOL0     H19666   6.596   7.473  10.548  1.6376 -3.7681 -1.1858
  146MOL0     H19667   6.715   7.563  10.628  1.3653 -1.4990  2.3341
  146MOL0     H19668   6.477   7.596  10.728  0.4069  0.0023  1.9278
  146MOL0     H19669   6.595   7.556  10.845  0.4597  0.8797  0.2386
  146MOL0     H19670   6.285   7.237  10.855 -1.6393 -1.4135 -0.0112
  146MOL0     H19671   6.013   7.084  10.666  1.7479  3.0852 -2.1639
  146MOL0     H19672   6.144   7.044  10.763  1.1545  0.5259 -0.6724
  146MOL0     H19673   6.003   7.136  10.825  2.5784 -1.8240  3.6062
  146MOL0     H19674   5.661   7.482  10.557  1.3423 -0.0186 -0.6874
  146MOL0     H19675   5.439   7.437  10.518 -0.6626 -1.5059  0.8952
  146MOL0     H19676   5.237   7.350  10.464  1.3256  1.2359 -0.8775
  146MOL0     H19677   5.307   7.358  10.300  0.6891 -0.8125 -1.1287
  146MOL0     H19678   5.146   7.209  10.204  1.2910  5.8022 -1.6529
  146MOL0     H19679   5.087   7.164  10.370  0.2330  0.5083  1.4225
  146MOL0     H19680   5.029   7.394  10.179 -0.6821 -2.8867 -0.7255
  146MOL0     H19681   5.039   7.432  10.341  1.0173  0.4909  0.1939
  146MOL0     H19682   4.893   7.193  10.234 -1.7098 -0.8246  1.6677
  146MOL0     H19683   4.872   7.269  10.387  1.1550 -0.9223  1.0273
  146MOL0     H19684   4.787   7.374  10.117 -1.1532 -0.6783 -0.4048
  146MOL0     H19685   4.755   7.470  10.262 -0.0809 -0.0896  1.0726
  146MOL0     H19686   4.635   7.201  10.211  0.3233  0.5608  0.4387
  146MOL0     H19687   4.614   7.272  10.361  0.6286 -1.3600  0.0521
  146MOL0     H19688   4.557   7.427  10.104 -1.5970  1.8070  0.5769
  146MOL0     H19689   4.459   7.436  10.254  1.7554  3.4761 -1.0938
  146MOL0     H19690   4.473   7.212  10.059 -0.4871 -0.1643 -0.5479
  146MOL0     H19691   4.343   7.333  10.062 -2.2699 -1.9936  1.0162
  146MOL0     H19692   5.558   7.026  10.413  2.7974 -0.4771 -0.8032
  146MOL0     H19693   5.757   7.062  10.497 -0.5300 -0.5483  0.4661
  146MOL0     H19694   6.180   7.461  10.434  2.6115 -0.5330  0.5836
  146MOL0     H19695   6.368   7.520  10.555  1.8565 -0.0761  2.9640
  146MOL0     H19696   6.523   7.262   9.908  2.2859  2.3622 -0.5950
  146MOL0     H19697   6.309   7.201   9.982 -0.2542  0.4072 -1.0706
  146MOL0     H19698   5.889   7.455  10.138  0.5303 -0.5490  0.0583
  146MOL0     H19699   5.677   7.374  10.216  1.8132  1.2205  0.0457
  146MOL0     H19700   5.294   7.184  10.032  0.4178  1.9609 -2.9275
  146MOL0     H19701   5.412   7.131   9.925  0.4653  1.2879 -0.5210
  146MOL0     H19702   5.447   7.079  10.224  0.0698 -1.6406  0.7177
  146MOL0     H19703   5.541   7.004  10.093  1.2349  1.4029  1.6960
  146MOL0     H19704   5.361   6.876  10.016  0.8262  0.5600 -0.8016
  146MOL0     H19705   5.235   6.971  10.108  1.2652  2.0790  2.1442
  146MOL0     H19706   5.297   6.879  10.318 -2.5125 -0.1282 -1.0042
  146MOL0     H19707   5.459   6.823  10.247 -0.2588 -1.4848  0.2857
  146MOL0     H19708   5.193   6.537  10.082 -2.7144  0.7597  0.0700
  146MOL0     H19709   5.543   7.268   9.829 -2.1377 -0.3481  2.3906
  146MOL0     H19710   5.790   7.339   9.748 -0.0354  1.2083  0.4066
  147MOL0     O19711   2.009   8.569   0.091  0.8726 -1.0253 -0.3867
  147MOL0     C19712   1.929   8.606   0.003 -0.3412  0.5675  0.3013
  147MOL0     O19713   1.828   8.697   0.019  0.3145  0.8611  0.0860
  147MOL0     C19714   1.793   8.746   0.140  0.2240 -0.0520  0.0592
  147MOL0     C19715   1.661   8.747   0.190 -0.1688  0.0664  0.4299
  147MOL0     C19716   1.638   8.799   0.315  0.0835 -0.2595 -0.2508
  147MOL0     C19717   1.743   8.856   0.395  0.0815  0.2487 -0.1659
  147MOL0     O19718   1.734   8.901   0.522  0.9857 -0.4932  0.7226
  147MOL0     C19719   1.598   8.922   0.562 -0.2696  0.2027 -0.0689
  147MOL0     C19720   1.595   8.989   0.703 -0.2854 -0.1397 -0.6408
  147MOL0     C19721   1.597   9.141   0.694  0.5814 -0.0314 -0.9857
  147MOL0     C19722   1.687   9.217   0.793  0.0845  0.3132  0.2530
  147MOL0     C19723   1.696   9.364   0.767  0.2990  0.0193 -0.7853
  147MOL0     C19724   1.799   9.446   0.857 -0.0282  0.1440  0.2958
  147MOL0     C19725   1.850   9.579   0.797  0.4525 -0.4619 -0.4427
  147MOL0     C19726   2.003   9.575   0.779  0.4268 -0.0159  0.5113
  147MOL0     N19727   2.052   9.680   0.694  0.1846 -0.9246  0.3109
  147MOL0     C19728   2.038   9.818   0.718  0.0676 -0.3983  0.1717
  147MOL0     C19729   2.098   9.866   0.606  0.2176 -0.2758 -0.1704
  147MOL0     C19730   2.127  10.023   0.613 -1.0485 -0.3013 -0.2655
  147MOL0     C19731   2.268  10.060   0.586 -0.4047  0.2796  0.7291
  147MOL0     C19732   2.279  10.213   0.595 -0.2723 -0.0525  0.3694
  147MOL0     C19733   2.417  10.266   0.590 -0.4438 -0.5650  0.1282
  147MOL0     O19734   2.404  10.406   0.629  0.4827  0.7008 -0.3800
  147MOL0     C19735   2.523  10.483   0.634 -0.0859 -0.4958  0.4793
  147MOL0     C19736   2.491  10.615   0.638  0.0682  0.0740  0.2219
  147MOL0     C19737   2.593  10.707   0.684  0.7760 -0.4085 -0.4035
  147MOL0     C19738   2.555  10.855   0.669  0.3759 -0.2795  0.0767
  147MOL0     C19739   2.720  10.655   0.716 -0.3963 -0.1479  0.1226
  147MOL0     C19740   2.835  10.740   0.738  0.0353  1.0324  0.0200
  147MOL0     O19741   2.953  10.681   0.697  0.5822 -0.0690 -0.2762
  147MOL0     C19742   3.061  10.766   0.690 -0.5549 -0.4149 -0.1613
  147MOL0     C19743   3.106  10.814   0.570  0.3674  0.0516 -0.0104
  147MOL0     C19744   3.203  10.914   0.567  0.6274 -0.7616 -0.0607
  147MOL0     C19745   3.258  10.976   0.683  0.2007 -0.3981  0.3720
  147MOL0     O19746   3.342  11.088   0.698 -0.1698  0.0703 -0.1580
  147MOL0     C19747   3.377  11.168   0.578 -0.5603  0.2195 -0.0817
  147MOL0     C19748   3.433  11.311   0.603  0.0280  0.1046 -0.3693
  147MOL0     C19749   3.571  11.307   0.675 -0.8690  0.3876  0.5606
  147MOL0     C19750   3.683  11.263   0.588 -0.1305  0.5548 -0.0604
  147MOL0     C19751   3.775  11.361   0.509 -0.6397 -1.3886  0.2566
  147MOL0     C19752   3.833  11.471   0.605  0.3567  0.0742  0.1132
  147MOL0     C19753   3.942  11.564   0.545  0.0178  1.3770  0.0814
  147MOL0     C19754   3.988  11.679   0.641  0.4965  0.0584 -0.2756
  147MOL0    Cl19755   3.858  11.802   0.653 -0.7022 -0.2325 -0.2914
  147MOL0     C19756   3.218  10.925   0.801 -0.1792 -0.3768 -0.2401
  147MOL0     C19757   3.124  10.823   0.810 -0.4699  0.0044  0.1560
  147MOL0     O19758   2.826  10.853   0.777  0.1124  0.2021  0.2247
  147MOL0     C19759   2.745  10.515   0.720  1.2497 -0.3772  0.4707
  147MOL0     C19760   2.646  10.435   0.673  0.4023  0.2565  0.3676
  147MOL0     N19761   2.141   9.775   0.518  0.1174  0.1511 -0.1468
  147MOL0     N19762   2.116   9.663   0.577 -0.6391 -0.1770  0.3941
  147MOL0     C19763   1.868   8.858   0.333 -0.0795  0.7249 -0.3738
  147MOL0     C19764   1.895   8.808   0.211  0.1632 -0.3734 -0.2327
  147MOL0     C19765   1.927   8.528  -0.128 -1.1291 -0.6765  0.1709
  147MOL0     C19766   1.827   8.557  -0.216 -0.3272  0.3893 -0.5348
  147MOL0     C19767   1.830   8.504  -0.346 -1.1604  0.1849  0.2416
  147MOL0     C19768   1.937   8.426  -0.385  0.5206 -0.5231  0.5193
  147MOL0     O19769   1.932   8.401  -0.521 -0.3583 -0.1685 -0.3752
  147MOL0     C19770   2.055   8.419  -0.599 -0.2937  0.0834  0.0158
  147MOL0     C19771   2.074   8.290  -0.675 -0.4443 -0.5290 -0.5002
  147MOL0     C19772   2.172   8.303  -0.795  0.3206  0.7558 -0.0592
  147MOL0     C19773   2.308   8.261  -0.757  0.5605 -0.0023  0.0512
  147MOL0     C19774   2.354   8.297  -0.626 -0.0151 -0.1974  0.2564
  147MOL0     C19775   2.395   8.329  -0.513 -0.1010  0.0061 -0.0510
  147MOL0     C19776   2.033   8.376  -0.293 -0.2945 -0.0662  0.4241
  147MOL0     C19777   2.025   8.425  -0.159  0.3914  0.1036 -0.2943
  147MOL0     H19778   1.591   8.700   0.122  0.8779 -0.8603 -0.0476
  147MOL0     H19779   1.534   8.790   0.346 -0.2817 -1.1642 -1.6713
  147MOL0     H19780   1.540   8.983   0.493 -0.6508  1.0100  0.9496
  147MOL0     H19781   1.546   8.826   0.578 -0.9316  0.3002 -1.4670
  147MOL0     H19782   1.501   8.959   0.752 -0.7213  0.6265 -0.9784
  147MOL0     H19783   1.679   8.954   0.764 -0.2742  2.7006  1.2051
  147MOL0     H19784   1.629   9.164   0.592  1.1573 -0.1229 -0.8307
  147MOL0     H19785   1.493   9.172   0.706  0.3972 -0.6631 -0.9240
  147MOL0     H19786   1.659   9.195   0.896  2.8295  0.3850  1.0949
  147MOL0     H19787   1.786   9.175   0.771 -2.0126 -2.8133 -5.5751
  147MOL0     H19788   1.701   9.389   0.660 -1.5498 -1.8957 -1.3881
  147MOL0     H19789   1.597   9.402   0.793 -0.9152 -2.0916 -2.0471
  147MOL0     H19790   1.730   9.478   0.936 -2.0415 -2.9322 -0.0135
  147MOL0     H19791   1.882   9.388   0.898  0.4398  1.6633  1.5742
  147MOL0     H19792   1.805   9.603   0.700  2.2646 -0.4823 -1.3264
  147MOL0     H19793   1.823   9.656   0.869  0.5752 -2.0395  1.3590
  147MOL0     H19794   2.039   9.480   0.737  0.0187 -0.2627  0.7127
  147MOL0     H19795   2.050   9.576   0.878  0.0214  3.2733  0.7768
  147MOL0     H19796   1.993   9.884   0.792 -1.6473 -0.2426 -0.9505
  147MOL0     H19797   2.070  10.082   0.540 -0.7712 -0.2428 -0.4368
  147MOL0     H19798   2.095  10.054   0.713 -1.0365  1.2867 -0.7143
  147MOL0     H19799   2.289  10.029   0.483 -1.5219  0.3645  0.4617
  147MOL0     H19800   2.326  10.008   0.663 -2.9262 -0.0547  2.5223
  147MOL0     H19801   2.230  10.252   0.684 -2.1703 -1.0509 -0.1862
  147MOL0     H19802   2.222  10.236   0.505 -1.7046 -0.8798  1.0274
  147MOL0     H19803   2.442  10.266   0.484 -3.4132 -1.5548 -0.6544
  147MOL0     H19804   2.484  10.212   0.658  0.7331  0.4920 -0.1484
  147MOL0     H19805   2.387  10.646   0.626  0.8159  2.4429 -0.7707
  147MOL0     H19806   2.539  10.899   0.768 -2.9983  1.4100 -1.0513
  147MOL0     H19807   2.636  10.902   0.614  1.3912 -1.9243  0.1049
  147MOL0     H19808   2.464  10.884   0.616  1.2572  1.3937 -0.5752
  147MOL0     H19809   3.054  10.785   0.479 -2.5258  1.5605  1.0493
  147MOL0     H19810   3.228  10.953   0.469 -0.5394  1.7648  0.5724
  147MOL0     H19811   3.449  11.108   0.521 -0.2257 -0.7533  1.3299
  147MOL0     H19812   3.290  11.178   0.512 -0.8711  0.1784  0.3221
  147MOL0     H19813   3.432  11.372   0.513  0.6020 -3.9913 -3.4521
  147MOL0     H19814   3.365  11.360   0.673  0.8929  1.1424 -0.2285
  147MOL0     H19815   3.560  11.225   0.746  1.1421 -0.3015  0.1678
  147MOL0     H19816   3.589  11.401   0.727  1.3249  0.1179  0.3867
  147MOL0     H19817   3.747  11.202   0.653 -2.4112 -0.4638  1.3511
  147MOL0     H19818   3.650  11.198   0.506  2.0376 -0.8818  0.1365
  147MOL0     H19819   3.723  11.423   0.436  1.9937  0.1164 -0.4487
  147MOL0     H19820   3.853  11.307   0.456  0.1096 -0.4200  0.3545
  147MOL0     H19821   3.750  11.529   0.646 -0.2137 -1.5015  1.3240
  147MOL0     H19822   3.890  11.415   0.681 -1.8958  1.0640  2.6867
  147MOL0     H19823   3.896  11.607   0.456  0.6264  0.9832 -0.4327
  147MOL0     H19824   4.035  11.517   0.513 -0.2706 -1.1658  2.5306
  147MOL0     H19825   4.073  11.737   0.604  0.1883  1.5245  1.1795
  147MOL0     H19826   4.020  11.641   0.738  0.2901  0.6479  0.0275
  147MOL0     H19827   3.258  10.956   0.897  0.2041 -1.1579 -0.1444
  147MOL0     H19828   3.080  10.803   0.907 -0.3688  0.3190  0.2670
  147MOL0     H19829   2.840  10.468   0.742  0.4559 -1.6057  1.3616
  147MOL0     H19830   2.671  10.330   0.681  4.6583  1.0471  0.0139
  147MOL0     H19831   1.930   8.928   0.388  0.7606 -0.4332  0.2111
  147MOL0     H19832   1.997   8.810   0.173  1.3500 -5.9598  1.6261
  147MOL0     H19833   1.739   8.618  -0.198 -0.7396  0.0612 -1.3503
  147MOL0     H19834   1.760   8.541  -0.420 -0.7489  1.1943  0.3330
  147MOL0     H19835   2.040   8.500  -0.671 -0.2064  0.6102  0.5808
  147MOL0     H19836   2.146   8.452  -0.547  1.8734 -0.8062 -2.9287
  147MOL0     H19837   1.982   8.257  -0.724  0.3146  0.4421 -2.6942
  147MOL0     H19838   2.099   8.217  -0.597 -1.9580  0.9148  1.4632
  147MOL0     H19839   2.187   8.410  -0.817  1.0144  0.2803 -2.1533
  147MOL0     H19840   2.134   8.253  -0.885 -3.5746  1.1392  1.1838
  147MOL0     H19841   2.373   8.311  -0.830 -2.0351  0.3975 -2.1688
  147MOL0     H19842   2.324   8.153  -0.769 -0.1134 -0.0183 -0.8656
  147MOL0     H19843   2.435   8.373  -0.424  2.7693 -0.1682 -1.1511
  147MOL0     H19844   2.106   8.303  -0.326  0.7004  0.8937  0.4079
  147MOL0     H19845   2.096   8.399  -0.081  0.6311 -0.1875 -0.6081
  148MOL0     O19846   6.487   7.832   3.867 -0.4181 -0.5862 -0.1856
  148MOL0     C19847   6.573   7.908   3.812  0.0920  0.4337  0.3433
  148MOL0     O19848   6.547   8.018   3.736  0.4754 -0.2168 -0.0301
  148MOL0     C19849   6.414   8.026   3.688 -0.9243 -0.3473  0.6430
  148MOL0     C19850   6.336   8.135   3.739 -0.0574  0.7758  0.4079
  148MOL0     C19851   6.205   8.154   3.687  0.2181 -0.2865  0.5481
  148MOL0     C19852   6.153   8.066   3.588 -0.5002 -0.6691  0.2123
  148MOL0     O19853   6.027   8.090   3.536 -0.1420 -0.0010  0.4699
  148MOL0     C19854   5.911   8.050   3.621 -1.1338  0.1271  0.9524
  148MOL0     C19855   5.847   7.931   3.556 -0.1673  0.7239 -0.5355
  148MOL0     C19856   5.736   7.965   3.451 -0.2514  0.1900  0.2920
  148MOL0     C19857   5.606   7.985   3.524  0.2834  0.2607 -0.1763
  148MOL0     C19858   5.518   8.064   3.427  0.3165  0.1226  0.4307
  148MOL0     C19859   5.380   8.078   3.485  0.0402  0.2295 -0.8369
  148MOL0     C19860   5.294   8.193   3.433 -0.2353 -0.0704  0.1227
  148MOL0     C19861   5.176   8.225   3.522 -0.0167 -0.2968 -0.3273
  148MOL0     N19862   5.076   8.131   3.505 -0.0559  0.6235 -0.1811
  148MOL0     C19863   5.037   8.091   3.378 -0.7275  0.4451  0.4844
  148MOL0     C19864   4.948   7.996   3.398 -1.0442  0.5413 -0.4154
  148MOL0     C19865   4.865   7.925   3.297 -0.9559  0.0088  0.5574
  148MOL0     C19866   4.714   7.969   3.294 -0.2634 -0.6386  0.7640
  148MOL0     C19867   4.651   7.968   3.431 -0.1957  0.6623  0.6646
  148MOL0     C19868   4.506   7.923   3.428  0.3593 -0.2374  0.0746
  148MOL0     O19869   4.432   8.018   3.347 -0.3969  0.3981 -0.6027
  148MOL0     C19870   4.298   8.007   3.343  0.2430  0.4585 -1.2256
  148MOL0     C19871   4.231   7.891   3.375  0.0985 -0.0341  0.2574
  148MOL0     C19872   4.092   7.884   3.384 -0.3746  0.2085  0.0805
  148MOL0     C19873   4.039   7.756   3.441  0.2936 -0.9842  0.7323
  148MOL0     C19874   4.013   7.993   3.344 -0.6285 -0.5600  0.5444
  148MOL0     C19875   3.866   8.012   3.348  0.6153  1.4302 -0.6703
  148MOL0     O19876   3.825   8.138   3.343 -0.3552  0.1502  1.1252
  148MOL0     C19877   3.696   8.165   3.333  0.4359  0.2779  0.7326
  148MOL0     C19878   3.591   8.095   3.271  0.1982 -0.1879  0.1668
  148MOL0     C19879   3.453   8.137   3.259 -0.2180 -0.3078 -0.4803
  148MOL0     C19880   3.420   8.259   3.313 -0.6303 -1.0749  0.1946
  148MOL0     O19881   3.293   8.314   3.296  0.8137 -0.6829  0.4446
  148MOL0     C19882   3.273   8.439   3.231 -0.2130 -0.3806 -0.3645
  148MOL0     C19883   3.145   8.459   3.157 -0.1459  0.1961  0.8561
  148MOL0     C19884   3.026   8.453   3.249  0.1074 -1.1259  0.1822
  148MOL0     C19885   2.881   8.452   3.189  0.0932 -0.3730 -0.0408
  148MOL0     C19886   2.839   8.317   3.126 -0.3178  0.7241 -0.0116
  148MOL0     C19887   2.687   8.300   3.118 -0.4784 -0.1053 -0.7315
  148MOL0     C19888   2.664   8.155   3.101  0.0149  0.5013 -0.4971
  148MOL0     C19889   2.523   8.107   3.076 -0.2269 -0.8762  0.1122
  148MOL0    Cl19890   2.468   8.171   2.924  0.0425 -0.3655  0.0369
  148MOL0     C19891   3.519   8.336   3.375 -0.4905  0.4774 -0.3137
  148MOL0     C19892   3.657   8.295   3.384  0.1224  0.6085 -0.6768
  148MOL0     O19893   3.797   7.908   3.337 -0.9567 -0.2757 -0.3040
  148MOL0     C19894   4.082   8.105   3.295  0.4263 -0.3749  0.7039
  148MOL0     C19895   4.223   8.115   3.299  0.6587 -0.2259 -0.6879
  148MOL0     N19896   4.949   7.965   3.538  0.4146  0.1050  0.7257
  148MOL0     N19897   5.027   8.046   3.602 -0.1678  0.1393 -0.0284
  148MOL0     C19898   6.225   7.951   3.552 -0.3009  0.7513 -0.8019
  148MOL0     C19899   6.358   7.937   3.600 -0.3106  0.1860  0.5840
  148MOL0     C19900   6.712   7.878   3.817  0.3244 -0.3103 -0.1885
  148MOL0     C19901   6.815   7.957   3.752 -0.4037 -0.1722  0.8630
  148MOL0     C19902   6.956   7.927   3.759 -0.6857  0.5250  0.1663
  148MOL0     C19903   7.001   7.807   3.816  0.4804  0.0160 -0.1141
  148MOL0     O19904   7.134   7.766   3.823 -0.1455  0.2176 -0.3881
  148MOL0     C19905   7.240   7.853   3.784  0.2285 -0.4884 -0.5046
  148MOL0     C19906   7.365   7.770   3.765 -0.1385 -0.3705 -0.1147
  148MOL0     C19907   7.477   7.875   3.754 -1.2605  0.4154  0.2379
  148MOL0     C19908   7.477   7.947   3.618 -0.5274  0.5013 -0.2092
  148MOL0     C19909   7.612   7.986   3.596  1.2277 -0.4487 -0.1569
  148MOL0     C19910   7.722   8.009   3.570  0.3772 -0.0599  0.2077
  148MOL0     C19911   6.903   7.734   3.886 -0.0271 -0.5989  0.1247
  148MOL0     C19912   6.764   7.766   3.885  0.0675  0.9571  0.4210
  148MOL0     H19913   6.390   8.202   3.805  1.7754 -1.0042  0.8567
  148MOL0     H19914   6.143   8.240   3.711 -0.2716  0.0594 -1.6748
  148MOL0     H19915   5.939   8.021   3.723 -0.4409 -0.0481  0.7122
  148MOL0     H19916   5.826   8.115   3.644 -2.5176 -0.8857 -1.0055
  148MOL0     H19917   5.919   7.865   3.507 -1.4089  0.7847 -2.6053
  148MOL0     H19918   5.794   7.865   3.625  1.0607  1.7551  1.4703
  148MOL0     H19919   5.772   8.060   3.411  0.4978 -0.3553 -0.3563
  148MOL0     H19920   5.727   7.897   3.366 -1.5159 -1.0166  1.3408
  148MOL0     H19921   5.568   7.883   3.539 -0.4547 -0.1590 -3.9859
  148MOL0     H19922   5.630   8.040   3.615  1.3231 -1.3413  0.5593
  148MOL0     H19923   5.565   8.161   3.408  0.9739  0.0268  1.4672
  148MOL0     H19924   5.511   8.006   3.335  0.3120 -3.2769  2.3907
  148MOL0     H19925   5.328   7.983   3.478  0.9188 -0.4525  1.1545
  148MOL0     H19926   5.396   8.092   3.593 -1.1485  0.9521 -0.7368
  148MOL0     H19927   5.349   8.288   3.436 -3.1061  1.7316 -0.7208
  148MOL0     H19928   5.275   8.178   3.327  0.6556  0.6249 -0.1498
  148MOL0     H19929   5.136   8.322   3.491 -0.1338 -0.6625 -1.3582
  148MOL0     H19930   5.220   8.228   3.622  1.7556  0.5272 -1.0902
  148MOL0     H19931   5.061   8.138   3.283  0.2575  0.5403  0.7695
  148MOL0     H19932   4.924   7.948   3.207 -0.0730  1.2197  1.4071
  148MOL0     H19933   4.875   7.816   3.307  0.2411  0.0107 -0.2609
  148MOL0     H19934   4.665   7.901   3.224  2.6559 -2.1343  0.0271
  148MOL0     H19935   4.701   8.073   3.260  1.2000 -0.8147 -0.4287
  148MOL0     H19936   4.666   8.060   3.488 -0.3476  1.1518 -0.0721
  148MOL0     H19937   4.697   7.892   3.495  0.7641  0.9513  0.3371
  148MOL0     H19938   4.469   7.913   3.531  2.2696  0.2238  0.8570
  148MOL0     H19939   4.501   7.826   3.379 -2.1218 -0.2494  0.2229
  148MOL0     H19940   4.290   7.810   3.415  1.6586  1.8605  2.0092
  148MOL0     H19941   4.115   7.678   3.449  1.4624  0.1694  1.2177
  148MOL0     H19942   4.007   7.773   3.544 -3.5279 -0.4618 -0.3812
  148MOL0     H19943   3.952   7.716   3.387  1.4184 -1.3269 -0.8690
  148MOL0     H19944   3.615   7.998   3.229  0.5637 -0.8427  1.8005
  148MOL0     H19945   3.380   8.074   3.209  1.1755 -3.0313  0.6936
  148MOL0     H19946   3.269   8.521   3.303 -0.9854  0.8748 -1.7776
  148MOL0     H19947   3.360   8.455   3.166  4.0750  0.2062  4.8211
  148MOL0     H19948   3.153   8.551   3.099 -0.7037 -1.0940 -1.3711
  148MOL0     H19949   3.141   8.384   3.078  1.9352  0.7522  0.1586
  148MOL0     H19950   3.031   8.530   3.326 -0.8563  0.8470 -1.6271
  148MOL0     H19951   3.050   8.361   3.304  2.0802 -0.9364 -0.2945
  148MOL0     H19952   2.819   8.473   3.277  1.0739 -0.3438  0.6658
  148MOL0     H19953   2.868   8.538   3.124 -1.1508 -0.9861 -0.6353
  148MOL0     H19954   2.873   8.236   3.191  1.1757  1.9263  0.7673
  148MOL0     H19955   2.885   8.299   3.028 -0.9493 -0.2127 -0.1463
  148MOL0     H19956   2.640   8.339   3.209 -0.6490 -0.3406 -0.7155
  148MOL0     H19957   2.646   8.369   3.044 -1.5676  2.5749  2.1166
  148MOL0     H19958   2.691   8.097   3.190 -1.4629 -0.6283 -0.7560
  148MOL0     H19959   2.732   8.119   3.024 -0.0026  0.3776 -0.4553
  148MOL0     H19960   2.461   8.147   3.157  1.6746 -0.2530  1.3475
  148MOL0     H19961   2.531   7.998   3.076 -0.1637 -0.9094 -2.3552
  148MOL0     H19962   3.497   8.427   3.430  1.3436  2.1358 -2.1147
  148MOL0     H19963   3.727   8.364   3.430 -1.7571  1.4757  1.0439
  148MOL0     H19964   4.034   8.191   3.250 -1.1083 -0.8736  1.3396
  148MOL0     H19965   4.275   8.207   3.275 -0.1646  0.9415  1.6238
  148MOL0     H19966   6.167   7.880   3.494  0.3846  1.0183 -1.8559
  148MOL0     H19967   6.414   7.855   3.556 -0.2990  1.3423 -1.6954
  148MOL0     H19968   6.803   8.052   3.700 -0.4533  0.1376  1.4321
  148MOL0     H19969   7.040   7.984   3.721  1.2124 -2.7583 -1.0058
  148MOL0     H19970   7.214   7.901   3.689 -0.3437 -1.8605 -1.0668
  148MOL0     H19971   7.265   7.929   3.858  1.5669 -1.1390 -0.2550
  148MOL0     H19972   7.356   7.718   3.669 -1.4800  2.1244 -1.4378
  148MOL0     H19973   7.370   7.698   3.847  0.7876  1.0126  1.0975
  148MOL0     H19974   7.568   7.816   3.764 -1.7830 -0.3249  0.7608
  148MOL0     H19975   7.472   7.946   3.838 -0.5783  0.9754 -0.1839
  148MOL0     H19976   7.424   8.043   3.621  0.4010  1.0268 -0.1067
  148MOL0     H19977   7.439   7.889   3.534 -0.3946  0.3486 -0.1624
  148MOL0     H19978   7.822   8.033   3.542 -0.1413  1.0123 -0.8121
  148MOL0     H19979   6.936   7.645   3.939 -0.9553 -2.3074 -2.0324
  148MOL0     H19980   6.694   7.691   3.922  2.1971 -2.5662 -2.0248
  149MOL0     O19981   9.203   3.278   8.783  0.2443 -0.6229  0.3036
  149MOL0     C19982   9.277   3.255   8.880 -0.0196  0.2287  0.7697
  149MOL0     O19983   9.396   3.188   8.875  0.3810 -1.0409  0.0087
  149MOL0     C19984   9.447   3.142   8.755 -0.5926  0.6323 -0.2991
  149MOL0     C19985   9.566   3.188   8.709 -0.0016 -0.0395 -0.2242
  149MOL0     C19986   9.607   3.137   8.587 -0.0662 -0.4967  0.1111
  149MOL0     C19987   9.551   3.031   8.514 -0.0526  0.3100 -0.2012
  149MOL0     O19988   9.600   2.973   8.399  0.0535  0.1393 -0.4209
  149MOL0     C19989   9.706   3.045   8.345 -0.1051  0.1392  0.1989
  149MOL0     C19990   9.746   2.999   8.205  0.3947  0.7368 -0.3659
  149MOL0     C19991   9.883   3.052   8.173 -0.2103 -0.2479 -0.3073
  149MOL0     C19992   9.998   2.970   8.228  0.4190 -0.3938  0.4508
  149MOL0     C19993  10.139   2.999   8.180  0.1632  1.2024  0.6062
  149MOL0     C19994  10.249   3.010   8.294 -0.2044  0.3983  0.5330
  149MOL0     C19995  10.267   2.872   8.361  0.4550 -0.6704  0.0682
  149MOL0     C19996  10.397   2.874   8.435 -1.0126 -0.0078 -1.1817
  149MOL0     N19997  10.400   2.771   8.548 -0.1077 -0.1634  0.0896
  149MOL0     C19998  10.482   2.662   8.558  0.4225  0.5649  0.4141
  149MOL0     C19999  10.439   2.595   8.663 -1.2430 -0.0281 -0.4184
  149MOL0     C20000  10.504   2.471   8.719  0.2377  0.5391 -0.0480
  149MOL0     C20001  10.412   2.353   8.683 -0.6518  0.3178 -0.4034
  149MOL0     C20002  10.305   2.333   8.789  0.0029 -0.3780  0.8554
  149MOL0     C20003  10.359   2.297   8.928  0.0949 -0.0537 -0.6072
  149MOL0     O20004  10.252   2.247   9.004  0.6791 -0.1213  0.0300
  149MOL0     C20005  10.149   2.339   9.040 -0.2046  0.3026 -0.2069
  149MOL0     C20006  10.033   2.285   9.092 -0.1034  0.1425 -0.3350
  149MOL0     C20007   9.940   2.359   9.163  0.2861 -0.1508  0.4710
  149MOL0     C20008   9.838   2.274   9.218 -0.3478  0.3630  0.6007
  149MOL0     C20009   9.950   2.498   9.164  0.2269 -0.3511  0.2072
  149MOL0     C20010   9.835   2.582   9.206  0.1766 -0.7545  0.2353
  149MOL0     O20011   9.707   2.523   9.218 -0.0835 -0.0130  0.2659
  149MOL0     C20012   9.595   2.604   9.222 -1.0903 -0.7517  0.0511
  149MOL0     C20013   9.534   2.615   9.341 -0.1218  0.9555 -0.3250
  149MOL0     C20014   9.417   2.689   9.349 -0.3225 -0.3504  0.1607
  149MOL0     C20015   9.357   2.745   9.231 -0.6632  0.4981 -0.0430
  149MOL0     O20016   9.246   2.823   9.231 -0.0981 -1.0470 -0.2574
  149MOL0     C20017   9.129   2.770   9.300  0.3466 -0.7693 -0.1184
  149MOL0     C20018   9.038   2.891   9.342 -1.2131 -0.5536  0.1577
  149MOL0     C20019   9.108   2.980   9.446  0.3395  0.0410 -0.0481
  149MOL0     C20020   9.059   3.131   9.439  0.7780  0.2375 -0.1628
  149MOL0     C20021   8.924   3.155   9.501  0.0733 -0.1407  0.4072
  149MOL0     C20022   8.865   3.294   9.496 -0.0920 -0.5995 -0.7582
  149MOL0     C20023   8.715   3.287   9.543  0.3540 -0.2229 -0.5205
  149MOL0     C20024   8.637   3.376   9.452  0.1139 -0.1087 -0.1477
  149MOL0    Cl20025   8.478   3.406   9.522 -0.0217  0.2859 -0.1845
  149MOL0     C20026   9.423   2.725   9.106  0.2035 -0.5013  0.3235
  149MOL0     C20027   9.545   2.665   9.105  0.2062  0.8527 -0.6891
  149MOL0     O20028   9.864   2.696   9.241  0.0995  0.6401 -0.2724
  149MOL0     C20029  10.055   2.560   9.094  0.0855  0.6393  0.4324
  149MOL0     C20030  10.152   2.476   9.038  0.5154  0.6161 -0.7731
  149MOL0     N20031  10.336   2.659   8.716  0.3175  0.7434  0.2177
  149MOL0     N20032  10.307   2.757   8.647  1.0885 -0.3689  0.9846
  149MOL0     C20033   9.438   2.969   8.576 -0.3134 -0.1703 -1.0145
  149MOL0     C20034   9.382   3.035   8.690 -0.4306  0.6356  0.3316
  149MOL0     C20035   9.258   3.319   9.013 -0.8137 -0.2066  0.1787
  149MOL0     C20036   9.303   3.261   9.132  0.2838 -1.1505  0.1560
  149MOL0     C20037   9.286   3.323   9.259  1.1822 -0.2095  0.3520
  149MOL0     C20038   9.208   3.437   9.269  1.0907 -0.0883 -0.5307
  149MOL0     O20039   9.197   3.491   9.401  0.6106 -0.0078 -0.0112
  149MOL0     C20040   9.083   3.582   9.421 -0.2025 -0.6612  0.4149
  149MOL0     C20041   9.127   3.733   9.422  0.1652 -0.3156  0.1287
  149MOL0     C20042   9.220   3.764   9.536  0.0684 -0.8961  0.6074
  149MOL0     C20043   9.229   3.919   9.555 -0.5718 -0.8979  0.3069
  149MOL0     C20044   9.348   3.949   9.638  0.1054  1.2071  0.6513
  149MOL0     C20045   9.443   3.955   9.714 -0.2749 -0.0516 -0.2302
  149MOL0     C20046   9.155   3.502   9.147 -0.1132 -0.5773 -0.0744
  149MOL0     C20047   9.186   3.441   9.025 -0.4016 -0.1631 -0.4248
  149MOL0     H20048   9.619   3.268   8.758  0.7236 -1.4219  1.3709
  149MOL0     H20049   9.700   3.185   8.557 -0.6570  0.5961 -0.0122
  149MOL0     H20050   9.679   3.151   8.339  0.8648  0.6750  3.2973
  149MOL0     H20051   9.796   3.039   8.406  2.2426  1.0780 -2.9415
  149MOL0     H20052   9.757   2.890   8.210  0.8528  0.8125  4.2234
  149MOL0     H20053   9.666   3.037   8.140 -0.1302  2.8605  1.3817
  149MOL0     H20054   9.891   3.056   8.064 -0.6517  1.3687 -0.3111
  149MOL0     H20055   9.884   3.159   8.199 -3.9840  0.3144 -1.7768
  149MOL0     H20056   9.990   2.969   8.338 -3.2653  1.3733  0.3425
  149MOL0     H20057   9.979   2.868   8.193  2.8075 -0.2814 -1.4168
  149MOL0     H20058  10.158   2.916   8.111  0.6024  0.1357  1.9676
  149MOL0     H20059  10.133   3.097   8.133 -0.7141  1.5972  1.4894
  149MOL0     H20060  10.340   3.051   8.250 -1.4218  1.9154 -0.6786
  149MOL0     H20061  10.213   3.077   8.373  0.3643  1.2271  0.1056
  149MOL0     H20062  10.177   2.854   8.421  1.2305  1.1906  1.9257
  149MOL0     H20063  10.269   2.797   8.281 -0.8721  3.4568 -4.2701
  149MOL0     H20064  10.410   2.973   8.479 -0.3046 -0.8698  0.6599
  149MOL0     H20065  10.477   2.862   8.361 -2.0585  0.6246 -2.4544
  149MOL0     H20066  10.563   2.630   8.494  0.5860 -2.8923  2.1149
  149MOL0     H20067  10.601   2.462   8.668 -0.9994 -1.3568 -2.3113
  149MOL0     H20068  10.504   2.489   8.827 -2.5464  1.3579 -0.1026
  149MOL0     H20069  10.476   2.264   8.684 -0.9650 -0.0279 -3.0526
  149MOL0     H20070  10.369   2.360   8.582 -3.3629 -0.1112  0.6347
  149MOL0     H20071  10.246   2.252   8.746 -0.5773  1.5333 -2.3245
  149MOL0     H20072  10.248   2.426   8.783  3.7342  2.1046  0.8295
  149MOL0     H20073  10.406   2.381   8.979  0.1138  1.3333 -2.7781
  149MOL0     H20074  10.440   2.224   8.928 -3.3381 -4.6838  4.3489
  149MOL0     H20075  10.021   2.177   9.090  2.0017 -0.1353 -2.0609
  149MOL0     H20076   9.751   2.253   9.155  2.0879 -2.6733 -2.0090
  149MOL0     H20077   9.884   2.176   9.227  2.3014  1.2781 -1.7938
  149MOL0     H20078   9.813   2.317   9.316  0.9876  2.0454  0.2551
  149MOL0     H20079   9.579   2.575   9.431 -0.6702  0.2584 -0.3500
  149MOL0     H20080   9.371   2.727   9.440 -0.7596  1.5088 -0.7807
  149MOL0     H20081   9.071   2.703   9.235  2.4716 -4.2366  1.2983
  149MOL0     H20082   9.170   2.716   9.386 -2.0724  0.0453  1.6481
  149MOL0     H20083   9.009   2.953   9.256 -0.1052  0.3437  0.3972
  149MOL0     H20084   8.951   2.850   9.394 -1.0470  1.8121  2.4915
  149MOL0     H20085   9.217   2.970   9.443  0.2901 -0.7780  0.6608
  149MOL0     H20086   9.092   2.945   9.548  0.4394  2.5113  0.8990
  149MOL0     H20087   9.125   3.199   9.493 -0.6371  0.4233  1.4019
  149MOL0     H20088   9.053   3.155   9.333  2.1880 -0.2975 -0.3917
  149MOL0     H20089   8.932   3.133   9.608 -0.9924  1.5924  0.8987
  149MOL0     H20090   8.860   3.081   9.452 -0.5931 -0.4110  1.6447
  149MOL0     H20091   8.930   3.362   9.552  3.4143 -3.8046 -0.5388
  149MOL0     H20092   8.888   3.312   9.390 -2.2086 -1.9420 -1.5209
  149MOL0     H20093   8.704   3.332   9.642  1.1997  1.7403 -1.2644
  149MOL0     H20094   8.678   3.186   9.528 -1.6318  0.3046  0.4968
  149MOL0     H20095   8.628   3.343   9.348  2.9407  0.3503 -0.6110
  149MOL0     H20096   8.686   3.473   9.456  2.7201 -1.3404 -0.1131
  149MOL0     H20097   9.373   2.745   9.012  1.2832  1.8839  0.1823
  149MOL0     H20098   9.587   2.641   9.008 -1.8520 -1.3755 -1.0928
  149MOL0     H20099  10.067   2.668   9.098  0.4752  0.5614  2.4603
  149MOL0     H20100  10.223   2.538   8.984  0.5953  1.5576  0.3828
  149MOL0     H20101   9.396   2.878   8.534  1.4048 -2.0187  1.0498
  149MOL0     H20102   9.296   3.000   8.746  0.8092 -0.3997  1.6439
  149MOL0     H20103   9.362   3.171   9.148 -2.3120 -2.6626  2.0220
  149MOL0     H20104   9.318   3.283   9.355  1.5724 -2.2659 -0.5794
  149MOL0     H20105   9.005   3.562   9.347 -0.9744 -2.2034  1.5903
  149MOL0     H20106   9.039   3.548   9.515 -2.1371  0.7842  0.0931
  149MOL0     H20107   9.043   3.802   9.434  1.7017  1.9231 -1.3096
  149MOL0     H20108   9.176   3.769   9.332  0.7920  0.0434  0.6036
  149MOL0     H20109   9.321   3.722   9.524  0.4963 -0.5603  2.6451
  149MOL0     H20110   9.189   3.712   9.627  2.8227  0.3263  2.3882
  149MOL0     H20111   9.146   3.962   9.611  1.2460  0.7003  1.9201
  149MOL0     H20112   9.241   3.970   9.459  2.4526  0.0624  1.0754
  149MOL0     H20113   9.501   3.962   9.803 -1.9416  0.2183  0.8723
  149MOL0     H20114   9.099   3.595   9.160 -1.0328 -1.1282  0.0110
  149MOL0     H20115   9.152   3.496   8.938  0.0058  1.0878  0.1731
  150MOL0     O20116   9.612   3.982   1.753 -0.3240  0.2678 -0.2012
  150MOL0     C20117   9.648   4.000   1.632 -0.2147  0.4312 -0.1768
  150MOL0     O20118   9.568   4.010   1.519  0.1595 -0.0859 -0.2162
  150MOL0     C20119   9.440   3.990   1.532  1.0141 -0.8856  0.9921
  150MOL0     C20120   9.375   3.887   1.597  0.0290 -0.0490 -0.5236
  150MOL0     C20121   9.231   3.877   1.589  0.1817  1.1499  0.2310
  150MOL0     C20122   9.153   3.969   1.525 -0.2789  0.1726  0.0395
  150MOL0     O20123   9.019   3.974   1.518  0.4586 -0.5460 -0.0097
  150MOL0     C20124   8.952   3.923   1.636  0.2354 -0.9354 -0.5029
  150MOL0     C20125   8.797   3.938   1.604 -1.0188  0.4600 -0.2706
  150MOL0     C20126   8.700   3.914   1.719  0.5478 -0.2876 -0.4056
  150MOL0     C20127   8.553   3.912   1.689  0.2150 -0.5984 -0.9998
  150MOL0     C20128   8.489   4.031   1.616  0.6947  0.6122 -0.1340
  150MOL0     C20129   8.331   4.014   1.614 -0.7501 -0.2841 -1.0084
  150MOL0     C20130   8.267   4.140   1.543 -0.4973 -0.5170  0.6211
  150MOL0     C20131   8.316   4.274   1.597 -0.3622 -0.3354 -0.3164
  150MOL0     N20132   8.270   4.371   1.494  0.2843  0.7839 -0.4598
  150MOL0     C20133   8.158   4.448   1.510  0.2358 -0.5453 -0.1514
  150MOL0     C20134   8.169   4.540   1.410  0.5302 -0.9334 -0.5659
  150MOL0     C20135   8.076   4.650   1.364 -0.3609 -0.2688 -0.5486
  150MOL0     C20136   7.936   4.615   1.418  0.0955  0.3570 -0.7126
  150MOL0     C20137   7.844   4.722   1.370  1.3307  0.5051  0.1260
  150MOL0     C20138   7.693   4.678   1.370  0.5299  0.1560  0.5287
  150MOL0     O20139   7.673   4.592   1.253 -0.5517 -0.5885  0.6081
  150MOL0     C20140   7.556   4.525   1.220 -0.6096 -0.3149  0.2474
  150MOL0     C20141   7.489   4.459   1.317  0.7555 -0.0572 -0.6980
  150MOL0     C20142   7.360   4.398   1.288 -0.6029 -1.3167  1.3750
  150MOL0     C20143   7.295   4.331   1.410  0.1911  0.5296 -0.3244
  150MOL0     C20144   7.314   4.407   1.157 -0.0842  0.3465  0.0291
  150MOL0     C20145   7.187   4.322   1.112  0.0028 -0.2940  0.7247
  150MOL0     O20146   7.192   4.274   0.977 -0.1758 -0.6114  0.3714
  150MOL0     C20147   7.099   4.197   0.918  0.0882 -0.1798 -0.3100
  150MOL0     C20148   7.076   4.214   0.780  0.1182  0.8452 -0.1547
  150MOL0     C20149   6.964   4.158   0.723 -0.3655  0.0330  0.3577
  150MOL0     C20150   6.899   4.052   0.784  0.1227  0.5625 -0.4272
  150MOL0     O20151   6.804   3.992   0.710  0.4142  0.5751 -0.3418
  150MOL0     C20152   6.691   3.931   0.777  0.2703  0.0702 -0.0862
  150MOL0     C20153   6.582   3.899   0.675  0.0041 -0.3590 -0.1655
  150MOL0     C20154   6.461   3.817   0.738 -0.3110  0.3510 -0.2345
  150MOL0     C20155   6.394   3.911   0.848 -0.1630 -0.0754  0.6008
  150MOL0     C20156   6.300   3.837   0.939 -1.0027  0.1005 -1.2065
  150MOL0     C20157   6.181   3.788   0.851  0.4002  0.1537 -0.2406
  150MOL0     C20158   6.054   3.740   0.927 -0.2386  0.2956 -0.2770
  150MOL0     C20159   5.963   3.852   0.964  0.2120 -0.2852 -0.8161
  150MOL0    Cl20160   5.825   3.791   1.072 -0.0842  0.4650 -0.1638
  150MOL0     C20161   6.938   4.017   0.909 -0.0710 -0.0597 -0.4316
  150MOL0     C20162   7.028   4.094   0.986 -0.3524 -1.1410  0.4951
  150MOL0     O20163   7.099   4.309   1.189  0.4125 -0.2398 -0.3774
  150MOL0     C20164   7.389   4.470   1.056 -0.1408 -0.6581  0.0090
  150MOL0     C20165   7.508   4.539   1.089  0.0095 -0.2689 -0.0167
  150MOL0     N20166   8.285   4.523   1.340  0.1731  0.5218 -0.7057
  150MOL0     N20167   8.349   4.423   1.393 -0.2607 -0.8280 -0.4927
  150MOL0     C20168   9.225   4.076   1.456 -0.5003  0.2252  0.0083
  150MOL0     C20169   9.364   4.083   1.453  0.5160 -0.0854 -0.3622
  150MOL0     C20170   9.802   4.006   1.597 -0.7792 -0.1659  0.5662
  150MOL0     C20171   9.845   3.991   1.457 -0.5298 -0.0763 -0.6526
  150MOL0     C20172   9.981   4.000   1.424 -0.4038  0.7989 -0.1602
  150MOL0     C20173  10.075   4.038   1.527 -0.2346 -0.7110 -0.2760
  150MOL0     O20174  10.208   4.058   1.509  0.0038 -0.4613 -1.3493
  150MOL0     C20175  10.253   4.084   1.376 -0.5346  0.8435 -0.3606
  150MOL0     C20176  10.370   4.180   1.371 -0.4639  0.2571 -0.5139
  150MOL0     C20177  10.504   4.133   1.444 -0.5857 -0.5285  0.1397
  150MOL0     C20178  10.628   4.182   1.369  0.6773 -0.4030 -1.1137
  150MOL0     C20179  10.753   4.144   1.435  0.1825  0.0358  0.0523
  150MOL0     C20180  10.856   4.117   1.501  0.2161  0.1126 -0.2583
  150MOL0     C20181  10.034   4.043   1.660 -0.9387 -0.5618  0.7539
  150MOL0     C20182   9.896   4.023   1.693  0.4556  0.8687 -0.0678
  150MOL0     H20183   9.421   3.824   1.672 -0.3765  1.7983  1.3781
  150MOL0     H20184   9.182   3.800   1.647 -1.1023  1.2213 -0.7086
  150MOL0     H20185   8.974   3.818   1.656 -2.7372 -0.9659  4.0304
  150MOL0     H20186   8.970   3.990   1.721 -1.5692  0.1545 -0.9307
  150MOL0     H20187   8.783   4.044   1.584 -0.3164  0.7016  0.4376
  150MOL0     H20188   8.786   3.872   1.517  0.2728  0.5159 -0.5013
  150MOL0     H20189   8.710   3.815   1.765  1.0109  0.8899  2.2508
  150MOL0     H20190   8.703   3.993   1.795  0.4537  0.9587 -1.6664
  150MOL0     H20191   8.528   3.823   1.630 -2.2259 -1.7625  1.5911
  150MOL0     H20192   8.492   3.917   1.779 -0.4117  0.5314 -1.4642
  150MOL0     H20193   8.520   4.120   1.671 -1.4043  1.2246  0.1511
  150MOL0     H20194   8.528   4.038   1.514 -0.0606  0.5760 -0.4347
  150MOL0     H20195   8.294   3.922   1.566 -1.5291  0.1368 -1.2350
  150MOL0     H20196   8.304   4.013   1.720  0.7822 -1.5880 -0.5908
  150MOL0     H20197   8.301   4.137   1.439 -0.3201 -1.9495  0.7000
  150MOL0     H20198   8.158   4.127   1.543 -0.5581 -0.2570 -1.2568
  150MOL0     H20199   8.426   4.271   1.596 -0.3430  0.2314 -1.6708
  150MOL0     H20200   8.284   4.290   1.700 -0.0231  1.3251 -0.4314
  150MOL0     H20201   8.069   4.435   1.571 -2.7123  3.9460 -2.9270
  150MOL0     H20202   8.103   4.744   1.412 -2.0039 -0.4714  0.8707
  150MOL0     H20203   8.077   4.655   1.255 -1.5656  0.8911 -0.5256
  150MOL0     H20204   7.939   4.604   1.527  2.9200  0.3555 -0.7192
  150MOL0     H20205   7.904   4.516   1.382 -0.8790 -1.1081  3.6097
  150MOL0     H20206   7.869   4.743   1.266  0.4687 -2.0962 -0.6690
  150MOL0     H20207   7.854   4.810   1.435  0.2583  2.5015 -2.2447
  150MOL0     H20208   7.623   4.762   1.372  0.3262 -0.0112  2.3915
  150MOL0     H20209   7.676   4.620   1.462 -0.2083  0.3081  0.4929
  150MOL0     H20210   7.516   4.455   1.422 -1.2241 -2.2668 -0.2031
  150MOL0     H20211   7.212   4.396   1.440  0.0586 -0.4453  1.6263
  150MOL0     H20212   7.269   4.229   1.381 -1.7405  1.4681 -2.1802
  150MOL0     H20213   7.362   4.320   1.497 -0.0763  0.2416 -0.1536
  150MOL0     H20214   7.119   4.294   0.721 -1.3479  1.8166  0.0492
  150MOL0     H20215   6.914   4.183   0.630  1.3811 -2.1847 -1.2735
  150MOL0     H20216   6.724   3.836   0.820  0.2432 -0.2341 -0.7195
  150MOL0     H20217   6.644   4.000   0.847  0.0354  2.1139 -2.1327
  150MOL0     H20218   6.547   3.988   0.623  2.6901 -0.2128 -1.9033
  150MOL0     H20219   6.631   3.834   0.601  0.8046  1.3052 -1.1542
  150MOL0     H20220   6.519   3.733   0.778  3.2492  2.4443 -0.6120
  150MOL0     H20221   6.386   3.783   0.666 -1.3312  1.3729  0.3095
  150MOL0     H20222   6.465   3.964   0.911  3.0781  0.1994 -2.9104
  150MOL0     H20223   6.334   3.983   0.791  0.0439 -1.4861 -1.5336
  150MOL0     H20224   6.255   3.908   1.009 -3.8568 -2.6492 -0.0445
  150MOL0     H20225   6.347   3.754   0.992 -2.3435  0.9294  1.4524
  150MOL0     H20226   6.156   3.853   0.767  2.6607 -0.2771 -1.3157
  150MOL0     H20227   6.212   3.701   0.793  0.9419 -0.3356  0.7485
  150MOL0     H20228   6.093   3.701   1.021 -0.5565  0.6943  0.0244
  150MOL0     H20229   5.995   3.664   0.874 -0.0428 -1.8336  2.3574
  150MOL0     H20230   5.924   3.895   0.872  0.5741 -0.3816 -1.0159
  150MOL0     H20231   6.023   3.928   1.015 -1.7335  2.7145 -2.7337
  150MOL0     H20232   6.905   3.929   0.964  2.7318 -0.8585  0.1587
  150MOL0     H20233   7.062   4.061   1.084 -0.9002  0.3791  1.2305
  150MOL0     H20234   7.353   4.480   0.954  0.4218  0.8104 -0.0640
  150MOL0     H20235   7.570   4.594   1.019  0.2014 -0.0014  0.3574
  150MOL0     H20236   9.176   4.161   1.410  1.0230 -0.1774 -2.5119
  150MOL0     H20237   9.413   4.171   1.414 -0.9525 -0.0080 -2.1833
  150MOL0     H20238   9.774   3.976   1.376 -1.2699  2.5908 -0.5828
  150MOL0     H20239  10.011   3.994   1.320  2.2833 -0.9093  0.6119
  150MOL0     H20240  10.287   3.992   1.328 -0.5385  0.7105 -0.1054
  150MOL0     H20241  10.177   4.140   1.320 -1.5950  1.4253  1.5578
  150MOL0     H20242  10.335   4.269   1.425  3.1904  1.4882  0.0806
  150MOL0     H20243  10.385   4.207   1.266  2.1941 -0.8978 -0.5086
  150MOL0     H20244  10.505   4.023   1.442 -1.1801 -0.5399  0.2364
  150MOL0     H20245  10.502   4.165   1.548 -0.5699 -0.3681  0.0913
  150MOL0     H20246  10.620   4.291   1.361 -3.1268 -0.5094 -0.4684
  150MOL0     H20247  10.637   4.133   1.272  1.0996 -0.3788 -1.0879
  150MOL0     H20248  10.943   4.096   1.559 -0.1150  1.4855  0.7637
  150MOL0     H20249  10.101   4.066   1.742 -1.0417 -0.4942  0.8186
  150MOL0     H20250   9.865   4.017   1.797 -0.1145 -0.8333 -0.2971
  151MOL0     O20251   0.931   8.033   2.729 -0.7188 -0.0038 -0.8116
  151MOL0     C20252   1.005   7.976   2.813  0.3995  0.2349 -0.5651
  151MOL0     O20253   0.987   7.856   2.877 -0.3020  0.2026 -0.6238
  151MOL0     C20254   0.856   7.829   2.886  0.3634 -0.2120 -1.0035
  151MOL0     C20255   0.778   7.884   2.993 -0.9171 -0.2566  0.0534
  151MOL0     C20256   0.643   7.849   3.011 -0.5109  0.3386  0.1565
  151MOL0     C20257   0.588   7.758   2.921  0.0951  0.3523 -0.3095
  151MOL0     O20258   0.460   7.707   2.951  0.8031  0.6069 -0.1461
  151MOL0     C20259   0.415   7.584   2.896 -1.0389 -0.1984  0.2694
  151MOL0     C20260   0.267   7.568   2.938  0.6097 -0.1235  0.6888
  151MOL0     C20261   0.165   7.668   2.892 -0.5191 -0.6509  0.1508
  151MOL0     C20262   0.028   7.624   2.909  0.5766  0.5234 -1.4622
  151MOL0     C20263  -0.080   7.726   2.888  1.0220 -0.4854  0.5988
  151MOL0     C20264  -0.221   7.658   2.911  0.0061  0.5983 -0.6326
  151MOL0     C20265  -0.346   7.754   2.913  0.9701 -1.2418 -0.2867
  151MOL0     C20266  -0.482   7.683   2.874  0.1881  0.0586 -0.0088
  151MOL0     N20267  -0.588   7.778   2.861 -0.3093 -0.1072 -0.0708
  151MOL0     C20268  -0.725   7.752   2.845  0.3186  0.7778 -0.2160
  151MOL0     C20269  -0.789   7.875   2.822  0.9083  0.1905  0.6872
  151MOL0     C20270  -0.940   7.898   2.810 -0.7137 -0.5289  0.2679
  151MOL0     C20271  -1.022   7.811   2.909 -0.3459  0.6038  1.2074
  151MOL0     C20272  -1.174   7.829   2.878  0.0223  0.5891 -0.4283
  151MOL0     C20273  -1.227   7.961   2.934 -0.1320 -0.7757  0.5206
  151MOL0     O20274  -1.375   7.960   2.920  0.8726 -0.2741  0.4723
  151MOL0     C20275  -1.459   7.914   3.021  0.0169  0.4288 -0.3743
  151MOL0     C20276  -1.426   7.840   3.138 -0.0945 -0.2507 -0.6518
  151MOL0     C20277  -1.523   7.791   3.222 -0.3760  0.0548 -0.3366
  151MOL0     C20278  -1.485   7.718   3.343  0.4481 -0.2107 -0.6779
  151MOL0     C20279  -1.664   7.824   3.204 -0.5321  0.2775  0.7117
  151MOL0     C20280  -1.773   7.778   3.288 -0.4621  0.2462  0.3349
  151MOL0     O20281  -1.895   7.841   3.268  0.3802 -0.7764 -0.1246
  151MOL0     C20282  -2.008   7.773   3.306 -0.0770  0.7937 -1.5936
  151MOL0     C20283  -2.047   7.764   3.441  0.3542 -0.4461 -0.1394
  151MOL0     C20284  -2.168   7.706   3.476 -0.1626 -0.6517  0.6365
  151MOL0     C20285  -2.248   7.643   3.381  0.5414  0.4926 -0.0223
  151MOL0     O20286  -2.374   7.595   3.437  0.6070 -0.3515 -0.5520
  151MOL0     C20287  -2.446   7.498   3.365 -0.0557  0.7870 -0.2156
  151MOL0     C20288  -2.554   7.443   3.452  0.2856 -0.0507  0.3764
  151MOL0     C20289  -2.627   7.329   3.385  0.1569  0.0978  0.7528
  151MOL0     C20290  -2.781   7.355   3.408  0.7071 -0.9278  0.0336
  151MOL0     C20291  -2.846   7.219   3.388  1.1277 -0.2512  0.3689
  151MOL0     C20292  -2.844   7.138   3.521 -0.9123 -0.6642 -0.3946
  151MOL0     C20293  -2.859   6.989   3.496  0.4821 -0.1414 -0.0450
  151MOL0     C20294  -2.755   6.906   3.578  0.5875  0.1387  0.1391
  151MOL0    Cl20295  -2.588   6.951   3.520  0.1883 -0.3581 -0.2857
  151MOL0     C20296  -2.206   7.632   3.251  0.5263 -0.7997  1.0198
  151MOL0     C20297  -2.094   7.705   3.213  0.0396  0.0156  0.2537
  151MOL0     O20298  -1.753   7.691   3.380  0.3706 -0.6836  0.0288
  151MOL0     C20299  -1.695   7.898   3.087  1.0681 -0.2598 -0.7639
  151MOL0     C20300  -1.594   7.941   2.994  0.1067  0.6422  0.0553
  151MOL0     N20301  -0.693   7.971   2.829 -1.2188 -0.0257 -0.0086
  151MOL0     N20302  -0.573   7.913   2.852  0.4607 -0.7147  0.3782
  151MOL0     C20303   0.663   7.715   2.810  0.0304  0.2323 -0.4838
  151MOL0     C20304   0.794   7.746   2.796 -0.4646  0.2541  0.6870
  151MOL0     C20305   1.131   8.039   2.829 -0.0608 -0.2866 -0.4853
  151MOL0     C20306   1.183   8.135   2.740  0.5643 -0.6327 -0.0759
  151MOL0     C20307   1.311   8.181   2.739 -0.3603 -0.0006 -0.3894
  151MOL0     C20308   1.413   8.135   2.828 -0.8053  0.2027 -1.0032
  151MOL0     O20309   1.538   8.194   2.827 -0.4037 -0.6322 -0.3054
  151MOL0     C20310   1.622   8.200   2.939 -1.4299 -0.3913  0.7682
  151MOL0     C20311   1.751   8.274   2.914  0.3337 -0.4541 -0.5455
  151MOL0     C20312   1.841   8.198   2.825 -0.1268 -0.2571  0.1662
  151MOL0     C20313   1.911   8.081   2.890 -0.1894  1.2485  0.2441
  151MOL0     C20314   2.031   8.108   2.968  0.1129  1.1078  0.8188
  151MOL0     C20315   2.140   8.113   3.020  0.1996 -0.0939  0.0454
  151MOL0     C20316   1.371   8.037   2.912 -0.3029 -0.0334 -0.0807
  151MOL0     C20317   1.236   7.991   2.918  0.0912  0.0030 -0.0864
  151MOL0     H20318   0.828   7.946   3.067 -0.7192  0.7127 -0.8717
  151MOL0     H20319   0.580   7.868   3.097 -1.6007 -0.2887 -0.4816
  151MOL0     H20320   0.421   7.573   2.787  0.5765 -0.1304  0.3271
  151MOL0     H20321   0.473   7.503   2.940 -0.5931  0.6553  1.2970
  151MOL0     H20322   0.215   7.473   2.922 -1.1309  0.8845  0.1216
  151MOL0     H20323   0.275   7.578   3.047 -0.4169 -1.4277  0.9086
  151MOL0     H20324   0.174   7.761   2.949 -0.8074  1.1632 -2.5773
  151MOL0     H20325   0.172   7.696   2.786  0.8191  0.8674  0.5966
  151MOL0     H20326   0.003   7.545   2.837 -0.6298  2.1472 -2.9298
  151MOL0     H20327   0.010   7.573   3.004 -0.2311  1.0410 -1.3244
  151MOL0     H20328  -0.082   7.806   2.962 -2.0383  0.0428  0.0764
  151MOL0     H20329  -0.068   7.777   2.792  0.6137 -0.9520  0.2971
  151MOL0     H20330  -0.244   7.595   2.825 -2.1528  2.2207 -1.3480
  151MOL0     H20331  -0.220   7.596   3.002  0.5337  4.1098  1.9875
  151MOL0     H20332  -0.344   7.801   3.012 -0.0905 -2.0775  0.1462
  151MOL0     H20333  -0.321   7.837   2.846  0.5674 -1.4787 -0.7334
  151MOL0     H20334  -0.500   7.597   2.939  0.5268  0.6893  0.9458
  151MOL0     H20335  -0.490   7.640   2.774 -1.7770  1.1100 -0.3530
  151MOL0     H20336  -0.761   7.650   2.855  1.2036  0.5653  1.0329
  151MOL0     H20337  -0.960   8.003   2.831  2.0912  0.3709 -1.2171
  151MOL0     H20338  -0.961   7.875   2.705  3.1069  0.8942 -0.9655
  151MOL0     H20339  -1.003   7.848   3.010  0.8125 -0.7399  1.5237
  151MOL0     H20340  -1.002   7.704   2.893 -0.6128  0.5774  1.0460
  151MOL0     H20341  -1.220   7.752   2.941  1.9700 -0.0385  0.3079
  151MOL0     H20342  -1.199   7.814   2.773 -1.7239  0.8326 -0.0658
  151MOL0     H20343  -1.189   8.034   2.862 -0.4720 -0.9120  0.1972
  151MOL0     H20344  -1.189   7.987   3.033 -1.1590 -2.3153  1.3732
  151MOL0     H20345  -1.324   7.809   3.157  0.3302 -0.4300 -2.9060
  151MOL0     H20346  -1.517   7.770   3.434 -1.7983  0.5012 -1.8073
  151MOL0     H20347  -1.520   7.615   3.350  2.6885 -0.9359  0.9131
  151MOL0     H20348  -1.377   7.704   3.354  0.0764 -2.0976  1.1481
  151MOL0     H20349  -2.005   7.814   3.528 -1.6938 -2.2906  2.0760
  151MOL0     H20350  -2.203   7.711   3.579  1.6651 -0.3873  1.2841
  151MOL0     H20351  -2.504   7.540   3.283 -1.6565 -2.3762 -0.8706
  151MOL0     H20352  -2.379   7.415   3.341 -0.2704 -0.6733  3.4963
  151MOL0     H20353  -2.507   7.404   3.543 -1.1052 -0.4121  0.9543
  151MOL0     H20354  -2.627   7.521   3.473 -1.9827 -2.3071  1.4367
  151MOL0     H20355  -2.607   7.236   3.438 -1.3801  0.3522  1.8476
  151MOL0     H20356  -2.602   7.304   3.281 -0.1817 -1.4305  1.0156
  151MOL0     H20357  -2.794   7.398   3.508 -0.5563  1.3266 -1.0271
  151MOL0     H20358  -2.825   7.429   3.340  0.7614 -2.5357 -1.8009
  151MOL0     H20359  -2.795   7.171   3.303 -1.2263  0.3587 -1.4893
  151MOL0     H20360  -2.951   7.230   3.361  1.5463  0.2075 -1.2230
  151MOL0     H20361  -2.747   7.144   3.571 -3.0556 -1.1175  4.3077
  151MOL0     H20362  -2.909   7.184   3.596 -1.0962  2.2305 -2.1424
  151MOL0     H20363  -2.837   6.965   3.392 -3.5527  0.3272 -1.1428
  151MOL0     H20364  -2.960   6.955   3.519  1.1132 -1.4531  0.9069
  151MOL0     H20365  -2.787   6.805   3.552 -0.7416  1.3019 -3.3231
  151MOL0     H20366  -2.763   6.916   3.687 -3.9051 -2.4450  0.2955
  151MOL0     H20367  -2.270   7.581   3.179  0.8008 -0.9280  0.8655
  151MOL0     H20368  -2.052   7.703   3.113 -0.6810 -0.3589 -0.0416
  151MOL0     H20369  -1.801   7.909   3.065  1.2509  1.6791 -0.7990
  151MOL0     H20370  -1.606   7.983   2.894 -0.5791  1.8148  0.6170
  151MOL0     H20371   0.609   7.654   2.738 -1.8827 -2.0968  2.6459
  151MOL0     H20372   0.847   7.710   2.709 -1.0212 -2.0291  1.2349
  151MOL0     H20373   1.115   8.167   2.661 -0.4701 -2.3615  0.0642
  151MOL0     H20374   1.340   8.266   2.677  3.2398 -0.1349  0.8964
  151MOL0     H20375   1.568   8.244   3.023 -1.0782  0.9607  0.3270
  151MOL0     H20376   1.657   8.103   2.975  2.4992  0.3863 -0.4518
  151MOL0     H20377   1.802   8.278   3.011 -3.3393  0.1350  1.5862
  151MOL0     H20378   1.736   8.377   2.880 -0.4550  0.6946  2.8404
  151MOL0     H20379   1.917   8.264   2.783  0.5228  1.2454  3.4441
  151MOL0     H20380   1.774   8.172   2.742 -2.9134  3.3253  1.0653
  151MOL0     H20381   1.938   8.019   2.805 -1.0196 -0.0528  0.8977
  151MOL0     H20382   1.848   8.015   2.950  0.8009 -0.0864 -0.1551
  151MOL0     H20383   2.235   8.127   3.069  0.0557 -1.3446  0.7268
  151MOL0     H20384   1.440   7.983   2.976 -1.5287 -1.0952  0.3899
  151MOL0     H20385   1.210   7.912   2.987 -4.0266 -0.3468 -1.7636
  152MOL0     O20386   1.649   6.476   8.530  0.0403  0.0710 -0.1059
  152MOL0     C20387   1.588   6.498   8.424 -0.2436 -0.9162 -0.7445
  152MOL0     O20388   1.453   6.523   8.414  0.6760 -0.3248 -0.5125
  152MOL0     C20389   1.383   6.528   8.538 -0.1288 -0.1257  0.3251
  152MOL0     C20390   1.282   6.432   8.566 -0.8393 -0.1510  0.0577
  152MOL0     C20391   1.213   6.445   8.681  0.4542  0.8915  0.2822
  152MOL0     C20392   1.227   6.551   8.765  0.7859 -0.4344 -0.4720
  152MOL0     O20393   1.140   6.556   8.870 -0.8165  0.4338  0.1995
  152MOL0     C20394   1.179   6.623   8.992  0.2226  0.1642 -0.1349
  152MOL0     C20395   1.083   6.724   9.045  0.0773 -0.7201  0.3109
  152MOL0     C20396   1.061   6.839   8.950  0.0496 -0.5006  0.6706
  152MOL0     C20397   0.965   6.945   9.018 -0.1176  0.0538 -0.0410
  152MOL0     C20398   0.951   7.080   8.944  0.5854  0.0307 -0.0947
  152MOL0     C20399   0.863   7.074   8.828  0.4433  0.4150  0.2293
  152MOL0     C20400   0.828   7.208   8.763 -0.7806  0.0884 -0.9569
  152MOL0     C20401   0.947   7.284   8.699 -0.1867 -1.0787 -0.8317
  152MOL0     N20402   0.894   7.381   8.605 -0.0401 -0.1204  0.7182
  152MOL0     C20403   0.800   7.472   8.639 -0.7175  0.7704  0.0897
  152MOL0     C20404   0.787   7.542   8.524  0.3784  0.4699  0.4128
  152MOL0     C20405   0.709   7.664   8.499 -0.4435 -0.6182  0.0472
  152MOL0     C20406   0.603   7.641   8.400 -0.4286 -1.2311  0.1206
  152MOL0     C20407   0.497   7.553   8.460  0.3478  0.0383  0.1688
  152MOL0     C20408   0.384   7.503   8.368  0.3835  0.3458  0.4170
  152MOL0     O20409   0.320   7.620   8.309  0.3294  0.7669 -0.2326
  152MOL0     C20410   0.209   7.596   8.227  0.3133 -0.2470  0.3517
  152MOL0     C20411   0.181   7.469   8.163  1.4035  0.5217 -0.8396
  152MOL0     C20412   0.061   7.449   8.094  1.1561 -0.8336  0.7490
  152MOL0     C20413   0.036   7.303   8.059  0.2121  0.5725  0.6733
  152MOL0     C20414  -0.025   7.558   8.063  0.6174  1.0851 -0.0754
  152MOL0     C20415  -0.152   7.540   7.995  0.2405 -0.1678  0.0773
  152MOL0     O20416  -0.207   7.418   7.968 -0.1366  0.5937 -1.0024
  152MOL0     C20417  -0.323   7.394   7.899 -0.0336 -0.1069 -0.1943
  152MOL0     C20418  -0.453   7.402   7.961  0.2494  0.3548 -0.0459
  152MOL0     C20419  -0.571   7.355   7.897 -0.3603  0.8044  0.4503
  152MOL0     C20420  -0.562   7.319   7.773  0.1085 -0.6591  0.3157
  152MOL0     O20421  -0.684   7.281   7.725 -0.4717 -0.1539  0.5257
  152MOL0     C20422  -0.697   7.272   7.584 -0.0874  0.1902  0.5104
  152MOL0     C20423  -0.849   7.256   7.566 -0.2034 -0.3325 -0.0609
  152MOL0     C20424  -0.883   7.228   7.420  0.1994 -0.2879  0.4424
  152MOL0     C20425  -1.036   7.208   7.409 -0.4746  0.0891 -0.1250
  152MOL0     C20426  -1.082   7.226   7.257  0.1291 -0.3155  0.0529
  152MOL0     C20427  -1.231   7.207   7.248  0.0700  0.9777 -0.5034
  152MOL0     C20428  -1.265   7.242   7.105  0.5739  0.0094  0.0545
  152MOL0     C20429  -1.409   7.175   7.078 -0.3048  0.2868  0.3715
  152MOL0    Cl20430  -1.459   7.234   6.927 -0.3681 -0.3262  0.0238
  152MOL0     C20431  -0.443   7.322   7.708  0.4145 -0.5733  0.1636
  152MOL0     C20432  -0.319   7.346   7.770 -0.2790 -0.2523  0.6757
  152MOL0     O20433  -0.195   7.649   7.961  0.1698 -0.7016  0.7350
  152MOL0     C20434   0.017   7.684   8.104 -0.0059  0.5485  0.2318
  152MOL0     C20435   0.134   7.707   8.181  0.0739  0.5057 -0.6332
  152MOL0     N20436   0.867   7.483   8.421  0.6324  0.4132  0.4152
  152MOL0     N20437   0.924   7.384   8.479 -0.4429  0.5454  0.6141
  152MOL0     C20438   1.319   6.649   8.729 -0.6925 -0.6452  0.9746
  152MOL0     C20439   1.406   6.635   8.618 -0.3630  0.2484 -0.4177
  152MOL0     C20440   1.658   6.478   8.299  0.4739  0.3780 -0.0662
  152MOL0     C20441   1.594   6.479   8.173  0.2687  0.4484 -0.4520
  152MOL0     C20442   1.674   6.460   8.054  0.2066 -0.4735  0.7250
  152MOL0     C20443   1.815   6.443   8.060  0.6457 -0.0091 -0.0563
  152MOL0     O20444   1.868   6.431   7.936 -0.0202  0.2106 -0.4427
  152MOL0     C20445   2.011   6.467   7.917  0.6382  0.1651 -0.1177
  152MOL0     C20446   2.039   6.620   7.933 -0.7603 -0.0780 -0.0993
  152MOL0     C20447   2.139   6.669   7.831  0.2893 -0.4161  0.8058
  152MOL0     C20448   2.280   6.603   7.855  0.2605  0.0546  0.1127
  152MOL0     C20449   2.360   6.649   7.971  0.5156 -0.1867 -0.2046
  152MOL0     C20450   2.427   6.688   8.059  0.4218  0.0057 -0.2501
  152MOL0     C20451   1.873   6.431   8.183 -0.5325  0.6793 -0.9736
  152MOL0     C20452   1.792   6.444   8.299 -0.0823  0.6784  0.0789
  152MOL0     H20453   1.260   6.351   8.498 -0.7095  1.7371 -2.3924
  152MOL0     H20454   1.145   6.370   8.719  1.2141  0.1505  0.2030
  152MOL0     H20455   1.193   6.549   9.072 -0.6960  0.7119  0.5441
  152MOL0     H20456   1.277   6.669   8.974  0.9262 -1.4070 -0.5984
  152MOL0     H20457   0.983   6.681   9.056 -0.5301 -0.4752 -3.1198
  152MOL0     H20458   1.119   6.763   9.141 -1.9969  0.4831  0.6640
  152MOL0     H20459   1.152   6.890   8.917 -1.6465 -0.1440 -4.0795
  152MOL0     H20460   1.017   6.809   8.855  1.6499  4.0180 -1.7903
  152MOL0     H20461   0.867   6.899   9.034  0.0583 -0.0435  0.8197
  152MOL0     H20462   1.004   6.968   9.117  1.3619 -0.6804 -0.4163
  152MOL0     H20463   0.921   7.160   9.012 -1.7341  0.0483 -1.0679
  152MOL0     H20464   1.048   7.114   8.906  0.1890  2.3119  0.7657
  152MOL0     H20465   0.906   7.017   8.746 -2.0739 -1.9924  0.4506
  152MOL0     H20466   0.766   7.030   8.852 -1.3951  2.9002 -2.0139
  152MOL0     H20467   0.759   7.172   8.685 -3.5198  0.4731  1.1195
  152MOL0     H20468   0.782   7.263   8.846  1.8899 -0.0833  0.7661
  152MOL0     H20469   0.997   7.210   8.634  0.3647 -1.4271 -0.0233
  152MOL0     H20470   1.010   7.348   8.762 -1.1791  2.2008 -2.9359
  152MOL0     H20471   0.753   7.496   8.734  0.6088 -0.2833  1.0503
  152MOL0     H20472   0.668   7.695   8.596  0.8455 -2.2483  1.1758
  152MOL0     H20473   0.781   7.729   8.450  0.2299 -2.0587 -0.9350
  152MOL0     H20474   0.638   7.595   8.307  1.1777  1.3660 -0.6452
  152MOL0     H20475   0.553   7.736   8.379  1.0377 -0.0967  1.5146
  152MOL0     H20476   0.454   7.611   8.542  0.2572  3.5072 -2.1320
  152MOL0     H20477   0.544   7.461   8.496  1.7058  0.6104 -0.0470
  152MOL0     H20478   0.317   7.431   8.417 -0.8124  3.2593  3.4889
  152MOL0     H20479   0.424   7.446   8.284 -0.3334 -0.9407  0.9214
  152MOL0     H20480   0.245   7.384   8.186 -1.4024 -1.2816  0.8417
  152MOL0     H20481   0.129   7.247   8.067  0.5173  1.2046  1.6393
  152MOL0     H20482  -0.047   7.262   8.118  0.9109  1.2681  2.1735
  152MOL0     H20483   0.013   7.301   7.952 -2.2605  3.0210  1.0304
  152MOL0     H20484  -0.467   7.430   8.065 -0.3353 -2.2732  0.6809
  152MOL0     H20485  -0.664   7.352   7.952 -1.0252  2.4489 -0.5056
  152MOL0     H20486  -0.653   7.355   7.527  0.4180  1.0489  2.0734
  152MOL0     H20487  -0.641   7.187   7.545  0.4202  1.0308 -0.6582
  152MOL0     H20488  -0.889   7.180   7.633 -1.2157  0.1113 -0.1420
  152MOL0     H20489  -0.895   7.352   7.590 -2.2272 -0.7532 -1.9541
  152MOL0     H20490  -0.824   7.143   7.381  1.3577  0.1956  1.0822
  152MOL0     H20491  -0.847   7.309   7.355  2.9724  0.5343  2.7744
  152MOL0     H20492  -1.053   7.104   7.437  0.5770 -0.4092 -1.2774
  152MOL0     H20493  -1.091   7.283   7.466 -1.6162 -0.4194 -0.5266
  152MOL0     H20494  -1.025   7.169   7.182 -0.6438  0.8273 -1.4649
  152MOL0     H20495  -1.064   7.332   7.237 -2.1508  0.6267  2.4460
  152MOL0     H20496  -1.254   7.101   7.262  2.2570  0.4378 -0.7607
  152MOL0     H20497  -1.280   7.274   7.320 -0.1160  1.0406 -0.6869
  152MOL0     H20498  -1.197   7.206   7.027 -1.5259  4.2351 -4.2510
  152MOL0     H20499  -1.269   7.349   7.084  1.7738  0.5395  2.2019
  152MOL0     H20500  -1.481   7.215   7.150 -0.2509 -0.3855  0.8050
  152MOL0     H20501  -1.402   7.066   7.081 -0.1134  0.2862 -0.1325
  152MOL0     H20502  -0.425   7.290   7.606  0.7047  1.4814 -0.4733
  152MOL0     H20503  -0.221   7.340   7.723 -0.7708 -2.4511 -0.1474
  152MOL0     H20504  -0.044   7.770   8.079  2.0120  1.0770 -3.6382
  152MOL0     H20505   0.170   7.808   8.199 -0.1127  0.8407 -2.0769
  152MOL0     H20506   1.326   6.736   8.793 -1.9307  0.1608  0.0579
  152MOL0     H20507   1.465   6.724   8.600 -1.2867  1.1047  0.7043
  152MOL0     H20508   1.491   6.511   8.163  0.5779  0.9679 -2.5516
  152MOL0     H20509   1.622   6.477   7.960 -1.7453  4.1513  2.3684
  152MOL0     H20510   2.073   6.403   7.979  1.0178  2.8226  2.4697
  152MOL0     H20511   2.034   6.438   7.814  0.4486 -1.6053  0.3194
  152MOL0     H20512   2.065   6.636   8.038 -1.8822  0.8542  0.0617
  152MOL0     H20513   1.949   6.678   7.911 -1.9962 -0.5973  2.9624
  152MOL0     H20514   2.145   6.778   7.825 -0.8858 -0.4128 -1.5274
  152MOL0     H20515   2.102   6.632   7.734 -1.3815  0.1137  1.2155
  152MOL0     H20516   2.328   6.637   7.763  0.8131 -1.0237 -0.0066
  152MOL0     H20517   2.275   6.494   7.857 -1.2121  0.0978  1.5694
  152MOL0     H20518   2.488   6.735   8.133 -1.6655  1.1282  0.8631
  152MOL0     H20519   1.981   6.420   8.184 -0.0452  3.9252  1.9843
  152MOL0     H20520   1.860   6.441   8.384  0.7103  2.4387 -0.4511
  153MOL0     O20521  10.051   6.320   1.377 -0.1425 -0.8219  0.3075
  153MOL0     C20522  10.083   6.321   1.498 -0.1957 -0.7890  0.2523
  153MOL0     O20523   9.997   6.294   1.598  0.1303  0.6268  0.2325
  153MOL0     C20524   9.864   6.281   1.576  0.0776 -0.1393  0.4205
  153MOL0     C20525   9.785   6.365   1.643  0.7063  0.0095  0.4401
  153MOL0     C20526   9.651   6.379   1.614  0.1107 -0.5222  0.5330
  153MOL0     C20527   9.593   6.291   1.526 -0.3171  0.1645 -0.2673
  153MOL0     O20528   9.463   6.302   1.523 -0.3021 -0.6639 -0.2076
  153MOL0     C20529   9.371   6.203   1.457  0.1384  0.2502  1.1860
  153MOL0     C20530   9.345   6.080   1.545 -0.4692 -0.3892  0.1378
  153MOL0     C20531   9.239   5.990   1.480 -0.4586  0.2762  0.3784
  153MOL0     C20532   9.095   6.042   1.435 -0.5896  0.4867 -0.0267
  153MOL0     C20533   8.992   6.045   1.545 -0.1265  0.4566 -0.2310
  153MOL0     C20534   8.981   6.180   1.614 -0.5921 -0.1858  0.3605
  153MOL0     C20535   8.927   6.289   1.516 -0.0919 -0.1700 -0.2218
  153MOL0     C20536   8.861   6.399   1.591  0.6853  0.0693  0.4437
  153MOL0     N20537   8.952   6.477   1.681  0.0952  0.0790 -0.2151
  153MOL0     C20538   9.034   6.581   1.634  0.0274  0.0281 -0.4275
  153MOL0     C20539   9.104   6.628   1.740 -0.9056  0.3388  0.7123
  153MOL0     C20540   9.205   6.745   1.742  0.0194 -0.8469  0.2674
  153MOL0     C20541   9.337   6.711   1.803 -0.8896 -0.4373 -0.7455
  153MOL0     C20542   9.442   6.826   1.790 -0.5943 -0.3150 -0.4211
  153MOL0     C20543   9.564   6.803   1.892 -0.0633 -0.3541 -0.3109
  153MOL0     O20544   9.680   6.880   1.849  0.4170 -0.3588  0.0891
  153MOL0     C20545   9.806   6.831   1.858 -0.4332 -1.1494 -0.0485
  153MOL0     C20546   9.849   6.723   1.941  0.5050  0.3370 -0.3447
  153MOL0     C20547   9.979   6.666   1.920  0.7984 -0.1407  0.2369
  153MOL0     C20548   9.999   6.532   1.984 -0.6436  0.2810  0.7137
  153MOL0     C20549  10.076   6.719   1.831  0.2476 -0.3085  0.4110
  153MOL0     C20550  10.209   6.665   1.798  0.0895  0.2887 -0.6555
  153MOL0     O20551  10.264   6.724   1.686  0.3622 -0.0205 -0.4212
  153MOL0     C20552  10.392   6.719   1.645 -0.6919  0.2255 -0.5825
  153MOL0     C20553  10.498   6.704   1.741  1.0383  1.3404 -0.1590
  153MOL0     C20554  10.624   6.669   1.678  0.2913 -0.7356 -0.9195
  153MOL0     C20555  10.657   6.685   1.541  0.4374 -0.0290  0.7458
  153MOL0     O20556  10.778   6.651   1.484 -0.0187  0.1652 -0.9791
  153MOL0     C20557  10.807   6.680   1.347 -0.5425 -0.1915  0.1456
  153MOL0     C20558  10.958   6.653   1.321 -0.8875  0.8733 -0.1276
  153MOL0     C20559  11.047   6.759   1.387 -1.2812  0.1474 -0.5817
  153MOL0     C20560  11.184   6.770   1.313 -0.3560 -0.5378 -0.8274
  153MOL0     C20561  11.254   6.899   1.344 -0.5669 -0.3599 -0.4004
  153MOL0     C20562  11.293   6.893   1.486  0.1111  0.6512  0.5523
  153MOL0     C20563  11.371   7.012   1.536  0.0941 -0.1566  0.5908
  153MOL0     C20564  11.525   6.984   1.508 -0.2534  0.3378  0.3467
  153MOL0    Cl20565  11.580   6.960   1.336  0.2236 -0.2712  0.4923
  153MOL0     C20566  10.548   6.719   1.460 -0.3357  0.2321 -0.1691
  153MOL0     C20567  10.413   6.724   1.505  0.5229 -0.5738 -0.8712
  153MOL0     O20568  10.267   6.581   1.868 -0.3202  0.2090  0.0413
  153MOL0     C20569  10.029   6.830   1.765  0.6074  0.6873  0.4103
  153MOL0     C20570   9.906   6.890   1.779  0.1325 -0.1519  0.2539
  153MOL0     N20571   9.082   6.536   1.843  0.4960 -0.4815  0.2222
  153MOL0     N20572   8.986   6.449   1.812  0.3409 -0.1851 -0.0388
  153MOL0     C20573   9.669   6.206   1.451 -0.6001  0.5640  0.6746
  153MOL0     C20574   9.806   6.198   1.478 -0.1388 -0.4907 -0.3399
  153MOL0     C20575  10.232   6.320   1.536 -0.1460 -0.4676 -0.6812
  153MOL0     C20576  10.271   6.248   1.649  0.1084  0.3226 -0.1973
  153MOL0     C20577  10.403   6.254   1.682  0.1860 -0.5357 -0.2337
  153MOL0     C20578  10.501   6.322   1.611 -0.0581  1.2990  0.2546
  153MOL0     O20579  10.632   6.311   1.638  0.4290  0.6817 -0.3688
  153MOL0     C20580  10.679   6.267   1.765  0.3689 -0.7811 -0.6306
  153MOL0     C20581  10.833   6.263   1.764 -0.0559 -0.0292  0.1150
  153MOL0     C20582  10.882   6.399   1.711  0.2328 -0.4599 -0.1351
  153MOL0     C20583  11.034   6.402   1.695  0.1077 -0.0149  0.2973
  153MOL0     C20584  11.061   6.339   1.568  0.2576  0.0393  0.0855
  153MOL0     C20585  11.072   6.295   1.453 -0.3133  0.2705 -0.4626
  153MOL0     C20586  10.460   6.388   1.490  0.0131 -0.0218 -0.3297
  153MOL0     C20587  10.323   6.387   1.445 -0.3126  0.0705 -0.2421
  153MOL0     H20588   9.823   6.437   1.715  1.2674  1.9121 -1.6252
  153MOL0     H20589   9.596   6.454   1.670 -2.2262 -3.0604  1.8895
  153MOL0     H20590   9.278   6.260   1.447  0.7275  1.4583  2.2879
  153MOL0     H20591   9.400   6.167   1.358 -2.3791 -1.3981  0.9462
  153MOL0     H20592   9.436   6.020   1.557  0.5727  1.1850  0.3297
  153MOL0     H20593   9.310   6.117   1.641  0.1819  0.5414  0.0272
  153MOL0     H20594   9.283   5.947   1.390 -0.0890 -2.2445  1.6707
  153MOL0     H20595   9.236   5.910   1.555  2.2387  0.9025  1.2757
  153MOL0     H20596   9.099   6.138   1.384 -0.4457  0.6601  0.3094
  153MOL0     H20597   9.061   5.974   1.356  0.6677 -1.1160  0.7339
  153MOL0     H20598   8.892   6.029   1.503 -0.3818  2.0965 -0.3135
  153MOL0     H20599   9.016   5.966   1.616  2.4950  1.4800  0.1368
  153MOL0     H20600   8.912   6.162   1.697 -0.9067  0.9657  0.3587
  153MOL0     H20601   9.074   6.219   1.655 -0.4814  0.1798 -0.2177
  153MOL0     H20602   9.011   6.327   1.457  1.8210 -2.4958  0.8782
  153MOL0     H20603   8.844   6.248   1.457 -1.4330  1.6352  0.3111
  153MOL0     H20604   8.787   6.348   1.654 -0.9007  2.3206  0.5171
  153MOL0     H20605   8.819   6.465   1.515 -1.3298 -1.6083  0.0298
  153MOL0     H20606   9.041   6.617   1.532  1.8996  2.7709  0.5599
  153MOL0     H20607   9.218   6.804   1.651  0.1782  0.2064  0.9579
  153MOL0     H20608   9.161   6.818   1.810 -0.0501  0.4300 -1.1105
  153MOL0     H20609   9.383   6.629   1.747 -2.4073 -0.6181 -1.8155
  153MOL0     H20610   9.328   6.677   1.906  3.1706  1.0948  0.3056
  153MOL0     H20611   9.394   6.919   1.824  0.8195  1.2472 -2.4484
  153MOL0     H20612   9.479   6.831   1.687 -1.4688 -0.2599 -0.7508
  153MOL0     H20613   9.581   6.695   1.894 -2.4871 -0.7972  1.0390
  153MOL0     H20614   9.544   6.826   1.997  3.9735 -2.3679  1.1008
  153MOL0     H20615   9.775   6.679   2.007 -1.9046  3.8364 -0.4741
  153MOL0     H20616  10.013   6.445   1.919 -1.9428 -0.7467  1.7594
  153MOL0     H20617  10.088   6.536   2.046  1.0557 -1.2049 -1.4680
  153MOL0     H20618   9.913   6.514   2.050 -0.1915 -0.4990  1.1009
  153MOL0     H20619  10.484   6.699   1.848 -1.2097 -0.2136 -0.4695
  153MOL0     H20620  10.708   6.631   1.735  1.0965  1.7694 -0.3321
  153MOL0     H20621  10.751   6.617   1.278  0.2912 -0.1405 -0.6069
  153MOL0     H20622  10.791   6.786   1.323 -4.7508 -0.6009  0.4362
  153MOL0     H20623  10.996   6.554   1.349  0.3843  1.3129 -0.2476
  153MOL0     H20624  10.970   6.653   1.212  1.7676 -1.5145  0.0382
  153MOL0     H20625  11.057   6.723   1.490  0.6724 -0.1251 -0.8274
  153MOL0     H20626  10.996   6.856   1.388  0.4203  1.1652 -3.1016
  153MOL0     H20627  11.246   6.688   1.348 -0.4761  0.5048  2.1192
  153MOL0     H20628  11.171   6.758   1.205  0.3134 -2.6601 -0.7051
  153MOL0     H20629  11.200   6.991   1.320  0.2283  0.0366 -0.7255
  153MOL0     H20630  11.347   6.903   1.286  1.4539  2.9766  2.6446
  153MOL0     H20631  11.198   6.881   1.539 -0.1774 -2.3789 -0.4258
  153MOL0     H20632  11.344   6.798   1.505 -1.7626 -0.1546  1.9258
  153MOL0     H20633  11.361   7.031   1.643  4.9389 -3.7241  2.0732
  153MOL0     H20634  11.345   7.094   1.469  3.4997 -0.9788 -2.0050
  153MOL0     H20635  11.562   6.900   1.567 -0.4719 -0.2736 -0.3594
  153MOL0     H20636  11.586   7.067   1.545  1.0224 -0.6681  0.5807
  153MOL0     H20637  10.552   6.708   1.352  1.2972 -2.2508  0.0588
  153MOL0     H20638  10.328   6.736   1.439 -1.5998 -2.6157  1.2708
  153MOL0     H20639  10.081   6.877   1.683 -0.2018  0.8035 -0.0515
  153MOL0     H20640   9.864   6.974   1.725 -5.6016 -1.2960  2.2307
  153MOL0     H20641   9.622   6.136   1.383  0.7417 -1.4742  1.7366
  153MOL0     H20642   9.861   6.133   1.411 -2.0508 -0.6090 -1.8576
  153MOL0     H20643  10.194   6.194   1.703 -1.1081 -1.4809 -3.4530
  153MOL0     H20644  10.441   6.204   1.770 -0.1610  0.3936  0.4539
  153MOL0     H20645  10.637   6.335   1.840 -0.1962 -1.5568 -0.2270
  153MOL0     H20646  10.641   6.168   1.793  2.1403 -1.4546 -0.5063
  153MOL0     H20647  10.872   6.187   1.695 -1.2697 -0.1719 -0.4356
  153MOL0     H20648  10.881   6.250   1.862  1.3911  1.2617 -0.3946
  153MOL0     H20649  10.869   6.471   1.792  2.5099 -0.7186  0.5316
  153MOL0     H20650  10.836   6.431   1.617 -0.9665 -1.8492 -0.0575
  153MOL0     H20651  11.090   6.346   1.770  0.9900 -0.9793 -1.0393
  153MOL0     H20652  11.058   6.509   1.701 -0.1442 -0.0478  2.8304
  153MOL0     H20653  11.085   6.267   1.350  1.0816  1.8561 -0.7621
  153MOL0     H20654  10.530   6.437   1.423 -0.0086 -0.1465 -0.4437
  153MOL0     H20655  10.278   6.439   1.361 -0.9006  0.1461  0.1103
  154MOL0     O20656   6.796  10.053  10.747 -0.5000 -0.7359  0.4828
  154MOL0     C20657   6.690  10.030  10.682  0.2658 -0.5800 -0.1545
  154MOL0     O20658   6.666   9.931  10.591 -0.7005 -0.1292 -0.2012
  154MOL0     C20659   6.772   9.858  10.550 -0.0556  0.0568 -0.5915
  154MOL0     C20660   6.763   9.722  10.553  0.3063  1.0605  0.4676
  154MOL0     C20661   6.871   9.643  10.498  1.0300 -0.0684 -0.3597
  154MOL0     C20662   6.979   9.694  10.429 -0.0031 -0.1487  0.2379
  154MOL0     O20663   7.063   9.602  10.373  0.0646 -0.6362 -0.2728
  154MOL0     C20664   7.123   9.654  10.254 -0.5724 -1.1236  0.3984
  154MOL0     C20665   7.273   9.614  10.223  0.4109  0.1659  0.4335
  154MOL0     C20666   7.385   9.681  10.297  0.8300  0.8746  0.3765
  154MOL0     C20667   7.514   9.668  10.227 -0.8277  0.3311  0.6798
  154MOL0     C20668   7.633   9.749  10.293 -0.5362 -0.1865  0.3835
  154MOL0     C20669   7.644   9.767  10.442  0.3438  0.2593 -0.1711
  154MOL0     C20670   7.716   9.888  10.486  0.1553  0.4806  0.7524
  154MOL0     C20671   7.637  10.012  10.519  0.4434  0.0774 -0.1888
  154MOL0     N20672   7.532   9.993  10.613  0.6602 -0.3290  0.1125
  154MOL0     C20673   7.395   9.983  10.588 -0.2508  0.2915 -0.7707
  154MOL0     C20674   7.353   9.957  10.711  1.4290 -1.1553  0.7686
  154MOL0     C20675   7.204   9.947  10.741 -0.1800  0.5846  0.1502
  154MOL0     C20676   7.147  10.070  10.805 -0.3718 -1.1979 -0.2307
  154MOL0     C20677   7.116  10.187  10.707  0.4950  0.3898 -0.8783
  154MOL0     C20678   7.059  10.316  10.779 -0.3300  0.2725 -0.3589
  154MOL0     O20679   7.014  10.401  10.683 -0.2491  0.9065  0.5105
  154MOL0     C20680   6.882  10.430  10.670 -0.0842  0.4170 -0.3441
  154MOL0     C20681   6.821  10.511  10.759 -0.5085  0.3140  0.1151
  154MOL0     C20682   6.683  10.556  10.753 -0.4973 -0.0048 -0.0121
  154MOL0     C20683   6.641  10.653  10.867  0.3715  0.0229  0.5309
  154MOL0     C20684   6.605  10.503  10.646 -0.6492 -0.1953 -0.2797
  154MOL0     C20685   6.454  10.533  10.625  0.3749 -0.0264  0.1642
  154MOL0     O20686   6.386  10.489  10.516  0.7134  0.4160 -0.0444
  154MOL0     C20687   6.246  10.513  10.499  0.5566 -0.7702  0.4140
  154MOL0     C20688   6.181  10.641  10.503 -0.5097  0.0025  0.3659
  154MOL0     C20689   6.046  10.658  10.470  0.4527 -0.3301  0.2556
  154MOL0     C20690   5.977  10.548  10.426  0.4265  0.6126  0.8563
  154MOL0     O20691   5.844  10.554  10.393  0.0651 -0.4115 -0.1498
  154MOL0     C20692   5.760  10.663  10.430 -0.1242 -0.1992 -0.2687
  154MOL0     C20693   5.618  10.645  10.376  0.2788  0.3846 -0.0136
  154MOL0     C20694   5.541  10.774  10.381 -0.4001 -0.4103 -0.6793
  154MOL0     C20695   5.396  10.754  10.385 -0.2204  1.3045  1.2341
  154MOL0     C20696   5.349  10.717  10.244  0.3655  0.6577  0.1667
  154MOL0     C20697   5.214  10.650  10.249  1.1383  0.4953 -0.7402
  154MOL0     C20698   5.155  10.647  10.110 -0.2300 -0.3228 -0.0722
  154MOL0     C20699   5.111  10.773  10.048 -0.3157  0.5598  0.9110
  154MOL0    Cl20700   5.003  10.742   9.899  0.3697  0.4565  0.0472
  154MOL0     C20701   6.035  10.422  10.418 -0.4241  0.0447  0.0322
  154MOL0     C20702   6.172  10.409  10.450 -0.0721 -0.3280 -0.4249
  154MOL0     O20703   6.390  10.581  10.721  0.1583 -0.1155 -0.0433
  154MOL0     C20704   6.666  10.419  10.550 -0.0753  0.7181  0.7221
  154MOL0     C20705   6.808  10.388  10.553 -0.1071 -0.5016  0.1533
  154MOL0     N20706   7.448   9.944  10.801 -0.0441  0.2668 -0.1296
  154MOL0     N20707   7.555   9.963  10.739  0.5479 -0.6393  0.3045
  154MOL0     C20708   6.998   9.837  10.436 -0.6805  0.4299 -0.6310
  154MOL0     C20709   6.895   9.913  10.498 -0.2519 -0.0803 -0.0969
  154MOL0     C20710   6.564  10.106  10.718 -0.4789  0.2546 -0.3084
  154MOL0     C20711   6.447  10.058  10.653  0.2113 -0.4537 -0.3578
  154MOL0     C20712   6.328  10.133  10.677 -0.4613 -0.2263  0.3678
  154MOL0     C20713   6.320  10.232  10.778 -0.4893 -0.2331  0.0897
  154MOL0     O20714   6.200  10.298  10.799  0.0704  0.0611 -0.6320
  154MOL0     C20715   6.176  10.378  10.915 -0.2246 -0.6204 -0.3177
  154MOL0     C20716   6.050  10.462  10.911  0.5992 -0.0368 -0.2859
  154MOL0     C20717   6.029  10.566  10.801  0.2179 -0.0231 -0.4249
  154MOL0     C20718   5.903  10.652  10.825  0.0563 -0.7629  0.0187
  154MOL0     C20719   5.781  10.581  10.784 -1.1517  0.0939 -0.4724
  154MOL0     C20720   5.672  10.537  10.760  0.0295 -0.1519  0.0307
  154MOL0     C20721   6.442  10.266  10.851 -0.1795  0.4229 -0.0557
  154MOL0     C20722   6.560  10.208  10.812  0.6443  0.4858 -0.5485
  154MOL0     H20723   6.674   9.682  10.599  0.0067 -0.9001 -1.6324
  154MOL0     H20724   6.852   9.536  10.496  2.0612 -0.3258  1.4950
  154MOL0     H20725   7.057   9.604  10.183  0.5884 -1.1207 -0.7070
  154MOL0     H20726   7.101   9.758  10.230  4.0680 -0.0318 -0.0356
  154MOL0     H20727   7.287   9.508  10.245 -1.5492 -0.8579 -2.5665
  154MOL0     H20728   7.283   9.631  10.115  1.3222 -0.4107  0.4191
  154MOL0     H20729   7.358   9.785  10.318  0.1444  0.6686  0.5627
  154MOL0     H20730   7.396   9.625  10.391  0.4675  0.9261  0.4506
  154MOL0     H20731   7.540   9.563  10.239 -2.0765  0.1957  2.7240
  154MOL0     H20732   7.496   9.697  10.123 -0.0020 -1.8580 -0.1268
  154MOL0     H20733   7.735   9.724  10.260 -0.7176 -2.8855  1.6227
  154MOL0     H20734   7.625   9.851  10.256 -3.9242 -0.6853 -0.5510
  154MOL0     H20735   7.543   9.770  10.482 -0.8236  1.4892 -2.9930
  154MOL0     H20736   7.711   9.684  10.468  0.5307 -0.2041 -1.9772
  154MOL0     H20737   7.772   9.866  10.577  2.5030 -1.6006 -1.0517
  154MOL0     H20738   7.794   9.909  10.412  0.4500  0.0903  0.9510
  154MOL0     H20739   7.594  10.057  10.429  0.1865  1.9716  0.8329
  154MOL0     H20740   7.709  10.086  10.555  0.4639  0.0533 -0.1807
  154MOL0     H20741   7.347   9.994  10.491 -1.4917 -2.0991 -0.5033
  154MOL0     H20742   7.147   9.919  10.652  1.3498 -1.9753 -0.1391
  154MOL0     H20743   7.191   9.860  10.806 -1.2445 -0.3120 -1.2134
  154MOL0     H20744   7.206  10.102  10.891 -0.9634  0.9181 -0.5557
  154MOL0     H20745   7.052  10.035  10.846 -1.1392 -1.8233 -2.3766
  154MOL0     H20746   7.043  10.144  10.638 -2.7172  0.7559  2.0322
  154MOL0     H20747   7.203  10.214  10.647 -0.9985 -1.6471 -4.2498
  154MOL0     H20748   7.146  10.369  10.819 -1.4314  1.2300  0.8368
  154MOL0     H20749   6.986  10.294  10.857  1.7759  0.1133  1.6763
  154MOL0     H20750   6.867  10.545  10.851 -2.7360 -0.4301  1.6017
  154MOL0     H20751   6.542  10.626  10.904  0.1933 -1.5681 -0.9497
  154MOL0     H20752   6.718  10.649  10.945 -1.3266 -0.0898  2.2771
  154MOL0     H20753   6.638  10.756  10.832  0.1161  0.5353  1.9946
  154MOL0     H20754   6.231  10.732  10.536 -0.9325 -0.3023  1.9658
  154MOL0     H20755   6.002  10.756  10.486  1.9814  0.1973  1.5249
  154MOL0     H20756   5.755  10.679  10.538  4.1645  1.6627 -0.1328
  154MOL0     H20757   5.804  10.754  10.388 -0.1034 -0.7652 -1.5106
  154MOL0     H20758   5.637  10.608  10.275  1.5383 -0.4472  0.5016
  154MOL0     H20759   5.576  10.575  10.449  0.9029  2.0958  2.1201
  154MOL0     H20760   5.567  10.828  10.290  3.3320 -3.0372 -1.3875
  154MOL0     H20761   5.579  10.835  10.463 -1.0403 -1.6063  0.5569
  154MOL0     H20762   5.371  10.670  10.451  1.2037  0.4340  0.7178
  154MOL0     H20763   5.336  10.834  10.427  0.1092  1.2755  1.7798
  154MOL0     H20764   5.416  10.644  10.196 -1.7999 -1.0139 -0.5003
  154MOL0     H20765   5.334  10.810  10.190 -1.4818  0.9477  1.1083
  154MOL0     H20766   5.212  10.553  10.299  1.2041  1.3028  0.8689
  154MOL0     H20767   5.145  10.706  10.313 -0.3545  1.3027 -2.9029
  154MOL0     H20768   5.062  10.589  10.113  0.5126 -1.4964  1.4383
  154MOL0     H20769   5.224  10.602  10.039 -0.8256  1.3513 -1.7961
  154MOL0     H20770   5.190  10.838  10.009 -1.5240  1.4892 -0.0845
  154MOL0     H20771   5.053  10.828  10.122 -1.1293  2.5040 -1.0502
  154MOL0     H20772   5.978  10.332  10.398  0.0933 -0.8614  2.3692
  154MOL0     H20773   6.211  10.309  10.432  1.6528 -0.0214  1.2881
  154MOL0     H20774   6.605  10.391  10.465  2.1603 -0.9710 -0.4682
  154MOL0     H20775   6.853  10.335  10.470  0.9661  3.7919 -2.3004
  154MOL0     H20776   7.094   9.880  10.411  0.1541  0.2309  2.0342
  154MOL0     H20777   6.896  10.022  10.508 -1.3821 -0.1701  1.3699
  154MOL0     H20778   6.452   9.981  10.576 -0.6384  0.2382 -1.1210
  154MOL0     H20779   6.238  10.116  10.619 -0.5516 -1.8472  0.9274
  154MOL0     H20780   6.182  10.326  11.011  1.3224  1.6313  0.8798
  154MOL0     H20781   6.252  10.457  10.920 -0.9347 -0.0050  3.1933
  154MOL0     H20782   6.040  10.524  11.001  0.3211  0.5547 -0.7122
  154MOL0     H20783   5.959  10.401  10.911 -0.1493  1.0275 -1.5088
  154MOL0     H20784   6.023  10.517  10.703 -2.2575 -0.8237  0.0479
  154MOL0     H20785   6.116  10.632  10.803 -0.5555  1.0105  1.1368
  154MOL0     H20786   5.902  10.742  10.763 -1.0007 -1.1307 -0.5190
  154MOL0     H20787   5.901  10.691  10.927  2.1133 -1.6793  0.4749
  154MOL0     H20788   5.573  10.502  10.738  0.0688 -2.2054  2.6128
  154MOL0     H20789   6.434  10.341  10.929 -0.8652 -1.5721  1.9260
  154MOL0     H20790   6.644  10.236  10.875  1.3462  0.9465 -1.6454
  155MOL0     O20791   0.039   9.263   4.981  0.5381  0.4359 -0.2704
  155MOL0     C20792   0.117   9.187   5.032 -0.2110  0.6982 -0.9154
  155MOL0     O20793   0.087   9.098   5.136  0.4024 -0.2637  0.6782
  155MOL0     C20794  -0.045   9.088   5.181 -0.5716 -0.1495  1.2573
  155MOL0     C20795  -0.119   8.993   5.107  0.4234 -1.7775 -0.0942
  155MOL0     C20796  -0.253   8.974   5.143 -0.7967 -0.7992 -0.0635
  155MOL0     C20797  -0.319   9.048   5.239 -0.6003 -0.3857 -0.0294
  155MOL0     O20798  -0.449   9.020   5.264  0.4410 -0.8201  0.0898
  155MOL0     C20799  -0.542   9.119   5.301  1.6178  0.4437 -0.1648
  155MOL0     C20800  -0.688   9.069   5.282 -0.4149  0.2644  0.2934
  155MOL0     C20801  -0.796   9.158   5.344  0.6728  0.5175  0.4457
  155MOL0     C20802  -0.922   9.072   5.382  0.2403 -0.3513  0.3776
  155MOL0     C20803  -1.000   9.014   5.265  0.9434  0.3202 -0.1663
  155MOL0     C20804  -1.130   8.944   5.313 -0.0019 -0.2769  0.1690
  155MOL0     C20805  -1.223   8.911   5.201 -0.1718  0.8914  0.6900
  155MOL0     C20806  -1.167   8.829   5.086  1.1607  0.3505 -0.0475
  155MOL0     N20807  -1.104   8.701   5.113 -0.9822 -0.0545 -0.1375
  155MOL0     C20808  -0.966   8.672   5.090  0.3174 -0.2183  0.6418
  155MOL0     C20809  -0.954   8.548   5.146  0.0911 -0.7177 -0.2558
  155MOL0     C20810  -0.819   8.492   5.152 -0.8348  0.4553 -0.2329
  155MOL0     C20811  -0.750   8.558   5.274  0.1428  0.5785  0.7327
  155MOL0     C20812  -0.596   8.553   5.276  0.1405 -0.8240 -0.0013
  155MOL0     C20813  -0.531   8.623   5.153 -0.7946  0.5198  0.4454
  155MOL0     O20814  -0.391   8.645   5.178  0.3807  0.3607 -0.1049
  155MOL0     C20815  -0.296   8.550   5.145  0.4519 -0.4378 -0.1112
  155MOL0     C20816  -0.171   8.592   5.180 -0.1279 -0.2552  0.2663
  155MOL0     C20817  -0.056   8.517   5.142  0.7668  0.1794  1.1637
  155MOL0     C20818   0.076   8.556   5.193  0.1342  0.2134  0.0516
  155MOL0     C20819  -0.076   8.379   5.093  0.4588  0.0516 -0.1379
  155MOL0     C20820   0.035   8.284   5.085 -0.5500  0.7490  0.2692
  155MOL0     O20821   0.019   8.157   5.139 -0.2818 -0.3928  0.5748
  155MOL0     C20822   0.126   8.066   5.113 -0.1916 -0.1508 -1.5245
  155MOL0     C20823   0.164   8.042   4.986  0.2724 -0.1716 -0.1791
  155MOL0     C20824   0.278   7.966   4.964  0.0728 -0.2102 -0.5666
  155MOL0     C20825   0.351   7.901   5.069 -1.2728  0.4407  0.1221
  155MOL0     O20826   0.454   7.812   5.061  0.7088  0.2639 -0.4878
  155MOL0     C20827   0.529   7.790   4.945 -0.3385 -0.9478  0.9700
  155MOL0     C20828   0.656   7.879   4.974  0.0153  0.3425 -0.1002
  155MOL0     C20829   0.654   8.028   4.944 -0.2532 -0.5671 -0.1778
  155MOL0     C20830   0.795   8.091   4.975  0.1281 -0.1666  0.1047
  155MOL0     C20831   0.783   8.247   4.988  0.0381  0.9003 -0.0714
  155MOL0     C20832   0.920   8.312   4.963  0.1198 -0.5615  0.5097
  155MOL0     C20833   0.934   8.471   4.967 -0.0465 -0.1339  0.2172
  155MOL0     C20834   1.086   8.483   4.986 -0.0078 -0.7486  0.5966
  155MOL0    Cl20835   1.190   8.399   4.868  0.1726  0.0012 -0.4473
  155MOL0     C20836   0.308   7.936   5.200  0.0924  0.3381 -0.0874
  155MOL0     C20837   0.199   8.015   5.219 -0.7155 -0.3349 -0.8200
  155MOL0     O20838   0.144   8.318   5.033  0.5188  0.2788  0.0759
  155MOL0     C20839  -0.202   8.343   5.058  0.5162 -0.6183  0.3123
  155MOL0     C20840  -0.310   8.429   5.083 -0.6319  0.1796 -0.2448
  155MOL0     N20841  -1.077   8.504   5.199  1.0334 -0.8136 -0.1612
  155MOL0     N20842  -1.164   8.595   5.177 -0.1688 -0.8007 -0.1597
  155MOL0     C20843  -0.244   9.148   5.310 -0.3118  0.9202 -0.4963
  155MOL0     C20844  -0.102   9.162   5.286  0.4697  0.0046  0.1871
  155MOL0     C20845   0.255   9.186   4.965 -0.3436  0.2840  0.6077
  155MOL0     C20846   0.359   9.120   5.022  0.2202  0.3694 -0.3024
  155MOL0     C20847   0.487   9.121   4.976  0.1120  0.5189 -0.6517
  155MOL0     C20848   0.519   9.191   4.862  1.1428 -0.3197 -0.2360
  155MOL0     O20849   0.650   9.187   4.809  0.4136 -0.0498 -1.0726
  155MOL0     C20850   0.710   9.315   4.787  0.4236 -0.0161 -0.2792
  155MOL0     C20851   0.789   9.304   4.660  0.0018  0.3708  1.0607
  155MOL0     C20852   0.918   9.225   4.675  0.0528  0.1685  0.0633
  155MOL0     C20853   0.990   9.219   4.543  0.3263  0.0153  0.5043
  155MOL0     C20854   1.130   9.166   4.560  0.1341  0.0017  0.3513
  155MOL0     C20855   1.256   9.154   4.556 -0.0063 -0.2610  0.1622
  155MOL0     C20856   0.418   9.262   4.803  0.5824 -0.0677  0.9302
  155MOL0     C20857   0.287   9.253   4.852 -0.3640 -0.5238  1.0229
  155MOL0     H20858  -0.067   8.934   5.032  0.6727 -0.0952 -1.2979
  155MOL0     H20859  -0.310   8.902   5.084 -0.1287 -0.0596 -1.6717
  155MOL0     H20860  -0.532   9.137   5.409 -3.1338  1.4316  0.3197
  155MOL0     H20861  -0.529   9.213   5.247  0.7157 -0.5557 -2.1974
  155MOL0     H20862  -0.706   9.048   5.176  0.8921 -1.4717  0.3759
  155MOL0     H20863  -0.697   8.976   5.339  3.9982  0.1621  1.2311
  155MOL0     H20864  -0.759   9.195   5.440  1.9308 -0.6942  0.4537
  155MOL0     H20865  -0.823   9.245   5.283  0.7564 -0.8893 -1.7280
  155MOL0     H20866  -0.887   8.988   5.443 -1.1759  0.5344  2.5481
  155MOL0     H20867  -0.988   9.129   5.449  0.9586  3.5675 -1.9258
  155MOL0     H20868  -1.027   9.086   5.188  0.0984 -0.1255 -0.2935
  155MOL0     H20869  -0.927   8.944   5.223 -1.5365 -1.4204 -1.8359
  155MOL0     H20870  -1.115   8.850   5.366 -0.6983  0.0399  0.9578
  155MOL0     H20871  -1.180   9.004   5.390 -1.2501 -0.5504 -0.4074
  155MOL0     H20872  -1.309   8.865   5.250 -0.0773  0.9149  0.8810
  155MOL0     H20873  -1.266   8.999   5.152 -1.3325  0.2136  0.4474
  155MOL0     H20874  -1.098   8.890   5.027  0.7223  1.2696  0.3776
  155MOL0     H20875  -1.258   8.809   5.028  1.2612 -2.1224  0.5549
  155MOL0     H20876  -0.888   8.742   5.065  0.1308 -0.2518 -0.0433
  155MOL0     H20877  -0.817   8.382   5.157  0.4200  0.4621 -0.0967
  155MOL0     H20878  -0.764   8.516   5.060 -0.3754  1.2861  0.2475
  155MOL0     H20879  -0.777   8.501   5.364  0.6761 -2.0358 -0.6612
  155MOL0     H20880  -0.779   8.663   5.278 -0.3559  0.4931 -0.2373
  155MOL0     H20881  -0.569   8.448   5.289 -2.4152 -1.2586  3.0218
  155MOL0     H20882  -0.557   8.602   5.366  1.7052 -1.1067 -0.5003
  155MOL0     H20883  -0.571   8.724   5.141  0.5668  1.0637  0.3530
  155MOL0     H20884  -0.545   8.557   5.067  0.9438 -0.5803  0.9494
  155MOL0     H20885  -0.160   8.693   5.220 -2.0132  1.9672 -4.1571
  155MOL0     H20886   0.089   8.658   5.231  0.7170  0.0822  0.2221
  155MOL0     H20887   0.118   8.489   5.268  1.9598  1.2148 -0.0180
  155MOL0     H20888   0.130   8.560   5.098 -0.8399 -0.1113 -0.5336
  155MOL0     H20889   0.105   8.084   4.905  0.1972  0.3945  0.1671
  155MOL0     H20890   0.315   7.946   4.864  0.2809 -1.5101 -0.2499
  155MOL0     H20891   0.549   7.683   4.937 -1.2868 -1.0839  0.1102
  155MOL0     H20892   0.480   7.822   4.852  4.6926  1.8320 -1.1224
  155MOL0     H20893   0.681   7.870   5.080 -0.1283  0.5471 -0.0487
  155MOL0     H20894   0.738   7.839   4.913  0.6885  1.0167  0.3369
  155MOL0     H20895   0.582   8.075   5.012  1.2483 -0.1953  1.2155
  155MOL0     H20896   0.626   8.055   4.842 -1.0639  3.4338  0.9524
  155MOL0     H20897   0.846   8.055   5.065  0.2079  1.7914  0.8926
  155MOL0     H20898   0.868   8.081   4.894 -1.3046 -2.8159 -0.9875
  155MOL0     H20899   0.745   8.269   5.088 -0.9563 -3.8471  0.8349
  155MOL0     H20900   0.712   8.279   4.911 -1.1110 -1.2798 -0.0063
  155MOL0     H20901   0.983   8.263   5.038 -0.0176 -1.4356  0.0613
  155MOL0     H20902   0.945   8.285   4.860 -3.1490 -0.0648 -0.5174
  155MOL0     H20903   0.891   8.507   5.060 -1.9523 -2.7075  0.4385
  155MOL0     H20904   0.893   8.522   4.879  0.4448 -0.1321 -0.0110
  155MOL0     H20905   1.127   8.433   5.075 -1.3322 -0.2542  1.5013
  155MOL0     H20906   1.115   8.588   4.989 -0.4549 -0.6347  2.4787
  155MOL0     H20907   0.354   7.894   5.290 -4.6084 -0.5089  2.2194
  155MOL0     H20908   0.158   8.040   5.317 -0.0922  5.4700 -1.7231
  155MOL0     H20909  -0.219   8.245   5.014 -0.2411  0.0259 -0.9168
  155MOL0     H20910  -0.404   8.398   5.038 -1.0005  1.2545 -0.2294
  155MOL0     H20911  -0.295   9.212   5.381  0.4840  0.3497  0.6242
  155MOL0     H20912  -0.042   9.241   5.327  1.6085 -0.6609 -0.1601
  155MOL0     H20913   0.347   9.058   5.111 -2.1875  1.2072  0.0376
  155MOL0     H20914   0.561   9.061   5.028  2.0270  0.1511 -3.5523
  155MOL0     H20915   0.627   9.385   4.773 -0.6175 -1.7134 -3.9546
  155MOL0     H20916   0.778   9.342   4.868  0.2555 -0.7567  0.1193
  155MOL0     H20917   0.810   9.404   4.619 -1.4081 -0.0549 -0.8307
  155MOL0     H20918   0.721   9.257   4.589  0.6465 -0.5317  1.0215
  155MOL0     H20919   0.880   9.126   4.704  0.5128  0.0238  0.1719
  155MOL0     H20920   0.979   9.273   4.751 -1.4180 -2.2210  2.9713
  155MOL0     H20921   1.003   9.317   4.497 -0.9647 -0.1293 -0.2265
  155MOL0     H20922   0.924   9.147   4.492 -2.9520  0.7658  3.2893
  155MOL0     H20923   1.361   9.149   4.539 -0.0760 -1.8718  0.0469
  155MOL0     H20924   0.433   9.312   4.708 -1.1350 -1.4738 -0.1454
  155MOL0     H20925   0.209   9.304   4.796 -2.3194 -2.1645  2.0765
  156MOL0     O20926   5.375   6.204   4.416 -0.0279 -0.2466 -0.2047
  156MOL0     C20927   5.280   6.150   4.485 -0.5632  1.1313  0.7898
  156MOL0     O20928   5.218   6.033   4.457  0.4950  0.1613  0.7072
  156MOL0     C20929   5.239   5.976   4.334  0.5243  0.0738  0.0168
  156MOL0     C20930   5.190   6.039   4.222  0.6372  0.0120 -0.5952
  156MOL0     C20931   5.187   5.975   4.095  0.0160  0.6558 -0.1704
  156MOL0     C20932   5.246   5.843   4.083 -0.6118  0.0807  0.0770
  156MOL0     O20933   5.261   5.780   3.963 -0.1204  0.1560 -0.4769
  156MOL0     C20934   5.350   5.654   3.951  0.3413 -0.4894 -0.5595
  156MOL0     C20935   5.359   5.609   3.813  0.7853  0.2118  0.6753
  156MOL0     C20936   5.216   5.564   3.766  0.1430 -0.2644 -0.2213
  156MOL0     C20937   5.214   5.533   3.614  0.0986  0.6688  0.1994
  156MOL0     C20938   5.088   5.479   3.554 -0.1318 -0.0114  0.2135
  156MOL0     C20939   4.988   5.591   3.542 -0.2637  0.5434 -0.5217
  156MOL0     C20940   4.871   5.547   3.446 -0.8420 -0.0490  0.1297
  156MOL0     C20941   4.901   5.538   3.294  0.6197  0.2062 -0.6040
  156MOL0     N20942   4.876   5.403   3.242  0.2515  0.3233  0.3158
  156MOL0     C20943   4.952   5.292   3.258 -1.5831  0.0583  0.2115
  156MOL0     C20944   4.896   5.198   3.175 -0.3113 -0.2576 -0.4150
  156MOL0     C20945   4.951   5.062   3.146  0.7373  0.3595 -0.6623
  156MOL0     C20946   4.863   4.953   3.215  0.1002 -0.3670  0.5489
  156MOL0     C20947   4.730   4.923   3.138 -0.7669 -1.4714  1.2012
  156MOL0     C20948   4.741   4.923   2.980 -0.0312  0.9933 -0.3285
  156MOL0     O20949   4.639   4.844   2.921 -0.4575  0.2513 -0.2169
  156MOL0     C20950   4.518   4.883   2.872  0.1456  0.6057 -0.2257
  156MOL0     C20951   4.477   5.022   2.852 -0.4560  0.0495  1.1232
  156MOL0     C20952   4.357   5.053   2.783 -0.7143 -0.9743  0.3692
  156MOL0     C20953   4.336   5.197   2.736  0.9743 -0.9873  0.3444
  156MOL0     C20954   4.267   4.942   2.755 -0.0794 -0.6090  0.0600
  156MOL0     C20955   4.132   4.947   2.682 -0.6656 -0.0166  0.2016
  156MOL0     O20956   4.020   4.904   2.752 -0.1238 -0.0012 -0.5638
  156MOL0     C20957   3.908   4.888   2.682 -0.3254  0.6813  0.7408
  156MOL0     C20958   3.891   4.776   2.598 -0.6472 -0.4787 -0.1127
  156MOL0     C20959   3.774   4.753   2.524  0.0924 -0.2105 -1.0768
  156MOL0     C20960   3.659   4.837   2.546 -0.1933  0.1810 -0.2848
  156MOL0     O20961   3.547   4.818   2.465  0.3035  0.3398 -0.0625
  156MOL0     C20962   3.420   4.865   2.510 -0.3177 -0.4541  1.0586
  156MOL0     C20963   3.308   4.808   2.420 -0.1227  0.3918 -1.1693
  156MOL0     C20964   3.259   4.670   2.474  0.2153 -0.7350  0.2182
  156MOL0     C20965   3.129   4.629   2.405 -0.1331  0.1559 -0.6125
  156MOL0     C20966   3.104   4.477   2.431  0.6550  0.6635  0.4345
  156MOL0     C20967   3.050   4.390   2.310 -0.7237  0.9370 -0.2839
  156MOL0     C20968   2.922   4.451   2.250 -0.1900 -0.1445  0.5596
  156MOL0     C20969   2.838   4.365   2.164  0.0306  0.8815  0.6922
  156MOL0    Cl20970   2.743   4.468   2.055  0.0130 -0.1874  0.3548
  156MOL0     C20971   3.678   4.945   2.623 -0.4271  0.0393 -0.2304
  156MOL0     C20972   3.799   4.973   2.690  0.6934  0.2466  0.0530
  156MOL0     O20973   4.141   4.981   2.564  0.4278  0.0584  0.1789
  156MOL0     C20974   4.292   4.822   2.809  0.6873  0.3139 -0.2220
  156MOL0     C20975   4.415   4.782   2.855 -0.3406 -0.5093  0.0649
  156MOL0     N20976   4.797   5.264   3.099 -0.1720  1.2101 -0.2814
  156MOL0     N20977   4.782   5.385   3.140 -1.0268  0.5783 -0.0544
  156MOL0     C20978   5.285   5.771   4.205  0.3346  0.0226  0.2295
  156MOL0     C20979   5.276   5.838   4.326  0.5463  0.6866  0.8637
  156MOL0     C20980   5.237   6.202   4.616 -0.7789 -0.1442  0.5119
  156MOL0     C20981   5.322   6.287   4.680 -0.8249  0.4671 -0.4991
  156MOL0     C20982   5.284   6.337   4.808  0.1234  0.1945 -0.2607
  156MOL0     C20983   5.170   6.285   4.871 -1.1972 -0.4876  1.1817
  156MOL0     O20984   5.155   6.324   5.007  0.9489  0.2881  0.6753
  156MOL0     C20985   5.034   6.404   5.003 -0.7726 -0.8980 -0.3913
  156MOL0     C20986   5.006   6.486   5.128 -0.0901  0.3339 -0.1422
  156MOL0     C20987   5.085   6.621   5.125  0.0601 -1.0363 -0.7166
  156MOL0     C20988   5.015   6.736   5.200 -0.0708 -1.1569 -0.2247
  156MOL0     C20989   5.082   6.867   5.170 -0.9201  0.8140  0.0059
  156MOL0     C20990   5.127   6.974   5.155 -0.7442 -0.3962  0.1810
  156MOL0     C20991   5.085   6.203   4.801  0.8311  0.1950  0.4650
  156MOL0     C20992   5.120   6.164   4.675  0.3524  0.6370 -0.8042
  156MOL0     H20993   5.158   6.142   4.235  2.6319  0.5347  0.5617
  156MOL0     H20994   5.139   6.035   4.018 -2.6687  1.0892  1.6791
  156MOL0     H20995   5.449   5.682   3.987  0.1779 -0.3522 -0.2154
  156MOL0     H20996   5.312   5.575   4.016  0.7727  0.0512  0.3790
  156MOL0     H20997   5.386   5.692   3.747 -1.9267  1.2092  0.6901
  156MOL0     H20998   5.430   5.526   3.812 -1.1419 -1.5198  1.1255
  156MOL0     H20999   5.179   5.481   3.827 -0.0033 -0.1938 -0.2137
  156MOL0     H21000   5.141   5.638   3.797  0.0337 -0.7460  0.7043
  156MOL0     H21001   5.244   5.625   3.563  0.6704 -0.1139 -0.9154
  156MOL0     H21002   5.298   5.466   3.591  0.6143  1.3927 -0.0873
  156MOL0     H21003   5.125   5.446   3.457  2.2364 -1.1042  1.3944
  156MOL0     H21004   5.035   5.403   3.613  0.5892 -0.2879  0.5202
  156MOL0     H21005   4.950   5.612   3.642 -0.4597 -4.9669  0.9131
  156MOL0     H21006   5.036   5.675   3.490  3.2817 -2.9329 -3.5484
  156MOL0     H21007   4.833   5.451   3.483  0.2119 -2.6086 -4.6617
  156MOL0     H21008   4.783   5.607   3.471  0.7543  1.4225  2.7767
  156MOL0     H21009   5.004   5.572   3.289  0.9330 -0.5636  0.3441
  156MOL0     H21010   4.839   5.608   3.237  0.8444  0.2894 -0.7464
  156MOL0     H21011   5.043   5.278   3.315 -0.7685 -0.3071 -1.1422
  156MOL0     H21012   4.948   5.048   3.037 -2.8992 -0.7416 -0.5614
  156MOL0     H21013   5.050   5.053   3.192  0.5581  0.7025 -0.2051
  156MOL0     H21014   4.832   4.989   3.314  1.3070  2.3528  0.0354
  156MOL0     H21015   4.939   4.874   3.219  1.8264  1.2418  0.9141
  156MOL0     H21016   4.659   5.006   3.152  0.7650  0.1198  0.0098
  156MOL0     H21017   4.682   4.835   3.182 -1.8932 -1.6141 -0.2448
  156MOL0     H21018   4.838   4.884   2.948  0.3426  2.5340 -1.1438
  156MOL0     H21019   4.746   5.027   2.948  2.1755  1.7654  2.2043
  156MOL0     H21020   4.539   5.110   2.866  0.3256 -0.3757  0.4420
  156MOL0     H21021   4.422   5.242   2.685 -0.0037 -0.0674 -0.5583
  156MOL0     H21022   4.248   5.218   2.674  1.2236  1.5177  0.7358
  156MOL0     H21023   4.319   5.262   2.823 -2.2790  0.5007 -1.2259
  156MOL0     H21024   3.966   4.700   2.583 -1.0806 -0.7809 -0.8433
  156MOL0     H21025   3.760   4.668   2.458  0.4538 -3.0839  2.2437
  156MOL0     H21026   3.395   4.843   2.614  0.8084  3.5200  2.3692
  156MOL0     H21027   3.424   4.974   2.504  2.2677 -0.5462 -2.4537
  156MOL0     H21028   3.227   4.880   2.434 -0.1073 -0.2346  3.6572
  156MOL0     H21029   3.345   4.799   2.317  1.2196  0.8338 -0.7341
  156MOL0     H21030   3.246   4.678   2.583  2.5859  5.6413  0.4647
  156MOL0     H21031   3.335   4.600   2.439  0.2299 -0.2406 -0.7896
  156MOL0     H21032   3.037   4.681   2.432 -0.3018 -0.5952  0.3121
  156MOL0     H21033   3.146   4.641   2.298 -0.8459 -1.4621 -0.9284
  156MOL0     H21034   3.034   4.470   2.514  0.2595  1.3301  0.1686
  156MOL0     H21035   3.198   4.432   2.463  2.0056  3.2510  0.3429
  156MOL0     H21036   3.125   4.363   2.235 -0.3374  0.8490  0.1315
  156MOL0     H21037   3.012   4.296   2.352 -0.0730  1.1253  0.7463
  156MOL0     H21038   2.947   4.542   2.196  3.1681 -1.5649 -0.5377
  156MOL0     H21039   2.854   4.489   2.327  0.8237  0.0852  1.3676
  156MOL0     H21040   2.769   4.300   2.219 -3.2129  2.1151 -1.5936
  156MOL0     H21041   2.911   4.308   2.105  0.4912  3.1956 -1.1293
  156MOL0     H21042   3.590   5.008   2.636 -1.1257 -0.8919 -0.2821
  156MOL0     H21043   3.805   5.062   2.752 -0.1356 -0.3434  1.0074
  156MOL0     H21044   4.217   4.744   2.810  2.6645 -1.6958 -0.4854
  156MOL0     H21045   4.432   4.684   2.899  4.1685  0.4273  0.8813
  156MOL0     H21046   5.328   5.671   4.203 -1.4291 -0.8740  2.4604
  156MOL0     H21047   5.278   5.780   4.417 -3.2498  0.9316  1.2879
  156MOL0     H21048   5.420   6.304   4.636  0.8266 -1.4154  2.1188
  156MOL0     H21049   5.348   6.409   4.857 -0.9027 -0.4879  2.2518
  156MOL0     H21050   5.031   6.468   4.914  0.1158 -0.8861 -0.4175
  156MOL0     H21051   4.945   6.342   4.987 -1.8762  0.9771 -2.0496
  156MOL0     H21052   5.030   6.429   5.219  1.6619  2.4967  0.8397
  156MOL0     H21053   4.900   6.509   5.132 -0.0389  1.2474 -2.4538
  156MOL0     H21054   5.094   6.653   5.021  0.6870 -0.8196 -0.5960
  156MOL0     H21055   5.188   6.620   5.161 -0.3056  3.1075  1.0570
  156MOL0     H21056   5.006   6.730   5.308  1.4895 -0.7635 -0.0600
  156MOL0     H21057   4.911   6.740   5.163  0.1755  0.4258 -0.8634
  156MOL0     H21058   5.167   7.073   5.146 -0.4794 -0.6765 -3.4478
  156MOL0     H21059   4.993   6.155   4.834  0.2890  0.3085 -0.8248
  156MOL0     H21060   5.051   6.091   4.635  2.0117 -1.9421  0.6994
  157MOL0     O21061   5.389   2.543   9.085 -0.4014  0.6890  0.2727
  157MOL0     C21062   5.371   2.516   9.206  0.4953 -0.4883  0.0574
  157MOL0     O21063   5.246   2.517   9.270  0.0698  0.7960  0.5328
  157MOL0     C21064   5.137   2.588   9.233 -0.1569 -0.4506 -1.1730
  157MOL0     C21065   5.014   2.540   9.279 -0.1346  0.0979 -0.4059
  157MOL0     C21066   4.895   2.597   9.230  1.7518  0.0530  0.3889
  157MOL0     C21067   4.893   2.698   9.139 -0.2093  0.4542 -0.1857
  157MOL0     O21068   4.775   2.742   9.095 -0.0389  0.2152  0.1137
  157MOL0     C21069   4.762   2.888   9.074 -0.0710 -0.0038  0.2010
  157MOL0     C21070   4.700   2.939   8.947  0.6899  0.6194 -0.5140
  157MOL0     C21071   4.703   3.087   8.929 -0.0259  0.0448  0.2926
  157MOL0     C21072   4.579   3.160   8.860  0.5049 -0.3487  0.4353
  157MOL0     C21073   4.540   3.103   8.725 -0.0611  0.4027 -0.2406
  157MOL0     C21074   4.423   3.165   8.672  0.6349  0.5673 -0.1002
  157MOL0     C21075   4.393   3.138   8.520  0.1610  0.4705 -0.2764
  157MOL0     C21076   4.389   3.263   8.432  0.0974  0.3238  0.3318
  157MOL0     N21077   4.270   3.350   8.469 -0.2720  0.2182  0.8582
  157MOL0     C21078   4.146   3.309   8.494 -0.5166 -0.4663  0.6947
  157MOL0     C21079   4.074   3.408   8.543 -0.5369 -0.3759 -0.0347
  157MOL0     C21080   3.934   3.388   8.599 -0.2023 -0.0742  0.5549
  157MOL0     C21081   3.864   3.521   8.619  0.1729  0.3300  1.1209
  157MOL0     C21082   3.727   3.508   8.685  0.2152 -0.3161 -0.4346
  157MOL0     C21083   3.615   3.450   8.600 -0.4138  0.8831  0.0833
  157MOL0     O21084   3.485   3.498   8.654  0.2821  0.4651 -0.4269
  157MOL0     C21085   3.376   3.445   8.594  0.1906 -0.3499  0.5766
  157MOL0     C21086   3.371   3.365   8.481 -0.7476  0.4216  0.0080
  157MOL0     C21087   3.249   3.343   8.416 -0.3420  0.6846 -0.7326
  157MOL0     C21088   3.256   3.268   8.283 -0.2670  0.3562 -0.2487
  157MOL0     C21089   3.126   3.390   8.469 -1.1065  0.7103  0.6571
  157MOL0     C21090   2.995   3.375   8.402  0.6799 -0.8469  0.2559
  157MOL0     O21091   2.897   3.459   8.427  0.2075  0.0897 -0.2907
  157MOL0     C21092   2.771   3.423   8.379  0.8365 -0.0450 -0.5726
  157MOL0     C21093   2.705   3.504   8.283 -0.2159 -0.5207  0.0238
  157MOL0     C21094   2.577   3.468   8.236  0.3083  0.1715 -0.2160
  157MOL0     C21095   2.509   3.352   8.279 -0.4068 -0.2075  0.8779
  157MOL0     O21096   2.382   3.337   8.232  0.3712  1.1058 -0.1893
  157MOL0     C21097   2.313   3.217   8.268  0.3662 -0.2644 -0.3355
  157MOL0     C21098   2.167   3.223   8.218 -0.2286  0.8042 -0.4611
  157MOL0     C21099   2.085   3.113   8.288  0.2452  0.0108 -1.6505
  157MOL0     C21100   1.992   3.182   8.401  0.3176 -0.9558  0.9177
  157MOL0     C21101   1.867   3.095   8.443 -0.1426 -0.8539  0.9230
  157MOL0     C21102   1.793   3.167   8.554 -0.0826  0.1604 -0.7139
  157MOL0     C21103   1.658   3.108   8.575 -0.8003 -0.1637 -0.5847
  157MOL0     C21104   1.653   2.984   8.668  0.0427  0.1279  0.1928
  157MOL0    Cl21105   1.478   2.966   8.713  0.2846  0.6334 -0.2887
  157MOL0     C21106   2.571   3.277   8.377 -0.5126  0.2061 -0.4985
  157MOL0     C21107   2.702   3.314   8.435 -1.0347 -0.3044  0.2907
  157MOL0     O21108   2.978   3.270   8.342 -0.6814  0.0525  0.8388
  157MOL0     C21109   3.132   3.461   8.590 -0.3898  0.3429 -0.1260
  157MOL0     C21110   3.255   3.489   8.652 -0.1622 -0.0790 -0.2236
  157MOL0     N21111   4.159   3.523   8.552  0.5409  0.2838  0.1418
  157MOL0     N21112   4.275   3.475   8.515  0.6213  0.2217 -0.1242
  157MOL0     C21113   5.007   2.747   9.094 -0.0707 -0.6274 -0.5733
  157MOL0     C21114   5.128   2.696   9.147  0.1243  0.3361 -0.2841
  157MOL0     C21115   5.477   2.438   9.277  0.7998  0.7932 -0.3126
  157MOL0     C21116   5.600   2.430   9.228  0.3035  0.1699 -0.7546
  157MOL0     C21117   5.704   2.356   9.285 -0.6702  0.2677 -0.5143
  157MOL0     C21118   5.680   2.282   9.403 -0.1356 -1.3758  0.7929
  157MOL0     O21119   5.773   2.213   9.477 -0.1310  0.8901 -0.7196
  157MOL0     C21120   5.914   2.204   9.428  1.0554 -0.4301 -0.0574
  157MOL0     C21121   5.990   2.074   9.452  0.3035  0.0449  0.6110
  157MOL0     C21122   6.025   2.022   9.598 -0.9213  0.1490  0.6129
  157MOL0     C21123   5.895   2.009   9.684  0.3603  0.5864 -0.8132
  157MOL0     C21124   5.803   1.920   9.609  0.5598  0.1447 -0.6953
  157MOL0     C21125   5.713   1.859   9.560 -0.6573 -0.1114  0.7212
  157MOL0     C21126   5.549   2.294   9.458  0.3031  0.4115 -0.0275
  157MOL0     C21127   5.451   2.366   9.394 -0.7338  0.1458 -0.2630
  157MOL0     H21128   5.009   2.452   9.343 -0.9608  0.4229 -0.0125
  157MOL0     H21129   4.801   2.557   9.266  1.0902 -0.9908 -2.3006
  157MOL0     H21130   4.699   2.930   9.153  0.9882  3.6673 -0.7010
  157MOL0     H21131   4.858   2.939   9.083 -0.2972  0.6648 -0.9536
  157MOL0     H21132   4.751   2.892   8.863  1.0640  0.8038 -0.3927
  157MOL0     H21133   4.597   2.901   8.947  2.0535 -3.6039 -2.0167
  157MOL0     H21134   4.714   3.139   9.025 -4.0384  0.5893  0.6439
  157MOL0     H21135   4.789   3.120   8.870 -2.1694  1.5343 -2.2444
  157MOL0     H21136   4.497   3.148   8.931 -2.2105 -0.5956 -2.5247
  157MOL0     H21137   4.604   3.265   8.845  2.4748 -1.0148 -1.5241
  157MOL0     H21138   4.623   3.107   8.654  2.2722  0.9796  2.3288
  157MOL0     H21139   4.514   2.997   8.734  0.0500  0.4981  1.9580
  157MOL0     H21140   4.333   3.134   8.727 -0.8332 -0.4669 -2.8986
  157MOL0     H21141   4.444   3.273   8.672  1.3153  0.4906 -2.5383
  157MOL0     H21142   4.476   3.074   8.489 -0.6299 -1.3149  1.1001
  157MOL0     H21143   4.304   3.077   8.509  0.9876 -1.2625  1.8136
  157MOL0     H21144   4.383   3.226   8.328  0.1384 -0.9871  0.7710
  157MOL0     H21145   4.475   3.330   8.428  0.3686 -0.0147  0.3541
  157MOL0     H21146   4.112   3.211   8.463 -0.1137  0.2583 -2.2940
  157MOL0     H21147   3.877   3.331   8.525 -1.2328  3.9255 -2.0614
  157MOL0     H21148   3.938   3.325   8.688 -0.2362  0.0485  0.6444
  157MOL0     H21149   3.860   3.568   8.520  0.3480  1.0678  1.4633
  157MOL0     H21150   3.922   3.582   8.688 -0.7905  1.7277  0.7378
  157MOL0     H21151   3.684   3.606   8.711 -0.3310 -0.3548 -1.1308
  157MOL0     H21152   3.727   3.445   8.774 -0.3006 -0.4604 -0.5359
  157MOL0     H21153   3.630   3.344   8.622 -0.6126  0.7645 -0.3459
  157MOL0     H21154   3.625   3.475   8.494  0.7542 -0.8571 -0.2587
  157MOL0     H21155   3.464   3.329   8.438  0.3725  1.0934  1.7283
  157MOL0     H21156   3.184   3.186   8.284 -2.6652  2.2668 -2.9109
  157MOL0     H21157   3.226   3.333   8.201 -4.3022  0.6173  1.2218
  157MOL0     H21158   3.356   3.225   8.270 -0.4936  0.2366 -1.6773
  157MOL0     H21159   2.760   3.587   8.242  1.0710 -2.7894 -3.2463
  157MOL0     H21160   2.520   3.534   8.171  1.3694  0.2602 -1.0744
  157MOL0     H21161   2.363   3.130   8.224  0.0986 -1.1535  1.0555
  157MOL0     H21162   2.313   3.216   8.377 -0.2814  1.5479 -0.2720
  157MOL0     H21163   2.135   3.327   8.232 -0.4053  0.9056 -1.5341
  157MOL0     H21164   2.177   3.209   8.110  1.8066  0.9548 -0.3296
  157MOL0     H21165   2.151   3.044   8.341 -1.8330 -0.7754  0.0805
  157MOL0     H21166   2.026   3.052   8.220 -0.3387  1.5843 -2.5973
  157MOL0     H21167   2.048   3.187   8.495 -0.4472  0.7395  1.3090
  157MOL0     H21168   1.953   3.276   8.362 -0.9640 -2.7639 -2.5006
  157MOL0     H21169   1.905   3.003   8.490 -0.5960 -1.1857  0.6465
  157MOL0     H21170   1.809   3.067   8.355  3.1049 -3.3231 -0.6552
  157MOL0     H21171   1.850   3.152   8.647 -1.1598  0.7281  0.0485
  157MOL0     H21172   1.780   3.274   8.537  1.0347  0.5072  0.3971
  157MOL0     H21173   1.614   3.077   8.480  0.8809 -1.1757 -1.0757
  157MOL0     H21174   1.600   3.187   8.623 -0.6096 -1.1013  1.3027
  157MOL0     H21175   1.715   2.983   8.758 -1.2291 -1.9760  1.1254
  157MOL0     H21176   1.681   2.899   8.605 -1.3110  1.5330 -2.4948
  157MOL0     H21177   2.510   3.198   8.419 -0.0662 -0.5448 -1.2370
  157MOL0     H21178   2.741   3.269   8.525  2.3650  0.5222 -0.6262
  157MOL0     H21179   3.040   3.495   8.637 -1.0968 -1.7112  0.0454
  157MOL0     H21180   3.258   3.545   8.745 -0.6555 -1.0083  0.3648
  157MOL0     H21181   5.015   2.823   9.017 -1.0296  0.1452  0.0629
  157MOL0     H21182   5.223   2.735   9.113  0.7996 -2.3313 -1.6968
  157MOL0     H21183   5.613   2.462   9.125 -1.8594 -0.6973 -1.3501
  157MOL0     H21184   5.793   2.345   9.224  1.2571  2.0523  1.7958
  157MOL0     H21185   5.922   2.201   9.319  3.8034  0.5875  0.0344
  157MOL0     H21186   5.969   2.286   9.475  0.1499  1.2632 -1.8278
  157MOL0     H21187   6.088   2.077   9.402  1.2191 -0.5554  2.3063
  157MOL0     H21188   5.934   1.994   9.403 -1.0446  0.2970  1.7033
  157MOL0     H21189   6.082   2.100   9.649  1.1966  0.0246 -1.4089
  157MOL0     H21190   6.090   1.935   9.603 -0.0443  0.7437 -0.2178
  157MOL0     H21191   5.841   2.102   9.705 -2.1307 -1.2357  1.4919
  157MOL0     H21192   5.917   1.958   9.778 -2.0800 -0.0605 -0.5160
  157MOL0     H21193   5.642   1.826   9.487 -0.6651  0.9931  0.1948
  157MOL0     H21194   5.511   2.252   9.550  0.5898 -1.1712 -0.6053
  157MOL0     H21195   5.358   2.372   9.449  0.5539  0.5613  2.0241
  158MOL0     O21196   3.265   9.893   6.556 -0.6831 -0.5557 -0.1120
  158MOL0     C21197   3.274   9.788   6.504  0.4163 -0.0844 -0.4244
  158MOL0     O21198   3.187   9.683   6.518  0.1395 -0.6362 -0.1007
  158MOL0     C21199   3.068   9.708   6.576 -0.5964 -0.2159 -0.4229
  158MOL0     C21200   2.986   9.815   6.543 -0.5942 -0.0981  0.3709
  158MOL0     C21201   2.861   9.829   6.595  0.9007 -0.2970 -0.0367
  158MOL0     C21202   2.816   9.750   6.693  0.2846  0.1976  0.0193
  158MOL0     O21203   2.689   9.781   6.736  0.7110 -0.1615 -0.3201
  158MOL0     C21204   2.670   9.783   6.875  0.7553 -0.1304 -0.3309
  158MOL0     C21205   2.703   9.916   6.944 -0.3454  0.3321 -0.1139
  158MOL0     C21206   2.852   9.952   6.937 -0.3548  0.2957  0.0614
  158MOL0     C21207   2.944   9.859   7.022 -0.1029 -0.0165  0.0015
  158MOL0     C21208   3.091   9.915   7.044  0.1697  0.1727  0.0760
  158MOL0     C21209   3.156   9.943   6.915 -0.4072  0.3675  0.5639
  158MOL0     C21210   3.297   9.996   6.954  0.2750  0.2727 -0.8012
  158MOL0     C21211   3.382  10.034   6.828  0.8678 -0.1424 -0.3800
  158MOL0     N21212   3.507  10.090   6.880 -0.0930  1.0123 -0.0189
  158MOL0     C21213   3.617  10.017   6.924 -0.4497  0.2765 -0.6479
  158MOL0     C21214   3.707  10.113   6.968 -0.3494 -0.5933 -0.0365
  158MOL0     C21215   3.847  10.081   7.024  0.2070 -0.1577 -0.5630
  158MOL0     C21216   3.952  10.150   6.930  0.3981 -0.2099  1.1041
  158MOL0     C21217   3.989  10.287   6.993 -0.1196  0.2043  0.2442
  158MOL0     C21218   4.096  10.281   7.107  1.0769  0.4449  0.2407
  158MOL0     O21219   4.227  10.246   7.065  0.0858  0.2515  0.8706
  158MOL0     C21220   4.337  10.297   7.137  0.3200  0.1079  0.0120
  158MOL0     C21221   4.458  10.253   7.097 -0.0515  0.6730  0.6589
  158MOL0     C21222   4.577  10.285   7.158  0.7195 -0.7097  0.4986
  158MOL0     C21223   4.697  10.206   7.107 -0.4315  0.0525 -0.4204
  158MOL0     C21224   4.573  10.353   7.281 -0.4352 -0.7695 -0.5662
  158MOL0     C21225   4.693  10.393   7.356  0.1815 -0.0351  0.3055
  158MOL0     O21226   4.669  10.422   7.485 -1.1696  0.0359 -0.1398
  158MOL0     C21227   4.763  10.465   7.580  0.8615  0.8155  0.3936
  158MOL0     C21228   4.722  10.457   7.714  0.0392  0.8254  0.6606
  158MOL0     C21229   4.815  10.495   7.813  0.1171 -0.4841  0.3178
  158MOL0     C21230   4.940  10.551   7.789 -0.2109 -0.0207 -0.5102
  158MOL0     O21231   5.038  10.580   7.885  0.1363  0.2370 -0.1230
  158MOL0     C21232   5.016  10.518   8.015  0.1741 -0.5357  1.1938
  158MOL0     C21233   5.122  10.518   8.121  0.7026  0.2791  0.6933
  158MOL0     C21234   5.126  10.653   8.189 -0.5511 -0.1758 -0.0251
  158MOL0     C21235   5.244  10.655   8.280 -0.5698 -0.1613  0.4808
  158MOL0     C21236   5.257  10.791   8.359 -0.6359  0.7630 -0.1267
  158MOL0     C21237   5.387  10.790   8.436  0.0305 -0.4889 -0.6040
  158MOL0     C21238   5.423  10.925   8.496  0.3809  0.5841  0.7148
  158MOL0     C21239   5.527  10.913   8.607  0.3951 -0.5409  0.2063
  158MOL0    Cl21240   5.665  10.829   8.544  0.1599 -0.0870 -0.2737
  158MOL0     C21241   4.972  10.573   7.660 -0.5061 -0.6251 -0.7405
  158MOL0     C21242   4.891  10.518   7.550  0.0946 -0.4100 -1.1333
  158MOL0     O21243   4.798  10.401   7.298 -0.6350 -0.2446  0.0908
  158MOL0     C21244   4.449  10.401   7.331 -0.1805 -0.2582  1.1346
  158MOL0     C21245   4.329  10.378   7.253 -0.6664 -0.2472 -0.2537
  158MOL0     N21246   3.653  10.238   6.935 -0.1217 -0.4807 -0.0267
  158MOL0     N21247   3.542  10.220   6.873 -1.0318 -0.0660 -0.5426
  158MOL0     C21248   2.889   9.641   6.736  0.5867 -0.4278 -0.8537
  158MOL0     C21249   3.020   9.623   6.677  0.4408 -0.5547  0.3477
  158MOL0     C21250   3.388   9.757   6.407  0.1094 -0.1446  0.6559
  158MOL0     C21251   3.436   9.863   6.333  0.3583  0.1287 -0.6169
  158MOL0     C21252   3.537   9.824   6.241 -0.8706 -0.5546 -0.4729
  158MOL0     C21253   3.576   9.691   6.216 -0.0581 -0.6074  0.4102
  158MOL0     O21254   3.673   9.666   6.123 -0.2848  0.5926  0.3266
  158MOL0     C21255   3.785   9.589   6.175  0.0168 -0.8036  0.1728
  158MOL0     C21256   3.904   9.626   6.099 -0.0869  0.6125  0.9489
  158MOL0     C21257   4.038   9.574   6.163  0.3637 -0.2809 -0.0354
  158MOL0     C21258   4.044   9.422   6.185  0.7670  1.0457 -0.1592
  158MOL0     C21259   4.004   9.341   6.072 -0.3150 -0.2399  0.0899
  158MOL0     C21260   3.977   9.281   5.970 -0.3049  0.4252 -0.2786
  158MOL0     C21261   3.507   9.589   6.284  0.2160 -0.2264 -0.6463
  158MOL0     C21262   3.416   9.622   6.383 -0.5281  0.3230  1.3908
  158MOL0     H21263   3.035   9.884   6.475  0.6819 -2.0156 -0.7568
  158MOL0     H21264   2.796   9.913   6.573  1.2168 -0.4096 -1.4980
  158MOL0     H21265   2.565   9.764   6.902  1.2946 -1.3223  1.0437
  158MOL0     H21266   2.724   9.703   6.927  0.4386 -2.0892 -2.8624
  158MOL0     H21267   2.654  10.002   6.897  2.9888  2.1488 -0.5333
  158MOL0     H21268   2.677   9.920   7.050 -0.1721  2.7909 -0.1109
  158MOL0     H21269   2.873   9.955   6.829 -2.3789  1.9691 -0.3518
  158MOL0     H21270   2.861  10.057   6.967  0.6742  0.1529  0.2709
  158MOL0     H21271   2.905   9.827   7.119  0.2926  1.7177  0.7776
  158MOL0     H21272   2.943   9.770   6.960 -0.7128 -0.7469  1.0241
  158MOL0     H21273   3.082  10.005   7.105  0.4288 -0.8193  1.6376
  158MOL0     H21274   3.144   9.839   7.102 -0.4972  1.5774  2.6626
  158MOL0     H21275   3.164   9.856   6.849 -1.0573  2.4102 -2.3793
  158MOL0     H21276   3.097  10.009   6.851 -0.5049 -0.9406 -0.7375
  158MOL0     H21277   3.268  10.084   7.012 -2.3085 -1.0755  0.1523
  158MOL0     H21278   3.350   9.922   7.015  2.3495  1.7436 -0.7340
  158MOL0     H21279   3.340  10.124   6.783  2.0251  0.6699  0.0993
  158MOL0     H21280   3.394   9.956   6.752  1.8260  2.0626 -2.6181
  158MOL0     H21281   3.620   9.910   6.944 -2.4380  0.4214  0.7682
  158MOL0     H21282   3.844  10.115   7.128 -0.2276  0.3404 -0.7285
  158MOL0     H21283   3.867   9.974   7.022 -3.3577 -0.9476 -0.0837
  158MOL0     H21284   3.903  10.169   6.834  1.0739 -1.7723  0.4123
  158MOL0     H21285   4.041  10.088   6.915 -1.3744 -2.2874 -2.2208
  158MOL0     H21286   3.906  10.352   7.021  0.6093  1.8921 -1.2716
  158MOL0     H21287   4.037  10.342   6.911 -0.6375 -3.2422 -2.6464
  158MOL0     H21288   4.071  10.206   7.183 -0.9226  0.8414  0.0288
  158MOL0     H21289   4.087  10.384   7.143  2.0127  1.3469 -1.9065
  158MOL0     H21290   4.470  10.191   7.009 -0.1408 -0.4410  1.4148
  158MOL0     H21291   4.738  10.146   7.189  0.7929  3.1057  1.3834
  158MOL0     H21292   4.662  10.135   7.032 -1.9967 -2.6991  2.6345
  158MOL0     H21293   4.765  10.278   7.061  1.8583 -3.0484 -2.2660
  158MOL0     H21294   4.625  10.409   7.724  0.7107 -0.2559  2.6261
  158MOL0     H21295   4.780  10.474   7.914  0.2453  0.0415  0.4742
  158MOL0     H21296   4.938  10.580   8.061 -1.5839 -1.3987 -0.4977
  158MOL0     H21297   4.986  10.413   8.022  2.6746 -1.2368  5.5378
  158MOL0     H21298   5.096  10.433   8.186  2.3448 -2.2784 -1.7287
  158MOL0     H21299   5.220  10.502   8.075  1.2211  1.4417  1.3590
  158MOL0     H21300   5.034  10.667   8.247 -0.5258 -0.0017 -0.0268
  158MOL0     H21301   5.127  10.736   8.119 -3.8416  0.5349  0.5876
  158MOL0     H21302   5.243  10.570   8.349 -2.3084 -2.4229 -2.1219
  158MOL0     H21303   5.336  10.653   8.222 -0.3516 -1.1515  0.8472
  158MOL0     H21304   5.176  10.800   8.433  0.4078  0.8284  1.0438
  158MOL0     H21305   5.270  10.873   8.288  1.8851 -0.6909 -1.4808
  158MOL0     H21306   5.389  10.710   8.511 -2.0901 -0.0328  0.0034
  158MOL0     H21307   5.463  10.771   8.360 -0.4036  1.4416 -1.5629
  158MOL0     H21308   5.334  10.981   8.524  0.5222  1.7318 -0.9925
  158MOL0     H21309   5.463  10.994   8.420 -0.5758  3.3699  2.5804
  158MOL0     H21310   5.475  10.868   8.692 -3.8621  0.8444 -1.3654
  158MOL0     H21311   5.568  11.007   8.646  2.2925 -0.9122 -0.7962
  158MOL0     H21312   5.059  10.628   7.627 -0.5455 -0.1110 -0.0010
  158MOL0     H21313   4.934  10.519   7.451 -0.7979 -0.7095 -1.5313
  158MOL0     H21314   4.437  10.453   7.425  1.7715 -1.1191  1.9262
  158MOL0     H21315   4.246  10.434   7.294 -0.3968  2.6652 -3.2800
  158MOL0     H21316   2.849   9.577   6.814 -0.6374  0.6496 -0.5698
  158MOL0     H21317   3.087   9.540   6.693 -0.8888 -1.5609  0.8744
  158MOL0     H21318   3.421   9.969   6.349 -1.3006 -0.3054  0.9507
  158MOL0     H21319   3.582   9.905   6.186 -0.2306 -1.1417 -0.8283
  158MOL0     H21320   3.805   9.616   6.279  0.7484 -0.7278  0.0203
  158MOL0     H21321   3.762   9.482   6.168  3.2071 -1.6804  1.2737
  158MOL0     H21322   3.906   9.735   6.087  0.0447  0.5209  0.0847
  158MOL0     H21323   3.900   9.574   6.003 -3.9789  1.6991  0.3658
  158MOL0     H21324   4.054   9.614   6.264  0.5632 -1.8499  0.5800
  158MOL0     H21325   4.117   9.603   6.093  0.1930 -0.1135 -0.1613
  158MOL0     H21326   3.973   9.402   6.265 -1.9931 -0.9563 -2.8599
  158MOL0     H21327   4.143   9.394   6.222 -0.3564 -1.1792  1.3701
  158MOL0     H21328   3.959   9.212   5.890  1.4735 -2.7551  1.8095
  158MOL0     H21329   3.539   9.486   6.280  0.3762 -0.1575 -1.3720
  158MOL0     H21330   3.363   9.543   6.436  2.5740 -4.0787 -1.3311
  159MOL0     O21331  10.878   1.489   7.997 -0.1639  0.6716 -0.5979
  159MOL0     C21332  10.912   1.561   8.091  0.1376 -0.1419 -0.9528
  159MOL0     O21333  10.833   1.594   8.194  0.5566  0.0440 -0.3589
  159MOL0     C21334  10.694   1.563   8.188  0.0965 -0.3318  0.4768
  159MOL0     C21335  10.640   1.451   8.250 -0.2069  0.3455  0.1319
  159MOL0     C21336  10.510   1.423   8.256  0.5801  0.3241 -0.6325
  159MOL0     C21337  10.417   1.512   8.201 -0.2805  0.3672 -0.4947
  159MOL0     O21338  10.286   1.489   8.219 -0.2929 -0.1550  0.1227
  159MOL0     C21339  10.247   1.452   8.353  0.3930 -0.5890 -0.1489
  159MOL0     C21340  10.116   1.525   8.403 -0.2951  0.0750 -0.6690
  159MOL0     C21341  10.023   1.552   8.293 -0.5814  0.0541  0.1017
  159MOL0     C21342   9.875   1.563   8.353  0.0121 -0.0008 -0.6792
  159MOL0     C21343   9.771   1.639   8.267  1.5307  0.0466 -0.1068
  159MOL0     C21344   9.629   1.634   8.320 -0.4302 -0.7064  0.6053
  159MOL0     C21345   9.525   1.695   8.229 -0.6045  0.8356  0.1257
  159MOL0     C21346   9.396   1.701   8.291  0.6642  0.4014 -0.4980
  159MOL0     N21347   9.292   1.723   8.190 -0.0274  0.3648  0.1640
  159MOL0     C21348   9.267   1.848   8.140  1.0632 -0.0333 -0.1373
  159MOL0     C21349   9.142   1.836   8.098  0.0422  0.0627 -0.0488
  159MOL0     C21350   9.051   1.948   8.044  0.0516 -0.1879  0.2566
  159MOL0     C21351   8.899   1.896   8.041 -0.6297  0.1809  1.0255
  159MOL0     C21352   8.829   1.894   8.173 -0.1759 -0.9110 -1.4273
  159MOL0     C21353   8.700   1.812   8.160 -0.3661  0.3345  0.5406
  159MOL0     O21354   8.659   1.792   8.297  0.7341 -0.5490 -0.8247
  159MOL0     C21355   8.528   1.796   8.315 -0.2625  0.2655  0.6213
  159MOL0     C21356   8.478   1.898   8.394  0.5362 -0.1120  0.1314
  159MOL0     C21357   8.343   1.902   8.424 -0.1080  0.5367 -0.4904
  159MOL0     C21358   8.290   1.986   8.541 -1.4950  0.2027 -0.1486
  159MOL0     C21359   8.256   1.804   8.362 -0.3839 -1.2301 -0.4994
  159MOL0     C21360   8.108   1.812   8.386 -0.0244  0.5705 -0.2270
  159MOL0     O21361   8.037   1.691   8.370  0.3519 -0.2198  1.0818
  159MOL0     C21362   7.900   1.696   8.363 -0.4208  0.3755 -0.2660
  159MOL0     C21363   7.842   1.748   8.250  0.4824  0.2901 -0.6512
  159MOL0     C21364   7.710   1.752   8.241 -0.7308  0.1831 -0.5169
  159MOL0     C21365   7.617   1.700   8.338 -0.7683  0.4206  0.5119
  159MOL0     O21366   7.484   1.683   8.331  0.2293 -0.5105 -0.2144
  159MOL0     C21367   7.413   1.738   8.219  0.3757 -0.6099  0.5574
  159MOL0     C21368   7.270   1.709   8.240 -0.2103 -1.2834 -0.2061
  159MOL0     C21369   7.189   1.825   8.300  0.0703  0.4823 -0.2095
  159MOL0     C21370   7.044   1.789   8.291  0.7056  1.2685 -0.0395
  159MOL0     C21371   6.958   1.886   8.372  0.2964  1.3145  0.3110
  159MOL0     C21372   6.807   1.843   8.354  0.5449  0.8740 -0.7195
  159MOL0     C21373   6.705   1.955   8.389 -0.1159 -0.4714  0.0572
  159MOL0     C21374   6.651   2.031   8.268  0.1614  0.3294 -0.9266
  159MOL0    Cl21375   6.782   2.134   8.182 -0.0869 -0.1793  0.3630
  159MOL0     C21376   7.677   1.621   8.442  0.1020 -0.0798  0.0677
  159MOL0     C21377   7.814   1.638   8.459  0.2245  0.5671 -0.3356
  159MOL0     O21378   8.053   1.918   8.407 -0.5899 -0.5547 -0.5602
  159MOL0     C21379   8.310   1.710   8.272 -0.2421 -0.1722  0.1398
  159MOL0     C21380   8.445   1.705   8.249  0.1970  0.0684 -0.4601
  159MOL0     N21381   9.110   1.703   8.112  0.2002  0.3496  0.4620
  159MOL0     N21382   9.199   1.634   8.156  1.0663  0.0719  0.6013
  159MOL0     C21383  10.467   1.625   8.125 -0.3999  0.1965  0.7502
  159MOL0     C21384  10.609   1.653   8.131  0.2426  0.2090  0.5327
  159MOL0     C21385  11.050   1.611   8.088  0.7652  0.0229  0.2781
  159MOL0     C21386  11.113   1.645   8.210  0.1275  0.9842  0.1724
  159MOL0     C21387  11.242   1.694   8.209 -0.3016  0.7690  0.3840
  159MOL0     C21388  11.318   1.697   8.092 -0.4324 -0.2968  0.0011
  159MOL0     O21389  11.445   1.755   8.103 -0.7585 -0.5068 -0.4006
  159MOL0     C21390  11.528   1.737   7.984  0.6700  0.3087 -0.1506
  159MOL0     C21391  11.676   1.760   8.031 -0.3893  0.6040 -0.6603
  159MOL0     C21392  11.730   1.905   8.025  0.7986 -0.4362 -0.0601
  159MOL0     C21393  11.885   1.916   8.056 -0.0781  0.3213 -0.1317
  159MOL0     C21394  11.936   2.042   8.014 -0.4939  0.6636  0.3142
  159MOL0     C21395  11.939   2.160   7.980 -0.6552  0.1679 -0.3482
  159MOL0     C21396  11.253   1.681   7.968 -0.1002 -0.2835 -0.5644
  159MOL0     C21397  11.124   1.624   7.966  0.1147  0.6323 -0.2941
  159MOL0     H21398  10.706   1.379   8.299  0.5357  0.3147 -0.8722
  159MOL0     H21399  10.465   1.343   8.314  0.0148  2.6204  2.3363
  159MOL0     H21400  10.220   1.347   8.339 -1.8450  0.2086 -2.6022
  159MOL0     H21401  10.325   1.447   8.430 -0.6376  2.5932  1.2838
  159MOL0     H21402  10.070   1.471   8.486 -2.0676 -1.1570 -2.3358
  159MOL0     H21403  10.146   1.620   8.447 -1.8854  0.9760 -1.4321
  159MOL0     H21404  10.053   1.644   8.243 -0.7562  0.1803  0.2250
  159MOL0     H21405  10.024   1.468   8.223  0.7112 -0.9964  1.2977
  159MOL0     H21406   9.832   1.467   8.383  1.5967  0.1206  2.4028
  159MOL0     H21407   9.884   1.622   8.445 -1.9034  0.3451 -0.6761
  159MOL0     H21408   9.801   1.743   8.249 -0.5158  0.7034  0.0050
  159MOL0     H21409   9.786   1.586   8.172  0.0747  0.2301 -0.4627
  159MOL0     H21410   9.615   1.526   8.331  3.1697 -1.6417 -2.0333
  159MOL0     H21411   9.627   1.680   8.419 -1.4390 -1.1792  0.8198
  159MOL0     H21412   9.542   1.800   8.205 -0.5564  0.5285 -1.2863
  159MOL0     H21413   9.527   1.640   8.134 -0.0741  2.0016 -0.5701
  159MOL0     H21414   9.394   1.772   8.373 -0.9649 -1.8799  1.5742
  159MOL0     H21415   9.367   1.602   8.327 -2.8842  1.1173 -1.0828
  159MOL0     H21416   9.334   1.933   8.134  0.6723  0.2803 -0.0599
  159MOL0     H21417   9.072   2.037   8.103 -2.4019 -0.2949  1.4072
  159MOL0     H21418   9.089   1.962   7.943  2.6724 -0.1607  1.1712
  159MOL0     H21419   8.897   1.794   8.001  2.6965 -1.7254  4.9788
  159MOL0     H21420   8.844   1.967   7.978 -0.7888  1.7611  2.8432
  159MOL0     H21421   8.806   1.996   8.206 -1.4953 -2.1760  1.9799
  159MOL0     H21422   8.889   1.855   8.255 -2.6504 -0.5357  0.6626
  159MOL0     H21423   8.721   1.711   8.124  1.6629  0.6683  0.6599
  159MOL0     H21424   8.636   1.871   8.095 -0.3849 -0.6595 -0.3599
  159MOL0     H21425   8.548   1.955   8.455  1.1453 -0.7282  0.0175
  159MOL0     H21426   8.223   2.065   8.506 -2.3509  0.4729  1.9508
  159MOL0     H21427   8.214   1.930   8.596 -0.6329 -1.3350 -0.4712
  159MOL0     H21428   8.371   2.022   8.605  0.8899 -1.2342 -2.1575
  159MOL0     H21429   7.901   1.801   8.176 -1.4151  2.3481 -0.7926
  159MOL0     H21430   7.671   1.804   8.155  0.8470  1.8798 -0.2690
  159MOL0     H21431   7.421   1.847   8.222 -3.3239  0.0916 -3.7130
  159MOL0     H21432   7.447   1.693   8.126  0.8499 -0.6318  0.7406
  159MOL0     H21433   7.226   1.692   8.141  0.5090  1.9969 -1.1834
  159MOL0     H21434   7.261   1.613   8.293 -1.7991 -1.3459 -0.5335
  159MOL0     H21435   7.213   1.920   8.253  3.4734 -1.0279 -1.8521
  159MOL0     H21436   7.211   1.838   8.407 -2.0055  1.0131  0.1937
  159MOL0     H21437   6.995   1.794   8.194 -1.2838  0.8538  0.8763
  159MOL0     H21438   7.022   1.693   8.339 -3.9233  0.8875 -2.4050
  159MOL0     H21439   6.971   1.987   8.332  1.5625  1.0657  0.0537
  159MOL0     H21440   6.980   1.874   8.478 -1.3245 -0.3200  0.4977
  159MOL0     H21441   6.788   1.798   8.256 -1.5275  0.7964 -0.3203
  159MOL0     H21442   6.782   1.758   8.419  0.8648  1.7404  0.5708
  159MOL0     H21443   6.740   2.037   8.451 -0.7601 -1.0052  1.1665
  159MOL0     H21444   6.617   1.921   8.444 -1.5523  2.8828  0.0909
  159MOL0     H21445   6.567   2.096   8.295  0.6677  1.0395 -1.0481
  159MOL0     H21446   6.625   1.960   8.189 -1.7382 -1.1055  0.8889
  159MOL0     H21447   7.625   1.582   8.528 -0.0239 -0.1902 -0.0600
  159MOL0     H21448   7.849   1.596   8.552  1.5767  0.7921 -0.7239
  159MOL0     H21449   8.264   1.627   8.219  3.0726 -1.4805 -0.9620
  159MOL0     H21450   8.488   1.633   8.180 -0.4658  0.8460 -1.7312
  159MOL0     H21451  10.406   1.706   8.084  1.9840  2.2329  0.9559
  159MOL0     H21452  10.642   1.748   8.091 -2.1202 -0.1139 -2.5602
  159MOL0     H21453  11.060   1.620   8.301 -0.4472  2.6462  0.3378
  159MOL0     H21454  11.299   1.726   8.296  0.3239  1.3390 -0.2201
  159MOL0     H21455  11.521   1.639   7.936  0.4291 -0.5892  1.6367
  159MOL0     H21456  11.503   1.813   7.911  4.2844  1.0655 -0.8081
  159MOL0     H21457  11.739   1.696   7.969  0.1574  1.6185 -1.1809
  159MOL0     H21458  11.686   1.718   8.132  0.6017  0.5321 -0.7793
  159MOL0     H21459  11.677   1.971   8.094 -0.3096 -1.0181 -0.3309
  159MOL0     H21460  11.718   1.932   7.920  0.2222  2.1381  0.5914
  159MOL0     H21461  11.951   1.845   8.005 -0.2417  0.8080 -1.0364
  159MOL0     H21462  11.904   1.899   8.163 -2.9800 -2.5581  0.0967
  159MOL0     H21463  11.942   2.264   7.955 -0.5892  0.1608 -0.3702
  159MOL0     H21464  11.311   1.693   7.877  3.5717  0.3779  1.6754
  159MOL0     H21465  11.066   1.615   7.875 -0.6222  2.8762 -0.1228
  160MOL0     O21466   2.996   6.164   0.922 -0.8897  0.4501 -0.7531
  160MOL0     C21467   2.964   6.095   1.020 -0.4293 -0.0777 -0.2109
  160MOL0     O21468   2.840   6.054   1.046 -0.0086  0.1806  0.1701
  160MOL0     C21469   2.730   6.092   0.970 -0.1797  0.6360 -0.1337
  160MOL0     C21470   2.693   6.223   0.933  0.1261 -0.0743  0.5531
  160MOL0     C21471   2.586   6.247   0.848  1.6193 -0.7757 -1.1887
  160MOL0     C21472   2.502   6.133   0.809 -0.4815  0.0373 -0.1624
  160MOL0     O21473   2.396   6.155   0.727  0.1115 -0.3687  0.1268
  160MOL0     C21474   2.329   6.055   0.660  0.9887  0.4648  0.6988
  160MOL0     C21475   2.225   6.120   0.568 -0.3205  0.0590 -0.7192
  160MOL0     C21476   2.096   6.180   0.643  0.1454  0.9074 -0.1064
  160MOL0     C21477   1.969   6.082   0.650  0.5471  0.3963 -0.1406
  160MOL0     C21478   1.840   6.166   0.692  0.0070  0.1645 -0.3031
  160MOL0     C21479   1.711   6.086   0.683  0.5956 -0.8289  0.0123
  160MOL0     C21480   1.681   5.995   0.795 -0.3741  0.8888 -0.7415
  160MOL0     C21481   1.674   6.070   0.934  0.3348  0.3415 -0.2388
  160MOL0     N21482   1.558   6.159   0.938  0.3261 -0.1683  0.3549
  160MOL0     C21483   1.560   6.292   0.903 -0.9939  0.1587 -0.6862
  160MOL0     C21484   1.434   6.335   0.898 -0.0837 -0.4724 -0.4656
  160MOL0     C21485   1.375   6.469   0.872 -0.3600  0.2556  0.2260
  160MOL0     C21486   1.408   6.519   0.734 -0.3497  1.2585 -0.4098
  160MOL0     C21487   1.376   6.438   0.608  0.9938  0.1073 -0.1476
  160MOL0     C21488   1.232   6.409   0.601 -0.0885 -1.3447 -0.2828
  160MOL0     O21489   1.195   6.379   0.466  0.0566 -0.0305  0.3600
  160MOL0     C21490   1.075   6.328   0.441  0.3848 -0.0356 -1.1105
  160MOL0     C21491   0.992   6.273   0.544 -0.3684 -0.2489  0.1188
  160MOL0     C21492   0.862   6.227   0.515  0.2428 -1.0172  0.3125
  160MOL0     C21493   0.781   6.160   0.625  0.7690 -0.0029  0.0355
  160MOL0     C21494   0.803   6.259   0.395 -0.0320 -0.8438  1.1316
  160MOL0     C21495   0.665   6.226   0.355 -0.5027 -0.3846 -0.3470
  160MOL0     O21496   0.566   6.226   0.450 -0.2209  0.2010 -0.6046
  160MOL0     C21497   0.452   6.160   0.415 -0.1467 -0.0728 -0.0108
  160MOL0     C21498   0.458   6.026   0.386 -0.1252 -0.5065  0.3960
  160MOL0     C21499   0.347   5.963   0.340  1.1632 -0.5321  0.0207
  160MOL0     C21500   0.225   6.031   0.330 -0.2600  0.1166  0.0932
  160MOL0     O21501   0.123   5.959   0.276  0.3026  0.3290 -0.7551
  160MOL0     C21502  -0.003   6.022   0.237 -0.5432  0.5229 -0.3087
  160MOL0     C21503  -0.093   5.909   0.181 -0.6612  0.0876  0.0529
  160MOL0     C21504  -0.139   5.808   0.287 -0.0056  0.4173  0.0383
  160MOL0     C21505  -0.270   5.838   0.366 -0.1546  0.1581  0.0386
  160MOL0     C21506  -0.233   5.868   0.509 -0.0535 -0.4012 -1.1229
  160MOL0     C21507  -0.347   5.952   0.590  0.2805 -0.2123  0.4898
  160MOL0     C21508  -0.465   5.856   0.622 -0.0492  0.7296  0.9370
  160MOL0     C21509  -0.560   5.919   0.732  0.0964 -1.4257  0.9039
  160MOL0    Cl21510  -0.551   5.848   0.895  0.1370  0.5026  0.1230
  160MOL0     C21511   0.222   6.166   0.345  0.6679 -0.0575 -0.7185
  160MOL0     C21512   0.333   6.238   0.395 -0.5269 -0.4818  0.1505
  160MOL0     O21513   0.651   6.202   0.237  0.3631 -0.7655 -0.0813
  160MOL0     C21514   0.884   6.319   0.290  0.0661  1.7272  0.9398
  160MOL0     C21515   1.016   6.344   0.311 -0.1251  0.3030 -0.3636
  160MOL0     N21516   1.353   6.231   0.937 -0.0177 -0.0290 -0.4542
  160MOL0     N21517   1.423   6.126   0.954 -0.0987 -0.2780  1.1425
  160MOL0     C21518   2.550   6.004   0.841 -0.9065 -0.1243 -0.1178
  160MOL0     C21519   2.654   5.983   0.936  0.1251 -0.6671  0.1269
  160MOL0     C21520   3.076   6.033   1.095  1.1571  1.0424 -0.3278
  160MOL0     C21521   3.204   6.041   1.052 -0.4031  0.0859 -0.3097
  160MOL0     C21522   3.298   5.969   1.132 -0.4093  0.6582 -0.5753
  160MOL0     C21523   3.262   5.902   1.253 -0.5820 -0.2968 -0.5388
  160MOL0     O21524   3.362   5.837   1.323  0.6402 -0.1621 -0.4769
  160MOL0     C21525   3.501   5.859   1.273  0.4264  0.2442  0.3052
  160MOL0     C21526   3.592   5.807   1.380 -0.8730  0.7776  0.7833
  160MOL0     C21527   3.733   5.858   1.346 -0.3390  0.2317  0.1612
  160MOL0     C21528   3.844   5.774   1.405 -0.2544  0.1653 -0.4174
  160MOL0     C21529   3.970   5.831   1.373  0.8963 -0.0567  0.2699
  160MOL0     C21530   4.073   5.885   1.352 -0.1613  0.0629  0.5695
  160MOL0     C21531   3.133   5.916   1.304 -0.8341  0.9301 -0.1371
  160MOL0     C21532   3.037   5.978   1.223 -0.7256  0.5119 -0.4941
  160MOL0     H21533   2.766   6.299   0.961 -0.9115  1.0719  0.2049
  160MOL0     H21534   2.558   6.345   0.813  1.6215 -0.4080 -0.1938
  160MOL0     H21535   2.393   5.994   0.596  0.7790 -0.2910  1.2054
  160MOL0     H21536   2.262   5.994   0.720  1.7169 -1.0928 -0.0198
  160MOL0     H21537   2.267   6.200   0.507 -0.9636 -1.0881 -2.7752
  160MOL0     H21538   2.200   6.030   0.510  2.6660 -1.0527 -0.4563
  160MOL0     H21539   2.124   6.208   0.745  2.2835  2.4156 -1.0309
  160MOL0     H21540   2.073   6.270   0.586  0.9356  2.0745  1.3258
  160MOL0     H21541   1.958   6.039   0.550  3.9331  1.8006 -1.2594
  160MOL0     H21542   1.976   5.996   0.716 -0.3817 -0.9260 -1.6920
  160MOL0     H21543   1.849   6.223   0.785  3.8460  0.7482 -0.8886
  160MOL0     H21544   1.835   6.250   0.622  1.5989  2.1730  1.8190
  160MOL0     H21545   1.632   6.161   0.669  0.7486 -0.1146  2.5746
  160MOL0     H21546   1.710   6.026   0.591 -2.4608 -0.6021 -0.2023
  160MOL0     H21547   1.584   5.948   0.775 -0.3960  0.3719  0.4858
  160MOL0     H21548   1.750   5.912   0.816 -2.6667 -0.6894  1.1944
  160MOL0     H21549   1.772   6.117   0.943  1.1228 -0.6788 -2.6474
  160MOL0     H21550   1.671   6.000   1.017  2.3011 -0.9813 -1.2230
  160MOL0     H21551   1.650   6.349   0.880 -0.6485 -0.0907  0.0182
  160MOL0     H21552   1.267   6.458   0.885 -0.3509  0.3789  0.4063
  160MOL0     H21553   1.408   6.538   0.950 -0.5491  1.0203 -0.3607
  160MOL0     H21554   1.515   6.542   0.730  0.1924 -1.0633 -3.6161
  160MOL0     H21555   1.351   6.611   0.721  0.8620  2.1023  0.1391
  160MOL0     H21556   1.439   6.349   0.618 -1.1976 -1.6800 -1.2572
  160MOL0     H21557   1.396   6.507   0.526 -2.6892  2.9073  1.0386
  160MOL0     H21558   1.165   6.484   0.642 -2.7087 -2.6460 -1.9006
  160MOL0     H21559   1.220   6.327   0.673  0.9871  1.0225  2.7796
  160MOL0     H21560   1.013   6.243   0.646  1.0600 -0.0783 -0.1000
  160MOL0     H21561   0.709   6.223   0.678  0.0426 -2.1256  1.7768
  160MOL0     H21562   0.740   6.066   0.587  3.9536 -1.2547 -0.6222
  160MOL0     H21563   0.844   6.133   0.711 -0.7459  2.4048  2.0254
  160MOL0     H21564   0.551   5.971   0.379  0.2337  0.2488 -3.9589
  160MOL0     H21565   0.352   5.866   0.291  0.2661 -1.2526  1.2779
  160MOL0     H21566  -0.047   6.074   0.322 -0.1660  3.3965 -1.7490
  160MOL0     H21567   0.014   6.099   0.160  0.4126 -0.3504 -0.9989
  160MOL0     H21568  -0.174   5.953   0.122 -0.6862  0.0046  0.0247
  160MOL0     H21569  -0.036   5.854   0.106  1.4477  0.0742  1.6002
  160MOL0     H21570  -0.061   5.779   0.359 -0.9858 -4.3456 -0.4514
  160MOL0     H21571  -0.168   5.714   0.238 -0.3234  0.5524 -0.0283
  160MOL0     H21572  -0.315   5.923   0.314 -0.0921  0.9941  1.3047
  160MOL0     H21573  -0.337   5.752   0.367 -1.0102  0.6951 -2.9154
  160MOL0     H21574  -0.147   5.936   0.504  0.9436 -1.6433 -1.4042
  160MOL0     H21575  -0.198   5.780   0.563  2.1374  0.6921 -0.6370
  160MOL0     H21576  -0.292   5.981   0.681  1.3305 -1.6745  0.3598
  160MOL0     H21577  -0.384   6.039   0.536  1.3362 -0.0994 -0.0755
  160MOL0     H21578  -0.431   5.754   0.643  0.7413  0.7853 -0.0118
  160MOL0     H21579  -0.522   5.850   0.528 -1.3995  3.5493  1.4606
  160MOL0     H21580  -0.658   5.902   0.685  1.0948 -0.9187 -1.5325
  160MOL0     H21581  -0.541   6.027   0.729 -1.1812 -1.1654 -2.4379
  160MOL0     H21582   0.122   6.206   0.340  0.5112 -0.5484 -1.6210
  160MOL0     H21583   0.328   6.341   0.429 -0.4310 -0.4274 -0.0009
  160MOL0     H21584   0.859   6.329   0.185  2.4829  0.0444  0.1282
  160MOL0     H21585   1.068   6.380   0.223  0.2583  2.3559  0.6533
  160MOL0     H21586   2.490   5.920   0.809  0.5565 -1.3752  0.3139
  160MOL0     H21587   2.683   5.881   0.959 -2.4859 -1.8666 -1.4071
  160MOL0     H21588   3.237   6.079   0.955  1.0450  0.4653  0.2993
  160MOL0     H21589   3.389   5.955   1.075 -0.5977 -0.6373 -0.5879
  160MOL0     H21590   3.514   5.801   1.181  1.0680  0.4394  0.2668
  160MOL0     H21591   3.517   5.965   1.252 -1.8936  0.4661 -0.6974
  160MOL0     H21592   3.589   5.700   1.404 -1.8424  0.5883 -0.0921
  160MOL0     H21593   3.557   5.842   1.478  1.2927 -0.7622  2.1971
  160MOL0     H21594   3.733   5.961   1.383  0.5271  0.0835  0.6012
  160MOL0     H21595   3.758   5.865   1.239  1.5416  3.5426  0.6762
  160MOL0     H21596   3.852   5.676   1.357  1.2394 -0.0917  0.3081
  160MOL0     H21597   3.839   5.762   1.513  2.1871  1.6883 -0.0564
  160MOL0     H21598   4.157   5.941   1.317 -0.9874  0.2284 -1.2855
  160MOL0     H21599   3.102   5.873   1.399  1.1142  1.5113  0.8184
  160MOL0     H21600   2.930   5.972   1.243 -0.6939  0.5842 -0.2918
  161MOL0     O21601   2.593   1.481   0.980 -0.1696  0.5074  0.1498
  161MOL0     C21602   2.711   1.522   0.960  0.6819  0.1910 -0.3379
  161MOL0     O21603   2.777   1.514   0.837 -0.9455  0.4299 -0.3732
  161MOL0     C21604   2.716   1.437   0.745  0.9091 -0.3252 -0.2683
  161MOL0     C21605   2.603   1.477   0.669  0.4279  0.2291  0.3282
  161MOL0     C21606   2.548   1.397   0.568  0.5716  0.8578  0.3274
  161MOL0     C21607   2.592   1.268   0.559 -0.3170  0.6171 -0.0734
  161MOL0     O21608   2.543   1.176   0.475 -0.4184  0.5996 -0.6760
  161MOL0     C21609   2.415   1.198   0.418  1.1615  0.9952 -1.0160
  161MOL0     C21610   2.380   1.062   0.353  0.5037 -0.6002  0.2157
  161MOL0     C21611   2.238   1.063   0.286  0.2467  1.0521 -0.3314
  161MOL0     C21612   2.224   0.940   0.191 -0.3969 -0.1741  0.1776
  161MOL0     C21613   2.123   0.952   0.082 -0.0506  0.0480 -0.3767
  161MOL0     C21614   1.981   0.974   0.134  0.0566 -1.0393  1.4813
  161MOL0     C21615   1.905   0.859   0.192 -0.0684  0.5781 -0.3526
  161MOL0     C21616   1.853   0.759   0.089 -0.5832  0.2104 -0.3908
  161MOL0     N21617   1.795   0.818  -0.030  0.0566 -0.0774  0.2322
  161MOL0     C21618   1.665   0.816  -0.058  0.5061 -0.3589  1.0461
  161MOL0     C21619   1.659   0.829  -0.194  0.1970  0.0506  0.3517
  161MOL0     C21620   1.538   0.833  -0.285  0.9080  0.4706  0.0922
  161MOL0     C21621   1.405   0.884  -0.215  0.2802 -0.1255 -0.0331
  161MOL0     C21622   1.287   0.907  -0.321 -0.6125  0.1804 -0.3174
  161MOL0     C21623   1.239   1.052  -0.300 -0.2805 -0.7105 -0.3103
  161MOL0     O21624   1.176   1.065  -0.179 -0.3768  0.1222 -0.3280
  161MOL0     C21625   1.042   1.027  -0.156  0.0976  0.5478 -0.0326
  161MOL0     C21626   0.961   0.953  -0.245 -1.2463 -0.7836  0.1325
  161MOL0     C21627   0.838   0.908  -0.219 -0.6859 -0.5352 -0.8823
  161MOL0     C21628   0.776   0.821  -0.323 -0.4205  0.0921  0.1808
  161MOL0     C21629   0.777   0.935  -0.094 -0.4727  0.7037 -0.3146
  161MOL0     C21630   0.640   0.911  -0.051  0.7640  0.3415  0.4785
  161MOL0     O21631   0.598   0.930   0.083  0.2655  0.3353 -0.1233
  161MOL0     C21632   0.471   0.881   0.102 -0.0811 -0.4746  0.0781
  161MOL0     C21633   0.425   0.752   0.068  0.0986 -0.7944 -1.1102
  161MOL0     C21634   0.291   0.706   0.099  0.4365 -0.6133 -0.5735
  161MOL0     C21635   0.196   0.795   0.150 -0.3664 -0.1090 -0.4151
  161MOL0     O21636   0.061   0.772   0.154  0.1232  0.7223  0.6167
  161MOL0     C21637  -0.001   0.841   0.042  0.0419 -0.4087 -0.2848
  161MOL0     C21638  -0.122   0.753   0.002 -0.1962 -0.4404  0.3683
  161MOL0     C21639  -0.215   0.833  -0.087  0.1385  0.1840 -0.3651
  161MOL0     C21640  -0.367   0.808  -0.063  0.8460  0.0956  0.4611
  161MOL0     C21641  -0.475   0.872  -0.164  0.4662  0.3772 -0.3805
  161MOL0     C21642  -0.462   1.025  -0.192 -0.9044 -0.4190 -0.3680
  161MOL0     C21643  -0.592   1.075  -0.272  0.2287  0.7330 -0.1142
  161MOL0     C21644  -0.723   1.096  -0.201 -1.0223 -0.0907 -0.7054
  161MOL0    Cl21645  -0.856   1.120  -0.318 -0.6279  0.5593  0.0797
  161MOL0     C21646   0.241   0.924   0.188  0.1805 -0.0972  0.3361
  161MOL0     C21647   0.374   0.967   0.164  0.3496 -0.9593  0.5488
  161MOL0     O21648   0.564   0.886  -0.146  0.1979  0.2040  0.5618
  161MOL0     C21649   0.856   1.005  -0.001 -0.4811 -0.5709 -0.8942
  161MOL0     C21650   0.988   1.043  -0.023 -0.2804 -0.6242  0.8932
  161MOL0     N21651   1.786   0.845  -0.241  0.6019 -0.8976 -1.6629
  161MOL0     N21652   1.867   0.846  -0.146  0.0398  0.0894  0.5173
  161MOL0     C21653   2.698   1.222   0.630  0.3850  0.4177 -0.3989
  161MOL0     C21654   2.769   1.310   0.719 -0.1345 -0.5932 -0.3405
  161MOL0     C21655   2.779   1.583   1.078 -0.8086 -0.5450 -0.2768
  161MOL0     C21656   2.723   1.602   1.203  0.6280 -0.5009 -0.5488
  161MOL0     C21657   2.796   1.656   1.308  0.2730 -0.3964 -0.3086
  161MOL0     C21658   2.932   1.678   1.294  0.0688 -0.4651 -0.6037
  161MOL0     O21659   3.022   1.701   1.398  0.1376  0.5367  0.0637
  161MOL0     C21660   2.983   1.737   1.526  0.3648 -0.8650  0.5722
  161MOL0     C21661   2.982   1.614   1.617  0.1546  0.5000 -0.2105
  161MOL0     C21662   2.939   1.644   1.760  0.7180 -0.2895 -0.4364
  161MOL0     C21663   2.921   1.499   1.821 -0.0663 -0.0991 -0.7995
  161MOL0     C21664   3.012   1.490   1.932  0.1898 -0.2723  0.5703
  161MOL0     C21665   3.099   1.486   2.019 -0.4897  0.3960  0.4821
  161MOL0     C21666   2.994   1.656   1.172  0.7332 -0.6500 -1.0042
  161MOL0     C21667   2.920   1.615   1.068  0.3386 -0.0650  0.0122
  161MOL0     H21668   2.572   1.580   0.685 -0.5120  0.2912 -1.5749
  161MOL0     H21669   2.481   1.457   0.508  0.8935  2.0185  1.1032
  161MOL0     H21670   2.343   1.220   0.497 -0.2791 -1.9378 -1.3984
  161MOL0     H21671   2.416   1.286   0.352  0.1921 -0.3615 -2.9407
  161MOL0     H21672   2.457   1.050   0.277  1.9553  0.0066  1.5297
  161MOL0     H21673   2.391   0.989   0.433  0.9512  0.6707  1.3550
  161MOL0     H21674   2.150   1.050   0.349  0.5632 -0.5758 -0.1876
  161MOL0     H21675   2.225   1.155   0.227 -1.6581  1.0598  0.0393
  161MOL0     H21676   2.323   0.921   0.148  0.0142 -2.7683  2.0206
  161MOL0     H21677   2.199   0.854   0.253  1.6440  0.0716  1.4417
  161MOL0     H21678   2.150   1.033   0.014  0.7695 -0.6315 -0.8733
  161MOL0     H21679   2.141   0.863   0.021  0.0732 -0.0170 -0.2474
  161MOL0     H21680   1.981   1.044   0.218 -0.8940 -2.7449  2.9794
  161MOL0     H21681   1.931   1.033   0.056 -0.0759 -1.3883  1.2979
  161MOL0     H21682   1.978   0.809   0.256  1.1645  1.4470 -1.0286
  161MOL0     H21683   1.818   0.876   0.254 -1.0030 -1.0342 -1.1458
  161MOL0     H21684   1.769   0.711   0.140  1.0785 -2.1236  0.3460
  161MOL0     H21685   1.923   0.680   0.060 -2.2050 -2.1434  1.7443
  161MOL0     H21686   1.586   0.798   0.013 -1.0966  0.5392 -0.4153
  161MOL0     H21687   1.562   0.904  -0.364 -0.3645  1.2597  0.3795
  161MOL0     H21688   1.527   0.734  -0.330 -0.3720 -0.5208  2.3987
  161MOL0     H21689   1.428   0.977  -0.162 -1.3159  0.5622 -0.4898
  161MOL0     H21690   1.374   0.823  -0.131 -1.3858  1.2958  0.4472
  161MOL0     H21691   1.205   0.841  -0.293 -0.6556  1.3757  2.8102
  161MOL0     H21692   1.328   0.891  -0.421  0.5297  2.0080 -0.2026
  161MOL0     H21693   1.176   1.085  -0.383 -0.5601  0.7359  0.4340
  161MOL0     H21694   1.319   1.125  -0.297 -3.0200  2.5390 -0.4877
  161MOL0     H21695   1.007   0.919  -0.337  2.1884  0.0571  1.3818
  161MOL0     H21696   0.704   0.885  -0.374 -0.5510  0.7902  1.2101
  161MOL0     H21697   0.851   0.789  -0.396  0.9355  4.0999 -0.3926
  161MOL0     H21698   0.721   0.732  -0.290  1.2007 -1.5330 -1.2913
  161MOL0     H21699   0.498   0.676   0.041  0.8374 -0.0661 -1.2131
  161MOL0     H21700   0.263   0.607   0.063  2.3818 -1.7400  0.8147
  161MOL0     H21701  -0.027   0.945   0.062  1.0096 -0.0494 -0.8330
  161MOL0     H21702   0.061   0.857  -0.047 -0.5592  2.2466 -0.2829
  161MOL0     H21703  -0.085   0.664  -0.051  1.3446  2.2926 -3.5371
  161MOL0     H21704  -0.178   0.711   0.087 -1.4881 -0.5995 -0.5314
  161MOL0     H21705  -0.195   0.807  -0.191 -3.8655 -3.7441 -0.4601
  161MOL0     H21706  -0.194   0.940  -0.073  2.4209 -0.1504 -0.8466
  161MOL0     H21707  -0.402   0.704  -0.068 -0.7552  0.6497 -0.8976
  161MOL0     H21708  -0.398   0.851   0.033 -4.3674  0.1622 -0.9183
  161MOL0     H21709  -0.569   0.841  -0.118  0.6518 -1.2258 -0.9861
  161MOL0     H21710  -0.473   0.815  -0.258 -1.3834 -0.9251  0.3196
  161MOL0     H21711  -0.423   1.072  -0.102  2.4250 -2.9396 -0.3177
  161MOL0     H21712  -0.387   1.026  -0.271  1.2946 -0.6890  1.6210
  161MOL0     H21713  -0.617   0.994  -0.341 -0.8558  0.9476  0.0146
  161MOL0     H21714  -0.564   1.166  -0.325 -0.3377  1.8714  1.4788
  161MOL0     H21715  -0.714   1.191  -0.147 -2.1360 -0.5595  0.3612
  161MOL0     H21716  -0.748   1.012  -0.136  0.7061  0.5317  0.8431
  161MOL0     H21717   0.162   0.988   0.225 -1.4717 -0.4962 -2.1970
  161MOL0     H21718   0.384   1.070   0.196  0.2973 -0.5952 -0.5543
  161MOL0     H21719   0.808   1.021   0.095 -0.0251 -1.7127 -0.4575
  161MOL0     H21720   1.058   1.083   0.049  1.1021  0.1001 -0.7691
  161MOL0     H21721   2.741   1.123   0.620 -2.3264 -1.0356  1.2099
  161MOL0     H21722   2.862   1.274   0.762  0.8792 -0.0106 -1.9590
  161MOL0     H21723   2.621   1.574   1.226 -0.4732  1.8673 -2.1370
  161MOL0     H21724   2.739   1.650   1.400  1.9792 -2.0234  0.7148
  161MOL0     H21725   3.033   1.827   1.563 -0.0501  0.1402 -1.1634
  161MOL0     H21726   2.879   1.772   1.532  0.3447 -0.4348 -1.4355
  161MOL0     H21727   3.081   1.569   1.614  0.0270 -0.0576  2.1627
  161MOL0     H21728   2.910   1.549   1.566  0.7731  2.5667 -4.1989
  161MOL0     H21729   2.844   1.695   1.745 -1.0732 -3.0788  0.5206
  161MOL0     H21730   3.017   1.704   1.809  0.4713  0.1499 -0.5830
  161MOL0     H21731   2.934   1.407   1.763 -2.3259 -0.1974 -1.2489
  161MOL0     H21732   2.822   1.492   1.868 -1.8273  3.0528 -3.6003
  161MOL0     H21733   3.178   1.480   2.092  0.1363  2.3610  0.0269
  161MOL0     H21734   3.098   1.684   1.158 -0.1852  1.5139 -4.8497
  161MOL0     H21735   2.962   1.620   0.968 -1.0355  2.1929 -0.5332
  162MOL0     O21736   7.125   6.730   3.803 -0.2576 -0.1248  0.0028
  162MOL0     C21737   7.124   6.633   3.728  0.1094 -0.1936 -0.3597
  162MOL0     O21738   7.042   6.615   3.615  0.3249 -0.2559 -0.6724
  162MOL0     C21739   6.940   6.697   3.610 -0.0048 -0.6787 -0.2532
  162MOL0     C21740   6.854   6.726   3.711 -0.0161 -0.3193  0.2892
  162MOL0     C21741   6.738   6.802   3.688 -0.5045  0.0015  0.1558
  162MOL0     C21742   6.709   6.849   3.563 -0.8910 -0.3952 -0.4362
  162MOL0     O21743   6.594   6.926   3.533 -0.3581  0.1332  0.1890
  162MOL0     C21744   6.480   6.903   3.608 -0.1823 -0.0499 -0.3806
  162MOL0     C21745   6.365   6.963   3.535 -0.1935  0.0493  0.1133
  162MOL0     C21746   6.232   6.957   3.601  0.4530  0.2652  0.8670
  162MOL0     C21747   6.144   7.069   3.552 -0.6791 -0.7980  0.4886
  162MOL0     C21748   6.015   7.061   3.626  0.9921 -0.0666 -0.1205
  162MOL0     C21749   5.908   6.961   3.572 -0.3669 -1.1001 -0.3519
  162MOL0     C21750   5.777   6.989   3.652  0.0502  0.1385 -0.8834
  162MOL0     C21751   5.664   6.911   3.590  1.2384 -0.6995  0.1190
  162MOL0     N21752   5.539   6.981   3.634 -1.0100  0.9726 -0.4008
  162MOL0     C21753   5.458   6.947   3.742 -0.2348  0.4181 -0.4207
  162MOL0     C21754   5.343   7.021   3.729 -0.6117 -0.8231  0.3887
  162MOL0     C21755   5.235   7.010   3.828  0.4951 -0.5606 -0.8798
  162MOL0     C21756   5.136   6.904   3.806 -0.4885  0.2193 -0.2999
  162MOL0     C21757   5.096   6.900   3.655 -1.1027 -0.7130 -0.1612
  162MOL0     C21758   4.995   6.798   3.619  0.2727 -0.0686 -0.0282
  162MOL0     O21759   4.872   6.839   3.690 -0.1990  0.5661  0.3127
  162MOL0     C21760   4.786   6.735   3.714  0.8191 -0.3013  0.3377
  162MOL0     C21761   4.750   6.640   3.621 -0.3067 -0.4348 -0.3472
  162MOL0     C21762   4.648   6.535   3.650 -0.5478 -0.6812 -0.4564
  162MOL0     C21763   4.629   6.426   3.540  0.1153 -0.0754 -1.1472
  162MOL0     C21764   4.573   6.546   3.770 -0.5534  0.2948  0.1171
  162MOL0     C21765   4.461   6.464   3.803 -0.1239 -0.6724  0.0133
  162MOL0     O21766   4.443   6.352   3.734  0.1736 -0.0685 -0.2494
  162MOL0     C21767   4.321   6.287   3.723 -0.3133 -0.6195 -0.6671
  162MOL0     C21768   4.289   6.235   3.600  0.0371  0.4438  0.3718
  162MOL0     C21769   4.168   6.165   3.592  0.2043  0.4437 -0.8529
  162MOL0     C21770   4.077   6.137   3.701 -0.6774  0.5973  0.4893
  162MOL0     O21771   3.978   6.050   3.676 -0.4585 -0.2262  0.4161
  162MOL0     C21772   3.916   5.991   3.794 -0.7657 -0.1821  0.2766
  162MOL0     C21773   3.806   6.088   3.854 -0.0095 -0.8865  0.4824
  162MOL0     C21774   3.740   6.178   3.749  0.4923 -0.1419  1.0050
  162MOL0     C21775   3.647   6.102   3.652 -0.6801  0.1469  0.7121
  162MOL0     C21776   3.579   6.194   3.553 -0.1835  0.2340 -0.0547
  162MOL0     C21777   3.435   6.234   3.603  0.0883 -0.3534  0.4993
  162MOL0     C21778   3.334   6.114   3.586 -0.0476  0.1591  0.0797
  162MOL0     C21779   3.262   6.129   3.457  0.2654 -0.0876 -0.0859
  162MOL0    Cl21780   3.155   5.982   3.423 -0.0694 -0.4651  0.2432
  162MOL0     C21781   4.129   6.183   3.828 -0.6680 -0.1541  0.6421
  162MOL0     C21782   4.246   6.252   3.838  0.0744 -0.0337  1.1664
  162MOL0     O21783   4.397   6.498   3.903 -0.4999  0.5334  0.2637
  162MOL0     C21784   4.615   6.644   3.859  0.7561  0.3684  0.1760
  162MOL0     C21785   4.724   6.728   3.836  0.2903 -0.0489  0.1067
  162MOL0     N21786   5.354   7.107   3.620  0.8067 -0.1126 -0.1911
  162MOL0     N21787   5.470   7.080   3.565 -0.3047 -0.7330  0.1283
  162MOL0     C21788   6.798   6.820   3.465  0.3257  0.5901  0.1214
  162MOL0     C21789   6.910   6.749   3.479 -0.1561  0.1806 -0.3099
  162MOL0     C21790   7.233   6.538   3.753 -0.0118  0.5080 -1.0047
  162MOL0     C21791   7.272   6.453   3.645 -0.2295 -0.0281 -0.1128
  162MOL0     C21792   7.379   6.366   3.661  0.4670 -0.0442  0.1833
  162MOL0     C21793   7.450   6.345   3.780 -0.5731 -0.7628 -0.4627
  162MOL0     O21794   7.545   6.249   3.792 -0.6715  0.2123  0.5229
  162MOL0     C21795   7.636   6.249   3.896 -0.2422 -0.2188  0.0908
  162MOL0     C21796   7.759   6.184   3.855  1.4068  0.3312 -0.5306
  162MOL0     C21797   7.729   6.048   3.792 -0.2542 -1.2232  0.2164
  162MOL0     C21798   7.827   5.939   3.833  0.6413 -0.2590 -0.1015
  162MOL0     C21799   7.951   5.970   3.764 -0.1407 -0.3844  0.3032
  162MOL0     C21800   8.060   6.011   3.716 -0.0725 -0.1716 -0.7284
  162MOL0     C21801   7.408   6.433   3.886 -0.0282 -0.0845  0.8000
  162MOL0     C21802   7.304   6.522   3.872  0.4595  1.4199 -0.0536
  162MOL0     H21803   6.868   6.672   3.804 -2.7740 -3.5056 -0.9144
  162MOL0     H21804   6.672   6.827   3.770 -0.2417 -0.0712  0.3941
  162MOL0     H21805   6.473   6.794   3.615  3.1724 -0.3861 -0.3235
  162MOL0     H21806   6.485   6.948   3.707 -1.4721  0.2810 -0.4506
  162MOL0     H21807   6.395   7.065   3.510 -2.1794 -0.0285 -3.2767
  162MOL0     H21808   6.357   6.928   3.431  0.8882  3.0917 -1.1312
  162MOL0     H21809   6.181   6.860   3.591  0.8503  0.1866 -0.7201
  162MOL0     H21810   6.252   6.976   3.707 -0.7515 -0.8570  1.3287
  162MOL0     H21811   6.197   7.163   3.575 -0.5215 -0.9051  0.5673
  162MOL0     H21812   6.133   7.070   3.443  0.2975  0.7581  0.3585
  162MOL0     H21813   6.040   7.036   3.729 -0.6912  3.6511  1.3751
  162MOL0     H21814   5.972   7.161   3.613  1.5593  0.1880 -0.0383
  162MOL0     H21815   5.908   6.977   3.464 -0.9819  3.8597  0.1477
  162MOL0     H21816   5.940   6.857   3.575 -0.9670 -1.3442 -1.7360
  162MOL0     H21817   5.786   6.951   3.754 -1.9629  1.3754 -0.1695
  162MOL0     H21818   5.754   7.096   3.651 -0.5500  0.0132 -1.0994
  162MOL0     H21819   5.665   6.810   3.634 -1.0466  0.2019  2.4762
  162MOL0     H21820   5.679   6.905   3.482  1.1825  0.7728  0.0225
  162MOL0     H21821   5.486   6.881   3.824 -2.9249  0.4263  0.6152
  162MOL0     H21822   5.285   6.993   3.924  1.0122  2.0885 -0.5953
  162MOL0     H21823   5.186   7.108   3.826 -0.2900 -0.9507 -1.5703
  162MOL0     H21824   5.042   6.928   3.856 -1.1595  0.9280 -1.8544
  162MOL0     H21825   5.183   6.816   3.852 -1.0374  1.0660  1.9999
  162MOL0     H21826   5.164   6.872   3.574 -3.6255 -0.1818 -2.6507
  162MOL0     H21827   5.049   6.995   3.627  2.4345  0.7456 -1.6829
  162MOL0     H21828   5.025   6.699   3.653 -2.2754 -1.3348 -1.1770
  162MOL0     H21829   4.985   6.786   3.511 -1.1917 -2.4895  0.3154
  162MOL0     H21830   4.792   6.642   3.521  2.2674 -1.8246  0.6130
  162MOL0     H21831   4.714   6.437   3.471  1.3772  1.8914  0.5817
  162MOL0     H21832   4.645   6.323   3.574  1.9803  0.2630 -0.8851
  162MOL0     H21833   4.534   6.428   3.486 -0.5872 -0.0943  0.0516
  162MOL0     H21834   4.356   6.255   3.516 -1.8606 -1.8999 -1.8784
  162MOL0     H21835   4.127   6.118   3.503  0.8344 -0.6597 -0.5721
  162MOL0     H21836   3.864   5.897   3.771  1.7120 -1.7393  0.6040
  162MOL0     H21837   3.991   5.964   3.868  0.5477  0.0445 -0.9329
  162MOL0     H21838   3.720   6.038   3.900 -0.3948 -0.0128  0.7371
  162MOL0     H21839   3.844   6.159   3.928  1.3124  1.0457 -1.8987
  162MOL0     H21840   3.818   6.235   3.698 -0.3351  1.5475  1.5368
  162MOL0     H21841   3.678   6.257   3.791 -0.3087 -1.6595  2.8181
  162MOL0     H21842   3.711   6.038   3.591  0.6268  1.3999  0.7178
  162MOL0     H21843   3.583   6.039   3.715  0.9578 -3.0294 -0.5564
  162MOL0     H21844   3.577   6.153   3.452 -0.0557  1.4370 -0.5629
  162MOL0     H21845   3.630   6.291   3.547  2.8679 -1.2503  0.1051
  162MOL0     H21846   3.443   6.279   3.703  2.6705  1.7128 -0.5318
  162MOL0     H21847   3.389   6.311   3.541  1.1448  0.0766  0.2439
  162MOL0     H21848   3.258   6.096   3.663  0.5500 -2.4742  0.1766
  162MOL0     H21849   3.383   6.016   3.587 -3.5577 -1.7829  1.7899
  162MOL0     H21850   3.336   6.129   3.376 -0.9158  0.1282 -1.2075
  162MOL0     H21851   3.205   6.222   3.457  0.3508 -0.0310 -0.7543
  162MOL0     H21852   4.085   6.159   3.924 -0.7025 -0.2929  0.5925
  162MOL0     H21853   4.293   6.276   3.933  2.3630 -2.0172  0.6548
  162MOL0     H21854   4.570   6.661   3.957 -0.6853 -0.6054 -0.2911
  162MOL0     H21855   4.745   6.800   3.915 -0.4477  2.5052 -1.8748
  162MOL0     H21856   6.779   6.861   3.366  5.4651  4.2636  0.2468
  162MOL0     H21857   6.968   6.727   3.390 -0.1477 -2.9776  0.3565
  162MOL0     H21858   7.233   6.454   3.544  1.1479 -0.4802 -0.6824
  162MOL0     H21859   7.417   6.312   3.574  2.1591  1.4440 -0.0836
  162MOL0     H21860   7.653   6.354   3.924 -1.1960 -0.6328  2.4308
  162MOL0     H21861   7.594   6.193   3.980  0.2633  1.7325  1.7178
  162MOL0     H21862   7.833   6.171   3.934  0.9544  1.2302  0.0572
  162MOL0     H21863   7.805   6.245   3.776 -1.5790 -2.1198 -4.5708
  162MOL0     H21864   7.738   6.041   3.683  0.1128  0.1515  0.1482
  162MOL0     H21865   7.631   6.012   3.823  0.3908 -2.3562  1.0242
  162MOL0     H21866   7.787   5.840   3.806 -1.5757  0.2915  0.9938
  162MOL0     H21867   7.844   5.946   3.941  0.8789 -2.0955  0.0183
  162MOL0     H21868   8.157   6.031   3.676  0.8864 -1.1455  0.9943
  162MOL0     H21869   7.438   6.418   3.989 -0.4968  1.1649  1.1298
  162MOL0     H21870   7.279   6.568   3.967 -0.7747 -1.9920  1.4178
  163MOL0     O21871   0.055   3.510   7.552 -0.0964  0.0444  0.3932
  163MOL0     C21872   0.154   3.457   7.584  0.7275 -0.3450  0.7383
  163MOL0     O21873   0.158   3.329   7.640 -0.2126  0.3861 -0.0720
  163MOL0     C21874   0.039   3.259   7.659  1.0847  0.1151 -0.6780
  163MOL0     C21875  -0.090   3.314   7.665 -0.1358 -0.2049  0.4151
  163MOL0     C21876  -0.201   3.240   7.701  0.1579 -0.0001 -0.7841
  163MOL0     C21877  -0.192   3.108   7.750 -0.5203 -0.1184 -1.2390
  163MOL0     O21878  -0.303   3.029   7.789  0.2108  0.7685 -0.4266
  163MOL0     C21879  -0.430   3.095   7.810  0.1604  0.4684 -0.7406
  163MOL0     C21880  -0.525   3.096   7.688 -0.1776  1.1572  0.1921
  163MOL0     C21881  -0.538   2.945   7.630 -0.5133  0.2499 -0.6941
  163MOL0     C21882  -0.663   2.926   7.534  0.1711  0.0846 -0.1254
  163MOL0     C21883  -0.683   2.779   7.516  0.5877  0.0187  0.3347
  163MOL0     C21884  -0.797   2.754   7.418  0.0242  0.3449  0.2712
  163MOL0     C21885  -0.748   2.794   7.279  0.4352  0.1875  0.2163
  163MOL0     C21886  -0.830   2.729   7.165 -0.3650 -0.7935 -0.5976
  163MOL0     N21887  -0.968   2.771   7.169  0.3205 -0.4934  0.1172
  163MOL0     C21888  -1.073   2.707   7.228 -0.4704 -0.2657  0.1628
  163MOL0     C21889  -1.171   2.796   7.215  0.2520  0.4246  0.2364
  163MOL0     C21890  -1.306   2.785   7.277 -0.1482 -0.5713 -0.0539
  163MOL0     C21891  -1.328   2.827   7.425 -0.5273  0.3746  0.5895
  163MOL0     C21892  -1.317   2.977   7.441  0.0811 -0.1351 -1.1456
  163MOL0     C21893  -1.427   3.073   7.385  0.2647  0.9362  0.3999
  163MOL0     O21894  -1.561   3.040   7.440  0.7534  0.1798 -0.1004
  163MOL0     C21895  -1.666   3.092   7.367  0.4341  0.5406  0.2555
  163MOL0     C21896  -1.657   3.174   7.253 -0.6286 -0.1973 -0.2104
  163MOL0     C21897  -1.771   3.219   7.190  0.4660 -0.0382  0.3176
  163MOL0     C21898  -1.752   3.302   7.069 -0.0609 -0.1826  0.1270
  163MOL0     C21899  -1.897   3.198   7.254 -0.0418 -0.5299  0.1333
  163MOL0     C21900  -2.027   3.252   7.207 -0.1163  0.2183 -0.6770
  163MOL0     O21901  -2.128   3.224   7.288  0.3898 -0.1751  0.0169
  163MOL0     C21902  -2.236   3.316   7.287  0.7965  0.0435 -0.0529
  163MOL0     C21903  -2.362   3.256   7.276  0.2902 -0.1615  0.1271
  163MOL0     C21904  -2.476   3.337   7.247 -0.5219 -0.1693 -0.2571
  163MOL0     C21905  -2.471   3.483   7.243 -0.8430  0.0418  0.6846
  163MOL0     O21906  -2.569   3.569   7.220 -0.2947  0.5988 -0.0890
  163MOL0     C21907  -2.696   3.521   7.168 -0.4313 -0.0065  0.6411
  163MOL0     C21908  -2.788   3.648   7.144 -0.3266 -0.6636 -1.5431
  163MOL0     C21909  -2.901   3.604   7.051  0.1631  0.1738 -0.6980
  163MOL0     C21910  -2.856   3.569   6.904 -0.2927 -0.7712 -0.2339
  163MOL0     C21911  -2.978   3.566   6.817 -0.2103  0.0022 -0.1774
  163MOL0     C21912  -3.088   3.465   6.846 -0.0275  0.2658 -0.1538
  163MOL0     C21913  -3.042   3.317   6.829  0.4050  0.0704 -0.5525
  163MOL0     C21914  -3.079   3.253   6.692  0.0688 -0.3814  0.3560
  163MOL0    Cl21915  -3.254   3.204   6.688 -0.0215 -0.1383  0.8386
  163MOL0     C21916  -2.342   3.544   7.269  0.0345 -0.4358 -0.5910
  163MOL0     C21917  -2.230   3.459   7.288  0.0055  0.3259  0.0470
  163MOL0     O21918  -2.038   3.307   7.093  0.4376  0.2564  0.3650
  163MOL0     C21919  -1.900   3.123   7.375 -0.6343  0.1696 -0.2281
  163MOL0     C21920  -1.786   3.059   7.425 -0.0539 -0.5246  0.2299
  163MOL0     N21921  -1.117   2.910   7.167 -0.5373  0.1346  0.4331
  163MOL0     N21922  -0.997   2.892   7.135  0.4140  0.0461  0.3716
  163MOL0     C21923  -0.058   3.060   7.772  0.3088  0.0376 -0.0507
  163MOL0     C21924   0.055   3.129   7.718  0.0440 -0.7048  0.4702
  163MOL0     C21925   0.284   3.521   7.564 -0.1107 -0.2588 -0.0241
  163MOL0     C21926   0.405   3.466   7.613 -0.6561  0.4181 -0.5848
  163MOL0     C21927   0.519   3.545   7.606  0.1708  0.0057  0.5778
  163MOL0     C21928   0.515   3.663   7.535 -1.1262 -0.1510 -0.1673
  163MOL0     O21929   0.641   3.719   7.512  0.4033  0.7225 -0.2986
  163MOL0     C21930   0.660   3.829   7.407 -0.5081  0.6146  0.5798
  163MOL0     C21931   0.646   3.975   7.447 -0.4922  0.1225  0.5306
  163MOL0     C21932   0.639   4.059   7.321 -0.5057  0.9352 -0.1792
  163MOL0     C21933   0.771   4.093   7.250 -0.2449  1.0072  0.1350
  163MOL0     C21934   0.850   4.184   7.339  0.6271 -0.1631  0.2643
  163MOL0     C21935   0.914   4.271   7.398  0.0403 -1.3061  0.1876
  163MOL0     C21936   0.397   3.724   7.479 -0.6481  0.3072  0.3195
  163MOL0     C21937   0.286   3.648   7.499 -0.2262 -0.2193  1.5156
  163MOL0     H21938  -0.111   3.419   7.646 -0.3175 -0.4692 -0.9169
  163MOL0     H21939  -0.296   3.289   7.685 -0.7043 -1.6775 -1.0428
  163MOL0     H21940  -0.480   3.054   7.898 -0.2702  1.8162 -0.3404
  163MOL0     H21941  -0.430   3.201   7.837  1.4472 -0.2553  2.5077
  163MOL0     H21942  -0.622   3.122   7.730 -0.5642  1.0156 -0.5947
  163MOL0     H21943  -0.503   3.171   7.612  1.1098  1.1678  0.5448
  163MOL0     H21944  -0.450   2.918   7.571  0.0496  1.7900 -0.6073
  163MOL0     H21945  -0.543   2.871   7.710 -1.2019  1.3846  0.3515
  163MOL0     H21946  -0.752   2.964   7.584  0.6918 -0.3642  1.1731
  163MOL0     H21947  -0.650   2.984   7.442 -0.6275  1.0163  0.3280
  163MOL0     H21948  -0.599   2.726   7.471 -0.4371 -0.5802 -0.9456
  163MOL0     H21949  -0.701   2.731   7.612  0.5378 -1.0272 -0.1882
  163MOL0     H21950  -0.828   2.649   7.418 -1.8232  0.8561  0.5094
  163MOL0     H21951  -0.889   2.809   7.438 -1.3740 -1.0684 -1.8026
  163MOL0     H21952  -0.747   2.903   7.275 -0.3455  0.3517  2.7776
  163MOL0     H21953  -0.645   2.759   7.270  0.0635 -1.4377  1.7265
  163MOL0     H21954  -0.816   2.621   7.165 -1.0606 -0.8918 -1.4464
  163MOL0     H21955  -0.782   2.775   7.078  2.3624  0.7964  1.5606
  163MOL0     H21956  -1.073   2.605   7.266  0.6022  0.5009  2.3722
  163MOL0     H21957  -1.371   2.845   7.213  1.6783 -1.8134 -3.2768
  163MOL0     H21958  -1.340   2.681   7.279  0.5378 -0.8101  2.5905
  163MOL0     H21959  -1.267   2.765   7.490 -0.4385 -0.2115 -0.0372
  163MOL0     H21960  -1.429   2.805   7.460 -0.9274  0.2576 -0.5931
  163MOL0     H21961  -1.218   3.016   7.414 -0.2710  3.6762  1.9845
  163MOL0     H21962  -1.302   2.992   7.549 -1.1133  1.5542 -1.1606
  163MOL0     H21963  -1.410   3.047   7.280  4.0475 -0.8267  1.2618
  163MOL0     H21964  -1.400   3.179   7.386 -0.1755  1.0780 -0.8398
  163MOL0     H21965  -1.562   3.209   7.214 -0.7557 -0.8067 -1.0999
  163MOL0     H21966  -1.787   3.400   7.103  3.0140  0.6237  1.3232
  163MOL0     H21967  -1.646   3.324   7.053 -0.6523  2.3790 -0.7265
  163MOL0     H21968  -1.794   3.260   6.977 -0.5558 -1.3263  0.8455
  163MOL0     H21969  -2.375   3.148   7.276  2.6733 -0.5099 -0.1264
  163MOL0     H21970  -2.573   3.290   7.236 -2.0515  2.3262  1.4892
  163MOL0     H21971  -2.678   3.479   7.069 -1.6365 -2.3433  1.3426
  163MOL0     H21972  -2.740   3.443   7.231  0.9818  0.1436  1.8774
  163MOL0     H21973  -2.825   3.669   7.245  0.4237 -1.9266 -0.9853
  163MOL0     H21974  -2.735   3.723   7.084 -2.1327  0.3763 -1.8961
  163MOL0     H21975  -2.974   3.685   7.049  1.4252  1.3571  0.0516
  163MOL0     H21976  -2.934   3.504   7.081  1.3406 -0.3758 -1.1430
  163MOL0     H21977  -2.793   3.647   6.861 -1.7342 -0.3740 -1.7409
  163MOL0     H21978  -2.806   3.473   6.895  0.1855 -0.3778 -2.1255
  163MOL0     H21979  -2.948   3.558   6.712 -0.1418 -1.9513 -0.0434
  163MOL0     H21980  -3.017   3.668   6.824 -0.5144 -0.1976  1.1148
  163MOL0     H21981  -3.123   3.476   6.949  0.3711 -0.8076  0.1034
  163MOL0     H21982  -3.176   3.498   6.790 -1.1938 -0.6572  1.1049
  163MOL0     H21983  -3.080   3.262   6.916 -3.3567  1.5400 -1.0798
  163MOL0     H21984  -2.935   3.305   6.849 -0.0241 -1.9220  0.9504
  163MOL0     H21985  -3.021   3.161   6.682  1.2664  0.4645 -0.8001
  163MOL0     H21986  -3.061   3.329   6.615 -0.5975  0.5972  1.1409
  163MOL0     H21987  -2.342   3.652   7.282 -0.1982 -0.6455  1.3807
  163MOL0     H21988  -2.134   3.508   7.299 -0.4046  0.6928  2.7872
  163MOL0     H21989  -1.990   3.089   7.426  1.6184 -2.3698  2.4851
  163MOL0     H21990  -1.791   2.997   7.514 -1.9441  0.4664  0.8743
  163MOL0     H21991  -0.054   2.965   7.826 -1.0628  1.7925  3.4661
  163MOL0     H21992   0.161   3.108   7.732  0.4134  1.1473  0.7012
  163MOL0     H21993   0.409   3.375   7.671  2.5542  1.1992  0.6513
  163MOL0     H21994   0.611   3.503   7.645  2.0878  1.4409 -2.0327
  163MOL0     H21995   0.766   3.826   7.376 -1.2497  0.4169 -2.2647
  163MOL0     H21996   0.608   3.800   7.316  4.6490 -1.8995 -2.0070
  163MOL0     H21997   0.730   4.005   7.510 -0.0456  1.6919 -0.7429
  163MOL0     H21998   0.553   3.999   7.500  0.5719  2.6978  1.4209
  163MOL0     H21999   0.598   4.156   7.352 -1.3513 -0.1505  2.3799
  163MOL0     H22000   0.572   4.008   7.252  3.0019 -2.1566 -1.6026
  163MOL0     H22001   0.741   4.138   7.155 -2.1386 -0.2571  0.0578
  163MOL0     H22002   0.828   4.003   7.227  1.2508  2.5716 -2.6959
  163MOL0     H22003   0.956   4.360   7.440 -3.4152  1.1432 -1.0162
  163MOL0     H22004   0.397   3.815   7.419 -0.0397  0.4147  0.4790
  163MOL0     H22005   0.195   3.694   7.461 -0.1872  0.2779  2.0141
  164MOL0     O22006   1.558   8.708   9.955  1.1331  0.8352  0.0133
  164MOL0     C22007   1.604   8.668  10.062  0.6002  0.2317  1.0035
  164MOL0     O22008   1.529   8.617  10.167  0.6722  0.6875 -0.0230
  164MOL0     C22009   1.411   8.554  10.152  0.4410 -0.7222 -0.0929
  164MOL0     C22010   1.316   8.581  10.248 -0.1495  1.3559 -1.4398
  164MOL0     C22011   1.193   8.506  10.251  0.2885 -0.8525 -0.5036
  164MOL0     C22012   1.150   8.422  10.143 -0.1905  0.0615 -0.4293
  164MOL0     O22013   1.025   8.370  10.156  0.0269 -0.2888  1.2546
  164MOL0     C22014   0.957   8.352  10.037  0.5551  0.1895 -0.5900
  164MOL0     C22015   0.817   8.349  10.095  0.5292 -0.6864  0.1652
  164MOL0     C22016   0.768   8.480  10.159 -0.1549  0.1671 -0.0036
  164MOL0     C22017   0.642   8.442  10.250 -0.1473  0.5487  0.1076
  164MOL0     C22018   0.597   8.562  10.325  0.2971  0.4551  0.5201
  164MOL0     C22019   0.709   8.632  10.407 -0.1875  0.2869  1.0663
  164MOL0     C22020   0.657   8.748  10.494 -0.3214 -0.2509  0.4988
  164MOL0     C22021   0.769   8.804  10.575  0.0991  0.2763  0.4674
  164MOL0     N22022   0.805   8.702  10.680 -0.2798 -0.7782  0.0167
  164MOL0     C22023   0.732   8.688  10.802 -0.2040 -0.3093  0.1102
  164MOL0     C22024   0.815   8.612  10.883 -0.9722 -0.0660 -0.0964
  164MOL0     C22025   0.800   8.561  11.023 -0.5969  0.8377  0.1277
  164MOL0     C22026   0.661   8.601  11.082  0.3021  1.6048 -0.5749
  164MOL0     C22027   0.551   8.493  11.079 -0.1637  0.3538 -0.3913
  164MOL0     C22028   0.504   8.458  10.935  0.7435  0.2696  0.3970
  164MOL0     O22029   0.420   8.558  10.891 -0.1329 -0.7182  0.4418
  164MOL0     C22030   0.311   8.531  10.816 -0.0067  0.6025  0.2544
  164MOL0     C22031   0.315   8.542  10.683 -0.4582  0.5683  0.1632
  164MOL0     C22032   0.203   8.517  10.598 -0.1662  0.3990 -0.2759
  164MOL0     C22033   0.207   8.546  10.449  0.0672 -0.5221 -0.6394
  164MOL0     C22034   0.081   8.474  10.664 -1.3840 -0.9581  0.7230
  164MOL0     C22035  -0.047   8.450  10.593  0.0857 -0.3574  0.2072
  164MOL0     O22036  -0.046   8.407  10.459 -0.1553 -0.4895 -0.7494
  164MOL0     C22037  -0.155   8.385  10.386  0.6659  0.7424  0.7773
  164MOL0     C22038  -0.276   8.334  10.447 -0.5677  0.4212 -0.5797
  164MOL0     C22039  -0.385   8.308  10.369 -0.0660  0.4427  0.3232
  164MOL0     C22040  -0.383   8.342  10.231  0.9909  1.0307 -1.1771
  164MOL0     O22041  -0.502   8.321  10.176  0.5554  0.1568  0.0573
  164MOL0     C22042  -0.500   8.357  10.038  0.1925 -0.0735 -0.4308
  164MOL0     C22043  -0.645   8.370   9.986 -0.1707 -0.4263  0.4092
  164MOL0     C22044  -0.721   8.480  10.055 -0.7106  0.5378  0.3059
  164MOL0     C22045  -0.867   8.481   9.993  0.1797 -0.2371 -0.4445
  164MOL0     C22046  -0.948   8.600  10.049  0.2167  0.1223 -0.5119
  164MOL0     C22047  -1.098   8.596  10.009  0.4412  0.6244  0.6457
  164MOL0     C22048  -1.161   8.732  10.043  0.3409 -0.2449 -0.8608
  164MOL0     C22049  -1.304   8.740   9.983 -0.0158 -0.6768  0.3055
  164MOL0    Cl22050  -1.398   8.626  10.060 -0.1585 -0.3555  0.4938
  164MOL0     C22051  -0.271   8.418  10.181 -0.7753 -0.7874 -0.7499
  164MOL0     C22052  -0.156   8.423  10.255  0.1154  0.1797 -0.3854
  164MOL0     O22053  -0.147   8.478  10.664 -0.0975  0.0159  0.5323
  164MOL0     C22054   0.083   8.471  10.808  0.0789  0.1363 -0.0557
  164MOL0     C22055   0.197   8.493  10.882 -0.4462 -0.4710 -0.8112
  164MOL0     N22056   0.938   8.598  10.819  0.3518  0.4138 -0.4187
  164MOL0     N22057   0.929   8.651  10.699  0.8599  0.1319 -0.2201
  164MOL0     C22058   1.248   8.400  10.041  0.2894  0.1172 -0.4469
  164MOL0     C22059   1.373   8.472  10.052 -0.2792  0.7665 -0.0860
  164MOL0     C22060   1.744   8.681  10.082 -0.4540 -1.1814 -0.7253
  164MOL0     C22061   1.821   8.741   9.979 -0.5637  0.1949 -0.3383
  164MOL0     C22062   1.958   8.741   9.978  0.1042  0.2962 -0.2336
  164MOL0     C22063   2.026   8.697  10.087 -0.2094 -0.5430  1.1173
  164MOL0     O22064   2.164   8.688  10.073  0.2707  0.1593 -0.4935
  164MOL0     C22065   2.240   8.608  10.168  0.8772  0.0907 -0.5462
  164MOL0     C22066   2.276   8.703  10.288  0.6137  0.4061 -0.3187
  164MOL0     C22067   2.344   8.619  10.404 -0.0886 -0.5029 -0.0241
  164MOL0     C22068   2.505   8.621  10.397  0.2458 -0.0575 -0.2620
  164MOL0     C22069   2.559   8.742  10.457  0.0879 -0.0429 -0.0879
  164MOL0     C22070   2.599   8.849  10.499 -1.0949 -0.7336 -0.2941
  164MOL0     C22071   1.957   8.645  10.198  0.8755 -0.5663  0.3058
  164MOL0     C22072   1.816   8.648  10.202 -0.1717 -0.0667  0.2778
  164MOL0     H22073   1.360   8.633  10.332  2.7247 -1.3237 -1.0752
  164MOL0     H22074   1.118   8.527  10.326 -0.3822  2.1142 -1.8423
  164MOL0     H22075   0.959   8.431   9.961 -1.2610  0.3425 -0.5429
  164MOL0     H22076   0.979   8.254   9.994 -0.3445 -0.8226  1.1367
  164MOL0     H22077   0.745   8.306  10.024  1.5747  0.0069 -1.3749
  164MOL0     H22078   0.817   8.273  10.173  0.9678 -0.2648  0.5855
  164MOL0     H22079   0.852   8.531  10.207 -0.7621  1.4539 -0.2647
  164MOL0     H22080   0.737   8.557  10.087  0.8861  0.2910 -0.3342
  164MOL0     H22081   0.562   8.399  10.188  2.2331 -1.4284 -1.7989
  164MOL0     H22082   0.665   8.363  10.322  2.3790  4.1488  3.6718
  164MOL0     H22083   0.549   8.634  10.257 -2.2662 -1.9265 -0.4159
  164MOL0     H22084   0.527   8.528  10.402  0.2738  0.0444  0.3207
  164MOL0     H22085   0.758   8.557  10.470  0.1472 -1.5199 -1.2023
  164MOL0     H22086   0.784   8.671  10.338 -4.8610  2.4238 -3.4673
  164MOL0     H22087   0.614   8.827  10.431  2.3850  1.1095  0.2035
  164MOL0     H22088   0.571   8.711  10.550 -1.2445 -2.3241 -2.0585
  164MOL0     H22089   0.728   8.894  10.622  0.5786  1.2944 -1.0044
  164MOL0     H22090   0.852   8.836  10.511  0.6443  2.5920  2.2000
  164MOL0     H22091   0.638   8.730  10.834  0.6889  0.1290  2.3615
  164MOL0     H22092   0.824   8.454  11.018 -0.4552  0.8017  1.3261
  164MOL0     H22093   0.863   8.607  11.099 -2.0006  0.4900  1.5650
  164MOL0     H22094   0.631   8.702  11.054 -1.2688  0.8833 -1.6265
  164MOL0     H22095   0.686   8.614  11.187 -4.1104  0.3896  0.8374
  164MOL0     H22096   0.466   8.527  11.139  1.1379  0.4223  1.5100
  164MOL0     H22097   0.586   8.404  11.133  0.8858  0.2685 -1.1696
  164MOL0     H22098   0.455   8.361  10.924  3.1990 -0.7255 -3.6810
  164MOL0     H22099   0.584   8.451  10.861 -0.1372  1.8085 -0.7372
  164MOL0     H22100   0.408   8.578  10.639 -1.1300  0.7858 -1.1569
  164MOL0     H22101   0.125   8.610  10.416  1.5607  1.3132 -0.9636
  164MOL0     H22102   0.298   8.604  10.428 -1.2231  1.2829 -1.5336
  164MOL0     H22103   0.216   8.448  10.401 -0.8890 -0.5307 -0.8153
  164MOL0     H22104  -0.275   8.299  10.550 -0.4152 -1.5485 -1.1967
  164MOL0     H22105  -0.476   8.252  10.391  1.7356 -3.2939 -0.8370
  164MOL0     H22106  -0.465   8.459  10.021  0.1225  0.0508  0.1526
  164MOL0     H22107  -0.439   8.286   9.982  0.6937 -1.9227  2.2772
  164MOL0     H22108  -0.636   8.378   9.877  0.2600  2.2859  0.5794
  164MOL0     H22109  -0.696   8.275  10.002 -1.5750  0.4919  1.6679
  164MOL0     H22110  -0.663   8.569  10.028 -2.6059  2.3618  1.8616
  164MOL0     H22111  -0.719   8.466  10.164 -0.0052 -0.3215  0.1896
  164MOL0     H22112  -0.862   8.492   9.884 -0.6513  0.9547 -0.3838
  164MOL0     H22113  -0.918   8.392  10.029  1.4440 -0.9061 -0.2688
  164MOL0     H22114  -0.899   8.694  10.022 -0.3155  1.2982  2.2798
  164MOL0     H22115  -0.935   8.594  10.157  1.6986  0.7805 -0.6223
  164MOL0     H22116  -1.099   8.577   9.901  0.2730 -0.6945  0.8621
  164MOL0     H22117  -1.157   8.513  10.050 -2.4675  2.5809  0.7645
  164MOL0     H22118  -1.107   8.818  10.004 -1.1544  0.0809 -2.3463
  164MOL0     H22119  -1.170   8.731  10.152 -0.9134 -0.5667 -0.9495
  164MOL0     H22120  -1.291   8.718   9.877  0.6354 -0.0565  0.2456
  164MOL0     H22121  -1.359   8.835   9.987  1.7463  0.5432 -1.9950
  164MOL0     H22122  -0.267   8.455  10.079 -3.3072  0.3994 -0.4985
  164MOL0     H22123  -0.071   8.461  10.199  1.4850 -2.4273 -0.2330
  164MOL0     H22124  -0.009   8.446  10.859  0.8529  0.8573  1.7675
  164MOL0     H22125   0.207   8.467  10.987 -0.0739 -2.4873 -1.2937
  164MOL0     H22126   1.246   8.338   9.951  3.1707 -3.1698  1.4953
  164MOL0     H22127   1.441   8.444   9.972  1.3248  1.1919  1.0885
  164MOL0     H22128   1.776   8.795   9.897 -0.0293 -1.5395 -1.8538
  164MOL0     H22129   2.003   8.804   9.901 -1.8378  1.2446 -0.6591
  164MOL0     H22130   2.175   8.522  10.186  2.4140 -0.8248  0.9132
  164MOL0     H22131   2.332   8.569  10.123 -0.6926 -1.2892 -2.7819
  164MOL0     H22132   2.182   8.748  10.321  1.2449 -0.6377  3.4928
  164MOL0     H22133   2.347   8.783  10.266  0.9854  1.5113  3.9254
  164MOL0     H22134   2.310   8.517  10.387  0.2383 -0.0586 -4.7493
  164MOL0     H22135   2.311   8.635  10.507 -1.8594 -4.3013  0.1379
  164MOL0     H22136   2.535   8.620  10.292 -1.6133 -0.8574 -0.8341
  164MOL0     H22137   2.540   8.536  10.457 -3.0985 -0.9436  0.6873
  164MOL0     H22138   2.631   8.941  10.544 -2.5034  0.4437 -1.5911
  164MOL0     H22139   2.008   8.610  10.287 -1.2418 -2.7519  0.7834
  164MOL0     H22140   1.767   8.601  10.286 -0.5695 -3.0902 -1.4997
  165MOL0     O22141   9.817   5.955   0.551  0.1382  0.3718 -0.0570
  165MOL0     C22142   9.776   6.006   0.658  0.0938  0.6577  0.0415
  165MOL0     O22143   9.852   6.053   0.766  0.2335 -0.2028 -0.5118
  165MOL0     C22144   9.994   6.050   0.756  0.2487  0.0869 -0.4766
  165MOL0     C22145  10.066   6.165   0.774 -0.1389  0.1320 -0.7758
  165MOL0     C22146  10.206   6.169   0.782  0.1839 -0.3850  0.0771
  165MOL0     C22147  10.275   6.050   0.778  0.2621  0.5653 -0.3147
  165MOL0     O22148  10.409   6.036   0.794 -0.7092  0.4173  0.3881
  165MOL0     C22149  10.495   6.144   0.763 -0.0426 -0.1196 -0.8040
  165MOL0     C22150  10.502   6.164   0.610 -0.2813 -0.5147  1.1211
  165MOL0     C22151  10.613   6.267   0.565  0.1588  0.6052  0.0858
  165MOL0     C22152  10.730   6.185   0.507 -0.5003  1.2450  0.1116
  165MOL0     C22153  10.748   6.200   0.360 -0.8909 -0.2457  0.3286
  165MOL0     C22154  10.829   6.092   0.275 -0.6582 -0.2448 -0.5046
  165MOL0     C22155  10.745   5.969   0.257 -0.3972  0.1850 -0.9619
  165MOL0     C22156  10.649   5.963   0.138  0.7370 -0.0190  0.4683
  165MOL0     N22157  10.530   6.043   0.170  0.0743 -0.3974  0.5650
  165MOL0     C22158  10.443   6.016   0.267 -0.6180  0.0333  0.4362
  165MOL0     C22159  10.361   6.118   0.255  0.8170  0.2003  0.0553
  165MOL0     C22160  10.238   6.127   0.342 -0.2592  0.1454  0.7920
  165MOL0     C22161  10.108   6.092   0.270 -0.1065  0.5579  0.6107
  165MOL0     C22162  10.107   5.946   0.228  0.2363  1.3164 -0.1977
  165MOL0     C22163   9.958   5.923   0.185 -0.7715  0.4169 -0.4948
  165MOL0     O22164   9.901   6.007   0.085 -0.3470 -0.3949 -0.1950
  165MOL0     C22165   9.769   6.046   0.088  0.3030  0.4970  0.3015
  165MOL0     C22166   9.669   5.981   0.150 -0.4521  0.4444 -0.2968
  165MOL0     C22167   9.534   6.028   0.145 -0.7589  0.5455  0.5350
  165MOL0     C22168   9.433   5.963   0.239 -0.1406  0.4710  0.2296
  165MOL0     C22169   9.507   6.148   0.076 -0.2927 -0.3864  0.1493
  165MOL0     C22170   9.377   6.212   0.080  0.8590  0.2089  0.3528
  165MOL0     O22171   9.367   6.351   0.074  0.6333 -0.5218 -0.2485
  165MOL0     C22172   9.239   6.407   0.059  0.1307  0.3369  0.8206
  165MOL0     C22173   9.150   6.427   0.167  0.2692  0.9096  0.5056
  165MOL0     C22174   9.020   6.488   0.148 -0.4464 -0.4986 -0.0574
  165MOL0     C22175   8.984   6.538   0.022  0.3603  0.1198  0.2315
  165MOL0     O22176   8.848   6.573   0.026 -0.5741  0.2299  0.1453
  165MOL0     C22177   8.767   6.548  -0.089  0.2272 -0.5379 -0.0434
  165MOL0     C22178   8.622   6.554  -0.050 -0.3936  0.1158 -0.2203
  165MOL0     C22179   8.522   6.545  -0.159  1.1129  0.2450 -0.5443
  165MOL0     C22180   8.373   6.543  -0.100 -0.4003  0.2548  0.8550
  165MOL0     C22181   8.268   6.525  -0.213  0.6308 -0.7685 -0.4820
  165MOL0     C22182   8.133   6.475  -0.153  0.0805  0.9799 -0.2735
  165MOL0     C22183   8.024   6.465  -0.266  0.5525  0.0817 -0.6880
  165MOL0     C22184   7.874   6.444  -0.211 -0.3814  0.0449 -0.1472
  165MOL0    Cl22185   7.754   6.476  -0.335 -0.1190  0.3070  0.2192
  165MOL0     C22186   9.073   6.516  -0.090  0.7266  0.2566 -0.2717
  165MOL0     C22187   9.198   6.452  -0.067 -0.0138 -0.0690  0.0506
  165MOL0     O22188   9.281   6.138   0.093 -0.4629 -0.0762 -0.4078
  165MOL0     C22189   9.617   6.219   0.028 -0.2504 -0.3142  0.2759
  165MOL0     C22190   9.743   6.157   0.022 -0.1655 -0.6198 -0.6075
  165MOL0     N22191  10.402   6.208   0.153  0.5000 -0.2332 -0.8539
  165MOL0     N22192  10.511   6.166   0.108  0.4190  0.6451 -0.0049
  165MOL0     C22193  10.204   5.931   0.761  0.9718  0.8158  0.3066
  165MOL0     C22194  10.062   5.927   0.741 -0.1702 -0.6437  0.2475
  165MOL0     C22195   9.633   6.016   0.660 -0.6007 -0.4799 -0.6527
  165MOL0     C22196   9.580   6.122   0.728 -0.4982 -0.1835 -0.5256
  165MOL0     C22197   9.445   6.153   0.708 -0.7478 -0.0345  0.0120
  165MOL0     C22198   9.362   6.075   0.633 -0.4447  0.1894 -0.3012
  165MOL0     O22199   9.230   6.110   0.632 -0.2806 -0.0186 -0.1397
  165MOL0     C22200   9.193   6.142   0.498 -0.2408 -0.5538  0.7672
  165MOL0     C22201   9.087   6.032   0.445 -1.3133  0.0591 -0.3670
  165MOL0     C22202   9.027   6.073   0.317  0.4911 -0.2667 -0.5616
  165MOL0     C22203   8.941   5.969   0.246  0.6606 -0.3849 -0.1856
  165MOL0     C22204   8.847   5.894   0.328  0.8457  0.2564 -0.6169
  165MOL0     C22205   8.767   5.815   0.375 -0.5582  0.0547 -0.2443
  165MOL0     C22206   9.416   5.963   0.567  0.0576  0.3224  0.2286
  165MOL0     C22207   9.550   5.940   0.577 -0.2931  0.5034  0.0517
  165MOL0     H22208  10.020   6.263   0.788 -1.5548 -0.5829 -0.2325
  165MOL0     H22209  10.251   6.268   0.787 -0.6790  0.1596 -1.8561
  165MOL0     H22210  10.474   6.239   0.814  1.1142  1.4653 -3.1510
  165MOL0     H22211  10.597   6.120   0.793  0.0711 -2.2871 -2.6541
  165MOL0     H22212  10.522   6.067   0.565  2.4530  0.8208 -0.8477
  165MOL0     H22213  10.407   6.189   0.564 -0.5516 -3.1058  0.1446
  165MOL0     H22214  10.582   6.331   0.481  0.6801 -1.0383 -1.4377
  165MOL0     H22215  10.652   6.343   0.632  1.6656  0.0575 -0.1357
  165MOL0     H22216  10.824   6.217   0.553  0.6156  2.0696 -2.5940
  165MOL0     H22217  10.721   6.078   0.528  1.3986  1.5607  3.1881
  165MOL0     H22218  10.647   6.220   0.323 -0.1794 -0.0522 -1.5909
  165MOL0     H22219  10.801   6.295   0.349  0.0245 -0.5784  1.5813
  165MOL0     H22220  10.846   6.129   0.173 -1.1995 -3.6589 -1.9783
  165MOL0     H22221  10.921   6.076   0.332 -1.6456  0.8126  1.4933
  165MOL0     H22222  10.813   5.883   0.256 -1.1818 -0.4902  0.2430
  165MOL0     H22223  10.688   5.950   0.348 -0.3294 -0.5367 -1.0663
  165MOL0     H22224  10.625   5.859   0.115  2.2649  0.0833 -2.0624
  165MOL0     H22225  10.687   6.014   0.049  0.2791 -0.2699  0.1226
  165MOL0     H22226  10.436   5.930   0.333 -0.1393  0.7725  1.4759
  165MOL0     H22227  10.255   6.060   0.426 -0.8319  0.2558  0.9979
  165MOL0     H22228  10.235   6.231   0.377 -0.4768  0.4589 -0.1240
  165MOL0     H22229  10.088   6.152   0.180 -2.4378 -0.5067  0.3369
  165MOL0     H22230  10.033   6.106   0.348  0.2802  0.5808  0.9796
  165MOL0     H22231  10.130   5.875   0.307  2.2173 -1.8416 -3.3068
  165MOL0     H22232  10.171   5.923   0.142 -0.1478  0.2195 -0.2065
  165MOL0     H22233   9.904   5.924   0.280 -0.9582 -0.1170 -0.5933
  165MOL0     H22234   9.962   5.825   0.136 -0.1667  1.1055 -1.8739
  165MOL0     H22235   9.692   5.890   0.205 -1.3456  0.8157  0.7465
  165MOL0     H22236   9.352   5.922   0.178 -0.1306 -0.2456  0.6787
  165MOL0     H22237   9.478   5.886   0.303  2.9632  0.9517 -1.2083
  165MOL0     H22238   9.397   6.047   0.299  0.0090 -0.5423  1.8004
  165MOL0     H22239   9.181   6.405   0.269  0.8884  3.3467  0.9071
  165MOL0     H22240   8.957   6.513   0.233 -1.6790 -1.7975 -0.5475
  165MOL0     H22241   8.782   6.627  -0.163  2.3028 -1.7813 -1.0242
  165MOL0     H22242   8.772   6.453  -0.143 -1.0794 -0.5689 -0.1497
  165MOL0     H22243   8.597   6.483   0.030  2.3645  1.4680  2.0613
  165MOL0     H22244   8.616   6.648   0.006  0.7557 -0.7679  1.4816
  165MOL0     H22245   8.532   6.438  -0.178  2.6057  0.2487  0.1097
  165MOL0     H22246   8.537   6.608  -0.247  1.8189  0.8130 -0.0280
  165MOL0     H22247   8.370   6.451  -0.042 -0.9932 -0.7732 -0.7185
  165MOL0     H22248   8.357   6.628  -0.034 -0.4932 -0.8966  2.3736
  165MOL0     H22249   8.297   6.452  -0.289 -0.3700  0.3107 -1.9434
  165MOL0     H22250   8.250   6.624  -0.254 -2.7749 -0.5248  1.2510
  165MOL0     H22251   8.136   6.377  -0.105  0.8391  1.5984  1.0087
  165MOL0     H22252   8.092   6.546  -0.081 -4.7917 -1.2996 -0.4154
  165MOL0     H22253   8.051   6.378  -0.326 -0.9440 -0.7935 -0.1526
  165MOL0     H22254   8.020   6.555  -0.327  1.3888 -0.4832 -1.6074
  165MOL0     H22255   7.847   6.500  -0.122 -1.3745 -0.2497 -0.2465
  165MOL0     H22256   7.869   6.338  -0.184 -1.4223  0.1450  0.1016
  165MOL0     H22257   9.047   6.543  -0.192 -1.8032  3.6581  1.0736
  165MOL0     H22258   9.277   6.453  -0.142 -0.5632  0.7364 -0.5388
  165MOL0     H22259   9.598   6.317  -0.014 -2.6155 -0.7519  0.1787
  165MOL0     H22260   9.833   6.202  -0.018 -0.0035  1.0477  1.4455
  165MOL0     H22261  10.250   5.833   0.771  2.4647  1.6385  1.9135
  165MOL0     H22262  10.019   5.827   0.740  0.2365 -0.8223  0.3257
  165MOL0     H22263   9.636   6.184   0.797  0.8634  0.8909 -2.4716
  165MOL0     H22264   9.407   6.234   0.770 -0.5392 -0.2940  0.4860
  165MOL0     H22265   9.137   6.236   0.485 -1.1510 -1.1395  0.3598
  165MOL0     H22266   9.275   6.151   0.426 -1.1333  2.6402 -0.0408
  165MOL0     H22267   9.007   6.023   0.518 -0.0568  3.4194  1.6175
  165MOL0     H22268   9.138   5.936   0.430 -2.8185 -1.4341  3.1089
  165MOL0     H22269   9.110   6.107   0.253  1.7485 -1.0535  0.5916
  165MOL0     H22270   8.957   6.157   0.327 -1.0885 -1.5642 -0.4500
  165MOL0     H22271   9.020   5.908   0.203  3.1792  1.2201  1.7855
  165MOL0     H22272   8.882   6.011   0.164 -0.3703  0.4931  0.9463
  165MOL0     H22273   8.709   5.741   0.424  0.2720 -0.3618  0.1273
  165MOL0     H22274   9.356   5.896   0.508  2.7548 -1.5277 -0.5902
  165MOL0     H22275   9.581   5.854   0.518  4.7131  0.7611  1.7932
  166MOL0     O22276   2.708   7.108   1.937  0.2088  0.1740  0.0949
  166MOL0     C22277   2.698   7.221   1.984 -0.0156 -0.4588 -0.1825
  166MOL0     O22278   2.617   7.321   1.931 -0.0144 -0.4060 -0.7041
  166MOL0     C22279   2.544   7.315   1.819  0.7937 -0.1824 -0.4124
  166MOL0     C22280   2.483   7.436   1.782 -0.2064  0.7188 -0.9670
  166MOL0     C22281   2.398   7.453   1.674 -0.2767 -0.1685 -0.0161
  166MOL0     C22282   2.385   7.343   1.591  0.4852  0.2651  0.0898
  166MOL0     O22283   2.313   7.344   1.475 -0.1430 -0.5481  0.1148
  166MOL0     C22284   2.204   7.439   1.465  0.2401 -0.3217 -0.3741
  166MOL0     C22285   2.125   7.399   1.341  1.0314 -0.4839  0.3551
  166MOL0     C22286   2.041   7.273   1.375 -0.0541 -0.5265  1.1777
  166MOL0     C22287   1.995   7.209   1.248  0.1111  0.3683 -0.4522
  166MOL0     C22288   1.902   7.086   1.277  0.0410 -0.1877 -0.0847
  166MOL0     C22289   1.985   6.968   1.349 -0.0859  0.2886  0.6064
  166MOL0     C22290   1.882   6.856   1.364  0.4408  0.3218 -0.4883
  166MOL0     C22291   1.956   6.728   1.405  0.3396  0.1680 -0.7893
  166MOL0     N22292   1.859   6.618   1.424  0.6249  0.0165  1.1839
  166MOL0     C22293   1.810   6.547   1.316  0.3898 -1.4993  0.8965
  166MOL0     C22294   1.708   6.475   1.372 -0.0971  0.3105 -0.4661
  166MOL0     C22295   1.616   6.359   1.317  0.1996  0.2084 -0.5629
  166MOL0     C22296   1.478   6.407   1.276 -0.8315 -0.5115 -0.5745
  166MOL0     C22297   1.374   6.366   1.375 -0.0960  0.2084 -0.7746
  166MOL0     C22298   1.325   6.220   1.349  0.3285 -0.0090 -0.6068
  166MOL0     O22299   1.192   6.224   1.403 -0.4001  0.1409 -0.7251
  166MOL0     C22300   1.082   6.245   1.332 -0.4010  0.8768  0.2362
  166MOL0     C22301   0.955   6.216   1.380 -0.2036 -0.5014  0.4555
  166MOL0     C22302   0.833   6.221   1.297  0.2142 -0.2458  0.5043
  166MOL0     C22303   0.703   6.184   1.369 -0.1902 -0.8682  0.0065
  166MOL0     C22304   0.848   6.244   1.160  0.1262 -0.2210  0.3113
  166MOL0     C22305   0.741   6.224   1.061 -0.2552 -0.1441  0.3832
  166MOL0     O22306   0.613   6.211   1.099  0.1848  0.0184  0.3052
  166MOL0     C22307   0.508   6.180   1.016  0.0349 -0.2364  0.8923
  166MOL0     C22308   0.516   6.087   0.911  0.5683  0.2627  0.9303
  166MOL0     C22309   0.402   6.064   0.833  0.2073 -1.2173  0.3941
  166MOL0     C22310   0.279   6.118   0.875 -0.0675 -0.4020 -0.3436
  166MOL0     O22311   0.162   6.081   0.817 -0.1674 -0.1194  0.0587
  166MOL0     C22312   0.054   6.050   0.914  0.0512 -0.1991  0.1730
  166MOL0     C22313  -0.020   5.929   0.872  0.4976  0.6283 -0.3569
  166MOL0     C22314  -0.128   5.888   0.966  0.9266  0.3520 -0.4906
  166MOL0     C22315  -0.064   5.823   1.086  0.2782  0.5690 -0.5806
  166MOL0     C22316  -0.175   5.759   1.171  0.0792 -0.5279 -0.0006
  166MOL0     C22317  -0.121   5.707   1.309  0.1501 -0.6477  0.1880
  166MOL0     C22318  -0.128   5.831   1.404  0.1678 -0.0483  0.1632
  166MOL0     C22319  -0.060   5.787   1.539  0.0197 -0.2965 -0.2445
  166MOL0    Cl22320  -0.075   5.925   1.654 -0.0356 -0.0954  0.0355
  166MOL0     C22321   0.280   6.205   0.984  0.6994 -1.2800 -0.5983
  166MOL0     C22322   0.390   6.228   1.057  0.8414 -0.1559 -0.2671
  166MOL0     O22323   0.783   6.198   0.946 -0.0226 -0.6123  0.0716
  166MOL0     C22324   0.980   6.269   1.107  0.4420  0.7958 -0.0725
  166MOL0     C22325   1.098   6.272   1.190 -0.4610  0.3302 -0.4125
  166MOL0     N22326   1.700   6.513   1.508  0.2153  0.2186  0.3300
  166MOL0     N22327   1.797   6.591   1.536 -0.1909  0.8639 -0.0673
  166MOL0     C22328   2.447   7.217   1.626  0.4087  0.4199 -0.5454
  166MOL0     C22329   2.526   7.205   1.735  0.2262 -0.0849 -0.1378
  166MOL0     C22330   2.786   7.248   2.085  0.4558 -1.1700  0.2524
  166MOL0     C22331   2.791   7.377   2.150 -0.7573  1.0766  0.4312
  166MOL0     C22332   2.879   7.401   2.251  1.1058 -0.0684 -0.0092
  166MOL0     C22333   2.958   7.302   2.310  0.8813  0.2539 -0.5257
  166MOL0     O22334   3.049   7.322   2.407  0.2789 -0.2780 -0.3432
  166MOL0     C22335   3.193   7.311   2.381 -0.2880  0.4914  0.5590
  166MOL0     C22336   3.284   7.404   2.464  0.0926  0.9424 -0.5276
  166MOL0     C22337   3.232   7.556   2.454 -0.1070 -0.1799 -0.5387
  166MOL0     C22338   3.279   7.625   2.328  0.3341 -0.3241 -0.3756
  166MOL0     C22339   3.424   7.628   2.319  0.4156  0.4138 -0.2019
  166MOL0     C22340   3.542   7.642   2.328  0.3578  0.0785 -0.4037
  166MOL0     C22341   2.958   7.175   2.253  0.0453  0.0695  0.2325
  166MOL0     C22342   2.873   7.151   2.141 -0.7646 -0.0465  0.6785
  166MOL0     H22343   2.504   7.529   1.833 -1.8233  1.1187 -0.9990
  166MOL0     H22344   2.349   7.549   1.663  2.9780  1.9082  1.7963
  166MOL0     H22345   2.142   7.438   1.555  1.8963  1.5796  0.8690
  166MOL0     H22346   2.246   7.539   1.452  0.4008  0.1044  2.6667
  166MOL0     H22347   2.064   7.486   1.316  1.1039 -0.8654 -1.2969
  166MOL0     H22348   2.196   7.378   1.260  0.6931  1.6338 -0.5504
  166MOL0     H22349   2.099   7.208   1.441  0.1393 -2.1128 -0.4845
  166MOL0     H22350   1.958   7.316   1.430  0.4602  0.7353  1.0000
  166MOL0     H22351   1.941   7.285   1.191 -1.6930 -0.1098  0.5407
  166MOL0     H22352   2.080   7.172   1.190  1.0669  0.3435  0.9249
  166MOL0     H22353   1.813   7.123   1.329 -1.5837 -2.4345 -1.1094
  166MOL0     H22354   1.855   7.064   1.181  0.8315  0.0093 -0.5246
  166MOL0     H22355   2.074   6.944   1.291  0.3164 -0.0134  1.3300
  166MOL0     H22356   2.020   7.011   1.444  0.6289  0.3142  0.3382
  166MOL0     H22357   1.814   6.893   1.441  2.3041  1.1527  0.8266
  166MOL0     H22358   1.836   6.838   1.265  1.8501  2.2221 -1.5418
  166MOL0     H22359   2.019   6.738   1.495 -0.1487 -3.3673  0.1046
  166MOL0     H22360   2.025   6.694   1.328  0.4016 -0.6199 -0.3956
  166MOL0     H22361   1.847   6.547   1.214 -0.7641 -0.3863  0.4579
  166MOL0     H22362   1.657   6.320   1.224 -1.8441  0.5423 -1.6600
  166MOL0     H22363   1.621   6.279   1.392  0.8590  0.7601 -0.0018
  166MOL0     H22364   1.448   6.384   1.173 -3.0896  1.0961 -0.3651
  166MOL0     H22365   1.479   6.516   1.290  2.2179 -0.7462  2.1631
  166MOL0     H22366   1.295   6.440   1.361  2.2530  3.5146  1.6723
  166MOL0     H22367   1.413   6.386   1.476 -0.4551  0.5463 -0.7004
  166MOL0     H22368   1.380   6.148   1.411 -1.1366 -0.6524 -0.0158
  166MOL0     H22369   1.338   6.189   1.245  2.0700 -1.5504  0.0111
  166MOL0     H22370   0.955   6.175   1.481  0.2064 -1.1065  0.2164
  166MOL0     H22371   0.609   6.221   1.327  1.2983 -0.5717 -3.4075
  166MOL0     H22372   0.703   6.074   1.375 -0.8218 -0.8415  0.6188
  166MOL0     H22373   0.707   6.227   1.469 -1.1859 -0.6459 -0.0373
  166MOL0     H22374   0.608   6.038   0.883  1.1211  1.3903  0.7170
  166MOL0     H22375   0.415   6.000   0.746  1.8122  2.8340 -2.7417
  166MOL0     H22376   0.100   6.029   1.011 -0.6623  1.4392  0.9132
  166MOL0     H22377  -0.019   6.131   0.922 -1.4865 -1.6888  2.9311
  166MOL0     H22378  -0.069   5.962   0.780 -1.7123  2.4892  1.3409
  166MOL0     H22379   0.048   5.848   0.846 -0.1742  0.2301 -0.8870
  166MOL0     H22380  -0.190   5.812   0.919  3.9761 -2.3257 -0.5462
  166MOL0     H22381  -0.186   5.977   0.992  0.7185  0.5334 -1.5252
  166MOL0     H22382   0.005   5.742   1.060 -0.1839 -0.7447  2.0030
  166MOL0     H22383  -0.002   5.894   1.141 -1.2616  0.0994  1.9219
  166MOL0     H22384  -0.216   5.678   1.110 -3.2995  4.2316 -4.8967
  166MOL0     H22385  -0.259   5.826   1.186 -1.4593 -2.5098  0.6137
  166MOL0     H22386  -0.192   5.631   1.343  0.0848 -0.1312  1.2500
  166MOL0     H22387  -0.020   5.663   1.305  1.3417  1.7437  1.6956
  166MOL0     H22388  -0.228   5.870   1.424  0.6174 -0.5068  4.1761
  166MOL0     H22389  -0.063   5.914   1.374  0.9964 -0.5921  0.4051
  166MOL0     H22390   0.046   5.772   1.513  0.3156  0.6261  0.4049
  166MOL0     H22391  -0.099   5.697   1.587  0.3438 -0.1252  0.3501
  166MOL0     H22392   0.190   6.255   1.017  0.6982 -2.8240  2.0586
  166MOL0     H22393   0.385   6.287   1.149 -1.2005  1.6618 -1.4606
  166MOL0     H22394   0.987   6.294   1.001 -0.9462  1.4770 -0.0193
  166MOL0     H22395   1.191   6.285   1.137  0.1680  0.4006  0.6875
  166MOL0     H22396   2.431   7.128   1.566  1.1984 -0.3507  0.3443
  166MOL0     H22397   2.554   7.103   1.760  0.7319  0.2167  0.5294
  166MOL0     H22398   2.719   7.455   2.125 -1.7766  0.3427  0.9871
  166MOL0     H22399   2.873   7.499   2.297  1.1364 -1.0277  2.1505
  166MOL0     H22400   3.226   7.208   2.398  0.6926  0.9550  1.6113
  166MOL0     H22401   3.214   7.328   2.275 -0.4292  0.0468  0.4576
  166MOL0     H22402   3.389   7.396   2.435  0.0391 -0.0355 -0.4719
  166MOL0     H22403   3.276   7.373   2.569  2.0435 -0.6925 -0.8103
  166MOL0     H22404   3.274   7.610   2.539 -1.1849 -4.5574  3.1335
  166MOL0     H22405   3.124   7.566   2.443  0.0889 -0.1125 -3.0080
  166MOL0     H22406   3.236   7.726   2.326 -3.4331 -1.7565  0.2113
  166MOL0     H22407   3.236   7.568   2.245  0.5885 -3.3109  1.4241
  166MOL0     H22408   3.646   7.663   2.339  0.4953  0.2081 -1.7605
  166MOL0     H22409   3.027   7.099   2.290  0.6787  0.7586  0.4804
  166MOL0     H22410   2.874   7.053   2.093  1.1793  1.3865 -2.5802
  167MOL0     O22411   5.863   0.159  10.717  0.1742 -0.3066  0.5461
  167MOL0     C22412   5.922   0.049  10.697 -0.0664  1.2522  0.6597
  167MOL0     O22413   5.865  -0.055  10.628  0.3966 -0.0300 -0.1591
  167MOL0     C22414   5.734  -0.038  10.600  0.1283  0.7578 -0.0705
  167MOL0     C22415   5.635  -0.110  10.670  0.4607  0.3399 -0.8944
  167MOL0     C22416   5.502  -0.096  10.638  0.4213 -0.9380  0.4945
  167MOL0     C22417   5.462  -0.023  10.521  0.4057  0.5283 -0.1245
  167MOL0     O22418   5.334  -0.019  10.479  0.3181 -0.6013 -0.4580
  167MOL0     C22419   5.308   0.006  10.340  0.6528  0.8470  0.5270
  167MOL0     C22420   5.163  -0.037  10.298 -0.0014 -0.1149 -0.3596
  167MOL0     C22421   5.128   0.006  10.158 -0.1994 -0.2583  0.1361
  167MOL0     C22422   5.012  -0.072  10.096  0.1565  0.2224 -0.0291
  167MOL0     C22423   4.935   0.004   9.987  0.7608 -0.4454 -0.4711
  167MOL0     C22424   4.812  -0.073   9.927 -0.4167 -0.7572 -0.1906
  167MOL0     C22425   4.729   0.022   9.831  0.1703  0.5907 -0.7067
  167MOL0     C22426   4.598  -0.034   9.779 -0.1847  0.3820  0.6759
  167MOL0     N22427   4.610  -0.087   9.642  0.7011  0.6109 -0.3499
  167MOL0     C22428   4.718  -0.153   9.599  0.0176  0.4348 -0.8582
  167MOL0     C22429   4.714  -0.153   9.466  0.9800  0.7447  0.0529
  167MOL0     C22430   4.821  -0.202   9.374 -0.3552 -0.1841 -0.6996
  167MOL0     C22431   4.782  -0.329   9.288 -0.7904 -0.4845 -0.0425
  167MOL0     C22432   4.902  -0.413   9.241  0.3200 -0.6470  0.5240
  167MOL0     C22433   4.986  -0.344   9.138  0.2752 -0.0253  0.6487
  167MOL0     O22434   5.047  -0.223   9.167  0.7831 -0.3999 -0.1947
  167MOL0     C22435   5.160  -0.218   9.238 -1.0302 -0.6620 -0.1974
  167MOL0     C22436   5.216  -0.087   9.275 -0.5916 -0.2784  0.6116
  167MOL0     C22437   5.338  -0.074   9.334  0.2298  0.1683 -0.6813
  167MOL0     C22438   5.384   0.061   9.370  0.6295  0.3985  1.1112
  167MOL0     C22439   5.415  -0.187   9.389  1.2303  0.5175 -0.6179
  167MOL0     C22440   5.547  -0.175   9.466 -0.0250  0.5086  0.1203
  167MOL0     O22441   5.581  -0.270   9.564  0.2423  0.2680  0.5904
  167MOL0     C22442   5.709  -0.266   9.614 -0.8683  0.0326 -0.3100
  167MOL0     C22443   5.786  -0.380   9.601 -1.6028  0.5089 -1.0189
  167MOL0     C22444   5.916  -0.389   9.649 -0.4873 -0.5156  0.2293
  167MOL0     C22445   5.971  -0.279   9.710 -0.3204  0.0599  0.1288
  167MOL0     O22446   6.105  -0.288   9.720 -0.7647 -0.9796  0.0188
  167MOL0     C22447   6.163  -0.192   9.812  0.0176  0.6020 -0.0692
  167MOL0     C22448   6.295  -0.249   9.876  0.3492 -0.8761 -0.2308
  167MOL0     C22449   6.269  -0.372   9.960 -0.0467  0.9593 -0.2642
  167MOL0     C22450   6.397  -0.416  10.036 -0.7150  0.9003 -0.4759
  167MOL0     C22451   6.361  -0.491  10.173 -0.4339 -0.2473 -0.2674
  167MOL0     C22452   6.350  -0.649  10.159  0.0273 -0.1021 -0.0014
  167MOL0     C22453   6.492  -0.712  10.155 -0.0809  0.2699 -0.0748
  167MOL0     C22454   6.483  -0.866  10.154  0.3444  0.1011  0.1096
  167MOL0    Cl22455   6.644  -0.956  10.201  0.2048  0.1650 -0.2763
  167MOL0     C22456   5.898  -0.162   9.728  0.5167  0.5202  0.1225
  167MOL0     C22457   5.761  -0.157   9.690 -0.1931 -0.1652  0.1970
  167MOL0     O22458   5.621  -0.093   9.419 -0.0625  0.8089  0.1156
  167MOL0     C22459   5.352  -0.317   9.375  0.0732  0.3061  1.2191
  167MOL0     C22460   5.232  -0.331   9.297  0.2363  0.7520  0.0003
  167MOL0     N22461   4.599  -0.085   9.427  0.2332 -0.0553  0.8727
  167MOL0     N22462   4.537  -0.051   9.533  0.2839 -0.3464  0.1298
  167MOL0     C22463   5.561   0.045  10.457  0.4988 -0.6982 -0.2319
  167MOL0     C22464   5.698   0.039  10.490  0.9283  0.2574 -0.0664
  167MOL0     C22465   6.066   0.027  10.724  0.3002 -0.2374 -0.1563
  167MOL0     C22466   6.137  -0.078  10.668 -0.5309 -0.6867 -0.2838
  167MOL0     C22467   6.270  -0.081  10.695 -0.5220  0.4314  0.3951
  167MOL0     C22468   6.343   0.012  10.775  0.3857  0.9579 -0.1572
  167MOL0     O22469   6.485   0.011  10.781  0.4482  0.4864  0.3526
  167MOL0     C22470   6.548  -0.121  10.779  0.1200  0.4658 -0.3771
  167MOL0     C22471   6.675  -0.119  10.863 -0.3652 -0.0956  0.1762
  167MOL0     C22472   6.749  -0.252  10.831  0.3291 -0.1366  0.7350
  167MOL0     C22473   6.852  -0.285  10.946 -0.3655 -0.7105 -0.0610
  167MOL0     C22474   6.902  -0.424  10.941  0.3153  0.1444  0.2866
  167MOL0     C22475   6.931  -0.541  10.936 -0.6790 -0.5741 -0.4251
  167MOL0     C22476   6.275   0.118  10.830  0.5606 -0.1276 -0.2550
  167MOL0     C22477   6.135   0.114  10.814 -0.8135 -0.0324 -0.0047
  167MOL0     H22478   5.666  -0.174  10.751 -3.9343  0.2484  0.9797
  167MOL0     H22479   5.427  -0.143  10.700  1.3303  0.0578  2.4447
  167MOL0     H22480   5.314   0.113  10.319  2.7351  0.1599 -3.3640
  167MOL0     H22481   5.389  -0.033  10.277  0.7922  2.8795 -0.6593
  167MOL0     H22482   5.155  -0.146  10.305  3.1231 -0.4655 -0.9295
  167MOL0     H22483   5.094   0.018  10.362 -0.3573 -0.4173 -0.4820
  167MOL0     H22484   5.101   0.112  10.161  0.2660 -0.1383  0.2037
  167MOL0     H22485   5.213  -0.008  10.091  1.2626  0.9274  1.6355
  167MOL0     H22486   5.046  -0.168  10.057 -0.6229 -1.1280  2.3890
  167MOL0     H22487   4.938  -0.103  10.171  0.7604  2.1905  1.4729
  167MOL0     H22488   4.898   0.098  10.030  1.2489 -1.1646  1.6603
  167MOL0     H22489   5.005   0.027   9.907 -0.9573  2.2850 -1.3549
  167MOL0     H22490   4.849  -0.159   9.871  0.6544 -0.7358  0.4478
  167MOL0     H22491   4.744  -0.101  10.008  0.6286  1.8821  1.7703
  167MOL0     H22492   4.697   0.111   9.886  0.1981 -1.3890  2.7333
  167MOL0     H22493   4.793   0.059   9.749 -1.1230 -0.2721 -2.1596
  167MOL0     H22494   4.514   0.037   9.782 -2.0477 -1.7253  1.2298
  167MOL0     H22495   4.572  -0.118   9.844 -0.3886  0.3992  0.6159
  167MOL0     H22496   4.782  -0.215   9.660 -0.2735 -0.1273 -1.1202
  167MOL0     H22497   4.854  -0.115   9.317 -0.0026 -0.5251 -1.0297
  167MOL0     H22498   4.907  -0.234   9.435 -0.8829 -1.5307 -0.6401
  167MOL0     H22499   4.716  -0.317   9.202 -1.3493 -4.8383 -0.4601
  167MOL0     H22500   4.726  -0.391   9.358 -0.4710  0.0070  0.6599
  167MOL0     H22501   4.853  -0.502   9.200 -1.5601  0.4339  0.3436
  167MOL0     H22502   4.967  -0.425   9.329  0.8867  1.6598  0.4888
  167MOL0     H22503   4.918  -0.327   9.055  0.0531 -0.6045  0.7059
  167MOL0     H22504   5.054  -0.419   9.096  3.0593  1.4652  2.1852
  167MOL0     H22505   5.165   0.002   9.241 -0.9860 -1.7028 -3.0038
  167MOL0     H22506   5.424   0.071   9.471  1.9817  1.2447  0.5137
  167MOL0     H22507   5.457   0.084   9.292 -0.9207  2.8812  0.2464
  167MOL0     H22508   5.297   0.127   9.356  0.5251  0.1700  0.6691
  167MOL0     H22509   5.758  -0.457   9.530  0.8937  0.1385 -1.7144
  167MOL0     H22510   5.977  -0.477   9.629 -0.8360 -1.0609  1.5125
  167MOL0     H22511   6.195  -0.094   9.775  0.1364  0.4858 -0.2720
  167MOL0     H22512   6.094  -0.185   9.897  0.6127 -0.1149  0.4781
  167MOL0     H22513   6.369  -0.272   9.800 -0.6326 -1.1388 -1.1251
  167MOL0     H22514   6.327  -0.163   9.936 -0.1796 -1.4762  0.9647
  167MOL0     H22515   6.234  -0.451   9.893  0.8018 -0.8181  1.3139
  167MOL0     H22516   6.190  -0.352  10.032  1.2960  0.9982  1.2545
  167MOL0     H22517   6.468  -0.466   9.970  1.4734  2.6618  0.4235
  167MOL0     H22518   6.453  -0.325  10.058  1.8819 -0.5413 -0.7422
  167MOL0     H22519   6.267  -0.444  10.201 -0.1890  0.8122 -1.1344
  167MOL0     H22520   6.436  -0.467  10.249 -2.8374  3.6368  1.1944
  167MOL0     H22521   6.296  -0.696  10.242  1.8755  0.5207  1.6439
  167MOL0     H22522   6.287  -0.678  10.075  0.6176 -0.1718 -0.4229
  167MOL0     H22523   6.546  -0.686  10.247  2.7754 -1.0540 -1.2723
  167MOL0     H22524   6.545  -0.681  10.065 -0.9045 -4.2940 -2.4843
  167MOL0     H22525   6.456  -0.894  10.052 -1.8708  1.3684  0.2857
  167MOL0     H22526   6.407  -0.904  10.223  1.5507 -1.7286  0.5049
  167MOL0     H22527   5.929  -0.078   9.789 -0.4796 -0.1198  1.5833
  167MOL0     H22528   5.699  -0.072   9.716  1.2784  0.4103  2.0755
  167MOL0     H22529   5.402  -0.409   9.405 -0.4819 -0.6976 -0.7194
  167MOL0     H22530   5.200  -0.434   9.288  2.7311 -0.0576 -0.3266
  167MOL0     H22531   5.541   0.106  10.370 -1.4809 -0.0832  0.6001
  167MOL0     H22532   5.775   0.090  10.433  1.9916  1.8260  2.5929
  167MOL0     H22533   6.093  -0.144  10.595  2.4486 -3.6906  0.3968
  167MOL0     H22534   6.321  -0.162  10.645 -0.7340 -1.5359  3.1369
  167MOL0     H22535   6.482  -0.193  10.828 -0.1746  1.0242  0.0660
  167MOL0     H22536   6.560  -0.161  10.678  2.1578 -6.2129  1.9936
  167MOL0     H22537   6.640  -0.122  10.966 -2.6965  1.3344 -0.4936
  167MOL0     H22538   6.746  -0.038  10.845 -0.6841 -0.0840 -1.1439
  167MOL0     H22539   6.789  -0.261  10.729 -1.6283 -0.5220 -0.0456
  167MOL0     H22540   6.672  -0.329  10.836  1.0270 -0.9936 -0.9689
  167MOL0     H22541   6.805  -0.262  11.042  1.2015  1.2376  0.2891
  167MOL0     H22542   6.940  -0.221  10.949  0.1046 -1.2378  4.4041
  167MOL0     H22543   6.954  -0.644  10.917 -1.6561 -0.9766  0.4766
  167MOL0     H22544   6.319   0.187  10.902 -1.1995  0.5255  0.2633
  167MOL0     H22545   6.073   0.190  10.861  0.8757  2.0365 -0.9148
  168MOL0     O22546   3.062   3.554   0.450 -0.0512  0.4632 -0.1992
  168MOL0     C22547   3.086   3.652   0.516 -0.1672  0.1496  0.4939
  168MOL0     O22548   2.991   3.734   0.567 -0.8117  1.0614  0.3817
  168MOL0     C22549   2.860   3.696   0.557 -0.1844 -0.9129 -0.9445
  168MOL0     C22550   2.795   3.627   0.658  0.0581 -1.3607 -0.9935
  168MOL0     C22551   2.664   3.597   0.659 -0.3039 -0.5470  0.3292
  168MOL0     C22552   2.588   3.633   0.549 -0.2453  0.8305 -0.5181
  168MOL0     O22553   2.452   3.611   0.566 -0.7506 -0.7786  0.5331
  168MOL0     C22554   2.356   3.645   0.460 -0.1607  0.3965  0.0046
  168MOL0     C22555   2.237   3.561   0.492  0.1345  0.5056  0.1118
  168MOL0     C22556   2.155   3.629   0.603 -0.2876  0.4526  0.6600
  168MOL0     C22557   2.023   3.549   0.620  0.4465 -0.2044  0.5099
  168MOL0     C22558   1.943   3.609   0.736  0.4690 -0.0402  0.1277
  168MOL0     C22559   1.803   3.552   0.744 -0.2249 -0.5066  0.4366
  168MOL0     C22560   1.707   3.604   0.639 -0.9347  0.4571 -1.2246
  168MOL0     C22561   1.560   3.596   0.675  0.3129  0.3665 -0.1690
  168MOL0     N22562   1.497   3.467   0.667  0.3227 -0.3444 -0.4595
  168MOL0     C22563   1.402   3.410   0.750 -0.2291 -0.6424  0.1478
  168MOL0     C22564   1.355   3.302   0.681  0.3646  0.1161  0.4654
  168MOL0     C22565   1.240   3.210   0.725  0.1710 -0.3384  0.0877
  168MOL0     C22566   1.103   3.255   0.664  0.2758 -0.0215 -0.1456
  168MOL0     C22567   0.990   3.162   0.715 -0.9693  0.5414 -0.2044
  168MOL0     C22568   0.855   3.227   0.683  0.2951 -0.3166 -0.4403
  168MOL0     O22569   0.756   3.164   0.774 -0.1437  0.4477 -0.4802
  168MOL0     C22570   0.675   3.055   0.736 -0.8452 -0.3705  0.6821
  168MOL0     C22571   0.555   3.053   0.797  0.7053 -0.2234 -0.3166
  168MOL0     C22572   0.461   2.960   0.771  0.5176 -0.4696  0.6993
  168MOL0     C22573   0.324   2.981   0.841 -0.8148  0.6929 -0.0615
  168MOL0     C22574   0.489   2.868   0.666 -0.2417  0.3322 -0.5625
  168MOL0     C22575   0.374   2.772   0.615  0.1805  0.6562  0.2936
  168MOL0     O22576   0.419   2.696   0.507  0.4308 -0.1529 -0.3823
  168MOL0     C22577   0.330   2.646   0.417  0.0269 -0.1036 -0.2996
  168MOL0     C22578   0.350   2.519   0.360 -0.5266 -0.9195 -0.7551
  168MOL0     C22579   0.275   2.476   0.246 -0.5657 -0.2254 -0.3227
  168MOL0     C22580   0.166   2.555   0.200  0.1659  0.9653 -0.7465
  168MOL0     O22581   0.102   2.496   0.095  0.0671 -0.4114 -0.2423
  168MOL0     C22582  -0.005   2.568   0.036 -0.2652  0.4844 -0.2099
  168MOL0     C22583  -0.035   2.506  -0.100 -0.0625 -0.0665 -0.7049
  168MOL0     C22584   0.078   2.520  -0.209  0.4076 -0.2888 -0.6119
  168MOL0     C22585   0.043   2.472  -0.356  0.6495 -0.0830 -0.1527
  168MOL0     C22586   0.137   2.532  -0.458 -1.0176 -0.4184  0.4902
  168MOL0     C22587   0.094   2.516  -0.603  0.4683 -0.6085  0.3769
  168MOL0     C22588  -0.023   2.608  -0.647  0.5920  0.2921  0.1201
  168MOL0     C22589  -0.055   2.587  -0.790 -0.0917 -1.3418 -0.4903
  168MOL0    Cl22590   0.071   2.635  -0.899  0.1646  0.7224 -0.0680
  168MOL0     C22591   0.151   2.683   0.264 -0.3520  0.0728 -0.8194
  168MOL0     C22592   0.236   2.729   0.366  0.1368  0.8642 -0.3862
  168MOL0     O22593   0.258   2.766   0.671  0.2829 -0.1296 -0.4586
  168MOL0     C22594   0.621   2.863   0.611 -0.4754  0.8588  0.2487
  168MOL0     C22595   0.711   2.959   0.645 -0.1452 -0.2737  0.1951
  168MOL0     N22596   1.424   3.294   0.557 -0.3241 -0.1902  0.8191
  168MOL0     N22597   1.500   3.399   0.554 -0.0178 -0.2482 -0.5079
  168MOL0     C22598   2.644   3.708   0.443 -0.3257  0.3837  0.3104
  168MOL0     C22599   2.784   3.733   0.451  0.6048  0.5830  0.1149
  168MOL0     C22600   3.229   3.703   0.528  0.2986 -0.5385  1.0788
  168MOL0     C22601   3.260   3.812   0.613  0.6490  0.4357  0.3409
  168MOL0     C22602   3.387   3.869   0.612 -0.0869  0.1016 -0.0734
  168MOL0     C22603   3.492   3.825   0.534  0.6485  1.4951  0.9257
  168MOL0     O22604   3.610   3.896   0.547  0.1806  0.0512 -0.2261
  168MOL0     C22605   3.721   3.880   0.454 -0.1566 -0.0397 -0.0928
  168MOL0     C22606   3.813   3.776   0.503 -0.2605  0.2402  0.1809
  168MOL0     C22607   3.950   3.799   0.448  0.3617  0.3679  0.5736
  168MOL0     C22608   4.044   3.676   0.485  0.0175 -0.0019  0.0547
  168MOL0     C22609   4.103   3.697   0.619  1.1392  0.1289 -0.4629
  168MOL0     C22610   4.158   3.713   0.728  1.1513  0.6301 -0.5907
  168MOL0     C22611   3.459   3.719   0.439 -0.5799  0.1539  0.0289
  168MOL0     C22612   3.332   3.659   0.436  0.3589  0.1212 -0.8315
  168MOL0     H22613   2.841   3.592   0.749  1.3940 -0.0340 -1.1187
  168MOL0     H22614   2.621   3.537   0.738  0.2362 -3.6191 -1.5530
  168MOL0     H22615   2.327   3.750   0.462 -1.6170  0.0014  0.6260
  168MOL0     H22616   2.399   3.623   0.362 -3.1194  2.1804 -1.8258
  168MOL0     H22617   2.176   3.537   0.404 -2.5637  1.1992  1.7037
  168MOL0     H22618   2.275   3.461   0.515  0.7054  0.8512  0.7131
  168MOL0     H22619   2.210   3.640   0.697  2.1685  1.4695 -0.7943
  168MOL0     H22620   2.137   3.733   0.577  0.0189  0.4310  0.3479
  168MOL0     H22621   1.967   3.568   0.527  1.9527  2.0838 -0.0345
  168MOL0     H22622   2.035   3.444   0.646 -0.3466 -1.4032 -3.3193
  168MOL0     H22623   1.992   3.576   0.828  1.1408 -0.1715 -0.2674
  168MOL0     H22624   1.949   3.718   0.744  4.4844 -0.1016 -0.2860
  168MOL0     H22625   1.809   3.445   0.720  0.6056  0.5834 -5.7686
  168MOL0     H22626   1.763   3.570   0.844 -1.2107  0.4698 -0.1107
  168MOL0     H22627   1.731   3.709   0.617 -0.7951  0.6342 -0.2676
  168MOL0     H22628   1.726   3.543   0.550 -1.1939 -1.5040  0.0012
  168MOL0     H22629   1.505   3.658   0.603  0.3689  0.5213 -0.0782
  168MOL0     H22630   1.547   3.643   0.773 -1.2820  0.1427 -0.2338
  168MOL0     H22631   1.361   3.448   0.843  2.2079  2.5087  0.1172
  168MOL0     H22632   1.247   3.106   0.692 -0.8958 -0.8290  1.2807
  168MOL0     H22633   1.231   3.218   0.834 -3.1597 -3.2710  0.2253
  168MOL0     H22634   1.105   3.240   0.556  1.7249  2.2434 -0.5052
  168MOL0     H22635   1.096   3.363   0.683  1.0223 -0.0029  0.0479
  168MOL0     H22636   1.004   3.151   0.823  2.7390  1.4235 -0.4640
  168MOL0     H22637   1.008   3.065   0.668  2.2305  2.4255 -3.4322
  168MOL0     H22638   0.829   3.202   0.579  2.6182 -1.3527 -0.8434
  168MOL0     H22639   0.858   3.336   0.682 -3.4321 -0.1024 -0.2151
  168MOL0     H22640   0.531   3.131   0.869  2.2751 -0.6924  0.7878
  168MOL0     H22641   0.246   3.000   0.766 -1.8670 -1.5384  0.3903
  168MOL0     H22642   0.272   2.904   0.898 -0.4379  1.0379  0.7726
  168MOL0     H22643   0.324   3.068   0.908 -0.7502  0.6744 -0.0374
  168MOL0     H22644   0.432   2.462   0.403  1.9866  2.3012 -0.9143
  168MOL0     H22645   0.295   2.384   0.191  2.7937 -0.8194  1.5886
  168MOL0     H22646  -0.092   2.551   0.100 -0.1372 -1.2551 -0.4412
  168MOL0     H22647   0.009   2.675   0.019 -1.3487  0.4297 -1.6669
  168MOL0     H22648  -0.034   2.398  -0.084 -0.6564  0.0675  0.3426
  168MOL0     H22649  -0.132   2.546  -0.132  0.4528  2.7688  0.8802
  168MOL0     H22650   0.170   2.480  -0.163 -0.1055  0.3854  1.0934
  168MOL0     H22651   0.100   2.626  -0.219  1.3114 -0.3679  0.3363
  168MOL0     H22652   0.028   2.364  -0.358 -0.4178  0.0228  0.9521
  168MOL0     H22653  -0.056   2.514  -0.375 -0.2245  0.2976  4.2734
  168MOL0     H22654   0.240   2.495  -0.458 -1.2582 -1.0981  0.6943
  168MOL0     H22655   0.147   2.638  -0.432  0.6171 -0.5438  0.4756
  168MOL0     H22656   0.176   2.552  -0.666 -0.4056  2.9127  1.0458
  168MOL0     H22657   0.088   2.408  -0.624  0.0413 -0.5773  0.3341
  168MOL0     H22658  -0.012   2.715  -0.627 -2.0051  0.0335  4.1873
  168MOL0     H22659  -0.117   2.583  -0.597 -0.5944  0.8433 -1.7433
  168MOL0     H22660  -0.139   2.648  -0.826  1.0986  0.2138 -0.7493
  168MOL0     H22661  -0.090   2.485  -0.810 -1.1690 -0.6414 -2.6214
  168MOL0     H22662   0.075   2.749   0.225  0.0555  1.3989  0.5241
  168MOL0     H22663   0.224   2.833   0.396  2.1653  0.6202  1.5211
  168MOL0     H22664   0.640   2.794   0.530 -0.3013  0.6007  0.5072
  168MOL0     H22665   0.803   2.969   0.589 -0.6291 -0.8520 -0.7106
  168MOL0     H22666   2.586   3.739   0.357 -0.8434  1.5039  1.0362
  168MOL0     H22667   2.824   3.775   0.359 -0.5794 -1.1239 -1.2512
  168MOL0     H22668   3.177   3.850   0.672  1.3446 -0.3436  1.8854
  168MOL0     H22669   3.384   3.955   0.678 -2.2686 -1.4386  2.0012
  168MOL0     H22670   3.684   3.850   0.356  3.6008  0.3180 -1.8007
  168MOL0     H22671   3.768   3.979   0.454  0.7022 -0.3919  1.7342
  168MOL0     H22672   3.786   3.673   0.478  1.6263 -0.5664  1.2796
  168MOL0     H22673   3.817   3.776   0.613  2.3626 -0.1129  0.1480
  168MOL0     H22674   3.990   3.896   0.482 -0.7242  1.4737 -1.1521
  168MOL0     H22675   3.944   3.812   0.340 -2.7540 -0.3925  0.5867
  168MOL0     H22676   4.122   3.679   0.408 -1.1163  0.5697 -1.1278
  168MOL0     H22677   3.999   3.577   0.470  3.6592 -1.6761 -0.9916
  168MOL0     H22678   4.209   3.728   0.820 -2.5365  0.0444  1.7714
  168MOL0     H22679   3.536   3.676   0.377 -2.1297 -3.7943  0.5513
  168MOL0     H22680   3.311   3.587   0.357 -3.5780 -0.3209  0.3756
  169MOL0     O22681   3.104   1.276   3.005  1.1704  0.1033 -0.0687
  169MOL0     C22682   3.202   1.306   3.063 -1.1060 -0.1435 -0.0909
  169MOL0     O22683   3.241   1.259   3.189  0.2840  0.7951  0.1499
  169MOL0     C22684   3.159   1.168   3.245  0.5637 -0.6580  0.5435
  169MOL0     C22685   3.109   1.053   3.187  0.3080 -0.3076 -0.3751
  169MOL0     C22686   3.025   0.960   3.254  0.6105 -0.4926  0.4479
  169MOL0     C22687   2.983   0.989   3.381 -0.4322 -0.1295 -0.0478
  169MOL0     O22688   2.928   0.882   3.443  0.5517  0.1231  0.6590
  169MOL0     C22689   2.899   0.886   3.581  0.3292 -0.4090  0.6385
  169MOL0     C22690   2.826   0.760   3.616  0.0257  1.0080 -0.3464
  169MOL0     C22691   2.691   0.742   3.547  1.3303  0.0878  0.8821
  169MOL0     C22692   2.592   0.661   3.641 -0.4744 -0.0620  0.3451
  169MOL0     C22693   2.443   0.686   3.609  0.1696 -0.1051  0.0791
  169MOL0     C22694   2.343   0.628   3.708 -0.1471 -0.2908  0.4165
  169MOL0     C22695   2.203   0.660   3.658 -0.7187 -0.3275 -0.6585
  169MOL0     C22696   2.086   0.624   3.754 -1.1893  0.3521 -0.7871
  169MOL0     N22697   1.954   0.632   3.702 -0.6991 -0.2977  0.1956
  169MOL0     C22698   1.852   0.690   3.772  0.1229 -0.5445  0.6198
  169MOL0     C22699   1.754   0.690   3.681 -0.1352 -0.1151 -0.0514
  169MOL0     C22700   1.609   0.725   3.703  0.2345 -1.0235 -0.1928
  169MOL0     C22701   1.514   0.608   3.740  0.0274  0.5310 -1.2996
  169MOL0     C22702   1.556   0.483   3.652 -0.0362  0.3725 -0.4725
  169MOL0     C22703   1.464   0.355   3.662  0.1161 -1.2849 -0.6554
  169MOL0     O22704   1.352   0.375   3.569 -0.6905 -0.4452 -0.7257
  169MOL0     C22705   1.267   0.265   3.563  0.8809  0.4692 -0.2811
  169MOL0     C22706   1.148   0.272   3.484  0.3307 -0.5156  0.3042
  169MOL0     C22707   1.066   0.164   3.441 -1.4135 -1.1363  0.4209
  169MOL0     C22708   0.953   0.203   3.347 -0.5110 -0.3257  1.0017
  169MOL0     C22709   1.093   0.042   3.492 -0.0808  0.7650  0.7986
  169MOL0     C22710   1.020  -0.085   3.462 -0.0918  0.5479 -0.5827
  169MOL0     O22711   0.941  -0.079   3.356 -0.0599  0.2081 -0.6029
  169MOL0     C22712   0.878  -0.191   3.309  0.0449 -0.0137  0.0155
  169MOL0     C22713   0.784  -0.261   3.391  0.4362  0.2872  0.8067
  169MOL0     C22714   0.725  -0.377   3.336  0.3810  0.1342 -0.5701
  169MOL0     C22715   0.755  -0.419   3.206  0.6903 -0.4060 -0.5589
  169MOL0     O22716   0.715  -0.546   3.159 -0.2429 -0.4688 -0.0044
  169MOL0     C22717   0.574  -0.559   3.145 -0.1620  0.9409 -0.0117
  169MOL0     C22718   0.512  -0.689   3.215  0.5811 -0.8632  0.2686
  169MOL0     C22719   0.619  -0.752   3.314 -0.0390 -0.3536  0.0948
  169MOL0     C22720   0.562  -0.877   3.383  0.9529  0.6309 -1.2705
  169MOL0     C22721   0.648  -0.957   3.481  0.1252 -0.1348  0.9856
  169MOL0     C22722   0.717  -0.870   3.587 -0.2084 -0.2320  0.6767
  169MOL0     C22723   0.618  -0.793   3.674 -0.0682 -0.3050 -0.3770
  169MOL0     C22724   0.527  -0.892   3.757 -0.4496  0.1123  0.4321
  169MOL0    Cl22725   0.434  -0.796   3.879 -0.1720  0.5872  0.1374
  169MOL0     C22726   0.847  -0.354   3.134 -1.2548  0.0372 -1.2820
  169MOL0     C22727   0.899  -0.235   3.178 -0.7513  0.6524 -0.8129
  169MOL0     O22728   1.037  -0.183   3.531 -0.0892  0.4911 -0.4398
  169MOL0     C22729   1.195   0.031   3.590 -0.0343  0.2395  0.1763
  169MOL0     C22730   1.278   0.145   3.627  0.2532  0.2007 -0.9817
  169MOL0     N22731   1.803   0.652   3.557  0.5054  0.9506  0.1727
  169MOL0     N22732   1.921   0.622   3.568 -0.3363 -0.2454 -1.0038
  169MOL0     C22733   3.026   1.107   3.441  0.1154 -0.3771  0.6882
  169MOL0     C22734   3.108   1.196   3.369 -0.6003 -0.7790 -0.1237
  169MOL0     C22735   3.293   1.403   3.003 -0.4093  0.2485  0.1583
  169MOL0     C22736   3.265   1.475   2.888  0.4876  0.0624 -0.4550
  169MOL0     C22737   3.365   1.562   2.838  1.0225  0.5583 -0.9103
  169MOL0     C22738   3.490   1.568   2.894 -0.2166  0.6438 -0.5414
  169MOL0     O22739   3.569   1.665   2.834 -0.0302  0.4587  0.2736
  169MOL0     C22740   3.705   1.682   2.870 -0.2339 -0.7976  0.0745
  169MOL0     C22741   3.721   1.776   2.985 -0.4841 -0.7553  0.4454
  169MOL0     C22742   3.695   1.924   2.940  0.1677 -0.3629 -0.1538
  169MOL0     C22743   3.818   2.017   2.960  0.2887  0.6272 -0.1209
  169MOL0     C22744   3.935   1.954   2.907  0.0822  0.5287 -0.6136
  169MOL0     C22745   4.033   1.892   2.881  1.3531 -0.4506  0.6709
  169MOL0     C22746   3.524   1.495   3.015  0.0348 -0.3044  0.9893
  169MOL0     C22747   3.422   1.411   3.065 -0.1724  0.5963 -0.7685
  169MOL0     H22748   3.124   1.023   3.084  0.7380  1.2426 -0.7922
  169MOL0     H22749   2.991   0.869   3.204  3.0011 -0.9271 -0.5269
  169MOL0     H22750   2.996   0.907   3.626  2.0730 -0.0594 -2.9213
  169MOL0     H22751   2.840   0.977   3.594  1.5519  0.6037 -0.6028
  169MOL0     H22752   2.897   0.679   3.598 -0.7626 -0.1317  1.3931
  169MOL0     H22753   2.818   0.759   3.725  5.1161  0.2182  0.2928
  169MOL0     H22754   2.654   0.838   3.511  0.2688 -1.1058 -1.4922
  169MOL0     H22755   2.717   0.684   3.458  1.4461 -1.8965  2.1365
  169MOL0     H22756   2.605   0.552   3.636  0.0532  0.0459 -1.0115
  169MOL0     H22757   2.604   0.691   3.745 -1.1526 -0.7637  0.6385
  169MOL0     H22758   2.427   0.794   3.607  0.7673 -0.0221 -0.6799
  169MOL0     H22759   2.413   0.652   3.509 -0.8458 -0.2119  0.4108
  169MOL0     H22760   2.369   0.521   3.703  2.7374  0.3309  0.2777
  169MOL0     H22761   2.369   0.669   3.807  0.5379  1.4463 -0.4417
  169MOL0     H22762   2.203   0.765   3.630  3.3432 -0.1680 -0.7015
  169MOL0     H22763   2.186   0.599   3.569 -4.0001 -0.0285 -0.3351
  169MOL0     H22764   2.099   0.678   3.849  2.3373 -3.1575  1.0213
  169MOL0     H22765   2.112   0.526   3.795  0.7293  1.3121  0.4407
  169MOL0     H22766   1.848   0.713   3.878 -0.7627 -2.2085  0.9912
  169MOL0     H22767   1.609   0.787   3.793  1.2990 -3.6753  1.7716
  169MOL0     H22768   1.574   0.778   3.613  2.9323 -0.3196 -0.9025
  169MOL0     H22769   1.408   0.630   3.724 -0.5239 -1.0828 -0.1191
  169MOL0     H22770   1.545   0.577   3.840 -0.8096 -2.0929 -1.7691
  169MOL0     H22771   1.659   0.450   3.673 -0.4418 -1.1786 -0.8218
  169MOL0     H22772   1.551   0.521   3.550  0.4982  1.8611  0.0295
  169MOL0     H22773   1.423   0.326   3.759  0.0915 -4.2490 -1.4737
  169MOL0     H22774   1.524   0.272   3.623  0.7329 -0.6246 -1.1463
  169MOL0     H22775   1.112   0.373   3.464  0.1383 -0.1378  2.3139
  169MOL0     H22776   0.945   0.309   3.321 -3.3012 -0.7744 -0.3166
  169MOL0     H22777   0.974   0.160   3.248  0.2766  1.5803  0.2951
  169MOL0     H22778   0.857   0.166   3.385 -1.8772  1.8965 -0.1042
  169MOL0     H22779   0.770  -0.230   3.494 -0.6843  2.4251  0.0690
  169MOL0     H22780   0.658  -0.432   3.400 -0.8253  0.7257 -1.3002
  169MOL0     H22781   0.521  -0.470   3.180 -1.8172  0.5154 -1.3033
  169MOL0     H22782   0.551  -0.564   3.038 -1.4307  0.4784  0.2621
  169MOL0     H22783   0.415  -0.668   3.260  0.1611  0.4598 -1.1535
  169MOL0     H22784   0.487  -0.768   3.143  5.9932 -2.3920 -0.4587
  169MOL0     H22785   0.651  -0.672   3.381 -0.9102  2.2956 -2.4534
  169MOL0     H22786   0.706  -0.783   3.256 -1.0314 -1.7479 -0.7052
  169MOL0     H22787   0.468  -0.851   3.431  0.9087 -1.3996 -0.1551
  169MOL0     H22788   0.532  -0.951   3.309  1.8463 -3.4161  2.0371
  169MOL0     H22789   0.725  -1.008   3.422 -2.0498 -1.2546 -1.0707
  169MOL0     H22790   0.584  -1.037   3.521 -1.2628 -0.1111 -1.0182
  169MOL0     H22791   0.777  -0.923   3.662 -2.9151  2.0347  4.8921
  169MOL0     H22792   0.774  -0.803   3.523 -3.6564 -0.7060 -3.3142
  169MOL0     H22793   0.556  -0.723   3.619  1.2730  3.5840  2.5634
  169MOL0     H22794   0.665  -0.724   3.745 -1.6538  0.1502  0.2567
  169MOL0     H22795   0.579  -0.976   3.803 -2.9664 -1.8835 -0.1660
  169MOL0     H22796   0.456  -0.926   3.681 -0.8963  2.6953 -0.3962
  169MOL0     H22797   0.878  -0.407   3.045 -0.0745 -2.2786  0.4033
  169MOL0     H22798   0.983  -0.192   3.123  0.3440 -0.3442  0.0162
  169MOL0     H22799   1.214  -0.066   3.634 -0.0152  1.1501  2.2912
  169MOL0     H22800   1.359   0.121   3.695 -0.6996 -0.1595  0.0585
  169MOL0     H22801   2.997   1.141   3.540  0.5599 -1.2203  1.1168
  169MOL0     H22802   3.145   1.281   3.425  1.2496 -0.8551 -1.1428
  169MOL0     H22803   3.166   1.468   2.845 -0.0744  1.3082  0.5419
  169MOL0     H22804   3.345   1.624   2.750 -1.2852  0.1490 -0.7231
  169MOL0     H22805   3.749   1.585   2.895  1.6467  0.2387  1.0492
  169MOL0     H22806   3.757   1.719   2.780  0.7593 -1.4138  0.3746
  169MOL0     H22807   3.817   1.772   3.039 -0.0474 -3.4591 -0.3724
  169MOL0     H22808   3.646   1.757   3.062  0.6978  0.0730  1.8511
  169MOL0     H22809   3.612   1.969   2.996  0.8188  0.1056  0.4607
  169MOL0     H22810   3.671   1.932   2.834 -0.2389  2.2723  0.0810
  169MOL0     H22811   3.828   2.039   3.067 -0.8449 -0.8557  0.3330
  169MOL0     H22812   3.797   2.117   2.922 -1.7429  0.4460  0.3915
  169MOL0     H22813   4.117   1.834   2.850  0.4819 -0.5633 -1.7266
  169MOL0     H22814   3.622   1.500   3.063 -0.0002 -1.7656  1.2848
  169MOL0     H22815   3.456   1.353   3.151  0.1331 -0.8171 -1.8035
  170MOL0     O22816   6.201   4.388   5.936  0.3246 -0.0894 -0.3080
  170MOL0     C22817   6.220   4.300   5.858  0.0008  0.4848  0.0952
  170MOL0     O22818   6.131   4.198   5.830  0.1575 -0.0037  0.0927
  170MOL0     C22819   6.002   4.225   5.852 -0.0239 -0.0083 -0.0652
  170MOL0     C22820   5.928   4.149   5.946 -0.3071 -0.6579 -1.1592
  170MOL0     C22821   5.798   4.168   5.975  0.7996  0.2718 -0.4164
  170MOL0     C22822   5.727   4.266   5.907 -0.3482  0.7251 -0.6382
  170MOL0     O22823   5.597   4.272   5.948  0.5830 -0.0302  0.3743
  170MOL0     C22824   5.553   4.397   5.977 -0.1935 -0.3148  0.1729
  170MOL0     C22825   5.635   4.461   6.096 -0.1894  0.6797 -0.4928
  170MOL0     C22826   5.554   4.552   6.193 -0.4952 -0.7660  0.4727
  170MOL0     C22827   5.643   4.626   6.298 -0.4535  0.0060  1.0296
  170MOL0     C22828   5.561   4.721   6.380 -0.0906  0.0454 -0.0498
  170MOL0     C22829   5.455   4.658   6.475 -0.0981  0.0233 -0.4052
  170MOL0     C22830   5.389   4.756   6.576  0.6567  0.3586 -0.2739
  170MOL0     C22831   5.345   4.883   6.504 -0.8773 -0.3686 -0.1201
  170MOL0     N22832   5.251   4.955   6.582 -0.2908  0.1334  0.2407
  170MOL0     C22833   5.253   4.972   6.713  0.4067 -1.0821  0.0833
  170MOL0     C22834   5.141   5.044   6.733 -0.1585  0.0145 -0.0243
  170MOL0     C22835   5.093   5.065   6.875 -0.1905  0.2440  0.6300
  170MOL0     C22836   5.005   4.966   6.943  0.0573  0.2640  0.2210
  170MOL0     C22837   4.875   4.936   6.867  0.6448  0.1064  0.1290
  170MOL0     C22838   4.767   5.032   6.911 -1.2873  0.4559 -0.4911
  170MOL0     O22839   4.631   5.009   6.850  0.3380  0.1529 -0.9160
  170MOL0     C22840   4.598   5.101   6.753  0.5505  0.3698  0.1855
  170MOL0     C22841   4.682   5.187   6.678 -0.1074  0.6671  0.3315
  170MOL0     C22842   4.634   5.280   6.584 -1.0920  0.6954  0.4762
  170MOL0     C22843   4.741   5.356   6.516  0.2083 -0.2295 -0.0997
  170MOL0     C22844   4.496   5.289   6.552  0.2199 -0.4714  0.8046
  170MOL0     C22845   4.431   5.368   6.440  0.3418  0.3524 -0.5395
  170MOL0     O22846   4.296   5.389   6.458 -0.2114  0.1422  0.8696
  170MOL0     C22847   4.242   5.490   6.379 -1.2277  0.6980  0.0858
  170MOL0     C22848   4.296   5.619   6.364 -1.0298 -0.7331 -0.0270
  170MOL0     C22849   4.230   5.720   6.290 -0.0067  0.5683  0.7244
  170MOL0     C22850   4.110   5.691   6.237  0.2947 -0.1709 -0.3895
  170MOL0     O22851   4.075   5.791   6.147 -0.0456 -0.1791 -0.4299
  170MOL0     C22852   3.939   5.805   6.124  0.1338 -0.4833  0.1084
  170MOL0     C22853   3.926   5.941   6.060 -0.7131  0.2412 -0.0479
  170MOL0     C22854   3.781   5.973   6.007  0.0485 -0.3445 -0.5329
  170MOL0     C22855   3.775   5.952   5.853 -0.4129  0.5860 -0.0571
  170MOL0     C22856   3.632   5.972   5.799  0.1444 -0.1084 -0.6889
  170MOL0     C22857   3.577   6.116   5.794 -0.0519  0.6676 -0.0168
  170MOL0     C22858   3.446   6.122   5.725  0.4233  0.5229 -0.1108
  170MOL0     C22859   3.398   6.270   5.733 -0.0131 -0.3951  1.1516
  170MOL0    Cl22860   3.316   6.315   5.884 -0.7393  0.0682 -0.0163
  170MOL0     C22861   4.052   5.566   6.245 -0.0418  0.3650  0.2723
  170MOL0     C22862   4.119   5.464   6.323  0.3698  0.4163  0.5255
  170MOL0     O22863   4.503   5.403   6.346 -0.2236  0.0827 -0.2556
  170MOL0     C22864   4.408   5.196   6.624 -0.6532 -0.6935 -0.4844
  170MOL0     C22865   4.457   5.109   6.723  0.2019  0.1022  0.1313
  170MOL0     N22866   5.071   5.075   6.613  0.6215 -0.6980 -0.2330
  170MOL0     N22867   5.147   5.020   6.524 -0.2266  0.2314 -0.2244
  170MOL0     C22868   5.794   4.348   5.813  0.3940  0.3874 -0.4993
  170MOL0     C22869   5.930   4.319   5.781 -0.4330 -0.5104  0.3503
  170MOL0     C22870   6.349   4.282   5.808  0.9727  0.1430  0.9853
  170MOL0     C22871   6.367   4.207   5.693  0.3231 -1.0772 -0.3700
  170MOL0     C22872   6.490   4.210   5.635 -0.3408  0.3704 -0.7866
  170MOL0     C22873   6.603   4.263   5.702 -0.5148  1.4256  0.6503
  170MOL0     O22874   6.720   4.253   5.634 -0.2132  0.4404 -0.5071
  170MOL0     C22875   6.848   4.284   5.688  0.4576 -0.7376 -0.0960
  170MOL0     C22876   6.876   4.424   5.634  0.1892 -0.5351  0.2968
  170MOL0     C22877   7.031   4.458   5.625  0.4538  0.3618  0.8463
  170MOL0     C22878   7.111   4.403   5.738  0.3169 -0.1958  0.2407
  170MOL0     C22879   7.060   4.440   5.867  0.1515 -0.1897  0.2913
  170MOL0     C22880   7.027   4.459   5.984 -0.9930 -0.5793 -0.1447
  170MOL0     C22881   6.592   4.333   5.824  0.6444  0.1610 -0.1074
  170MOL0     C22882   6.466   4.334   5.870  0.4998 -0.4915  0.1083
  170MOL0     H22883   5.984   4.074   6.000  0.7797  0.7845 -0.2096
  170MOL0     H22884   5.745   4.091   6.028 -1.7982  3.4499  2.0436
  170MOL0     H22885   5.553   4.452   5.882 -1.2941 -2.5314 -1.2033
  170MOL0     H22886   5.446   4.398   5.999 -0.3367  2.0073 -0.3134
  170MOL0     H22887   5.664   4.372   6.152 -2.7847 -1.4292 -2.2673
  170MOL0     H22888   5.717   4.519   6.051 -0.3873  0.7599 -0.7562
  170MOL0     H22889   5.503   4.624   6.128  0.0842 -1.6881 -1.0419
  170MOL0     H22890   5.474   4.495   6.241 -0.4133 -1.4770 -0.2217
  170MOL0     H22891   5.703   4.555   6.355  0.8478  1.7466  1.9010
  170MOL0     H22892   5.722   4.678   6.244  2.9187 -3.4924  2.1124
  170MOL0     H22893   5.626   4.777   6.447 -0.5069  0.6316 -0.1234
  170MOL0     H22894   5.520   4.796   6.311  0.3120 -0.2229 -0.5902
  170MOL0     H22895   5.368   4.616   6.423 -2.9805  4.1597  0.6492
  170MOL0     H22896   5.496   4.572   6.529 -2.4106 -0.2254  1.1296
  170MOL0     H22897   5.308   4.706   6.630  0.2865  1.9214  0.6861
  170MOL0     H22898   5.468   4.783   6.647 -0.4697  0.2825  1.0479
  170MOL0     H22899   5.308   4.860   6.404  1.3493 -0.6906 -0.9384
  170MOL0     H22900   5.431   4.949   6.488 -1.6023  0.1956 -1.8057
  170MOL0     H22901   5.319   4.934   6.790 -1.4382 -1.4133  1.5868
  170MOL0     H22902   5.180   5.077   6.940 -0.5232  0.0625  1.1122
  170MOL0     H22903   5.047   5.164   6.885 -0.3550 -0.0732  4.3151
  170MOL0     H22904   4.980   5.008   7.041 -0.0856  0.3947  0.1284
  170MOL0     H22905   5.058   4.871   6.949 -1.1156 -0.4245  0.1245
  170MOL0     H22906   4.832   4.839   6.895 -0.1066 -0.0255 -1.4194
  170MOL0     H22907   4.881   4.942   6.758 -3.9059 -0.6391 -0.3408
  170MOL0     H22908   4.796   5.137   6.900 -1.6565  1.0226  2.7720
  170MOL0     H22909   4.759   5.013   7.018 -3.6076 -1.1240 -0.8722
  170MOL0     H22910   4.790   5.174   6.681 -0.2575 -1.0143 -0.1450
  170MOL0     H22911   4.835   5.348   6.572  2.2749 -1.8564 -3.4999
  170MOL0     H22912   4.759   5.329   6.412 -0.2475  2.1561 -0.8599
  170MOL0     H22913   4.704   5.459   6.521 -0.9887 -0.6476  0.1508
  170MOL0     H22914   4.389   5.639   6.416 -0.7651 -2.9381  0.4473
  170MOL0     H22915   4.286   5.814   6.288  1.0859  0.0658  3.4435
  170MOL0     H22916   3.897   5.737   6.049  0.3742 -0.5270  0.0107
  170MOL0     H22917   3.882   5.801   6.217 -0.8872  1.5028 -0.3668
  170MOL0     H22918   3.952   6.009   6.142 -0.7118  0.3835 -0.1662
  170MOL0     H22919   4.007   5.946   5.987 -1.2926  0.6184 -0.6809
  170MOL0     H22920   3.754   6.076   6.032 -0.5156 -0.0892 -2.0923
  170MOL0     H22921   3.703   5.906   6.041 -0.2869 -1.7561 -3.7371
  170MOL0     H22922   3.844   6.021   5.803 -1.2464 -0.3037 -2.5934
  170MOL0     H22923   3.805   5.850   5.828 -3.1969  0.5045 -4.0114
  170MOL0     H22924   3.563   5.906   5.853  0.7047 -0.9092 -0.9322
  170MOL0     H22925   3.624   5.946   5.693 -2.1180 -1.8347 -0.1744
  170MOL0     H22926   3.566   6.149   5.898 -3.0209 -2.6156  0.9158
  170MOL0     H22927   3.646   6.177   5.735  0.9956 -0.8392 -0.3849
  170MOL0     H22928   3.369   6.058   5.769  1.0480 -0.9642 -1.1023
  170MOL0     H22929   3.467   6.082   5.625  4.5671  1.4652  0.1773
  170MOL0     H22930   3.329   6.287   5.649  0.6678 -1.4558  0.3516
  170MOL0     H22931   3.485   6.336   5.723  2.4761 -3.6664 -1.0792
  170MOL0     H22932   3.957   5.531   6.205  0.3706 -0.7419  0.2245
  170MOL0     H22933   4.065   5.373   6.342  0.3760  0.5231  1.0594
  170MOL0     H22934   4.302   5.195   6.598 -0.5330 -0.2186 -1.0267
  170MOL0     H22935   4.390   5.039   6.773  0.8484 -0.5188  0.1464
  170MOL0     H22936   5.735   4.412   5.749  0.8476  0.9745 -0.3357
  170MOL0     H22937   5.991   4.378   5.714 -0.8019  0.9583  1.2592
  170MOL0     H22938   6.287   4.166   5.631 -0.2367  1.7606 -1.6747
  170MOL0     H22939   6.503   4.163   5.539  3.2950  2.0604 -1.2935
  170MOL0     H22940   6.844   4.287   5.797 -0.8123  0.5102 -0.1421
  170MOL0     H22941   6.920   4.210   5.652 -0.4669 -2.8540  2.1168
  170MOL0     H22942   6.819   4.501   5.687 -0.5559 -0.3940 -0.6673
  170MOL0     H22943   6.836   4.426   5.531  1.0150  2.0608 -0.0430
  170MOL0     H22944   7.041   4.567   5.620  2.3980  0.2104 -3.6079
  170MOL0     H22945   7.075   4.417   5.534 -0.7989 -0.9226  0.7810
  170MOL0     H22946   7.212   4.443   5.726 -0.5404  1.5442 -2.0474
  170MOL0     H22947   7.121   4.295   5.723  3.0971  0.1252 -0.9141
  170MOL0     H22948   7.008   4.482   6.087 -0.2029 -0.9703  0.0958
  170MOL0     H22949   6.671   4.382   5.880  0.1024 -0.1557  0.9722
  170MOL0     H22950   6.469   4.387   5.965  0.5306  0.4478 -0.3990
  171MOL0     O22951   4.103   7.181   9.397  0.1669  0.2813  0.1246
  171MOL0     C22952   4.077   7.252   9.301 -0.1991  0.0600  0.2217
  171MOL0     O22953   3.949   7.290   9.261  0.0853 -0.1111 -0.1177
  171MOL0     C22954   3.840   7.262   9.341 -0.0804  0.2231 -1.2871
  171MOL0     C22955   3.763   7.366   9.381 -0.2079  0.6720  0.3512
  171MOL0     C22956   3.659   7.354   9.466 -0.3085  0.4076  0.4280
  171MOL0     C22957   3.609   7.230   9.513 -0.2456 -0.2947 -0.4065
  171MOL0     O22958   3.495   7.227   9.587  0.7658 -1.0235 -0.8347
  171MOL0     C22959   3.471   7.111   9.670  1.2081 -0.1847 -0.5934
  171MOL0     C22960   3.357   7.155   9.770  0.5759 -0.6483 -0.1255
  171MOL0     C22961   3.345   7.054   9.889 -0.0652 -0.7540  0.4033
  171MOL0     C22962   3.240   7.086   9.992  0.0295  0.4449  0.0792
  171MOL0     C22963   3.255   7.008  10.125  0.0869  0.2252  0.0058
  171MOL0     C22964   3.265   6.854  10.109 -0.1616 -0.7198  0.6435
  171MOL0     C22965   3.158   6.795  10.020  0.2442 -0.2514  0.3956
  171MOL0     C22966   3.039   6.741  10.095  0.0815  0.1663 -0.8606
  171MOL0     N22967   2.993   6.831  10.199  0.6209  0.0121  0.0406
  171MOL0     C22968   2.912   6.937  10.179 -0.8993  0.1268 -1.1028
  171MOL0     C22969   2.894   6.992  10.304  0.3793  0.4043 -0.2786
  171MOL0     C22970   2.825   7.112  10.339  0.6331 -0.3453  0.3700
  171MOL0     C22971   2.687   7.090  10.398  0.2867  0.6443  0.3258
  171MOL0     C22972   2.598   7.014  10.296  0.1480 -0.5726 -0.3884
  171MOL0     C22973   2.454   6.991  10.349 -0.5526  0.1408  0.5924
  171MOL0     O22974   2.391   6.942  10.231 -0.3397  0.7508 -1.1211
  171MOL0     C22975   2.270   6.879  10.247  0.2109 -0.5580 -0.3109
  171MOL0     C22976   2.261   6.747  10.246 -0.0876  0.1756 -0.2633
  171MOL0     C22977   2.137   6.673  10.255  0.5971 -0.7012  0.3377
  171MOL0     C22978   2.146   6.521  10.232 -0.3303  0.3691 -0.0245
  171MOL0     C22979   2.018   6.749  10.289 -0.0327  0.3557  0.3462
  171MOL0     C22980   1.878   6.690  10.312  0.4753 -0.6700 -0.1462
  171MOL0     O22981   1.769   6.766  10.341 -0.0166  0.1286  0.0192
  171MOL0     C22982   1.635   6.732  10.367 -0.7689 -0.2308 -0.1838
  171MOL0     C22983   1.555   6.842  10.377  0.4942 -0.3518 -1.0195
  171MOL0     C22984   1.414   6.830  10.388  0.0571  0.6000  0.2802
  171MOL0     C22985   1.352   6.708  10.410 -0.2883  0.3217 -0.0170
  171MOL0     O22986   1.217   6.714  10.416 -0.5880 -0.2501 -0.0364
  171MOL0     C22987   1.154   6.592  10.462 -0.0118 -0.1188 -0.9495
  171MOL0     C22988   1.009   6.614  10.486 -0.8848  0.1338 -0.1771
  171MOL0     C22989   0.933   6.641  10.355  0.2066  0.0070  0.0870
  171MOL0     C22990   0.789   6.686  10.389 -0.5908  0.2083 -0.4736
  171MOL0     C22991   0.708   6.748  10.276 -0.1794  0.1694 -0.8187
  171MOL0     C22992   0.587   6.830  10.328  0.5795 -0.5771  0.1957
  171MOL0     C22993   0.500   6.869  10.209 -0.2972 -0.2491  0.2078
  171MOL0     C22994   0.393   6.942  10.276 -0.8353  0.0606 -0.1936
  171MOL0    Cl22995   0.244   6.964  10.174 -0.7883 -0.1836  0.2872
  171MOL0     C22996   1.438   6.590  10.408 -0.3365 -0.4898  0.1186
  171MOL0     C22997   1.574   6.607  10.386 -0.3589  0.0327  0.4108
  171MOL0     O22998   1.870   6.570  10.299 -0.2765  0.1861 -0.3543
  171MOL0     C22999   2.026   6.889  10.291 -1.4555 -0.2203  0.0743
  171MOL0     C23000   2.149   6.950  10.266 -0.4211  0.3000 -0.3308
  171MOL0     N23001   2.957   6.905  10.393 -0.2950  0.1580  0.6009
  171MOL0     N23002   3.022   6.810  10.332 -0.3048 -0.3806  0.0981
  171MOL0     C23003   3.686   7.123   9.466  0.2440  0.3881 -0.0076
  171MOL0     C23004   3.805   7.128   9.391  0.4547 -0.4759  1.0895
  171MOL0     C23005   4.189   7.323   9.228 -0.0736 -0.4126  0.0857
  171MOL0     C23006   4.324   7.317   9.268  0.3379  0.7749  0.0527
  171MOL0     C23007   4.432   7.377   9.197 -0.2296 -0.9842  0.0132
  171MOL0     C23008   4.407   7.457   9.086  0.3057  0.1421 -0.3535
  171MOL0     O23009   4.490   7.549   9.032  0.5780 -1.6373 -0.6206
  171MOL0     C23010   4.623   7.565   9.100 -0.3451  0.4627 -0.3765
  171MOL0     C23011   4.696   7.692   9.047 -0.7211 -0.3878  0.2559
  171MOL0     C23012   4.821   7.721   9.129 -0.2827 -0.3821  0.3610
  171MOL0     C23013   4.900   7.852   9.084 -0.6360 -0.3970 -0.1703
  171MOL0     C23014   5.027   7.855   9.164 -0.5891  0.1909 -0.2828
  171MOL0     C23015   5.143   7.857   9.210  0.1739  0.1879 -0.2456
  171MOL0     C23016   4.275   7.462   9.036  0.0229  0.0338 -1.3654
  171MOL0     C23017   4.166   7.390   9.112  0.0684 -0.1722 -0.1955
  171MOL0     H23018   3.791   7.461   9.335  1.8708 -0.2894 -0.4989
  171MOL0     H23019   3.594   7.436   9.497 -1.3956 -0.1290 -0.3770
  171MOL0     H23020   3.429   7.026   9.616  0.4416  0.2999 -0.7746
  171MOL0     H23021   3.567   7.085   9.715  0.4034 -1.1344  0.6878
  171MOL0     H23022   3.387   7.253   9.808  3.7603 -2.3809  2.3392
  171MOL0     H23023   3.261   7.160   9.718 -0.5329 -1.1005  1.7633
  171MOL0     H23024   3.315   6.958   9.845  0.2273 -1.2266  1.2259
  171MOL0     H23025   3.445   7.045   9.931  0.1064 -1.6428 -0.1598
  171MOL0     H23026   3.258   7.188  10.028  2.3617  0.9577 -2.1904
  171MOL0     H23027   3.144   7.090   9.940  0.8426 -1.0825 -1.6679
  171MOL0     H23028   3.348   7.038  10.173 -0.5862  0.4517  1.2070
  171MOL0     H23029   3.172   7.026  10.193 -1.4372 -1.9781 -1.1525
  171MOL0     H23030   3.362   6.844  10.060 -0.8232  0.9782 -1.1301
  171MOL0     H23031   3.268   6.806  10.207  0.5405 -1.2547  0.3710
  171MOL0     H23032   3.120   6.855   9.938  2.7157  0.7741 -0.0875
  171MOL0     H23033   3.201   6.720   9.953 -0.2120  1.2943 -1.7092
  171MOL0     H23034   3.067   6.649  10.147  2.9367 -0.2233 -2.8065
  171MOL0     H23035   2.958   6.720  10.024  0.7317 -0.6790 -1.3809
  171MOL0     H23036   2.876   6.972  10.083 -2.6149  0.6033 -0.3260
  171MOL0     H23037   2.895   7.160  10.408  0.8084 -2.4402  1.7232
  171MOL0     H23038   2.812   7.173  10.249 -3.3086  0.1706  1.1269
  171MOL0     H23039   2.640   7.187  10.422  0.2346  1.7974 -3.7370
  171MOL0     H23040   2.693   7.028  10.488 -1.0459 -0.3743 -0.2614
  171MOL0     H23041   2.638   6.919  10.260 -3.1549 -1.3827 -2.3761
  171MOL0     H23042   2.577   7.085  10.215  0.8009 -2.7924 -2.6027
  171MOL0     H23043   2.411   7.088  10.375 -0.5901 -0.0939  1.4336
  171MOL0     H23044   2.433   6.927  10.436  0.6722  0.4240  1.1187
  171MOL0     H23045   2.347   6.687  10.218  1.6118  2.1617  0.3962
  171MOL0     H23046   2.095   6.501  10.137 -0.3744  1.4401 -0.2348
  171MOL0     H23047   2.248   6.484  10.223 -0.9974 -1.0347 -4.0427
  171MOL0     H23048   2.101   6.462  10.312 -0.9156 -2.5896 -2.3383
  171MOL0     H23049   1.604   6.938  10.391 -2.6223  0.9167  4.1272
  171MOL0     H23050   1.348   6.916  10.394 -0.8846 -0.2121  4.0671
  171MOL0     H23051   1.162   6.520  10.380  0.1347 -0.2599 -0.8124
  171MOL0     H23052   1.198   6.560  10.557  0.3769 -0.6368 -1.2917
  171MOL0     H23053   0.972   6.520  10.526  1.6451 -1.2289 -0.8006
  171MOL0     H23054   0.986   6.680  10.570 -0.7237 -0.8870  0.6849
  171MOL0     H23055   0.931   6.553  10.291 -0.5112 -1.3531  1.8707
  171MOL0     H23056   0.983   6.728  10.311 -0.9502  0.2996 -0.6685
  171MOL0     H23057   0.741   6.592  10.418  1.6713 -1.4695 -1.8351
  171MOL0     H23058   0.793   6.758  10.471  2.2091  1.3993 -1.5423
  171MOL0     H23059   0.672   6.665  10.215  2.7005 -1.1671 -0.8602
  171MOL0     H23060   0.775   6.810  10.216  1.4741 -1.8286 -1.1566
  171MOL0     H23061   0.541   6.766  10.403  2.9435 -1.9486  0.5991
  171MOL0     H23062   0.627   6.919  10.377  1.7134 -1.7192  1.4257
  171MOL0     H23063   0.456   6.791  10.147 -3.3317  2.2486 -1.0709
  171MOL0     H23064   0.552   6.938  10.142  1.2420 -1.5397  0.0295
  171MOL0     H23065   0.428   7.040  10.309 -0.3785  0.6985 -2.3864
  171MOL0     H23066   0.351   6.886  10.360 -0.2930  2.3132  1.6715
  171MOL0     H23067   1.393   6.492  10.417 -3.0518  0.7630  1.2733
  171MOL0     H23068   1.633   6.519  10.363 -3.4453 -1.7949 -1.2605
  171MOL0     H23069   1.954   6.967  10.311  1.8759  2.9672  0.6881
  171MOL0     H23070   2.158   7.058  10.276  3.0848  0.1909 -0.9457
  171MOL0     H23071   3.643   7.033   9.510 -0.6257  0.6436 -0.3086
  171MOL0     H23072   3.855   7.035   9.368 -0.8621 -0.8794 -0.3876
  171MOL0     H23073   4.345   7.265   9.361 -0.5431 -1.5003 -0.9523
  171MOL0     H23074   4.532   7.369   9.238  0.4060 -0.6881 -1.4397
  171MOL0     H23075   4.613   7.575   9.208 -2.7295  0.4450 -0.5506
  171MOL0     H23076   4.683   7.477   9.075  0.7746  1.3937 -1.0636
  171MOL0     H23077   4.637   7.783   9.037  1.0535  0.6311 -2.1258
  171MOL0     H23078   4.730   7.670   8.945 -0.6945 -1.0334  0.3956
  171MOL0     H23079   4.888   7.635   9.129  0.8666  0.4436  2.1255
  171MOL0     H23080   4.784   7.740   9.230  0.1430 -0.2986  0.5038
  171MOL0     H23081   4.842   7.943   9.103  0.5173  0.4520 -0.6577
  171MOL0     H23082   4.916   7.850   8.976  0.5844  0.9201 -0.0402
  171MOL0     H23083   5.247   7.863   9.237 -0.0389  1.1523  0.4253
  171MOL0     H23084   4.248   7.525   8.952  0.3405 -0.0434 -1.5271
  171MOL0     H23085   4.063   7.386   9.076  0.2002 -0.6600 -0.5323
  172MOL0     O23086   7.593   6.294  10.637 -0.3933 -0.2311 -0.2055
  172MOL0     C23087   7.630   6.185  10.675  0.3922 -0.1824  0.0090
  172MOL0     O23088   7.554   6.067  10.671  0.7740  0.1542  0.8958
  172MOL0     C23089   7.413   6.080  10.682 -0.6947  0.6869 -0.0958
  172MOL0     C23090   7.322   6.158  10.618  0.6535  0.7885 -0.0330
  172MOL0     C23091   7.181   6.138  10.634 -0.2464  0.1142 -0.3673
  172MOL0     C23092   7.131   6.039  10.713 -0.2450  1.7984 -0.1140
  172MOL0     O23093   6.997   6.007  10.728 -0.2803  0.4276  0.0269
  172MOL0     C23094   6.913   6.111  10.772  0.7794 -0.2890 -0.2174
  172MOL0     C23095   6.768   6.076  10.743 -0.4285  0.3132  0.6772
  172MOL0     C23096   6.670   6.183  10.791  0.4223  0.0457 -0.1756
  172MOL0     C23097   6.701   6.242  10.928 -0.7442  0.5690 -0.3342
  172MOL0     C23098   6.585   6.313  11.004 -0.3533  0.0437  0.2764
  172MOL0     C23099   6.466   6.218  11.027  0.3456 -0.4628 -0.0387
  172MOL0     C23100   6.507   6.096  11.108 -0.1081  0.5849  0.0647
  172MOL0     C23101   6.390   6.025  11.173 -0.0606  0.3340  0.4026
  172MOL0     N23102   6.307   5.973  11.072 -0.0239  0.0852 -0.0509
  172MOL0     C23103   6.175   6.002  11.059 -0.0196 -0.1801 -0.1415
  172MOL0     C23104   6.137   5.953  10.936 -0.3493 -0.0903 -0.0922
  172MOL0     C23105   5.996   5.957  10.874 -0.7040 -0.6408  0.5026
  172MOL0     C23106   5.906   5.834  10.894 -0.6371  0.7319  0.8882
  172MOL0     C23107   5.946   5.720  10.795  0.1698 -0.5023 -1.1285
  172MOL0     C23108   5.868   5.591  10.823  0.2486 -0.0295 -0.3604
  172MOL0     O23109   5.729   5.613  10.783 -0.4190  0.1534 -0.6759
  172MOL0     C23110   5.675   5.580  10.662 -0.1235 -0.0611 -0.3565
  172MOL0     C23111   5.757   5.532  10.559 -0.5139 -0.3273  0.7145
  172MOL0     C23112   5.709   5.488  10.429  0.1060  0.0001 -0.9228
  172MOL0     C23113   5.808   5.429  10.333  0.7398  0.9300  0.7157
  172MOL0     C23114   5.573   5.497  10.403  0.4471  0.5690 -0.3972
  172MOL0     C23115   5.518   5.462  10.266  0.5686 -0.5681 -0.3283
  172MOL0     O23116   5.571   5.360  10.185  0.0789  0.1570 -0.3049
  172MOL0     C23117   5.521   5.317  10.066 -0.1893  0.5104  0.9317
  172MOL0     C23118   5.531   5.395   9.947 -0.0696 -0.1486  0.6449
  172MOL0     C23119   5.481   5.342   9.822 -0.7923  0.5938 -1.4463
  172MOL0     C23120   5.416   5.220   9.822 -0.2227 -0.4336 -0.4500
  172MOL0     O23121   5.352   5.177   9.701 -0.5595  0.7442  0.1290
  172MOL0     C23122   5.374   5.042   9.644  0.0218  0.3594 -0.2696
  172MOL0     C23123   5.307   5.036   9.504  0.1234 -0.3502 -0.9181
  172MOL0     C23124   5.353   5.134   9.403 -0.6278  0.6053 -0.5457
  172MOL0     C23125   5.437   5.057   9.300 -0.6865 -0.1593  0.0196
  172MOL0     C23126   5.497   5.146   9.192  0.2425 -0.2758  0.7309
  172MOL0     C23127   5.629   5.209   9.242 -0.1103  0.5495  0.2172
  172MOL0     C23128   5.735   5.098   9.275  0.2509 -0.4261  0.5389
  172MOL0     C23129   5.870   5.162   9.292  0.4560  0.4961  1.0642
  172MOL0    Cl23130   5.941   5.222   9.137  0.1049 -0.1509  0.2940
  172MOL0     C23131   5.406   5.149   9.935  0.4755  0.9447 -0.6826
  172MOL0     C23132   5.460   5.190  10.057 -0.1728 -0.8184  0.1004
  172MOL0     O23133   5.423   5.537  10.232 -0.1204 -0.7614  0.4072
  172MOL0     C23134   5.486   5.540  10.501 -0.0014 -0.5992 -0.4135
  172MOL0     C23135   5.536   5.583  10.626 -0.1328  0.6295  0.3689
  172MOL0     N23136   6.239   5.880  10.887  0.2102 -0.3057  0.0836
  172MOL0     N23137   6.346   5.899  10.959 -0.4219 -0.1711  0.1261
  172MOL0     C23138   7.231   5.966  10.784  0.2696  0.9812  0.7298
  172MOL0     C23139   7.370   5.981  10.774  0.3651  0.6736 -0.2028
  172MOL0     C23140   7.765   6.174  10.730 -0.0689  0.1326 -0.0487
  172MOL0     C23141   7.808   6.048  10.782 -0.9154 -0.6384  0.6837
  172MOL0     C23142   7.932   6.030  10.833 -0.2262  0.3721 -0.7246
  172MOL0     C23143   8.027   6.132  10.822  0.1496 -0.2190  0.6210
  172MOL0     O23144   8.144   6.126  10.892  0.8163 -0.6723  0.2442
  172MOL0     C23145   8.255   6.137  10.810 -0.2839  0.2410 -0.2704
  172MOL0     C23146   8.367   6.199  10.900  0.3443  0.4150 -0.1170
  172MOL0     C23147   8.484   6.253  10.816  0.2534  0.4723  0.2096
  172MOL0     C23148   8.570   6.148  10.740  0.5115 -0.1311 -0.5598
  172MOL0     C23149   8.523   6.107  10.605 -0.1009 -0.5067 -0.3588
  172MOL0     C23150   8.478   6.092  10.489  0.0032  0.3619  0.1017
  172MOL0     C23151   7.986   6.259  10.768 -0.0357  0.3384  0.2223
  172MOL0     C23152   7.861   6.280  10.717  0.2042  0.2646 -0.2140
  172MOL0     H23153   7.351   6.226  10.539  1.2586 -0.4346 -0.8771
  172MOL0     H23154   7.106   6.194  10.578 -0.1056 -2.0514 -2.9250
  172MOL0     H23155   6.928   6.124  10.880 -0.4803 -0.1909 -0.0434
  172MOL0     H23156   6.926   6.215  10.741 -0.5672  0.4673  1.5600
  172MOL0     H23157   6.754   6.049  10.638 -0.7966 -2.1021  1.2857
  172MOL0     H23158   6.754   5.986  10.803  1.7341  1.5783  3.3019
  172MOL0     H23159   6.675   6.262  10.716  0.3709 -0.4089 -0.6615
  172MOL0     H23160   6.573   6.133  10.796  0.3197  0.1422 -0.9933
  172MOL0     H23161   6.747   6.171  10.999  0.6739  1.6144 -0.1551
  172MOL0     H23162   6.782   6.316  10.928 -0.8813  0.7181  0.1342
  172MOL0     H23163   6.624   6.352  11.098  2.5293 -1.2943 -0.2493
  172MOL0     H23164   6.548   6.399  10.948 -1.3232  0.2071  1.1413
  172MOL0     H23165   6.388   6.275  11.079  1.2196  0.5007  0.2407
  172MOL0     H23166   6.419   6.181  10.936  2.3076 -4.4910  0.3507
  172MOL0     H23167   6.556   6.022  11.044 -2.4939  0.3105 -1.6008
  172MOL0     H23168   6.573   6.119  11.192 -0.9925 -0.7904  1.1982
  172MOL0     H23169   6.333   6.088  11.240 -0.5363  1.2513 -0.8291
  172MOL0     H23170   6.422   5.938  11.231 -0.9577  0.0682  0.5054
  172MOL0     H23171   6.118   6.036  11.145 -0.9216 -1.2098 -0.3103
  172MOL0     H23172   5.940   6.037  10.923 -3.2205 -0.8470 -1.7839
  172MOL0     H23173   6.014   5.988  10.771  0.8813 -0.3044  0.8649
  172MOL0     H23174   5.801   5.860  10.880 -1.5569 -1.3799  3.0513
  172MOL0     H23175   5.917   5.796  10.996 -0.4356 -1.2311  0.1816
  172MOL0     H23176   6.052   5.700  10.817  0.3606  2.5492  1.4752
  172MOL0     H23177   5.925   5.747  10.691 -0.4131 -0.4042 -0.9856
  172MOL0     H23178   5.866   5.568  10.929 -0.6887 -4.2806 -1.1466
  172MOL0     H23179   5.917   5.501  10.786 -1.4835 -1.6862  1.1862
  172MOL0     H23180   5.860   5.502  10.575  0.5556  1.7116 -1.6892
  172MOL0     H23181   5.913   5.451  10.355  0.9356 -0.6982  1.5880
  172MOL0     H23182   5.798   5.321  10.321  2.7828  0.5175  2.1182
  172MOL0     H23183   5.791   5.484  10.240 -1.0854  4.3318  2.8330
  172MOL0     H23184   5.577   5.493   9.945 -0.1593 -0.0987  0.9441
  172MOL0     H23185   5.480   5.401   9.731 -1.6509  0.3699 -1.5934
  172MOL0     H23186   5.481   5.019   9.632  0.0478  1.1420 -1.6832
  172MOL0     H23187   5.332   4.966   9.711 -2.8389 -0.1299 -2.4469
  172MOL0     H23188   5.320   4.932   9.473 -0.4356 -1.0949  1.1843
  172MOL0     H23189   5.198   5.046   9.514  0.2553  0.3965 -0.1001
  172MOL0     H23190   5.411   5.212   9.453 -0.0006  1.8019 -2.9883
  172MOL0     H23191   5.270   5.181   9.350  0.2030 -0.3504 -2.8418
  172MOL0     H23192   5.500   4.984   9.351 -2.2813 -0.4046  1.7501
  172MOL0     H23193   5.367   4.987   9.253  0.3354 -0.9481 -0.3545
  172MOL0     H23194   5.432   5.228   9.160  3.2877  1.2144 -2.1992
  172MOL0     H23195   5.514   5.078   9.108 -2.1649 -0.5675  0.3932
  172MOL0     H23196   5.684   5.266   9.166 -0.6940  0.0671 -0.5925
  172MOL0     H23197   5.600   5.269   9.328 -1.8303 -0.4162  0.3559
  172MOL0     H23198   5.747   5.021   9.198 -3.3135 -1.5849  0.9619
  172MOL0     H23199   5.714   5.050   9.371  3.3992 -3.2331  0.0056
  172MOL0     H23200   5.940   5.089   9.334 -2.1760 -1.5563  2.2237
  172MOL0     H23201   5.856   5.238   9.370 -0.8947 -0.6882  2.0206
  172MOL0     H23202   5.350   5.057   9.920 -0.0914  1.5849 -2.8646
  172MOL0     H23203   5.467   5.130  10.147 -0.2245 -1.1457 -0.1135
  172MOL0     H23204   5.378   5.536  10.493 -0.1262 -0.1859  0.8669
  172MOL0     H23205   5.456   5.611  10.694 -1.0287  0.6463 -0.6539
  172MOL0     H23206   7.205   5.886  10.853 -2.3355  0.4441 -0.7216
  172MOL0     H23207   7.436   5.923  10.838 -0.3297  0.1267  0.0320
  172MOL0     H23208   7.739   5.964  10.785 -0.8237 -0.9016 -2.0565
  172MOL0     H23209   7.943   5.936  10.886 -2.1411 -1.3062 -3.0667
  172MOL0     H23210   8.291   6.039  10.776 -0.3061  0.3960 -0.7444
  172MOL0     H23211   8.240   6.194  10.718  1.0047 -1.8375 -1.8814
  172MOL0     H23212   8.403   6.126  10.974  0.8324 -2.3108 -2.8353
  172MOL0     H23213   8.316   6.281  10.951 -0.3378 -0.0964  0.0392
  172MOL0     H23214   8.561   6.299  10.878  0.9673 -0.3638 -0.0449
  172MOL0     H23215   8.441   6.327  10.747 -1.9588 -2.0433 -1.3251
  172MOL0     H23216   8.579   6.059  10.802 -0.4670 -1.0588 -1.6996
  172MOL0     H23217   8.667   6.197  10.726 -0.0312  0.6137 -1.9402
  172MOL0     H23218   8.436   6.056  10.398 -2.3805  1.8996  0.5123
  172MOL0     H23219   8.072   6.322  10.753 -1.0228  1.8201  0.5790
  172MOL0     H23220   7.831   6.380  10.690  1.8692  1.4140  1.8625
  173MOL0     O23221   9.643   8.890   2.427 -0.4941  0.3589  0.5856
  173MOL0     C23222   9.716   8.901   2.335  0.7021 -0.4912  0.3620
  173MOL0     O23223   9.675   8.889   2.203  0.1407 -0.3090  0.5048
  173MOL0     C23224   9.542   8.884   2.186 -0.3922  0.7675 -0.0216
  173MOL0     C23225   9.484   8.765   2.132 -0.5581  0.1645 -0.4214
  173MOL0     C23226   9.348   8.756   2.102 -0.5537  0.1166 -0.3756
  173MOL0     C23227   9.262   8.865   2.135 -0.5135 -0.5711 -1.2581
  173MOL0     O23228   9.134   8.879   2.101 -0.6830 -0.1284  0.1990
  173MOL0     C23229   9.078   8.775   2.042  0.6405  0.0571  1.2338
  173MOL0     C23230   8.938   8.826   2.001 -0.5550  0.4142 -0.5060
  173MOL0     C23231   8.852   8.856   2.131  0.3439  0.7232 -0.9556
  173MOL0     C23232   8.713   8.905   2.107  0.1952  0.6748 -0.1613
  173MOL0     C23233   8.626   8.921   2.236 -0.8177 -0.2830 -0.5882
  173MOL0     C23234   8.498   8.991   2.195 -0.1408  0.3925 -0.2194
  173MOL0     C23235   8.384   8.960   2.292  0.1185 -1.0948 -0.3099
  173MOL0     C23236   8.241   9.009   2.257 -0.3871  0.1784 -0.7114
  173MOL0     N23237   8.153   9.002   2.374  0.5507  0.6389  0.2670
  173MOL0     C23238   8.134   8.890   2.455  0.7243  0.0032  0.3233
  173MOL0     C23239   8.041   8.936   2.536 -0.2076  0.7209 -0.5217
  173MOL0     C23240   7.987   8.850   2.660  0.3160  0.0933 -0.1221
  173MOL0     C23241   7.835   8.819   2.662  0.6649 -0.1828 -0.0609
  173MOL0     C23242   7.764   8.948   2.697  0.0786 -0.6075  0.1887
  173MOL0     C23243   7.625   8.927   2.759 -0.4564 -0.2066 -0.4315
  173MOL0     O23244   7.533   8.876   2.664 -0.7092  0.6872  0.4129
  173MOL0     C23245   7.400   8.885   2.673 -0.1342  0.4399 -1.3862
  173MOL0     C23246   7.333   8.967   2.769  0.0151 -0.5721  0.4270
  173MOL0     C23247   7.187   8.958   2.786 -0.7974 -0.4347 -0.1461
  173MOL0     C23248   7.122   9.033   2.908  0.0885 -0.0745 -0.5830
  173MOL0     C23249   7.109   8.892   2.691  0.0255 -0.6234  0.9550
  173MOL0     C23250   6.961   8.887   2.694 -0.6108 -0.3783 -0.1474
  173MOL0     O23251   6.896   9.003   2.726  0.6102 -0.6725 -0.5152
  173MOL0     C23252   6.759   9.021   2.719  0.4083 -0.9741 -0.1885
  173MOL0     C23253   6.702   9.146   2.672 -0.0122  0.4635  0.5920
  173MOL0     C23254   6.568   9.160   2.657  0.4800 -0.1955  0.8869
  173MOL0     C23255   6.479   9.060   2.695 -0.2197 -0.2828 -0.8477
  173MOL0     O23256   6.345   9.089   2.676 -0.0833  0.2617  0.5194
  173MOL0     C23257   6.257   8.974   2.642 -0.9645  0.4205 -0.7121
  173MOL0     C23258   6.117   9.037   2.627  0.5729 -0.6066 -0.1879
  173MOL0     C23259   6.091   9.083   2.479  0.2015 -0.6678  0.9216
  173MOL0     C23260   5.939   9.129   2.469 -0.0861  0.9946 -0.1669
  173MOL0     C23261   5.913   9.191   2.331 -0.0833 -0.3859  0.5104
  173MOL0     C23262   5.760   9.208   2.308 -0.4500  0.0393  1.2731
  173MOL0     C23263   5.732   9.279   2.176  0.0256  0.0814  0.5065
  173MOL0     C23264   5.600   9.216   2.138 -0.0735 -1.2456  0.9226
  173MOL0    Cl23265   5.466   9.266   2.253  0.1876  0.1976  0.0261
  173MOL0     C23266   6.531   8.940   2.740 -0.7443  0.7045  0.5390
  173MOL0     C23267   6.672   8.911   2.747  0.0452 -0.1876 -0.5457
  173MOL0     O23268   6.911   8.775   2.676  0.8313  0.2221 -0.0245
  173MOL0     C23269   7.181   8.820   2.597  0.3989 -0.0849 -0.3920
  173MOL0     C23270   7.322   8.817   2.589 -0.7029  0.7856  0.4021
  173MOL0     N23271   8.006   9.062   2.510  0.5691  0.5176 -0.2939
  173MOL0     N23272   8.078   9.100   2.412 -0.0480 -1.4758  0.3593
  173MOL0     C23273   9.321   8.983   2.194 -0.3432  1.3643  0.2128
  173MOL0     C23274   9.458   8.993   2.212 -0.1131 -0.3823 -0.9172
  173MOL0     C23275   9.860   8.923   2.366  0.5961  0.4127 -0.6851
  173MOL0     C23276   9.899   8.959   2.496 -0.1635  1.0233  0.0081
  173MOL0     C23277  10.034   8.979   2.519 -0.2569  0.2771 -0.7518
  173MOL0     C23278  10.136   8.965   2.426 -0.1988 -0.2981 -0.3266
  173MOL0     O23279  10.267   8.977   2.441 -0.8658  1.4273 -0.5995
  173MOL0     C23280  10.314   8.928   2.565 -0.6393  0.3889  0.1561
  173MOL0     C23281  10.449   8.994   2.591  0.9531 -0.4775 -0.5338
  173MOL0     C23282  10.559   8.943   2.500  0.6809 -0.2897 -0.3162
  173MOL0     C23283  10.641   9.052   2.438 -0.2262  0.9747 -0.8115
  173MOL0     C23284  10.733   9.115   2.535 -0.5273 -0.1220  0.6849
  173MOL0     C23285  10.804   9.176   2.609 -0.8989  0.3230  0.5897
  173MOL0     C23286  10.093   8.923   2.298  0.4642  0.6295  0.4176
  173MOL0     C23287   9.955   8.901   2.270  0.0676  0.2664  0.1888
  173MOL0     H23288   9.544   8.677   2.114  1.6639  1.6927 -0.7950
  173MOL0     H23289   9.318   8.664   2.053  0.8478  0.3402 -1.7626
  173MOL0     H23290   9.135   8.747   1.954  1.8571 -0.5549  2.1927
  173MOL0     H23291   9.066   8.688   2.108 -1.4081 -2.0557 -1.6908
  173MOL0     H23292   8.950   8.913   1.936 -2.2289  0.9325 -0.1825
  173MOL0     H23293   8.901   8.749   1.932  1.1288  0.3391 -1.3614
  173MOL0     H23294   8.853   8.765   2.192  2.0991  0.5690 -1.1782
  173MOL0     H23295   8.898   8.935   2.191 -0.4153  1.3539 -1.1832
  173MOL0     H23296   8.728   8.996   2.048 -1.3057 -0.0245 -1.7408
  173MOL0     H23297   8.658   8.841   2.037 -0.8551 -0.2380  1.4292
  173MOL0     H23298   8.608   8.831   2.295 -0.5020  1.4996  2.4688
  173MOL0     H23299   8.666   8.990   2.312 -0.2912 -0.8483 -0.3407
  173MOL0     H23300   8.521   9.097   2.187  0.6343  0.1927 -0.6774
  173MOL0     H23301   8.470   8.944   2.100  0.8546 -0.7702  0.0414
  173MOL0     H23302   8.372   8.853   2.310  1.5567 -1.1733  0.2684
  173MOL0     H23303   8.403   8.995   2.394 -0.6044 -3.6371  0.7617
  173MOL0     H23304   8.196   8.941   2.185  0.9048  0.3312 -1.7073
  173MOL0     H23305   8.237   9.111   2.217 -2.9419  0.2731 -0.3786
  173MOL0     H23306   8.186   8.796   2.441 -1.4542 -0.9148 -2.9665
  173MOL0     H23307   8.041   8.755   2.666  1.8819  0.8535 -1.2298
  173MOL0     H23308   8.021   8.896   2.753 -1.3215 -0.3568  0.7226
  173MOL0     H23309   7.818   8.739   2.734 -0.5323 -0.3549 -0.5144
  173MOL0     H23310   7.794   8.784   2.567  0.5100 -1.0481  0.3179
  173MOL0     H23311   7.766   9.020   2.615  2.0354  2.0491  2.3595
  173MOL0     H23312   7.826   8.993   2.775  3.3513 -1.2370 -1.8600
  173MOL0     H23313   7.591   9.026   2.790 -0.5633 -0.3986  0.0880
  173MOL0     H23314   7.628   8.867   2.851  2.3414  0.4299 -0.0312
  173MOL0     H23315   7.372   9.044   2.834 -1.4486 -0.7893  1.6120
  173MOL0     H23316   7.201   9.049   2.982 -1.5993  1.4585  0.9784
  173MOL0     H23317   7.090   9.130   2.868 -0.8575  0.4143  1.2198
  173MOL0     H23318   7.044   8.971   2.952 -0.1847  1.0133  0.5420
  173MOL0     H23319   6.762   9.233   2.646 -3.3110  3.4253  2.1189
  173MOL0     H23320   6.531   9.256   2.622 -1.3160 -0.3954  2.1129
  173MOL0     H23321   6.290   8.934   2.546  2.6081  3.2056 -0.8956
  173MOL0     H23322   6.259   8.899   2.721  0.5939  0.6980 -0.4546
  173MOL0     H23323   6.048   8.958   2.657  0.3121 -0.9772 -1.6858
  173MOL0     H23324   6.094   9.121   2.694 -0.2674  0.2508 -1.4949
  173MOL0     H23325   6.118   8.997   2.416  0.6032  0.3666 -0.3673
  173MOL0     H23326   6.148   9.169   2.442 -2.4597  0.3031 -1.3060
  173MOL0     H23327   5.879   9.040   2.487 -0.1401  0.8366 -1.0570
  173MOL0     H23328   5.906   9.199   2.546 -1.6454  2.4733 -2.0531
  173MOL0     H23329   5.939   9.127   2.246 -0.8691 -0.5081  0.3567
  173MOL0     H23330   5.966   9.287   2.324  0.2289 -0.5275  0.9048
  173MOL0     H23331   5.716   9.108   2.312  0.2970 -0.2779  1.8968
  173MOL0     H23332   5.719   9.266   2.392  2.3335  4.4252 -0.0515
  173MOL0     H23333   5.803   9.256   2.095 -1.0950  2.0424 -1.1226
  173MOL0     H23334   5.731   9.388   2.173  2.1556  0.2049 -4.0091
  173MOL0     H23335   5.603   9.109   2.119 -0.3812 -1.2131  0.6833
  173MOL0     H23336   5.566   9.242   2.037  1.5725 -1.8253  0.1776
  173MOL0     H23337   6.467   8.856   2.762  0.4847 -0.3952  0.1049
  173MOL0     H23338   6.704   8.818   2.792 -0.8588 -0.1019  0.3051
  173MOL0     H23339   7.129   8.764   2.521  2.0480 -2.2143 -0.0487
  173MOL0     H23340   7.373   8.760   2.511 -1.3035 -1.4277  1.5427
  173MOL0     H23341   9.271   9.075   2.223 -0.3051  1.0526  1.3046
  173MOL0     H23342   9.500   9.086   2.247 -0.8117 -0.1270 -0.7468
  173MOL0     H23343   9.824   8.960   2.575  0.8697  0.2785  1.0313
  173MOL0     H23344  10.063   8.986   2.624  0.6692 -4.0999 -0.5096
  173MOL0     H23345  10.249   8.952   2.649  0.2289 -1.7450  1.5293
  173MOL0     H23346  10.345   8.823   2.562  0.7138  0.7854 -0.8874
  173MOL0     H23347  10.471   8.964   2.694  1.7664 -1.1163 -0.8778
  173MOL0     H23348  10.438   9.103   2.586 -3.3173 -0.5410  2.2073
  173MOL0     H23349  10.513   8.878   2.425  3.0486 -0.9998 -1.2521
  173MOL0     H23350  10.629   8.887   2.564 -0.5752 -1.0707  0.4040
  173MOL0     H23351  10.577   9.117   2.377 -2.4091  0.5077  0.8586
  173MOL0     H23352  10.708   9.012   2.361 -0.3494 -0.5028 -0.1769
  173MOL0     H23353  10.872   9.239   2.662  1.2831 -0.7609 -0.7863
  173MOL0     H23354  10.168   8.913   2.220 -1.8705 -0.0665 -1.8613
  173MOL0     H23355   9.930   8.865   2.170  1.6414  1.5261 -0.7126
  174MOL0     O23356   9.540   4.403   1.185  0.2876  0.0417  0.2158
  174MOL0     C23357   9.582   4.512   1.223 -0.1110 -0.1352  0.2273
  174MOL0     O23358   9.509   4.603   1.290 -0.7028  0.0792 -0.2990
  174MOL0     C23359   9.395   4.548   1.339  0.1435  0.0918  0.2937
  174MOL0     C23360   9.373   4.486   1.461 -0.0364 -0.6433  0.0959
  174MOL0     C23361   9.247   4.431   1.492  0.3071 -0.1322  1.4426
  174MOL0     C23362   9.139   4.444   1.408  0.9317 -0.1037 -0.0622
  174MOL0     O23363   9.013   4.391   1.442  0.1080 -0.1240  0.2462
  174MOL0     C23364   8.980   4.366   1.580 -0.2327 -0.0925  1.5301
  174MOL0     C23365   8.836   4.358   1.590  0.7770 -0.4594  0.9424
  174MOL0     C23366   8.773   4.501   1.592 -0.3259 -0.0185 -0.2772
  174MOL0     C23367   8.633   4.502   1.654  0.8031  0.9895  0.0769
  174MOL0     C23368   8.596   4.641   1.673  0.0223 -0.4420  0.0012
  174MOL0     C23369   8.535   4.705   1.543  0.3740  0.1461  0.2671
  174MOL0     C23370   8.504   4.839   1.585  0.2447  0.0839  0.3476
  174MOL0     C23371   8.387   4.894   1.500 -0.3598  0.1755 -0.5812
  174MOL0     N23372   8.364   5.037   1.542  0.3364  0.2825  0.1171
  174MOL0     C23373   8.448   5.149   1.522  0.0887  0.2040 -0.0023
  174MOL0     C23374   8.400   5.248   1.600 -0.5615  0.3721 -0.1676
  174MOL0     C23375   8.460   5.383   1.620  0.3643 -0.4876 -0.3472
  174MOL0     C23376   8.443   5.468   1.495  0.8442 -0.1186 -0.1328
  174MOL0     C23377   8.512   5.606   1.515  0.4953 -0.3054  0.3775
  174MOL0     C23378   8.663   5.594   1.508 -0.6980  0.7302  0.0997
  174MOL0     O23379   8.694   5.600   1.374 -0.6844 -0.0813  0.3051
  174MOL0     C23380   8.829   5.598   1.337 -0.1634  0.2519  0.1239
  174MOL0     C23381   8.850   5.575   1.203 -0.5502 -0.1826 -0.8323
  174MOL0     C23382   8.981   5.565   1.148 -0.4020  0.5227  0.2904
  174MOL0     C23383   8.988   5.533   0.998 -0.0323  0.3229  0.3218
  174MOL0     C23384   9.095   5.589   1.226 -0.0217  0.4119  0.9254
  174MOL0     C23385   9.237   5.592   1.180 -0.6782  0.2437  0.1904
  174MOL0     O23386   9.332   5.595   1.275 -0.7064 -0.4418  0.0925
  174MOL0     C23387   9.463   5.572   1.246 -0.5319  0.2772 -0.3185
  174MOL0     C23388   9.511   5.464   1.175  0.6235  0.2208  0.7159
  174MOL0     C23389   9.646   5.445   1.150  0.3841  0.4269  0.4258
  174MOL0     C23390   9.740   5.522   1.214 -0.8623  0.2437  0.3165
  174MOL0     O23391   9.863   5.493   1.164  0.4226  0.0758 -0.8840
  174MOL0     C23392   9.973   5.491   1.259  0.1270  0.5765  0.2685
  174MOL0     C23393  10.088   5.456   1.173 -0.9801 -0.1734 -0.4591
  174MOL0     C23394  10.216   5.445   1.259 -0.3461 -0.4144 -0.0356
  174MOL0     C23395  10.330   5.405   1.165  0.2236 -0.4662 -1.0139
  174MOL0     C23396  10.445   5.504   1.167 -0.5907 -0.4824  0.0326
  174MOL0     C23397  10.572   5.449   1.095 -0.2278  0.5039  1.0740
  174MOL0     C23398  10.679   5.558   1.094  0.2139 -1.2465  0.0374
  174MOL0     C23399  10.809   5.508   1.025 -0.3680  0.6354 -0.2217
  174MOL0    Cl23400  10.788   5.517   0.855 -0.1913 -0.2204  0.3064
  174MOL0     C23401   9.700   5.626   1.307 -0.6099 -0.0276  0.0680
  174MOL0     C23402   9.560   5.657   1.312  0.3522  0.2217  0.4842
  174MOL0     O23403   9.263   5.567   1.065 -0.4336  0.3294 -0.1332
  174MOL0     C23404   9.068   5.625   1.361 -0.7809  0.1640 -0.1262
  174MOL0     C23405   8.937   5.634   1.409 -0.5410 -0.3495 -0.1199
  174MOL0     N23406   8.294   5.212   1.659  0.2811  0.1475  0.8585
  174MOL0     N23407   8.271   5.085   1.632 -0.0539 -0.9653 -0.2939
  174MOL0     C23408   9.157   4.509   1.283 -0.3434 -0.4536  0.0679
  174MOL0     C23409   9.282   4.558   1.247 -0.6309 -0.0112  0.7093
  174MOL0     C23410   9.728   4.552   1.218 -0.8196  1.0817 -0.0264
  174MOL0     C23411   9.773   4.687   1.229  0.1833 -0.3555  0.3377
  174MOL0     C23412   9.907   4.723   1.220 -0.1898 -0.6953 -0.2431
  174MOL0     C23413  10.001   4.624   1.214  0.4478  0.4942 -0.6445
  174MOL0     O23414  10.133   4.653   1.211  0.6488 -0.2666 -0.4860
  174MOL0     C23415  10.234   4.554   1.185  0.8162 -0.6573 -0.2727
  174MOL0     C23416  10.368   4.619   1.194  0.0361  0.5096 -0.3803
  174MOL0     C23417  10.485   4.525   1.202  0.5102 -0.3384  0.6918
  174MOL0     C23418  10.623   4.588   1.163  0.8962  0.1783 -0.6974
  174MOL0     C23419  10.737   4.509   1.206  0.1565 -0.8883 -0.8452
  174MOL0     C23420  10.820   4.443   1.255  0.0359 -0.1484 -0.4392
  174MOL0     C23421   9.961   4.492   1.203 -0.0765  0.7981  0.1746
  174MOL0     C23422   9.828   4.453   1.204 -0.1128 -0.2134 -0.3668
  174MOL0     H23423   9.446   4.480   1.540  1.2573 -4.4210 -1.2073
  174MOL0     H23424   9.233   4.379   1.586 -2.0644  1.4707  2.0653
  174MOL0     H23425   9.034   4.277   1.614  1.4413 -0.4746 -1.7988
  174MOL0     H23426   9.016   4.457   1.628 -1.2886  1.7173 -0.9097
  174MOL0     H23427   8.785   4.301   1.512 -0.1201 -1.3675  2.1378
  174MOL0     H23428   8.830   4.300   1.683 -0.1847 -1.9694 -0.0124
  174MOL0     H23429   8.836   4.570   1.650  0.8103 -1.1185 -0.1534
  174MOL0     H23430   8.776   4.545   1.492  2.1035  0.1706 -0.1949
  174MOL0     H23431   8.573   4.444   1.583  0.2486 -1.8262  2.6345
  174MOL0     H23432   8.641   4.438   1.742 -0.0314 -0.8347 -1.1039
  174MOL0     H23433   8.512   4.642   1.744  0.8564  3.4665  1.1506
  174MOL0     H23434   8.675   4.707   1.711  1.6894 -2.0360 -0.5650
  174MOL0     H23435   8.603   4.697   1.457  0.0794  3.7543 -0.4647
  174MOL0     H23436   8.445   4.644   1.529 -1.3835  1.7102  3.5441
  174MOL0     H23437   8.456   4.832   1.683 -0.8636 -0.6653 -0.2149
  174MOL0     H23438   8.591   4.905   1.580 -0.2300  0.7307  0.4900
  174MOL0     H23439   8.295   4.835   1.504 -0.0598 -0.4103 -1.8371
  174MOL0     H23440   8.419   4.894   1.395  1.0896  2.8578 -0.2303
  174MOL0     H23441   8.532   5.160   1.455  0.9608  0.6061  1.1209
  174MOL0     H23442   8.417   5.436   1.706  0.8800 -0.5058 -0.0762
  174MOL0     H23443   8.566   5.368   1.641  0.4208  0.8655  0.4078
  174MOL0     H23444   8.336   5.488   1.484  1.0116  2.7750  2.2526
  174MOL0     H23445   8.471   5.420   1.401 -2.7562 -0.6013 -1.1225
  174MOL0     H23446   8.483   5.651   1.611  3.0496  0.5538  0.8070
  174MOL0     H23447   8.477   5.676   1.438  1.5760 -0.0718  0.0865
  174MOL0     H23448   8.702   5.505   1.559 -0.9045  2.7659  4.2973
  174MOL0     H23449   8.700   5.681   1.563 -5.1086  1.4046  2.5195
  174MOL0     H23450   8.763   5.563   1.139 -0.0981 -1.4126 -1.2381
  174MOL0     H23451   9.021   5.620   0.941  0.1742  0.5953  0.8485
  174MOL0     H23452   9.045   5.443   0.978 -2.8153 -1.4096 -0.3451
  174MOL0     H23453   8.892   5.499   0.959  0.9993 -1.5250 -0.7658
  174MOL0     H23454   9.446   5.405   1.112  1.8766  1.0778 -1.5285
  174MOL0     H23455   9.671   5.375   1.071  1.4987  0.1177  1.0429
  174MOL0     H23456   9.991   5.586   1.311 -0.3599  0.1197  1.3048
  174MOL0     H23457   9.962   5.408   1.329  0.9828  0.9060  0.8152
  174MOL0     H23458  10.058   5.363   1.124 -1.4399  0.3216 -1.1209
  174MOL0     H23459  10.091   5.542   1.106 -0.6508  0.9131  0.8847
  174MOL0     H23460  10.207   5.377   1.344  1.2563  1.5152  1.7855
  174MOL0     H23461  10.232   5.542   1.307 -2.2405  0.7164 -1.5313
  174MOL0     H23462  10.375   5.312   1.201  1.5709  0.0165 -1.3822
  174MOL0     H23463  10.301   5.381   1.062  1.1114 -1.1024 -1.1262
  174MOL0     H23464  10.473   5.543   1.265 -0.4691  3.8686 -1.5229
  174MOL0     H23465  10.422   5.593   1.109 -0.8679 -1.4093 -1.3198
  174MOL0     H23466  10.609   5.361   1.148  0.0541  0.1264  0.2672
  174MOL0     H23467  10.559   5.419   0.991  0.8065  1.8739  0.5145
  174MOL0     H23468  10.702   5.600   1.192 -1.7584  0.4057 -0.1405
  174MOL0     H23469  10.652   5.647   1.038  1.3616 -0.5701  0.5209
  174MOL0     H23470  10.829   5.401   1.037 -0.3217  0.4279 -1.9099
  174MOL0     H23471  10.895   5.563   1.063 -0.7627 -0.5285  2.6560
  174MOL0     H23472   9.774   5.691   1.352  0.8503  0.0861 -2.3437
  174MOL0     H23473   9.522   5.733   1.379  1.3375  2.8693 -1.7451
  174MOL0     H23474   9.151   5.647   1.427 -1.0325 -2.1708  1.0809
  174MOL0     H23475   8.923   5.655   1.515 -0.3489  1.6710 -0.4646
  174MOL0     H23476   9.064   4.529   1.230 -0.0574 -1.3557 -0.8141
  174MOL0     H23477   9.296   4.606   1.150 -2.3780 -0.8891 -0.0257
  174MOL0     H23478   9.694   4.761   1.240  0.9499  0.6667 -0.7413
  174MOL0     H23479   9.941   4.825   1.233  0.0673 -0.7953 -0.1430
  174MOL0     H23480  10.229   4.477   1.264  1.3784  1.4258  1.9085
  174MOL0     H23481  10.216   4.508   1.088 -2.6539  2.4445 -1.3350
  174MOL0     H23482  10.377   4.690   1.277 -2.1851  2.2315 -1.4782
  174MOL0     H23483  10.379   4.682   1.105 -2.2541  1.4677 -0.0711
  174MOL0     H23484  10.474   4.442   1.132  3.9850  1.6111 -2.6017
  174MOL0     H23485  10.482   4.473   1.298 -2.2747  0.9810  1.4213
  174MOL0     H23486  10.631   4.694   1.190  1.9840  0.3337 -1.5803
  174MOL0     H23487  10.620   4.594   1.054 -0.1662  2.9772 -0.5927
  174MOL0     H23488  10.904   4.386   1.290 -0.3432  1.6931  4.0284
  174MOL0     H23489  10.036   4.414   1.215 -1.5598 -0.4770  1.6862
  174MOL0     H23490   9.796   4.351   1.182 -0.8063 -0.2032  0.5727
  175MOL0     O23491   8.081  10.668  10.378  0.0672  0.5401 -0.3912
  175MOL0     C23492   8.151  10.646  10.475 -0.2236 -0.0700 -0.2555
  175MOL0     O23493   8.111  10.573  10.588 -0.4613 -0.4311  0.5065
  175MOL0     C23494   7.985  10.522  10.599 -0.2631  0.5842  1.1840
  175MOL0     C23495   7.932  10.428  10.511  0.1565 -0.1818  0.5937
  175MOL0     C23496   7.806  10.371  10.526 -0.7846 -0.2720 -0.3668
  175MOL0     C23497   7.739  10.386  10.645 -0.0428 -0.3220  0.4272
  175MOL0     O23498   7.611  10.328  10.656 -0.5512  0.3286 -0.0739
  175MOL0     C23499   7.544  10.300  10.781 -0.2786 -0.8638 -0.3263
  175MOL0     C23500   7.484  10.435  10.821  0.2106 -0.5000 -0.6067
  175MOL0     C23501   7.434  10.437  10.976  0.0701  0.6640  0.3697
  175MOL0     C23502   7.359  10.562  11.005  0.4462  0.4841  0.0379
  175MOL0     C23503   7.322  10.599  11.149 -0.3833  0.1202  0.3226
  175MOL0     C23504   7.254  10.485  11.230 -0.1339 -0.0755 -0.1082
  175MOL0     C23505   7.192  10.546  11.365 -0.7814  0.8892  0.2300
  175MOL0     C23506   7.073  10.631  11.335  0.5054 -0.7124  0.3509
  175MOL0     N23507   6.964  10.574  11.263 -0.1982  0.2152 -0.4284
  175MOL0     C23508   6.849  10.531  11.314  0.2295  0.5050 -0.7069
  175MOL0     C23509   6.777  10.494  11.210  0.5069  0.2583  0.9766
  175MOL0     C23510   6.643  10.428  11.213 -0.2162 -0.2484 -0.2863
  175MOL0     C23511   6.524  10.526  11.251 -0.4928 -0.3086  0.4819
  175MOL0     C23512   6.403  10.444  11.304 -0.1840  0.7809  0.2426
  175MOL0     C23513   6.275  10.503  11.267  0.6598  0.4393  0.1830
  175MOL0     O23514   6.174  10.405  11.300 -0.3636  0.0109  0.6065
  175MOL0     C23515   6.051  10.457  11.320  0.2521  0.9607  0.6560
  175MOL0     C23516   5.950  10.425  11.229  0.0667 -0.2858 -0.8117
  175MOL0     C23517   5.819  10.474  11.232  1.4691 -0.3901 -0.0838
  175MOL0     C23518   5.724  10.414  11.136  0.3403  0.7120  0.6544
  175MOL0     C23519   5.785  10.578  11.326 -0.6606  0.6810 -0.6709
  175MOL0     C23520   5.651  10.639  11.348 -0.2855 -0.1574  0.0827
  175MOL0     O23521   5.647  10.740  11.442 -0.5741 -0.2492 -0.3582
  175MOL0     C23522   5.522  10.755  11.507  0.0420  0.6715 -1.2412
  175MOL0     C23523   5.521  10.708  11.638 -0.3075 -0.3145 -0.0005
  175MOL0     C23524   5.422  10.734  11.717 -0.4038 -0.6234  0.1067
  175MOL0     C23525   5.310  10.808  11.678 -0.1436 -0.1233 -0.1547
  175MOL0     O23526   5.197  10.842  11.750  0.0278  0.7307 -1.0023
  175MOL0     C23527   5.214  10.839  11.893  0.0337  0.9821 -0.2114
  175MOL0     C23528   5.082  10.872  11.960 -0.0205 -0.1906  0.0716
  175MOL0     C23529   4.972  10.762  11.959 -0.8860  0.4760 -0.2115
  175MOL0     C23530   4.863  10.789  12.060 -0.6472 -0.4252  0.4868
  175MOL0     C23531   4.747  10.694  12.037  0.6114 -0.0160  0.1324
  175MOL0     C23532   4.627  10.723  12.133 -0.2278 -0.3701 -0.3544
  175MOL0     C23533   4.658  10.701  12.276  0.0998  0.9433 -0.5117
  175MOL0     C23534   4.547  10.705  12.383  0.4223 -0.6785 -0.0348
  175MOL0    Cl23535   4.449  10.848  12.408  0.0875  0.2833  0.0423
  175MOL0     C23536   5.301  10.839  11.545 -0.4838  0.3162  0.1438
  175MOL0     C23537   5.408  10.815  11.460 -0.0646  0.1580  0.1072
  175MOL0     O23538   5.555  10.588  11.284  0.3699  0.2234 -0.1038
  175MOL0     C23539   5.893  10.624  11.402 -0.2376  0.6011 -0.8213
  175MOL0     C23540   6.021  10.567  11.405  0.0002  0.4354  0.2998
  175MOL0     N23541   6.851  10.502  11.098  0.4102  0.7106 -0.1895
  175MOL0     N23542   6.967  10.552  11.128  0.1310  0.2505 -0.0940
  175MOL0     C23543   7.809  10.455  10.749 -0.8237  0.4175  0.0230
  175MOL0     C23544   7.925  10.523  10.718 -0.4145 -0.2723 -0.5642
  175MOL0     C23545   8.292  10.693  10.474 -0.7794 -0.1276  0.0585
  175MOL0     C23546   8.349  10.741  10.356 -0.1448  0.3200  0.1301
  175MOL0     C23547   8.475  10.795  10.347  0.4270  0.7823 -0.3485
  175MOL0     C23548   8.563  10.791  10.452  0.3755  0.7237 -0.1039
  175MOL0     O23549   8.698  10.818  10.422  0.1736 -0.0706  0.0393
  175MOL0     C23550   8.802  10.811  10.528 -0.1739 -0.4748  0.2413
  175MOL0     C23551   8.945  10.849  10.487  0.5256  0.5145 -0.0899
  175MOL0     C23552   8.967  10.967  10.386 -0.2481  0.2847 -0.2822
  175MOL0     C23553   9.108  10.993  10.347 -0.9708  0.0382 -0.6230
  175MOL0     C23554   9.201  11.022  10.453  0.1819  0.1746 -0.3373
  175MOL0     C23555   9.291  11.047  10.527 -0.3480  0.6210 -1.1022
  175MOL0     C23556   8.507  10.743  10.579  0.1496 -0.0823  0.1166
  175MOL0     C23557   8.375  10.691  10.589 -0.3624  0.1050  0.7028
  175MOL0     H23558   7.997  10.411  10.425 -0.3695  1.9202 -0.2806
  175MOL0     H23559   7.775  10.300  10.449 -1.8528  1.2866 -1.4443
  175MOL0     H23560   7.462  10.230  10.760 -0.6410 -0.9938  1.3925
  175MOL0     H23561   7.617  10.272  10.857 -0.4156  4.5576  2.2586
  175MOL0     H23562   7.555  10.517  10.804  1.0925 -0.9263  0.7931
  175MOL0     H23563   7.389  10.453  10.771 -0.5393 -0.0220  0.9174
  175MOL0     H23564   7.370  10.351  10.999 -0.1923  1.0651  1.1441
  175MOL0     H23565   7.521  10.437  11.042  0.0110  1.2596  0.4469
  175MOL0     H23566   7.425  10.643  10.974  1.2174  0.0832  0.5810
  175MOL0     H23567   7.267  10.547  10.949  1.2955 -0.1622 -1.2430
  175MOL0     H23568   7.410  10.633  11.203 -1.8531  0.9418  2.3125
  175MOL0     H23569   7.253  10.684  11.142 -1.3764 -0.4079  2.6355
  175MOL0     H23570   7.181  10.436  11.164 -0.4383 -0.4128  0.4770
  175MOL0     H23571   7.315  10.395  11.245 -1.3656 -1.0853 -0.8745
  175MOL0     H23572   7.166  10.464  11.432 -0.8380  0.5257 -0.2363
  175MOL0     H23573   7.267  10.617  11.402  0.4362 -0.3475  0.2125
  175MOL0     H23574   7.096  10.729  11.292  2.3935 -1.6721 -0.9592
  175MOL0     H23575   7.033  10.649  11.436 -2.1624  0.3008 -0.7862
  175MOL0     H23576   6.826  10.521  11.419  0.3525 -0.3732 -0.7537
  175MOL0     H23577   6.621  10.377  11.119  0.8095 -1.9969  0.3616
  175MOL0     H23578   6.648  10.337  11.274 -0.6631 -0.7524 -0.9811
  175MOL0     H23579   6.499  10.568  11.153  0.9975 -2.3318 -0.8650
  175MOL0     H23580   6.553  10.599  11.326 -0.2621  0.0883  0.0116
  175MOL0     H23581   6.416  10.416  11.409  0.9603 -0.3659 -0.1695
  175MOL0     H23582   6.415  10.352  11.245  3.7346  0.1666  1.6895
  175MOL0     H23583   6.275  10.534  11.163 -1.3575  4.9515  1.3015
  175MOL0     H23584   6.264  10.594  11.327 -0.7793  0.1081  0.4647
  175MOL0     H23585   5.964  10.347  11.154 -0.8489  0.8775 -2.2468
  175MOL0     H23586   5.636  10.395  11.199  0.8196 -0.9060  0.8756
  175MOL0     H23587   5.706  10.483  11.053 -0.9928 -2.5770 -1.9929
  175MOL0     H23588   5.747  10.319  11.087 -0.0423  1.1266 -0.3502
  175MOL0     H23589   5.617  10.667  11.668  1.6469  3.4271 -0.5790
  175MOL0     H23590   5.441  10.710  11.821 -0.9829  1.1591  0.6663
  175MOL0     H23591   5.248  10.742  11.930 -2.5914  0.1044  0.1078
  175MOL0     H23592   5.295  10.910  11.914 -0.0728  1.9895 -2.7397
  175MOL0     H23593   5.108  10.900  12.063 -1.3027  1.3366  0.0232
  175MOL0     H23594   5.054  10.962  11.905  0.3321 -1.3109 -2.0288
  175MOL0     H23595   5.013  10.667  11.995  1.6933  0.9512 -1.6461
  175MOL0     H23596   4.932  10.757  11.858  0.8172  0.5156 -0.9183
  175MOL0     H23597   4.910  10.778  12.158  2.5566 -0.9807 -0.9870
  175MOL0     H23598   4.828  10.892  12.043  0.3943 -0.0310  0.6575
  175MOL0     H23599   4.778  10.590  12.051  2.0460  0.4909  1.0143
  175MOL0     H23600   4.721  10.692  11.931  0.1258 -0.7765  0.2589
  175MOL0     H23601   4.591  10.824  12.113  0.2699 -0.3734 -1.3335
  175MOL0     H23602   4.552  10.650  12.101  1.7153 -1.8847 -1.7359
  175MOL0     H23603   4.717  10.789  12.304  0.7863  1.1270 -2.3809
  175MOL0     H23604   4.713  10.607  12.290 -3.0891 -0.6100  3.7065
  175MOL0     H23605   4.578  10.679  12.485 -0.5483  3.3259  1.5088
  175MOL0     H23606   4.477  10.627  12.352 -1.6222  0.5659  1.1821
  175MOL0     H23607   5.215  10.885  11.497  1.0589 -1.1668 -4.5762
  175MOL0     H23608   5.406  10.859  11.361 -1.0079  2.3480  1.0348
  175MOL0     H23609   5.891  10.712  11.466  0.5357  0.2191 -0.2563
  175MOL0     H23610   6.095  10.608  11.473 -0.6053  0.2416  1.0863
  175MOL0     H23611   7.774  10.457  10.851 -0.7987  0.0087  0.0387
  175MOL0     H23612   7.965  10.575  10.804  1.0269  0.1386 -1.4317
  175MOL0     H23613   8.300  10.728  10.260 -1.2098 -0.3751  0.7492
  175MOL0     H23614   8.521  10.810  10.250  2.3217  0.2137  0.4137
  175MOL0     H23615   8.775  10.872  10.614 -1.2649 -3.9706  2.6230
  175MOL0     H23616   8.810  10.708  10.565 -0.4721 -1.2950 -1.8020
  175MOL0     H23617   8.986  10.765  10.431  1.3253  0.6232  0.3067
  175MOL0     H23618   9.007  10.852  10.578 -1.3830 -2.0250  1.4079
  175MOL0     H23619   8.922  11.056  10.429  1.2591  0.0082  2.0656
  175MOL0     H23620   8.921  10.941  10.290  1.4033  4.6057 -2.5086
  175MOL0     H23621   9.105  11.067  10.267 -2.0120  2.0898  1.2068
  175MOL0     H23622   9.152  10.903  10.301  1.7810 -1.8096  4.7487
  175MOL0     H23623   9.382  11.081  10.572 -0.7555 -0.5983  0.7695
  175MOL0     H23624   8.568  10.742  10.669  3.5189  0.6725 -1.9663
  175MOL0     H23625   8.328  10.645  10.676 -0.8893  1.2866  1.0619
  176MOL0     O23626   1.431   8.713   4.217  0.1449 -0.0579 -0.3425
  176MOL0     C23627   1.478   8.816   4.163  0.6797  0.0839  0.0124
  176MOL0     O23628   1.395   8.920   4.113  0.1927 -0.1706  0.6978
  176MOL0     C23629   1.258   8.913   4.140  0.6253 -0.4229 -0.1199
  176MOL0     C23630   1.176   8.816   4.088  0.3399 -1.1121 -0.2787
  176MOL0     C23631   1.040   8.836   4.081  0.4328 -0.0784  0.5296
  176MOL0     C23632   0.974   8.946   4.136 -0.6724 -0.4334 -0.4906
  176MOL0     O23633   0.836   8.946   4.128  0.2388 -0.4133  0.6561
  176MOL0     C23634   0.770   9.055   4.201  0.2415 -0.4896 -0.7959
  176MOL0     C23635   0.615   9.025   4.206 -0.7059  0.3430  0.5511
  176MOL0     C23636   0.571   9.037   4.059 -0.8627 -0.1772  1.1486
  176MOL0     C23637   0.420   9.042   4.067  0.5023 -0.7975 -0.3456
  176MOL0     C23638   0.357   9.024   3.931  0.1210 -0.1510 -0.7836
  176MOL0     C23639   0.212   9.050   3.923 -0.1496  0.9404  0.1647
  176MOL0     C23640   0.154   9.054   3.771 -0.1782  0.7846 -0.2269
  176MOL0     C23641   0.196   8.933   3.683 -0.3162  0.1919  0.1490
  176MOL0     N23642   0.147   8.944   3.543  0.2247 -0.5080 -0.2687
  176MOL0     C23643   0.158   8.847   3.447 -0.4167 -0.3838 -0.4785
  176MOL0     C23644   0.138   8.910   3.324 -0.2546  0.8890 -0.3926
  176MOL0     C23645   0.160   8.852   3.184  0.1541  0.2445 -0.9649
  176MOL0     C23646   0.030   8.788   3.140  0.3777  0.2010 -0.2296
  176MOL0     C23647  -0.024   8.681   3.241 -0.5744  0.1060 -0.6340
  176MOL0     C23648  -0.137   8.593   3.174 -0.1964 -0.3442  0.0244
  176MOL0     O23649  -0.211   8.533   3.279  0.3043  0.3547  0.1497
  176MOL0     C23650  -0.321   8.608   3.303 -0.6383  0.7009  1.1526
  176MOL0     C23651  -0.332   8.674   3.419 -0.4952 -0.8213  1.0925
  176MOL0     C23652  -0.440   8.747   3.460  0.9360 -0.3345  0.2509
  176MOL0     C23653  -0.421   8.824   3.587  0.4152 -0.1404  1.0023
  176MOL0     C23654  -0.551   8.755   3.371 -0.2667 -0.2056 -0.4916
  176MOL0     C23655  -0.679   8.837   3.399  0.0146 -1.0830 -0.1978
  176MOL0     O23656  -0.679   8.955   3.467 -0.1483 -0.0379 -0.1233
  176MOL0     C23657  -0.802   9.025   3.490 -0.9329  0.4837 -0.3306
  176MOL0     C23658  -0.929   8.980   3.497 -0.8593  0.5946  0.3959
  176MOL0     C23659  -1.035   9.058   3.528  0.4011  0.0810 -0.5294
  176MOL0     C23660  -1.019   9.193   3.543  0.0648 -0.9883 -0.2899
  176MOL0     O23661  -1.112   9.284   3.588  0.5237  0.1940 -0.0186
  176MOL0     C23662  -1.252   9.262   3.552  0.1426  0.5541 -0.6718
  176MOL0     C23663  -1.313   9.393   3.557  0.3322  0.5770 -0.4853
  176MOL0     C23664  -1.270   9.494   3.442 -0.8679 -0.0042  0.3995
  176MOL0     C23665  -1.232   9.632   3.495 -0.2347  0.9027  0.0861
  176MOL0     C23666  -1.078   9.640   3.516 -0.1585  0.1877 -0.3399
  176MOL0     C23667  -1.025   9.782   3.529 -0.0147  0.7627  0.8660
  176MOL0     C23668  -0.875   9.785   3.550 -0.8822 -0.6029  0.3146
  176MOL0     C23669  -0.840   9.912   3.628 -0.9031  0.1705  0.1798
  176MOL0    Cl23670  -0.660   9.916   3.654 -0.0282 -0.0416  0.1646
  176MOL0     C23671  -0.892   9.252   3.542 -0.6790  0.3636 -0.2505
  176MOL0     C23672  -0.783   9.162   3.508  0.8881 -0.8404  1.1677
  176MOL0     O23673  -0.778   8.780   3.363  0.2196 -0.3105 -0.3574
  176MOL0     C23674  -0.537   8.688   3.251  0.8130  0.0291 -0.8554
  176MOL0     C23675  -0.429   8.616   3.214  0.7530  0.1697 -0.0457
  176MOL0     N23676   0.116   9.038   3.353  0.0495 -0.3039 -0.1908
  176MOL0     N23677   0.128   9.064   3.481  0.2938 -0.1969  0.7923
  176MOL0     C23678   1.058   9.045   4.201  0.0710  0.2238 -0.0694
  176MOL0     C23679   1.193   9.028   4.206 -0.1000 -0.0092  0.3247
  176MOL0     C23680   1.624   8.830   4.145 -0.5559 -0.4948  0.0198
  176MOL0     C23681   1.676   8.937   4.067 -0.3595  0.2645  0.5531
  176MOL0     C23682   1.822   8.953   4.059 -0.2955 -1.2180  0.2505
  176MOL0     C23683   1.908   8.865   4.116  0.2199  0.3729 -0.7881
  176MOL0     O23684   2.046   8.866   4.103  0.1738  0.0600 -0.2717
  176MOL0     C23685   2.124   8.955   4.021  0.2635  0.4639  0.9094
  176MOL0     C23686   2.188   9.065   4.104  0.6381 -0.4015 -0.2476
  176MOL0     C23687   2.089   9.171   4.155 -0.8329 -0.2824 -0.3432
  176MOL0     C23688   2.152   9.268   4.257  0.6137 -0.2419 -0.3723
  176MOL0     C23689   2.078   9.394   4.250  0.0233  0.2048  0.4163
  176MOL0     C23690   2.023   9.501   4.251  0.3992  0.0695  0.2896
  176MOL0     C23691   1.849   8.757   4.184 -0.8762  0.1341 -0.3893
  176MOL0     C23692   1.718   8.747   4.210  0.3510  0.1976  0.3042
  176MOL0     H23693   1.210   8.725   4.039 -1.8998 -2.2109  0.0708
  176MOL0     H23694   0.990   8.753   4.033 -0.5083 -0.3466  1.9244
  176MOL0     H23695   0.790   9.047   4.308 -1.3705  0.6940 -0.3617
  176MOL0     H23696   0.802   9.155   4.169  1.6954 -0.6866 -0.0456
  176MOL0     H23697   0.604   8.925   4.247  0.6067 -0.1345 -0.1826
  176MOL0     H23698   0.548   9.080   4.272 -1.0937  1.2607 -0.5711
  176MOL0     H23699   0.614   9.127   4.014 -0.3788  2.1164  5.6321
  176MOL0     H23700   0.586   8.944   4.003 -0.1358  0.1190  0.8370
  176MOL0     H23701   0.385   8.965   4.136  0.0601 -2.2160 -2.0629
  176MOL0     H23702   0.390   9.138   4.110  3.1773  1.3278 -2.8439
  176MOL0     H23703   0.414   9.086   3.862  0.8416 -1.5124 -1.4576
  176MOL0     H23704   0.365   8.918   3.904  1.9338 -0.1844 -0.2821
  176MOL0     H23705   0.151   8.981   3.982 -0.2338  1.2772  0.4758
  176MOL0     H23706   0.190   9.145   3.973 -0.1346  0.6659  0.6930
  176MOL0     H23707   0.044   9.054   3.770 -0.3411 -1.8599  2.8608
  176MOL0     H23708   0.193   9.147   3.728 -1.1403  1.6223  0.6464
  176MOL0     H23709   0.180   8.833   3.727  0.9691 -0.2025 -0.2476
  176MOL0     H23710   0.302   8.945   3.660  0.3361 -2.9422  0.9861
  176MOL0     H23711   0.187   8.745   3.473  0.7319  0.3185  1.1610
  176MOL0     H23712   0.197   8.925   3.111 -3.3807  1.5863 -1.6631
  176MOL0     H23713   0.234   8.772   3.183  0.4429  0.4002  1.6631
  176MOL0     H23714   0.043   8.751   3.038  0.8745  1.3392 -0.5918
  176MOL0     H23715  -0.048   8.865   3.136  1.2280  1.0822 -0.0662
  176MOL0     H23716  -0.058   8.733   3.331  0.5640  0.9837 -0.6908
  176MOL0     H23717   0.060   8.617   3.267  1.8692  2.7988 -1.4149
  176MOL0     H23718  -0.107   8.516   3.102 -1.8032 -0.1841 -0.8604
  176MOL0     H23719  -0.202   8.654   3.112 -2.9104 -1.1254  1.9280
  176MOL0     H23720  -0.245   8.657   3.482  0.7346  1.6867  0.1960
  176MOL0     H23721  -0.454   8.768   3.674 -1.6860  0.2529  0.5071
  176MOL0     H23722  -0.316   8.852   3.600 -0.0516  1.4537  1.6239
  176MOL0     H23723  -0.467   8.923   3.584 -0.1209 -0.3895  0.9084
  176MOL0     H23724  -0.957   8.878   3.476 -0.1872  0.9877 -3.0441
  176MOL0     H23725  -1.126   9.001   3.545  2.1039 -2.1555  1.9313
  176MOL0     H23726  -1.257   9.218   3.452  1.2997 -0.3201 -0.3748
  176MOL0     H23727  -1.294   9.194   3.627  2.1624 -2.0402 -1.7364
  176MOL0     H23728  -1.421   9.380   3.546  0.4444  1.0616 -2.4517
  176MOL0     H23729  -1.288   9.438   3.654 -3.2556  1.9298 -0.0204
  176MOL0     H23730  -1.349   9.505   3.366  2.3422  1.3109 -3.0553
  176MOL0     H23731  -1.192   9.452   3.378  0.7371 -0.4317  2.5295
  176MOL0     H23732  -1.248   9.716   3.426  4.3253 -0.2915 -2.9007
  176MOL0     H23733  -1.293   9.646   3.585  1.1349 -3.1152  1.8610
  176MOL0     H23734  -1.023   9.601   3.430  1.4282  0.3723  0.5555
  176MOL0     H23735  -1.058   9.580   3.604  1.4532 -2.5144 -2.3956
  176MOL0     H23736  -1.037   9.847   3.442  2.3713  0.1451  0.0023
  176MOL0     H23737  -1.082   9.832   3.608 -0.8281 -0.1671  0.8849
  176MOL0     H23738  -0.829   9.812   3.455  2.9388  4.6118  3.1075
  176MOL0     H23739  -0.834   9.690   3.584 -0.4292 -0.5770 -0.1439
  176MOL0     H23740  -0.882   9.904   3.729 -2.7668  1.5910 -0.4095
  176MOL0     H23741  -0.865  10.004   3.574 -0.6590  1.3565  1.9979
  176MOL0     H23742  -0.875   9.358   3.554 -1.3242  0.4655 -0.1650
  176MOL0     H23743  -0.681   9.197   3.499  0.8281 -1.0789 -0.9171
  176MOL0     H23744  -0.616   8.701   3.178 -1.2485  0.1630  1.2596
  176MOL0     H23745  -0.429   8.560   3.121 -0.0421 -2.9442  1.6893
  176MOL0     H23746   1.019   9.137   4.243 -1.1115 -1.2303  2.1942
  176MOL0     H23747   1.255   9.107   4.247 -1.2255  0.8458  0.4108
  176MOL0     H23748   1.617   9.009   4.011 -0.7538  0.0187  0.6491
  176MOL0     H23749   1.854   9.041   4.004 -0.8533  0.0106  1.8241
  176MOL0     H23750   2.203   8.892   3.978  0.6665  1.3354  0.3339
  176MOL0     H23751   2.062   8.984   3.935  0.7733 -0.9277  0.0271
  176MOL0     H23752   2.252   9.122   4.037  0.5873 -1.7387 -1.5009
  176MOL0     H23753   2.242   9.029   4.192  1.4660  1.6350  0.1257
  176MOL0     H23754   2.003   9.117   4.194 -1.5087  1.1016  0.1478
  176MOL0     H23755   2.053   9.234   4.073  0.7857 -0.8006 -1.5108
  176MOL0     H23756   2.259   9.291   4.246  1.7946 -3.1135  3.2548
  176MOL0     H23757   2.158   9.218   4.354  0.5768 -4.8197 -2.4869
  176MOL0     H23758   1.970   9.592   4.268 -1.8310 -1.0653 -0.2979
  176MOL0     H23759   1.917   8.690   4.236  0.5698  1.0295 -1.0735
  176MOL0     H23760   1.671   8.678   4.280  1.2906 -2.4260 -1.4733
  177MOL0     O23761   3.656   1.664   4.647  0.7847 -0.6342  0.0391
  177MOL0     C23762   3.694   1.607   4.746  0.3601  0.2018  0.8218
  177MOL0     O23763   3.615   1.553   4.836  0.3902  0.2390  0.6501
  177MOL0     C23764   3.480   1.541   4.818 -0.4650  0.1131 -0.4324
  177MOL0     C23765   3.380   1.618   4.861 -0.1978 -0.9150 -0.1956
  177MOL0     C23766   3.247   1.606   4.837 -0.3683 -0.1938 -0.5030
  177MOL0     C23767   3.214   1.495   4.763 -0.3257 -0.8611 -0.1599
  177MOL0     O23768   3.083   1.476   4.716 -0.5927  0.4854 -0.1127
  177MOL0     C23769   2.986   1.421   4.803  0.3267  0.7997  0.0715
  177MOL0     C23770   2.928   1.288   4.752  0.2611 -0.2500  0.7372
  177MOL0     C23771   2.834   1.236   4.859  0.0494 -0.7142  0.3968
  177MOL0     C23772   2.736   1.130   4.805  0.1279 -0.0734  0.6503
  177MOL0     C23773   2.624   1.101   4.906 -0.1793 -0.4582  0.4065
  177MOL0     C23774   2.531   0.991   4.853  0.0014  0.7021 -0.1162
  177MOL0     C23775   2.452   0.920   4.960  1.3688  0.3912 -0.7146
  177MOL0     C23776   2.370   1.015   5.047  0.4477 -0.1034  0.2865
  177MOL0     N23777   2.284   0.934   5.124  0.3415  0.1488 -0.3699
  177MOL0     C23778   2.162   0.887   5.086 -0.8010  0.2795 -0.0096
  177MOL0     C23779   2.111   0.826   5.195  0.4078 -0.1534 -0.7338
  177MOL0     C23780   1.978   0.758   5.201  0.7143 -0.8798 -0.0196
  177MOL0     C23781   1.947   0.669   5.067 -0.5658 -0.8863 -0.7944
  177MOL0     C23782   1.834   0.565   5.079  0.1807  0.4106  0.0012
  177MOL0     C23783   1.703   0.607   5.133  0.3845  0.6570  0.5444
  177MOL0     O23784   1.609   0.496   5.143 -0.2062  0.2040  0.3673
  177MOL0     C23785   1.469   0.522   5.151 -0.3986  0.1407  0.8634
  177MOL0     C23786   1.382   0.412   5.134 -0.2905 -0.3682  0.3609
  177MOL0     C23787   1.242   0.437   5.129 -0.3256 -0.5067 -0.4472
  177MOL0     C23788   1.154   0.317   5.110  0.2867 -0.7904  0.0708
  177MOL0     C23789   1.188   0.573   5.141  0.2413  0.7202  0.3112
  177MOL0     C23790   1.043   0.612   5.126  0.7266  0.5900 -0.1760
  177MOL0     O23791   0.964   0.517   5.080 -0.5589 -0.4060  0.0725
  177MOL0     C23792   0.830   0.536   5.084 -0.2958  0.7561  1.0162
  177MOL0     C23793   0.761   0.630   5.007  0.5919 -0.1552  0.4802
  177MOL0     C23794   0.623   0.650   5.022  0.6108  0.4031 -0.4539
  177MOL0     C23795   0.547   0.558   5.103  0.0023 -0.6714  0.9216
  177MOL0     O23796   0.401   0.571   5.115  0.5008  0.0536  0.3018
  177MOL0     C23797   0.340   0.695   5.095  0.2616  0.2680  0.0497
  177MOL0     C23798   0.220   0.700   5.200  0.6734 -0.7029  0.3491
  177MOL0     C23799   0.118   0.815   5.183 -0.1864  0.3453  0.4842
  177MOL0     C23800  -0.002   0.809   5.270 -0.3143  0.6266 -0.2621
  177MOL0     C23801  -0.123   0.869   5.206 -0.2004  0.4318  0.0167
  177MOL0     C23802  -0.244   0.890   5.294  0.4800  1.2914  0.0243
  177MOL0     C23803  -0.358   0.933   5.194 -0.2842  0.2719  0.0148
  177MOL0     C23804  -0.492   0.981   5.263 -0.6756  0.4556 -0.3082
  177MOL0    Cl23805  -0.601   1.018   5.128 -0.0551 -0.9716  0.5511
  177MOL0     C23806   0.614   0.458   5.170  0.2557 -0.4498 -0.9533
  177MOL0     C23807   0.755   0.444   5.160  0.4723 -0.2122 -0.4538
  177MOL0     O23808   1.003   0.710   5.181  0.0798 -0.8621 -0.1205
  177MOL0     C23809   1.285   0.675   5.158  0.8866  0.6925 -0.0918
  177MOL0     C23810   1.420   0.646   5.173  0.2191 -0.2791 -0.2081
  177MOL0     N23811   2.198   0.840   5.298  0.8756  0.4252 -0.3818
  177MOL0     N23812   2.289   0.917   5.257 -0.6159 -0.1036  0.0864
  177MOL0     C23813   3.313   1.404   4.709 -0.1123 -0.6640  0.4825
  177MOL0     C23814   3.444   1.440   4.732 -0.7237  0.3017 -0.4109
  177MOL0     C23815   3.836   1.582   4.764  0.6289 -0.1575  0.1126
  177MOL0     C23816   3.932   1.641   4.672 -0.4652 -0.4240 -0.0954
  177MOL0     C23817   4.070   1.616   4.689 -0.1574  0.8448  0.5566
  177MOL0     C23818   4.122   1.541   4.794  0.6089  0.1113  0.3031
  177MOL0     O23819   4.258   1.526   4.801 -0.1554 -0.3147  0.5668
  177MOL0     C23820   4.319   1.430   4.890  0.7126  0.1606  0.8410
  177MOL0     C23821   4.466   1.396   4.839 -0.6925  0.0188  0.5508
  177MOL0     C23822   4.534   1.280   4.909 -0.3949  0.2622 -0.3772
  177MOL0     C23823   4.681   1.286   4.901 -0.2153  0.2989 -0.6138
  177MOL0     C23824   4.719   1.151   4.956 -0.5775  0.8075  0.6756
  177MOL0     C23825   4.766   1.045   4.993  0.7546  0.5451 -0.1139
  177MOL0     C23826   4.027   1.477   4.873  0.2378  0.0644  0.4856
  177MOL0     C23827   3.886   1.492   4.864 -0.1570 -0.2117  0.5351
  177MOL0     H23828   3.412   1.707   4.915  0.6624 -0.3597 -1.5898
  177MOL0     H23829   3.173   1.678   4.872 -0.2152 -0.8900  1.3938
  177MOL0     H23830   3.028   1.401   4.902 -0.5820  0.7293  0.4521
  177MOL0     H23831   2.903   1.491   4.798  0.4603  0.9003 -0.8992
  177MOL0     H23832   2.885   1.304   4.653  2.4592  1.7968  0.0092
  177MOL0     H23833   3.012   1.221   4.736  0.8965  0.0174  2.6655
  177MOL0     H23834   2.896   1.199   4.941  1.2246  2.2421  0.9708
  177MOL0     H23835   2.775   1.318   4.903 -0.4422 -0.8754  0.0538
  177MOL0     H23836   2.705   1.167   4.707 -0.9904 -0.1837  0.9469
  177MOL0     H23837   2.797   1.040   4.789 -0.7170 -0.3089 -1.6279
  177MOL0     H23838   2.673   1.077   5.001  3.1713  1.1314 -0.7627
  177MOL0     H23839   2.571   1.196   4.921  0.4120 -0.0451 -0.0954
  177MOL0     H23840   2.466   1.031   4.774 -0.8612 -1.5013 -0.5957
  177MOL0     H23841   2.593   0.913   4.808  0.7109  1.5345 -0.6020
  177MOL0     H23842   2.392   0.836   4.925  0.9014 -0.2048  1.3585
  177MOL0     H23843   2.518   0.865   5.028  1.6549  1.5002 -0.0641
  177MOL0     H23844   2.315   1.081   4.979 -1.2561 -2.1387 -0.4276
  177MOL0     H23845   2.429   1.083   5.109 -0.2522 -0.9721  1.9669
  177MOL0     H23846   2.121   0.895   4.986  2.0755 -0.4409 -1.3647
  177MOL0     H23847   1.985   0.691   5.287  3.5218 -0.4701  0.1627
  177MOL0     H23848   1.905   0.837   5.222  1.2247 -0.1757 -0.8253
  177MOL0     H23849   2.043   0.634   5.027  1.0391  1.6055  0.6168
  177MOL0     H23850   1.907   0.747   5.001 -3.2839 -0.4637  1.1732
  177MOL0     H23851   1.863   0.504   5.165  1.0879  0.7194 -0.0797
  177MOL0     H23852   1.819   0.498   4.994  0.3304 -1.0950  1.1343
  177MOL0     H23853   1.664   0.679   5.061 -0.6948 -2.1995 -1.9294
  177MOL0     H23854   1.718   0.664   5.226 -0.2151  1.4581  0.1645
  177MOL0     H23855   1.422   0.314   5.113  2.7554  0.4339  1.8391
  177MOL0     H23856   1.210   0.231   5.148 -2.7837 -1.4942  3.5140
  177MOL0     H23857   1.066   0.322   5.175 -0.6104 -0.2410 -1.1484
  177MOL0     H23858   1.131   0.308   5.004 -0.7266 -0.1488  0.2182
  177MOL0     H23859   0.825   0.688   4.941 -0.4963 -0.7415 -1.1519
  177MOL0     H23860   0.576   0.735   4.974 -0.2331  0.0348 -0.3051
  177MOL0     H23861   0.409   0.776   5.121  0.2534  1.4050 -3.0870
  177MOL0     H23862   0.315   0.716   4.991  1.0446 -0.9189 -0.3996
  177MOL0     H23863   0.173   0.601   5.203  2.3845 -1.5417  2.0290
  177MOL0     H23864   0.258   0.707   5.302  0.0273  0.9257  0.4964
  177MOL0     H23865   0.085   0.807   5.079 -0.3913 -0.8199  0.6204
  177MOL0     H23866   0.168   0.911   5.194  2.2308 -0.8489  0.6783
  177MOL0     H23867  -0.014   0.706   5.305  1.2581  0.7315  0.7011
  177MOL0     H23868   0.026   0.874   5.354 -0.4769  0.5547 -0.1525
  177MOL0     H23869  -0.155   0.807   5.122 -3.0732  3.1885 -1.1505
  177MOL0     H23870  -0.110   0.965   5.156 -3.0863  0.0015 -1.8383
  177MOL0     H23871  -0.258   0.793   5.342  0.9689 -0.3978 -3.0031
  177MOL0     H23872  -0.238   0.967   5.372 -0.7294 -0.5996  2.1030
  177MOL0     H23873  -0.379   0.845   5.132 -0.6281 -0.5769  1.3098
  177MOL0     H23874  -0.324   1.015   5.130 -2.2870  0.0695 -1.4055
  177MOL0     H23875  -0.470   1.080   5.304 -0.2534  0.2797 -0.1089
  177MOL0     H23876  -0.527   0.902   5.331  0.7785  0.8557  0.9456
  177MOL0     H23877   0.552   0.399   5.237  1.3026 -1.6393 -0.9913
  177MOL0     H23878   0.806   0.372   5.223  0.5275  1.4515  1.4976
  177MOL0     H23879   1.255   0.778   5.179 -0.4661  0.6559 -1.6592
  177MOL0     H23880   1.487   0.722   5.213 -1.7854 -0.0712  3.1751
  177MOL0     H23881   3.268   1.318   4.660 -0.2583 -2.0292  2.8212
  177MOL0     H23882   3.525   1.378   4.693 -0.5874  0.2263 -0.0101
  177MOL0     H23883   3.907   1.699   4.584  2.3621 -0.1375 -0.7950
  177MOL0     H23884   4.142   1.653   4.616  1.5921 -1.1160  1.1792
  177MOL0     H23885   4.328   1.456   4.996  1.6972  0.0436  0.7942
  177MOL0     H23886   4.252   1.344   4.880 -0.1144  0.9194 -0.4644
  177MOL0     H23887   4.526   1.487   4.852  0.3541 -0.5097 -0.3932
  177MOL0     H23888   4.464   1.377   4.731  0.6900 -3.0006  0.9560
  177MOL0     H23889   4.508   1.190   4.852  0.6549  1.2248 -2.4395
  177MOL0     H23890   4.498   1.273   5.012  0.4183 -4.6099 -0.1989
  177MOL0     H23891   4.724   1.365   4.964  4.4755  0.4798 -3.5654
  177MOL0     H23892   4.712   1.279   4.796  2.0970 -2.9636  0.1264
  177MOL0     H23893   4.795   0.954   5.041 -2.8241 -0.4083  0.5245
  177MOL0     H23894   4.058   1.413   4.955  0.4633  0.4447  0.6958
  177MOL0     H23895   3.828   1.455   4.948 -2.4840  2.6862  0.3686
  178MOL0     O23896   4.679   3.526   1.972  0.0856 -0.2802 -0.0771
  178MOL0     C23897   4.725   3.557   2.088  0.8489  0.0937 -0.5042
  178MOL0     O23898   4.673   3.513   2.204 -0.7043 -0.8349 -0.1518
  178MOL0     C23899   4.534   3.499   2.210 -0.5044 -0.1434  0.9188
  178MOL0     C23900   4.479   3.368   2.207 -0.3664 -0.3969  0.5502
  178MOL0     C23901   4.338   3.351   2.222 -0.1790  0.0009  0.4449
  178MOL0     C23902   4.249   3.456   2.232  0.4528  0.1562 -0.5443
  178MOL0     O23903   4.108   3.425   2.233 -0.0483  0.1177  0.2695
  178MOL0     C23904   4.029   3.526   2.162 -0.4967 -0.4210 -0.4298
  178MOL0     C23905   3.927   3.448   2.089 -0.0660 -0.5646  0.6539
  178MOL0     C23906   3.807   3.386   2.159 -0.2787 -0.0806 -0.4143
  178MOL0     C23907   3.705   3.342   2.053  0.7323 -0.6812  0.7644
  178MOL0     C23908   3.573   3.298   2.123 -0.3068  0.0211  0.7534
  178MOL0     C23909   3.475   3.407   2.159 -0.5351 -0.1951  0.0961
  178MOL0     C23910   3.354   3.346   2.229 -0.4251  0.7748  0.1593
  178MOL0     C23911   3.238   3.436   2.227  0.7726 -1.0632 -1.0253
  178MOL0     N23912   3.123   3.357   2.261  0.3240 -0.1573 -0.0418
  178MOL0     C23913   3.056   3.348   2.380  0.0988 -0.3527  0.0014
  178MOL0     C23914   2.955   3.259   2.352 -0.1459  0.5826  0.3577
  178MOL0     C23915   2.875   3.212   2.465 -0.4791 -0.6969  0.6006
  178MOL0     C23916   2.738   3.163   2.428  0.5942 -0.6824 -0.2517
  178MOL0     C23917   2.626   3.268   2.379  0.5323 -0.6238  0.3925
  178MOL0     C23918   2.491   3.216   2.404 -1.2766 -0.4749 -0.8980
  178MOL0     O23919   2.393   3.319   2.376  0.3205 -0.4919 -0.3314
  178MOL0     C23920   2.260   3.283   2.393 -0.8772 -0.2875 -0.2696
  178MOL0     C23921   2.173   3.378   2.356  0.1136  0.3677  0.5654
  178MOL0     C23922   2.039   3.366   2.351 -0.3240  0.2142  1.0734
  178MOL0     C23923   1.962   3.478   2.294 -0.1112 -1.0700 -0.8845
  178MOL0     C23924   1.982   3.245   2.401 -0.2647  1.1113  0.3696
  178MOL0     C23925   1.836   3.221   2.414  0.5126  0.6014  0.1373
  178MOL0     O23926   1.800   3.096   2.452 -0.0426 -0.0591 -0.2886
  178MOL0     C23927   1.670   3.054   2.454  0.1553 -0.5625  0.9850
  178MOL0     C23928   1.632   2.945   2.380  0.0429 -0.3230 -0.3064
  178MOL0     C23929   1.492   2.913   2.371 -0.9690  0.2549  0.2425
  178MOL0     C23930   1.392   2.989   2.423  0.6593  0.7218  0.0464
  178MOL0     O23931   1.255   2.956   2.413 -0.4196  0.0908 -0.3959
  178MOL0     C23932   1.204   2.889   2.303  0.5594 -0.4846 -0.2692
  178MOL0     C23933   1.054   2.920   2.290  0.3317 -0.0955  0.0331
  178MOL0     C23934   1.003   2.837   2.171  0.5032 -0.2732 -0.3229
  178MOL0     C23935   0.864   2.897   2.136  0.0360  0.3238  0.0059
  178MOL0     C23936   0.823   2.819   2.013  0.6825 -0.2580  0.4287
  178MOL0     C23937   0.675   2.852   1.977 -0.3356 -0.0345 -0.6532
  178MOL0     C23938   0.619   2.799   1.846 -0.3574 -0.6886 -0.6312
  178MOL0     C23939   0.689   2.843   1.720  0.3005  0.0296  0.5997
  178MOL0    Cl23940   0.593   2.786   1.574 -0.1523 -0.2051  0.1684
  178MOL0     C23941   1.423   3.105   2.492 -0.4499  0.2412 -0.8150
  178MOL0     C23942   1.565   3.135   2.505  0.7458  0.5153 -0.0956
  178MOL0     O23943   1.757   3.306   2.372 -0.0552 -0.0556  0.3488
  178MOL0     C23944   2.070   3.141   2.439 -0.2461 -0.1244  0.0878
  178MOL0     C23945   2.209   3.162   2.444 -0.3044 -0.4309  0.0120
  178MOL0     N23946   2.948   3.216   2.222 -0.7435  0.2284  0.3974
  178MOL0     N23947   3.052   3.283   2.173 -0.9636 -0.5581  0.1461
  178MOL0     C23948   4.305   3.590   2.248 -0.3644 -0.6125  0.7347
  178MOL0     C23949   4.440   3.608   2.226  0.0222  0.1358  0.1365
  178MOL0     C23950   4.826   3.662   2.097 -0.4378 -0.4967 -0.5498
  178MOL0     C23951   4.918   3.663   2.206 -0.6942 -0.1554 -0.2879
  178MOL0     C23952   5.030   3.749   2.206  0.3862 -1.7580 -0.3015
  178MOL0     C23953   5.057   3.843   2.106 -0.9404 -0.4072  0.4726
  178MOL0     O23954   5.163   3.928   2.124  0.0600 -0.7551 -0.1336
  178MOL0     C23955   5.200   4.011   2.012  0.0553 -0.3459 -0.8615
  178MOL0     C23956   5.276   3.935   1.908  0.4071 -0.1520  0.6368
  178MOL0     C23957   5.384   3.836   1.957  0.9414 -0.7953 -0.0644
  178MOL0     C23958   5.517   3.902   2.003 -1.3694 -0.3079  0.0073
  178MOL0     C23959   5.582   3.976   1.895 -0.8353  0.1463  0.2247
  178MOL0     C23960   5.640   4.039   1.804  0.5942 -1.5077 -0.1761
  178MOL0     C23961   4.964   3.838   1.999  0.3041 -0.1801  0.0635
  178MOL0     C23962   4.846   3.750   1.994 -0.3569 -0.1133  0.2976
  178MOL0     H23963   4.545   3.283   2.191 -1.2583 -0.9526 -0.2970
  178MOL0     H23964   4.294   3.254   2.198 -0.5438  0.0340  0.9574
  178MOL0     H23965   3.981   3.597   2.231  0.4485 -0.1829 -0.0077
  178MOL0     H23966   4.085   3.592   2.096  3.7897 -2.9738  0.3222
  178MOL0     H23967   3.892   3.524   2.019  2.1009 -1.9053 -2.0853
  178MOL0     H23968   3.985   3.372   2.036  1.4341  1.0070 -0.0660
  178MOL0     H23969   3.844   3.289   2.194  1.2739  0.7861  0.4337
  178MOL0     H23970   3.763   3.453   2.233 -1.6321 -0.7944 -0.5291
  178MOL0     H23971   3.690   3.428   1.987 -3.8011 -1.0230  1.0040
  178MOL0     H23972   3.754   3.259   2.002 -0.6016  0.2072 -2.2151
  178MOL0     H23973   3.515   3.247   2.044 -1.6121  1.0714  0.9912
  178MOL0     H23974   3.602   3.232   2.205  0.2874 -0.3540  0.2512
  178MOL0     H23975   3.520   3.481   2.226  0.7129  0.4609 -1.4006
  178MOL0     H23976   3.447   3.456   2.066  1.1610  1.4051  0.3935
  178MOL0     H23977   3.323   3.269   2.157 -0.1341  0.6418  0.1784
  178MOL0     H23978   3.369   3.301   2.328  0.9638 -2.4595 -1.3761
  178MOL0     H23979   3.226   3.487   2.131 -2.1673  1.9217  0.7208
  178MOL0     H23980   3.251   3.519   2.298 -7.2070 -0.7221  1.0333
  178MOL0     H23981   3.092   3.394   2.472  2.1792  1.0477 -1.4436
  178MOL0     H23982   2.926   3.141   2.531 -1.6302 -0.1445  2.1551
  178MOL0     H23983   2.857   3.299   2.528  0.2088 -0.3384  0.3034
  178MOL0     H23984   2.702   3.102   2.512  0.6280 -1.0125 -0.4745
  178MOL0     H23985   2.735   3.102   2.337 -0.9538  0.4442 -1.0113
  178MOL0     H23986   2.646   3.279   2.272  1.4915  0.3955  0.6539
  178MOL0     H23987   2.651   3.363   2.427  2.4207 -1.6505  1.5627
  178MOL0     H23988   2.478   3.197   2.511 -0.7171 -1.2072 -0.9564
  178MOL0     H23989   2.474   3.125   2.346  0.6978 -1.8192  0.5118
  178MOL0     H23990   2.207   3.471   2.313 -1.4787  0.8822  0.3420
  178MOL0     H23991   1.887   3.514   2.365  1.9369 -0.7502  1.2729
  178MOL0     H23992   2.027   3.565   2.285  0.1174 -1.1259  0.0504
  178MOL0     H23993   1.918   3.454   2.197  0.0126  0.5764 -1.3679
  178MOL0     H23994   1.709   2.894   2.323  1.8316  2.0624 -0.1877
  178MOL0     H23995   1.486   2.828   2.303 -0.6080 -0.2323  0.8093
  178MOL0     H23996   1.267   2.919   2.219  0.4102  0.8802  0.0760
  178MOL0     H23997   1.216   2.786   2.338  0.2873 -0.0505  1.1894
  178MOL0     H23998   0.998   2.890   2.379 -1.4747  0.7766 -0.7721
  178MOL0     H23999   1.046   3.027   2.269 -1.0698 -0.3822 -0.9976
  178MOL0     H24000   1.001   2.730   2.194 -2.5978  0.0426  1.5382
  178MOL0     H24001   1.065   2.856   2.083 -0.1798  1.7817 -0.4378
  178MOL0     H24002   0.795   2.877   2.219  0.9946 -0.1051  0.7060
  178MOL0     H24003   0.872   3.001   2.100 -0.3008  0.8130  1.2855
  178MOL0     H24004   0.834   2.717   2.049 -3.3343  0.5548  5.0260
  178MOL0     H24005   0.887   2.837   1.926 -2.2708 -0.0022 -1.8608
  178MOL0     H24006   0.615   2.806   2.056  2.0787 -2.6953 -0.2348
  178MOL0     H24007   0.655   2.960   1.980 -3.1062 -0.4894  0.1131
  178MOL0     H24008   0.514   2.830   1.842  1.1158  5.6372 -0.9537
  178MOL0     H24009   0.635   2.691   1.851 -2.2753 -1.0960 -1.9207
  178MOL0     H24010   0.793   2.810   1.725 -0.1838 -1.6066  0.2924
  178MOL0     H24011   0.682   2.950   1.699 -1.6353 -0.6949 -3.3903
  178MOL0     H24012   1.355   3.175   2.540  0.1176 -0.2873  0.8249
  178MOL0     H24013   1.589   3.214   2.576  1.3347 -1.0101  1.4721
  178MOL0     H24014   2.034   3.046   2.477 -0.5187 -0.1690 -0.2773
  178MOL0     H24015   2.280   3.088   2.479  2.8870  1.6664 -1.6193
  178MOL0     H24016   4.240   3.674   2.268  1.5700  0.5145  2.7299
  178MOL0     H24017   4.481   3.708   2.214  1.0024 -0.0480  1.6687
  178MOL0     H24018   4.922   3.578   2.274 -0.0297  0.2859  0.2396
  178MOL0     H24019   5.108   3.746   2.282 -0.9755 -0.0144  1.2523
  178MOL0     H24020   5.113   4.069   1.978 -0.3152  1.2555  2.4396
  178MOL0     H24021   5.266   4.088   2.054  1.2203 -1.4472 -0.6177
  178MOL0     H24022   5.317   3.992   1.824 -0.5555 -2.0411 -1.2134
  178MOL0     H24023   5.211   3.861   1.860  1.2827  0.2048 -1.2035
  178MOL0     H24024   5.414   3.762   1.882  2.4755 -0.6602  0.3956
  178MOL0     H24025   5.365   3.780   2.049  1.9584 -2.2597 -0.7105
  178MOL0     H24026   5.588   3.836   2.052 -0.0634  0.3605 -0.9103
  178MOL0     H24027   5.490   3.977   2.078  0.5082  0.3619  0.0587
  178MOL0     H24028   5.683   4.091   1.720 -0.2099 -1.9572 -0.8843
  178MOL0     H24029   4.974   3.909   1.917 -0.6601 -0.6451 -0.4730
  178MOL0     H24030   4.766   3.745   1.921 -0.6792  2.1223  0.4284
  179MOL0     O24031  10.985   9.313   7.095  0.1168  0.0565  0.0723
  179MOL0     C24032  11.044   9.290   6.990  0.4722  0.0552 -0.0533
  179MOL0     O24033  10.989   9.288   6.864 -0.4310  0.2576  0.0688
  179MOL0     C24034  10.854   9.310   6.854  0.0907 -0.4234 -0.2788
  179MOL0     C24035  10.801   9.425   6.903  0.3034 -0.5869  0.0037
  179MOL0     C24036  10.668   9.459   6.886  0.0399  0.3470  0.0709
  179MOL0     C24037  10.586   9.359   6.831 -0.0711 -0.2076 -0.8330
  179MOL0     O24038  10.455   9.356   6.809 -0.2720  0.0383 -0.1844
  179MOL0     C24039  10.376   9.458   6.874 -0.5752  0.1836  0.1424
  179MOL0     C24040  10.235   9.412   6.876  0.1615  0.3824 -0.2801
  179MOL0     C24041  10.123   9.524   6.901 -0.0294  0.6668  0.2295
  179MOL0     C24042   9.982   9.454   6.897  1.0994 -1.4193 -0.6763
  179MOL0     C24043   9.889   9.577   6.933  0.2967  0.2088  0.6890
  179MOL0     C24044   9.760   9.522   6.983  0.1048  0.1501 -0.2375
  179MOL0     C24045   9.673   9.629   7.042 -0.7166 -0.4313 -0.2704
  179MOL0     C24046   9.618   9.737   6.952 -0.9623 -0.7029  0.6122
  179MOL0     N24047   9.537   9.821   7.030  0.2755 -0.7844 -0.6695
  179MOL0     C24048   9.409   9.801   7.062 -0.3650 -0.7286  0.8037
  179MOL0     C24049   9.362   9.928   7.095 -0.0327  0.1577  0.6046
  179MOL0     C24050   9.217   9.956   7.119  0.6384  0.0457 -0.1893
  179MOL0     C24051   9.147  10.050   7.010 -0.3558  0.5545  0.5071
  179MOL0     C24052   9.130   9.998   6.867  0.2120  0.2225  0.3193
  179MOL0     C24053   9.049  10.104   6.794  0.2930 -0.0749  0.6551
  179MOL0     O24054   9.040  10.055   6.661  0.1451 -0.5486  0.1833
  179MOL0     C24055   8.926   9.973   6.627 -0.0611 -1.1363 -0.3687
  179MOL0     C24056   8.914   9.944   6.488  0.3908 -1.0790 -0.7544
  179MOL0     C24057   8.805   9.860   6.441  0.0885  0.1297  0.4197
  179MOL0     C24058   8.818   9.839   6.290  0.6287  0.2354 -0.5694
  179MOL0     C24059   8.709   9.815   6.533  0.0927 -0.0916 -0.3433
  179MOL0     C24060   8.584   9.752   6.488  0.5385  0.8881  0.2988
  179MOL0     O24061   8.589   9.680   6.374  0.5173  0.3016  0.2141
  179MOL0     C24062   8.475   9.677   6.301  0.5344 -0.1010  0.9241
  179MOL0     C24063   8.499   9.596   6.190  0.5030  0.0534  0.6637
  179MOL0     C24064   8.397   9.575   6.097  0.1827 -0.1175 -0.0193
  179MOL0     C24065   8.261   9.610   6.121 -1.3250  0.4717 -0.7962
  179MOL0     O24066   8.164   9.594   6.022 -0.0151  0.2742 -0.0896
  179MOL0     C24067   8.035   9.652   6.044 -0.4804  0.5555 -0.4555
  179MOL0     C24068   8.014   9.794   5.989 -0.7872  0.2853 -0.2019
  179MOL0     C24069   7.872   9.840   6.033  0.2892  0.3651 -0.7327
  179MOL0     C24070   7.760   9.764   5.976 -0.5992 -1.0159  0.0144
  179MOL0     C24071   7.631   9.838   5.994 -0.1427 -0.0639  0.1489
  179MOL0     C24072   7.515   9.771   5.931 -1.2455  0.0287  0.3192
  179MOL0     C24073   7.388   9.851   5.971 -1.1300  0.3683  1.2461
  179MOL0     C24074   7.262   9.807   5.908  0.5427  0.2975 -0.0243
  179MOL0    Cl24075   7.160   9.954   5.876 -0.4070  0.0932  0.0448
  179MOL0     C24076   8.246   9.696   6.237 -1.1255 -0.0643  0.8457
  179MOL0     C24077   8.346   9.731   6.321 -1.0402 -0.6701 -1.2771
  179MOL0     O24078   8.492   9.743   6.565  0.1437  0.2644 -0.7809
  179MOL0     C24079   8.720   9.856   6.664 -0.1704 -0.3549  0.8654
  179MOL0     C24080   8.832   9.920   6.714 -0.4068 -0.1906 -0.9887
  179MOL0     N24081   9.464  10.019   7.096 -0.7717 -0.4319  0.0722
  179MOL0     N24082   9.574   9.950   7.052  0.3973  0.3568  0.6188
  179MOL0     C24083  10.638   9.242   6.787  0.1082 -0.7045  0.5153
  179MOL0     C24084  10.770   9.207   6.802 -0.5867 -0.5163 -0.8190
  179MOL0     C24085  11.189   9.245   7.004 -0.5743 -0.3861  0.3845
  179MOL0     C24086  11.254   9.212   6.887 -0.0696  0.2509 -0.3341
  179MOL0     C24087  11.387   9.184   6.893  0.5651  0.1749  0.3295
  179MOL0     C24088  11.458   9.201   7.018  0.2038  0.1392  0.7188
  179MOL0     O24089  11.592   9.164   7.011 -0.4562  0.3401  0.5527
  179MOL0     C24090  11.674   9.154   7.131  0.3211  1.4609  0.2852
  179MOL0     C24091  11.647   9.018   7.206 -0.0038 -0.7546  0.1905
  179MOL0     C24092  11.722   9.001   7.334  0.2892  0.8593 -0.7401
  179MOL0     C24093  11.702   8.870   7.394  1.1953 -0.6180 -0.8486
  179MOL0     C24094  11.587   8.870   7.487 -0.1088 -1.8171 -0.3290
  179MOL0     C24095  11.501   8.875   7.567  0.5237 -0.1450 -0.2905
  179MOL0     C24096  11.391   9.250   7.133  0.2306  1.2236 -0.1368
  179MOL0     C24097  11.255   9.258   7.129  0.0421  0.1542  0.0687
  179MOL0     H24098  10.865   9.505   6.939  0.0997 -0.1528 -0.5841
  179MOL0     H24099  10.637   9.560   6.908 -0.2879 -0.2165  2.4960
  179MOL0     H24100  10.423   9.474   6.971 -2.0351  1.9239  0.6242
  179MOL0     H24101  10.374   9.551   6.817 -1.2022 -0.6607 -1.2915
  179MOL0     H24102  10.210   9.370   6.778 -3.1706  2.0474 -0.2753
  179MOL0     H24103  10.214   9.332   6.947 -2.3452 -0.2291 -1.6119
  179MOL0     H24104  10.149   9.548   7.005 -0.9886 -5.2764  2.2281
  179MOL0     H24105  10.148   9.611   6.839  2.7188 -0.0333  0.2101
  179MOL0     H24106   9.965   9.406   6.800  4.2237 -2.5506 -0.8006
  179MOL0     H24107   9.973   9.387   6.983  0.6192 -0.8660 -0.2866
  179MOL0     H24108   9.930   9.643   7.011 -0.1128 -1.0956  2.0403
  179MOL0     H24109   9.870   9.636   6.842  0.3989 -1.6415 -0.5766
  179MOL0     H24110   9.696   9.467   6.914  0.6709 -0.6315 -0.1536
  179MOL0     H24111   9.783   9.460   7.069 -2.2668  0.6584  0.8328
  179MOL0     H24112   9.590   9.584   7.097 -1.2106 -0.9308 -1.3864
  179MOL0     H24113   9.736   9.676   7.118 -0.0030 -2.4611  0.4442
  179MOL0     H24114   9.562   9.683   6.875 -1.0154 -2.4016  1.7848
  179MOL0     H24115   9.691   9.794   6.894 -3.2298  3.4923  1.4810
  179MOL0     H24116   9.339   9.718   7.052 -1.3551  0.3238 -1.6742
  179MOL0     H24117   9.154   9.868   7.132  1.6781 -0.5836  0.7547
  179MOL0     H24118   9.215  10.009   7.215  1.3769  0.1669 -0.2366
  179MOL0     H24119   9.215  10.136   7.005  0.1145  0.4079  3.1620
  179MOL0     H24120   9.048  10.072   7.051  0.2697 -1.5367  3.3981
  179MOL0     H24121   9.083   9.899   6.868 -0.5882  0.4970 -2.2856
  179MOL0     H24122   9.228   9.987   6.820 -0.3492  1.9808 -1.3654
  179MOL0     H24123   9.088  10.206   6.789  0.1280 -0.0829 -1.2688
  179MOL0     H24124   8.947  10.110   6.834 -0.3066 -2.1772 -0.4195
  179MOL0     H24125   8.991   9.988   6.426 -1.8040  1.4975 -1.8468
  179MOL0     H24126   8.906   9.895   6.258  0.9631  2.3100  3.3562
  179MOL0     H24127   8.842   9.733   6.272  0.2647 -0.2899  1.6842
  179MOL0     H24128   8.736   9.880   6.231  0.2155 -1.0255 -0.9073
  179MOL0     H24129   8.599   9.555   6.179  0.2223 -0.9737  1.6734
  179MOL0     H24130   8.424   9.509   6.015 -1.4305 -1.1856  0.2517
  179MOL0     H24131   7.974   9.581   5.987  1.8476 -1.9023 -0.0616
  179MOL0     H24132   7.991   9.632   6.142  3.6697 -0.7819  1.3567
  179MOL0     H24133   8.073   9.871   6.040  0.0067 -1.1199  1.0951
  179MOL0     H24134   8.042   9.805   5.884 -0.4668  0.1141 -0.1347
  179MOL0     H24135   7.854   9.946   6.013 -3.6491 -0.1569 -0.9083
  179MOL0     H24136   7.861   9.829   6.142  2.8361 -2.1649 -0.6343
  179MOL0     H24137   7.778   9.741   5.871  0.6392  3.2463 -0.8848
  179MOL0     H24138   7.748   9.667   6.025 -0.4278 -0.0017  2.1829
  179MOL0     H24139   7.651   9.937   5.952 -0.3557  0.0842  0.3940
  179MOL0     H24140   7.614   9.842   6.102 -0.4938  2.1704  0.0613
  179MOL0     H24141   7.534   9.751   5.825 -3.9115 -0.4830 -0.1491
  179MOL0     H24142   7.506   9.669   5.967 -0.0184 -1.1020 -2.3546
  179MOL0     H24143   7.408   9.957   5.956  2.6754 -0.4361 -0.4445
  179MOL0     H24144   7.372   9.832   6.077 -0.5370 -1.5161  1.0344
  179MOL0     H24145   7.217   9.729   5.970  0.2979  0.3208 -0.1709
  179MOL0     H24146   7.277   9.760   5.810 -2.1628 -0.6448 -0.0784
  179MOL0     H24147   8.150   9.745   6.252 -0.3020  1.5028  1.1443
  179MOL0     H24148   8.331   9.803   6.400  2.3337  2.4699 -3.1834
  179MOL0     H24149   8.648   9.824   6.739 -0.2038 -2.7763 -0.0998
  179MOL0     H24150   8.833   9.947   6.820 -1.5173  1.2034 -1.3052
  179MOL0     H24151  10.579   9.174   6.726  0.5690 -0.5432 -0.1130
  179MOL0     H24152  10.811   9.111   6.773  3.8549  1.5039 -2.0833
  179MOL0     H24153  11.207   9.198   6.789 -2.0648  3.5429  0.0171
  179MOL0     H24154  11.440   9.154   6.803  0.8838 -1.7679  1.0990
  179MOL0     H24155  11.773   9.159   7.085 -0.0512  0.1856 -0.7297
  179MOL0     H24156  11.658   9.240   7.196 -1.2831  2.8271 -1.7815
  179MOL0     H24157  11.662   8.938   7.132  0.4837  1.0905 -1.7971
  179MOL0     H24158  11.542   8.999   7.229 -0.2241  1.4526  1.2090
  179MOL0     H24159  11.711   9.088   7.400  0.3752  2.1749 -2.3871
  179MOL0     H24160  11.823   9.003   7.292  0.2725 -0.7307 -0.9100
  179MOL0     H24161  11.796   8.839   7.440 -0.6022 -0.8680  3.0322
  179MOL0     H24162  11.680   8.800   7.313 -0.2022 -1.5987  0.3140
  179MOL0     H24163  11.416   8.875   7.632  0.2219  0.1331 -0.6825
  179MOL0     H24164  11.440   9.263   7.229 -2.8426  1.6009  1.5326
  179MOL0     H24165  11.192   9.285   7.212 -0.2290 -1.5407  0.4479
  180MOL0     O24166  10.840   8.625   4.815  0.2575  0.3502  0.2382
  180MOL0     C24167  10.863   8.721   4.745  0.0684  0.6433  0.0439
  180MOL0     O24168  10.767   8.790   4.667 -0.5461  0.1175 -0.2516
  180MOL0     C24169  10.639   8.758   4.685  0.6923  0.7495  0.3678
  180MOL0     C24170  10.583   8.632   4.676  0.2796 -0.1186 -0.0602
  180MOL0     C24171  10.446   8.604   4.706  0.3491 -0.5320 -0.1516
  180MOL0     C24172  10.367   8.711   4.731 -0.6111 -0.7947 -0.0017
  180MOL0     O24173  10.233   8.701   4.741 -0.2121  0.3530 -0.2078
  180MOL0     C24174  10.143   8.765   4.649  0.5094 -0.7371 -0.3540
  180MOL0     C24175  10.003   8.773   4.720 -0.7427 -0.0101  0.0630
  180MOL0     C24176   9.899   8.816   4.611  1.6492 -0.3631 -0.3531
  180MOL0     C24177   9.769   8.745   4.640 -0.3431  0.1268  0.3988
  180MOL0     C24178   9.663   8.761   4.536  0.0380  0.3240  0.3930
  180MOL0     C24179   9.626   8.904   4.506 -0.9870 -0.5696  0.3751
  180MOL0     C24180   9.481   8.902   4.450  0.9007  0.1683  0.1789
  180MOL0     C24181   9.493   8.865   4.305  0.2072  0.5762 -0.0884
  180MOL0     N24182   9.367   8.828   4.244 -0.9165 -0.5636  0.2605
  180MOL0     C24183   9.304   8.702   4.261 -0.1120  0.6653  0.6831
  180MOL0     C24184   9.178   8.725   4.216 -1.1978  0.3206  0.2020
  180MOL0     C24185   9.063   8.626   4.226 -0.1079 -0.6912 -0.4410
  180MOL0     C24186   9.039   8.574   4.371 -0.3830 -0.4585  0.1617
  180MOL0     C24187   8.998   8.681   4.478 -0.1270  0.5409 -0.0768
  180MOL0     C24188   9.119   8.743   4.556  0.5915  0.2121  0.0123
  180MOL0     O24189   9.189   8.634   4.635  0.0570 -0.7088  0.7900
  180MOL0     C24190   9.295   8.658   4.718 -0.4838  0.3301  0.4144
  180MOL0     C24191   9.366   8.546   4.762 -0.2791  1.2874 -1.1211
  180MOL0     C24192   9.472   8.546   4.851 -0.0545  0.6622 -0.2546
  180MOL0     C24193   9.538   8.414   4.880  0.3646 -0.4881 -0.5275
  180MOL0     C24194   9.517   8.668   4.898  0.4723 -0.8960  1.1523
  180MOL0     C24195   9.616   8.688   5.005  0.1302  0.1324  0.6707
  180MOL0     O24196   9.638   8.590   5.093  0.6914  0.4245  0.0707
  180MOL0     C24197   9.724   8.593   5.204 -0.5856 -0.5345  0.6864
  180MOL0     C24198   9.770   8.716   5.263 -0.1653  0.2055  0.1975
  180MOL0     C24199   9.867   8.709   5.365  0.6117 -0.4066 -0.5223
  180MOL0     C24200   9.907   8.580   5.416  0.5254  0.3117  0.3195
  180MOL0     O24201  10.002   8.585   5.515  0.2776  0.0929 -0.0334
  180MOL0     C24202  10.073   8.470   5.533 -0.1778  0.4140 -0.0084
  180MOL0     C24203  10.181   8.490   5.639  0.8302  0.0578 -0.3669
  180MOL0     C24204  10.274   8.614   5.606 -0.8352  0.2248 -0.4385
  180MOL0     C24205  10.398   8.603   5.699 -0.0530  0.3466 -0.8167
  180MOL0     C24206  10.504   8.525   5.638  0.9495  0.6487  0.0010
  180MOL0     C24207  10.600   8.484   5.751  0.5055 -0.3256  0.0387
  180MOL0     C24208  10.702   8.379   5.710 -1.2190 -0.4645  0.8046
  180MOL0     C24209  10.815   8.377   5.807  1.2670  0.1513 -0.0809
  180MOL0    Cl24210  10.759   8.359   5.981  0.0170  0.5688  0.5572
  180MOL0     C24211   9.871   8.470   5.352 -0.5977  0.2541 -0.1817
  180MOL0     C24212   9.782   8.476   5.251 -0.7815  0.5818  0.3724
  180MOL0     O24213   9.657   8.804   5.010  0.0528  0.0843  0.0733
  180MOL0     C24214   9.457   8.791   4.853  1.2947  0.0597  0.4494
  180MOL0     C24215   9.343   8.786   4.761 -0.9464  0.6168  0.4839
  180MOL0     N24216   9.164   8.860   4.177  0.0558 -0.3051 -0.5098
  180MOL0     N24217   9.274   8.918   4.207  0.5829  0.3305  0.0470
  180MOL0     C24218  10.422   8.842   4.734 -0.4075  0.1691 -0.4599
  180MOL0     C24219  10.550   8.864   4.700 -1.0423  0.0902 -0.5734
  180MOL0     C24220  10.998   8.782   4.742  0.4814 -0.4777 -1.3497
  180MOL0     C24221  11.036   8.888   4.650 -0.0267 -0.2825 -0.9223
  180MOL0     C24222  11.166   8.932   4.636 -0.4786 -0.3668 -0.8274
  180MOL0     C24223  11.266   8.873   4.713  0.4052 -0.5066 -0.1648
  180MOL0     O24224  11.391   8.908   4.678  0.1208 -0.1704  0.0405
  180MOL0     C24225  11.476   8.800   4.648 -0.8487 -0.0541 -0.1343
  180MOL0     C24226  11.606   8.877   4.644  0.0606 -0.1800  0.0133
  180MOL0     C24227  11.724   8.797   4.598 -0.1650  0.2869  0.1290
  180MOL0     C24228  11.854   8.876   4.620 -0.2738 -1.1574  0.2307
  180MOL0     C24229  11.959   8.824   4.540 -0.5261  0.8084  0.7141
  180MOL0     C24230  12.040   8.768   4.476  0.6912  0.1184  1.0839
  180MOL0     C24231  11.232   8.769   4.805 -0.4259 -0.5099 -0.0020
  180MOL0     C24232  11.100   8.728   4.827 -0.6622  0.5669 -0.0137
  180MOL0     H24233  10.652   8.550   4.659  1.1225  0.8106 -1.2328
  180MOL0     H24234  10.410   8.502   4.715  1.4557 -0.9340 -0.1344
  180MOL0     H24235  10.181   8.864   4.625 -1.6910  0.1476 -0.3922
  180MOL0     H24236  10.140   8.714   4.552  3.2464 -0.3191 -0.7457
  180MOL0     H24237   9.984   8.673   4.760 -2.6195  0.6724  0.9921
  180MOL0     H24238  10.010   8.834   4.811 -0.1753  0.9964 -0.6287
  180MOL0     H24239   9.884   8.924   4.607  0.0890 -0.5918 -1.9804
  180MOL0     H24240   9.928   8.791   4.508 -0.3652 -0.1582 -1.0091
  180MOL0     H24241   9.798   8.640   4.650  0.0697  0.2651  0.6816
  180MOL0     H24242   9.722   8.775   4.734 -2.5085 -1.9585  0.0553
  180MOL0     H24243   9.709   8.710   4.451  2.2926 -0.2402  1.8881
  180MOL0     H24244   9.579   8.705   4.578  2.3146 -2.3810  1.5708
  180MOL0     H24245   9.643   8.973   4.588  4.3031 -0.1579 -0.7498
  180MOL0     H24246   9.692   8.956   4.436 -0.5247 -0.5333  0.8330
  180MOL0     H24247   9.406   8.840   4.500  0.2901  0.2535 -0.6009
  180MOL0     H24248   9.436   9.001   4.457 -1.9405 -1.1305  2.3985
  180MOL0     H24249   9.570   8.790   4.286 -2.0359 -1.6010 -1.0842
  180MOL0     H24250   9.527   8.956   4.255 -1.7157  1.6030  0.3890
  180MOL0     H24251   9.338   8.616   4.319 -1.9946  1.2113  2.7195
  180MOL0     H24252   8.978   8.683   4.187  0.7903 -0.7539 -2.6289
  180MOL0     H24253   9.074   8.540   4.159 -0.1938 -0.1108 -1.2230
  180MOL0     H24254   9.135   8.533   4.404  0.7469  2.1747  0.4112
  180MOL0     H24255   8.961   8.497   4.368 -0.5705 -0.2478 -0.4066
  180MOL0     H24256   8.937   8.627   4.551 -1.1474  0.9979 -0.5718
  180MOL0     H24257   8.921   8.745   4.435 -3.0877 -1.5324  1.8070
  180MOL0     H24258   9.087   8.824   4.622  2.7505  1.0875  0.0798
  180MOL0     H24259   9.187   8.785   4.481  1.6994 -1.4418  0.0254
  180MOL0     H24260   9.337   8.452   4.717 -0.7769  2.2022 -2.8087
  180MOL0     H24261   9.645   8.415   4.856  0.7770 -0.4577  1.1647
  180MOL0     H24262   9.532   8.396   4.988  0.0486 -2.3453 -0.8305
  180MOL0     H24263   9.479   8.337   4.831 -1.6974  1.7917 -1.8711
  180MOL0     H24264   9.747   8.816   5.228 -0.0356  0.6018  1.1993
  180MOL0     H24265   9.918   8.794   5.408  0.1496  0.0275 -0.8110
  180MOL0     H24266  10.007   8.390   5.570 -1.8491  3.6755  5.2150
  180MOL0     H24267  10.122   8.432   5.443  0.1178 -3.3878  1.5425
  180MOL0     H24268  10.124   8.503   5.731 -0.0972 -0.0978 -0.8958
  180MOL0     H24269  10.244   8.402   5.652  1.0143 -0.0545 -1.8406
  180MOL0     H24270  10.215   8.702   5.630 -0.4410  0.7203 -1.2515
  180MOL0     H24271  10.299   8.625   5.500 -0.2118  0.8735 -0.2294
  180MOL0     H24272  10.439   8.704   5.705  1.1711 -0.1626 -0.3566
  180MOL0     H24273  10.369   8.577   5.801 -1.7410 -0.3002 -1.4272
  180MOL0     H24274  10.560   8.588   5.569  0.8673  0.8808  0.1438
  180MOL0     H24275  10.462   8.435   5.592  1.4917 -0.3455  1.3799
  180MOL0     H24276  10.660   8.569   5.785  0.7626  0.9097 -3.2403
  180MOL0     H24277  10.545   8.447   5.838  0.4574  2.3070  1.2283
  180MOL0     H24278  10.750   8.395   5.613 -1.2569 -0.6788  0.7485
  180MOL0     H24279  10.651   8.282   5.709 -0.8554 -0.6829  1.8912
  180MOL0     H24280  10.881   8.464   5.801  1.9984 -0.3190  0.8667
  180MOL0     H24281  10.877   8.292   5.779  0.7202 -0.2089 -0.2220
  180MOL0     H24282   9.912   8.372   5.376  0.3929  0.9799  1.1571
  180MOL0     H24283   9.754   8.399   5.180  0.9917  1.9783 -1.9648
  180MOL0     H24284   9.485   8.888   4.894 -1.0773 -0.1745  2.8751
  180MOL0     H24285   9.292   8.874   4.723  0.0863  0.4899 -1.2991
  180MOL0     H24286  10.357   8.925   4.761 -0.6456  0.0998 -0.8102
  180MOL0     H24287  10.595   8.963   4.707 -1.0547  0.2665 -2.4137
  180MOL0     H24288  10.962   8.925   4.580  2.0848  3.7702 -1.3526
  180MOL0     H24289  11.183   9.017   4.570 -1.4547 -0.7071 -1.5334
  180MOL0     H24290  11.487   8.719   4.721  2.8964 -1.0160 -1.5141
  180MOL0     H24291  11.470   8.766   4.545  1.4849  0.7444 -0.5868
  180MOL0     H24292  11.621   8.911   4.747 -0.8093 -0.7742  0.3519
  180MOL0     H24293  11.600   8.968   4.584  0.9281  1.2138  1.9520
  180MOL0     H24294  11.706   8.762   4.496 -1.9554 -3.6162  1.5796
  180MOL0     H24295  11.726   8.698   4.644  0.8529 -0.9374 -2.3802
  180MOL0     H24296  11.888   8.868   4.724 -2.5085 -2.1677  0.9443
  180MOL0     H24297  11.843   8.981   4.589  0.6673 -1.1707 -0.1752
  180MOL0     H24298  12.117   8.720   4.419 -0.0239  0.1490  0.0839
  180MOL0     H24299  11.313   8.726   4.863 -0.7407  1.4204  1.9783
  180MOL0     H24300  11.079   8.649   4.898  2.9740  0.2429  0.9275
  181MOL0     O24301   0.211   9.326   6.003  0.5649  0.4374  0.0222
  181MOL0     C24302   0.258   9.218   6.028 -0.1071 -0.4343  0.3909
  181MOL0     O24303   0.210   9.136   6.129  0.2243 -0.5002 -0.1233
  181MOL0     C24304   0.141   9.192   6.229 -0.8885 -0.4479  0.0412
  181MOL0     C24305   0.206   9.255   6.336  0.2708 -0.1490  0.4041
  181MOL0     C24306   0.129   9.295   6.447  0.7200  0.1829 -0.2586
  181MOL0     C24307  -0.009   9.299   6.448 -0.0460  0.2013 -0.0214
  181MOL0     O24308  -0.074   9.348   6.558  0.1127  0.1004  0.2596
  181MOL0     C24309  -0.204   9.399   6.547 -0.0020 -0.0134 -0.0094
  181MOL0     C24310  -0.221   9.498   6.656  0.1896 -0.1713 -0.0193
  181MOL0     C24311  -0.359   9.565   6.672 -0.6100  1.0332  0.0220
  181MOL0     C24312  -0.372   9.687   6.585  0.3994 -0.2069 -0.2561
  181MOL0     C24313  -0.520   9.747   6.601 -0.4068 -0.2344  0.4050
  181MOL0     C24314  -0.630   9.653   6.554 -0.1300 -0.0045  0.0104
  181MOL0     C24315  -0.767   9.729   6.566 -0.1925 -0.6868 -0.2905
  181MOL0     C24316  -0.876   9.622   6.541  0.1064 -0.3147  0.3365
  181MOL0     N24317  -1.008   9.679   6.559 -0.0996  0.5344  0.4800
  181MOL0     C24318  -1.119   9.650   6.484 -0.6627 -0.7610 -0.0619
  181MOL0     C24319  -1.215   9.736   6.541  0.5817 -0.0654  0.4954
  181MOL0     C24320  -1.363   9.738   6.505  0.0409  0.0154 -0.8668
  181MOL0     C24321  -1.435   9.599   6.520 -0.2933  0.5698  0.8494
  181MOL0     C24322  -1.587   9.616   6.499 -0.5685 -0.1308  0.0538
  181MOL0     C24323  -1.673   9.510   6.565  0.0709 -0.5657  0.4222
  181MOL0     O24324  -1.682   9.397   6.478  0.3929  0.3071  0.2886
  181MOL0     C24325  -1.778   9.296   6.504 -0.4705 -0.0377 -0.8885
  181MOL0     C24326  -1.878   9.292   6.604 -0.8506  0.0076 -0.1796
  181MOL0     C24327  -1.974   9.200   6.612  1.1590  0.2228 -0.0067
  181MOL0     C24328  -2.082   9.227   6.723 -0.2091  0.7168  0.4343
  181MOL0     C24329  -1.976   9.086   6.513 -1.0437 -0.8564 -0.3644
  181MOL0     C24330  -2.079   8.989   6.509 -0.2149 -0.5615 -0.0273
  181MOL0     O24331  -2.100   8.930   6.628  0.9189 -0.3926  0.2989
  181MOL0     C24332  -2.198   8.831   6.628 -1.4535  0.1947 -0.8456
  181MOL0     C24333  -2.339   8.863   6.631  0.8969  0.6538  0.5585
  181MOL0     C24334  -2.430   8.760   6.637 -0.3846  0.4830 -0.4186
  181MOL0     C24335  -2.389   8.627   6.624 -0.6248  0.2950  0.7644
  181MOL0     O24336  -2.472   8.529   6.586  0.7556  0.5922  0.0186
  181MOL0     C24337  -2.606   8.535   6.625  0.3763  0.4344 -0.2435
  181MOL0     C24338  -2.686   8.407   6.605  0.0542 -0.2598  0.0260
  181MOL0     C24339  -2.837   8.428   6.617  0.0644  0.0783 -0.2904
  181MOL0     C24340  -2.890   8.518   6.503  0.4200  0.4229 -0.0372
  181MOL0     C24341  -3.042   8.532   6.510 -0.0447 -0.0189  0.6605
  181MOL0     C24342  -3.106   8.590   6.639 -0.9912 -0.3089  0.2783
  181MOL0     C24343  -3.235   8.653   6.600  0.5316  0.7067  0.6234
  181MOL0     C24344  -3.346   8.662   6.705 -0.3807  0.0135  0.3213
  181MOL0    Cl24345  -3.502   8.733   6.641 -0.2680  0.4468  0.3534
  181MOL0     C24346  -2.252   8.594   6.621 -0.6779 -0.1511  0.4553
  181MOL0     C24347  -2.155   8.694   6.631  0.7584 -0.0116 -0.1772
  181MOL0     O24348  -2.138   8.980   6.406 -0.1501  0.0837  0.4524
  181MOL0     C24349  -1.874   9.086   6.420  0.0334  0.6027  0.1706
  181MOL0     C24350  -1.778   9.194   6.410  0.2970 -0.6887 -0.1726
  181MOL0     N24351  -1.160   9.798   6.648  0.1032 -0.7526  0.8021
  181MOL0     N24352  -1.037   9.765   6.668 -0.2485 -0.1157  0.6533
  181MOL0     C24353  -0.071   9.252   6.337  0.4107  0.0606  0.4848
  181MOL0     C24354   0.001   9.200   6.228 -0.3698  0.8628 -0.4676
  181MOL0     C24355   0.363   9.175   5.939 -0.0011 -1.3400  0.5441
  181MOL0     C24356   0.380   9.040   5.908 -0.8682  0.4142  0.9269
  181MOL0     C24357   0.482   9.008   5.810 -0.1681  1.4338  0.6695
  181MOL0     C24358   0.587   9.102   5.775  0.3504 -0.0790 -0.6618
  181MOL0     O24359   0.689   9.057   5.699  0.5283 -0.1197 -0.1903
  181MOL0     C24360   0.795   9.155   5.671 -0.0653 -0.2678  0.0769
  181MOL0     C24361   0.922   9.085   5.627 -0.3213 -0.8845 -0.3091
  181MOL0     C24362   0.998   9.167   5.521  0.7458  0.0762 -0.1160
  181MOL0     C24363   1.140   9.116   5.502 -0.6594  0.1796 -0.3831
  181MOL0     C24364   1.210   9.108   5.633 -0.4654  0.5265  0.7216
  181MOL0     C24365   1.266   9.103   5.742 -0.4193 -0.0608 -0.0281
  181MOL0     C24366   0.566   9.238   5.811 -0.5364  0.0247 -0.5180
  181MOL0     C24367   0.449   9.270   5.885  1.1063 -0.4824  0.5469
  181MOL0     H24368   0.314   9.263   6.336  0.3231 -0.2257 -1.7983
  181MOL0     H24369   0.180   9.322   6.539  1.1209  1.6449 -0.8837
  181MOL0     H24370  -0.236   9.451   6.456 -2.5161  1.0059  1.3581
  181MOL0     H24371  -0.273   9.318   6.568  2.2938 -2.2090 -0.4776
  181MOL0     H24372  -0.183   9.449   6.746 -0.0861 -0.5858 -0.1250
  181MOL0     H24373  -0.159   9.586   6.637  1.7365 -1.6184 -2.1139
  181MOL0     H24374  -0.432   9.487   6.647 -0.4034  0.6789  0.4927
  181MOL0     H24375  -0.389   9.592   6.774  0.4719  2.3056  0.0297
  181MOL0     H24376  -0.297   9.766   6.602  1.6192 -0.7679 -2.6429
  181MOL0     H24377  -0.356   9.656   6.482  0.2514 -0.3866 -0.2248
  181MOL0     H24378  -0.553   9.757   6.705 -1.4749  0.3235  0.0356
  181MOL0     H24379  -0.521   9.845   6.551  0.4006  0.5568  1.8859
  181MOL0     H24380  -0.609   9.643   6.447  2.0383  0.2103  0.3778
  181MOL0     H24381  -0.648   9.556   6.599  0.5801  0.6295  1.7270
  181MOL0     H24382  -0.779   9.761   6.670 -0.8574 -0.0908 -0.5456
  181MOL0     H24383  -0.767   9.813   6.495 -0.4895 -0.6236 -0.2184
  181MOL0     H24384  -0.859   9.551   6.623 -0.3564  0.5072  1.1604
  181MOL0     H24385  -0.863   9.589   6.438  0.2606  2.2185 -0.5192
  181MOL0     H24386  -1.135   9.577   6.405  3.5474 -2.0136  0.0312
  181MOL0     H24387  -1.412   9.817   6.563  1.8743  1.2207 -0.9029
  181MOL0     H24388  -1.377   9.766   6.400  0.7778  1.6376 -0.5522
  181MOL0     H24389  -1.423   9.558   6.620 -1.7888 -2.5646 -0.1291
  181MOL0     H24390  -1.387   9.528   6.451  2.7228 -0.8250  4.0595
  181MOL0     H24391  -1.603   9.606   6.391  0.0733  2.3924 -0.3342
  181MOL0     H24392  -1.596   9.719   6.535  0.8758  1.1239 -2.8109
  181MOL0     H24393  -1.776   9.546   6.569 -0.2615 -1.4776  0.4177
  181MOL0     H24394  -1.642   9.496   6.669 -0.2580 -0.1414  0.5808
  181MOL0     H24395  -1.870   9.365   6.684  2.3282 -1.5316  1.1182
  181MOL0     H24396  -2.150   9.302   6.683  0.7433  0.9420 -0.8402
  181MOL0     H24397  -2.132   9.134   6.750 -0.0721  0.7518  0.8322
  181MOL0     H24398  -2.042   9.258   6.820 -0.4430 -0.4301  0.9191
  181MOL0     H24399  -2.358   8.970   6.625  1.1420  0.6688 -0.0490
  181MOL0     H24400  -2.533   8.792   6.623 -0.3076  1.0476  0.2724
  181MOL0     H24401  -2.607   8.544   6.734 -4.0842 -1.5695  0.0784
  181MOL0     H24402  -2.666   8.617   6.584 -0.2577 -0.7315 -1.7658
  181MOL0     H24403  -2.666   8.360   6.509 -1.2609 -3.5734  1.2185
  181MOL0     H24404  -2.642   8.337   6.677  2.1894  1.5040  0.5562
  181MOL0     H24405  -2.859   8.459   6.720  0.4159 -0.4348 -0.0580
  181MOL0     H24406  -2.882   8.329   6.614 -0.5750  0.3784 -0.9906
  181MOL0     H24407  -2.847   8.617   6.483  1.6607 -0.3380 -1.3357
  181MOL0     H24408  -2.861   8.462   6.413 -1.4540  1.2241 -1.2004
  181MOL0     H24409  -3.099   8.441   6.494  0.0391 -0.1022  0.8296
  181MOL0     H24410  -3.066   8.608   6.435 -0.2367 -1.0132 -0.3007
  181MOL0     H24411  -3.110   8.504   6.707 -0.8957 -0.1367  0.5040
  181MOL0     H24412  -3.039   8.666   6.680  2.3601 -1.2589 -2.9054
  181MOL0     H24413  -3.284   8.591   6.525  0.5668 -2.6652  3.1732
  181MOL0     H24414  -3.207   8.753   6.564  2.0572  0.5760  1.3555
  181MOL0     H24415  -3.309   8.712   6.795 -2.5143 -3.2772  3.3287
  181MOL0     H24416  -3.375   8.564   6.744 -0.1992  0.4577  1.6118
  181MOL0     H24417  -2.213   8.493   6.611 -0.2742  0.0900 -0.4485
  181MOL0     H24418  -2.053   8.658   6.631  0.5189 -0.7388  0.8729
  181MOL0     H24419  -1.876   9.006   6.346  3.6129 -0.5542  1.1530
  181MOL0     H24420  -1.701   9.184   6.335  1.4518 -0.9629  1.0278
  181MOL0     H24421  -0.180   9.254   6.339  0.1928  2.5388 -3.2573
  181MOL0     H24422  -0.040   9.154   6.139  1.7322 -2.1644 -0.0156
  181MOL0     H24423   0.315   8.970   5.960  0.1065 -0.8598  0.4671
  181MOL0     H24424   0.500   8.905   5.780  2.6538  1.5734  1.5930
  181MOL0     H24425   0.761   9.212   5.585 -1.4652 -0.0559  0.7565
  181MOL0     H24426   0.822   9.215   5.759  1.7598  0.5911 -0.9976
  181MOL0     H24427   0.907   8.988   5.578  1.9708 -1.6790  0.4595
  181MOL0     H24428   0.976   9.057   5.718 -0.6697 -1.1921 -0.1947
  181MOL0     H24429   0.985   9.272   5.548 -3.9733 -0.2726 -0.0775
  181MOL0     H24430   0.949   9.163   5.423 -0.0311 -0.4239  0.2821
  181MOL0     H24431   1.201   9.187   5.444  1.8873  1.5358  3.5460
  181MOL0     H24432   1.153   9.017   5.457  0.9225  1.1677 -2.2478
  181MOL0     H24433   1.318   9.112   5.835 -0.5856 -1.9148  0.2844
  181MOL0     H24434   0.616   9.323   5.765 -3.1620  4.6379  4.1119
  181MOL0     H24435   0.417   9.374   5.891 -0.6553 -1.0264  0.9615
  182MOL0     O24436   2.185   6.928  10.715 -0.5286  0.2479  0.4200
  182MOL0     C24437   2.252   7.027  10.692  0.1103  0.0679 -0.4930
  182MOL0     O24438   2.204   7.138  10.628  0.2258  0.0235 -0.6670
  182MOL0     C24439   2.073   7.145  10.580 -0.0526 -0.4966  0.1612
  182MOL0     C24440   2.051   7.242  10.478  0.7384  0.0193  0.9840
  182MOL0     C24441   1.924   7.254  10.417 -0.2168 -0.7095  0.0384
  182MOL0     C24442   1.821   7.171  10.452  0.5245  0.0614 -0.1683
  182MOL0     O24443   1.703   7.162  10.389  0.6086  0.4152  0.5790
  182MOL0     C24444   1.685   7.250  10.287 -0.0921  0.0017 -0.6670
  182MOL0     C24445   1.560   7.219  10.201 -0.3894 -0.0559 -0.2369
  182MOL0     C24446   1.432   7.245  10.289 -0.2373 -0.7149 -0.1506
  182MOL0     C24447   1.313   7.162  10.239  0.0280 -0.6727 -0.4384
  182MOL0     C24448   1.199   7.185  10.340  0.2845  0.6078  1.0378
  182MOL0     C24449   1.095   7.068  10.314  0.2892 -0.8354  0.9193
  182MOL0     C24450   0.977   7.089  10.403 -0.7111  0.1604  0.3140
  182MOL0     C24451   0.986   7.011  10.530 -0.1152 -0.2097  0.7093
  182MOL0     N24452   0.858   7.003  10.599  0.1669 -0.2125  0.5207
  182MOL0     C24453   0.819   6.902  10.681 -0.6963  0.5060 -0.1664
  182MOL0     C24454   0.689   6.918  10.715  0.2148  0.8806  1.1649
  182MOL0     C24455   0.610   6.826  10.805 -0.2641  0.2066  0.8498
  182MOL0     C24456   0.663   6.834  10.943 -0.1448 -0.7377  0.2838
  182MOL0     C24457   0.551   6.796  11.047  0.2360  0.1128 -0.2359
  182MOL0     C24458   0.557   6.882  11.178 -0.5566 -0.4767  0.9467
  182MOL0     O24459   0.447   6.831  11.253  0.3037  0.6146  0.5945
  182MOL0     C24460   0.336   6.902  11.278 -0.3379  0.6292  0.4678
  182MOL0     C24461   0.212   6.852  11.243  0.3756 -0.0857  0.7300
  182MOL0     C24462   0.091   6.910  11.274  0.3380 -0.2934  0.0882
  182MOL0     C24463  -0.027   6.830  11.199 -0.4714 -0.1995  0.3979
  182MOL0     C24464   0.091   7.029  11.345 -0.1476  0.2190 -0.2785
  182MOL0     C24465  -0.034   7.093  11.364  1.2476  0.0969  0.1793
  182MOL0     O24466  -0.144   7.053  11.298  0.3598  0.4237 -0.0587
  182MOL0     C24467  -0.271   7.106  11.333 -0.8305  0.4228  0.4848
  182MOL0     C24468  -0.347   7.159  11.233 -0.7338  0.3576 -0.4419
  182MOL0     C24469  -0.475   7.216  11.261 -0.0424 -0.4648 -0.2443
  182MOL0     C24470  -0.505   7.237  11.390  0.1270 -0.0825  1.2372
  182MOL0     O24471  -0.610   7.318  11.418 -0.0332 -0.5733 -0.7641
  182MOL0     C24472  -0.692   7.298  11.542 -0.4621 -1.0077 -1.1609
  182MOL0     C24473  -0.827   7.352  11.517  0.2620 -0.0615 -0.4897
  182MOL0     C24474  -0.921   7.329  11.635  0.5655 -0.0988 -0.6407
  182MOL0     C24475  -1.056   7.395  11.602  0.6117  0.1003 -0.2356
  182MOL0     C24476  -1.165   7.372  11.711  0.9130 -0.0739 -0.1811
  182MOL0     C24477  -1.302   7.430  11.669  0.4065 -0.5202 -0.1631
  182MOL0     C24478  -1.403   7.419  11.782 -0.0202 -0.0640  0.3834
  182MOL0     C24479  -1.553   7.451  11.754 -0.0844 -0.5378 -1.1122
  182MOL0    Cl24480  -1.583   7.622  11.679 -0.6733 -0.2112 -0.1805
  182MOL0     C24481  -0.425   7.187  11.492  0.6415  0.3674 -0.2483
  182MOL0     C24482  -0.305   7.121  11.465  0.6086 -0.7130 -0.1305
  182MOL0     O24483  -0.027   7.183  11.452  0.3357 -0.8678  0.7714
  182MOL0     C24484   0.214   7.085  11.377  0.2436  0.9450 -0.4708
  182MOL0     C24485   0.335   7.025  11.349  0.8325 -0.1935 -0.5672
  182MOL0     N24486   0.650   7.026  10.635  0.1957  1.0079 -0.3314
  182MOL0     N24487   0.749   7.084  10.576 -0.2882  0.5266 -0.0510
  182MOL0     C24488   1.843   7.074  10.554  0.9198 -0.4139 -0.4777
  182MOL0     C24489   1.965   7.061  10.613 -0.1829 -0.3708  0.0497
  182MOL0     C24490   2.392   7.037  10.743  0.4253 -0.8156 -0.0280
  182MOL0     C24491   2.465   7.152  10.721 -0.8640 -0.0324  1.0935
  182MOL0     C24492   2.592   7.166  10.765 -1.2875  0.3492  0.1754
  182MOL0     C24493   2.653   7.064  10.843 -0.2513 -0.2712  0.2532
  182MOL0     O24494   2.782   7.092  10.877  0.1598  0.4792  0.2318
  182MOL0     C24495   2.853   6.991  10.950  0.8852  0.2774  0.3234
  182MOL0     C24496   2.896   6.878  10.856 -0.6414  0.4144 -0.3581
  182MOL0     C24497   2.984   6.911  10.730  0.2806 -0.6719  0.0777
  182MOL0     C24498   3.100   7.008  10.755  0.0756 -0.7994 -0.3446
  182MOL0     C24499   3.164   7.036  10.630  0.5495  0.1083  2.0192
  182MOL0     C24500   3.207   7.044  10.512  0.2801  0.6089 -0.7293
  182MOL0     C24501   2.582   6.944  10.871 -0.3682  0.1643 -0.6089
  182MOL0     C24502   2.449   6.933  10.813 -1.0181 -0.0432 -0.0767
  182MOL0     H24503   2.129   7.312  10.449 -1.4170  2.1178 -0.1155
  182MOL0     H24504   1.919   7.322  10.332  1.0349 -0.9865 -0.2784
  182MOL0     H24505   1.662   7.350  10.327  1.4282 -0.1792  0.7683
  182MOL0     H24506   1.769   7.267  10.219 -1.4293  2.2196 -1.9065
  182MOL0     H24507   1.561   7.277  10.107 -1.5301 -1.0641 -0.8990
  182MOL0     H24508   1.559   7.118  10.161 -1.8728 -0.6634  1.2389
  182MOL0     H24509   1.456   7.228  10.394  1.4307 -0.0638 -0.3934
  182MOL0     H24510   1.409   7.351  10.274  2.5447 -0.0749 -0.3545
  182MOL0     H24511   1.296   7.186  10.133 -1.3384 -1.2223 -0.3699
  182MOL0     H24512   1.345   7.060  10.215 -0.2561 -0.3825 -2.2378
  182MOL0     H24513   1.232   7.181  10.444  1.8751 -0.1715  0.5209
  182MOL0     H24514   1.156   7.285  10.324 -0.6045  0.5189  2.6435
  182MOL0     H24515   1.064   7.067  10.209  1.0322  1.4336  0.6047
  182MOL0     H24516   1.151   6.975  10.327 -1.1891 -2.0582 -0.8814
  182MOL0     H24517   0.961   7.194  10.429 -0.0324  0.3210  0.1038
  182MOL0     H24518   0.889   7.068  10.340  0.4555  2.3220 -2.2454
  182MOL0     H24519   1.069   7.061  10.581  2.4298 -0.6648 -2.6384
  182MOL0     H24520   1.028   6.913  10.505 -1.3892 -0.6976  0.4202
  182MOL0     H24521   0.897   6.838  10.720  1.3426  3.2732  0.6156
  182MOL0     H24522   0.507   6.862  10.802 -0.6369 -0.4842  3.2574
  182MOL0     H24523   0.623   6.727  10.762 -0.2277  0.7489 -0.4416
  182MOL0     H24524   0.688   6.938  10.964  0.0248 -0.4312 -1.3511
  182MOL0     H24525   0.755   6.784  10.975 -1.2928 -1.9789  1.8207
  182MOL0     H24526   0.555   6.689  11.071  1.4468  0.2866  0.4353
  182MOL0     H24527   0.453   6.810  11.001  1.3192  2.0699 -2.1363
  182MOL0     H24528   0.546   6.988  11.151  0.7347 -0.3620  0.8428
  182MOL0     H24529   0.656   6.882  11.224  0.2191 -2.5540 -0.5570
  182MOL0     H24530   0.212   6.757  11.192  0.4678 -0.2763  1.0773
  182MOL0     H24531   0.008   6.749  11.134  1.1595  2.3737 -2.1574
  182MOL0     H24532  -0.089   6.785  11.277 -1.4419 -0.3778 -0.4572
  182MOL0     H24533  -0.098   6.892  11.144 -0.2780 -2.7645 -3.0361
  182MOL0     H24534  -0.325   7.151  11.127 -1.3738 -1.7744 -0.4459
  182MOL0     H24535  -0.546   7.243  11.183 -3.5182 -1.3153  2.3663
  182MOL0     H24536  -0.708   7.192  11.562 -2.6423  0.0358  4.1902
  182MOL0     H24537  -0.639   7.349  11.624 -0.5690 -1.3906 -0.8532
  182MOL0     H24538  -0.827   7.460  11.504  0.2786  0.0238  0.1981
  182MOL0     H24539  -0.869   7.295  11.433  0.1602 -2.2738  0.9646
  182MOL0     H24540  -0.881   7.366  11.730 -0.2674 -3.9125  1.4222
  182MOL0     H24541  -0.932   7.221  11.649  1.8904 -0.4255 -1.8217
  182MOL0     H24542  -1.038   7.503  11.600  1.9490 -0.0646 -3.6177
  182MOL0     H24543  -1.089   7.346  11.510 -0.1622 -1.1231  0.6658
  182MOL0     H24544  -1.139   7.421  11.806 -1.0292  0.7965 -0.0334
  182MOL0     H24545  -1.168   7.264  11.730  1.8344 -0.1478 -0.4465
  182MOL0     H24546  -1.277   7.530  11.631 -4.5045  0.0322 -2.7290
  182MOL0     H24547  -1.353   7.381  11.586 -1.2916 -0.6221  0.8802
  182MOL0     H24548  -1.372   7.482  11.867 -2.4045  0.8981  0.6351
  182MOL0     H24549  -1.396   7.319  11.826 -2.0317 -0.2947  0.3051
  182MOL0     H24550  -1.599   7.447  11.853  0.0915 -0.3456 -1.0224
  182MOL0     H24551  -1.604   7.380  11.688  1.2455  1.3785 -4.4419
  182MOL0     H24552  -0.454   7.196  11.596 -0.9077 -4.2335 -0.0610
  182MOL0     H24553  -0.237   7.073  11.535  1.2188 -0.0554 -0.2643
  182MOL0     H24554   0.223   7.188  11.411 -0.9204  0.3560  1.8056
  182MOL0     H24555   0.419   7.076  11.395 -0.4999  1.1140  0.5116
  182MOL0     H24556   1.769   7.001  10.585  1.9451  0.2322  4.1159
  182MOL0     H24557   1.965   6.983  10.689  2.4574 -2.5970 -2.0449
  182MOL0     H24558   2.415   7.236  10.674 -0.2393 -0.2357  0.0493
  182MOL0     H24559   2.648   7.255  10.738 -1.8262  0.3333 -1.0496
  182MOL0     H24560   2.937   7.028  11.009  1.2363 -0.0186  0.0120
  182MOL0     H24561   2.790   6.934  11.019  0.0563 -0.7935 -1.2412
  182MOL0     H24562   2.804   6.829  10.822 -0.6757 -1.1826  1.8031
  182MOL0     H24563   2.959   6.814  10.919  0.7667  2.3062  0.2569
  182MOL0     H24564   2.926   6.948  10.645  0.6688 -1.1362 -0.3944
  182MOL0     H24565   3.021   6.817  10.689  0.5555  0.3713 -2.2118
  182MOL0     H24566   3.171   6.968  10.827  2.1442 -1.3333 -2.5642
  182MOL0     H24567   3.075   7.097  10.814  2.4819  0.3307 -0.9101
  182MOL0     H24568   3.236   7.046  10.408 -1.6347 -1.7698 -1.3791
  182MOL0     H24569   2.620   6.858  10.926 -2.2640 -0.6828 -0.5545
  182MOL0     H24570   2.387   6.847  10.831 -1.0985 -0.2663 -1.3312
  183MOL0     O24571   6.455   1.373   5.298 -0.9260 -0.3209  0.3601
  183MOL0     C24572   6.506   1.274   5.242 -0.0891  0.0209 -0.1689
  183MOL0     O24573   6.440   1.212   5.137 -0.3794  0.4431 -0.0231
  183MOL0     C24574   6.336   1.270   5.076  1.0518  0.1081  0.7233
  183MOL0     C24575   6.202   1.236   5.098  0.4731 -0.1760 -0.5189
  183MOL0     C24576   6.094   1.307   5.035 -1.3736 -0.2762 -0.2675
  183MOL0     C24577   6.130   1.395   4.929 -0.8566  0.3492  0.0002
  183MOL0     O24578   6.023   1.436   4.855  0.2108 -0.1417 -0.7226
  183MOL0     C24579   6.046   1.511   4.734  0.5370  0.2661  0.5812
  183MOL0     C24580   5.919   1.500   4.645 -0.1205 -0.3836 -0.1754
  183MOL0     C24581   5.784   1.466   4.712 -0.8410 -0.5362  0.2798
  183MOL0     C24582   5.677   1.450   4.615 -0.3183  0.7238 -0.0483
  183MOL0     C24583   5.537   1.463   4.676  0.1909 -0.3880 -0.3614
  183MOL0     C24584   5.430   1.486   4.573 -0.5247  0.5416  0.0862
  183MOL0     C24585   5.293   1.505   4.646  0.4642 -0.7373  0.4078
  183MOL0     C24586   5.177   1.499   4.542  1.5538  0.0995  0.3659
  183MOL0     N24587   5.047   1.536   4.614 -1.0339  0.3121  1.1751
  183MOL0     C24588   4.934   1.563   4.544  0.1113  1.3775  0.3411
  183MOL0     C24589   4.835   1.555   4.640  0.5708  0.7712  0.5643
  183MOL0     C24590   4.688   1.571   4.610 -0.2369 -0.6136  0.0619
  183MOL0     C24591   4.657   1.712   4.557  0.0174  0.2029 -0.0143
  183MOL0     C24592   4.673   1.831   4.651  0.3158  0.0164  0.3592
  183MOL0     C24593   4.542   1.846   4.728 -0.0756 -0.2492 -1.4897
  183MOL0     O24594   4.445   1.910   4.644  0.3911  0.7531 -0.3760
  183MOL0     C24595   4.318   1.921   4.693  0.0206 -0.4461  0.0699
  183MOL0     C24596   4.230   1.984   4.609  0.2516 -0.1377 -0.5159
  183MOL0     C24597   4.099   2.016   4.643 -0.3901 -0.1178  0.7658
  183MOL0     C24598   4.024   2.111   4.554  0.5426 -0.2630 -0.0321
  183MOL0     C24599   4.042   1.970   4.768 -0.0729  0.4718 -0.1574
  183MOL0     C24600   3.912   2.008   4.811  0.0550 -1.8493  0.7019
  183MOL0     O24601   3.912   2.091   4.916  0.3066  0.0635  0.2016
  183MOL0     C24602   3.795   2.115   4.975  0.1540  0.0586 -0.0995
  183MOL0     C24603   3.778   2.241   5.039 -0.9411  0.4828 -0.3655
  183MOL0     C24604   3.661   2.275   5.096 -0.3992  0.5795  0.2449
  183MOL0     C24605   3.560   2.176   5.108 -1.1532 -0.7485  0.3007
  183MOL0     O24606   3.446   2.200   5.181 -0.1678 -0.2074 -0.0644
  183MOL0     C24607   3.390   2.330   5.183 -0.1900  0.0506  0.3368
  183MOL0     C24608   3.240   2.310   5.180  0.6805  0.3886  0.0216
  183MOL0     C24609   3.161   2.382   5.294 -0.0152  0.6617 -0.0013
  183MOL0     C24610   3.144   2.308   5.428 -0.3500  0.8948 -0.6156
  183MOL0     C24611   3.006   2.329   5.501  1.0654 -0.2624  0.6474
  183MOL0     C24612   3.012   2.478   5.543 -0.0208  0.3823 -0.3858
  183MOL0     C24613   2.872   2.535   5.595  0.8451 -0.1161  0.0250
  183MOL0     C24614   2.831   2.486   5.741 -0.1724  0.6456  0.3897
  183MOL0    Cl24615   2.654   2.532   5.748 -0.2156 -0.1759 -0.2860
  183MOL0     C24616   3.581   2.051   5.059 -0.1585  0.5418 -0.5681
  183MOL0     C24617   3.686   2.023   4.982 -0.0023 -0.2294 -0.8361
  183MOL0     O24618   3.814   1.992   4.734  0.1421  0.5095 -0.2163
  183MOL0     C24619   4.132   1.910   4.854 -0.2158  0.2127 -0.1778
  183MOL0     C24620   4.270   1.884   4.818  0.2464 -0.3552  0.1378
  183MOL0     N24621   4.893   1.513   4.756  0.5561  0.1062  0.1659
  183MOL0     N24622   5.021   1.497   4.744 -0.0007 -0.7557 -0.7491
  183MOL0     C24623   6.262   1.437   4.917 -0.1512  0.5284  0.5475
  183MOL0     C24624   6.367   1.371   4.985  0.0993 -0.2790 -0.0413
  183MOL0     C24625   6.638   1.220   5.281  0.8637  0.2940  0.0246
  183MOL0     C24626   6.713   1.291   5.372 -0.2368 -0.1492  0.0738
  183MOL0     C24627   6.832   1.231   5.421 -0.2407 -0.2997 -0.6941
  183MOL0     C24628   6.889   1.114   5.370  0.3640  1.0529  0.3828
  183MOL0     O24629   7.018   1.085   5.412  0.3079  0.0948 -0.0249
  183MOL0     C24630   7.062   0.941   5.415  0.4226  0.2591  0.5006
  183MOL0     C24631   7.212   0.939   5.424 -0.6499  0.5813 -0.2939
  183MOL0     C24632   7.263   1.011   5.550 -0.1701 -1.1197  0.0942
  183MOL0     C24633   7.223   0.938   5.674 -0.8859 -0.6542 -0.3385
  183MOL0     C24634   7.278   1.007   5.791 -1.4249  0.3416 -0.3157
  183MOL0     C24635   7.340   1.039   5.891 -0.1567 -1.0204 -0.7998
  183MOL0     C24636   6.811   1.038   5.275 -0.9241  0.2139 -0.1686
  183MOL0     C24637   6.688   1.096   5.241  0.1899  1.2336 -0.0652
  183MOL0     H24638   6.183   1.144   5.153  0.8319 -0.8595 -1.5175
  183MOL0     H24639   5.992   1.279   5.061 -0.8009 -1.2148  1.1379
  183MOL0     H24640   6.064   1.616   4.758 -1.3787  1.0033 -0.9523
  183MOL0     H24641   6.129   1.473   4.675  0.4239 -1.9025  1.6838
  183MOL0     H24642   5.908   1.596   4.594  1.6469  0.4672  0.9330
  183MOL0     H24643   5.935   1.423   4.569 -0.4166 -0.0451 -0.5824
  183MOL0     H24644   5.792   1.371   4.765  1.1578 -0.5144  0.1260
  183MOL0     H24645   5.750   1.538   4.786 -0.9307 -0.8408  0.5366
  183MOL0     H24646   5.678   1.522   4.533  2.1143 -0.8013 -1.4954
  183MOL0     H24647   5.685   1.354   4.563 -0.2963 -0.5815  2.2396
  183MOL0     H24648   5.514   1.377   4.740 -0.1438 -0.5333 -0.6730
  183MOL0     H24649   5.533   1.550   4.743  1.1306 -0.9921  0.5268
  183MOL0     H24650   5.445   1.574   4.510 -5.6568  1.5854 -0.1365
  183MOL0     H24651   5.420   1.402   4.503 -2.7574  1.7275 -1.1118
  183MOL0     H24652   5.281   1.444   4.736  0.0541  3.1136  3.2016
  183MOL0     H24653   5.292   1.605   4.690  1.1351 -0.9913  1.0286
  183MOL0     H24654   5.158   1.397   4.508 -3.8202 -0.0874  2.8272
  183MOL0     H24655   5.203   1.568   4.462 -0.0027 -0.0083 -0.2781
  183MOL0     H24656   4.921   1.567   4.436  0.8673  3.1541  0.2877
  183MOL0     H24657   4.645   1.495   4.545  4.8240 -0.5530 -4.0183
  183MOL0     H24658   4.637   1.571   4.707 -2.8094  1.4648 -1.1776
  183MOL0     H24659   4.554   1.712   4.520  0.5281 -2.4828 -1.7561
  183MOL0     H24660   4.713   1.726   4.464 -2.7633  0.2218 -1.7768
  183MOL0     H24661   4.695   1.921   4.592  1.2604 -2.1973 -2.9268
  183MOL0     H24662   4.757   1.822   4.720 -0.2266 -2.0777  0.8086
  183MOL0     H24663   4.555   1.911   4.816 -2.5102 -1.1600 -0.3439
  183MOL0     H24664   4.500   1.749   4.757 -0.4441 -0.0654 -1.3968
  183MOL0     H24665   4.277   2.014   4.515  4.0562 -0.1078  1.1843
  183MOL0     H24666   4.050   2.214   4.579  1.3073  0.0923 -2.1400
  183MOL0     H24667   4.043   2.107   4.447  1.2855 -2.7112  0.1339
  183MOL0     H24668   3.915   2.105   4.558  0.2093  2.6781 -1.7647
  183MOL0     H24669   3.856   2.315   5.035 -0.3066 -0.1437  0.0971
  183MOL0     H24670   3.653   2.372   5.145 -0.2162  0.0435  1.3777
  183MOL0     H24671   3.432   2.390   5.264  3.0419 -1.3121 -0.1916
  183MOL0     H24672   3.422   2.378   5.091 -0.2361 -0.7682 -0.1233
  183MOL0     H24673   3.193   2.359   5.094  2.0771  1.4151 -0.1792
  183MOL0     H24674   3.221   2.202   5.179  3.1492 -0.1531  2.2320
  183MOL0     H24675   3.058   2.410   5.271 -1.2003 -0.0528  3.6393
  183MOL0     H24676   3.210   2.476   5.320  0.0702  0.1046  2.0631
  183MOL0     H24677   3.136   2.200   5.408 -3.5432  1.4751 -3.4356
  183MOL0     H24678   3.220   2.340   5.499  0.4402 -0.3275 -0.8748
  183MOL0     H24679   3.000   2.263   5.588 -2.4710  1.3772  1.8673
  183MOL0     H24680   2.927   2.290   5.436 -0.4244 -1.4195  3.0050
  183MOL0     H24681   3.083   2.485   5.626  0.3813 -1.6896 -0.4992
  183MOL0     H24682   3.041   2.541   5.459  0.3303  0.7219 -0.0121
  183MOL0     H24683   2.802   2.505   5.516  4.0728  0.2971 -3.2882
  183MOL0     H24684   2.861   2.643   5.603 -1.4899 -0.0882 -2.3093
  183MOL0     H24685   2.898   2.539   5.809  0.9771 -0.4425  0.1318
  183MOL0     H24686   2.846   2.378   5.742  2.3571  0.9267  0.0113
  183MOL0     H24687   3.511   1.972   5.084  0.0990  1.2533  2.9035
  183MOL0     H24688   3.691   1.922   4.942  0.4892  0.0686 -1.5700
  183MOL0     H24689   4.106   1.880   4.955  0.3218  0.8688  0.1620
  183MOL0     H24690   4.340   1.845   4.891 -0.1235 -2.0514 -0.3829
  183MOL0     H24691   6.291   1.498   4.832 -1.9527 -0.4856 -0.8710
  183MOL0     H24692   6.471   1.402   4.985 -0.2843  1.1064 -0.5420
  183MOL0     H24693   6.676   1.385   5.412  0.5804 -1.0237  3.1397
  183MOL0     H24694   6.887   1.279   5.501  0.1328  0.0568 -1.1562
  183MOL0     H24695   7.017   0.874   5.489 -2.1901 -1.5378 -2.5137
  183MOL0     H24696   7.041   0.891   5.321  2.2810  1.8913 -0.8785
  183MOL0     H24697   7.257   0.986   5.336  1.3592 -0.9166 -0.1397
  183MOL0     H24698   7.241   0.834   5.416 -1.1686  0.5861 -2.9770
  183MOL0     H24699   7.218   1.110   5.547  1.8824 -0.1564 -1.7223
  183MOL0     H24700   7.371   1.027   5.552 -0.7583  4.8997  2.9429
  183MOL0     H24701   7.249   0.832   5.671 -1.3478 -0.8104  0.7486
  183MOL0     H24702   7.116   0.960   5.679 -0.4695  1.1873  2.4583
  183MOL0     H24703   7.395   1.076   5.975 -1.7813  2.9760 -1.2797
  183MOL0     H24704   6.837   0.942   5.233  2.9911 -0.3095  2.8558
  183MOL0     H24705   6.629   1.050   5.162  0.5707  0.0087  0.3471
  184MOL0     O24706   5.408   9.984   7.836 -0.4752 -0.3554  0.3052
  184MOL0     C24707   5.459   9.985   7.726  1.0995 -0.0436 -0.0262
  184MOL0     O24708   5.395   9.932   7.613  0.3037 -0.6532  0.7103
  184MOL0     C24709   5.285   9.848   7.647 -0.1020 -1.0624  0.1501
  184MOL0     C24710   5.310   9.723   7.695  0.3488  0.7562 -0.6340
  184MOL0     C24711   5.207   9.623   7.710 -1.0602  0.6467 -0.0017
  184MOL0     C24712   5.083   9.667   7.667 -0.1237  0.2499 -0.6619
  184MOL0     O24713   4.981   9.574   7.685  0.1413 -0.0870 -0.6244
  184MOL0     C24714   4.842   9.632   7.710  0.1253 -0.3581 -0.5747
  184MOL0     C24715   4.746   9.530   7.775  0.4334 -0.6146 -0.1853
  184MOL0     C24716   4.610   9.598   7.804  0.5145 -0.8630 -0.0896
  184MOL0     C24717   4.515   9.505   7.882 -0.3769 -0.0527  0.6086
  184MOL0     C24718   4.363   9.533   7.888 -0.5891 -0.0473 -0.2070
  184MOL0     C24719   4.310   9.660   7.949  0.1202  0.6943 -0.0653
  184MOL0     C24720   4.159   9.657   7.949 -0.0575 -1.0088 -1.0491
  184MOL0     C24721   4.107   9.800   7.988 -0.6376 -0.0462 -0.8329
  184MOL0     N24722   3.970   9.817   7.956  0.5565  0.2281  0.3312
  184MOL0     C24723   3.881   9.871   8.046 -0.1794  0.5238  0.1011
  184MOL0     C24724   3.760   9.886   7.984 -1.3651 -0.5240  0.6037
  184MOL0     C24725   3.642   9.953   8.048 -0.8278  0.6430  0.2063
  184MOL0     C24726   3.533   9.847   8.073 -0.0352 -0.6853 -0.9548
  184MOL0     C24727   3.422   9.904   8.158 -0.1983 -0.3215  0.4060
  184MOL0     C24728   3.326   9.789   8.186  0.6855  0.2299  0.1227
  184MOL0     O24729   3.251   9.745   8.072  0.1602  0.1835 -0.3484
  184MOL0     C24730   3.145   9.826   8.020 -0.3078 -0.1538  0.6642
  184MOL0     C24731   3.085   9.935   8.095 -0.7151  0.6081  0.3307
  184MOL0     C24732   2.972   9.994   8.043  0.0149  0.1066 -0.2182
  184MOL0     C24733   2.897  10.088   8.134 -0.2028 -0.1945 -0.3966
  184MOL0     C24734   2.912   9.950   7.927 -0.5780 -0.1740 -0.0591
  184MOL0     C24735   2.782  10.008   7.867  0.4446  1.2625  0.9045
  184MOL0     O24736   2.789  10.046   7.732 -0.3125  0.7447  0.0151
  184MOL0     C24737   2.683  10.108   7.673 -0.0867 -0.1198 -0.9615
  184MOL0     C24738   2.582  10.039   7.606  1.0431  0.0413  0.5163
  184MOL0     C24739   2.458  10.097   7.579 -0.2360 -0.2162  0.7154
  184MOL0     C24740   2.444  10.241   7.609 -0.0408  0.1815  0.5257
  184MOL0     O24741   2.339  10.323   7.571 -0.3530 -0.1860 -0.5298
  184MOL0     C24742   2.220  10.251   7.544  0.5749  0.2983 -0.0029
  184MOL0     C24743   2.168  10.176   7.672 -0.4792  0.0138 -0.6434
  184MOL0     C24744   2.076  10.058   7.640 -0.8352 -0.7523 -0.2591
  184MOL0     C24745   2.045   9.977   7.758  0.5694  1.2067 -0.1197
  184MOL0     C24746   1.982   9.841   7.721  0.0329  0.5419 -0.4447
  184MOL0     C24747   1.991   9.734   7.829  0.0038 -0.4489  0.0998
  184MOL0     C24748   1.894   9.614   7.804  0.2427  0.0055  0.0918
  184MOL0     C24749   1.917   9.497   7.906 -0.3141  0.1721 -0.2031
  184MOL0    Cl24750   1.973   9.567   8.058  0.3235  0.3945  0.0607
  184MOL0     C24751   2.555  10.305   7.670 -1.0865 -0.2378  0.1775
  184MOL0     C24752   2.672  10.244   7.693 -0.5323 -0.5444 -0.4306
  184MOL0     O24753   2.682  10.005   7.939 -0.1398  0.2142  0.2568
  184MOL0     C24754   2.974   9.848   7.854  0.1779  1.4266  0.0703
  184MOL0     C24755   3.090   9.776   7.899  0.8649 -0.5901 -0.3810
  184MOL0     N24756   3.779   9.845   7.849  0.0651 -0.6160  0.8671
  184MOL0     N24757   3.904   9.799   7.836 -0.1902 -0.2041  0.1202
  184MOL0     C24758   5.056   9.798   7.622  0.4365  0.4545  0.6478
  184MOL0     C24759   5.159   9.885   7.615  0.3457 -0.0717 -0.2082
  184MOL0     C24760   5.586  10.043   7.714  0.0348 -0.3120  0.0837
  184MOL0     C24761   5.661  10.044   7.589 -0.2923 -0.5009 -0.2996
  184MOL0     C24762   5.787  10.092   7.571 -0.2114 -0.5538  1.3387
  184MOL0     C24763   5.856  10.137   7.688 -0.1045 -0.0108 -0.9476
  184MOL0     O24764   5.985  10.179   7.679  0.2713  0.0671 -0.9533
  184MOL0     C24765   6.000  10.321   7.666  0.0581 -0.2506  0.6377
  184MOL0     C24766   6.123  10.340   7.589  0.2138 -0.1922 -0.1167
  184MOL0     C24767   6.256  10.326   7.673  0.1946  0.3107 -0.3566
  184MOL0     C24768   6.367  10.342   7.566  0.2466 -0.8118 -0.6407
  184MOL0     C24769   6.489  10.342   7.649  0.3971 -0.3840 -0.0211
  184MOL0     C24770   6.598  10.344   7.703 -0.4975  0.2759 -0.4782
  184MOL0     C24771   5.791  10.139   7.815 -0.0163 -0.6403  0.4229
  184MOL0     C24772   5.660  10.104   7.824  0.8587 -0.0233  0.0974
  184MOL0     H24773   5.409   9.692   7.726  0.2691 -0.1714 -1.2577
  184MOL0     H24774   5.219   9.525   7.756 -0.1206  0.3495 -0.8417
  184MOL0     H24775   4.848   9.717   7.778 -0.9066 -0.9680  0.3218
  184MOL0     H24776   4.792   9.670   7.621 -2.7521 -1.1656  0.5691
  184MOL0     H24777   4.729   9.455   7.698 -1.1894 -0.8329  0.3514
  184MOL0     H24778   4.784   9.491   7.870  1.7719 -0.0943 -0.4729
  184MOL0     H24779   4.619   9.693   7.858  0.5787 -0.1378 -1.3344
  184MOL0     H24780   4.566   9.631   7.709 -1.1535 -2.6250  0.0010
  184MOL0     H24781   4.535   9.404   7.845  1.0854  0.9046 -1.3891
  184MOL0     H24782   4.546   9.508   7.987  0.0278 -1.0880  0.5331
  184MOL0     H24783   4.319   9.538   7.788  0.8756  1.7597 -0.8291
  184MOL0     H24784   4.314   9.455   7.946  0.1712 -0.7027 -0.4313
  184MOL0     H24785   4.337   9.675   8.054 -3.1640 -2.1325  1.3772
  184MOL0     H24786   4.354   9.732   7.879 -1.7257 -1.1839 -3.4310
  184MOL0     H24787   4.127   9.646   7.845  0.8528  3.2783 -1.9758
  184MOL0     H24788   4.127   9.584   8.023  2.2048 -1.3996 -0.3849
  184MOL0     H24789   4.165   9.876   7.934 -1.7960  1.4054 -0.0969
  184MOL0     H24790   4.125   9.813   8.095 -1.8348 -1.1159 -0.4766
  184MOL0     H24791   3.904   9.897   8.149  0.4927  1.2735 -0.2370
  184MOL0     H24792   3.677  10.007   8.136 -0.4337  2.1963 -0.8481
  184MOL0     H24793   3.615  10.029   7.974 -0.4026  0.1806 -0.4393
  184MOL0     H24794   3.571   9.756   8.120  1.1115  0.5776  0.6881
  184MOL0     H24795   3.492   9.816   7.976 -0.4248 -0.1369 -0.9715
  184MOL0     H24796   3.367   9.979   8.100 -1.6051 -1.6595 -0.0687
  184MOL0     H24797   3.455   9.947   8.252  0.8901 -0.2509  0.0118
  184MOL0     H24798   3.254   9.816   8.264  0.1012 -2.1333  0.4782
  184MOL0     H24799   3.377   9.699   8.222  3.4149  0.7727 -2.0459
  184MOL0     H24800   3.117   9.964   8.195 -1.2706 -1.7397  1.2450
  184MOL0     H24801   2.844  10.160   8.071  0.0083  1.4872  1.2602
  184MOL0     H24802   2.827  10.033   8.197 -0.5705 -0.1277 -0.7430
  184MOL0     H24803   2.974  10.132   8.198 -0.4471 -0.1642 -0.1200
  184MOL0     H24804   2.573   9.931   7.595 -0.1676  0.3214 -2.3615
  184MOL0     H24805   2.387  10.034   7.525  1.7600 -0.6861 -1.5579
  184MOL0     H24806   2.142  10.322   7.513 -1.2832 -2.3548 -1.7775
  184MOL0     H24807   2.244  10.182   7.463  2.6926  1.2903 -0.3007
  184MOL0     H24808   2.244  10.148   7.746 -1.7161  0.7490  0.9652
  184MOL0     H24809   2.100  10.245   7.722 -1.8538 -0.5075 -1.7468
  184MOL0     H24810   2.140   9.998   7.574  0.5883 -0.5860  0.9181
  184MOL0     H24811   1.989  10.095   7.586 -0.2332  1.7561  0.3818
  184MOL0     H24812   2.137   9.962   7.814  0.4289  1.0843  0.0809
  184MOL0     H24813   1.979  10.037   7.822  1.0317 -0.8737  2.4383
  184MOL0     H24814   2.046   9.793   7.646 -1.9703 -1.7808 -0.7864
  184MOL0     H24815   1.878   9.848   7.687  0.4190  3.1941 -1.2981
  184MOL0     H24816   2.090   9.686   7.828 -0.3085 -1.1029 -0.4107
  184MOL0     H24817   1.970   9.792   7.919  1.1887  1.4471 -0.7704
  184MOL0     H24818   1.914   9.582   7.701  0.2100  1.4646 -0.3905
  184MOL0     H24819   1.790   9.648   7.805 -0.1175 -0.9898 -1.1841
  184MOL0     H24820   1.985   9.420   7.867 -1.9851 -1.9218  0.7811
  184MOL0     H24821   1.818   9.452   7.921 -0.4431  0.8348  1.0251
  184MOL0     H24822   2.550  10.408   7.704  6.0740 -0.2247  2.8562
  184MOL0     H24823   2.742  10.297   7.757 -0.2949 -2.5814  1.0900
  184MOL0     H24824   2.920   9.821   7.763  0.6928  0.9824 -0.1075
  184MOL0     H24825   3.141   9.699   7.842 -0.3967 -1.0254 -0.9372
  184MOL0     H24826   4.960   9.824   7.579  0.4650 -2.8848 -1.8578
  184MOL0     H24827   5.154   9.987   7.576 -1.9106 -0.0535 -0.0088
  184MOL0     H24828   5.617   9.994   7.504  3.0171  0.1796 -2.6141
  184MOL0     H24829   5.833  10.079   7.473 -2.3977 -2.2711  0.4387
  184MOL0     H24830   5.916  10.370   7.616 -0.7185  0.6957  2.7663
  184MOL0     H24831   6.016  10.369   7.763 -0.8474  1.5773 -0.0597
  184MOL0     H24832   6.128  10.440   7.543  0.9769 -0.5377 -0.8144
  184MOL0     H24833   6.114  10.263   7.512 -1.5088  0.5655 -0.7147
  184MOL0     H24834   6.269  10.231   7.725 -3.6605  1.0050  2.3201
  184MOL0     H24835   6.263  10.404   7.749 -0.1599 -0.4504  0.4733
  184MOL0     H24836   6.343  10.433   7.510  0.1075  0.8861  1.9944
  184MOL0     H24837   6.371  10.250   7.507  1.2708 -0.9170 -0.4233
  184MOL0     H24838   6.696  10.330   7.744  0.6809 -1.0319 -3.5026
  184MOL0     H24839   5.830  10.185   7.905 -0.3682  3.7605 -1.4252
  184MOL0     H24840   5.605  10.118   7.916  0.9646 -0.9229  0.3053
  185MOL0     O24841   4.009   2.279   0.552 -0.3045 -0.3353 -0.3721
  185MOL0     C24842   4.050   2.291   0.434 -0.6672  0.7191  0.0641
  185MOL0     O24843   3.972   2.329   0.328 -0.9137  0.4203  0.1871
  185MOL0     C24844   3.839   2.324   0.333  0.5898  0.4777  0.7352
  185MOL0     C24845   3.777   2.227   0.250  0.3954  0.0516  0.0990
  185MOL0     C24846   3.642   2.217   0.254  0.4148  0.0343  0.2456
  185MOL0     C24847   3.557   2.309   0.333  0.6925  0.1853  0.1838
  185MOL0     O24848   3.422   2.306   0.319  0.3081  0.8156  0.8472
  185MOL0     C24849   3.343   2.416   0.344 -0.2176  0.0738  0.5845
  185MOL0     C24850   3.276   2.361   0.471 -0.2393 -0.6600  0.0790
  185MOL0     C24851   3.184   2.465   0.533  0.0212  0.5467 -0.0397
  185MOL0     C24852   3.103   2.386   0.634 -0.8315 -0.6588 -0.8962
  185MOL0     C24853   3.057   2.481   0.744 -0.8536 -0.1852 -0.1707
  185MOL0     C24854   2.939   2.562   0.696  1.0136 -0.1141  0.0670
  185MOL0     C24855   2.910   2.677   0.799  1.0905  0.0399  0.7482
  185MOL0     C24856   2.831   2.633   0.930  0.4316  0.1732 -0.1389
  185MOL0     N24857   2.811   2.747   1.018 -0.3017  1.0225  1.0300
  185MOL0     C24858   2.703   2.767   1.101  0.1585 -0.0385 -1.0172
  185MOL0     C24859   2.743   2.880   1.168 -0.8619 -0.3087 -0.6515
  185MOL0     C24860   2.677   2.938   1.285  0.5501  0.3220  0.3774
  185MOL0     C24861   2.689   3.092   1.298 -0.5165 -0.0209  0.3359
  185MOL0     C24862   2.644   3.140   1.439 -0.3940 -0.2969 -0.5092
  185MOL0     C24863   2.500   3.100   1.479 -0.4025  1.3177  0.1400
  185MOL0     O24864   2.406   3.147   1.386 -0.1946 -1.2233 -0.2481
  185MOL0     C24865   2.273   3.124   1.407  0.6564  0.5868 -0.1320
  185MOL0     C24866   2.172   3.177   1.324  0.5569  0.8859 -0.2635
  185MOL0     C24867   2.035   3.143   1.337  0.2682 -0.6250 -0.5386
  185MOL0     C24868   1.954   3.202   1.232 -0.0004 -0.4508 -0.0343
  185MOL0     C24869   1.992   3.051   1.430  0.0831 -0.2016 -0.1171
  185MOL0     C24870   1.856   3.013   1.448  0.6146  0.9128 -0.8319
  185MOL0     O24871   1.765   3.087   1.376  0.6812 -0.1810  0.1217
  185MOL0     C24872   1.638   3.088   1.418  1.0041 -0.1848 -0.0707
  185MOL0     C24873   1.555   2.978   1.384  0.6396  1.1688  0.4270
  185MOL0     C24874   1.414   2.979   1.411  0.0969  0.0887  0.1081
  185MOL0     C24875   1.356   3.087   1.464  0.5684  0.0188 -0.2142
  185MOL0     O24876   1.223   3.108   1.497  0.2974  0.5006 -0.7244
  185MOL0     C24877   1.124   3.021   1.436  0.2436 -0.0955 -0.2113
  185MOL0     C24878   0.991   3.086   1.475 -0.4201 -0.1462 -0.0182
  185MOL0     C24879   0.879   3.023   1.387 -1.0787  0.5620  0.2798
  185MOL0     C24880   0.759   3.125   1.393 -0.3396 -0.1276 -0.3008
  185MOL0     C24881   0.630   3.076   1.328 -0.6581 -0.5673 -0.1155
  185MOL0     C24882   0.520   3.176   1.317  0.4438 -0.1612 -0.3354
  185MOL0     C24883   0.402   3.119   1.237 -0.3685 -0.3590 -0.2771
  185MOL0     C24884   0.296   3.026   1.306 -0.5151 -0.5426 -0.0394
  185MOL0    Cl24885   0.167   2.962   1.199  0.2646  0.1182 -0.3752
  185MOL0     C24886   1.435   3.212   1.486 -0.7891  0.0801 -1.2320
  185MOL0     C24887   1.573   3.202   1.464 -0.1034 -0.5386  0.3244
  185MOL0     O24888   1.817   2.926   1.530 -0.4955  0.1513 -0.4526
  185MOL0     C24889   2.083   2.997   1.521  0.4796 -0.0403 -0.5517
  185MOL0     C24890   2.223   3.037   1.509 -0.6476 -0.8147 -0.3143
  185MOL0     N24891   2.866   2.927   1.110  0.2572  0.0827  0.0562
  185MOL0     N24892   2.903   2.846   1.023  0.4734 -0.3539 -0.0872
  185MOL0     C24893   3.619   2.409   0.408  0.5775  0.5512 -0.6949
  185MOL0     C24894   3.764   2.417   0.404  0.6721  0.4405 -0.0357
  185MOL0     C24895   4.192   2.270   0.419 -0.1572  0.0939 -0.3239
  185MOL0     C24896   4.264   2.188   0.510 -0.0205  0.2459  0.2995
  185MOL0     C24897   4.404   2.175   0.494  1.1712  0.1501 -0.3438
  185MOL0     C24898   4.472   2.230   0.388 -0.0592  0.2583  0.8821
  185MOL0     O24899   4.602   2.216   0.352 -0.1577 -0.3610 -0.3415
  185MOL0     C24900   4.693   2.199   0.464 -0.0198 -0.1630 -0.8743
  185MOL0     C24901   4.832   2.182   0.414  0.0192 -0.1051  0.0095
  185MOL0     C24902   4.932   2.133   0.523  0.4516  0.0056 -0.2224
  185MOL0     C24903   4.903   1.986   0.560 -0.2916  0.7790 -0.8294
  185MOL0     C24904   4.916   1.899   0.448  0.1589  0.4610  1.2350
  185MOL0     C24905   4.927   1.811   0.359  0.2890 -0.8021 -0.1681
  185MOL0     C24906   4.398   2.305   0.297  0.5349  0.5257  0.1232
  185MOL0     C24907   4.260   2.321   0.313 -0.0857 -0.4309  0.0667
  185MOL0     H24908   3.828   2.151   0.191 -1.9833 -3.1258  1.8608
  185MOL0     H24909   3.590   2.151   0.186 -0.9449 -1.9432  3.0209
  185MOL0     H24910   3.396   2.509   0.366  2.2213 -1.6504  2.6714
  185MOL0     H24911   3.271   2.422   0.262 -0.5452 -0.6434  0.8193
  185MOL0     H24912   3.210   2.279   0.442 -0.7018 -0.4765  0.6009
  185MOL0     H24913   3.347   2.325   0.545 -1.1373 -0.9188  0.8333
  185MOL0     H24914   3.254   2.533   0.583  4.0350 -4.8605  2.7506
  185MOL0     H24915   3.127   2.513   0.454 -0.2438  1.3358  0.6226
  185MOL0     H24916   3.012   2.344   0.589 -2.4919  0.1371  1.5220
  185MOL0     H24917   3.166   2.307   0.675 -1.4027 -0.8890 -0.4402
  185MOL0     H24918   3.029   2.426   0.835 -1.6709 -0.9517 -0.8715
  185MOL0     H24919   3.136   2.552   0.771 -1.5058  1.1639 -1.6199
  185MOL0     H24920   2.967   2.612   0.602  3.5698  1.1867  1.4201
  185MOL0     H24921   2.854   2.497   0.672  2.9856 -2.1315 -2.0320
  185MOL0     H24922   3.002   2.730   0.826  0.0161  2.2017  0.4060
  185MOL0     H24923   2.835   2.739   0.749  1.7057  0.0894 -0.1432
  185MOL0     H24924   2.889   2.554   0.979  1.5336  0.5976 -0.7345
  185MOL0     H24925   2.733   2.595   0.899  0.4426  0.5249 -0.6157
  185MOL0     H24926   2.608   2.719   1.120 -0.6603  1.9608  0.2988
  185MOL0     H24927   2.573   2.908   1.273  0.7505 -1.6529  2.7115
  185MOL0     H24928   2.716   2.890   1.376  1.1785  0.0721 -0.0149
  185MOL0     H24929   2.628   3.138   1.220 -2.2049  0.0022  1.6058
  185MOL0     H24930   2.789   3.129   1.275 -0.1853 -0.6104  0.7993
  185MOL0     H24931   2.641   3.249   1.446  1.3817 -0.0760 -2.3055
  185MOL0     H24932   2.721   3.111   1.512 -1.8200 -1.2991  0.6478
  185MOL0     H24933   2.483   3.134   1.582  0.5463 -1.8977  1.4808
  185MOL0     H24934   2.499   2.991   1.475  0.4517  1.2980  0.1671
  185MOL0     H24935   2.211   3.238   1.244  0.1240  0.0472 -1.1333
  185MOL0     H24936   1.893   3.128   1.180 -1.8051 -1.1636  2.8533
  185MOL0     H24937   1.884   3.274   1.276  2.8868  3.1171 -0.7886
  185MOL0     H24938   2.003   3.258   1.152 -1.5936 -0.9299 -1.4038
  185MOL0     H24939   1.584   2.884   1.337 -3.9308 -1.0438  1.4755
  185MOL0     H24940   1.366   2.885   1.386  0.5544  0.2717 -1.6006
  185MOL0     H24941   1.133   3.029   1.327 -0.6334  2.2531 -0.1546
  185MOL0     H24942   1.122   2.918   1.474  2.9734 -0.0175  0.3514
  185MOL0     H24943   0.982   3.070   1.583 -1.2991  3.9204  0.6722
  185MOL0     H24944   0.990   3.194   1.457 -2.9502  0.1605  1.4248
  185MOL0     H24945   0.852   2.933   1.444  1.0714  0.2519  0.8849
  185MOL0     H24946   0.906   3.001   1.283  2.6489  1.7606  0.8547
  185MOL0     H24947   0.751   3.154   1.498  1.6985  0.0234 -0.1356
  185MOL0     H24948   0.777   3.220   1.343 -1.5202 -0.3116 -1.1085
  185MOL0     H24949   0.583   2.993   1.382 -3.3294  0.3439 -0.8862
  185MOL0     H24950   0.657   3.029   1.232  0.7536 -1.9713  0.9073
  185MOL0     H24951   0.480   3.198   1.416  1.4893 -1.0055  0.2990
  185MOL0     H24952   0.558   3.268   1.271 -2.5116  1.1710 -0.2985
  185MOL0     H24953   0.445   3.069   1.150  1.1297  0.6253 -0.1333
  185MOL0     H24954   0.337   3.197   1.195 -2.9867 -1.9201  0.6031
  185MOL0     H24955   0.250   3.081   1.388  1.7867  1.3763  0.0564
  185MOL0     H24956   0.347   2.944   1.357 -1.3780  0.5489  2.7462
  185MOL0     H24957   1.377   3.299   1.516  1.3011  1.4395 -0.9777
  185MOL0     H24958   1.638   3.288   1.481  0.6850 -1.2138  0.7874
  185MOL0     H24959   2.060   2.925   1.599  2.1479 -2.2485 -1.9664
  185MOL0     H24960   2.293   2.992   1.579  0.0111  1.8763  0.9051
  185MOL0     H24961   3.566   2.484   0.464 -0.1215 -1.1014  0.9674
  185MOL0     H24962   3.817   2.494   0.459  0.9335 -0.6515  1.2907
  185MOL0     H24963   4.203   2.140   0.586 -3.5151  0.2125 -2.2543
  185MOL0     H24964   4.460   2.109   0.559 -0.3550 -3.1932 -2.1881
  185MOL0     H24965   4.685   2.286   0.531  3.2796 -0.5747  0.1942
  185MOL0     H24966   4.663   2.116   0.529 -4.0489  2.4665  1.0494
  185MOL0     H24967   4.855   2.286   0.392 -0.5698 -0.0954 -0.5990
  185MOL0     H24968   4.847   2.121   0.324 -3.1173 -1.9462  0.5758
  185MOL0     H24969   4.927   2.202   0.608  0.9693 -1.7970  1.3440
  185MOL0     H24970   5.031   2.144   0.479 -0.0860 -0.9056 -1.7106
  185MOL0     H24971   4.808   1.979   0.615 -0.7367 -0.8240 -1.7238
  185MOL0     H24972   4.978   1.947   0.629  0.4754  0.0541 -2.0405
  185MOL0     H24973   4.930   1.745   0.275 -1.8334 -2.7042  1.1288
  185MOL0     H24974   4.441   2.354   0.210 -1.6261  1.0855 -0.7058
  185MOL0     H24975   4.207   2.370   0.232 -0.8893 -1.7556 -0.2586
  186MOL0     O24976   9.715   3.141   2.145  0.1763  0.0992 -0.0856
  186MOL0     C24977   9.675   3.251   2.110 -0.3225 -0.0286 -0.2024
  186MOL0     O24978   9.553   3.301   2.134 -0.5878 -0.2363 -0.3539
  186MOL0     C24979   9.456   3.216   2.195 -0.0641  0.1609  0.6563
  186MOL0     C24980   9.466   3.168   2.324 -0.4158 -0.3826 -1.3395
  186MOL0     C24981   9.385   3.064   2.376 -0.4699  0.0704  0.0622
  186MOL0     C24982   9.292   3.007   2.285  1.1902  0.1540  0.3779
  186MOL0     O24983   9.207   2.921   2.339  0.4914  0.0890  0.6149
  186MOL0     C24984   9.142   2.831   2.242 -0.8625 -0.9678  0.0687
  186MOL0     C24985   9.064   2.726   2.319 -0.0645 -0.7632 -0.4615
  186MOL0     C24986   8.954   2.643   2.257 -0.0740 -0.6208  0.2276
  186MOL0     C24987   8.871   2.575   2.361 -0.8552 -0.1614  0.7096
  186MOL0     C24988   8.752   2.510   2.284 -0.2872 -0.3921  0.0550
  186MOL0     C24989   8.673   2.428   2.381 -0.3014 -0.0290  0.1658
  186MOL0     C24990   8.575   2.336   2.295 -0.0256  0.4605 -0.5571
  186MOL0     C24991   8.468   2.418   2.213 -0.4738 -1.0520  0.2856
  186MOL0     N24992   8.412   2.508   2.315 -0.7236  0.4799 -0.0854
  186MOL0     C24993   8.406   2.645   2.311  0.9637 -1.0785 -0.4113
  186MOL0     C24994   8.316   2.680   2.404 -0.1119  0.2443  0.1388
  186MOL0     C24995   8.257   2.812   2.433  0.2364 -0.3708 -0.8823
  186MOL0     C24996   8.108   2.806   2.434 -0.1005  0.1382 -0.3980
  186MOL0     C24997   8.054   2.936   2.492  0.4748 -1.1262 -1.2925
  186MOL0     C24998   7.904   2.940   2.509  0.1543  0.3114  0.0828
  186MOL0     O24999   7.841   2.906   2.384 -0.4133  0.5164 -0.3889
  186MOL0     C25000   7.711   2.932   2.358 -0.2735  0.0039 -1.1778
  186MOL0     C25001   7.662   2.946   2.228 -0.5962 -0.6730  0.2488
  186MOL0     C25002   7.533   2.981   2.196 -0.9196  0.0947  0.3017
  186MOL0     C25003   7.504   2.974   2.046  0.5639  0.3166 -0.3365
  186MOL0     C25004   7.442   3.013   2.296  0.0265 -0.5876 -0.8193
  186MOL0     C25005   7.307   3.075   2.274 -1.1659  0.0225 -0.2124
  186MOL0     O25006   7.255   3.140   2.381 -0.3881 -0.7329 -0.4609
  186MOL0     C25007   7.128   3.189   2.384  0.1674  0.5416 -0.4289
  186MOL0     C25008   7.081   3.279   2.282 -0.4933  1.2320  0.1147
  186MOL0     C25009   6.951   3.330   2.284 -0.5355 -0.4182 -0.4193
  186MOL0     C25010   6.856   3.289   2.379 -0.3649 -0.6760 -0.8846
  186MOL0     O25011   6.732   3.336   2.360  0.0893 -0.0076  0.0330
  186MOL0     C25012   6.629   3.288   2.440 -0.5143  1.1488  0.0179
  186MOL0     C25013   6.502   3.369   2.420 -0.2905 -0.6168 -0.6364
  186MOL0     C25014   6.375   3.279   2.440 -0.6092 -0.1442 -0.3344
  186MOL0     C25015   6.252   3.371   2.436 -0.8093 -1.0273  0.6104
  186MOL0     C25016   6.126   3.277   2.443  0.3870  0.3957 -0.6426
  186MOL0     C25017   6.002   3.346   2.508 -0.6332 -0.2720  0.5430
  186MOL0     C25018   5.882   3.247   2.534 -0.3506  0.7362 -0.6602
  186MOL0     C25019   5.766   3.297   2.608  0.3794 -0.5195  0.0001
  186MOL0    Cl25020   5.666   3.402   2.494 -0.0705  0.2932 -0.0991
  186MOL0     C25021   6.907   3.209   2.492 -0.0367  0.4651  0.2056
  186MOL0     C25022   7.044   3.161   2.484 -0.3117  0.1701  0.0689
  186MOL0     O25023   7.253   3.064   2.162  0.1732  0.1742 -0.5979
  186MOL0     C25024   7.487   3.003   2.426 -0.1083  0.2637  0.6747
  186MOL0     C25025   7.616   2.959   2.458  0.1643  0.9227 -0.0640
  186MOL0     N25026   8.281   2.575   2.478 -1.2200  0.5124  0.6615
  186MOL0     N25027   8.336   2.464   2.422 -0.0569 -1.1424  0.3869
  186MOL0     C25028   9.293   3.053   2.146  0.1858  0.1980 -1.0582
  186MOL0     C25029   9.369   3.157   2.102  0.7315 -0.3693 -0.0875
  186MOL0     C25030   9.768   3.344   2.035 -0.2816  0.5707 -0.0331
  186MOL0     C25031   9.729   3.463   1.977 -0.1691  0.2421  0.5096
  186MOL0     C25032   9.817   3.534   1.890  1.0378 -0.4713 -0.4272
  186MOL0     C25033   9.946   3.495   1.875  0.0060 -0.5608  0.1475
  186MOL0     O25034  10.030   3.562   1.790 -0.0638  0.0046  0.2225
  186MOL0     C25035  10.157   3.589   1.846  0.9936 -0.3646 -0.5403
  186MOL0     C25036  10.189   3.739   1.834 -0.3074 -0.1218 -0.0355
  186MOL0     C25037  10.333   3.756   1.809  0.1161 -0.0077 -0.5655
  186MOL0     C25038  10.371   3.896   1.762  0.4085 -0.6302  0.2143
  186MOL0     C25039  10.512   3.923   1.751 -0.7680 -0.2333 -0.0858
  186MOL0     C25040  10.633   3.951   1.735 -0.2170  0.0301  0.4833
  186MOL0     C25041   9.987   3.375   1.923  0.4819 -1.4862 -0.5754
  186MOL0     C25042   9.903   3.304   2.005  0.1735  0.4903 -1.1753
  186MOL0     H25043   9.548   3.201   2.387 -0.2823  0.1605 -1.7948
  186MOL0     H25044   9.405   3.034   2.478  2.6556 -1.2694 -0.8007
  186MOL0     H25045   9.077   2.895   2.182 -1.3450  0.4796  2.0444
  186MOL0     H25046   9.218   2.784   2.178  1.5369  3.4717 -0.6966
  186MOL0     H25047   9.133   2.654   2.365 -1.1227 -3.1514 -2.3501
  186MOL0     H25048   9.029   2.791   2.400  1.6973 -1.1331  0.6355
  186MOL0     H25049   8.896   2.714   2.198  0.5884 -0.8098 -0.6678
  186MOL0     H25050   8.995   2.569   2.188  0.5148  0.8267 -1.0157
  186MOL0     H25051   8.930   2.502   2.417  1.4762  0.1898 -1.1035
  186MOL0     H25052   8.819   2.646   2.426 -1.5115 -0.3331  0.3802
  186MOL0     H25053   8.688   2.583   2.234 -1.2869  0.4956  2.4894
  186MOL0     H25054   8.794   2.447   2.205 -0.5976  0.6698 -0.9922
  186MOL0     H25055   8.745   2.369   2.438  0.2658  0.1589 -0.3525
  186MOL0     H25056   8.619   2.489   2.454 -0.9375  1.5054 -1.5364
  186MOL0     H25057   8.631   2.271   2.227  3.2220  3.3309 -0.9612
  186MOL0     H25058   8.513   2.275   2.361 -1.9128  1.5544 -1.2237
  186MOL0     H25059   8.396   2.363   2.153 -0.1171 -3.4002  1.8478
  186MOL0     H25060   8.516   2.483   2.140 -4.0626  0.3076 -1.0578
  186MOL0     H25061   8.444   2.719   2.241  0.8192 -0.6068  0.0023
  186MOL0     H25062   8.287   2.837   2.535  1.9364  0.1568 -1.4797
  186MOL0     H25063   8.298   2.890   2.368  1.3657  0.6428  0.9689
  186MOL0     H25064   8.069   2.720   2.489 -3.2275  0.7334 -1.4827
  186MOL0     H25065   8.089   2.800   2.327  0.7039 -2.1749 -0.4621
  186MOL0     H25066   8.094   3.024   2.441  0.5327  0.0694  0.7082
  186MOL0     H25067   8.092   2.941   2.595  1.9039  0.6097 -1.8506
  186MOL0     H25068   7.873   3.043   2.530  2.0486  0.2353  4.3822
  186MOL0     H25069   7.866   2.881   2.592  3.1110 -0.3107  1.1376
  186MOL0     H25070   7.745   2.926   2.161 -0.8487  1.2401 -0.7152
  186MOL0     H25071   7.598   2.940   2.001  1.3207  0.5338  0.9929
  186MOL0     H25072   7.432   2.894   2.028  0.8057  0.6085 -2.8871
  186MOL0     H25073   7.477   3.074   2.012 -1.8662  0.4191  1.6270
  186MOL0     H25074   7.147   3.316   2.205  1.7359 -0.2672  1.2210
  186MOL0     H25075   6.907   3.386   2.202  0.5663  0.1899 -0.6147
  186MOL0     H25076   6.618   3.182   2.414  3.3101  0.9294 -1.2756
  186MOL0     H25077   6.656   3.279   2.545 -0.0192 -0.2109 -0.2056
  186MOL0     H25078   6.505   3.442   2.501  1.6959 -2.4189  1.0520
  186MOL0     H25079   6.506   3.410   2.318 -0.7970  1.2931  0.0811
  186MOL0     H25080   6.385   3.231   2.537 -1.5007 -1.5554 -0.9085
  186MOL0     H25081   6.368   3.204   2.361 -1.2394  2.2477 -2.7068
  186MOL0     H25082   6.249   3.447   2.515 -0.9570 -0.1051 -0.2689
  186MOL0     H25083   6.260   3.425   2.342  1.0143 -0.3809  1.0865
  186MOL0     H25084   6.153   3.200   2.516  2.5788 -1.2298 -2.9471
  186MOL0     H25085   6.097   3.239   2.345 -0.6132 -1.3315  0.2944
  186MOL0     H25086   6.030   3.383   2.608 -2.9734 -3.6068  2.6264
  186MOL0     H25087   5.965   3.431   2.450 -1.8389 -1.6799 -0.8135
  186MOL0     H25088   5.927   3.159   2.582 -0.8450  2.1698  2.7296
  186MOL0     H25089   5.838   3.211   2.441 -3.3185 -1.5844  1.4247
  186MOL0     H25090   5.795   3.349   2.700 -0.3837 -0.8637  0.4419
  186MOL0     H25091   5.700   3.217   2.643  0.4639 -1.1850 -1.3214
  186MOL0     H25092   6.847   3.195   2.582  1.2078 -1.3889  0.8176
  186MOL0     H25093   7.071   3.096   2.566 -0.1740  0.2551  0.0912
  186MOL0     H25094   7.424   3.041   2.507 -2.0962  2.0913 -1.5769
  186MOL0     H25095   7.639   2.952   2.563 -1.1911  0.6570  0.2430
  186MOL0     H25096   9.218   3.012   2.078 -2.2858  0.8007  1.1331
  186MOL0     H25097   9.366   3.189   1.999 -0.9541 -0.2502 -0.0321
  186MOL0     H25098   9.629   3.504   1.974 -0.1100  0.3779 -1.8613
  186MOL0     H25099   9.787   3.633   1.857 -0.5167 -0.0037  2.0820
  186MOL0     H25100  10.151   3.561   1.952 -1.1589 -0.9987 -0.7883
  186MOL0     H25101  10.236   3.533   1.795  1.8374  0.3484 -0.0498
  186MOL0     H25102  10.170   3.795   1.926  0.4764  2.9706 -1.6436
  186MOL0     H25103  10.119   3.778   1.760 -0.2215 -1.2115 -0.7149
  186MOL0     H25104  10.374   3.688   1.734 -3.1626 -2.6680 -0.1741
  186MOL0     H25105  10.392   3.748   1.901  0.3477  2.8586 -0.3624
  186MOL0     H25106  10.320   3.961   1.835  0.9060 -0.2716  0.2489
  186MOL0     H25107  10.330   3.926   1.665 -0.4697 -2.7217 -0.1228
  186MOL0     H25108  10.737   3.977   1.735  0.1248 -1.1286 -1.6478
  186MOL0     H25109  10.084   3.346   1.884  2.0486  3.4913 -1.0321
  186MOL0     H25110   9.954   3.218   2.049 -0.7682  0.8864  0.8204
  187MOL0     O25111   0.534   4.614   8.078 -0.0922  0.4371  0.2547
  187MOL0     C25112   0.564   4.580   7.961  0.0335 -0.3266 -0.3585
  187MOL0     O25113   0.473   4.554   7.866  0.1156 -0.5167  0.3238
  187MOL0     C25114   0.348   4.532   7.901  0.4418 -0.1285 -0.2544
  187MOL0     C25115   0.239   4.622   7.879  0.2017  0.3032 -0.5367
  187MOL0     C25116   0.113   4.574   7.923 -0.5480  0.8007  0.8072
  187MOL0     C25117   0.093   4.450   7.982  0.6398  0.7731 -0.2910
  187MOL0     O25118  -0.036   4.419   8.003 -0.0420  0.0746 -0.2142
  187MOL0     C25119  -0.072   4.285   8.044 -0.0735  0.9240  0.4131
  187MOL0     C25120  -0.229   4.281   8.031  0.3900 -0.1934 -0.0892
  187MOL0     C25121  -0.265   4.274   7.883  0.7873 -0.2459 -0.0886
  187MOL0     C25122  -0.409   4.231   7.854 -0.9878 -0.2478  0.1753
  187MOL0     C25123  -0.487   4.354   7.810  0.4667 -0.1499  0.7708
  187MOL0     C25124  -0.605   4.312   7.729  0.7355 -0.4653  0.4604
  187MOL0     C25125  -0.713   4.415   7.723  0.6221 -0.6410  0.1014
  187MOL0     C25126  -0.853   4.372   7.681 -0.7546  0.3223 -0.0699
  187MOL0     N25127  -0.854   4.315   7.543  0.5139 -0.0260 -0.6527
  187MOL0     C25128  -0.845   4.181   7.523 -0.3161 -0.3408  0.1999
  187MOL0     C25129  -0.893   4.162   7.403  0.0984  0.7552  0.8605
  187MOL0     C25130  -0.913   4.031   7.339 -0.2773  0.4022 -0.6357
  187MOL0     C25131  -1.035   3.968   7.408  0.1501  0.9912 -0.2613
  187MOL0     C25132  -1.038   3.811   7.383 -0.6151  0.3400 -0.0946
  187MOL0     C25133  -1.137   3.737   7.473  0.2444  0.4952  0.6568
  187MOL0     O25134  -1.140   3.776   7.612 -0.2224  0.3413 -0.6251
  187MOL0     C25135  -1.212   3.711   7.711 -0.9260 -0.5892 -0.0005
  187MOL0     C25136  -1.297   3.602   7.688  0.1333 -0.0453  0.2824
  187MOL0     C25137  -1.366   3.537   7.785  0.3977 -0.4864 -0.7996
  187MOL0     C25138  -1.464   3.424   7.738  0.2879 -0.1583  0.2033
  187MOL0     C25139  -1.352   3.585   7.925  0.0616 -0.5634  0.4903
  187MOL0     C25140  -1.410   3.515   8.040 -0.5818 -0.0494  0.2535
  187MOL0     O25141  -1.406   3.581   8.163 -0.0006  0.0941 -0.8741
  187MOL0     C25142  -1.420   3.508   8.279  0.3084 -1.0657 -0.7270
  187MOL0     C25143  -1.531   3.518   8.360  0.5750 -0.4302  0.0702
  187MOL0     C25144  -1.544   3.452   8.479 -0.0660 -0.4909  0.4767
  187MOL0     C25145  -1.437   3.376   8.526 -0.3330  0.3490  0.4089
  187MOL0     O25146  -1.453   3.294   8.638 -0.0875 -0.2325  0.2848
  187MOL0     C25147  -1.348   3.232   8.716 -0.1714 -0.5595  0.4147
  187MOL0     C25148  -1.313   3.083   8.686  0.2898  0.6431 -0.0581
  187MOL0     C25149  -1.432   2.982   8.712  0.1969 -1.0179  0.2271
  187MOL0     C25150  -1.531   3.019   8.824  0.7609  0.0631  0.4991
  187MOL0     C25151  -1.470   3.004   8.963  0.6159  0.6649  0.5944
  187MOL0     C25152  -1.584   3.004   9.066 -0.2209 -0.4398  0.4006
  187MOL0     C25153  -1.527   3.038   9.207  0.0128  0.1253  0.3948
  187MOL0     C25154  -1.634   3.016   9.319 -0.7468  1.3625 -0.2258
  187MOL0    Cl25155  -1.769   3.130   9.302 -0.0645  0.1120 -0.3576
  187MOL0     C25156  -1.325   3.365   8.449 -0.6140  0.5496 -0.9182
  187MOL0     C25157  -1.316   3.429   8.325  0.3746  0.2241 -0.3626
  187MOL0     O25158  -1.435   3.397   8.028 -0.0130 -0.0099 -0.0203
  187MOL0     C25159  -1.269   3.694   7.950  0.6392  0.2800 -0.3691
  187MOL0     C25160  -1.200   3.757   7.845 -0.3644  0.0665 -0.4673
  187MOL0     N25161  -0.937   4.280   7.353 -0.2339  0.0067  0.0048
  187MOL0     N25162  -0.924   4.370   7.440 -0.4224  0.4566  0.1477
  187MOL0     C25163   0.204   4.373   8.022 -0.0521 -0.0667  0.0363
  187MOL0     C25164   0.332   4.419   7.984  0.2172  0.6525 -0.3944
  187MOL0     C25165   0.705   4.572   7.924 -0.2134 -0.6538 -0.2613
  187MOL0     C25166   0.740   4.516   7.796  0.0487  0.4800  0.4422
  187MOL0     C25167   0.872   4.502   7.758  0.1199 -0.0494  0.1744
  187MOL0     C25168   0.972   4.543   7.844  0.2482  0.1607  0.2830
  187MOL0     O25169   1.105   4.536   7.809  0.0468 -0.6318  1.1550
  187MOL0     C25170   1.164   4.409   7.823 -0.1264  0.5233  0.9049
  187MOL0     C25171   1.314   4.405   7.812  0.2651 -0.4406 -1.1186
  187MOL0     C25172   1.371   4.498   7.922  0.2664 -0.2920 -0.1405
  187MOL0     C25173   1.516   4.526   7.911 -0.9593 -0.0984  0.2404
  187MOL0     C25174   1.555   4.627   7.805  0.0758  0.2713 -0.2152
  187MOL0     C25175   1.592   4.728   7.746 -0.0248  0.1399  0.3560
  187MOL0     C25176   0.934   4.600   7.965  0.1629  0.5037  0.0499
  187MOL0     C25177   0.807   4.614   8.006  0.0010 -0.4949 -0.9349
  187MOL0     H25178   0.246   4.722   7.839  0.9922 -0.1007 -1.4559
  187MOL0     H25179   0.017   4.626   7.915 -1.5662 -0.4670  3.4709
  187MOL0     H25180  -0.024   4.211   7.980  2.3373  0.1041  2.9908
  187MOL0     H25181  -0.048   4.259   8.148  0.9777 -3.1547 -0.6972
  187MOL0     H25182  -0.272   4.194   8.082 -0.0732 -0.8996 -1.6093
  187MOL0     H25183  -0.263   4.377   8.071  4.1647  1.2428  0.1436
  187MOL0     H25184  -0.243   4.374   7.844  1.2151 -0.2009  0.2586
  187MOL0     H25185  -0.192   4.209   7.835  1.7513  1.9478 -1.7735
  187MOL0     H25186  -0.402   4.166   7.767 -0.4349  1.8999 -1.4977
  187MOL0     H25187  -0.457   4.177   7.935  1.8159 -0.0976  2.0967
  187MOL0     H25188  -0.522   4.408   7.899 -0.6800  1.8672 -0.8039
  187MOL0     H25189  -0.428   4.421   7.746  1.5522 -1.1531  0.6845
  187MOL0     H25190  -0.583   4.284   7.626  0.2572 -0.3077  0.3113
  187MOL0     H25191  -0.645   4.224   7.780 -1.4461 -0.7879 -1.6011
  187MOL0     H25192  -0.726   4.472   7.815  1.8933  0.6340 -0.4733
  187MOL0     H25193  -0.677   4.485   7.647  0.8231  0.1542  0.9167
  187MOL0     H25194  -0.917   4.461   7.675  1.5138  1.9769 -0.9372
  187MOL0     H25195  -0.902   4.307   7.754 -0.8755  0.7350  0.2202
  187MOL0     H25196  -0.804   4.113   7.598  2.5526 -0.2255 -1.1529
  187MOL0     H25197  -0.938   4.036   7.233 -0.9300  0.9067 -0.4602
  187MOL0     H25198  -0.824   3.970   7.355 -2.1346 -2.2354  0.3898
  187MOL0     H25199  -1.131   4.008   7.372  0.3240 -0.1814 -2.1747
  187MOL0     H25200  -1.037   3.994   7.514  0.1935  1.1853 -0.3080
  187MOL0     H25201  -0.935   3.778   7.404 -0.0666 -0.0798 -3.0099
  187MOL0     H25202  -1.054   3.797   7.276 -0.2274  0.5478 -0.1804
  187MOL0     H25203  -1.129   3.628   7.463  0.0029  0.5647 -0.3647
  187MOL0     H25204  -1.236   3.765   7.436 -0.8305 -2.5691  0.9204
  187MOL0     H25205  -1.307   3.565   7.587  0.5455 -2.1192  0.9663
  187MOL0     H25206  -1.559   3.421   7.792 -0.3964  0.0736 -0.9521
  187MOL0     H25207  -1.487   3.435   7.632  0.5764  0.9803  0.2397
  187MOL0     H25208  -1.404   3.333   7.749 -1.7613 -1.3715  2.2539
  187MOL0     H25209  -1.620   3.575   8.338  1.6350  1.3495  0.2141
  187MOL0     H25210  -1.626   3.464   8.549  0.8301 -0.7221  1.6015
  187MOL0     H25211  -1.253   3.283   8.698  0.4867 -2.6412 -2.9430
  187MOL0     H25212  -1.380   3.235   8.820 -2.0031 -3.2926  0.0559
  187MOL0     H25213  -1.282   3.070   8.582 -0.2593 -1.7517  0.0352
  187MOL0     H25214  -1.230   3.053   8.750 -1.3380 -2.2200  0.8830
  187MOL0     H25215  -1.387   2.883   8.727 -0.8942 -1.4374  0.7918
  187MOL0     H25216  -1.494   2.965   8.624 -1.7880  1.3452  1.0711
  187MOL0     H25217  -1.575   3.118   8.814 -2.8975 -1.4228  0.2831
  187MOL0     H25218  -1.614   2.954   8.796  1.5382  0.4237 -3.1200
  187MOL0     H25219  -1.409   3.090   8.990  0.1275  1.3533 -0.3871
  187MOL0     H25220  -1.411   2.913   8.974 -1.8395 -0.7814  2.9463
  187MOL0     H25221  -1.655   3.084   9.044  1.9294  2.1405  2.1435
  187MOL0     H25222  -1.643   2.912   9.054 -1.5797  0.4683 -0.0392
  187MOL0     H25223  -1.482   3.138   9.211  0.6802 -0.1749  0.7084
  187MOL0     H25224  -1.446   2.965   9.216 -0.9847 -1.1001 -0.2832
  187MOL0     H25225  -1.593   3.026   9.420  0.2175  0.1826 -0.4778
  187MOL0     H25226  -1.668   2.913   9.317 -0.7977  1.3827 -1.6893
  187MOL0     H25227  -1.238   3.306   8.477 -0.2647  1.4884  0.0544
  187MOL0     H25228  -1.232   3.408   8.260  0.3973 -1.6338  0.2183
  187MOL0     H25229  -1.261   3.726   8.054  0.3699 -0.1484 -0.2159
  187MOL0     H25230  -1.138   3.844   7.861 -0.5702  0.3023 -0.9142
  187MOL0     H25231   0.193   4.281   8.078 -2.4057  0.5788  0.7832
  187MOL0     H25232   0.404   4.348   8.023 -0.6486 -0.5365 -0.8919
  187MOL0     H25233   0.666   4.482   7.725 -0.7764  2.5317  0.2554
  187MOL0     H25234   0.898   4.462   7.660  0.0304  0.0083  0.1267
  187MOL0     H25235   1.141   4.377   7.925  0.2037 -2.1505  0.2040
  187MOL0     H25236   1.116   4.341   7.752  0.3423  0.0047  1.0801
  187MOL0     H25237   1.352   4.447   7.719  2.6943  2.6287  1.0366
  187MOL0     H25238   1.349   4.303   7.832  0.6197 -0.3947 -1.5202
  187MOL0     H25239   1.346   4.449   8.017 -2.5415  1.3514  0.0798
  187MOL0     H25240   1.311   4.589   7.931 -0.1935 -0.6446  0.4958
  187MOL0     H25241   1.568   4.434   7.880  0.1696  0.4822  0.3793
  187MOL0     H25242   1.539   4.565   8.010  0.1128 -2.1342  0.8718
  187MOL0     H25243   1.611   4.821   7.697 -0.1108  0.2911  0.6092
  187MOL0     H25244   1.014   4.637   8.028  0.7001  0.5539 -0.6471
  187MOL0     H25245   0.787   4.669   8.098  0.5037  1.0456 -1.7037
  188MOL0     O25246  10.059   9.478   2.042  0.0760 -0.6537 -0.5100
  188MOL0     C25247  10.100   9.416   2.143  0.0457 -0.0814 -0.3138
  188MOL0     O25248  10.030   9.310   2.204 -0.0355  0.1606  0.0330
  188MOL0     C25249   9.902   9.283   2.160  0.5971 -0.4414 -0.1183
  188MOL0     C25250   9.871   9.225   2.034  0.1001 -0.1698 -0.2904
  188MOL0     C25251   9.731   9.215   1.994 -0.2026  0.0787  0.2407
  188MOL0     C25252   9.630   9.268   2.069 -0.3398  0.2742  0.3189
  188MOL0     O25253   9.499   9.249   2.036  0.4558 -0.5546  0.5325
  188MOL0     C25254   9.448   9.275   1.902 -0.9541  1.0875  0.0837
  188MOL0     C25255   9.292   9.280   1.897 -0.5377  0.8633  0.3115
  188MOL0     C25256   9.248   9.285   1.748  0.8669  0.2417 -1.0013
  188MOL0     C25257   9.112   9.348   1.754 -0.5371  0.5378 -1.1682
  188MOL0     C25258   8.993   9.254   1.799 -0.3696 -0.2604  0.2252
  188MOL0     C25259   8.855   9.325   1.801 -0.2661 -0.3319  0.5165
  188MOL0     C25260   8.738   9.234   1.811 -0.4205  1.5031 -0.9849
  188MOL0     C25261   8.611   9.312   1.791 -0.3176  0.1891  0.1094
  188MOL0     N25262   8.493   9.235   1.808 -0.1436 -0.6756 -0.7775
  188MOL0     C25263   8.411   9.243   1.920  1.1304  0.2954  0.2411
  188MOL0     C25264   8.287   9.212   1.866  0.6810 -0.3732  0.0029
  188MOL0     C25265   8.160   9.197   1.941  0.1049 -0.1936 -1.4910
  188MOL0     C25266   8.048   9.131   1.868 -0.7753  0.2630  0.6909
  188MOL0     C25267   7.929   9.073   1.948 -0.7179 -0.6680  0.3686
  188MOL0     C25268   7.846   9.181   2.024  0.6596  0.7481 -0.6828
  188MOL0     O25269   7.747   9.108   2.093 -0.1868 -0.4029 -0.0515
  188MOL0     C25270   7.616   9.142   2.059  0.9840 -0.6262 -0.7684
  188MOL0     C25271   7.553   9.269   2.093  0.8085  0.5296  0.0291
  188MOL0     C25272   7.423   9.299   2.053 -0.7837 -0.0822 -0.1422
  188MOL0     C25273   7.363   9.432   2.099  0.4252 -0.0161 -0.6547
  188MOL0     C25274   7.347   9.199   1.977  0.1862 -1.0656 -0.3451
  188MOL0     C25275   7.210   9.236   1.919 -0.1499 -0.2010  0.0889
  188MOL0     O25276   7.126   9.135   1.880 -0.8027  0.0213  0.4496
  188MOL0     C25277   7.053   9.144   1.763  0.3679 -0.2629  0.0913
  188MOL0     C25278   6.925   9.081   1.757 -0.9441 -0.8716 -0.5359
  188MOL0     C25279   6.843   9.102   1.648  0.0527  0.1364  0.2214
  188MOL0     C25280   6.886   9.175   1.535 -0.1920  0.1647 -0.5064
  188MOL0     O25281   6.806   9.209   1.427 -0.3684  0.3836 -0.7309
  188MOL0     C25282   6.843   9.162   1.293  0.9963  0.2197 -0.3696
  188MOL0     C25283   6.723   9.192   1.196  0.0945 -0.7563 -1.3673
  188MOL0     C25284   6.611   9.083   1.220  0.3056  0.0268  0.0106
  188MOL0     C25285   6.518   9.097   1.098 -0.5664  0.8049 -0.6448
  188MOL0     C25286   6.383   9.037   1.141  0.4648 -0.1276  1.1804
  188MOL0     C25287   6.272   9.077   1.051 -0.4666  0.1410  0.2281
  188MOL0     C25288   6.294   8.994   0.924  0.8107  0.2345  0.6700
  188MOL0     C25289   6.297   9.080   0.790 -0.1541 -0.6381 -0.5617
  188MOL0    Cl25290   6.371   9.245   0.808 -0.0648  0.3936  0.8373
  188MOL0     C25291   7.014   9.234   1.540 -0.3545 -0.1682 -1.0555
  188MOL0     C25292   7.095   9.215   1.650  0.0566  0.2607 -0.0641
  188MOL0     O25293   7.194   9.353   1.891  0.1503 -0.3746 -0.7014
  188MOL0     C25294   7.405   9.074   1.949 -0.0245 -0.0853  0.4221
  188MOL0     C25295   7.537   9.049   1.989 -0.2032  0.7186 -0.7717
  188MOL0     N25296   8.295   9.188   1.735 -0.5699 -0.2705 -0.0590
  188MOL0     N25297   8.418   9.188   1.705 -1.1739  0.1315 -0.5189
  188MOL0     C25298   9.665   9.345   2.171  0.4482  0.0635 -0.3936
  188MOL0     C25299   9.795   9.353   2.219  0.2567 -1.4300  0.0540
  188MOL0     C25300  10.244   9.448   2.178 -0.5926 -0.6037 -0.5063
  188MOL0     C25301  10.312   9.368   2.282 -0.1646 -0.2131  0.2024
  188MOL0     C25302  10.445   9.387   2.307  0.2616 -0.3226  0.2961
  188MOL0     C25303  10.517   9.493   2.244  0.0306 -0.1906  0.0187
  188MOL0     O25304  10.651   9.527   2.259 -0.0418 -0.4354 -0.5465
  188MOL0     C25305  10.730   9.434   2.326  0.8605  0.6187 -0.5761
  188MOL0     C25306  10.882   9.449   2.296 -0.0232  0.6128 -0.6195
  188MOL0     C25307  10.971   9.513   2.407 -0.6515  0.4526 -0.0342
  188MOL0     C25308  11.125   9.519   2.367  0.6333 -0.4205  0.8463
  188MOL0     C25309  11.196   9.393   2.394 -0.2849  0.0865  0.2812
  188MOL0     C25310  11.259   9.292   2.422  0.1533 -0.2366  0.1924
  188MOL0     C25311  10.448   9.578   2.160  0.5760  0.0665  0.2852
  188MOL0     C25312  10.315   9.555   2.117 -0.7092 -1.1918  0.3349
  188MOL0     H25313   9.944   9.177   1.970 -1.6066  1.1194 -3.4557
  188MOL0     H25314   9.714   9.157   1.904 -1.9547 -1.0784  1.2473
  188MOL0     H25315   9.495   9.366   1.865  1.9241 -1.2496 -2.4608
  188MOL0     H25316   9.478   9.186   1.847 -0.6199  1.3202 -0.1088
  188MOL0     H25317   9.257   9.186   1.942  0.2652  0.3236 -0.1810
  188MOL0     H25318   9.256   9.359   1.963  1.6359  1.4327  0.8978
  188MOL0     H25319   9.320   9.348   1.695  2.3048  0.3778  0.9854
  188MOL0     H25320   9.253   9.187   1.699 -1.2008  0.2338 -1.2728
  188MOL0     H25321   9.122   9.429   1.827  1.0552 -2.4150  2.2044
  188MOL0     H25322   9.095   9.383   1.652 -0.1053  1.0432 -1.0741
  188MOL0     H25323   8.987   9.165   1.736 -0.8880  0.7963 -1.2800
  188MOL0     H25324   9.005   9.213   1.900 -0.1962 -0.8568 -0.0327
  188MOL0     H25325   8.848   9.389   1.889  1.4359 -0.7639  1.0008
  188MOL0     H25326   8.858   9.390   1.712  1.2076 -0.3647  0.5100
  188MOL0     H25327   8.760   9.164   1.730  0.6426 -0.2937  0.7506
  188MOL0     H25328   8.729   9.176   1.903 -0.4756  1.3118 -1.1114
  188MOL0     H25329   8.620   9.347   1.688  2.1150  0.0954  0.2263
  188MOL0     H25330   8.609   9.400   1.855 -2.5193  1.1450 -1.1779
  188MOL0     H25331   8.429   9.271   2.023 -0.1065 -2.5308  1.3250
  188MOL0     H25332   8.172   9.129   2.026 -0.7482 -2.9885 -3.4803
  188MOL0     H25333   8.132   9.296   1.978 -2.1053 -1.2489 -0.1141
  188MOL0     H25334   8.092   9.045   1.817 -0.8794  1.3277 -1.3234
  188MOL0     H25335   8.009   9.201   1.794  2.7226 -0.1560 -1.7844
  188MOL0     H25336   7.970   8.999   2.017  1.4164  1.9469  2.1064
  188MOL0     H25337   7.867   9.023   1.873  0.4175  3.6399 -3.9704
  188MOL0     H25338   7.817   9.259   1.953  1.9728  0.3806 -1.6834
  188MOL0     H25339   7.905   9.236   2.097  1.7136  1.4328 -1.9940
  188MOL0     H25340   7.611   9.340   2.151  3.7303 -0.1502 -1.8994
  188MOL0     H25341   7.371   9.496   2.010  0.0088  0.8114 -0.1107
  188MOL0     H25342   7.257   9.423   2.125 -0.1801  2.3967 -2.0384
  188MOL0     H25343   7.415   9.482   2.181 -0.3412  0.0429 -0.1998
  188MOL0     H25344   6.892   9.036   1.850 -0.9900 -2.1454 -1.1451
  188MOL0     H25345   6.742   9.063   1.654 -1.7189  3.3682 -3.8040
  188MOL0     H25346   6.932   9.214   1.256  0.9672  0.3863 -0.2113
  188MOL0     H25347   6.864   9.055   1.296 -2.6538 -0.6075 -0.0032
  188MOL0     H25348   6.689   9.295   1.206  0.5650 -0.8000  1.2705
  188MOL0     H25349   6.760   9.172   1.095  1.8623 -1.7177 -0.5837
  188MOL0     H25350   6.564   9.099   1.318 -1.3243  1.8883 -0.9935
  188MOL0     H25351   6.651   8.981   1.218 -2.8919 -1.3431 -1.7833
  188MOL0     H25352   6.502   9.201   1.070 -2.3935 -0.1042 -3.4033
  188MOL0     H25353   6.572   9.044   1.019 -0.3790 -0.3072  0.2013
  188MOL0     H25354   6.352   9.082   1.236 -2.9623  0.7272 -0.1748
  188MOL0     H25355   6.399   8.929   1.144 -0.0347 -0.3956 -2.2947
  188MOL0     H25356   6.182   9.037   1.100 -1.0166 -3.3082 -3.0908
  188MOL0     H25357   6.241   9.182   1.047  0.7429  0.5551  1.2711
  188MOL0     H25358   6.209   8.925   0.919  2.2922 -1.7114  1.3438
  188MOL0     H25359   6.389   8.940   0.929  0.6093 -0.0887  1.0913
  188MOL0     H25360   6.198   9.100   0.747  1.0839  2.9871 -2.1469
  188MOL0     H25361   6.346   9.019   0.713  1.6513  2.3837 -1.9788
  188MOL0     H25362   7.045   9.297   1.457 -0.7583  1.0596 -0.2932
  188MOL0     H25363   7.189   9.268   1.660 -0.3881  1.2283 -0.8374
  188MOL0     H25364   7.349   9.000   1.893 -1.1993 -0.0308  1.4835
  188MOL0     H25365   7.587   8.956   1.964  1.1853  1.5639 -1.2513
  188MOL0     H25366   9.579   9.393   2.217  0.4688  0.2188 -0.5194
  188MOL0     H25367   9.802   9.414   2.309 -1.7746  3.2740 -2.6173
  188MOL0     H25368  10.252   9.289   2.326 -2.9021  1.8367  0.4832
  188MOL0     H25369  10.502   9.330   2.379  2.5010  1.5706  0.1538
  188MOL0     H25370  10.704   9.426   2.432 -0.1806 -1.4996 -0.9473
  188MOL0     H25371  10.709   9.332   2.292 -1.0829  1.3407 -1.7149
  188MOL0     H25372  10.883   9.505   2.202  0.0544 -1.6695 -2.0523
  188MOL0     H25373  10.919   9.351   2.265 -1.8493 -0.4604  0.4349
  188MOL0     H25374  10.985   9.455   2.498 -1.7461 -1.5864 -1.1088
  188MOL0     H25375  10.953   9.616   2.440  2.8205  0.0001  4.2113
  188MOL0     H25376  11.180   9.599   2.419 -0.8381  0.2426  1.4204
  188MOL0     H25377  11.136   9.556   2.265  0.7503  0.4233  1.1588
  188MOL0     H25378  11.324   9.213   2.455 -0.2757 -0.5151  0.3750
  188MOL0     H25379  10.500   9.664   2.120 -0.1330 -0.5614 -2.1958
  188MOL0     H25380  10.273   9.629   2.051 -0.0648 -1.7290 -0.7002
  189MOL0     O25381   3.606   1.409  10.431 -0.7001  0.0647  0.3172
  189MOL0     C25382   3.715   1.413  10.491  0.4640  0.1550 -0.0909
  189MOL0     O25383   3.766   1.308  10.563 -0.2246  0.1897  0.5545
  189MOL0     C25384   3.698   1.190  10.560  0.4436  1.0974 -0.3057
  189MOL0     C25385   3.696   1.102  10.448 -0.9532 -0.4516 -0.0618
  189MOL0     C25386   3.644   0.974  10.463 -0.4080  0.3593 -0.8705
  189MOL0     C25387   3.567   0.936  10.574 -0.0375  0.3771 -0.1305
  189MOL0     O25388   3.502   0.819  10.588 -0.2441 -0.3345 -0.0244
  189MOL0     C25389   3.489   0.721  10.478  0.8746  0.3601 -0.0165
  189MOL0     C25390   3.396   0.624  10.528  0.3623  0.3341 -0.1018
  189MOL0     C25391   3.246   0.680  10.519 -0.2171 -0.4071 -0.5214
  189MOL0     C25392   3.140   0.571  10.545  0.3715 -1.0364  0.8324
  189MOL0     C25393   3.106   0.542  10.687  0.8606  2.0769  0.2843
  189MOL0     C25394   2.993   0.635  10.739  0.1508  0.7582 -0.3511
  189MOL0     C25395   2.958   0.608  10.880 -0.6042  0.2094  0.1832
  189MOL0     C25396   2.888   0.725  10.953  0.1252 -0.9718  0.3433
  189MOL0     N25397   2.752   0.733  10.909  0.0233  0.6936  0.8171
  189MOL0     C25398   2.658   0.642  10.931 -0.6584  0.0156 -0.1661
  189MOL0     C25399   2.551   0.670  10.854 -0.6801  0.6112 -0.5116
  189MOL0     C25400   2.430   0.584  10.852 -0.3117  0.3409  0.2786
  189MOL0     C25401   2.306   0.669  10.835  0.7922  0.2930 -0.4477
  189MOL0     C25402   2.188   0.578  10.817  0.2367  0.7543  0.7225
  189MOL0     C25403   2.063   0.664  10.809  0.5751  1.1057  0.1021
  189MOL0     O25404   1.945   0.583  10.831  0.0890 -0.5930  0.1206
  189MOL0     C25405   1.821   0.627  10.794 -0.3811 -0.6008  1.2187
  189MOL0     C25406   1.796   0.759  10.769  0.7314 -0.2429  0.3775
  189MOL0     C25407   1.667   0.810  10.743  0.8458 -0.4621 -0.4983
  189MOL0     C25408   1.653   0.954  10.706 -0.0066  0.4465 -0.5656
  189MOL0     C25409   1.561   0.713  10.727 -0.2298 -0.7367  0.3913
  189MOL0     C25410   1.421   0.746  10.679  0.8518 -0.2970 -0.2026
  189MOL0     O25411   1.394   0.875  10.619  0.3974 -0.3779  0.0587
  189MOL0     C25412   1.266   0.933  10.623  0.2873  0.5888 -0.4767
  189MOL0     C25413   1.260   1.061  10.583  0.2445 -0.4970 -0.1979
  189MOL0     C25414   1.141   1.144  10.593 -0.2916  0.5129  0.4096
  189MOL0     C25415   1.024   1.091  10.650 -0.6323 -0.0327 -0.9445
  189MOL0     O25416   0.922   1.183  10.678  0.4410  0.1175 -1.2169
  189MOL0     C25417   0.828   1.152  10.781  0.2967  1.2356  0.2014
  189MOL0     C25418   0.785   1.288  10.831  0.1962  0.3317  0.4297
  189MOL0     C25419   0.671   1.265  10.936 -0.4079 -0.0791 -0.2306
  189MOL0     C25420   0.620   1.395  11.003  0.3258  0.3689 -0.4595
  189MOL0     C25421   0.540   1.373  11.132  0.3002  0.6383 -0.5075
  189MOL0     C25422   0.430   1.258  11.132  0.2558  0.1762  0.2086
  189MOL0     C25423   0.362   1.244  11.267 -1.2394 -0.2792 -0.4267
  189MOL0     C25424   0.271   1.134  11.286  0.4953  0.2096 -0.0158
  189MOL0    Cl25425   0.157   1.107  11.146 -0.2082  0.0764  0.5914
  189MOL0     C25426   1.032   0.954  10.692 -1.0149 -0.2452  0.7818
  189MOL0     C25427   1.147   0.874  10.668  1.0453  0.0588  0.7855
  189MOL0     O25428   1.341   0.654  10.681  0.3312  0.1964 -0.2861
  189MOL0     C25429   1.593   0.576  10.755 -0.1901  0.0193 -0.1907
  189MOL0     C25430   1.721   0.533  10.787 -0.3220 -0.9736 -0.0713
  189MOL0     N25431   2.584   0.787  10.784  0.2413  0.4410 -0.3248
  189MOL0     N25432   2.702   0.820  10.819 -0.3040 -0.5431 -0.3310
  189MOL0     C25433   3.567   1.025  10.683 -0.5469 -0.1903 -0.3976
  189MOL0     C25434   3.637   1.148  10.680 -0.9222  0.5495  0.2545
  189MOL0     C25435   3.805   1.527  10.482  0.2861  0.2469 -0.5535
  189MOL0     C25436   3.750   1.647  10.435  1.2625  0.1308  0.1611
  189MOL0     C25437   3.825   1.762  10.433 -0.0189 -0.2061  0.4318
  189MOL0     C25438   3.965   1.760  10.464  0.9113  1.2313  0.4940
  189MOL0     O25439   4.032   1.882  10.448  0.7091  0.1690 -0.0364
  189MOL0     C25440   4.161   1.906  10.509  0.1853 -0.5886 -0.0600
  189MOL0     C25441   4.275   1.871  10.414 -0.4103  0.4676 -0.4606
  189MOL0     C25442   4.410   1.889  10.483 -0.2996  0.1528  0.3120
  189MOL0     C25443   4.467   1.749  10.535  0.4307  0.8411 -0.6075
  189MOL0     C25444   4.386   1.684  10.642  0.4832  0.1744  0.0197
  189MOL0     C25445   4.314   1.644  10.738 -0.3796  0.4714  0.4405
  189MOL0     C25446   4.022   1.639  10.503 -0.0009 -0.1337 -0.4124
  189MOL0     C25447   3.941   1.517  10.512  0.4926 -0.9627  0.3100
  189MOL0     H25448   3.747   1.137  10.359  0.9387  0.8917  1.4719
  189MOL0     H25449   3.655   0.904  10.380 -2.0896  0.4222 -1.1744
  189MOL0     H25450   3.446   0.766  10.388 -0.6184 -0.7122  0.1183
  189MOL0     H25451   3.580   0.664  10.455  1.9517  2.4357 -1.1740
  189MOL0     H25452   3.416   0.529  10.479  2.2105  0.3134  0.6046
  189MOL0     H25453   3.421   0.596  10.631  0.8415  0.7719 -0.0949
  189MOL0     H25454   3.227   0.758  10.593 -1.6409  0.8672 -2.1516
  189MOL0     H25455   3.238   0.733  10.424 -0.4566  2.1959  0.8557
  189MOL0     H25456   3.050   0.598  10.489  0.0942  0.0792  1.7759
  189MOL0     H25457   3.174   0.479  10.496 -0.8753 -0.0126 -2.2183
  189MOL0     H25458   3.078   0.436  10.693  3.5746  1.1501 -1.5391
  189MOL0     H25459   3.199   0.539  10.744  1.1380  0.4626 -0.1973
  189MOL0     H25460   3.021   0.740  10.737 -2.2482  1.4541 -0.6428
  189MOL0     H25461   2.914   0.618  10.666 -0.6162  1.1881  0.3644
  189MOL0     H25462   2.897   0.518  10.887  0.6739 -0.5910  1.4056
  189MOL0     H25463   3.052   0.599  10.934  0.6109 -0.5360 -1.9332
  189MOL0     H25464   2.941   0.819  10.934 -1.8376 -0.1216 -1.3476
  189MOL0     H25465   2.894   0.706  11.061  2.1140  2.7999  1.0546
  189MOL0     H25466   2.664   0.565  11.007  3.3701  3.7054  3.8495
  189MOL0     H25467   2.429   0.514  10.767 -1.3693 -0.7395  1.1373
  189MOL0     H25468   2.437   0.515  10.937 -0.0560 -0.2239 -0.1939
  189MOL0     H25469   2.298   0.728  10.743 -1.5352 -1.4136 -1.4575
  189MOL0     H25470   2.289   0.731  10.923 -0.0001  0.4738 -0.7149
  189MOL0     H25471   2.183   0.519  10.908  3.5264  0.1833  0.6656
  189MOL0     H25472   2.201   0.521  10.724 -1.4901  2.6432 -0.7890
  189MOL0     H25473   2.055   0.727  10.720 -0.1862 -1.1483 -1.5052
  189MOL0     H25474   2.071   0.735  10.892  0.2766 -0.5016  1.5608
  189MOL0     H25475   1.883   0.824  10.776 -0.2691  1.3186 -0.9852
  189MOL0     H25476   1.623   0.969  10.601 -2.1391  0.4039 -0.0230
  189MOL0     H25477   1.579   1.004  10.769  0.7339 -0.4953  1.1015
  189MOL0     H25478   1.749   1.004  10.717  0.6739 -0.8774 -0.2895
  189MOL0     H25479   1.349   1.095  10.531 -0.6742  2.2294 -0.1355
  189MOL0     H25480   1.115   1.246  10.567 -0.6382  0.2482 -0.3300
  189MOL0     H25481   0.746   1.087  10.750 -0.6476  1.4266  2.1069
  189MOL0     H25482   0.883   1.094  10.855  3.4536 -2.1983 -4.2982
  189MOL0     H25483   0.865   1.348  10.875 -1.8469  3.5985  0.0464
  189MOL0     H25484   0.742   1.344  10.747 -0.2250 -1.1695 -0.3892
  189MOL0     H25485   0.710   1.200  11.016 -0.0382  0.3027 -0.0909
  189MOL0     H25486   0.584   1.219  10.889 -1.2425  1.5579 -0.3566
  189MOL0     H25487   0.708   1.459  11.018 -0.0643  1.3939 -2.2435
  189MOL0     H25488   0.562   1.448  10.928 -1.1057 -0.3915  0.0766
  189MOL0     H25489   0.482   1.465  11.148  0.2135  1.0650 -2.8633
  189MOL0     H25490   0.619   1.352  11.205 -0.9649 -2.8654  0.0196
  189MOL0     H25491   0.352   1.290  11.061  2.6716  4.0011 -1.0271
  189MOL0     H25492   0.464   1.155  11.116 -1.1205 -0.3854  0.7446
  189MOL0     H25493   0.304   1.336  11.275  1.7644  1.7402  0.1005
  189MOL0     H25494   0.442   1.249  11.341  0.9107  2.4585 -2.6792
  189MOL0     H25495   0.222   1.139  11.383  0.3018 -1.6420  0.0042
  189MOL0     H25496   0.330   1.042  11.294  1.8454  0.7192 -2.7231
  189MOL0     H25497   0.947   0.913  10.746 -1.7203 -0.6061 -0.5629
  189MOL0     H25498   1.134   0.770  10.694 -2.6103  0.4897  1.2266
  189MOL0     H25499   1.523   0.493  10.747  2.3924 -2.3928  0.8928
  189MOL0     H25500   1.737   0.430  10.816 -2.2068 -1.7617 -1.6359
  189MOL0     H25501   3.508   1.018  10.774 -0.7509  1.2101 -0.3976
  189MOL0     H25502   3.648   1.214  10.766  1.9964 -0.0934  0.4722
  189MOL0     H25503   3.643   1.655  10.419  0.7403 -1.7523  2.1940
  189MOL0     H25504   3.783   1.851  10.386 -1.6570 -2.4725 -2.8395
  189MOL0     H25505   4.161   2.008  10.548 -2.0837 -0.4656 -0.2836
  189MOL0     H25506   4.163   1.844  10.599 -1.2921 -1.9021 -0.8761
  189MOL0     H25507   4.254   1.940  10.332 -0.1170  0.6667 -0.3706
  189MOL0     H25508   4.262   1.773  10.368  1.6080  0.1089 -0.3701
  189MOL0     H25509   4.401   1.961  10.565 -0.2496 -0.6679  1.0427
  189MOL0     H25510   4.491   1.918  10.416  0.7214  0.0754  1.4859
  189MOL0     H25511   4.561   1.777  10.582  0.5777  0.6005 -0.7582
  189MOL0     H25512   4.479   1.672  10.459 -0.0757 -0.8315  0.9366
  189MOL0     H25513   4.244   1.623  10.816  0.0721  0.7462  0.9219
  189MOL0     H25514   4.123   1.628  10.540 -0.1101 -0.6638 -0.2661
  189MOL0     H25515   3.987   1.430  10.557  3.6139 -0.2201 -1.1900
  190MOL0     O25516   0.098   1.198   4.906  0.8928 -0.3584 -0.1053
  190MOL0     C25517   0.198   1.256   4.867  0.2908  0.9291 -0.7806
  190MOL0     O25518   0.212   1.332   4.761  0.3057 -0.3262  0.0464
  190MOL0     C25519   0.099   1.348   4.676  0.8594 -0.1240 -0.7179
  190MOL0     C25520   0.070   1.251   4.585  1.1665 -0.7685  2.1882
  190MOL0     C25521  -0.038   1.255   4.491 -0.2887  0.1530 -0.4612
  190MOL0     C25522  -0.126   1.369   4.501  0.2140  0.1151 -0.0842
  190MOL0     O25523  -0.220   1.385   4.404  0.2467 -0.7491  0.1622
  190MOL0     C25524  -0.262   1.514   4.357  0.9727 -0.1249  0.1869
  190MOL0     C25525  -0.421   1.523   4.363  0.1654  0.1024  0.3983
  190MOL0     C25526  -0.497   1.405   4.297  0.4136 -0.5204  0.5186
  190MOL0     C25527  -0.640   1.435   4.225 -0.2085 -0.2683 -0.1236
  190MOL0     C25528  -0.717   1.307   4.190 -0.5671 -0.0855 -0.6060
  190MOL0     C25529  -0.796   1.247   4.304  0.0997  0.4211  0.6958
  190MOL0     C25530  -0.874   1.126   4.250 -0.5599  0.5525  0.2191
  190MOL0     C25531  -0.959   1.066   4.365 -1.4135  0.8708  0.7625
  190MOL0     N25532  -1.082   1.133   4.388 -0.5501  0.5188  0.1022
  190MOL0     C25533  -1.209   1.105   4.361  0.0444  0.0835 -0.5025
  190MOL0     C25534  -1.284   1.189   4.431  0.1921 -0.6556  0.3201
  190MOL0     C25535  -1.437   1.188   4.436 -0.4796 -0.9140 -0.4547
  190MOL0     C25536  -1.486   1.106   4.564  0.2221  0.5160 -0.7705
  190MOL0     C25537  -1.464   1.168   4.703  0.0959  0.1482 -0.3858
  190MOL0     C25538  -1.509   1.311   4.717  0.1642  0.3324  0.3141
  190MOL0     O25539  -1.651   1.321   4.713  0.2672 -0.6310  1.0143
  190MOL0     C25540  -1.708   1.403   4.618 -0.0169 -0.6640  0.1558
  190MOL0     C25541  -1.668   1.533   4.589 -0.0904 -0.3579 -0.0926
  190MOL0     C25542  -1.736   1.619   4.495 -0.4347 -0.3365 -0.7607
  190MOL0     C25543  -1.682   1.758   4.478  0.7822  0.1665  0.4166
  190MOL0     C25544  -1.849   1.569   4.423  0.2007  0.2679  0.3797
  190MOL0     C25545  -1.936   1.649   4.322 -0.4593  0.0884 -0.2468
  190MOL0     O25546  -2.060   1.589   4.304 -0.5459 -0.4645 -0.0286
  190MOL0     C25547  -2.159   1.649   4.230  0.7280  0.5959  0.1621
  190MOL0     C25548  -2.263   1.565   4.189 -0.4098  0.3644  0.4177
  190MOL0     C25549  -2.381   1.610   4.128 -0.7816 -0.9948  0.2661
  190MOL0     C25550  -2.391   1.749   4.096 -0.0193  0.5290 -0.6856
  190MOL0     O25551  -2.490   1.801   4.016  0.4526 -0.0940 -0.8935
  190MOL0     C25552  -2.596   1.705   3.983  0.8864  0.1871 -0.0373
  190MOL0     C25553  -2.707   1.754   3.879  0.2914 -0.0807 -0.5632
  190MOL0     C25554  -2.645   1.781   3.746  0.5752  0.0033  0.5110
  190MOL0     C25555  -2.748   1.842   3.646  0.6118  0.5985 -0.8548
  190MOL0     C25556  -2.696   1.819   3.500  0.1183  0.7593  0.3719
  190MOL0     C25557  -2.583   1.900   3.440  0.2918 -0.2769  0.6274
  190MOL0     C25558  -2.593   2.051   3.484  0.2147 -0.9107 -0.6126
  190MOL0     C25559  -2.483   2.135   3.414 -0.1689  0.4910  0.1037
  190MOL0    Cl25560  -2.532   2.157   3.242  0.0597 -0.2341 -0.5058
  190MOL0     C25561  -2.291   1.831   4.147  0.5425 -0.0843  0.3385
  190MOL0     C25562  -2.176   1.786   4.208 -0.3182 -0.2009 -0.0405
  190MOL0     O25563  -1.890   1.746   4.251  0.3858  0.5178  0.4391
  190MOL0     C25564  -1.881   1.438   4.456 -0.2467  0.2208 -0.7334
  190MOL0     C25565  -1.821   1.359   4.563 -0.4060  1.0957  0.7025
  190MOL0     N25566  -1.208   1.276   4.506  0.5481 -0.2483 -0.8413
  190MOL0     N25567  -1.086   1.236   4.477  0.5637  0.4126  0.5966
  190MOL0     C25568  -0.093   1.465   4.597  0.0717 -0.5304 -0.5920
  190MOL0     C25569   0.019   1.459   4.683  0.4775 -0.0941 -0.9086
  190MOL0     C25570   0.326   1.236   4.950 -0.3923  0.4869  0.5090
  190MOL0     C25571   0.416   1.342   4.955 -0.0864 -0.9770 -0.6579
  190MOL0     C25572   0.542   1.318   5.020  0.0224  0.3811 -0.4155
  190MOL0     C25573   0.570   1.202   5.094  0.1057  0.6518  0.6948
  190MOL0     O25574   0.692   1.186   5.145 -0.5226 -0.1417 -0.5697
  190MOL0     C25575   0.704   1.080   5.243 -0.4505  0.5557 -0.3862
  190MOL0     C25576   0.841   1.064   5.311  0.5348  0.7982 -0.5159
  190MOL0     C25577   0.889   1.188   5.386  0.1027  0.4811 -0.6545
  190MOL0     C25578   0.848   1.211   5.536  0.3434  0.2805 -0.0965
  190MOL0     C25579   0.889   1.346   5.582  0.6357  0.4363  0.8294
  190MOL0     C25580   0.917   1.454   5.619  0.7037 -0.7066 -0.8631
  190MOL0     C25581   0.471   1.105   5.097  0.1743 -0.5968 -0.3571
  190MOL0     C25582   0.356   1.120   5.020 -0.1256 -0.0734  0.2775
  190MOL0     H25583   0.128   1.160   4.573 -0.4383 -1.4082 -3.7216
  190MOL0     H25584  -0.053   1.181   4.413  2.6778 -1.4218  0.2943
  190MOL0     H25585  -0.222   1.594   4.420  1.3387 -0.6345  0.6225
  190MOL0     H25586  -0.227   1.552   4.261 -0.7192  1.5975  0.2157
  190MOL0     H25587  -0.448   1.534   4.469 -1.7192  5.3664 -0.3386
  190MOL0     H25588  -0.465   1.609   4.314 -1.4673 -1.3494 -0.7883
  190MOL0     H25589  -0.433   1.370   4.216 -1.8704 -0.5720 -1.3755
  190MOL0     H25590  -0.523   1.328   4.371 -0.8127 -0.1328  0.5161
  190MOL0     H25591  -0.708   1.500   4.280  0.6040  0.0194  0.5646
  190MOL0     H25592  -0.621   1.489   4.133 -0.5551 -0.7712 -0.4991
  190MOL0     H25593  -0.781   1.329   4.104 -1.1276  0.0386 -0.1629
  190MOL0     H25594  -0.645   1.232   4.154  0.6520  1.1105 -0.7372
  190MOL0     H25595  -0.727   1.212   4.382  0.8866  2.2252  0.8583
  190MOL0     H25596  -0.859   1.320   4.356  0.4624  0.4908  1.0479
  190MOL0     H25597  -0.949   1.152   4.174 -2.5587  0.4191  2.0594
  190MOL0     H25598  -0.807   1.055   4.200 -0.5282  0.7420 -0.0136
  190MOL0     H25599  -0.901   1.070   4.458  2.2971  3.2189 -1.4016
  190MOL0     H25600  -0.987   0.965   4.332  0.6257 -0.0980  1.8214
  190MOL0     H25601  -1.246   1.022   4.302  1.0308 -0.8837  0.2109
  190MOL0     H25602  -1.474   1.291   4.446 -1.4035 -1.1703 -1.0941
  190MOL0     H25603  -1.484   1.140   4.350 -2.1988  1.4504 -0.9104
  190MOL0     H25604  -1.443   1.007   4.578  4.1060  2.0608 -0.5548
  190MOL0     H25605  -1.595   1.100   4.555 -0.0071  1.6812  0.8392
  190MOL0     H25606  -1.360   1.162   4.735 -0.2431  1.7014  1.1824
  190MOL0     H25607  -1.516   1.107   4.778  0.9996  1.6384  1.5322
  190MOL0     H25608  -1.466   1.367   4.634 -1.9347 -1.4913 -2.2086
  190MOL0     H25609  -1.471   1.345   4.813 -0.0669  0.9750  0.1833
  190MOL0     H25610  -1.591   1.564   4.658 -0.8194  1.5347 -0.0686
  190MOL0     H25611  -1.694   1.791   4.375 -0.1619 -0.4422  0.3230
  190MOL0     H25612  -1.758   1.825   4.519  0.2786  2.1605 -3.3260
  190MOL0     H25613  -1.584   1.775   4.523  1.4610 -3.6398  0.6987
  190MOL0     H25614  -2.235   1.461   4.202 -0.3671  0.3351  0.0914
  190MOL0     H25615  -2.453   1.535   4.098 -0.6032 -0.7427 -0.8542
  190MOL0     H25616  -2.557   1.608   3.952  0.7325 -0.0492  0.4886
  190MOL0     H25617  -2.645   1.685   4.079  0.5926  2.0011  0.2344
  190MOL0     H25618  -2.778   1.671   3.880  1.4042 -1.0711 -0.2204
  190MOL0     H25619  -2.763   1.842   3.909  1.7496  1.6459 -2.5755
  190MOL0     H25620  -2.597   1.695   3.698 -3.5602 -1.1900 -2.1010
  190MOL0     H25621  -2.559   1.846   3.762 -2.0243  3.3197  2.3696
  190MOL0     H25622  -2.840   1.785   3.656  1.9023 -1.5418 -0.4824
  190MOL0     H25623  -2.764   1.949   3.662  0.5633  0.5076 -0.2621
  190MOL0     H25624  -2.785   1.850   3.444 -0.9361  0.6464  1.9372
  190MOL0     H25625  -2.683   1.711   3.482 -2.2742  0.5883 -0.7509
  190MOL0     H25626  -2.481   1.862   3.453  1.5192  2.4522 -0.1690
  190MOL0     H25627  -2.596   1.899   3.331  0.1457 -0.9925  0.6488
  190MOL0     H25628  -2.581   2.062   3.592 -2.2428  4.0667 -0.5363
  190MOL0     H25629  -2.695   2.091   3.477  0.9078  1.4581  1.3890
  190MOL0     H25630  -2.385   2.092   3.433 -1.8830 -3.0047  2.1521
  190MOL0     H25631  -2.471   2.235   3.457 -0.1992 -0.5163  2.6402
  190MOL0     H25632  -2.301   1.937   4.124  3.1148  0.8801  2.9778
  190MOL0     H25633  -2.099   1.858   4.232 -0.7218 -0.9645  4.3853
  190MOL0     H25634  -1.958   1.388   4.398 -1.4830 -0.3180  1.2646
  190MOL0     H25635  -1.855   1.259   4.587  0.5445  0.2086 -1.3898
  190MOL0     H25636  -0.169   1.541   4.615  1.4101  0.8937 -0.6999
  190MOL0     H25637   0.032   1.546   4.746 -0.2978  1.4687 -2.7827
  190MOL0     H25638   0.400   1.435   4.902 -1.1314 -0.9213 -0.2748
  190MOL0     H25639   0.604   1.404   5.042 -1.2644  0.4147  3.9647
  190MOL0     H25640   0.620   1.079   5.313 -1.8924  1.8943 -1.9935
  190MOL0     H25641   0.696   0.989   5.182  0.5076 -0.3359  0.7768
  190MOL0     H25642   0.911   1.043   5.230 -1.0567  1.5465 -2.1548
  190MOL0     H25643   0.846   0.976   5.377  3.8584  2.0215  1.0880
  190MOL0     H25644   0.873   1.276   5.322  0.8548  1.0856 -0.0290
  190MOL0     H25645   0.997   1.174   5.375 -0.0977 -1.2050 -0.7420
  190MOL0     H25646   0.877   1.132   5.606 -0.5109  1.3550  1.5324
  190MOL0     H25647   0.741   1.190   5.538  0.7689 -2.4307  3.5856
  190MOL0     H25648   0.953   1.551   5.646 -1.6881  0.5837 -2.0316
  190MOL0     H25649   0.483   1.009   5.146  1.3045 -0.6529 -0.7213
  190MOL0     H25650   0.277   1.046   5.014  2.7766 -3.5355  1.5831
  191MOL0     O25651   0.690   9.855   7.531  0.4359  0.0181  0.0969
  191MOL0     C25652   0.810   9.830   7.493  0.5865  1.0507  0.5898
  191MOL0     O25653   0.881   9.891   7.385 -0.1655  0.4027  0.1797
  191MOL0     C25654   0.828   9.998   7.318  0.2965  0.2939 -0.0561
  191MOL0     C25655   0.758  10.107   7.379  0.3588 -0.5580 -0.1091
  191MOL0     C25656   0.725  10.215   7.303  1.1401 -0.0442  0.4338
  191MOL0     C25657   0.747  10.219   7.165  0.5809  1.1063 -0.1759
  191MOL0     O25658   0.708  10.338   7.105 -1.0312 -0.7877 -0.5929
  191MOL0     C25659   0.666  10.328   6.971  0.0679  1.1350 -0.1119
  191MOL0     C25660   0.531  10.406   6.963 -0.9038  0.2504  0.8168
  191MOL0     C25661   0.415  10.378   7.065  0.1052 -0.4279  0.8850
  191MOL0     C25662   0.283  10.455   7.025 -0.5825 -1.2095  0.0256
  191MOL0     C25663   0.188  10.499   7.137  0.7063 -0.0676 -0.0069
  191MOL0     C25664   0.157  10.381   7.229  0.2424 -0.9810  0.2025
  191MOL0     C25665   0.058  10.439   7.341  0.0920 -0.1783 -0.0739
  191MOL0     C25666   0.021  10.328   7.440 -0.1207  0.2692 -0.1150
  191MOL0     N25667  -0.085  10.368   7.536 -0.2737  0.0359 -0.2985
  191MOL0     C25668  -0.173  10.473   7.533  0.2408  0.4724  0.2692
  191MOL0     C25669  -0.233  10.467   7.654  0.6433 -0.1176  0.5315
  191MOL0     C25670  -0.349  10.560   7.685  0.3532  0.1255  0.9253
  191MOL0     C25671  -0.316  10.685   7.761 -0.5332 -0.0483  0.3957
  191MOL0     C25672  -0.314  10.807   7.664 -0.1601  0.3535 -0.5810
  191MOL0     C25673  -0.181  10.808   7.577  1.0010 -0.0868 -0.8172
  191MOL0     O25674  -0.213  10.766   7.445  0.2729  0.0004 -0.1044
  191MOL0     C25675  -0.119  10.789   7.345  0.5890 -0.1985  0.7992
  191MOL0     C25676   0.012  10.837   7.375 -0.2518  0.5121  0.4933
  191MOL0     C25677   0.110  10.865   7.271  0.5566  0.2697 -0.0013
  191MOL0     C25678   0.247  10.929   7.313 -1.0849 -0.1956 -0.2188
  191MOL0     C25679   0.071  10.843   7.136 -0.2629  0.4002 -0.7382
  191MOL0     C25680   0.162  10.870   7.018  0.2180 -0.1296  0.6156
  191MOL0     O25681   0.302  10.853   7.031  1.2147 -0.0656 -0.2661
  191MOL0     C25682   0.389  10.922   6.937  0.6433 -0.4107 -0.0670
  191MOL0     C25683   0.526  10.900   6.963  0.5313  0.2724  1.2278
  191MOL0     C25684   0.629  10.944   6.874  0.2743  0.2764  0.0377
  191MOL0     C25685   0.596  11.017   6.760  0.0517  0.8227  0.0039
  191MOL0     O25686   0.687  11.057   6.663 -0.2610 -0.0331  0.4479
  191MOL0     C25687   0.826  11.015   6.670  0.1105 -0.5042  0.1712
  191MOL0     C25688   0.886  11.082   6.545  0.5503 -0.5541  0.0252
  191MOL0     C25689   1.025  11.026   6.528  0.0907  0.1908 -1.1342
  191MOL0     C25690   1.100  11.101   6.421  0.8156  0.5965 -0.1978
  191MOL0     C25691   1.246  11.054   6.423  1.0360  0.0020  0.1149
  191MOL0     C25692   1.308  11.101   6.282  0.6244 -0.1145 -0.1067
  191MOL0     C25693   1.440  11.029   6.252  0.7808  0.9912  0.3139
  191MOL0     C25694   1.479  11.037   6.102 -0.1385 -0.2033 -0.1952
  191MOL0    Cl25695   1.511  11.204   6.055  0.2756 -0.0575  0.1147
  191MOL0     C25696   0.464  11.054   6.744  0.6362 -0.1957 -0.1778
  191MOL0     C25697   0.359  11.008   6.833  0.3297  0.9034  0.3550
  191MOL0     O25698   0.101  10.907   6.916  0.7352 -0.2436 -0.2932
  191MOL0     C25699  -0.051  10.796   7.113  0.4423  0.4126  0.5056
  191MOL0     C25700  -0.147  10.773   7.216  0.0721 -0.1670  0.3691
  191MOL0     N25701  -0.183  10.356   7.720 -0.0240  0.8183 -0.3975
  191MOL0     N25702  -0.094  10.289   7.651  0.2945 -0.2968 -0.5602
  191MOL0     C25703   0.812  10.105   7.108 -0.1318 -0.1302 -1.1640
  191MOL0     C25704   0.862  10.000   7.180  0.4111 -0.1880 -0.1026
  191MOL0     C25705   0.877   9.730   7.576  0.2449  1.0765 -0.3003
  191MOL0     C25706   0.792   9.645   7.654  0.2497  0.1094 -0.8550
  191MOL0     C25707   0.847   9.547   7.730 -0.3779 -0.4165  0.2983
  191MOL0     C25708   0.988   9.527   7.728 -0.5454  0.3352 -0.1374
  191MOL0     O25709   1.030   9.424   7.804 -0.2800  0.6111  0.4583
  191MOL0     C25710   1.169   9.391   7.829  0.6030  0.8638  0.0286
  191MOL0     C25711   1.182   9.269   7.935  0.5518  0.5586  0.1583
  191MOL0     C25712   1.118   9.306   8.072  0.5825 -0.6212  0.8038
  191MOL0     C25713   1.091   9.191   8.158 -0.7023  0.0036 -0.3531
  191MOL0     C25714   0.971   9.120   8.112  0.0922 -0.1562  1.2087
  191MOL0     C25715   0.863   9.070   8.075  0.2341  0.4235  0.0079
  191MOL0     C25716   1.068   9.607   7.648  0.2350  0.7971  0.3308
  191MOL0     C25717   1.011   9.705   7.571 -0.0884  0.6085 -0.5326
  191MOL0     H25718   0.726  10.100   7.482  2.4862 -1.3880  0.5589
  191MOL0     H25719   0.694  10.310   7.345  2.1486  0.9216 -0.9177
  191MOL0     H25720   0.741  10.368   6.902 -0.5313 -0.1425 -1.5661
  191MOL0     H25721   0.644  10.227   6.935 -0.3500  1.0120  0.4707
  191MOL0     H25722   0.552  10.513   6.973 -1.3484  0.4990 -0.6734
  191MOL0     H25723   0.495  10.377   6.864  0.6899  1.9083 -0.3154
  191MOL0     H25724   0.395  10.270   7.069 -0.0715 -0.5778 -1.7965
  191MOL0     H25725   0.447  10.401   7.167 -0.3860 -1.0581  1.1929
  191MOL0     H25726   0.306  10.549   6.973 -1.5002  0.6310  2.7423
  191MOL0     H25727   0.241  10.392   6.946  0.0500 -0.3670 -1.0075
  191MOL0     H25728   0.224  10.594   7.178 -2.7840  1.6746 -0.5671
  191MOL0     H25729   0.088  10.518   7.097  0.1927 -1.6058  0.4931
  191MOL0     H25730   0.100  10.302   7.180 -2.4517  0.5084  0.7497
  191MOL0     H25731   0.252  10.355   7.277  0.5505  0.6608  0.5277
  191MOL0     H25732   0.110  10.515   7.400 -1.5131 -1.5426  3.4002
  191MOL0     H25733  -0.033  10.482   7.300  0.2545  1.4219  1.1179
  191MOL0     H25734   0.104  10.288   7.498  0.5471 -1.9966 -2.4502
  191MOL0     H25735  -0.008  10.238   7.384  1.5151 -0.5463  0.3067
  191MOL0     H25736  -0.184  10.539   7.447  3.4193 -1.2148 -1.6116
  191MOL0     H25737  -0.386  10.590   7.587  0.1758 -1.3754  0.5072
  191MOL0     H25738  -0.432  10.507   7.733 -1.1963  0.7408 -0.9580
  191MOL0     H25739  -0.228  10.681   7.825 -0.1688 -0.2217 -0.1107
  191MOL0     H25740  -0.397  10.702   7.834  0.1879 -1.4131  1.5792
  191MOL0     H25741  -0.302  10.898   7.724  1.3134 -0.7600  0.9240
  191MOL0     H25742  -0.402  10.818   7.600  0.0986 -1.0424 -1.2183
  191MOL0     H25743  -0.098  10.754   7.623  1.1234  1.1969  0.5417
  191MOL0     H25744  -0.142  10.911   7.577  0.7398  0.1998  3.7831
  191MOL0     H25745   0.063  10.844   7.471  0.0378 -1.1286  0.4905
  191MOL0     H25746   0.335  10.865   7.323  1.8956  3.5252 -0.0742
  191MOL0     H25747   0.266  11.006   7.237 -0.8236 -0.9083 -0.8961
  191MOL0     H25748   0.239  10.977   7.411 -1.9452  0.9970 -0.8404
  191MOL0     H25749   0.543  10.835   7.049  1.2661 -1.5500 -0.2373
  191MOL0     H25750   0.735  10.923   6.889 -0.1754 -0.6709  2.3443
  191MOL0     H25751   0.881  11.053   6.756 -0.0193  1.3453 -0.5100
  191MOL0     H25752   0.835  10.906   6.665  1.0049 -0.4254 -0.0713
  191MOL0     H25753   0.825  11.068   6.456 -0.3449  2.2145  0.1137
  191MOL0     H25754   0.906  11.189   6.548 -1.8655  0.2714 -4.4853
  191MOL0     H25755   1.023  10.919   6.505 -0.6213 -0.2276  0.7133
  191MOL0     H25756   1.094  11.042   6.612  1.3436 -2.1537 -1.6016
  191MOL0     H25757   1.052  11.074   6.326  0.6965 -2.8067  0.7038
  191MOL0     H25758   1.089  11.209   6.438  1.3636  0.6249 -0.0157
  191MOL0     H25759   1.243  10.944   6.425 -2.6667 -0.0878 -1.5746
  191MOL0     H25760   1.296  11.097   6.510  3.5624 -1.2315 -0.6340
  191MOL0     H25761   1.238  11.071   6.203 -1.2232 -1.1202  1.8145
  191MOL0     H25762   1.325  11.209   6.279 -2.0432  0.3842  0.2877
  191MOL0     H25763   1.420  10.924   6.274  0.3524  1.3187  1.5897
  191MOL0     H25764   1.524  11.063   6.313  0.9530  1.7495 -0.3229
  191MOL0     H25765   1.412  11.003   6.023 -3.4196  4.2700  0.2578
  191MOL0     H25766   1.567  10.977   6.080  0.6842  0.2224  1.7144
  191MOL0     H25767   0.439  11.125   6.666 -1.0172 -0.7863 -0.2310
  191MOL0     H25768   0.255  11.033   6.812  0.2979  0.8168  0.4087
  191MOL0     H25769  -0.071  10.787   7.007  5.3020  3.2444 -0.9265
  191MOL0     H25770  -0.237  10.719   7.187 -2.2384  2.0409  2.8581
  191MOL0     H25771   0.849  10.123   7.007  1.6101 -0.5540 -0.6270
  191MOL0     H25772   0.939   9.938   7.134 -0.0337 -0.1800 -0.8637
  191MOL0     H25773   0.685   9.653   7.667 -0.0321 -2.2070 -1.3103
  191MOL0     H25774   0.791   9.481   7.796 -0.4765  0.3041  0.9593
  191MOL0     H25775   1.220   9.370   7.734  2.8167 -1.6948  1.6065
  191MOL0     H25776   1.214   9.486   7.858 -2.9893  1.8797  2.9879
  191MOL0     H25777   1.291   9.252   7.934  0.7479  1.5118 -2.8732
  191MOL0     H25778   1.129   9.182   7.896 -2.2263  2.4388 -0.4890
  191MOL0     H25779   1.025   9.363   8.066  0.1226 -1.5290 -1.8730
  191MOL0     H25780   1.196   9.366   8.119  1.3837 -1.1145  0.1262
  191MOL0     H25781   1.070   9.229   8.259  0.1110  1.1794 -0.6023
  191MOL0     H25782   1.176   9.122   8.170 -1.1348 -0.2205  2.0909
  191MOL0     H25783   0.770   9.032   8.038 -1.9529  3.7650  1.6141
  191MOL0     H25784   1.173   9.583   7.634 -0.0702  0.5717 -1.9591
  191MOL0     H25785   1.067   9.758   7.495 -0.6839 -3.0325 -3.8029
  192MOL0     O25786   1.674   2.931   3.995 -0.4770  0.0631 -0.1957
  192MOL0     C25787   1.700   2.901   3.878 -0.4739  0.1692  0.4923
  192MOL0     O25788   1.623   2.934   3.770 -0.3033  0.3978 -0.4288
  192MOL0     C25789   1.498   2.986   3.786 -0.0028  0.1992  0.2050
  192MOL0     C25790   1.408   2.951   3.889  0.5602  0.3960  0.0946
  192MOL0     C25791   1.280   3.015   3.910  0.2597  0.2468  0.3179
  192MOL0     C25792   1.238   3.119   3.829  0.1656 -0.2319 -0.2501
  192MOL0     O25793   1.107   3.155   3.818 -0.5942  0.2820  0.0272
  192MOL0     C25794   1.068   3.260   3.920  0.2071  0.2448  0.5980
  192MOL0     C25795   0.927   3.290   3.877  0.2375  1.0053 -1.0453
  192MOL0     C25796   0.821   3.247   3.978  0.5138 -0.3175 -0.9488
  192MOL0     C25797   0.677   3.221   3.917 -0.6284 -0.9045 -0.0862
  192MOL0     C25798   0.596   3.158   4.035  0.2199  1.6767  0.8141
  192MOL0     C25799   0.625   3.006   4.047 -1.0390 -0.2696 -0.1254
  192MOL0     C25800   0.513   2.931   4.125 -0.0505  0.1835 -0.7882
  192MOL0     C25801   0.435   2.998   4.247  0.6765  0.0962  0.4663
  192MOL0     N25802   0.360   2.909   4.337 -0.5775 -0.3291 -0.0439
  192MOL0     C25803   0.226   2.899   4.330  0.3071  0.1256  0.8344
  192MOL0     C25804   0.200   2.792   4.415  0.0726 -0.5302 -0.2138
  192MOL0     C25805   0.078   2.708   4.438  0.0274  0.1270  0.0210
  192MOL0     C25806   0.065   2.592   4.338 -0.0508  0.3376  0.3900
  192MOL0     C25807  -0.059   2.505   4.361  0.2508 -0.1052  0.0278
  192MOL0     C25808  -0.084   2.399   4.260 -0.6378 -0.3089  0.6778
  192MOL0     O25809  -0.172   2.302   4.316 -0.7935 -0.3011 -0.1354
  192MOL0     C25810  -0.306   2.302   4.265  0.3648  0.1971 -0.7487
  192MOL0     C25811  -0.370   2.383   4.168 -0.9442  1.3426  0.7438
  192MOL0     C25812  -0.502   2.358   4.130  0.4172 -1.2627 -0.1077
  192MOL0     C25813  -0.578   2.458   4.044 -0.1052  0.3858 -0.4281
  192MOL0     C25814  -0.579   2.255   4.190 -0.4472  0.4071 -0.4867
  192MOL0     C25815  -0.717   2.220   4.160  0.0902  0.2414  0.0125
  192MOL0     O25816  -0.804   2.318   4.123 -0.2152 -0.8411  0.0852
  192MOL0     C25817  -0.939   2.296   4.144 -0.3301 -0.7570  0.9520
  192MOL0     C25818  -0.993   2.213   4.239 -0.0752  0.4925  0.2289
  192MOL0     C25819  -1.134   2.190   4.252 -0.4481  0.4627 -0.8882
  192MOL0     C25820  -1.222   2.278   4.192 -0.0779  0.0467  0.6865
  192MOL0     O25821  -1.357   2.261   4.203  0.6698  0.4328  0.0993
  192MOL0     C25822  -1.458   2.269   4.092 -1.2066  0.3126  0.6289
  192MOL0     C25823  -1.443   2.138   4.008  0.8975  0.6031 -0.4715
  192MOL0     C25824  -1.476   2.017   4.098 -0.3844 -0.1473 -0.1443
  192MOL0     C25825  -1.429   1.891   4.017  0.5784 -0.3088 -0.3296
  192MOL0     C25826  -1.452   1.769   4.113 -1.0654  0.7327  0.1517
  192MOL0     C25827  -1.406   1.637   4.050  0.0517  0.0315  0.9681
  192MOL0     C25828  -1.431   1.519   4.153 -0.0441  0.3231  0.4234
  192MOL0     C25829  -1.404   1.376   4.101 -0.2323 -1.0784  0.4765
  192MOL0    Cl25830  -1.233   1.351   4.079 -0.0967 -0.2457 -0.6427
  192MOL0     C25831  -1.171   2.377   4.103  0.5163  0.7863 -0.6320
  192MOL0     C25832  -1.031   2.383   4.071 -0.6355 -0.0273 -0.5935
  192MOL0     O25833  -0.747   2.105   4.197  0.7723  0.7447  0.1795
  192MOL0     C25834  -0.521   2.180   4.293 -0.7294  0.6153  1.1367
  192MOL0     C25835  -0.388   2.200   4.324  0.2495  0.0816 -0.0451
  192MOL0     N25836   0.317   2.749   4.467 -0.1671  1.1049 -0.1464
  192MOL0     N25837   0.416   2.821   4.418 -0.9175  0.2712  0.3599
  192MOL0     C25838   1.327   3.150   3.725  0.7600  0.3015 -0.0140
  192MOL0     C25839   1.453   3.086   3.697  0.1764 -0.1316 -0.8075
  192MOL0     C25840   1.825   2.820   3.841  0.5940 -0.5015 -0.2268
  192MOL0     C25841   1.871   2.795   3.709  0.2687  0.0197 -0.5678
  192MOL0     C25842   1.993   2.726   3.687  0.1840 -0.2145 -0.1144
  192MOL0     C25843   2.084   2.692   3.789  0.6681 -0.3909  0.1213
  192MOL0     O25844   2.209   2.640   3.777 -0.9665  0.1923  0.8821
  192MOL0     C25845   2.247   2.588   3.644  0.3833 -0.1954  0.4360
  192MOL0     C25846   2.373   2.499   3.667  0.0691 -0.3337  0.1968
  192MOL0     C25847   2.495   2.584   3.657 -0.0445 -1.2116  0.1503
  192MOL0     C25848   2.620   2.509   3.706 -0.6419  0.0741 -0.2091
  192MOL0     C25849   2.733   2.575   3.648 -0.8328 -0.6604 -0.1867
  192MOL0     C25850   2.832   2.630   3.611  0.1089 -0.2833  0.7695
  192MOL0     C25851   2.033   2.711   3.916  0.0975 -0.3323 -0.2415
  192MOL0     C25852   1.908   2.777   3.945 -0.2744  0.5561  0.8646
  192MOL0     H25853   1.431   2.865   3.951 -1.3870 -1.3975 -1.4989
  192MOL0     H25854   1.203   2.978   3.977 -2.6665  2.2073 -1.7253
  192MOL0     H25855   1.075   3.212   4.018  0.8482  0.0908  0.4792
  192MOL0     H25856   1.129   3.351   3.922  0.3599  0.1534  0.1993
  192MOL0     H25857   0.925   3.400   3.873 -0.1349  1.1570  1.3619
  192MOL0     H25858   0.904   3.251   3.778  1.7760  0.4118 -1.2026
  192MOL0     H25859   0.864   3.156   4.022  1.7432  0.4636 -0.4689
  192MOL0     H25860   0.816   3.322   4.058 -2.6257 -0.8977 -0.4931
  192MOL0     H25861   0.649   3.326   3.900  2.9879  0.0816 -0.8227
  192MOL0     H25862   0.667   3.155   3.830 -1.2208  1.2945 -1.7789
  192MOL0     H25863   0.612   3.206   4.132 -0.8254  0.0439  1.8467
  192MOL0     H25864   0.492   3.173   4.002  1.3502  3.5888 -2.3452
  192MOL0     H25865   0.651   2.966   3.949  0.4509 -0.5067  0.3455
  192MOL0     H25866   0.715   2.983   4.104 -0.9726 -2.3123 -0.9814
  192MOL0     H25867   0.435   2.891   4.059  0.5716 -2.2117 -0.1491
  192MOL0     H25868   0.565   2.846   4.169  0.3539  0.1645 -1.3034
  192MOL0     H25869   0.369   3.080   4.219 -0.3834 -1.3734 -1.5253
  192MOL0     H25870   0.514   3.038   4.312  0.0492 -2.1951  2.8263
  192MOL0     H25871   0.157   2.961   4.274  0.1638  0.0782  0.9584
  192MOL0     H25872   0.073   2.666   4.538  1.8131  2.2429  1.0845
  192MOL0     H25873  -0.006   2.777   4.425  0.6154  0.7626 -0.5837
  192MOL0     H25874   0.155   2.531   4.330 -2.0039 -2.5346 -1.6665
  192MOL0     H25875   0.058   2.638   4.239 -0.1880  2.9679  1.5347
  192MOL0     H25876  -0.147   2.570   4.361 -0.9965 -1.6966  1.9030
  192MOL0     H25877  -0.042   2.454   4.456 -1.7496 -0.1224  0.4161
  192MOL0     H25878   0.015   2.355   4.242  0.6162  2.0750  1.3750
  192MOL0     H25879  -0.125   2.436   4.166  1.3311  1.7531  0.5420
  192MOL0     H25880  -0.315   2.467   4.127  1.6766 -0.5133  0.1784
  192MOL0     H25881  -0.506   2.533   4.010 -1.3600  1.7796 -0.1354
  192MOL0     H25882  -0.628   2.412   3.958  1.2077 -0.4420 -0.7781
  192MOL0     H25883  -0.648   2.516   4.104 -0.4582  1.1288 -1.5161
  192MOL0     H25884  -0.933   2.155   4.308 -3.0546 -0.6595  2.0552
  192MOL0     H25885  -1.176   2.117   4.320  3.1732 -2.9134 -1.9283
  192MOL0     H25886  -1.560   2.281   4.129 -0.1550  2.1070  3.2038
  192MOL0     H25887  -1.435   2.353   4.026  0.0620 -1.1934 -0.9542
  192MOL0     H25888  -1.520   2.140   3.930 -0.1920 -1.4528  0.4756
  192MOL0     H25889  -1.341   2.137   3.971  0.6082  0.6168 -1.2873
  192MOL0     H25890  -1.583   2.003   4.112 -0.3140  0.2006  0.8333
  192MOL0     H25891  -1.421   2.020   4.193  1.9544 -0.7895 -1.4044
  192MOL0     H25892  -1.471   1.885   3.916  1.6287  2.1602 -0.9821
  192MOL0     H25893  -1.323   1.900   3.990 -0.0886  2.1605 -2.5388
  192MOL0     H25894  -1.556   1.749   4.142 -0.6148 -0.9666  0.7266
  192MOL0     H25895  -1.405   1.780   4.212 -1.4198 -0.9365  0.5470
  192MOL0     H25896  -1.458   1.620   3.955  0.7905 -1.2759  0.7744
  192MOL0     H25897  -1.299   1.637   4.025 -0.7505  1.8815 -3.4952
  192MOL0     H25898  -1.535   1.519   4.185 -0.2014 -0.7380 -0.0477
  192MOL0     H25899  -1.379   1.530   4.248 -1.4192 -0.3371  1.2753
  192MOL0     H25900  -1.456   1.362   4.005  0.7846 -2.0526  0.0464
  192MOL0     H25901  -1.430   1.298   4.173  1.4758 -2.0334  0.1015
  192MOL0     H25902  -1.229   2.458   4.062  0.7349  0.0502 -2.5069
  192MOL0     H25903  -0.978   2.458   4.013  0.1144  1.3917  1.7837
  192MOL0     H25904  -0.571   2.108   4.356 -0.4133 -0.5745  0.0593
  192MOL0     H25905  -0.346   2.126   4.392  0.5180  0.1478 -0.1375
  192MOL0     H25906   1.283   3.204   3.642  1.5496 -0.8958 -1.2509
  192MOL0     H25907   1.494   3.104   3.598 -0.3397  0.4774 -0.9156
  192MOL0     H25908   1.816   2.837   3.625 -1.1470  3.2315  1.7690
  192MOL0     H25909   2.017   2.721   3.582 -0.0516 -0.0721 -0.1765
  192MOL0     H25910   2.166   2.523   3.609  1.6894 -0.7656 -1.6544
  192MOL0     H25911   2.262   2.670   3.573 -3.3901  0.8880  0.6462
  192MOL0     H25912   2.369   2.421   3.591  0.0708 -1.1541  1.0305
  192MOL0     H25913   2.377   2.443   3.761 -2.1690  0.3460  0.7503
  192MOL0     H25914   2.488   2.679   3.710 -0.5710 -0.9987 -0.3017
  192MOL0     H25915   2.499   2.614   3.552 -1.7972 -0.2477  0.3262
  192MOL0     H25916   2.629   2.405   3.671  0.4430  0.4549 -1.1372
  192MOL0     H25917   2.634   2.503   3.814  1.2615  0.1389 -0.4194
  192MOL0     H25918   2.919   2.682   3.577 -1.7534  2.4431 -0.1020
  192MOL0     H25919   2.089   2.681   4.004  1.7207 -0.1769 -1.1832
  192MOL0     H25920   1.891   2.785   4.052 -0.8965  2.0467  0.6739
  193MOL0     O25921   6.811   4.132   6.055 -0.6708  0.1383 -0.0230
  193MOL0     C25922   6.903   4.171   6.123  0.5191  0.0280 -0.3101
  193MOL0     O25923   6.887   4.242   6.241 -0.0894  0.7035 -0.5794
  193MOL0     C25924   6.764   4.282   6.287 -0.4006  0.1151  0.1355
  193MOL0     C25925   6.662   4.205   6.337 -0.1303  0.4493 -0.4475
  193MOL0     C25926   6.536   4.254   6.361  0.1341 -0.2224  0.6508
  193MOL0     C25927   6.503   4.383   6.335 -0.1736 -0.2281 -0.1848
  193MOL0     O25928   6.371   4.415   6.348 -0.1090  0.4740 -0.1600
  193MOL0     C25929   6.317   4.521   6.270  1.1361  0.5708 -0.1220
  193MOL0     C25930   6.169   4.536   6.295 -0.4577 -0.0658  0.3739
  193MOL0     C25931   6.091   4.640   6.206  0.0708  0.4715 -0.2709
  193MOL0     C25932   6.129   4.786   6.240  0.0483  0.7221 -0.0018
  193MOL0     C25933   6.095   4.821   6.387  0.7818 -0.0617  0.3273
  193MOL0     C25934   5.953   4.788   6.432  0.3682  0.3048 -0.6815
  193MOL0     C25935   5.944   4.811   6.584 -0.0919 -0.0770 -0.3371
  193MOL0     C25936   5.862   4.933   6.611 -0.0511 -0.1295  0.5582
  193MOL0     N25937   5.941   5.052   6.612  0.4873 -0.4942 -0.5334
  193MOL0     C25938   5.947   5.138   6.504 -0.2034  0.3463 -0.0091
  193MOL0     C25939   6.057   5.214   6.528 -0.5491 -0.5369 -0.5255
  193MOL0     C25940   6.138   5.315   6.445 -1.2666  0.0812  0.0951
  193MOL0     C25941   6.098   5.464   6.446  0.2684  0.3008  0.3156
  193MOL0     C25942   6.007   5.506   6.560  0.5032 -0.2226  0.3301
  193MOL0     C25943   5.998   5.653   6.594 -0.8619 -0.3713 -0.2638
  193MOL0     O25944   6.025   5.740   6.481 -0.3273 -0.1842  0.0941
  193MOL0     C25945   5.926   5.773   6.397  0.5376 -0.5398 -0.5815
  193MOL0     C25946   5.971   5.872   6.297  0.3874 -0.1742 -0.6928
  193MOL0     C25947   5.884   5.920   6.196 -1.3207 -0.2714  0.4271
  193MOL0     C25948   5.937   6.012   6.093  0.0045  0.1787  0.5166
  193MOL0     C25949   5.744   5.879   6.201  0.0149  0.1061  0.5461
  193MOL0     C25950   5.641   5.924   6.102 -1.1878 -0.9780  0.5431
  193MOL0     O25951   5.679   6.014   6.011  0.1483 -0.2573 -0.0061
  193MOL0     C25952   5.586   6.059   5.918 -0.4259 -1.1196  0.3264
  193MOL0     C25953   5.538   5.970   5.821 -0.7811 -0.9247  0.2229
  193MOL0     C25954   5.438   6.005   5.729  0.1756  0.4816 -0.1662
  193MOL0     C25955   5.391   6.140   5.724 -0.6734  0.4603 -1.3195
  193MOL0     O25956   5.299   6.155   5.622  0.1804 -0.3060  0.5169
  193MOL0     C25957   5.302   6.280   5.565 -0.1138 -0.2363 -0.4711
  193MOL0     C25958   5.254   6.277   5.426  0.1715 -0.1683 -0.0815
  193MOL0     C25959   5.350   6.214   5.328  0.3212  0.0728 -0.0882
  193MOL0     C25960   5.280   6.090   5.267  0.3307 -0.5587 -1.1848
  193MOL0     C25961   5.341   6.017   5.160 -0.7496  0.7484  0.6834
  193MOL0     C25962   5.233   5.926   5.103  0.1842  0.5994 -0.3680
  193MOL0     C25963   5.303   5.806   5.032 -0.3091  0.2582 -0.1720
  193MOL0     C25964   5.322   5.843   4.878 -0.3748 -0.4254 -0.1197
  193MOL0    Cl25965   5.169   5.860   4.782 -0.0110 -0.3740  0.0429
  193MOL0     C25966   5.416   6.226   5.836 -0.1190  0.1055  0.3139
  193MOL0     C25967   5.519   6.187   5.921  0.6829 -0.4147  0.5125
  193MOL0     O25968   5.533   5.880   6.116 -0.0014 -0.7593 -0.0357
  193MOL0     C25969   5.705   5.782   6.306  0.2054 -0.6581  0.6402
  193MOL0     C25970   5.796   5.730   6.398  0.5985  0.5421 -0.5302
  193MOL0     N25971   6.104   5.183   6.655 -0.8205 -0.4754  0.6560
  193MOL0     N25972   6.040   5.082   6.705  0.2765 -0.1894  0.0621
  193MOL0     C25973   6.612   4.472   6.289  0.7282 -0.1653  0.0189
  193MOL0     C25974   6.734   4.419   6.261 -0.2286  0.5859 -0.4694
  193MOL0     C25975   7.040   4.129   6.091  0.6240 -0.7056 -0.0169
  193MOL0     C25976   7.069   4.064   5.966  0.4448 -0.5777  0.2648
  193MOL0     C25977   7.200   4.034   5.931  0.1405  0.3162  0.1208
  193MOL0     C25978   7.304   4.080   6.012  0.1541  0.0735 -0.0175
  193MOL0     O25979   7.430   4.054   5.970 -0.2470  1.3260 -0.8682
  193MOL0     C25980   7.543   4.134   6.007  0.2485  0.5609  0.3762
  193MOL0     C25981   7.509   4.268   5.940  0.4678  0.7603 -0.2275
  193MOL0     C25982   7.620   4.359   5.958 -0.8472 -0.3984 -0.2062
  193MOL0     C25983   7.591   4.483   5.873  0.2767 -0.7797  0.4492
  193MOL0     C25984   7.467   4.560   5.900 -0.7966 -0.0485 -0.4752
  193MOL0     C25985   7.365   4.617   5.916 -0.0590 -0.8820  0.3840
  193MOL0     C25986   7.274   4.153   6.126  0.2480  0.7107 -0.2825
  193MOL0     C25987   7.143   4.180   6.169  0.1227 -0.1091 -0.5044
  193MOL0     H25988   6.682   4.100   6.357  3.0572  1.4004  2.4173
  193MOL0     H25989   6.456   4.192   6.400 -0.2672 -0.6818 -0.8262
  193MOL0     H25990   6.360   4.619   6.292 -2.2008  2.2441 -0.5680
  193MOL0     H25991   6.326   4.495   6.164  0.6759  0.3558 -0.1106
  193MOL0     H25992   6.120   4.441   6.270 -1.7604  0.1480  1.9577
  193MOL0     H25993   6.158   4.559   6.401  0.3443  2.2556  0.0076
  193MOL0     H25994   6.111   4.615   6.101  1.5929  1.1462 -0.1537
  193MOL0     H25995   5.981   4.634   6.210  0.0825 -0.3667 -0.9791
  193MOL0     H25996   6.238   4.789   6.235  0.3422 -2.4307  1.9533
  193MOL0     H25997   6.078   4.854   6.170 -2.1589 -1.6564 -0.8519
  193MOL0     H25998   6.166   4.767   6.449  0.4793  0.1637  0.8793
  193MOL0     H25999   6.127   4.925   6.398  1.2545  0.1037 -2.0456
  193MOL0     H26000   5.882   4.842   6.370  0.2935  0.6568 -0.2984
  193MOL0     H26001   5.938   4.681   6.417 -0.4494  0.2548  0.3609
  193MOL0     H26002   5.895   4.723   6.628  0.3452 -1.0422 -1.7287
  193MOL0     H26003   6.043   4.833   6.626 -0.2164 -0.6883  0.3149
  193MOL0     H26004   5.812   4.919   6.707 -2.0239  3.0844  0.1665
  193MOL0     H26005   5.791   4.939   6.527  0.0048 -3.0066  0.2005
  193MOL0     H26006   5.892   5.137   6.411  1.0540 -0.1557 -0.7749
  193MOL0     H26007   6.242   5.319   6.480 -1.1086  1.4254 -0.4665
  193MOL0     H26008   6.139   5.283   6.340  1.0937  0.9875 -0.2282
  193MOL0     H26009   6.047   5.480   6.350  0.9935  2.4679  0.2410
  193MOL0     H26010   6.193   5.518   6.452  1.2922 -1.5838  2.3625
  193MOL0     H26011   6.049   5.459   6.650 -1.2705  0.8333  1.7718
  193MOL0     H26012   5.902   5.482   6.542  0.1613  1.0131  0.6152
  193MOL0     H26013   6.073   5.678   6.669 -0.5503 -0.5637 -0.5051
  193MOL0     H26014   5.901   5.672   6.640 -1.0356  0.5956 -0.9939
  193MOL0     H26015   6.075   5.903   6.299  0.1367  0.8671  2.8944
  193MOL0     H26016   6.045   6.014   6.111  1.2102 -2.7938 -4.4140
  193MOL0     H26017   5.921   5.957   6.000 -1.3232  0.5751  0.4901
  193MOL0     H26018   5.892   6.112   6.096 -3.2539 -1.1561  1.1291
  193MOL0     H26019   5.582   5.871   5.820 -1.1317 -1.1243 -2.0992
  193MOL0     H26020   5.394   5.927   5.668  0.0108 -0.6035  1.2894
  193MOL0     H26021   5.240   6.347   5.625  0.6393  2.0892 -2.1300
  193MOL0     H26022   5.403   6.322   5.567  0.7446 -2.1842  0.6708
  193MOL0     H26023   5.154   6.232   5.415 -0.4422  1.0552  0.2848
  193MOL0     H26024   5.240   6.380   5.391 -0.2388 -1.0508 -2.7428
  193MOL0     H26025   5.452   6.197   5.363  0.2485  0.4285  0.3056
  193MOL0     H26026   5.364   6.285   5.246 -1.2497  0.3218 -0.1848
  193MOL0     H26027   5.279   6.017   5.349  1.1572  1.2378  0.5214
  193MOL0     H26028   5.178   6.122   5.247  0.2166  0.6466  0.9558
  193MOL0     H26029   5.421   5.959   5.206 -0.4707 -0.6847 -1.4598
  193MOL0     H26030   5.363   6.080   5.073 -5.6735  0.9623 -0.7179
  193MOL0     H26031   5.164   5.899   5.183  2.6981  3.2550  2.9992
  193MOL0     H26032   5.170   5.979   5.032  0.9924 -3.9651 -5.1208
  193MOL0     H26033   5.232   5.723   5.043  1.2606 -0.8805  1.9949
  193MOL0     H26034   5.391   5.784   5.092 -0.1951  1.1000 -0.0071
  193MOL0     H26035   5.373   5.760   4.828 -0.7087 -1.0385  0.5283
  193MOL0     H26036   5.373   5.940   4.877 -3.8804  1.5644 -1.8839
  193MOL0     H26037   5.365   6.322   5.836 -3.2467 -1.4437  0.6815
  193MOL0     H26038   5.555   6.262   5.991 -1.6511  0.8435  0.4349
  193MOL0     H26039   5.604   5.746   6.325 -0.1189  0.5284  1.2706
  193MOL0     H26040   5.750   5.666   6.473  1.4879  2.0893  1.4379
  193MOL0     H26041   6.589   4.577   6.272 -0.8587 -0.4625  0.1409
  193MOL0     H26042   6.812   4.488   6.231  2.2587 -1.2856  1.2716
  193MOL0     H26043   6.993   4.036   5.895  2.9524 -1.6751 -2.1793
  193MOL0     H26044   7.208   3.975   5.840 -2.4008 -1.3418  0.8434
  193MOL0     H26045   7.533   4.154   6.114 -1.5850 -2.0525  0.8121
  193MOL0     H26046   7.641   4.086   6.004  0.5831  1.0139  2.4054
  193MOL0     H26047   7.418   4.311   5.982  1.3245  0.9534  1.5535
  193MOL0     H26048   7.481   4.259   5.835 -2.1574  1.5781  0.3230
  193MOL0     H26049   7.715   4.320   5.922 -0.7050  0.3249 -0.6348
  193MOL0     H26050   7.627   4.387   6.064  2.6604  0.7777 -0.6277
  193MOL0     H26051   7.597   4.454   5.767  0.7721 -2.7351  0.9692
  193MOL0     H26052   7.668   4.559   5.888  0.6494 -0.9598 -0.4600
  193MOL0     H26053   7.277   4.677   5.912  0.4077 -0.2587 -1.2319
  193MOL0     H26054   7.347   4.184   6.200 -1.8371  2.5921  1.1061
  193MOL0     H26055   7.129   4.234   6.262  1.7386 -0.7692  0.1700
  194MOL0     O26056   6.804   4.983   1.294 -0.2267  0.1051 -0.9960
  194MOL0     C26057   6.865   4.878   1.284  0.2067  0.7912 -0.4195
  194MOL0     O26058   6.811   4.754   1.281 -0.0930  0.0340 -0.0713
  194MOL0     C26059   6.675   4.725   1.306 -0.3640 -0.2967  0.5794
  194MOL0     C26060   6.574   4.804   1.249  0.1469 -0.1239 -1.0769
  194MOL0     C26061   6.441   4.760   1.256  0.6674 -0.2482 -0.5972
  194MOL0     C26062   6.406   4.632   1.306 -0.8938 -0.8305  0.6496
  194MOL0     O26063   6.273   4.602   1.300 -0.0902  0.3039  0.3486
  194MOL0     C26064   6.231   4.470   1.278  0.3769 -0.2737  0.3693
  194MOL0     C26065   6.082   4.462   1.314 -0.6911  0.1837  0.3074
  194MOL0     C26066   6.040   4.537   1.440 -0.1738 -0.5687  0.7992
  194MOL0     C26067   5.914   4.468   1.507 -0.1396 -0.2611 -0.4138
  194MOL0     C26068   5.884   4.537   1.644 -0.3928  1.0021  0.7678
  194MOL0     C26069   5.760   4.485   1.711  0.6442  0.0465 -0.8611
  194MOL0     C26070   5.725   4.562   1.838  0.8223 -0.2687 -0.3956
  194MOL0     C26071   5.607   4.495   1.916  0.3649 -0.4662  0.4538
  194MOL0     N26072   5.573   4.580   2.027  0.4323 -0.2543 -0.1533
  194MOL0     C26073   5.625   4.555   2.151 -0.3685  0.7747  0.1010
  194MOL0     C26074   5.568   4.654   2.225 -0.3310 -0.3827  0.0282
  194MOL0     C26075   5.585   4.669   2.369  0.0238  0.6826  0.8868
  194MOL0     C26076   5.462   4.610   2.444 -0.0832 -0.1760  1.0341
  194MOL0     C26077   5.505   4.612   2.594  0.6243  0.6573 -0.3538
  194MOL0     C26078   5.399   4.531   2.669 -0.8183 -0.4452 -0.2855
  194MOL0     O26079   5.417   4.390   2.632  0.3952  0.1142  0.0691
  194MOL0     C26080   5.313   4.302   2.643 -0.0991 -0.0573  0.4231
  194MOL0     C26081   5.309   4.188   2.564 -0.8483  0.6999 -1.1183
  194MOL0     C26082   5.197   4.094   2.567 -0.3120 -0.7472  0.6965
  194MOL0     C26083   5.198   3.967   2.481 -0.0845 -0.0781  0.8338
  194MOL0     C26084   5.087   4.129   2.658 -0.3523  0.4247  0.2300
  194MOL0     C26085   4.958   4.054   2.659 -0.0124  0.5130  0.2687
  194MOL0     O26086   4.954   3.916   2.617  0.6927  0.1500 -0.2547
  194MOL0     C26087   4.843   3.849   2.633  0.4321  0.6864  1.5516
  194MOL0     C26088   4.762   3.830   2.747 -0.5435  0.6286  1.3959
  194MOL0     C26089   4.643   3.761   2.742 -0.2879  0.5344 -0.7482
  194MOL0     C26090   4.602   3.700   2.624  1.1893  0.0528 -0.3254
  194MOL0     O26091   4.487   3.622   2.609 -0.3771 -0.4177  0.5054
  194MOL0     C26092   4.372   3.662   2.690  0.1114  0.4537 -0.0024
  194MOL0     C26093   4.269   3.546   2.676  0.0596 -0.4768 -1.4588
  194MOL0     C26094   4.141   3.551   2.754 -0.3288  0.6808  0.6699
  194MOL0     C26095   4.042   3.443   2.692 -0.0762 -0.1685  0.0501
  194MOL0     C26096   3.912   3.444   2.779 -0.5013  1.1637  0.1783
  194MOL0     C26097   3.801   3.392   2.689  0.5794  0.2370 -0.3172
  194MOL0     C26098   3.820   3.245   2.640  0.6256  0.1865  0.0019
  194MOL0     C26099   3.699   3.188   2.567  0.9384  0.0607  0.3219
  194MOL0    Cl26100   3.549   3.208   2.688 -0.2453  0.2363  0.5065
  194MOL0     C26101   4.683   3.712   2.516  0.5371  0.4501 -0.3343
  194MOL0     C26102   4.804   3.778   2.521 -0.4285 -1.0924  0.0390
  194MOL0     O26103   4.865   4.119   2.696  0.2774  0.9494 -0.7558
  194MOL0     C26104   5.096   4.246   2.736  0.1888  0.4308 -0.4279
  194MOL0     C26105   5.208   4.327   2.722  1.2761 -0.8277 -0.0294
  194MOL0     N26106   5.480   4.734   2.147 -0.4113 -0.2761  0.3435
  194MOL0     N26107   5.496   4.698   2.026 -0.5633  0.3179 -0.2038
  194MOL0     C26108   6.515   4.550   1.354  1.1228  0.3276  0.4965
  194MOL0     C26109   6.642   4.597   1.351  0.4993 -0.1235  0.3857
  194MOL0     C26110   7.011   4.883   1.285 -0.0762  0.1303  0.3141
  194MOL0     C26111   7.072   5.012   1.291  0.0140 -0.6086 -0.6410
  194MOL0     C26112   7.214   5.034   1.289  0.2172  0.3028 -0.9450
  194MOL0     C26113   7.294   4.919   1.285  0.2707  0.2153 -1.0702
  194MOL0     O26114   7.430   4.927   1.286  0.3389  0.1964  0.2246
  194MOL0     C26115   7.479   4.968   1.156 -0.2978 -0.9133 -0.8274
  194MOL0     C26116   7.563   5.091   1.186 -0.0703 -0.9157  0.2301
  194MOL0     C26117   7.701   5.054   1.246  0.1360  0.8396 -0.8352
  194MOL0     C26118   7.755   5.181   1.309  0.2819 -0.8397  0.0974
  194MOL0     C26119   7.890   5.153   1.349 -0.3914  0.1455 -0.2093
  194MOL0     C26120   7.997   5.122   1.407  0.3138 -0.7940 -0.0873
  194MOL0     C26121   7.229   4.790   1.276  0.5342  0.4207  0.4961
  194MOL0     C26122   7.099   4.775   1.280 -0.3140 -0.4095 -0.4493
  194MOL0     H26123   6.595   4.900   1.203 -3.1203  0.9362 -0.6377
  194MOL0     H26124   6.359   4.822   1.223  0.2193  0.0851  1.0199
  194MOL0     H26125   6.236   4.448   1.171  0.0543 -1.7806  0.6372
  194MOL0     H26126   6.287   4.386   1.322  1.4204 -1.4380 -2.8792
  194MOL0     H26127   6.023   4.493   1.228 -4.0102 -0.2842  2.2324
  194MOL0     H26128   6.060   4.355   1.328  0.7061 -0.0117  1.2062
  194MOL0     H26129   6.125   4.528   1.509  0.2419  1.0605  0.5262
  194MOL0     H26130   6.022   4.643   1.419  1.0954 -0.6630 -1.0646
  194MOL0     H26131   5.829   4.475   1.439 -1.5098  2.0677  1.3873
  194MOL0     H26132   5.941   4.367   1.538 -1.3540  0.1757  2.3275
  194MOL0     H26133   5.958   4.526   1.724 -1.6302  1.9612  2.0858
  194MOL0     H26134   5.873   4.642   1.615  1.7952  0.5830 -2.0274
  194MOL0     H26135   5.678   4.509   1.642 -0.2685  1.4897  0.6688
  194MOL0     H26136   5.773   4.380   1.738 -0.8752 -0.4749 -2.0114
  194MOL0     H26137   5.815   4.553   1.900  0.2339  0.1806  0.5510
  194MOL0     H26138   5.717   4.671   1.833  2.0352 -0.1847 -0.7162
  194MOL0     H26139   5.638   4.395   1.946  0.1520 -0.0162  2.2884
  194MOL0     H26140   5.519   4.475   1.853  0.3424 -1.9822  0.9184
  194MOL0     H26141   5.690   4.475   2.184  1.2238  1.8931 -0.1680
  194MOL0     H26142   5.675   4.619   2.407 -1.7513 -2.2931  1.5262
  194MOL0     H26143   5.576   4.774   2.397 -4.1785  0.7659 -0.1800
  194MOL0     H26144   5.445   4.505   2.421 -0.6544 -0.6302  3.2418
  194MOL0     H26145   5.368   4.665   2.430 -0.5677 -1.0886  0.6392
  194MOL0     H26146   5.510   4.714   2.632  0.0217  0.0323  1.5225
  194MOL0     H26147   5.597   4.554   2.604 -0.5823 -1.3910 -0.5569
  194MOL0     H26148   5.301   4.575   2.647 -0.0336  1.5190 -0.0727
  194MOL0     H26149   5.410   4.536   2.778 -2.5551 -3.5973  0.1858
  194MOL0     H26150   5.385   4.171   2.488 -1.2563 -1.4582 -1.1049
  194MOL0     H26151   5.117   3.969   2.407 -1.2825 -0.6539  2.0856
  194MOL0     H26152   5.292   3.965   2.426 -0.6715 -1.1410 -0.1639
  194MOL0     H26153   5.206   3.878   2.544  2.7670 -1.8312 -1.7435
  194MOL0     H26154   4.800   3.867   2.841  0.2695 -1.0576  1.7712
  194MOL0     H26155   4.581   3.760   2.831 -2.7902  2.1833 -2.3293
  194MOL0     H26156   4.404   3.671   2.794  2.5005  1.8075 -0.8002
  194MOL0     H26157   4.329   3.753   2.648 -1.6080 -0.0604  0.5341
  194MOL0     H26158   4.247   3.555   2.569  1.0884  1.6315 -1.5512
  194MOL0     H26159   4.327   3.455   2.692  2.1097  0.6517 -2.1239
  194MOL0     H26160   4.104   3.651   2.731  0.1948 -0.2027 -6.2880
  194MOL0     H26161   4.171   3.537   2.858  1.6886  1.6395  0.2649
  194MOL0     H26162   4.019   3.461   2.587  2.2884  0.6397 -0.3863
  194MOL0     H26163   4.091   3.345   2.696  0.9757  0.2801 -1.0649
  194MOL0     H26164   3.884   3.549   2.798  0.8324  0.8635  5.3229
  194MOL0     H26165   3.920   3.382   2.868  4.1551 -0.2453 -0.9757
  194MOL0     H26166   3.706   3.406   2.741 -1.1211 -0.8571 -2.9304
  194MOL0     H26167   3.784   3.467   2.610  0.7030  0.0698 -0.5031
  194MOL0     H26168   3.853   3.184   2.724  1.5082 -1.2302 -1.3250
  194MOL0     H26169   3.907   3.243   2.575 -0.2970 -2.4485 -1.3137
  194MOL0     H26170   3.718   3.087   2.531 -0.0794  0.7254 -2.3133
  194MOL0     H26171   3.662   3.251   2.485  1.4250  0.0982  0.1332
  194MOL0     H26172   4.651   3.690   2.415  3.0755  2.5238 -1.7271
  194MOL0     H26173   4.856   3.802   2.429 -2.2673 -0.8406 -0.9776
  194MOL0     H26174   5.012   4.274   2.799 -0.3563 -1.0933 -0.4548
  194MOL0     H26175   5.204   4.420   2.779  1.1587 -1.1703  0.5313
  194MOL0     H26176   6.510   4.459   1.412  2.0178  0.4214  0.7449
  194MOL0     H26177   6.731   4.545   1.384  1.2188  1.9780  2.0024
  194MOL0     H26178   7.009   5.100   1.298  2.0871  0.8990 -0.2021
  194MOL0     H26179   7.263   5.131   1.285  2.9738 -0.9627 -0.3657
  194MOL0     H26180   7.533   4.886   1.107  0.6737 -1.0971  0.4992
  194MOL0     H26181   7.390   4.994   1.097 -0.4303 -1.1842 -0.7488
  194MOL0     H26182   7.515   5.169   1.246  0.6319 -2.7160  3.3966
  194MOL0     H26183   7.595   5.133   1.090  3.2008 -3.6553 -0.0782
  194MOL0     H26184   7.772   5.007   1.177  1.4534  0.4482  0.7228
  194MOL0     H26185   7.678   4.982   1.325  2.7479 -0.4453 -1.1220
  194MOL0     H26186   7.701   5.198   1.403  2.1655 -1.3604  1.3480
  194MOL0     H26187   7.755   5.263   1.237 -1.3639 -2.9755 -2.5195
  194MOL0     H26188   8.092   5.099   1.451  0.2212 -0.6220  0.2010
  194MOL0     H26189   7.298   4.707   1.273  0.5436  0.4525 -0.4265
  194MOL0     H26190   7.062   4.675   1.293 -0.0676 -0.4317  0.1225
  195MOL0     O26191   9.114   1.488   3.519 -0.1487 -0.0934 -0.5140
  195MOL0     C26192   9.176   1.400   3.576 -0.4188 -0.3502  0.3264
  195MOL0     O26193   9.137   1.333   3.688  0.0078 -0.4046  0.2060
  195MOL0     C26194   9.006   1.347   3.743  0.0658  0.8212 -0.1826
  195MOL0     C26195   9.000   1.281   3.865 -0.6898 -0.2333  0.1676
  195MOL0     C26196   8.885   1.287   3.940  1.0408  0.7910 -1.0642
  195MOL0     C26197   8.768   1.354   3.891 -0.8300 -0.6231 -0.3534
  195MOL0     O26198   8.663   1.380   3.980 -0.0419 -0.5052 -0.3048
  195MOL0     C26199   8.528   1.375   3.922 -0.0288  0.1232 -0.2874
  195MOL0     C26200   8.502   1.260   3.827  0.1921 -0.7239  0.0076
  195MOL0     C26201   8.360   1.227   3.797  0.4416 -0.1387 -0.4375
  195MOL0     C26202   8.316   1.275   3.653 -0.8423 -0.0934 -0.8143
  195MOL0     C26203   8.169   1.265   3.628  0.2424  0.2470 -0.9875
  195MOL0     C26204   8.082   1.324   3.739  0.0486  0.1979 -0.0255
  195MOL0     C26205   7.934   1.364   3.685  0.1242  0.5632  1.0791
  195MOL0     C26206   7.931   1.492   3.589 -0.2493  0.1671 -1.0185
  195MOL0     N26207   7.808   1.567   3.572 -0.3590 -0.1756  0.8952
  195MOL0     C26208   7.764   1.602   3.445 -0.3812  0.5503 -0.8548
  195MOL0     C26209   7.653   1.670   3.473 -0.1710  0.1863  0.0160
  195MOL0     C26210   7.550   1.715   3.374 -0.0413 -1.9107  0.0746
  195MOL0     C26211   7.426   1.777   3.436  0.2416 -0.3023 -0.2888
  195MOL0     C26212   7.360   1.867   3.329 -0.3668  0.7495 -0.2640
  195MOL0     C26213   7.242   1.947   3.388 -0.5189  0.4206 -0.6374
  195MOL0     O26214   7.165   1.978   3.269  0.0480 -0.4011 -0.7241
  195MOL0     C26215   7.040   2.019   3.304  0.0848 -0.4030  0.3655
  195MOL0     C26216   7.020   2.143   3.375 -0.4688  0.0673 -0.1074
  195MOL0     C26217   6.891   2.192   3.395 -0.6282  0.3783 -0.2392
  195MOL0     C26218   6.890   2.325   3.470 -0.2413  0.1001 -0.1350
  195MOL0     C26219   6.781   2.116   3.346  0.2272 -0.3726 -0.5893
  195MOL0     C26220   6.640   2.156   3.371 -0.5547 -0.3182  0.2955
  195MOL0     O26221   6.555   2.052   3.397  0.1641 -0.8201  0.7216
  195MOL0     C26222   6.420   2.076   3.417 -0.2662  0.9110  0.1824
  195MOL0     C26223   6.376   2.159   3.520 -0.3088  0.0444  0.7450
  195MOL0     C26224   6.242   2.203   3.524 -0.1898  0.1326 -0.1015
  195MOL0     C26225   6.150   2.150   3.434 -0.0387 -0.4812  0.7909
  195MOL0     O26226   6.020   2.195   3.429  0.3225  0.4029  0.3953
  195MOL0     C26227   5.952   2.178   3.562 -0.2399  0.9031 -0.1070
  195MOL0     C26228   5.809   2.129   3.530 -0.3312  0.2866  0.3442
  195MOL0     C26229   5.806   2.000   3.449  0.6768 -0.3470 -0.3286
  195MOL0     C26230   5.657   1.938   3.464  0.3313  0.9105 -0.6039
  195MOL0     C26231   5.563   2.013   3.371  0.5049 -0.6012  0.6361
  195MOL0     C26232   5.407   1.995   3.367 -0.6486 -0.5596  0.6585
  195MOL0     C26233   5.347   1.861   3.341  0.4937 -0.3401  0.0901
  195MOL0     C26234   5.201   1.854   3.382 -0.6658 -0.1716  0.0178
  195MOL0    Cl26235   5.172   1.849   3.554  0.3778 -0.2298 -0.0796
  195MOL0     C26236   6.195   2.048   3.349  0.4700  0.3240 -0.6272
  195MOL0     C26237   6.332   2.019   3.333  0.1865  0.2003  0.3263
  195MOL0     O26238   6.607   2.277   3.374 -0.6402  0.4517 -0.5835
  195MOL0     C26239   6.799   1.996   3.282 -0.5799  0.4785 -1.4523
  195MOL0     C26240   6.930   1.952   3.256  1.0577  0.4277 -0.2851
  195MOL0     N26241   7.635   1.694   3.608 -0.7392 -0.0726 -0.0453
  195MOL0     N26242   7.730   1.628   3.663 -0.0744 -0.0847  0.1791
  195MOL0     C26243   8.770   1.412   3.765 -0.7131 -1.2426 -0.1187
  195MOL0     C26244   8.893   1.406   3.691  0.2054 -0.4382 -0.3538
  195MOL0     C26245   9.306   1.366   3.521 -0.2047  0.3983 -1.1843
  195MOL0     C26246   9.359   1.427   3.408  0.2969 -0.4661 -0.0730
  195MOL0     C26247   9.488   1.406   3.366  0.1232  0.5403 -0.5688
  195MOL0     C26248   9.565   1.305   3.421 -0.0314 -0.3882 -0.3936
  195MOL0     O26249   9.691   1.295   3.375 -0.0703 -0.1036 -0.0791
  195MOL0     C26250   9.712   1.193   3.267  0.1454 -0.2610 -0.4203
  195MOL0     C26251   9.847   1.193   3.200  0.1091 -0.3017  0.6246
  195MOL0     C26252   9.886   1.324   3.121  0.3716  2.0948 -0.2784
  195MOL0     C26253  10.022   1.322   3.039 -0.0938 -0.0821 -0.5457
  195MOL0     C26254  10.023   1.229   2.930  0.0075 -0.7265 -0.7994
  195MOL0     C26255  10.018   1.131   2.859  0.1095  0.7122 -1.0352
  195MOL0     C26256   9.521   1.246   3.534 -0.2836 -0.4812 -0.1386
  195MOL0     C26257   9.397   1.284   3.587  0.0871 -0.0205  0.0965
  195MOL0     H26258   9.088   1.239   3.912 -0.1100 -1.8094 -2.1471
  195MOL0     H26259   8.883   1.239   4.037 -0.6163 -0.5783 -1.7152
  195MOL0     H26260   8.462   1.374   4.009  0.0101  2.6873 -0.1488
  195MOL0     H26261   8.524   1.472   3.872 -2.4005  0.4168  0.3593
  195MOL0     H26262   8.556   1.278   3.733  1.1237 -0.7467  0.5278
  195MOL0     H26263   8.548   1.173   3.874  0.0326 -0.3514  0.8704
  195MOL0     H26264   8.328   1.124   3.814  1.8422 -0.0870  3.8364
  195MOL0     H26265   8.301   1.281   3.872  1.3894 -0.7260  0.7811
  195MOL0     H26266   8.361   1.373   3.633 -0.4139 -0.4320 -1.5589
  195MOL0     H26267   8.376   1.210   3.589  2.2077 -0.7258  2.3923
  195MOL0     H26268   8.152   1.318   3.533 -3.0379 -0.7858 -1.1156
  195MOL0     H26269   8.138   1.160   3.616 -0.7208  0.2101  1.3707
  195MOL0     H26270   8.070   1.251   3.820 -0.2940  0.6580  0.3373
  195MOL0     H26271   8.138   1.411   3.773  1.5185 -0.3872 -0.8316
  195MOL0     H26272   7.883   1.279   3.637  1.1614  1.2301 -1.3499
  195MOL0     H26273   7.873   1.398   3.769 -0.7724  0.2668  0.5575
  195MOL0     H26274   7.951   1.454   3.488  0.1531  1.7977 -1.5999
  195MOL0     H26275   8.012   1.558   3.621  0.2548 -1.2451  0.7766
  195MOL0     H26276   7.802   1.558   3.354 -0.4835 -3.2598  0.7639
  195MOL0     H26277   7.602   1.790   3.315 -0.7872  0.7383  2.5630
  195MOL0     H26278   7.515   1.630   3.314 -0.0632 -1.2634 -0.8492
  195MOL0     H26279   7.457   1.840   3.520  2.4086 -0.3865 -0.9839
  195MOL0     H26280   7.355   1.704   3.477 -0.2383  0.0073 -0.5522
  195MOL0     H26281   7.320   1.789   3.264  1.1444 -2.9085  2.7816
  195MOL0     H26282   7.426   1.930   3.269 -0.8524 -0.4420 -2.1406
  195MOL0     H26283   7.275   2.041   3.433 -2.3237  1.6650 -1.7629
  195MOL0     H26284   7.188   1.881   3.456 -1.5661  0.4982 -1.3653
  195MOL0     H26285   7.094   2.219   3.398  2.4621 -2.5204 -0.3445
  195MOL0     H26286   6.801   2.333   3.532 -1.5366 -1.8304 -1.5802
  195MOL0     H26287   6.983   2.336   3.527  0.1126 -1.1042 -0.4295
  195MOL0     H26288   6.888   2.408   3.398  3.1093  0.3166 -0.1344
  195MOL0     H26289   6.442   2.206   3.592 -1.8705  1.0966  1.5352
  195MOL0     H26290   6.205   2.281   3.591  1.4761  0.2720  0.7143
  195MOL0     H26291   5.993   2.094   3.620 -2.1880  0.2143  0.3353
  195MOL0     H26292   5.958   2.265   3.627 -1.5711  0.5398  0.5264
  195MOL0     H26293   5.746   2.126   3.619 -2.3183  2.7100 -0.8391
  195MOL0     H26294   5.781   2.209   3.460  0.6090  2.4902  2.3473
  195MOL0     H26295   5.887   1.934   3.483  1.7643  1.7634  1.3791
  195MOL0     H26296   5.818   2.024   3.343  0.4762 -1.8068 -0.7091
  195MOL0     H26297   5.654   1.830   3.446 -0.6677  0.6298  1.0718
  195MOL0     H26298   5.616   1.949   3.565  4.4026  0.0134  1.3539
  195MOL0     H26299   5.598   1.987   3.270 -2.9050 -1.6731 -0.4107
  195MOL0     H26300   5.574   2.120   3.393 -1.1434  0.1336 -1.6519
  195MOL0     H26301   5.356   2.023   3.460  2.1255 -1.0104  2.4454
  195MOL0     H26302   5.385   2.067   3.288  1.0153  1.2750  1.7657
  195MOL0     H26303   5.409   1.787   3.392  2.7939  0.2838 -1.6479
  195MOL0     H26304   5.352   1.838   3.235 -2.4600  1.3797 -0.5128
  195MOL0     H26305   5.157   1.764   3.339  1.8244 -0.9156 -1.1696
  195MOL0     H26306   5.141   1.929   3.331  0.7303  0.6767 -0.4325
  195MOL0     H26307   6.126   1.996   3.283 -0.9801  1.1490  0.1869
  195MOL0     H26308   6.371   1.950   3.260  0.5639 -1.3237  1.9066
  195MOL0     H26309   6.710   1.938   3.261 -0.9666  1.1129 -1.5909
  195MOL0     H26310   6.948   1.856   3.208 -0.9743 -2.5251  4.2009
  195MOL0     H26311   8.681   1.464   3.729 -2.4451 -4.1709 -0.3664
  195MOL0     H26312   8.900   1.469   3.602  0.2276 -0.4760 -0.3790
  195MOL0     H26313   9.316   1.502   3.343  2.6624  0.6271 -0.4783
  195MOL0     H26314   9.527   1.456   3.278 -3.1037  0.6138 -2.0997
  195MOL0     H26315   9.686   1.095   3.308 -3.0566  0.6227 -0.1022
  195MOL0     H26316   9.633   1.227   3.199 -1.1109 -0.9966  0.6324
  195MOL0     H26317   9.849   1.116   3.122 -3.3353  0.2388 -0.1589
  195MOL0     H26318   9.931   1.173   3.267  2.6112 -1.5015 -2.6104
  195MOL0     H26319   9.893   1.390   3.208 -0.3532  0.6299  0.9279
  195MOL0     H26320   9.804   1.359   3.056 -1.5032 -0.0460  0.7801
  195MOL0     H26321  10.094   1.294   3.116  0.1310 -0.5114 -0.9071
  195MOL0     H26322  10.055   1.418   2.999  0.9936  0.2071  0.9487
  195MOL0     H26323  10.017   1.048   2.792 -1.0020 -1.5581  1.6195
  195MOL0     H26324   9.587   1.181   3.590 -0.5537  2.4476  4.0334
  195MOL0     H26325   9.371   1.234   3.680 -0.3588  0.3554  0.1755
  196MOL0     O26326   0.221  10.381   1.576  0.2414 -0.1527 -0.8341
  196MOL0     C26327   0.238  10.318   1.475 -0.2938  0.2307  0.2502
  196MOL0     O26328   0.150  10.296   1.379 -0.1385 -0.9906  0.2381
  196MOL0     C26329   0.017  10.332   1.403 -0.8756  0.4018  0.3027
  196MOL0     C26330  -0.049  10.400   1.304 -0.5475  0.1814 -0.2125
  196MOL0     C26331  -0.179  10.440   1.317  0.2729  0.2545 -0.1759
  196MOL0     C26332  -0.252  10.389   1.426  0.4811  0.3582  0.0787
  196MOL0     O26333  -0.387  10.414   1.450  0.1894  0.5856  0.6222
  196MOL0     C26334  -0.449  10.524   1.386  0.5295  0.3707 -0.1801
  196MOL0     C26335  -0.588  10.541   1.448 -0.1686 -1.3776  0.6879
  196MOL0     C26336  -0.647  10.667   1.385 -0.8029 -0.8441 -0.0118
  196MOL0     C26337  -0.797  10.675   1.416 -0.6293  0.7278  0.1846
  196MOL0     C26338  -0.826  10.726   1.558  0.5205 -0.3261  0.3712
  196MOL0     C26339  -0.810  10.879   1.581 -0.5084 -0.2472 -0.2654
  196MOL0     C26340  -0.885  10.951   1.465 -0.2431 -0.5208 -0.1343
  196MOL0     C26341  -0.894  11.101   1.489 -0.9710  0.3303 -0.7641
  196MOL0     N26342  -0.927  11.141   1.628  0.1890  0.3813 -0.4076
  196MOL0     C26343  -0.891  11.260   1.694  0.8371  0.1111  0.4994
  196MOL0     C26344  -0.967  11.250   1.813  0.4859  0.6019  0.5383
  196MOL0     C26345  -0.989  11.341   1.932 -0.5984 -0.0542 -0.2808
  196MOL0     C26346  -1.017  11.488   1.893  0.1667  0.0267  0.1182
  196MOL0     C26347  -1.081  11.572   2.009 -0.4912 -0.6932 -0.0465
  196MOL0     C26348  -1.228  11.535   2.037 -0.2205  0.0156 -0.8719
  196MOL0     O26349  -1.246  11.604   2.154  0.3914 -0.7980  0.1227
  196MOL0     C26350  -1.354  11.553   2.232  0.2042 -0.4797 -0.1860
  196MOL0     C26351  -1.334  11.527   2.368  0.4305  0.0137 -0.2436
  196MOL0     C26352  -1.430  11.475   2.461  0.3814 -0.4487  0.0753
  196MOL0     C26353  -1.404  11.490   2.606  0.8266  0.0796 -0.3647
  196MOL0     C26354  -1.559  11.444   2.404 -0.1382  1.1302  0.0193
  196MOL0     C26355  -1.670  11.388   2.488 -0.9492 -0.0036  0.7293
  196MOL0     O26356  -1.781  11.370   2.413  0.2960 -0.4795 -0.2285
  196MOL0     C26357  -1.909  11.336   2.450  0.4280  0.0133 -0.8702
  196MOL0     C26358  -1.996  11.262   2.369 -0.2769  0.0051 -0.4552
  196MOL0     C26359  -2.126  11.253   2.402 -0.6802  0.0810  0.1685
  196MOL0     C26360  -2.177  11.300   2.519 -0.4591 -0.0398  0.1308
  196MOL0     O26361  -2.313  11.284   2.541  0.0886 -0.4553 -0.5700
  196MOL0     C26362  -2.371  11.330   2.666 -0.4116  0.1565 -0.6442
  196MOL0     C26363  -2.528  11.314   2.640 -0.7695  0.4539 -0.5739
  196MOL0     C26364  -2.619  11.383   2.747 -0.2511  0.2743  0.0574
  196MOL0     C26365  -2.763  11.390   2.692 -0.9029  0.3179  0.3846
  196MOL0     C26366  -2.839  11.514   2.735 -0.1905  0.4162 -0.0869
  196MOL0     C26367  -2.967  11.530   2.651  0.1519  0.0054 -0.1684
  196MOL0     C26368  -3.069  11.415   2.654  0.0365 -0.7028  0.6215
  196MOL0     C26369  -3.207  11.459   2.622  0.2285  0.1144 -0.2176
  196MOL0    Cl26370  -3.232  11.530   2.452 -0.1364 -0.3434  0.4563
  196MOL0     C26371  -2.091  11.359   2.617 -0.0639 -0.6454  0.2989
  196MOL0     C26372  -1.963  11.386   2.572 -0.1437 -0.0184 -0.1448
  196MOL0     O26373  -1.660  11.350   2.603 -0.7546 -0.0006  0.4833
  196MOL0     C26374  -1.573  11.479   2.264  0.1831 -0.4705 -0.0296
  196MOL0     C26375  -1.481  11.520   2.185  0.3643 -0.2529 -0.6133
  196MOL0     N26376  -1.034  11.129   1.816  0.0392  0.0431  0.3453
  196MOL0     N26377  -1.027  11.084   1.698  0.4715 -0.3207 -0.0372
  196MOL0     C26378  -0.194  10.321   1.529 -0.5133 -0.8165  0.0877
  196MOL0     C26379  -0.062  10.292   1.520  0.0076 -0.3678 -0.3959
  196MOL0     C26380   0.372  10.251   1.464 -0.9323 -0.4959 -0.0969
  196MOL0     C26381   0.421  10.210   1.345  0.0121 -0.2926 -0.0868
  196MOL0     C26382   0.555  10.166   1.338  0.5129 -0.0931 -0.4593
  196MOL0     C26383   0.628  10.128   1.444 -0.7927  0.3028 -0.0965
  196MOL0     O26384   0.760  10.079   1.449  0.8950 -0.4364  0.0752
  196MOL0     C26385   0.864  10.146   1.373 -0.6159  0.3745  0.0745
  196MOL0     C26386   0.987  10.050   1.371 -0.0415 -0.0015  0.4531
  196MOL0     C26387   1.029  10.012   1.513  0.4476  0.2682 -0.1672
  196MOL0     C26388   1.051  10.128   1.612 -0.4130 -0.4299  0.0596
  196MOL0     C26389   1.148  10.080   1.711 -0.0369 -0.4125  0.5153
  196MOL0     C26390   1.226  10.045   1.802  0.3812  0.0685 -0.0820
  196MOL0     C26391   0.571  10.159   1.570 -0.8394  0.7511  1.0834
  196MOL0     C26392   0.452  10.222   1.584  0.3006  0.6902 -0.7366
  196MOL0     H26393   0.006  10.414   1.212  0.0905 -3.0364 -0.4188
  196MOL0     H26394  -0.227  10.498   1.239  2.2747  0.7005 -1.1356
  196MOL0     H26395  -0.404  10.624   1.390 -0.6391  0.8767  1.7940
  196MOL0     H26396  -0.467  10.505   1.280  1.4915 -0.6482 -0.1782
  196MOL0     H26397  -0.652  10.454   1.433 -1.1176 -0.3814 -1.4506
  196MOL0     H26398  -0.580  10.572   1.553  0.6390  0.5916  0.0884
  196MOL0     H26399  -0.601  10.758   1.426 -0.2174 -2.2298  2.5949
  196MOL0     H26400  -0.625  10.673   1.278 -1.6090  3.5764 -0.1324
  196MOL0     H26401  -0.851  10.732   1.340 -1.5463  1.0802  1.0782
  196MOL0     H26402  -0.848  10.578   1.412 -2.0390  1.3376  2.0356
  196MOL0     H26403  -0.933  10.710   1.575  0.2177 -0.4270 -1.3478
  196MOL0     H26404  -0.763  10.672   1.629 -0.9533 -3.3261 -0.3913
  196MOL0     H26405  -0.853  10.906   1.678  0.7366  0.0813  0.2213
  196MOL0     H26406  -0.702  10.898   1.579 -0.3753 -0.8951  0.2832
  196MOL0     H26407  -0.828  10.933   1.374  0.7447 -1.8819  0.6991
  196MOL0     H26408  -0.986  10.911   1.474  0.9648 -3.5200  1.7798
  196MOL0     H26409  -0.971  11.133   1.419 -1.8720 -1.0800 -0.4508
  196MOL0     H26410  -0.804  11.157   1.461 -1.0090 -0.1837 -1.9956
  196MOL0     H26411  -0.827  11.343   1.667  0.7145  0.8490  2.3212
  196MOL0     H26412  -1.078  11.311   1.989 -1.2948  1.3288 -0.5774
  196MOL0     H26413  -0.907  11.331   2.004  0.5038 -0.9035 -1.6038
  196MOL0     H26414  -1.097  11.484   1.819  0.3413  1.0423 -0.1460
  196MOL0     H26415  -0.932  11.538   1.845  0.4181 -0.6123 -0.1082
  196MOL0     H26416  -1.074  11.680   1.994  0.3209 -0.2240  2.9251
  196MOL0     H26417  -1.005  11.561   2.088  0.2289 -1.7189 -0.8541
  196MOL0     H26418  -1.237  11.427   2.056  1.4130  0.3201  2.3220
  196MOL0     H26419  -1.301  11.562   1.960  0.3055  1.5244 -0.8641
  196MOL0     H26420  -1.234  11.564   2.388  0.7650 -0.5490 -0.8269
  196MOL0     H26421  -1.459  11.579   2.638 -0.1908 -1.7392  3.3951
  196MOL0     H26422  -1.440  11.413   2.673 -0.2561  1.0573  0.2126
  196MOL0     H26423  -1.296  11.497   2.626  0.7359 -1.3916  0.8191
  196MOL0     H26424  -1.946  11.214   2.285  3.7597 -0.7371  2.0644
  196MOL0     H26425  -2.193  11.196   2.339 -2.2067 -2.3848  3.7575
  196MOL0     H26426  -2.340  11.265   2.748 -1.6876  0.1151 -0.1652
  196MOL0     H26427  -2.345  11.434   2.689 -3.0895  0.3411  2.1966
  196MOL0     H26428  -2.547  11.375   2.551 -0.0092  0.6779 -0.5936
  196MOL0     H26429  -2.545  11.210   2.610  3.0530 -1.0607  1.8504
  196MOL0     H26430  -2.582  11.485   2.764 -0.5866  0.3206  0.5395
  196MOL0     H26431  -2.613  11.326   2.840  1.6378 -1.5430 -1.1074
  196MOL0     H26432  -2.762  11.386   2.583  0.2436 -1.1156  0.4102
  196MOL0     H26433  -2.807  11.294   2.719 -2.9992  0.5675 -1.7849
  196MOL0     H26434  -2.772  11.597   2.710  1.0663 -0.5491 -0.0944
  196MOL0     H26435  -2.858  11.509   2.842  0.3112  2.8454  0.1751
  196MOL0     H26436  -3.024  11.620   2.675 -1.9552 -0.9858 -1.2015
  196MOL0     H26437  -2.929  11.532   2.548  4.3540 -1.0352  1.1554
  196MOL0     H26438  -3.064  11.350   2.742  2.1044  1.1287  1.9738
  196MOL0     H26439  -3.042  11.345   2.575 -0.7021 -2.3411  1.7521
  196MOL0     H26440  -3.238  11.535   2.695  1.8452 -0.3812  1.0731
  196MOL0     H26441  -3.265  11.367   2.633  2.7858 -1.9105 -2.3463
  196MOL0     H26442  -2.123  11.392   2.715 -0.8434 -3.7396  1.1917
  196MOL0     H26443  -1.903  11.441   2.643  1.5434 -0.9898 -0.7264
  196MOL0     H26444  -1.666  11.463   2.209 -0.0884  3.0271 -0.8228
  196MOL0     H26445  -1.503  11.539   2.080  1.4637 -1.9911 -1.1978
  196MOL0     H26446  -0.251  10.292   1.617  1.9260 -2.2138  1.2959
  196MOL0     H26447  -0.009  10.247   1.603 -2.6732 -3.3007 -0.0915
  196MOL0     H26448   0.357  10.221   1.258 -0.3528 -0.1928  0.1899
  196MOL0     H26449   0.604  10.133   1.246  2.6005  2.1161 -0.2387
  196MOL0     H26450   0.822  10.167   1.274 -2.6318  2.1365  1.2047
  196MOL0     H26451   0.893  10.244   1.411  0.2728  0.8950 -1.8479
  196MOL0     H26452   1.070  10.095   1.315  3.4270 -2.7096  2.9757
  196MOL0     H26453   0.964   9.957   1.317  5.1537 -2.4339  1.8362
  196MOL0     H26454   1.120   9.953   1.502  1.1114  1.0862  0.7395
  196MOL0     H26455   0.943   9.952   1.545 -0.5881  2.3483  1.1795
  196MOL0     H26456   0.955  10.158   1.656 -0.3908  0.2685 -0.3441
  196MOL0     H26457   1.104  10.207   1.558  2.4865 -2.4361 -0.2725
  196MOL0     H26458   1.297  10.025   1.879 -0.6477 -2.9763  0.1842
  196MOL0     H26459   0.637  10.128   1.651  0.8104 -0.4301 -0.6322
  196MOL0     H26460   0.415  10.250   1.682  2.7989 -1.1673  0.8606
  197MOL0     O26461  11.254   3.244   6.644  0.0686  0.2054  0.4873
  197MOL0     C26462  11.336   3.198   6.559 -1.3266 -0.3078 -0.7057
  197MOL0     O26463  11.315   3.089   6.481  0.2963 -0.4381 -0.0789
  197MOL0     C26464  11.189   3.034   6.472  0.7950  0.0572 -0.4607
  197MOL0     C26465  11.148   2.986   6.349  1.6926 -0.2856  0.1192
  197MOL0     C26466  11.017   2.928   6.320 -0.8599  0.3523 -0.1146
  197MOL0     C26467  10.924   2.906   6.424  0.1356 -0.2405 -0.1950
  197MOL0     O26468  10.808   2.831   6.398  0.3625  0.1293  0.7077
  197MOL0     C26469  10.684   2.911   6.400 -0.0089 -0.1214 -0.5298
  197MOL0     C26470  10.649   2.941   6.258 -1.2105 -0.1515 -0.2126
  197MOL0     C26471  10.516   3.007   6.229  0.1974 -0.0597 -0.3249
  197MOL0     C26472  10.384   2.931   6.281 -0.6181 -0.8326 -0.3683
  197MOL0     C26473  10.363   2.813   6.188  0.0019  0.6529 -0.4707
  197MOL0     C26474  10.246   2.734   6.241  0.3878 -0.2395  0.5773
  197MOL0     C26475  10.205   2.590   6.189 -0.6054 -0.6321  0.2448
  197MOL0     C26476  10.133   2.596   6.057  1.0709 -0.5470 -0.1388
  197MOL0     N26477  10.072   2.465   6.025  0.1633  0.8988  0.8030
  197MOL0     C26478   9.960   2.414   6.077 -0.8023  0.5838 -1.1241
  197MOL0     C26479   9.969   2.282   6.058  0.2509  0.1395  0.8566
  197MOL0     C26480   9.870   2.175   6.108 -0.3583 -0.2470 -0.0912
  197MOL0     C26481   9.733   2.194   6.061  1.5533  0.3191  0.0260
  197MOL0     C26482   9.635   2.098   6.128  0.1860  0.0829  0.3594
  197MOL0     C26483   9.493   2.101   6.062  0.2374 -0.1472 -0.0380
  197MOL0     O26484   9.390   2.052   6.150 -0.4871  0.3184  0.1161
  197MOL0     C26485   9.268   2.042   6.098  0.0530  0.6008 -0.5085
  197MOL0     C26486   9.220   2.132   6.002  0.8344  0.0648  0.0077
  197MOL0     C26487   9.086   2.128   5.966  0.5705 -0.2795 -0.4485
  197MOL0     C26488   9.043   2.228   5.863 -0.0524 -0.4115  0.1696
  197MOL0     C26489   9.000   2.034   6.015  0.0098 -0.0540  0.2040
  197MOL0     C26490   8.860   2.021   5.965  0.3366 -0.7673  0.2733
  197MOL0     O26491   8.795   2.134   5.943 -0.3046 -0.1134  0.1326
  197MOL0     C26492   8.674   2.122   5.880  0.5907 -0.0618  0.3157
  197MOL0     C26493   8.652   2.084   5.746  0.5602  1.0387  0.5332
  197MOL0     C26494   8.522   2.078   5.686  0.4991  0.0845  0.2929
  197MOL0     C26495   8.406   2.088   5.762 -0.4855 -0.1362  0.0916
  197MOL0     O26496   8.277   2.085   5.715  0.6119 -0.5356 -0.1302
  197MOL0     C26497   8.252   2.134   5.585  0.1535  0.6497  0.0160
  197MOL0     C26498   8.102   2.193   5.595  0.0655  0.2936  0.0185
  197MOL0     C26499   7.996   2.082   5.610 -0.0234  0.0535  0.4531
  197MOL0     C26500   7.863   2.131   5.599  0.6538 -0.7076  0.4437
  197MOL0     C26501   7.744   2.022   5.624 -0.3252  0.5318 -0.0955
  197MOL0     C26502   7.603   2.068   5.575  0.1330 -0.1643 -0.1910
  197MOL0     C26503   7.482   1.973   5.611 -0.1674  0.5647 -0.0849
  197MOL0     C26504   7.345   2.015   5.565 -0.1169  0.5051  0.1936
  197MOL0    Cl26505   7.297   2.179   5.592 -0.2111 -0.2391 -0.0718
  197MOL0     C26506   8.428   2.118   5.899 -0.3193 -0.1759 -0.0052
  197MOL0     C26507   8.556   2.144   5.957  0.5649  0.3893 -0.5275
  197MOL0     O26508   8.823   1.906   5.943  0.5414  0.1390 -0.1577
  197MOL0     C26509   9.050   1.938   6.111  0.6741 -0.8091 -0.1128
  197MOL0     C26510   9.186   1.948   6.154  0.4049  0.7604 -0.2925
  197MOL0     N26511  10.087   2.261   5.989  0.2312  0.6713 -0.2325
  197MOL0     N26512  10.150   2.369   5.975 -0.3611 -0.0937  0.2430
  197MOL0     C26513  10.971   2.939   6.553  0.3284  0.0369  1.1001
  197MOL0     C26514  11.098   3.007   6.579  0.0552 -0.2063 -0.0686
  197MOL0     C26515  11.477   3.252   6.559 -0.4760  0.1857 -0.1724
  197MOL0     C26516  11.588   3.215   6.473  1.0835  0.7742 -1.0091
  197MOL0     C26517  11.720   3.264   6.496  0.7678  0.1976  0.0044
  197MOL0     C26518  11.740   3.367   6.593 -0.4600  0.6667  0.2738
  197MOL0     O26519  11.859   3.416   6.636  0.0194  0.0866  0.1684
  197MOL0     C26520  11.968   3.318   6.630  0.7048 -0.3808 -0.4661
  197MOL0     C26521  12.086   3.391   6.688 -0.5574  0.1015 -0.6555
  197MOL0     C26522  12.208   3.301   6.678  0.4104  0.2794  0.0296
  197MOL0     C26523  12.330   3.351   6.748  1.1356  0.8436 -0.0950
  197MOL0     C26524  12.412   3.227   6.754 -0.3838 -1.1083  0.4702
  197MOL0     C26525  12.481   3.127   6.744  0.5870 -0.5329 -0.1462
  197MOL0     C26526  11.631   3.415   6.660  0.3929 -0.3087 -0.1891
  197MOL0     C26527  11.502   3.363   6.651  0.5279  0.1265  0.1182
  197MOL0     H26528  11.223   2.984   6.270  0.4089 -0.7756 -1.1310
  197MOL0     H26529  10.993   2.891   6.220  2.1852 -0.4458 -0.6554
  197MOL0     H26530  10.604   2.846   6.437  1.4671 -1.4333  0.5272
  197MOL0     H26531  10.687   3.001   6.462 -1.4610 -0.5785  0.2489
  197MOL0     H26532  10.734   2.991   6.211 -1.9842 -0.0437 -1.5438
  197MOL0     H26533  10.644   2.843   6.210 -3.3931  0.3490 -1.1572
  197MOL0     H26534  10.513   3.090   6.299 -0.8631  0.3058 -0.7897
  197MOL0     H26535  10.501   3.040   6.126 -0.4866 -3.3993 -1.4480
  197MOL0     H26536  10.387   2.916   6.389  2.0757  1.8112  0.0705
  197MOL0     H26537  10.298   2.998   6.277  1.4990  2.0945 -0.9343
  197MOL0     H26538  10.347   2.844   6.085 -0.4774  0.5497 -0.4291
  197MOL0     H26539  10.452   2.752   6.208  0.4770  1.7664  1.0550
  197MOL0     H26540  10.281   2.733   6.344  1.4377  2.8993  0.3605
  197MOL0     H26541  10.156   2.797   6.238 -0.3759 -1.2989  0.8125
  197MOL0     H26542  10.294   2.532   6.160 -0.1183  0.9528 -1.6639
  197MOL0     H26543  10.138   2.535   6.256 -5.0203  3.0841 -0.5953
  197MOL0     H26544  10.206   2.624   5.981  2.4834 -1.0115  1.0149
  197MOL0     H26545  10.060   2.677   6.043  0.0848 -1.3537  0.1454
  197MOL0     H26546   9.881   2.460   6.135 -0.8119 -1.0977  0.3048
  197MOL0     H26547   9.913   2.079   6.077  5.2107  1.0866  2.1279
  197MOL0     H26548   9.872   2.165   6.217 -0.2285 -1.8624 -0.2165
  197MOL0     H26549   9.731   2.185   5.952  2.2105  0.9301 -0.0397
  197MOL0     H26550   9.697   2.294   6.086 -3.0993 -0.9381 -0.5322
  197MOL0     H26551   9.634   2.127   6.234 -0.8258 -0.2875  0.4608
  197MOL0     H26552   9.668   1.994   6.121 -1.4378 -0.3899 -0.6460
  197MOL0     H26553   9.488   2.052   5.964 -0.8421  1.2466 -0.7131
  197MOL0     H26554   9.471   2.207   6.046  2.2993  0.4928  0.9872
  197MOL0     H26555   9.280   2.216   5.971 -2.7085  2.5186 -0.8300
  197MOL0     H26556   9.002   2.174   5.776 -0.4076 -1.5381  1.0124
  197MOL0     H26557   8.975   2.301   5.908 -2.8022  0.6256 -4.8599
  197MOL0     H26558   9.134   2.284   5.842 -0.8642  1.2005  0.7643
  197MOL0     H26559   8.739   2.056   5.687  0.2426  0.5307  0.2942
  197MOL0     H26560   8.517   2.048   5.582  0.8838 -2.6937  1.0005
  197MOL0     H26561   8.321   2.216   5.564  0.0501  1.0416  1.1424
  197MOL0     H26562   8.265   2.055   5.510 -3.0673  1.1625 -1.2487
  197MOL0     H26563   8.084   2.263   5.676 -0.2434 -1.2610  1.3507
  197MOL0     H26564   8.071   2.238   5.500 -0.9590  0.5650  0.4732
  197MOL0     H26565   8.009   2.034   5.707  1.6520  1.7283  1.1195
  197MOL0     H26566   8.005   2.013   5.525  0.3210  1.4299 -0.6833
  197MOL0     H26567   7.857   2.217   5.666  1.4781 -0.0384 -0.2986
  197MOL0     H26568   7.856   2.165   5.495  0.1137 -3.0185 -0.3179
  197MOL0     H26569   7.744   1.994   5.730  0.9635  1.3500  0.1473
  197MOL0     H26570   7.775   1.927   5.580  3.7356  1.5995  0.0852
  197MOL0     H26571   7.583   2.169   5.612  0.3801  1.5295 -4.2011
  197MOL0     H26572   7.606   2.088   5.468 -0.2521  1.0178  0.0027
  197MOL0     H26573   7.477   1.950   5.718 -0.4004 -3.6462 -0.8055
  197MOL0     H26574   7.500   1.872   5.572  1.7754  0.6359  0.5289
  197MOL0     H26575   7.269   1.958   5.619  1.8466 -0.3739  2.2116
  197MOL0     H26576   7.332   1.985   5.461 -1.0755 -3.0064  1.2096
  197MOL0     H26577   8.341   2.122   5.964 -0.5096  0.3890 -0.2819
  197MOL0     H26578   8.581   2.170   6.060  1.6459  1.3027 -1.0015
  197MOL0     H26579   8.982   1.864   6.153  0.1671 -1.4948 -2.0118
  197MOL0     H26580   9.218   1.886   6.236  1.2087 -1.8452 -2.4228
  197MOL0     H26581  10.909   2.909   6.637  1.9452 -0.2012  2.2451
  197MOL0     H26582  11.127   3.039   6.678 -2.2930 -0.5063  0.7866
  197MOL0     H26583  11.556   3.132   6.412 -0.4372  0.8018 -0.2866
  197MOL0     H26584  11.803   3.227   6.437  0.4217 -1.0234  0.2686
  197MOL0     H26585  11.943   3.223   6.678  2.1892 -1.8676 -2.4504
  197MOL0     H26586  11.985   3.289   6.526 -0.4506  1.6946 -1.2955
  197MOL0     H26587  12.070   3.421   6.792 -1.5956  0.7762 -0.9939
  197MOL0     H26588  12.096   3.484   6.632  0.0288 -0.7512 -2.0087
  197MOL0     H26589  12.230   3.275   6.574 -2.0929  0.8461 -0.6945
  197MOL0     H26590  12.180   3.208   6.729 -1.8039  2.5265  3.2917
  197MOL0     H26591  12.314   3.403   6.843 -0.3077  3.5634 -1.7008
  197MOL0     H26592  12.376   3.423   6.680 -3.2260  2.3505 -1.8139
  197MOL0     H26593  12.535   3.035   6.748 -2.1174 -2.2055  1.3878
  197MOL0     H26594  11.650   3.501   6.724  0.4328 -0.2363 -0.2974
  197MOL0     H26595  11.422   3.406   6.710  0.1518 -0.1753 -0.1680
  198MOL0     O26596   1.925   2.796   7.362  0.3728  0.4501 -0.4176
  198MOL0     C26597   1.866   2.715   7.427 -0.8040  0.8213  0.1161
  198MOL0     O26598   1.746   2.657   7.397  0.7503 -0.4832 -0.6497
  198MOL0     C26599   1.682   2.717   7.294 -0.1055 -0.9139  0.0163
  198MOL0     C26600   1.688   2.651   7.172 -0.0537 -0.3594 -0.1247
  198MOL0     C26601   1.624   2.711   7.059  0.0941  0.1296  0.2800
  198MOL0     C26602   1.542   2.828   7.078  0.4676 -0.2919 -0.2091
  198MOL0     O26603   1.458   2.883   6.978 -0.2504 -0.3145  0.3623
  198MOL0     C26604   1.529   2.899   6.863  0.3331 -0.9561  0.0431
  198MOL0     C26605   1.448   2.993   6.772 -0.3719 -0.3388 -0.5433
  198MOL0     C26606   1.513   3.026   6.635 -0.4732  0.4694 -0.2889
  198MOL0     C26607   1.591   3.163   6.648 -0.3250  0.1794  0.0628
  198MOL0     C26608   1.694   3.188   6.533  0.2831 -0.5432  0.0781
  198MOL0     C26609   1.803   3.071   6.530  0.6107  0.2957  0.0420
  198MOL0     C26610   1.891   3.102   6.415 -1.4544  0.1922 -0.2940
  198MOL0     C26611   2.013   3.002   6.430  0.0343 -1.0002 -0.6934
  198MOL0     N26612   2.105   3.027   6.327 -0.4745 -0.6731 -0.3045
  198MOL0     C26613   2.100   2.955   6.208  0.3124  0.7031  0.2786
  198MOL0     C26614   2.197   3.008   6.133 -0.7230  0.5696 -0.3523
  198MOL0     C26615   2.250   2.967   5.996  0.0165 -0.0437  0.1712
  198MOL0     C26616   2.395   2.917   6.010  0.2156 -0.0557  0.0738
  198MOL0     C26617   2.504   2.944   5.907  0.5389  0.3836  0.4326
  198MOL0     C26618   2.635   2.883   5.946 -0.7983 -0.1882  0.1125
  198MOL0     O26619   2.667   2.894   6.092 -0.3187 -0.1747  0.1993
  198MOL0     C26620   2.793   2.847   6.131  0.3480 -0.2680 -0.7039
  198MOL0     C26621   2.880   2.768   6.052 -0.3206  0.2172 -0.1148
  198MOL0     C26622   3.003   2.718   6.098  0.4873  0.7891 -0.3974
  198MOL0     C26623   3.103   2.643   6.010 -0.6459  0.1593 -1.3834
  198MOL0     C26624   3.026   2.742   6.234 -0.9075  0.7113 -0.3660
  198MOL0     C26625   3.157   2.707   6.300  0.2394  0.2466 -0.7447
  198MOL0     O26626   3.236   2.595   6.261  0.9618  0.0766  0.3801
  198MOL0     C26627   3.350   2.577   6.331 -0.2404  0.1801  1.0352
  198MOL0     C26628   3.474   2.605   6.272 -0.2869  0.6125 -1.0311
  198MOL0     C26629   3.591   2.598   6.348 -0.0422  0.3698 -0.5619
  198MOL0     C26630   3.587   2.553   6.481  1.0143 -0.2789  0.7628
  198MOL0     O26631   3.702   2.549   6.551  0.3994  0.1746 -0.6370
  198MOL0     C26632   3.693   2.625   6.674 -0.0613 -0.1671 -0.5400
  198MOL0     C26633   3.821   2.596   6.757  0.1201  0.2901  0.7888
  198MOL0     C26634   3.847   2.703   6.859  0.1268  0.4282 -0.0650
  198MOL0     C26635   3.994   2.703   6.910  1.1500 -0.1029 -0.1666
  198MOL0     C26636   4.007   2.762   7.055  0.4369 -0.9475 -0.8181
  198MOL0     C26637   4.152   2.746   7.106 -0.4339  0.8963 -0.1827
  198MOL0     C26638   4.264   2.831   7.044 -0.5623 -0.4995 -0.1439
  198MOL0     C26639   4.410   2.782   7.067 -0.6732 -0.6340  0.0248
  198MOL0    Cl26640   4.480   2.655   6.958 -0.5192  0.3445  0.0302
  198MOL0     C26641   3.464   2.509   6.532  0.1822 -1.5506 -0.0591
  198MOL0     C26642   3.350   2.522   6.455 -0.0686  0.6693 -0.3503
  198MOL0     O26643   3.188   2.781   6.398  0.2886  0.3200  0.8797
  198MOL0     C26644   2.928   2.805   6.323 -0.5768  0.0761 -0.0355
  198MOL0     C26645   2.811   2.857   6.266 -0.4447  0.7704  0.3446
  198MOL0     N26646   2.258   3.106   6.200  0.1110  0.0562  0.2191
  198MOL0     N26647   2.214   3.110   6.320 -0.2587  0.1593 -0.1014
  198MOL0     C26648   1.539   2.895   7.200 -0.1079 -0.3637  0.2227
  198MOL0     C26649   1.611   2.834   7.309  0.2099 -0.8419  0.3820
  198MOL0     C26650   1.937   2.655   7.542 -0.6621 -0.1704  0.6348
  198MOL0     C26651   1.873   2.564   7.625  0.1909  0.5548 -0.4251
  198MOL0     C26652   1.932   2.502   7.730  0.5920 -0.3398 -0.2364
  198MOL0     C26653   2.065   2.526   7.750 -0.0281  1.0216  0.3845
  198MOL0     O26654   2.120   2.448   7.855  0.7000  0.1876  0.4024
  198MOL0     C26655   2.241   2.494   7.908 -0.3701 -0.1480  0.9573
  198MOL0     C26656   2.251   2.437   8.047  0.4149  0.0277 -0.5897
  198MOL0     C26657   2.290   2.293   8.071  0.4988  1.4414  0.0013
  198MOL0     C26658   2.382   2.266   8.187  0.4522  0.1276  0.0187
  198MOL0     C26659   2.515   2.333   8.182  0.6018  0.4052 -0.5229
  198MOL0     C26660   2.613   2.393   8.195 -0.0730 -0.1403  0.8002
  198MOL0     C26661   2.133   2.629   7.675  0.3148  0.1072  1.5222
  198MOL0     C26662   2.066   2.690   7.575 -0.4435  0.2248  0.2237
  198MOL0     H26663   1.735   2.557   7.147 -0.6721 -0.8983  0.6887
  198MOL0     H26664   1.622   2.652   6.968 -2.7079  0.0531  0.3110
  198MOL0     H26665   1.623   2.952   6.879  0.2054 -0.3373 -1.1654
  198MOL0     H26666   1.549   2.805   6.810  0.2640  0.4493 -2.5997
  198MOL0     H26667   1.349   2.948   6.755 -0.1277 -2.5826  2.9656
  198MOL0     H26668   1.427   3.087   6.823 -0.7272  0.6378 -2.4121
  198MOL0     H26669   1.571   2.944   6.593 -0.8391  0.5009 -0.8625
  198MOL0     H26670   1.447   3.054   6.553 -0.3397 -0.8946 -0.8794
  198MOL0     H26671   1.509   3.236   6.645 -0.6687 -0.2209 -0.2486
  198MOL0     H26672   1.641   3.172   6.745  1.2180 -1.5512 -0.5209
  198MOL0     H26673   1.647   3.195   6.435 -0.3533 -5.2752 -0.2171
  198MOL0     H26674   1.738   3.287   6.550  1.5193 -1.1743  0.7408
  198MOL0     H26675   1.845   3.066   6.630 -2.1342  0.8682  1.3322
  198MOL0     H26676   1.758   2.971   6.524  0.2416  0.5015 -0.8608
  198MOL0     H26677   1.848   3.080   6.318 -1.2217 -0.6301 -0.2221
  198MOL0     H26678   1.923   3.206   6.413 -0.1204 -0.2045 -1.6398
  198MOL0     H26679   1.987   2.896   6.436  2.2372 -1.6032 -0.8595
  198MOL0     H26680   2.067   3.011   6.525 -0.1926 -2.1921 -0.4421
  198MOL0     H26681   2.038   2.871   6.181  1.4022 -0.5074  1.4033
  198MOL0     H26682   2.182   2.897   5.946  1.1941 -3.2165  2.6443
  198MOL0     H26683   2.256   3.059   5.936  2.4844  1.0592  1.9605
  198MOL0     H26684   2.401   2.809   6.022  1.5433  0.0582  0.6827
  198MOL0     H26685   2.441   2.968   6.096  0.4666  1.5357 -0.9521
  198MOL0     H26686   2.518   3.051   5.888  2.2130 -0.2003 -2.2110
  198MOL0     H26687   2.481   2.899   5.810  0.4526  0.5439  0.3787
  198MOL0     H26688   2.705   2.935   5.880 -2.1906  3.0691  0.9994
  198MOL0     H26689   2.628   2.777   5.924 -0.6951 -0.2497  0.3715
  198MOL0     H26690   2.873   2.764   5.944  1.1325  0.8154 -0.2540
  198MOL0     H26691   3.064   2.622   5.910  3.2762  0.2441 -3.1300
  198MOL0     H26692   3.197   2.699   6.002  1.0220 -1.7159  2.3694
  198MOL0     H26693   3.130   2.549   6.059 -0.0110  0.2831 -1.4835
  198MOL0     H26694   3.473   2.650   6.173  0.0291  2.2320 -0.3382
  198MOL0     H26695   3.685   2.620   6.297 -0.7648  1.0102 -1.6686
  198MOL0     H26696   3.687   2.732   6.651  0.3409 -0.4224 -1.9713
  198MOL0     H26697   3.606   2.603   6.736 -0.5644  0.3109 -1.0670
  198MOL0     H26698   3.815   2.499   6.807  1.0472 -1.1407 -1.7257
  198MOL0     H26699   3.906   2.589   6.689  1.2277  1.3073  1.9981
  198MOL0     H26700   3.769   2.683   6.934 -0.0341 -4.0548 -1.1738
  198MOL0     H26701   3.830   2.805   6.823 -0.5732 -0.4750 -2.4875
  198MOL0     H26702   4.024   2.599   6.919 -1.3330 -0.9579 -0.9665
  198MOL0     H26703   4.062   2.754   6.841 -1.4259  0.2541 -2.6721
  198MOL0     H26704   3.926   2.724   7.117 -0.9545 -3.1678 -3.7158
  198MOL0     H26705   3.998   2.871   7.048 -0.2490 -1.0225 -1.1615
  198MOL0     H26706   4.141   2.773   7.212 -3.0037  2.8383 -0.8339
  198MOL0     H26707   4.158   2.637   7.103 -2.9103  0.6632  0.8996
  198MOL0     H26708   4.245   2.927   7.091 -0.8966 -0.0267 -1.2238
  198MOL0     H26709   4.254   2.837   6.935  1.1879  0.1463 -0.2995
  198MOL0     H26710   4.423   2.777   7.176 -0.8428 -1.0818  0.0251
  198MOL0     H26711   4.461   2.875   7.040  0.1481 -1.0148  0.2436
  198MOL0     H26712   3.452   2.454   6.625 -0.9481 -2.3156 -0.6430
  198MOL0     H26713   3.256   2.493   6.500 -0.6208 -1.6726 -2.7693
  198MOL0     H26714   2.930   2.815   6.431  0.6311  1.1661 -0.1268
  198MOL0     H26715   2.738   2.891   6.338 -1.1850 -1.9292  0.9749
  198MOL0     H26716   1.473   2.980   7.214 -0.8308 -0.9887  0.7186
  198MOL0     H26717   1.622   2.874   7.409  2.1818  3.0954 -1.1753
  198MOL0     H26718   1.771   2.533   7.604  0.3405 -1.6561  1.6926
  198MOL0     H26719   1.881   2.431   7.795  0.0158  0.3067  0.0290
  198MOL0     H26720   2.325   2.458   7.847 -1.9926  0.4917 -1.8636
  198MOL0     H26721   2.247   2.603   7.900  1.1597 -0.3193 -1.8233
  198MOL0     H26722   2.148   2.446   8.082 -0.5967  0.1567 -3.3269
  198MOL0     H26723   2.314   2.502   8.108  1.6397 -2.3261  0.7714
  198MOL0     H26724   2.346   2.253   7.986  0.3264  1.1382  0.0290
  198MOL0     H26725   2.203   2.228   8.086  1.3686  0.4992  1.2353
  198MOL0     H26726   2.391   2.157   8.195 -1.2433 -0.1800 -1.4734
  198MOL0     H26727   2.327   2.294   8.277 -0.2797  0.3491 -0.4944
  198MOL0     H26728   2.710   2.440   8.198  0.1674 -0.3239 -1.7265
  198MOL0     H26729   2.235   2.659   7.697  1.5031 -0.3816 -2.5389
  198MOL0     H26730   2.110   2.772   7.519  2.7240  0.3213  2.5855
  199MOL0     O26731   0.257   7.823   4.575  0.5953  0.0342  0.4820
  199MOL0     C26732   0.211   7.936   4.566 -0.1408  0.8349 -0.7860
  199MOL0     O26733   0.281   8.047   4.520  0.1843 -0.2420 -0.1031
  199MOL0     C26734   0.418   8.020   4.501  0.1358 -0.4466  0.0869
  199MOL0     C26735   0.462   7.960   4.380 -0.1046  0.4159 -0.0513
  199MOL0     C26736   0.591   7.925   4.363 -0.0915 -0.8889 -0.0555
  199MOL0     C26737   0.689   7.951   4.457 -0.3157 -0.1522  0.4930
  199MOL0     O26738   0.820   7.900   4.426  0.1258  0.8905  0.7441
  199MOL0     C26739   0.927   7.983   4.475 -0.7452  0.3372  0.4127
  199MOL0     C26740   1.064   7.934   4.423  0.0892 -1.1274 -0.2041
  199MOL0     C26741   1.182   8.018   4.473  0.0951 -0.6701  0.2540
  199MOL0     C26742   1.172   8.160   4.431 -0.0626 -0.5099 -0.1601
  199MOL0     C26743   1.315   8.213   4.441  0.0675 -0.6784 -0.9598
  199MOL0     C26744   1.320   8.372   4.424 -0.6295  0.2074 -0.8424
  199MOL0     C26745   1.447   8.421   4.483  0.1536 -0.3795 -0.4204
  199MOL0     C26746   1.568   8.403   4.392 -0.8142 -0.2096  0.4078
  199MOL0     N26747   1.693   8.409   4.467 -0.5027 -0.2580  0.8973
  199MOL0     C26748   1.763   8.297   4.504 -1.2890 -0.8584  0.2362
  199MOL0     C26749   1.880   8.345   4.539 -0.4280  0.7160  0.8896
  199MOL0     C26750   1.995   8.267   4.597  0.3999  0.5431  0.6680
  199MOL0     C26751   2.000   8.276   4.751 -0.1629 -0.9685  0.3463
  199MOL0     C26752   2.047   8.412   4.820 -0.0049  0.0725  0.5204
  199MOL0     C26753   2.197   8.451   4.796  0.1664  0.0130  0.2719
  199MOL0     O26754   2.232   8.584   4.842 -0.6268  0.3151 -0.6390
  199MOL0     C26755   2.372   8.618   4.849  0.6084  0.1580  0.0376
  199MOL0     C26756   2.470   8.527   4.873 -0.0165 -0.7687  0.3445
  199MOL0     C26757   2.603   8.566   4.881  0.2712  0.9886  0.9889
  199MOL0     C26758   2.698   8.452   4.925 -0.2948 -0.1361  0.3794
  199MOL0     C26759   2.643   8.699   4.869 -0.3015 -0.8985 -0.0895
  199MOL0     C26760   2.786   8.745   4.887 -0.3607 -0.1212 -0.2787
  199MOL0     O26761   2.809   8.879   4.928 -0.7611  0.0374 -0.0253
  199MOL0     C26762   2.943   8.923   4.940  0.5457 -0.3678  1.3634
  199MOL0     C26763   2.992   8.984   5.055  0.0915 -1.2078 -0.0939
  199MOL0     C26764   3.116   9.054   5.050  0.7863  0.3613 -0.3623
  199MOL0     C26765   3.181   9.067   4.927 -0.7374  0.1927  0.8918
  199MOL0     O26766   3.297   9.149   4.918  0.2080  0.1319  0.1597
  199MOL0     C26767   3.412   9.114   4.836  0.0771  0.0760  0.4636
  199MOL0     C26768   3.516   9.218   4.874 -0.2018 -0.1763  0.5426
  199MOL0     C26769   3.612   9.230   4.752 -0.5449 -0.2414 -0.4228
  199MOL0     C26770   3.735   9.304   4.797 -0.5751 -0.4850  0.3006
  199MOL0     C26771   3.794   9.357   4.666  0.6131 -0.1549  0.9194
  199MOL0     C26772   3.946   9.391   4.682  0.0014 -0.6742  0.1028
  199MOL0     C26773   3.977   9.515   4.774  0.9650 -0.0594 -0.2615
  199MOL0     C26774   4.110   9.506   4.854 -0.9299  0.4314 -0.1404
  199MOL0    Cl26775   4.243   9.596   4.760 -0.1155  0.3025 -0.2585
  199MOL0     C26776   3.135   9.001   4.809  0.4145 -0.4164 -0.0427
  199MOL0     C26777   3.023   8.929   4.822  0.7239 -0.2744  0.0007
  199MOL0     O26778   2.874   8.659   4.866  0.3644 -0.1339  0.5322
  199MOL0     C26779   2.546   8.791   4.845  0.8132  0.2171 -0.6603
  199MOL0     C26780   2.414   8.752   4.825  0.5101  0.2245  0.3968
  199MOL0     N26781   1.893   8.481   4.515 -0.9222 -0.4548 -0.4735
  199MOL0     N26782   1.779   8.517   4.468  0.0470  0.1731 -0.1277
  199MOL0     C26783   0.648   8.024   4.573  0.2072 -0.3992 -0.0860
  199MOL0     C26784   0.514   8.067   4.588 -0.6322  0.5762  0.1693
  199MOL0     C26785   0.075   7.955   4.608 -0.1756 -0.2604  1.0784
  199MOL0     C26786  -0.007   7.855   4.661 -0.6435  0.7132 -0.4603
  199MOL0     C26787  -0.137   7.880   4.708  0.2159  0.5742  0.5675
  199MOL0     C26788  -0.186   8.003   4.690  0.7570 -0.5280  0.1302
  199MOL0     O26789  -0.308   8.027   4.749  0.4512 -0.6454 -1.1812
  199MOL0     C26790  -0.360   8.158   4.736  0.3868  0.1954  0.5476
  199MOL0     C26791  -0.493   8.170   4.789  0.8001 -0.2143  0.1309
  199MOL0     C26792  -0.568   8.296   4.743 -0.2856 -0.7366 -0.3715
  199MOL0     C26793  -0.699   8.316   4.828 -0.1484 -0.4384 -0.7022
  199MOL0     C26794  -0.802   8.216   4.817  0.5417 -0.1094 -0.1179
  199MOL0     C26795  -0.879   8.126   4.807  0.2102  0.3196 -0.1098
  199MOL0     C26796  -0.106   8.104   4.639  0.3929 -0.9807 -0.1900
  199MOL0     C26797   0.019   8.083   4.596  0.2609  0.7631 -0.2386
  199MOL0     H26798   0.384   7.943   4.306 -1.6083 -0.3082  1.6102
  199MOL0     H26799   0.621   7.888   4.265 -1.1969 -1.5706 -0.1469
  199MOL0     H26800   0.912   8.086   4.441  0.9918  0.9982  1.5316
  199MOL0     H26801   0.929   7.988   4.584  1.5362 -0.3068  0.4504
  199MOL0     H26802   1.079   7.828   4.443 -1.7697 -1.0480  2.0441
  199MOL0     H26803   1.065   7.947   4.314  1.5178  0.0588 -0.0782
  199MOL0     H26804   1.202   8.006   4.580 -0.7110 -0.2220  0.4674
  199MOL0     H26805   1.270   7.974   4.425  0.9105  1.2356 -0.0446
  199MOL0     H26806   1.133   8.164   4.329 -3.1456 -1.5614  0.8649
  199MOL0     H26807   1.122   8.224   4.504 -1.5719  2.1462 -3.2667
  199MOL0     H26808   1.353   8.195   4.543  1.2982  2.4259 -0.7786
  199MOL0     H26809   1.387   8.173   4.369  2.3653  2.1445 -0.4408
  199MOL0     H26810   1.303   8.406   4.321 -1.2697  0.4603 -0.6593
  199MOL0     H26811   1.244   8.412   4.492  1.0644  0.1237  1.2020
  199MOL0     H26812   1.438   8.527   4.511 -2.2388 -1.1817  2.4390
  199MOL0     H26813   1.469   8.362   4.573  0.6925 -3.3017 -2.3219
  199MOL0     H26814   1.570   8.489   4.325 -2.5068  2.2313  3.2618
  199MOL0     H26815   1.550   8.311   4.334 -0.1164  0.4235 -0.8436
  199MOL0     H26816   1.736   8.191   4.505 -4.3041 -0.2002  2.3484
  199MOL0     H26817   1.974   8.162   4.576  2.4268  0.1532  0.3320
  199MOL0     H26818   2.087   8.293   4.544 -1.1282  3.1617 -0.9378
  199MOL0     H26819   2.071   8.203   4.790  2.0679  0.9961  0.2099
  199MOL0     H26820   1.904   8.247   4.796  0.0251 -0.5399  1.0512
  199MOL0     H26821   2.030   8.403   4.928 -0.1162 -0.9535  0.4235
  199MOL0     H26822   1.976   8.481   4.773 -0.7387 -0.9430  0.0965
  199MOL0     H26823   2.213   8.443   4.688 -1.3366  1.4087 -0.0957
  199MOL0     H26824   2.256   8.376   4.848 -0.2617 -0.0175  0.7149
  199MOL0     H26825   2.440   8.425   4.895  0.8386 -0.6829  2.0811
  199MOL0     H26826   2.739   8.399   4.839 -2.1212 -3.7778  1.5492
  199MOL0     H26827   2.772   8.495   4.994 -0.1676 -0.1938  0.2803
  199MOL0     H26828   2.645   8.377   4.984 -0.1116 -0.6916 -0.1612
  199MOL0     H26829   2.918   8.976   5.133 -0.4979 -0.9100 -0.6155
  199MOL0     H26830   3.144   9.113   5.137 -0.2935  4.0566 -2.3168
  199MOL0     H26831   3.449   9.013   4.856 -0.5686 -0.4138 -0.7265
  199MOL0     H26832   3.381   9.114   4.731 -3.8870  0.2460  1.4925
  199MOL0     H26833   3.469   9.315   4.891  0.0021 -0.2608  1.7090
  199MOL0     H26834   3.572   9.183   4.962  0.5271 -1.9039 -0.5467
  199MOL0     H26835   3.554   9.285   4.678 -3.2586  2.1667  3.1236
  199MOL0     H26836   3.638   9.131   4.715 -0.8117  0.0200 -1.3288
  199MOL0     H26837   3.718   9.384   4.869  0.9461  0.5893 -0.4710
  199MOL0     H26838   3.804   9.236   4.849 -0.3849  0.2528  1.0258
  199MOL0     H26839   3.743   9.448   4.633  2.2017  0.3326 -0.3213
  199MOL0     H26840   3.767   9.286   4.587 -3.5684 -0.5618  2.4995
  199MOL0     H26841   3.999   9.303   4.719  2.4203  0.8568  0.4422
  199MOL0     H26842   3.989   9.409   4.583 -0.3024 -0.3661  0.0244
  199MOL0     H26843   3.894   9.536   4.841  1.5120 -1.3914  0.8768
  199MOL0     H26844   3.979   9.610   4.720 -2.5684  0.7929  0.8120
  199MOL0     H26845   4.135   9.400   4.870 -1.3592  0.4084  0.4123
  199MOL0     H26846   4.096   9.552   4.952  2.4772  1.3334  0.0420
  199MOL0     H26847   3.191   8.999   4.716  4.1997  0.5857  2.0038
  199MOL0     H26848   2.988   8.879   4.732  1.3085 -1.0700  0.2018
  199MOL0     H26849   2.567   8.898   4.847  0.2534  0.3291 -0.4902
  199MOL0     H26850   2.335   8.824   4.806 -1.8238 -1.2074  3.6745
  199MOL0     H26851   0.721   8.043   4.651  3.0592 -0.6146 -2.5181
  199MOL0     H26852   0.475   8.121   4.674  1.1628  0.3140  1.2068
  199MOL0     H26853   0.031   7.753   4.668  2.0693  1.6583 -0.0644
  199MOL0     H26854  -0.188   7.801   4.763 -0.3014  1.7209  1.7709
  199MOL0     H26855  -0.295   8.228   4.790 -0.0665 -0.7859  2.4584
  199MOL0     H26856  -0.359   8.198   4.634  4.5917  2.5366  1.2867
  199MOL0     H26857  -0.487   8.165   4.898  1.7065 -1.1301  0.0489
  199MOL0     H26858  -0.554   8.083   4.763 -2.0356  1.3231  1.1933
  199MOL0     H26859  -0.586   8.296   4.635 -2.0768  3.4015 -0.2527
  199MOL0     H26860  -0.501   8.381   4.760 -1.1944 -0.0928  0.0734
  199MOL0     H26861  -0.758   8.406   4.809 -1.7467 -1.8929 -3.4355
  199MOL0     H26862  -0.676   8.320   4.935 -0.2362  0.2930 -0.7061
  199MOL0     H26863  -0.960   8.059   4.789 -0.8436  1.7658 -1.0147
  199MOL0     H26864  -0.131   8.210   4.629  3.4512 -0.1137  0.2127
  199MOL0     H26865   0.072   8.173   4.566 -0.2472  1.7041  1.5265
  200MOL0     O26866   7.159   0.626   5.575  0.2869  1.1572 -0.0399
  200MOL0     C26867   7.186   0.561   5.474 -0.4541  0.7031 -0.3327
  200MOL0     O26868   7.103   0.557   5.370  0.0975 -0.5624  0.6806
  200MOL0     C26869   6.976   0.609   5.364 -0.1632  0.6928 -0.2471
  200MOL0     C26870   6.888   0.639   5.465 -0.5490 -1.0246  0.0169
  200MOL0     C26871   6.758   0.690   5.443 -0.5880  0.4463 -0.0746
  200MOL0     C26872   6.717   0.722   5.314  0.4197 -0.6070  0.7903
  200MOL0     O26873   6.599   0.792   5.303  0.0432 -0.6136 -0.0192
  200MOL0     C26874   6.533   0.786   5.172  0.2809  0.2229 -1.0342
  200MOL0     C26875   6.395   0.848   5.190 -0.8979  0.5841  0.4650
  200MOL0     C26876   6.297   0.851   5.073  0.0639 -0.0144  0.1185
  200MOL0     C26877   6.272   0.718   4.998 -0.7648 -0.6458 -0.2512
  200MOL0     C26878   6.177   0.722   4.878 -0.1534 -0.3207  0.4233
  200MOL0     C26879   6.027   0.729   4.913  0.0768  0.1942  0.9972
  200MOL0     C26880   5.942   0.685   4.789 -0.3170 -1.1298 -0.5025
  200MOL0     C26881   5.797   0.651   4.839 -0.2340 -0.0204  0.1038
  200MOL0     N26882   5.723   0.593   4.731 -0.1816  0.1461 -0.2513
  200MOL0     C26883   5.689   0.668   4.621  0.7669  0.4316 -0.2950
  200MOL0     C26884   5.604   0.583   4.552  0.3573 -0.5515 -0.0214
  200MOL0     C26885   5.553   0.620   4.416 -0.5358 -0.0301 -0.5502
  200MOL0     C26886   5.407   0.660   4.418  0.4592 -0.6864 -0.0526
  200MOL0     C26887   5.322   0.536   4.468 -0.0677 -0.0930  0.0159
  200MOL0     C26888   5.171   0.537   4.430  0.3756 -0.0609 -1.3816
  200MOL0     O26889   5.115   0.441   4.517 -0.6314  0.1652 -0.1914
  200MOL0     C26890   4.979   0.445   4.553 -0.3565  0.5473 -0.3272
  200MOL0     C26891   4.886   0.517   4.477 -0.0285  0.3775  0.0669
  200MOL0     C26892   4.750   0.530   4.513  0.0756 -0.0387  0.6537
  200MOL0     C26893   4.657   0.612   4.427 -0.0352  0.0970  0.0583
  200MOL0     C26894   4.706   0.464   4.637  0.9016  0.3680 -0.8110
  200MOL0     C26895   4.567   0.475   4.698  0.5563  0.2385 -0.2396
  200MOL0     O26896   4.548   0.407   4.811 -0.3377 -0.8749 -0.9304
  200MOL0     C26897   4.427   0.409   4.880 -0.5744 -0.2140  0.2173
  200MOL0     C26898   4.433   0.385   5.017 -0.3896 -0.3915  0.6818
  200MOL0     C26899   4.318   0.384   5.100 -0.0759  0.7131 -0.0251
  200MOL0     C26900   4.194   0.409   5.043  1.2910  0.5625  1.1777
  200MOL0     O26901   4.087   0.380   5.122  0.7062 -0.7214  0.1992
  200MOL0     C26902   3.956   0.421   5.072  0.2296  0.6619 -0.5990
  200MOL0     C26903   3.860   0.403   5.186 -0.4352  1.1727 -0.1291
  200MOL0     C26904   3.707   0.405   5.155  0.7075  0.5226  0.4501
  200MOL0     C26905   3.666   0.518   5.052  0.3817 -0.1566  0.4385
  200MOL0     C26906   3.540   0.600   5.076 -0.9330  0.1777 -1.0552
  200MOL0     C26907   3.531   0.719   4.973  0.1747  1.3720 -0.4193
  200MOL0     C26908   3.514   0.671   4.821  0.3004  0.2000  0.1471
  200MOL0     C26909   3.387   0.731   4.757  0.2975  0.0102 -0.2139
  200MOL0    Cl26910   3.381   0.893   4.761  0.0684 -0.0825  0.1545
  200MOL0     C26911   4.181   0.411   4.902  0.4262 -0.7932  1.0555
  200MOL0     C26912   4.304   0.416   4.821  0.9901  0.1522 -0.1586
  200MOL0     O26913   4.495   0.562   4.654 -0.1162 -0.4591 -0.2273
  200MOL0     C26914   4.809   0.401   4.706  0.4455 -0.0924 -0.2703
  200MOL0     C26915   4.940   0.382   4.666 -0.3000 -0.1468  0.3335
  200MOL0     N26916   5.580   0.471   4.627 -0.2753 -0.8269 -0.0952
  200MOL0     N26917   5.656   0.479   4.737  0.4031 -0.2069  1.2244
  200MOL0     C26918   6.802   0.672   5.206 -0.0624  0.8375 -0.2851
  200MOL0     C26919   6.928   0.613   5.231 -0.0032 -0.8775 -0.2258
  200MOL0     C26920   7.320   0.497   5.468 -0.5003  0.4788 -0.1588
  200MOL0     C26921   7.427   0.534   5.552  0.5086 -0.2528 -0.5605
  200MOL0     C26922   7.553   0.470   5.540  0.4058 -0.3695  0.9908
  200MOL0     C26923   7.575   0.369   5.445 -0.1294 -0.3464 -0.0981
  200MOL0     O26924   7.708   0.324   5.430  0.3487  0.0722 -0.0943
  200MOL0     C26925   7.743   0.235   5.325  0.6968  0.5807 -0.3349
  200MOL0     C26926   7.759   0.309   5.187 -0.2683 -0.3852  0.0564
  200MOL0     C26927   7.874   0.260   5.092 -0.2953  0.2586 -0.5754
  200MOL0     C26928   8.014   0.259   5.155 -0.2350 -1.0738 -1.0833
  200MOL0     C26929   8.037   0.401   5.192 -0.3285 -0.0755  0.0179
  200MOL0     C26930   8.051   0.509   5.220 -0.1385 -0.3649  0.0551
  200MOL0     C26931   7.461   0.320   5.365  0.6460 -0.7318 -0.4835
  200MOL0     C26932   7.340   0.387   5.375 -0.1585 -0.0572 -0.3346
  200MOL0     H26933   6.925   0.620   5.565  0.5785  0.5904 -0.0671
  200MOL0     H26934   6.695   0.716   5.527 -1.3407 -2.1015  0.2257
  200MOL0     H26935   6.583   0.850   5.098 -2.0039  0.4102 -2.5097
  200MOL0     H26936   6.531   0.682   5.139 -0.0221  0.5397 -2.0487
  200MOL0     H26937   6.342   0.793   5.269  1.0448  0.3453  1.6737
  200MOL0     H26938   6.408   0.947   5.234 -2.9786 -0.1774  3.0696
  200MOL0     H26939   6.201   0.876   5.118 -0.2674 -1.9053  0.5369
  200MOL0     H26940   6.340   0.930   5.011  1.1057 -0.3213  0.4167
  200MOL0     H26941   6.365   0.688   4.947  0.8427  0.3818  1.9070
  200MOL0     H26942   6.230   0.657   5.078  0.7762  1.9033  2.7709
  200MOL0     H26943   6.204   0.799   4.806  2.5958 -3.0284 -1.6915
  200MOL0     H26944   6.197   0.639   4.810  1.0851  3.1898 -3.9114
  200MOL0     H26945   6.013   0.658   4.995  0.4778 -0.5758  0.4080
  200MOL0     H26946   6.004   0.833   4.940  4.5624  2.0276 -1.0508
  200MOL0     H26947   5.943   0.762   4.711  0.6781  1.1473  1.6312
  200MOL0     H26948   5.985   0.594   4.747  0.7385 -2.1021  2.4500
  200MOL0     H26949   5.750   0.740   4.880  0.1616 -0.4615  1.5943
  200MOL0     H26950   5.801   0.583   4.925 -0.5662 -2.0739 -1.4380
  200MOL0     H26951   5.720   0.768   4.595  4.2124 -0.4745 -0.2145
  200MOL0     H26952   5.605   0.710   4.380 -1.2500 -0.2814 -2.2592
  200MOL0     H26953   5.574   0.540   4.345  0.6673  1.1769 -1.6155
  200MOL0     H26954   5.368   0.690   4.321 -1.2964 -1.7505  0.2931
  200MOL0     H26955   5.386   0.743   4.486  1.1090 -0.0145 -0.6543
  200MOL0     H26956   5.318   0.523   4.577  2.3644 -1.2939  0.0355
  200MOL0     H26957   5.368   0.440   4.445 -0.6314 -0.1112 -1.1094
  200MOL0     H26958   5.159   0.506   4.326  0.6314 -1.3813 -1.0449
  200MOL0     H26959   5.131   0.638   4.442  1.9537  0.6190 -1.5825
  200MOL0     H26960   4.917   0.555   4.381  0.5980  0.0573  0.1382
  200MOL0     H26961   4.710   0.657   4.342  0.9510  2.4346  1.8003
  200MOL0     H26962   4.574   0.551   4.391 -1.0150 -1.0996  3.8700
  200MOL0     H26963   4.615   0.689   4.493  1.3675  1.1574 -0.2429
  200MOL0     H26964   4.535   0.380   5.055  0.4339  3.3193 -0.6052
  200MOL0     H26965   4.338   0.383   5.206 -4.4464  1.7542  1.0118
  200MOL0     H26966   3.964   0.527   5.045 -0.2568  0.7863 -0.2653
  200MOL0     H26967   3.931   0.358   4.987 -0.1218  0.1467 -0.1222
  200MOL0     H26968   3.878   0.310   5.240  2.0073  0.7848 -1.4667
  200MOL0     H26969   3.869   0.483   5.260 -2.4628  1.1163  0.2453
  200MOL0     H26970   3.650   0.424   5.247 -3.7957  0.5440 -2.0552
  200MOL0     H26971   3.666   0.315   5.108  0.3166  1.3508 -0.8517
  200MOL0     H26972   3.746   0.592   5.058  1.5022 -1.0192 -2.3057
  200MOL0     H26973   3.659   0.487   4.947 -1.2803 -1.5638  0.9118
  200MOL0     H26974   3.545   0.644   5.176 -1.7197  0.6893 -1.2325
  200MOL0     H26975   3.447   0.543   5.072 -1.3998  0.9484 -1.3276
  200MOL0     H26976   3.439   0.767   5.007 -0.9669 -1.7800  1.3715
  200MOL0     H26977   3.616   0.786   4.988 -0.1674  1.5964  0.6318
  200MOL0     H26978   3.510   0.564   4.801 -0.5987  0.1921  0.3428
  200MOL0     H26979   3.600   0.718   4.772 -1.4608  2.0450 -1.3330
  200MOL0     H26980   3.301   0.684   4.806 -0.1704  1.2983  0.2461
  200MOL0     H26981   3.392   0.702   4.651  1.7554 -2.0194  0.3486
  200MOL0     H26982   4.092   0.406   4.840  0.9169  2.0016 -0.0369
  200MOL0     H26983   4.299   0.432   4.714 -0.8902 -4.0347 -0.8899
  200MOL0     H26984   4.782   0.352   4.799 -1.5261  2.4732  0.6280
  200MOL0     H26985   5.013   0.329   4.727  0.6079  0.3921 -0.2607
  200MOL0     H26986   6.758   0.670   5.107 -1.3763 -0.4498  0.2933
  200MOL0     H26987   6.995   0.575   5.155 -0.3524 -2.0346  0.0288
  200MOL0     H26988   7.418   0.610   5.630  0.4295  1.2038 -1.9236
  200MOL0     H26989   7.640   0.498   5.598  0.8741 -1.1170  0.6714
  200MOL0     H26990   7.837   0.189   5.354 -0.4280 -1.2564  0.5870
  200MOL0     H26991   7.670   0.154   5.312  2.2268 -0.9277  0.1391
  200MOL0     H26992   7.778   0.412   5.216 -0.3079 -0.5128  0.5586
  200MOL0     H26993   7.661   0.320   5.139 -1.5168  4.0773  2.9939
  200MOL0     H26994   7.871   0.325   5.003 -0.0796  1.3445  0.1903
  200MOL0     H26995   7.854   0.156   5.064  0.0425  0.1586 -0.4424
  200MOL0     H26996   8.093   0.213   5.093 -0.3514 -0.3337 -1.7876
  200MOL0     H26997   8.005   0.208   5.251 -4.5441 -0.9784 -1.2607
  200MOL0     H26998   8.050   0.614   5.240 -1.1037 -0.2359 -0.6204
  200MOL0     H26999   7.473   0.238   5.295 -0.9918 -0.6619 -0.8905
  200MOL0     H27000   7.270   0.350   5.301 -0.3547 -0.1180 -0.1186
  201MOL0     O27001   9.130   1.954   0.205  0.5201  0.0137 -0.8595
  201MOL0     C27002   9.194   1.853   0.186 -0.0849  0.1568 -0.6026
  201MOL0     O27003   9.147   1.752   0.106 -0.2842  0.0278  0.3500
  201MOL0     C27004   9.021   1.756   0.060 -0.2686 -0.4521  0.0389
  201MOL0     C27005   8.992   1.819  -0.071  0.6521  0.3242 -0.0571
  201MOL0     C27006   8.855   1.823  -0.108  0.1491 -0.4883 -1.1062
  201MOL0     C27007   8.752   1.750  -0.038 -0.6579 -0.4559 -0.2813
  201MOL0     O27008   8.633   1.731  -0.109 -0.0380  0.7930 -0.0508
  201MOL0     C27009   8.601   1.590  -0.129  0.7728  0.8704  0.9692
  201MOL0     C27010   8.621   1.546  -0.272 -0.4048  0.2120  1.1084
  201MOL0     C27011   8.766   1.541  -0.320  0.7382 -0.4083  0.0414
  201MOL0     C27012   8.784   1.496  -0.468 -0.1216 -0.3680 -0.0511
  201MOL0     C27013   8.934   1.493  -0.508  0.3106  0.4627  0.5548
  201MOL0     C27014   8.946   1.418  -0.637  0.4773  0.1266  0.1150
  201MOL0     C27015   9.076   1.454  -0.707  0.1109 -0.0309 -0.0685
  201MOL0     C27016   9.137   1.336  -0.788 -0.2344 -0.5570 -0.6217
  201MOL0     N27017   9.040   1.273  -0.874 -0.0334 -0.4042  0.3046
  201MOL0     C27018   8.961   1.345  -0.962 -0.0827 -0.0152  0.1122
  201MOL0     C27019   8.870   1.259  -1.011  0.7274 -0.2518 -1.2303
  201MOL0     C27020   8.758   1.281  -1.105  0.1442 -0.0307  0.2395
  201MOL0     C27021   8.632   1.342  -1.037 -0.5027 -0.3484 -0.9319
  201MOL0     C27022   8.543   1.413  -1.136  0.4466 -0.9455  0.3548
  201MOL0     C27023   8.417   1.471  -1.076 -0.8301  0.1313  0.8171
  201MOL0     O27024   8.348   1.366  -1.010  0.5229  0.6962 -0.3189
  201MOL0     C27025   8.247   1.409  -0.929  0.5694 -0.1170  0.6222
  201MOL0     C27026   8.172   1.309  -0.855  1.1906 -0.4291  0.5013
  201MOL0     C27027   8.054   1.336  -0.786 -0.1806 -0.4878 -0.5389
  201MOL0     C27028   7.990   1.217  -0.715 -0.1163  0.3758  0.8567
  201MOL0     C27029   8.013   1.479  -0.778  0.3582 -0.1599  0.3021
  201MOL0     C27030   7.896   1.517  -0.696 -0.5310  0.5148  0.0574
  201MOL0     O27031   7.893   1.650  -0.666  0.2723  0.5514  0.0572
  201MOL0     C27032   7.819   1.714  -0.567 -1.0591 -0.0219  0.8791
  201MOL0     C27033   7.859   1.845  -0.539  1.0809  0.2078 -0.0654
  201MOL0     C27034   7.802   1.920  -0.436  0.1190  0.5366  0.1677
  201MOL0     C27035   7.706   1.864  -0.352 -0.6070  0.1482  0.1704
  201MOL0     O27036   7.647   1.924  -0.241  0.7814  0.1150 -0.7113
  201MOL0     C27037   7.691   2.063  -0.211  0.5007  0.2767  0.2891
  201MOL0     C27038   7.636   2.102  -0.074  0.0354 -0.4120 -0.3939
  201MOL0     C27039   7.678   2.015   0.039 -0.7126 -0.4416  0.4385
  201MOL0     C27040   7.654   2.061   0.182  0.8214 -1.3805  0.3768
  201MOL0     C27041   7.499   2.060   0.219  0.1096  0.6194 -0.6123
  201MOL0     C27042   7.456   2.133   0.341  0.5075 -0.0341 -0.5267
  201MOL0     C27043   7.460   2.289   0.324  0.6919  0.2186 -0.1577
  201MOL0     C27044   7.349   2.333   0.427  0.6949  1.1763 -0.1663
  201MOL0    Cl27045   7.177   2.287   0.365  0.0338  0.5310 -0.0127
  201MOL0     C27046   7.682   1.726  -0.372  0.1282  0.1496 -0.5649
  201MOL0     C27047   7.732   1.649  -0.475 -0.0621 -1.0323  1.4604
  201MOL0     O27048   7.804   1.438  -0.665  1.1356 -0.2633  0.0089
  201MOL0     C27049   8.084   1.580  -0.842 -0.4484 -0.2260 -0.3806
  201MOL0     C27050   8.196   1.541  -0.922 -0.2936  0.3877 -0.1064
  201MOL0     N27051   8.892   1.137  -0.957  0.1022 -1.0235  0.2887
  201MOL0     N27052   9.003   1.140  -0.890  0.3251  0.3310 -0.2675
  201MOL0     C27053   8.781   1.694   0.082 -0.0056 -0.6548 -0.2160
  201MOL0     C27054   8.908   1.702   0.139 -1.0369 -0.5515  0.7491
  201MOL0     C27055   9.332   1.835   0.247  0.2878 -0.0186 -0.7282
  201MOL0     C27056   9.370   1.912   0.361 -0.3583 -0.8037  0.3888
  201MOL0     C27057   9.507   1.917   0.406  0.4014  0.6469  0.1254
  201MOL0     C27058   9.594   1.827   0.332 -0.1323  0.3947  0.4906
  201MOL0     O27059   9.719   1.816   0.374 -0.0210  0.0950  0.0815
  201MOL0     C27060   9.764   1.853   0.504  0.6558  0.0075 -0.0527
  201MOL0     C27061   9.890   1.766   0.523  0.0606  0.4957  0.3428
  201MOL0     C27062   9.923   1.749   0.675 -0.7345  0.9419  0.5849
  201MOL0     C27063  10.029   1.644   0.710 -0.4182  0.5101 -0.7128
  201MOL0     C27064  10.155   1.662   0.633  0.6761  0.1874  0.5281
  201MOL0     C27065  10.263   1.680   0.576  0.0192 -0.6634 -0.0987
  201MOL0     C27066   9.558   1.745   0.225  0.9393  0.4924  0.8001
  201MOL0     C27067   9.425   1.738   0.193 -0.1005  0.1124  0.7359
  201MOL0     H27068   9.078   1.865  -0.119  2.4400 -2.0186  0.7026
  201MOL0     H27069   8.832   1.891  -0.189  0.9996  1.0149 -0.1358
  201MOL0     H27070   8.643   1.520  -0.056  2.6885  1.0978  0.1465
  201MOL0     H27071   8.494   1.577  -0.110  0.8355 -4.6351 -0.6167
  201MOL0     H27072   8.576   1.446  -0.279  0.6735 -0.4058  2.6080
  201MOL0     H27073   8.567   1.607  -0.345  1.9606  0.8053 -0.2449
  201MOL0     H27074   8.804   1.643  -0.317  2.9619 -1.2039  1.6135
  201MOL0     H27075   8.833   1.490  -0.250  3.1597 -0.0996 -1.9354
  201MOL0     H27076   8.732   1.400  -0.476 -1.5125  0.4246 -1.0740
  201MOL0     H27077   8.720   1.567  -0.522  0.4557  1.5940  1.7079
  201MOL0     H27078   8.972   1.595  -0.524 -1.0503  0.8585 -0.2602
  201MOL0     H27079   8.993   1.438  -0.433  1.8131 -0.4925 -1.2387
  201MOL0     H27080   8.955   1.311  -0.619  1.3551  0.0144 -0.8728
  201MOL0     H27081   8.860   1.438  -0.702 -0.3908  2.1662  1.7559
  201MOL0     H27082   9.059   1.531  -0.784 -0.5520 -0.9893 -0.9086
  201MOL0     H27083   9.149   1.479  -0.630 -1.6138 -1.1908  2.0413
  201MOL0     H27084   9.185   1.264  -0.721  0.3812  0.3317 -0.0756
  201MOL0     H27085   9.223   1.376  -0.843 -0.2304  2.7719  1.5284
  201MOL0     H27086   8.970   1.451  -0.985 -3.8592  0.6359  1.0961
  201MOL0     H27087   8.799   1.332  -1.192  3.0534 -1.3728  0.7143
  201MOL0     H27088   8.727   1.183  -1.144 -1.8436  0.4555  0.4607
  201MOL0     H27089   8.679   1.421  -0.978  2.0628 -0.2025 -2.9916
  201MOL0     H27090   8.578   1.270  -0.975  2.1386 -1.1589  0.6332
  201MOL0     H27091   8.528   1.348  -1.223 -0.0352 -2.8796  1.8053
  201MOL0     H27092   8.609   1.491  -1.174  0.2970 -0.9422  0.0965
  201MOL0     H27093   8.363   1.502  -1.167  1.3363 -1.0010 -0.9569
  201MOL0     H27094   8.441   1.560  -1.017 -0.2982  0.7482 -0.2984
  201MOL0     H27095   8.224   1.215  -0.848 -0.0661 -1.1322  0.6490
  201MOL0     H27096   7.931   1.162  -0.789 -1.4109 -0.1413  2.2412
  201MOL0     H27097   8.070   1.152  -0.677  0.1103  0.1453  0.0119
  201MOL0     H27098   7.925   1.244  -0.632 -3.2836 -0.2092 -1.2748
  201MOL0     H27099   7.941   1.888  -0.595  0.1655  1.1221 -0.7459
  201MOL0     H27100   7.834   2.022  -0.420 -0.7139  0.9790 -0.8596
  201MOL0     H27101   7.796   2.035  -0.197 -0.5238 -2.9567  2.8872
  201MOL0     H27102   7.678   2.149  -0.278 -1.1319  0.1594  0.4185
  201MOL0     H27103   7.674   2.204  -0.068  1.7815 -0.9812 -1.2903
  201MOL0     H27104   7.528   2.101  -0.093 -0.1403  3.2646 -0.4472
  201MOL0     H27105   7.787   2.008   0.029 -0.6640  0.0274  0.6137
  201MOL0     H27106   7.626   1.920   0.023  0.4296 -1.1939  1.0538
  201MOL0     H27107   7.697   2.001   0.263  1.3371  3.5298  4.2072
  201MOL0     H27108   7.690   2.162   0.203  1.5250 -1.1368 -1.7558
  201MOL0     H27109   7.469   1.955   0.227  0.5386  0.2040 -3.4753
  201MOL0     H27110   7.445   2.117   0.144  0.7591  0.6849 -1.0387
  201MOL0     H27111   7.352   2.100   0.353  0.0876  1.2160 -0.6073
  201MOL0     H27112   7.508   2.107   0.434  0.0723 -2.0926 -0.8171
  201MOL0     H27113   7.431   2.328   0.226 -3.0783 -0.6598  0.4194
  201MOL0     H27114   7.559   2.321   0.356  0.5790  0.1321  0.2840
  201MOL0     H27115   7.340   2.442   0.432 -3.6138  1.0747 -1.3755
  201MOL0     H27116   7.365   2.299   0.530 -0.7916 -0.8116 -0.5357
  201MOL0     H27117   7.626   1.670  -0.297  1.1913 -0.9032 -0.5302
  201MOL0     H27118   7.711   1.543  -0.485 -1.2110 -0.6819 -0.0991
  201MOL0     H27119   8.061   1.684  -0.859 -2.2077 -0.7415 -1.3291
  201MOL0     H27120   8.232   1.626  -0.980  1.3976  0.0812  0.4388
  201MOL0     H27121   8.693   1.655   0.132 -0.4548 -0.3249 -0.7313
  201MOL0     H27122   8.926   1.655   0.235 -2.0983 -0.0533  1.2051
  201MOL0     H27123   9.295   1.977   0.405 -1.6803 -2.1131  0.1532
  201MOL0     H27124   9.536   1.980   0.489  1.5668  0.3257 -0.0180
  201MOL0     H27125   9.789   1.958   0.522 -2.5503  0.9557 -0.5490
  201MOL0     H27126   9.681   1.822   0.568 -1.4428  0.2689 -2.4961
  201MOL0     H27127   9.979   1.803   0.471  1.9266 -4.0963 -0.2201
  201MOL0     H27128   9.872   1.665   0.486 -0.2431  0.9008 -0.6527
  201MOL0     H27129   9.831   1.724   0.730 -1.0688  1.0554  0.0808
  201MOL0     H27130   9.957   1.849   0.706  3.5552 -0.8275  2.4322
  201MOL0     H27131   9.986   1.545   0.695  2.9152 -1.2153  0.0299
  201MOL0     H27132  10.059   1.654   0.815 -2.2149  1.1232 -0.2318
  201MOL0     H27133  10.356   1.690   0.524 -0.4568  1.0928 -0.7120
  201MOL0     H27134   9.633   1.682   0.178  0.9712 -0.8829  2.5801
  201MOL0     H27135   9.391   1.677   0.110  0.6687 -1.8874  1.8301
  202MOL0     O27136   0.401   8.443   4.147 -0.1908 -0.2399 -0.1306
  202MOL0     C27137   0.451   8.330   4.153  0.3534 -0.1158  0.4883
  202MOL0     O27138   0.386   8.221   4.181  0.0046  0.2476 -0.5639
  202MOL0     C27139   0.251   8.218   4.161 -0.7483 -0.2832 -0.7706
  202MOL0     C27140   0.177   8.225   4.274 -0.5283  0.2625  0.2434
  202MOL0     C27141   0.038   8.209   4.265  0.1342  0.0514 -0.6150
  202MOL0     C27142  -0.032   8.197   4.141  1.0655 -0.7164 -0.7053
  202MOL0     O27143  -0.168   8.209   4.140 -0.5120  0.7699 -0.1997
  202MOL0     C27144  -0.224   8.260   4.016  0.2129 -0.1377  0.1581
  202MOL0     C27145  -0.380   8.279   4.017 -0.3806 -0.4289 -0.3909
  202MOL0     C27146  -0.448   8.152   4.036 -1.0144 -0.4958 -0.1586
  202MOL0     C27147  -0.592   8.160   3.996  0.3346 -0.0480  0.7798
  202MOL0     C27148  -0.679   8.272   4.081  0.2144  0.5284 -0.1483
  202MOL0     C27149  -0.730   8.374   3.981  0.2888  0.2133 -0.1563
  202MOL0     C27150  -0.783   8.505   4.037  0.2691 -0.6471  1.0573
  202MOL0     C27151  -0.811   8.624   3.946  0.3282  0.0168  0.1670
  202MOL0     N27152  -0.953   8.646   3.917  0.8632  0.2523 -0.0225
  202MOL0     C27153  -1.003   8.775   3.900  0.0023  0.6001  0.5856
  202MOL0     C27154  -1.130   8.753   3.858 -0.6285  0.0328 -0.5152
  202MOL0     C27155  -1.211   8.864   3.822  0.2591  0.2323  0.6419
  202MOL0     C27156  -1.358   8.826   3.779  0.1809 -0.1783  0.5790
  202MOL0     C27157  -1.433   8.939   3.704 -0.1776 -0.4954 -0.1861
  202MOL0     C27158  -1.581   8.918   3.682  0.4281 -0.0263  0.1311
  202MOL0     O27159  -1.624   9.046   3.630 -0.3176  0.0443 -0.0128
  202MOL0     C27160  -1.757   9.061   3.622  0.5076  0.0514 -0.0517
  202MOL0     C27161  -1.849   8.999   3.702  0.1500 -0.1835  0.4625
  202MOL0     C27162  -1.986   9.019   3.680  0.2492 -0.8426 -0.9408
  202MOL0     C27163  -2.082   8.959   3.785 -0.0985  0.4866  1.0290
  202MOL0     C27164  -2.038   9.111   3.583  0.8790  0.4246 -0.6193
  202MOL0     C27165  -2.183   9.153   3.578  0.3057 -0.5508 -0.0037
  202MOL0     O27166  -2.209   9.284   3.575 -0.6640 -0.5220 -0.1347
  202MOL0     C27167  -2.334   9.314   3.525 -0.4948  0.3860  0.5713
  202MOL0     C27168  -2.418   9.403   3.588  0.0360  0.4002  0.1650
  202MOL0     C27169  -2.544   9.433   3.530  0.6441 -0.9359 -0.1670
  202MOL0     C27170  -2.585   9.383   3.408  0.5900  0.3710  0.0816
  202MOL0     O27171  -2.707   9.432   3.362 -0.3461 -1.1514  0.1602
  202MOL0     C27172  -2.774   9.375   3.251 -0.8082 -0.1303 -0.6482
  202MOL0     C27173  -2.905   9.441   3.221 -0.7924  0.1642  0.5243
  202MOL0     C27174  -3.005   9.414   3.325  0.3115  0.3602 -0.2583
  202MOL0     C27175  -3.119   9.517   3.321 -0.6779  0.6345 -0.0203
  202MOL0     C27176  -3.242   9.483   3.243 -0.0156 -0.1155  0.4815
  202MOL0     C27177  -3.304   9.357   3.295 -0.2728  1.0344  0.4060
  202MOL0     C27178  -3.442   9.340   3.237  0.1491  0.2961  0.3040
  202MOL0     C27179  -3.546   9.423   3.316  0.9924 -0.4045  0.7651
  202MOL0    Cl27180  -3.724   9.406   3.283  0.1037  0.0965 -0.1882
  202MOL0     C27181  -2.497   9.296   3.338  0.1027 -1.1256 -0.7785
  202MOL0     C27182  -2.380   9.264   3.401 -0.0590 -0.0586  0.3453
  202MOL0     O27183  -2.266   9.062   3.567  0.3105  0.2004 -0.2894
  202MOL0     C27184  -1.945   9.174   3.504 -1.4101  0.1559  0.7101
  202MOL0     C27185  -1.806   9.150   3.525  0.2422 -0.4912 -0.0707
  202MOL0     N27186  -1.153   8.617   3.854  0.1917 -0.8564  0.0631
  202MOL0     N27187  -1.044   8.552   3.887 -0.6381 -0.1295 -0.0273
  202MOL0     C27188   0.050   8.201   4.025  0.6338  0.0389  0.3089
  202MOL0     C27189   0.188   8.215   4.035 -0.2863  0.8025  0.1723
  202MOL0     C27190   0.604   8.325   4.145 -0.5558 -0.8652 -0.1752
  202MOL0     C27191   0.680   8.207   4.126 -0.4125 -0.2151 -0.5029
  202MOL0     C27192   0.823   8.226   4.121 -0.2801  0.7746 -0.0961
  202MOL0     C27193   0.886   8.340   4.127  0.2918 -0.3402  0.6635
  202MOL0     O27194   1.022   8.342   4.136  0.2759  1.2095 -1.0205
  202MOL0     C27195   1.103   8.402   4.033  1.2627 -0.9613 -0.5120
  202MOL0     C27196   1.227   8.322   4.030 -0.1306 -0.5964 -0.3041
  202MOL0     C27197   1.345   8.397   3.966  0.3826 -0.3717 -0.1412
  202MOL0     C27198   1.470   8.309   3.976 -0.4942 -0.3879  0.5453
  202MOL0     C27199   1.599   8.374   3.968 -0.0683 -0.6975  0.1544
  202MOL0     C27200   1.708   8.432   3.973 -0.6467  0.4671  0.1623
  202MOL0     C27201   0.810   8.456   4.125 -0.1793 -0.5957  0.0092
  202MOL0     C27202   0.671   8.446   4.140 -0.0794  0.6040  0.1973
  202MOL0     H27203   0.230   8.228   4.368 -2.1530 -0.5059  1.2181
  202MOL0     H27204  -0.021   8.211   4.356 -1.5949 -2.3521 -1.5717
  202MOL0     H27205  -0.182   8.359   4.001  0.1782 -0.1047  0.2800
  202MOL0     H27206  -0.194   8.185   3.942 -0.4683 -2.2310  1.8667
  202MOL0     H27207  -0.399   8.353   4.096  0.8716 -0.5252  0.0369
  202MOL0     H27208  -0.399   8.337   3.927  0.9458 -0.0697 -0.4713
  202MOL0     H27209  -0.411   8.062   3.986  0.5507 -0.3857  0.7404
  202MOL0     H27210  -0.434   8.131   4.143 -1.4540  0.4669  0.0986
  202MOL0     H27211  -0.607   8.178   3.889 -1.8485  0.2141  1.0845
  202MOL0     H27212  -0.623   8.059   4.021  0.2880  0.1937  1.7372
  202MOL0     H27213  -0.759   8.225   4.139  1.6247 -2.6878 -0.6088
  202MOL0     H27214  -0.613   8.308   4.161 -1.2506 -0.1058  1.4088
  202MOL0     H27215  -0.642   8.396   3.918  0.7132  0.4258  0.5005
  202MOL0     H27216  -0.797   8.327   3.909  0.1897 -0.0226  0.0872
  202MOL0     H27217  -0.867   8.483   4.104  0.9588 -1.1182  1.7943
  202MOL0     H27218  -0.715   8.550   4.110 -0.6356  0.6189  1.1495
  202MOL0     H27219  -0.759   8.594   3.855  2.8816 -0.7777  1.7748
  202MOL0     H27220  -0.767   8.711   3.996  1.6151  0.1125 -1.0837
  202MOL0     H27221  -0.949   8.869   3.898 -1.8451  1.6896 -1.2080
  202MOL0     H27222  -1.215   8.935   3.905 -1.2770  0.0659  0.7472
  202MOL0     H27223  -1.171   8.912   3.732 -3.5560  0.6641 -1.0275
  202MOL0     H27224  -1.417   8.808   3.870 -3.1344 -0.1535 -1.3764
  202MOL0     H27225  -1.359   8.734   3.721 -1.2173  1.2101 -1.7508
  202MOL0     H27226  -1.383   8.972   3.612 -0.7937  0.7043 -0.1098
  202MOL0     H27227  -1.418   9.026   3.768  1.8109 -1.7348  1.1381
  202MOL0     H27228  -1.615   8.892   3.782  0.9677  2.1311  0.9432
  202MOL0     H27229  -1.594   8.837   3.610 -0.7812 -1.9568  2.4020
  202MOL0     H27230  -1.819   8.946   3.792 -1.9058  3.1703  3.3775
  202MOL0     H27231  -2.156   9.033   3.817 -4.4486 -3.4406  1.1280
  202MOL0     H27232  -2.135   8.875   3.739  0.7497  1.1746 -1.3273
  202MOL0     H27233  -2.036   8.920   3.877  2.6582  2.0918  0.4529
  202MOL0     H27234  -2.381   9.453   3.677 -1.3236  1.4977  0.1459
  202MOL0     H27235  -2.604   9.504   3.586  1.3496  1.2485 -1.9846
  202MOL0     H27236  -2.707   9.392   3.166  1.3537  2.4388  1.3650
  202MOL0     H27237  -2.790   9.269   3.268 -1.7214  0.0543 -0.2807
  202MOL0     H27238  -2.885   9.548   3.209 -1.0877  0.0470 -1.2597
  202MOL0     H27239  -2.950   9.405   3.128  1.2744 -3.4825  0.7384
  202MOL0     H27240  -2.970   9.433   3.427 -2.5568  3.0000  0.3985
  202MOL0     H27241  -3.041   9.311   3.319  0.7698  0.1275  0.7004
  202MOL0     H27242  -3.157   9.547   3.419  0.1859  0.4887  0.3690
  202MOL0     H27243  -3.075   9.608   3.279 -3.4497  3.2707  2.3646
  202MOL0     H27244  -3.216   9.464   3.139 -1.5622 -1.0964  0.2518
  202MOL0     H27245  -3.322   9.557   3.247 -0.4874 -0.3708 -2.4427
  202MOL0     H27246  -3.246   9.274   3.253 -1.8987 -0.2192  0.5544
  202MOL0     H27247  -3.306   9.345   3.403 -0.2929  1.6226  0.4722
  202MOL0     H27248  -3.459   9.232   3.228 -1.7535  0.5911  0.0046
  202MOL0     H27249  -3.448   9.375   3.133 -1.9286 -2.8048 -0.7925
  202MOL0     H27250  -3.524   9.528   3.292 -1.5072 -0.2899 -1.3815
  202MOL0     H27251  -3.547   9.397   3.423 -1.0891 -0.4047  0.7737
  202MOL0     H27252  -2.521   9.261   3.238  0.4041 -1.4856 -0.7275
  202MOL0     H27253  -2.323   9.194   3.342 -2.3334  0.0722 -2.2107
  202MOL0     H27254  -1.967   9.243   3.423  1.2990  2.9505  2.1245
  202MOL0     H27255  -1.732   9.199   3.463 -1.3128  0.4035 -1.3124
  202MOL0     H27256   0.009   8.193   3.925 -1.1913 -0.1663  1.0334
  202MOL0     H27257   0.248   8.211   3.945  0.5964  0.6508  0.7523
  202MOL0     H27258   0.634   8.110   4.109 -0.7817 -0.0910 -0.2254
  202MOL0     H27259   0.891   8.143   4.114  0.5013  1.3898  0.0959
  202MOL0     H27260   1.057   8.381   3.936  0.8017  0.6846 -0.6866
  202MOL0     H27261   1.120   8.510   4.036  0.3651 -0.7941 -0.8729
  202MOL0     H27262   1.209   8.241   3.958  3.3642  1.2748 -3.6647
  202MOL0     H27263   1.258   8.283   4.128  0.3595 -0.7147 -0.4990
  202MOL0     H27264   1.367   8.482   4.031 -0.2827 -1.3661  1.4217
  202MOL0     H27265   1.322   8.418   3.861  0.5741  0.3157 -0.0477
  202MOL0     H27266   1.460   8.229   3.903  0.9455 -1.5046  1.5331
  202MOL0     H27267   1.474   8.273   4.079  1.8055  0.0517  0.6698
  202MOL0     H27268   1.797   8.492   3.971  1.2992 -2.1515  1.6139
  202MOL0     H27269   0.851   8.555   4.111  2.0357 -1.6483 -1.6874
  202MOL0     H27270   0.624   8.543   4.152  1.4243  1.3667  0.2102
  203MOL0     O27271   0.877  11.147   0.028  0.5102  0.0353 -0.9301
  203MOL0     C27272   0.899  11.075   0.122 -1.0794 -0.6870 -0.1220
  203MOL0     O27273   0.806  11.012   0.194 -0.1670  0.0422  0.1525
  203MOL0     C27274   0.666  11.022   0.160 -0.1953  0.4015  1.4709
  203MOL0     C27275   0.569  11.083   0.237 -0.0491  0.7212  0.3673
  203MOL0     C27276   0.442  11.109   0.190  0.2532  0.1784  0.6749
  203MOL0     C27277   0.410  11.078   0.055 -0.3781  0.7272 -0.0480
  203MOL0     O27278   0.286  11.115   0.000 -0.0950 -0.6701  0.3121
  203MOL0     C27279   0.197  11.194   0.079  0.9383  0.7836  0.3000
  203MOL0     C27280   0.118  11.285  -0.019  0.1998 -0.0420  0.4776
  203MOL0     C27281  -0.013  11.333   0.055 -0.2623  0.2566  0.6558
  203MOL0     C27282  -0.120  11.405  -0.036  0.3319 -0.2171 -0.7696
  203MOL0     C27283  -0.207  11.292  -0.103  0.9556  0.5310  0.1535
  203MOL0     C27284  -0.316  11.362  -0.188 -0.0775  0.9160  0.2918
  203MOL0     C27285  -0.404  11.247  -0.236  0.0466 -0.8342  0.4838
  203MOL0     C27286  -0.522  11.299  -0.318 -0.9001 -1.2022 -0.6103
  203MOL0     N27287  -0.608  11.189  -0.338  0.4363 -0.4573 -0.0564
  203MOL0     C27288  -0.697  11.144  -0.238  0.3607  0.0247 -0.3684
  203MOL0     C27289  -0.751  11.025  -0.277  0.9568 -0.2205  0.1965
  203MOL0     C27290  -0.851  10.935  -0.206 -0.0426 -0.0551 -0.1233
  203MOL0     C27291  -0.987  10.992  -0.168 -0.4214 -0.6148  1.2262
  203MOL0     C27292  -1.066  11.053  -0.292 -0.6193  0.7071 -0.7512
  203MOL0     C27293  -1.196  11.093  -0.222 -0.3718 -0.0548  0.2767
  203MOL0     O27294  -1.275  11.185  -0.294 -0.5398  0.2155  0.2679
  203MOL0     C27295  -1.401  11.139  -0.311  0.4742 -0.1763  0.3833
  203MOL0     C27296  -1.458  11.151  -0.437 -0.1537 -0.9828  0.6235
  203MOL0     C27297  -1.584  11.096  -0.470 -0.0435 -0.0090 -0.1734
  203MOL0     C27298  -1.638  11.106  -0.608  0.4469 -0.1800  0.2800
  203MOL0     C27299  -1.670  11.043  -0.372 -0.4918  0.1198 -0.3663
  203MOL0     C27300  -1.797  10.972  -0.403 -0.4300  0.0511 -0.0526
  203MOL0     O27301  -1.881  10.962  -0.291  0.6605  0.7982 -0.1288
  203MOL0     C27302  -1.995  10.897  -0.311  0.8499 -0.1119 -0.6099
  203MOL0     C27303  -2.029  10.793  -0.234 -0.3379  0.1237 -0.5132
  203MOL0     C27304  -2.139  10.717  -0.265  0.2920 -0.5747 -0.5068
  203MOL0     C27305  -2.237  10.756  -0.352 -0.5623 -0.7280 -0.1053
  203MOL0     O27306  -2.346  10.678  -0.371 -0.1012 -0.1107 -0.0062
  203MOL0     C27307  -2.470  10.735  -0.426 -0.6562 -0.7025 -0.1860
  203MOL0     C27308  -2.584  10.668  -0.348  0.9851 -0.8011  0.0358
  203MOL0     C27309  -2.717  10.714  -0.413  0.0225 -0.7262  0.1709
  203MOL0     C27310  -2.833  10.627  -0.352  0.1998 -0.2296  0.3793
  203MOL0     C27311  -2.968  10.646  -0.416 -0.2260  0.3241  0.6396
  203MOL0     C27312  -3.014  10.787  -0.410  0.3730 -0.7626 -0.0615
  203MOL0     C27313  -3.160  10.793  -0.466  0.1756 -0.0308 -0.2567
  203MOL0     C27314  -3.212  10.914  -0.550  0.7908 -0.1929  0.0460
  203MOL0    Cl27315  -3.383  10.876  -0.593  0.2432  0.1316 -0.2244
  203MOL0     C27316  -2.210  10.875  -0.429 -0.2396  0.4261  0.4320
  203MOL0     C27317  -2.087  10.938  -0.410 -0.1767  0.1418 -0.6435
  203MOL0     O27318  -1.804  10.900  -0.504  0.8609 -0.1179 -0.6931
  203MOL0     C27319  -1.618  11.047  -0.239  0.0494  0.3082 -0.5458
  203MOL0     C27320  -1.486  11.088  -0.211  0.0546 -0.2410 -0.1933
  203MOL0     N27321  -0.697  11.000  -0.403 -0.5971 -0.2831  0.2877
  203MOL0     N27322  -0.613  11.092  -0.437 -0.8147  0.0759  0.1151
  203MOL0     C27323   0.504  11.013  -0.023  0.3043 -0.0179 -0.0296
  203MOL0     C27324   0.625  10.980   0.037 -0.1363  0.1875 -0.5762
  203MOL0     C27325   1.038  11.061   0.164 -0.6493 -0.1869  0.3035
  203MOL0     C27326   1.134  11.153   0.110  0.2226  0.0315  0.2529
  203MOL0     C27327   1.270  11.135   0.140 -0.0118 -0.6040  0.6252
  203MOL0     C27328   1.323  11.036   0.211 -0.1652 -0.2967 -0.6416
  203MOL0     O27329   1.454  11.013   0.225  0.3507  0.2064  0.6373
  203MOL0     C27330   1.561  11.077   0.159  0.1149 -0.5155  0.3393
  203MOL0     C27331   1.705  11.036   0.182  0.4199 -0.2055  0.3490
  203MOL0     C27332   1.721  10.882   0.206 -0.3750 -0.2930 -0.8820
  203MOL0     C27333   1.860  10.847   0.265  0.6304  0.3851  0.6427
  203MOL0     C27334   1.957  10.874   0.156  0.0705  0.2099 -1.1017
  203MOL0     C27335   2.022  10.897   0.059 -0.8933  0.5346 -0.9247
  203MOL0     C27336   1.225  10.954   0.275 -1.0581 -0.5735  0.0241
  203MOL0     C27337   1.088  10.966   0.259  1.3654 -0.7947 -0.1507
  203MOL0     H27338   0.590  11.124   0.335  3.6063  1.3466 -0.5098
  203MOL0     H27339   0.378  11.152   0.266  1.3732 -0.6351  2.1313
  203MOL0     H27340   0.136  11.132   0.145  2.8879  1.0705  2.4961
  203MOL0     H27341   0.246  11.276   0.132  0.3629  0.7105  0.9535
  203MOL0     H27342   0.182  11.366  -0.056  2.6026 -1.7168  0.7709
  203MOL0     H27343   0.082  11.221  -0.100 -1.1377  2.0632 -0.6950
  203MOL0     H27344  -0.063  11.246   0.098 -2.2632  0.2458 -1.5059
  203MOL0     H27345   0.014  11.390   0.145 -1.0682  0.0890  1.0081
  203MOL0     H27346  -0.175  11.468   0.033  0.1420 -0.3852 -0.7662
  203MOL0     H27347  -0.070  11.473  -0.106 -1.8338  0.8974 -1.3338
  203MOL0     H27348  -0.145  11.238  -0.176 -2.1194  1.1663 -3.2314
  203MOL0     H27349  -0.241  11.225  -0.024  2.2316 -2.2878 -1.5288
  203MOL0     H27350  -0.362  11.435  -0.120  1.9769  0.4876  2.2785
  203MOL0     H27351  -0.281  11.423  -0.272 -2.8429 -1.9382 -3.2565
  203MOL0     H27352  -0.358  11.173  -0.302  1.4202 -1.4278  2.0312
  203MOL0     H27353  -0.439  11.194  -0.147  0.2608  2.1633  2.4975
  203MOL0     H27354  -0.491  11.337  -0.416  0.5717 -0.2090  0.1879
  203MOL0     H27355  -0.581  11.372  -0.262  0.7911  0.8900 -1.3633
  203MOL0     H27356  -0.717  11.197  -0.145  1.7191 -1.7202  1.0003
  203MOL0     H27357  -0.877  10.855  -0.276  0.3079  2.4764 -3.4275
  203MOL0     H27358  -0.790  10.882  -0.132  0.3373  1.8134  0.9564
  203MOL0     H27359  -0.956  11.079  -0.110  0.9593  0.9554 -1.6450
  203MOL0     H27360  -1.041  10.920  -0.105  1.8587 -0.6799  3.2554
  203MOL0     H27361  -1.069  10.990  -0.381  0.0207 -0.5580  0.0877
  203MOL0     H27362  -1.016  11.144  -0.327 -1.8686  1.4431 -0.6693
  203MOL0     H27363  -1.173  11.145  -0.128  0.6501 -1.8804  1.0661
  203MOL0     H27364  -1.230  10.992  -0.199  1.2430 -0.6216  0.2892
  203MOL0     H27365  -1.416  11.199  -0.525 -2.9009  0.1229 -0.2098
  203MOL0     H27366  -1.743  11.133  -0.624  1.4518  2.9100 -2.0877
  203MOL0     H27367  -1.589  11.185  -0.665 -0.2516  0.4951  0.5871
  203MOL0     H27368  -1.602  11.019  -0.663  2.0178 -0.4659  1.6827
  203MOL0     H27369  -1.951  10.763  -0.165 -0.0340 -1.4160 -1.4872
  203MOL0     H27370  -2.154  10.619  -0.221  0.5104 -0.8995 -1.1531
  203MOL0     H27371  -2.473  10.844  -0.422  3.5365 -0.4712  2.4944
  203MOL0     H27372  -2.466  10.720  -0.535 -0.2260  1.1005 -0.4572
  203MOL0     H27373  -2.570  10.560  -0.338 -1.3494 -1.1674 -0.0173
  203MOL0     H27374  -2.584  10.695  -0.242 -0.6593 -1.3079  0.1898
  203MOL0     H27375  -2.727  10.700  -0.521 -0.9790  3.7025 -0.5285
  203MOL0     H27376  -2.739  10.820  -0.393 -0.7394 -0.9519  0.5496
  203MOL0     H27377  -2.809  10.521  -0.354 -0.0234 -0.2710 -0.1760
  203MOL0     H27378  -2.833  10.633  -0.242 -1.3387 -1.4680  0.4881
  203MOL0     H27379  -3.043  10.580  -0.370 -1.6439  1.6583  0.3237
  203MOL0     H27380  -2.949  10.609  -0.517  2.1949 -1.0862  1.5149
  203MOL0     H27381  -3.036  10.824  -0.309 -2.3400  0.6512 -1.0568
  203MOL0     H27382  -2.950  10.862  -0.457 -0.0918 -0.2550  0.0984
  203MOL0     H27383  -3.232  10.786  -0.384 -2.9493 -2.8701 -2.9168
  203MOL0     H27384  -3.182  10.697  -0.515 -0.2248 -0.6348  1.0518
  203MOL0     H27385  -3.157  10.929  -0.643  1.3526  1.5225  0.6010
  203MOL0     H27386  -3.205  11.006  -0.491 -0.1256 -0.2974  0.3252
  203MOL0     H27387  -2.263  10.902  -0.520  0.7328 -0.9457 -0.5933
  203MOL0     H27388  -2.073  11.020  -0.481 -0.5831  0.7403 -0.0436
  203MOL0     H27389  -1.679  11.003  -0.160 -0.2134  2.0688  0.2781
  203MOL0     H27390  -1.456  11.086  -0.107  0.7107  2.0368 -0.2681
  203MOL0     H27391   0.489  10.987  -0.127  2.1523  3.1372 -1.2444
  203MOL0     H27392   0.705  10.929  -0.016 -0.6163 -0.1382 -0.9990
  203MOL0     H27393   1.114  11.233   0.038  3.9376  0.0757 -0.9557
  203MOL0     H27394   1.333  11.206   0.087 -1.6862  0.2256 -0.3221
  203MOL0     H27395   1.533  11.072   0.054  0.6920 -0.1843  0.1652
  203MOL0     H27396   1.559  11.180   0.197 -1.0534 -1.1519  2.1377
  203MOL0     H27397   1.738  11.091   0.270  1.9050 -1.3916  0.5594
  203MOL0     H27398   1.768  11.065   0.098  1.7533  0.4922  1.5590
  203MOL0     H27399   1.720  10.837   0.106 -0.1789 -1.1151 -0.5203
  203MOL0     H27400   1.642  10.842   0.270  0.4983 -1.1473 -0.3355
  203MOL0     H27401   1.871  10.741   0.292 -0.1606 -0.2952 -1.5416
  203MOL0     H27402   1.882  10.910   0.352 -2.1990  1.9888  0.3322
  203MOL0     H27403   2.075  10.930  -0.028 -1.9911  2.1274 -1.0322
  203MOL0     H27404   1.265  10.873   0.335 -1.6936 -0.5124  0.5327
  203MOL0     H27405   1.017  10.892   0.295  0.6449 -0.3609 -0.6575
  204MOL0     O27406   3.099   9.154   9.149  0.3032 -0.2907 -0.6607
  204MOL0     C27407   3.080   9.147   9.028  0.4337  0.2664 -0.3901
  204MOL0     O27408   2.958   9.162   8.964  0.2745 -0.3844 -0.4953
  204MOL0     C27409   2.845   9.200   9.020  0.6487 -0.3243 -0.3761
  204MOL0     C27410   2.727   9.165   8.943  0.9855  0.3883  0.4291
  204MOL0     C27411   2.600   9.185   8.990 -0.5793 -0.8977  1.5692
  204MOL0     C27412   2.582   9.259   9.108 -0.6348 -0.3538  0.2933
  204MOL0     O27413   2.454   9.278   9.156 -0.0605 -0.7100 -0.3292
  204MOL0     C27414   2.428   9.321   9.288 -0.7298  0.1642 -0.6523
  204MOL0     C27415   2.290   9.389   9.280  1.0971 -1.1277 -0.4376
  204MOL0     C27416   2.225   9.409   9.419  0.3885 -0.5161  0.3621
  204MOL0     C27417   2.117   9.507   9.397  0.4072  0.1954 -1.1187
  204MOL0     C27418   2.029   9.521   9.520  0.2159 -0.2924  0.2434
  204MOL0     C27419   1.941   9.644   9.489 -0.2826  0.2627  0.3626
  204MOL0     C27420   1.856   9.668   9.607  0.4415  0.0452 -0.2489
  204MOL0     C27421   1.931   9.726   9.725 -0.1681  0.8953 -0.0028
  204MOL0     N27422   1.852   9.755   9.839  0.3114 -0.7734 -0.7859
  204MOL0     C27423   1.763   9.662   9.901 -0.5973 -0.3721  0.4147
  204MOL0     C27424   1.676   9.739   9.973  0.4049 -0.3995 -1.0023
  204MOL0     C27425   1.573   9.700  10.076 -0.4761  0.2762 -0.1364
  204MOL0     C27426   1.426   9.732  10.037 -0.0656  0.3695 -0.0446
  204MOL0     C27427   1.324   9.706  10.149  0.8415 -0.0527 -0.4265
  204MOL0     C27428   1.189   9.732  10.084  0.2691  1.3301 -0.3561
  204MOL0     O27429   1.085   9.682  10.169 -0.3372 -0.6812  0.0014
  204MOL0     C27430   1.001   9.599  10.095  0.3044  0.5185  0.3546
  204MOL0     C27431   0.873   9.632  10.080  0.0262 -0.3759 -0.4247
  204MOL0     C27432   0.778   9.568   9.999 -0.7858  0.7433  0.6001
  204MOL0     C27433   0.651   9.630   9.976 -0.1021 -0.4130  0.3364
  204MOL0     C27434   0.810   9.438   9.945 -0.6312 -0.0247  0.5203
  204MOL0     C27435   0.719   9.348   9.882  0.6484  0.6657 -0.0937
  204MOL0     O27436   0.628   9.401   9.802  0.6475  0.0959  0.4792
  204MOL0     C27437   0.502   9.347   9.777 -0.6559  0.2032 -0.0728
  204MOL0     C27438   0.486   9.314   9.644  0.4472 -0.3276  0.0931
  204MOL0     C27439   0.364   9.251   9.606  0.3986 -0.4505 -0.1326
  204MOL0     C27440   0.259   9.233   9.702  0.0278  0.5567 -0.2424
  204MOL0     O27441   0.147   9.176   9.651 -0.4820  0.2606 -0.3684
  204MOL0     C27442   0.043   9.153   9.745  0.6046  0.6270 -0.0411
  204MOL0     C27443  -0.069   9.078   9.672  0.0527  0.3333 -0.2157
  204MOL0     C27444  -0.011   8.976   9.577 -0.1454  0.4076  0.6073
  204MOL0     C27445  -0.114   8.882   9.510  0.7699 -0.2669  1.3438
  204MOL0     C27446  -0.147   8.929   9.356  0.0782 -0.3990 -0.2940
  204MOL0     C27447  -0.268   8.852   9.298 -0.5836  0.4813 -0.2583
  204MOL0     C27448  -0.316   8.894   9.155 -0.0799  0.0297 -0.6956
  204MOL0     C27449  -0.314   9.046   9.139  0.9242 -1.0029 -0.1829
  204MOL0    Cl27450  -0.420   9.093   8.992 -0.2129 -0.2789  0.1604
  204MOL0     C27451   0.282   9.260   9.841  0.3166 -0.1047  1.0762
  204MOL0     C27452   0.406   9.313   9.876  0.1625 -0.0451  0.8157
  204MOL0     O27453   0.709   9.232   9.922 -0.3335  0.3851  0.0373
  204MOL0     C27454   0.944   9.396   9.960  0.9545  0.1376  0.3781
  204MOL0     C27455   1.038   9.481  10.033 -0.2212  0.3972  0.5633
  204MOL0     N27456   1.691   9.868   9.927  0.4857 -0.7431  0.6136
  204MOL0     N27457   1.797   9.886   9.846  0.1173  0.1273 -0.3382
  204MOL0     C27458   2.694   9.291   9.185  0.5478  0.5838 -0.3455
  204MOL0     C27459   2.828   9.265   9.143 -0.0669  0.2264  0.5736
  204MOL0     C27460   3.197   9.127   8.942 -0.1502  1.0332 -0.1525
  204MOL0     C27461   3.193   9.135   8.808  0.7182 -0.1358  0.0087
  204MOL0     C27462   3.305   9.104   8.727 -0.1609 -0.1410  0.7363
  204MOL0     C27463   3.431   9.072   8.789 -0.6762  0.2651  0.3353
  204MOL0     O27464   3.551   9.039   8.730  0.6216 -0.3545 -0.2708
  204MOL0     C27465   3.571   9.047   8.595  0.3231  0.1299 -0.3770
  204MOL0     C27466   3.717   9.012   8.556 -0.1560 -0.4370  0.9741
  204MOL0     C27467   3.742   8.974   8.405  0.2354 -0.2585 -0.1363
  204MOL0     C27468   3.784   8.827   8.389  1.3306 -0.0131  0.6153
  204MOL0     C27469   3.679   8.744   8.416  0.6606  0.1221  0.2342
  204MOL0     C27470   3.598   8.659   8.452  0.0702 -0.3508  0.3822
  204MOL0     C27471   3.433   9.066   8.929  1.0387 -0.4907  0.2212
  204MOL0     C27472   3.322   9.092   9.005 -0.2183 -0.4526  0.0529
  204MOL0     H27473   2.747   9.119   8.847  4.0333  0.0712  1.1227
  204MOL0     H27474   2.516   9.145   8.935 -1.7643  2.1838  0.9160
  204MOL0     H27475   2.421   9.236   9.356 -0.8067  1.1681  0.6378
  204MOL0     H27476   2.497   9.399   9.323 -1.0042  0.9199 -1.7351
  204MOL0     H27477   2.299   9.488   9.234 -0.3986  0.2459  1.9737
  204MOL0     H27478   2.228   9.329   9.212  1.4004 -1.5858 -0.3159
  204MOL0     H27479   2.180   9.312   9.441  3.4386 -1.8992  1.0314
  204MOL0     H27480   2.303   9.443   9.488  0.6438  2.5063 -1.2501
  204MOL0     H27481   2.157   9.604   9.367 -0.2452 -0.0904 -3.0562
  204MOL0     H27482   2.049   9.483   9.315 -1.3623  0.0630  0.3294
  204MOL0     H27483   1.973   9.427   9.525  3.5383 -2.5634 -1.5023
  204MOL0     H27484   2.085   9.526   9.614  0.0228 -0.9088  0.4022
  204MOL0     H27485   2.000   9.734   9.467  1.3231 -0.9301 -0.4621
  204MOL0     H27486   1.887   9.632   9.395  0.9061  0.4512 -0.3664
  204MOL0     H27487   1.777   9.738   9.582  1.0999  1.0361  0.3605
  204MOL0     H27488   1.816   9.572   9.640 -0.2882 -0.4284 -2.3739
  204MOL0     H27489   1.990   9.811   9.689  0.0751  1.1147  0.9038
  204MOL0     H27490   2.004   9.651   9.756  1.6324  2.8916  0.8868
  204MOL0     H27491   1.771   9.554   9.900  1.4481 -0.3493 -3.3541
  204MOL0     H27492   1.585   9.594  10.098 -2.3869  0.1780  0.5728
  204MOL0     H27493   1.598   9.764  10.162  1.1790  2.5681 -2.1593
  204MOL0     H27494   1.394   9.677   9.948  1.4573 -1.1312  0.3015
  204MOL0     H27495   1.419   9.840  10.017 -3.4681 -0.1884 -2.8975
  204MOL0     H27496   1.338   9.776  10.232 -1.3701 -1.4533  1.2697
  204MOL0     H27497   1.327   9.602  10.181 -1.1395 -0.9413 -2.7668
  204MOL0     H27498   1.181   9.700   9.980  2.1166 -0.6453  0.0473
  204MOL0     H27499   1.177   9.841  10.084 -1.6917  1.1775  1.7542
  204MOL0     H27500   0.849   9.729  10.123  0.1645 -0.6641  0.3047
  204MOL0     H27501   0.637   9.638   9.868 -0.9668 -0.5025  0.4307
  204MOL0     H27502   0.575   9.571  10.029  1.0085 -2.8514 -0.6674
  204MOL0     H27503   0.648   9.729  10.023 -0.5003 -1.2899  2.2268
  204MOL0     H27504   0.561   9.328   9.567 -0.6137  0.0205 -0.9088
  204MOL0     H27505   0.350   9.213   9.505  1.8154  0.8613 -0.8575
  204MOL0     H27506   0.058   9.098   9.838  0.7846  1.5215  0.4707
  204MOL0     H27507  -0.007   9.243   9.780 -2.8375 -1.9174  2.2521
  204MOL0     H27508  -0.139   9.033   9.743  0.2600  0.8515  0.3190
  204MOL0     H27509  -0.126   9.150   9.612  0.4592 -0.5660 -1.7436
  204MOL0     H27510   0.070   8.922   9.627  0.8080  1.2152 -0.0335
  204MOL0     H27511   0.053   9.017   9.499  0.2430 -1.4067 -0.0866
  204MOL0     H27512  -0.058   8.789   9.497  1.7579  0.6839 -3.1584
  204MOL0     H27513  -0.211   8.871   9.560 -0.0376 -1.5455 -0.4038
  204MOL0     H27514  -0.048   8.919   9.309  2.1359  1.1284  3.3013
  204MOL0     H27515  -0.168   9.035   9.372 -0.0772 -0.5424  0.4968
  204MOL0     H27516  -0.229   8.750   9.297  0.3559  0.6385  3.6302
  204MOL0     H27517  -0.352   8.858   9.368 -0.5617 -1.8499  0.0547
  204MOL0     H27518  -0.414   8.845   9.151  0.0484 -0.7380  2.6293
  204MOL0     H27519  -0.250   8.853   9.079 -0.3303 -0.6814 -0.5344
  204MOL0     H27520  -0.212   9.080   9.118  0.7823 -0.4774 -0.0411
  204MOL0     H27521  -0.364   9.096   9.223 -0.7266 -0.1208 -1.6150
  204MOL0     H27522   0.205   9.243   9.916  0.5035 -1.4059  0.9977
  204MOL0     H27523   0.439   9.330   9.978  2.5685  0.6970 -0.0363
  204MOL0     H27524   0.980   9.298   9.931  0.8874 -0.5271  2.3606
  204MOL0     H27525   1.142   9.451  10.041 -0.3381 -0.0284  0.5247
  204MOL0     H27526   2.681   9.343   9.279 -0.5102  1.2825 -0.8695
  204MOL0     H27527   2.917   9.298   9.196  1.5133 -2.0656 -0.4919
  204MOL0     H27528   3.100   9.160   8.757 -0.2051 -0.2983  1.5595
  204MOL0     H27529   3.293   9.116   8.620 -1.8684  1.0309  1.0261
  204MOL0     H27530   3.500   8.976   8.551 -0.1636  0.2692  0.1745
  204MOL0     H27531   3.544   9.143   8.550  0.0917 -0.6050 -1.8535
  204MOL0     H27532   3.744   8.929   8.622  1.2313  2.8904  4.9880
  204MOL0     H27533   3.787   9.090   8.587 -1.0143  0.4242  0.7929
  204MOL0     H27534   3.810   9.047   8.359  0.9831 -1.0422 -0.2877
  204MOL0     H27535   3.655   8.980   8.339  0.8505 -1.8597 -1.1454
  204MOL0     H27536   3.849   8.814   8.477 -0.4252 -0.6194  1.8832
  204MOL0     H27537   3.833   8.795   8.297  1.8355 -0.7594  1.1268
  204MOL0     H27538   3.528   8.587   8.488 -1.3785 -1.0172 -3.2614
  204MOL0     H27539   3.529   9.056   8.980  1.5506 -0.1728 -0.6588
  204MOL0     H27540   3.332   9.070   9.111  2.6996  2.4040  0.5328
  205MOL0     O27541   2.514   0.759   4.026 -0.4441 -0.4941  0.5874
  205MOL0     C27542   2.596   0.669   4.043 -0.1326 -0.1757  1.0242
  205MOL0     O27543   2.558   0.541   4.071  0.1891 -0.2294  0.5747
  205MOL0     C27544   2.429   0.496   4.101  0.5563  0.0132  0.5126
  205MOL0     C27545   2.380   0.383   4.025 -0.1098 -0.0992  0.6569
  205MOL0     C27546   2.249   0.352   4.044  0.9675  0.4229 -0.5401
  205MOL0     C27547   2.172   0.427   4.121  0.8476  0.0737 -0.1343
  205MOL0     O27548   2.035   0.406   4.104 -0.0671  0.0103 -0.8727
  205MOL0     C27549   1.929   0.492   4.147 -0.4865  0.0286 -0.3602
  205MOL0     C27550   1.801   0.400   4.119 -0.5631 -0.2742  0.0628
  205MOL0     C27551   1.670   0.464   4.149 -0.0823  0.0433 -0.5038
  205MOL0     C27552   1.565   0.382   4.086  0.2005  0.3022 -1.1051
  205MOL0     C27553   1.431   0.426   4.133  0.3834  0.4382 -0.0645
  205MOL0     C27554   1.317   0.333   4.080 -0.3183 -0.2010 -0.3640
  205MOL0     C27555   1.187   0.364   4.148  0.2351 -0.1404 -0.4926
  205MOL0     C27556   1.073   0.289   4.079 -0.6784  0.0980 -0.0952
  205MOL0     N27557   1.088   0.143   4.079  0.0996  0.0538  0.8960
  205MOL0     C27558   1.069   0.065   3.965  0.3968  0.8156  0.1907
  205MOL0     C27559   1.090  -0.057   4.011 -0.1142  0.7206  0.1716
  205MOL0     C27560   1.060  -0.177   3.931  0.3821 -0.3662 -0.1888
  205MOL0     C27561   0.917  -0.173   3.885 -0.8263  0.2016  0.1584
  205MOL0     C27562   0.873  -0.312   3.832 -0.0907  0.4800 -0.1349
  205MOL0     C27563   0.722  -0.320   3.802 -0.5192  0.3362  0.6219
  205MOL0     O27564   0.655  -0.322   3.925 -0.6989 -0.1638  0.3152
  205MOL0     C27565   0.522  -0.311   3.919 -0.8403 -0.1440  0.0748
  205MOL0     C27566   0.439  -0.373   3.819 -0.2022  0.2310  0.1444
  205MOL0     C27567   0.300  -0.383   3.844 -0.2274  0.1854  0.4731
  205MOL0     C27568   0.218  -0.460   3.732 -0.8379  1.2451  0.8426
  205MOL0     C27569   0.243  -0.318   3.952 -0.3102  0.9364  0.0819
  205MOL0     C27570   0.099  -0.328   3.991 -0.2989 -0.2799 -0.1786
  205MOL0     O27571   0.032  -0.455   3.976 -0.2625 -0.7690 -0.4890
  205MOL0     C27572  -0.094  -0.470   4.008 -0.4664 -0.0793  0.1581
  205MOL0     C27573  -0.131  -0.488   4.141 -0.5884 -0.0509 -0.2699
  205MOL0     C27574  -0.263  -0.494   4.176  0.1492 -0.2047 -0.4249
  205MOL0     C27575  -0.364  -0.506   4.080  0.3099  0.5378 -0.6560
  205MOL0     O27576  -0.496  -0.503   4.112 -0.3136 -0.6196  0.0967
  205MOL0     C27577  -0.542  -0.494   4.246 -0.0182 -0.1051 -0.4705
  205MOL0     C27578  -0.694  -0.524   4.251  0.6428  0.2968 -0.0827
  205MOL0     C27579  -0.744  -0.541   4.398 -0.5476 -0.5442 -0.6361
  205MOL0     C27580  -0.898  -0.513   4.396  0.2405  0.5399 -0.5006
  205MOL0     C27581  -0.953  -0.521   4.548  0.3904  0.9992 -0.0510
  205MOL0     C27582  -1.103  -0.534   4.560 -0.0550  0.3189  0.1364
  205MOL0     C27583  -1.143  -0.543   4.706  0.5325  0.1739 -0.0641
  205MOL0     C27584  -1.161  -0.416   4.795 -0.4475  0.7245  0.2082
  205MOL0    Cl27585  -1.005  -0.361   4.859 -0.2008 -0.1264 -0.2187
  205MOL0     C27586  -0.321  -0.495   3.950  0.8692 -0.5570  0.9386
  205MOL0     C27587  -0.189  -0.480   3.911  0.5726  0.4550 -0.2595
  205MOL0     O27588   0.045  -0.232   4.046 -0.3969 -0.1230  0.8853
  205MOL0     C27589   0.325  -0.252   4.048  0.4030  0.3297 -0.1815
  205MOL0     C27590   0.465  -0.258   4.031 -0.5897 -0.1055 -0.2682
  205MOL0     N27591   1.132  -0.055   4.142  0.1785  0.3330  0.1432
  205MOL0     N27592   1.131   0.069   4.179 -0.5953  0.0784 -0.2330
  205MOL0     C27593   2.210   0.536   4.208  0.7373  0.0987  0.2189
  205MOL0     C27594   2.345   0.571   4.193  0.7025  1.0610  0.0849
  205MOL0     C27595   2.742   0.697   4.011  0.0456 -0.5557  0.4683
  205MOL0     C27596   2.826   0.589   3.988  0.5085  0.3431  0.8192
  205MOL0     C27597   2.962   0.617   3.963 -0.1279 -0.5328 -0.2218
  205MOL0     C27598   3.014   0.748   3.957  0.7346  0.1436 -0.1110
  205MOL0     O27599   3.143   0.763   3.930  0.3672 -0.3302  1.3323
  205MOL0     C27600   3.191   0.894   3.901 -0.2536 -0.2914  0.1010
  205MOL0     C27601   3.329   0.877   3.848 -0.7505  0.6709  0.8973
  205MOL0     C27602   3.376   1.017   3.799 -0.5689  0.1111 -0.3476
  205MOL0     C27603   3.513   1.021   3.722  0.0032  0.1337  0.2933
  205MOL0     C27604   3.499   1.095   3.593 -0.1510 -1.0680 -0.4027
  205MOL0     C27605   3.494   1.153   3.484  0.2569  0.6154 -1.1149
  205MOL0     C27606   2.927   0.856   3.991 -0.4388 -0.4942 -0.0531
  205MOL0     C27607   2.790   0.829   4.007  0.3868  0.5066 -0.2623
  205MOL0     H27608   2.427   0.335   3.940  1.1298 -0.1589  1.3580
  205MOL0     H27609   2.205   0.278   3.979  1.4620  0.3345 -0.7818
  205MOL0     H27610   1.935   0.513   4.254  0.5227 -3.8056  0.4968
  205MOL0     H27611   1.917   0.583   4.087 -0.8930  0.1595 -0.0858
  205MOL0     H27612   1.803   0.356   4.019  1.7808  0.5277 -0.3141
  205MOL0     H27613   1.808   0.311   4.183 -0.2925 -0.8322 -0.7222
  205MOL0     H27614   1.659   0.466   4.258  0.4176 -1.5215 -0.4066
  205MOL0     H27615   1.674   0.566   4.109 -1.9863 -0.1705 -1.3820
  205MOL0     H27616   1.567   0.396   3.978  1.4055  2.9261 -0.8167
  205MOL0     H27617   1.578   0.279   4.118 -2.8254  0.5454  1.4333
  205MOL0     H27618   1.420   0.420   4.242  1.0863 -1.6253 -0.0725
  205MOL0     H27619   1.411   0.531   4.108 -1.0106  0.6765  1.7926
  205MOL0     H27620   1.313   0.333   3.971  1.8102 -1.9956 -0.5149
  205MOL0     H27621   1.343   0.230   4.107  0.2975 -0.0699 -0.4430
  205MOL0     H27622   1.190   0.345   4.255  1.4230 -0.8036 -0.6298
  205MOL0     H27623   1.177   0.473   4.137  1.3839  0.2830  2.0705
  205MOL0     H27624   1.058   0.327   3.978  0.2166  0.0837 -0.2423
  205MOL0     H27625   0.983   0.302   4.140  0.5677 -1.1176  2.1408
  205MOL0     H27626   1.045   0.094   3.863  0.7073  2.3860  0.5427
  205MOL0     H27627   1.121  -0.173   3.840  0.7735 -0.6044  0.0620
  205MOL0     H27628   1.082  -0.266   3.990  1.2284 -0.2296 -0.2775
  205MOL0     H27629   0.911  -0.092   3.812 -0.1753 -0.3843 -0.5626
  205MOL0     H27630   0.845  -0.136   3.958 -1.8376  3.3686 -2.2197
  205MOL0     H27631   0.893  -0.387   3.909 -2.1347  0.5120  0.4827
  205MOL0     H27632   0.930  -0.334   3.742  0.5038  4.4915 -0.9047
  205MOL0     H27633   0.712  -0.409   3.738  0.6235  1.5495 -1.3382
  205MOL0     H27634   0.676  -0.248   3.734  2.9177  0.6865 -1.5753
  205MOL0     H27635   0.486  -0.415   3.730 -0.1190  2.0582 -0.7200
  205MOL0     H27636   0.272  -0.454   3.638 -3.9273  0.3585 -1.1291
  205MOL0     H27637   0.203  -0.567   3.752 -0.5971  1.0922  0.2305
  205MOL0     H27638   0.129  -0.402   3.707 -0.2108  2.0205  0.3634
  205MOL0     H27639  -0.051  -0.484   4.215  5.3403  0.0296 -5.7988
  205MOL0     H27640  -0.296  -0.499   4.280 -3.9321 -1.1532 -1.5762
  205MOL0     H27641  -0.486  -0.565   4.308  2.8111  0.2348 -2.3951
  205MOL0     H27642  -0.522  -0.398   4.296  2.9091 -1.0077  0.3050
  205MOL0     H27643  -0.746  -0.457   4.184  2.5718  0.9347 -1.0255
  205MOL0     H27644  -0.711  -0.625   4.213  0.3061  1.3423 -2.9088
  205MOL0     H27645  -0.696  -0.476   4.472  0.6536 -1.5864 -0.4611
  205MOL0     H27646  -0.716  -0.640   4.435 -1.4608 -0.1154  1.3293
  205MOL0     H27647  -0.916  -0.413   4.355  1.8556  0.3226 -1.8461
  205MOL0     H27648  -0.938  -0.594   4.334  0.9153  0.0191 -0.2637
  205MOL0     H27649  -0.923  -0.432   4.604 -0.2100 -0.6867  3.2009
  205MOL0     H27650  -0.912  -0.601   4.609  0.9772 -0.8586 -2.6960
  205MOL0     H27651  -1.149  -0.449   4.509 -0.1229 -1.5911 -3.3489
  205MOL0     H27652  -1.140  -0.623   4.506  2.4340 -0.2720 -0.7074
  205MOL0     H27653  -1.085  -0.624   4.752  3.3797  2.3564  0.4818
  205MOL0     H27654  -1.242  -0.589   4.709 -0.2328  1.8391  1.7964
  205MOL0     H27655  -1.216  -0.449   4.883 -1.4362 -0.9907 -1.0101
  205MOL0     H27656  -1.226  -0.349   4.738 -2.8929 -2.8006 -1.4934
  205MOL0     H27657  -0.385  -0.498   3.862  1.8028  1.4661  0.1252
  205MOL0     H27658  -0.156  -0.468   3.809  0.8994 -2.0588 -0.4939
  205MOL0     H27659   0.293  -0.226   4.148 -1.2565 -1.6732 -0.1207
  205MOL0     H27660   0.528  -0.217   4.109  0.4808 -1.7444 -0.2139
  205MOL0     H27661   2.148   0.592   4.277  0.3099  0.2640 -0.2964
  205MOL0     H27662   2.383   0.654   4.252 -0.4873  3.1603 -1.9436
  205MOL0     H27663   2.793   0.486   3.998  1.8881 -0.4101 -1.6449
  205MOL0     H27664   3.032   0.534   3.960  0.0644 -0.3749 -0.1500
  205MOL0     H27665   3.142   0.950   3.820  4.6190  1.9807 -1.7088
  205MOL0     H27666   3.201   0.961   3.987  0.4151  0.7965 -0.7946
  205MOL0     H27667   3.331   0.811   3.761  0.9671 -1.8901  2.7432
  205MOL0     H27668   3.400   0.829   3.917  0.1482 -1.0101 -1.1009
  205MOL0     H27669   3.385   1.089   3.881 -4.9781 -1.1175  1.5341
  205MOL0     H27670   3.296   1.059   3.738 -0.2845  0.8169 -0.2390
  205MOL0     H27671   3.550   0.922   3.696  5.0941  1.6400  0.8206
  205MOL0     H27672   3.584   1.077   3.783 -0.8047  1.7846 -0.2009
  205MOL0     H27673   3.515   1.198   3.389 -0.5375  0.3302 -1.4373
  205MOL0     H27674   2.967   0.958   3.993 -1.3046 -0.1509  1.2190
  205MOL0     H27675   2.723   0.910   4.032  0.1528 -0.4098  2.3260
  206MOL0     O27676  10.570   5.420   2.311  0.4722 -0.4257 -0.0889
  206MOL0     C27677  10.556   5.476   2.417  0.1025  0.7374  0.1586
  206MOL0     O27678  10.449   5.559   2.457 -1.0759 -0.7965 -0.2630
  206MOL0     C27679  10.336   5.554   2.388 -0.2909  0.0299  0.0437
  206MOL0     C27680  10.305   5.484   2.265 -0.2115 -0.0338 -0.3073
  206MOL0     C27681  10.194   5.514   2.189  0.1958  0.7793  0.4764
  206MOL0     C27682  10.098   5.597   2.240  0.3816 -1.3667  0.2320
  206MOL0     O27683   9.983   5.621   2.162  0.1895 -0.0579  0.7841
  206MOL0     C27684   9.867   5.627   2.252  0.0496 -0.1550  0.4985
  206MOL0     C27685   9.738   5.595   2.171 -0.1380  0.7654  0.0358
  206MOL0     C27686   9.616   5.616   2.248 -0.2586 -0.2340  0.7386
  206MOL0     C27687   9.605   5.518   2.372  0.0111 -0.0769  0.6923
  206MOL0     C27688   9.483   5.543   2.453 -0.4300 -0.1584 -0.0775
  206MOL0     C27689   9.461   5.451   2.570  0.0043 -0.0032  1.1010
  206MOL0     C27690   9.326   5.465   2.630  0.8515  0.3674 -0.0865
  206MOL0     C27691   9.299   5.599   2.702 -0.0532  0.8403 -0.0933
  206MOL0     N27692   9.171   5.590   2.778  0.5134  0.1416  0.1874
  206MOL0     C27693   9.045   5.633   2.749 -0.1494 -0.1702  0.6691
  206MOL0     C27694   8.965   5.609   2.853  0.2569 -0.3391  0.1118
  206MOL0     C27695   8.822   5.630   2.858  1.2745 -0.3915 -0.0380
  206MOL0     C27696   8.777   5.722   2.971  0.1850  0.1265  0.7213
  206MOL0     C27697   8.850   5.853   2.977 -0.5946  0.0900  0.3136
  206MOL0     C27698   8.819   5.952   2.864  0.1886 -0.2854  0.5255
  206MOL0     O27699   8.909   5.929   2.756 -0.1162 -0.3598 -0.2619
  206MOL0     C27700   9.034   5.997   2.766 -0.5774  0.6693 -0.3277
  206MOL0     C27701   9.119   5.969   2.654 -0.0950 -0.4594 -0.1040
  206MOL0     C27702   9.247   6.023   2.633  0.4410  0.1204 -0.4574
  206MOL0     C27703   9.321   5.995   2.507  0.4503 -0.2625  0.1079
  206MOL0     C27704   9.303   6.091   2.746 -0.9479  0.6585 -0.2615
  206MOL0     C27705   9.445   6.123   2.759 -0.4721 -0.2670  1.0567
  206MOL0     O27706   9.471   6.234   2.833 -0.1238  0.0991  0.0869
  206MOL0     C27707   9.589   6.287   2.863 -0.7510  0.1044 -0.4422
  206MOL0     C27708   9.608   6.328   2.993  0.7392  0.5878  0.3441
  206MOL0     C27709   9.735   6.381   3.032  0.0804  0.2115  0.1315
  206MOL0     C27710   9.834   6.394   2.947 -0.1949  0.5391 -0.0135
  206MOL0     O27711   9.950   6.445   2.999  0.1817 -0.1587  0.0950
  206MOL0     C27712  10.058   6.457   2.909  0.1375  0.4144  0.6266
  206MOL0     C27713  10.166   6.487   3.002 -1.3716 -0.2708 -0.3460
  206MOL0     C27714  10.281   6.559   2.926  0.2585  0.0366  0.2243
  206MOL0     C27715  10.384   6.605   3.033 -0.0285  0.1709 -0.0606
  206MOL0     C27716  10.507   6.672   2.968 -0.1847  0.0384 -0.3699
  206MOL0     C27717  10.601   6.582   2.891 -0.9148 -0.3111  0.6410
  206MOL0     C27718  10.732   6.655   2.857  0.7729  0.3369 -0.2795
  206MOL0     C27719  10.705   6.786   2.772  0.2937 -0.3067 -0.7719
  206MOL0    Cl27720  10.838   6.882   2.714  0.2369  0.2000 -0.1728
  206MOL0     C27721   9.818   6.358   2.813  0.3127 -0.9108  0.1936
  206MOL0     C27722   9.699   6.301   2.773  0.3489 -0.2660  0.3413
  206MOL0     O27723   9.529   6.058   2.701  0.3977  0.4777  0.0925
  206MOL0     C27724   9.224   6.116   2.852 -0.7609 -0.0914  0.5056
  206MOL0     C27725   9.092   6.068   2.867 -0.6612 -0.6348 -0.5695
  206MOL0     N27726   9.042   5.542   2.945  0.0888 -0.1936 -0.4822
  206MOL0     N27727   9.161   5.528   2.900  0.3932 -0.6283 -0.0382
  206MOL0     C27728  10.113   5.651   2.363 -0.4027 -0.1762  0.5443
  206MOL0     C27729  10.229   5.633   2.432 -0.1578 -0.1008  0.1583
  206MOL0     C27730  10.675   5.477   2.505 -0.3959  0.7173 -0.6874
  206MOL0     C27731  10.788   5.395   2.477  0.2998  1.1325  0.1415
  206MOL0     C27732  10.904   5.403   2.551  0.1149  1.0209 -0.2379
  206MOL0     C27733  10.906   5.485   2.664  1.1838 -0.9245 -0.4794
  206MOL0     O27734  11.013   5.523   2.739  0.2133  0.0869 -0.2109
  206MOL0     C27735  11.144   5.468   2.702  0.1517 -0.1222  0.2751
  206MOL0     C27736  11.209   5.553   2.599 -0.1830  0.7515 -0.2195
  206MOL0     C27737  11.349   5.601   2.627  0.0465  0.0112  0.5862
  206MOL0     C27738  11.449   5.500   2.690  0.1462 -0.5569  0.3103
  206MOL0     C27739  11.588   5.544   2.675 -0.9325  1.1530  0.7228
  206MOL0     C27740  11.704   5.538   2.655 -0.7055 -0.8943  0.0487
  206MOL0     C27741  10.799   5.557   2.705  1.2035  0.5382  0.0056
  206MOL0     C27742  10.683   5.555   2.623 -0.5007 -0.2506 -0.1527
  206MOL0     H27743  10.359   5.408   2.209  2.8338  2.2421 -0.7611
  206MOL0     H27744  10.181   5.458   2.097  0.0335  0.6158  0.5978
  206MOL0     H27745   9.876   5.543   2.321 -1.5176 -1.0681 -0.3379
  206MOL0     H27746   9.852   5.724   2.302 -3.5518  0.0659 -0.6979
  206MOL0     H27747   9.732   5.661   2.084  0.0674  0.9413  0.1525
  206MOL0     H27748   9.747   5.493   2.131 -0.6697  0.4736  0.6455
  206MOL0     H27749   9.606   5.717   2.289  0.6937 -0.4826  1.6018
  206MOL0     H27750   9.529   5.602   2.182  1.5037  0.0668 -1.7774
  206MOL0     H27751   9.598   5.412   2.344  2.7644 -0.2300  0.3077
  206MOL0     H27752   9.685   5.529   2.446  0.1166 -1.0189  0.7259
  206MOL0     H27753   9.482   5.647   2.485  2.1493 -0.0073 -0.2968
  206MOL0     H27754   9.393   5.538   2.391 -1.7887  3.8949  1.2494
  206MOL0     H27755   9.455   5.348   2.536  0.6557 -0.3405  1.9681
  206MOL0     H27756   9.548   5.466   2.635  0.2711  0.7015  0.6034
  206MOL0     H27757   9.250   5.450   2.553  0.8859 -1.7412  0.2358
  206MOL0     H27758   9.320   5.389   2.708 -1.2574 -0.9437 -1.4417
  206MOL0     H27759   9.290   5.674   2.623  4.6002  1.0076 -0.7418
  206MOL0     H27760   9.383   5.614   2.770  1.5902 -3.1764 -0.9516
  206MOL0     H27761   9.011   5.685   2.660 -0.7103  0.4679  1.2451
  206MOL0     H27762   8.780   5.661   2.761 -0.2401 -1.8813  0.0888
  206MOL0     H27763   8.774   5.534   2.878  0.6845 -0.2608 -0.7259
  206MOL0     H27764   8.801   5.666   3.062 -1.4931 -1.4840  0.2495
  206MOL0     H27765   8.670   5.748   2.977  0.6153  1.8059  4.3760
  206MOL0     H27766   8.958   5.838   2.979 -0.6552 -0.4018  2.7294
  206MOL0     H27767   8.821   5.893   3.075  1.4929 -1.7188  1.7698
  206MOL0     H27768   8.834   6.055   2.896 -1.7863 -0.0827  0.9154
  206MOL0     H27769   8.716   5.938   2.829  1.3209 -0.1805 -3.3070
  206MOL0     H27770   9.085   5.922   2.562 -0.6183  4.9230 -3.0897
  206MOL0     H27771   9.249   5.979   2.426  0.4981  0.5796 -0.1144
  206MOL0     H27772   9.379   6.081   2.472 -2.2833  1.9134  0.5542
  206MOL0     H27773   9.388   5.909   2.508 -0.1640 -0.7588 -0.4160
  206MOL0     H27774   9.535   6.332   3.073  2.8801 -1.9711  2.6563
  206MOL0     H27775   9.754   6.414   3.134 -1.5780  0.4139  0.3889
  206MOL0     H27776  10.088   6.364   2.860  3.2618  2.0195 -0.8859
  206MOL0     H27777  10.044   6.534   2.833  2.0924 -1.5748 -1.9375
  206MOL0     H27778  10.136   6.556   3.082  0.3378  1.4613 -1.1032
  206MOL0     H27779  10.198   6.391   3.043 -0.5153  1.0129  2.2454
  206MOL0     H27780  10.243   6.644   2.867 -0.2806 -0.8071 -0.6873
  206MOL0     H27781  10.335   6.496   2.854  1.7062 -0.5302  1.7489
  206MOL0     H27782  10.345   6.677   3.106  0.9960  2.3233 -1.5148
  206MOL0     H27783  10.419   6.511   3.076 -3.7943 -0.8528  1.2217
  206MOL0     H27784  10.566   6.722   3.046  1.4772 -0.0464 -1.5224
  206MOL0     H27785  10.465   6.752   2.907 -2.4068  2.0745  3.4464
  206MOL0     H27786  10.618   6.497   2.958  2.5200 -0.4692 -0.2056
  206MOL0     H27787  10.562   6.547   2.795 -0.0982  0.9552 -0.1756
  206MOL0     H27788  10.800   6.592   2.798  1.6477  2.2277 -1.3777
  206MOL0     H27789  10.777   6.673   2.955  1.2404 -3.8540  0.4823
  206MOL0     H27790  10.639   6.858   2.821 -2.8003 -2.8763 -0.8568
  206MOL0     H27791  10.648   6.764   2.681 -1.1042  0.0360 -0.0097
  206MOL0     H27792   9.893   6.368   2.735  1.8484  2.5658  1.9254
  206MOL0     H27793   9.686   6.259   2.674  0.8557  1.0213 -0.2893
  206MOL0     H27794   9.255   6.156   2.948  0.2616  1.1697 -0.3266
  206MOL0     H27795   9.035   6.094   2.956  1.2909 -0.7609  0.7758
  206MOL0     H27796  10.037   5.716   2.404  0.9571  1.5126  0.5271
  206MOL0     H27797  10.242   5.675   2.531 -0.0956 -1.4242  0.7386
  206MOL0     H27798  10.788   5.340   2.383 -1.4573  1.6574 -0.2084
  206MOL0     H27799  10.994   5.347   2.524  0.7316  1.0737  1.5359
  206MOL0     H27800  11.210   5.480   2.789 -0.5240 -2.2906  1.1739
  206MOL0     H27801  11.137   5.360   2.686  0.9659  0.0408 -1.3646
  206MOL0     H27802  11.148   5.642   2.584 -0.0780  0.5763 -1.8473
  206MOL0     H27803  11.199   5.506   2.500 -0.3435  2.7514 -1.1976
  206MOL0     H27804  11.341   5.686   2.695  2.0847  1.2032 -0.5899
  206MOL0     H27805  11.386   5.644   2.535 -0.4846 -0.6924  0.0266
  206MOL0     H27806  11.434   5.406   2.637 -0.8118 -0.0183 -0.3873
  206MOL0     H27807  11.423   5.502   2.797  3.8556  0.4489  1.3513
  206MOL0     H27808  11.806   5.564   2.633 -1.7120  1.1676 -2.7210
  206MOL0     H27809  10.808   5.616   2.795 -2.4909  0.0366  0.8367
  206MOL0     H27810  10.603   5.623   2.648  0.2820  0.4976  0.3786
  207MOL0     O27811   5.925  10.069  11.064  0.0521  0.5160 -0.9447
  207MOL0     C27812   6.011  10.018  10.995 -0.6760  0.6638 -0.3431
  207MOL0     O27813   5.987   9.957  10.871 -0.2622  0.6814  0.0201
  207MOL0     C27814   5.882  10.003  10.797  0.0709 -0.5160  0.0888
  207MOL0     C27815   5.884  10.138  10.759  0.6477 -0.3565 -0.3455
  207MOL0     C27816   5.783  10.185  10.680 -0.9307  0.7438 -0.4150
  207MOL0     C27817   5.692  10.103  10.625  0.5824  0.3855 -0.9062
  207MOL0     O27818   5.594  10.138  10.540  0.6122  0.1508 -0.2801
  207MOL0     C27819   5.542  10.270  10.553 -0.0843 -1.1502 -0.8750
  207MOL0     C27820   5.429  10.306  10.463 -0.6074 -0.0233 -0.3546
  207MOL0     C27821   5.471  10.308  10.314 -0.2319 -0.1237  0.1325
  207MOL0     C27822   5.374  10.232  10.215 -0.4976  0.4549 -0.2760
  207MOL0     C27823   5.421  10.275  10.081  0.2299 -0.0775 -0.5081
  207MOL0     C27824   5.340  10.217   9.965 -0.4945  0.2073  0.1213
  207MOL0     C27825   5.200  10.280   9.951  0.1419  0.6065  1.4604
  207MOL0     C27826   5.140  10.199   9.838  0.1359  0.1262 -0.0393
  207MOL0     N27827   5.009  10.258   9.802 -0.2094 -0.1988  0.6243
  207MOL0     C27828   4.997  10.380   9.743  0.3187 -0.1646 -0.0860
  207MOL0     C27829   4.858  10.400   9.752  0.1932 -0.5192  1.0902
  207MOL0     C27830   4.784  10.520   9.694 -0.1918 -0.3563  0.4824
  207MOL0     C27831   4.751  10.490   9.553  0.3867  0.3474 -0.4583
  207MOL0     C27832   4.694  10.607   9.473 -0.3704  0.1417 -0.6668
  207MOL0     C27833   4.561  10.660   9.522 -0.4384 -0.1742 -0.6861
  207MOL0     O27834   4.510  10.744   9.415 -0.3277 -0.0218 -0.6478
  207MOL0     C27835   4.421  10.698   9.324  0.4453  0.1977 -0.0669
  207MOL0     C27836   4.402  10.562   9.292 -1.0728  0.0312  0.3430
  207MOL0     C27837   4.313  10.527   9.188 -0.4091  1.1667  1.3960
  207MOL0     C27838   4.295  10.376   9.176  0.4067  0.8795 -0.5022
  207MOL0     C27839   4.232  10.623   9.119 -0.0175 -0.5104  0.0829
  207MOL0     C27840   4.139  10.594   9.012  0.5586  0.1992  0.2102
  207MOL0     O27841   4.156  10.481   8.945  0.4485 -0.0389 -0.6449
  207MOL0     C27842   4.085  10.462   8.824  0.4331 -1.0221 -0.9411
  207MOL0     C27843   4.119  10.542   8.714  0.1160  0.4877  0.6047
  207MOL0     C27844   4.049  10.517   8.597 -0.2475  0.0245  0.2667
  207MOL0     C27845   3.946  10.417   8.589  0.0652  0.7221  0.0997
  207MOL0     O27846   3.879  10.379   8.477  0.1552 -0.0617 -0.3823
  207MOL0     C27847   3.811  10.470   8.392 -0.4190  0.4752 -0.2922
  207MOL0     C27848   3.710  10.398   8.303  0.1190  0.6405 -0.3255
  207MOL0     C27849   3.604  10.326   8.373 -0.5427  0.2018  0.4690
  207MOL0     C27850   3.460  10.362   8.322  0.3793  0.6757  0.1657
  207MOL0     C27851   3.361  10.274   8.392  0.9878 -0.1129 -0.4288
  207MOL0     C27852   3.205  10.291   8.372 -0.4610  0.1164  0.3152
  207MOL0     C27853   3.156  10.434   8.406 -0.5526  0.7828  0.3842
  207MOL0     C27854   3.011  10.471   8.364  0.5370  0.8289  0.1033
  207MOL0    Cl27855   2.920  10.388   8.493 -0.1266  0.3582  0.3347
  207MOL0     C27856   3.920  10.340   8.703  0.3059 -0.6315 -0.4785
  207MOL0     C27857   3.988  10.361   8.818  0.2444  0.1748 -0.2341
  207MOL0     O27858   4.052  10.675   8.979  0.0499  0.2147  0.0106
  207MOL0     C27859   4.241  10.756   9.167  0.2348  0.3375 -1.0805
  207MOL0     C27860   4.337  10.791   9.265  0.5490  0.6670 -0.3818
  207MOL0     N27861   4.796  10.300   9.820  0.2266 -0.5926 -0.6329
  207MOL0     N27862   4.888  10.211   9.839  0.4302 -0.3187  0.0128
  207MOL0     C27863   5.690   9.968  10.663 -0.5024 -0.1074  0.1246
  207MOL0     C27864   5.782   9.922  10.756 -0.6969 -0.6374  0.3420
  207MOL0     C27865   6.153  10.020  11.036 -0.8497  0.7795 -0.3792
  207MOL0     C27866   6.254   9.951  10.961 -0.7698  0.3468 -0.3019
  207MOL0     C27867   6.390   9.973  11.009 -0.0711 -0.2187  0.1424
  207MOL0     C27868   6.430  10.037  11.135 -0.2204  0.1920  0.3762
  207MOL0     O27869   6.556  10.058  11.191 -0.3610 -0.3730 -0.2211
  207MOL0     C27870   6.671  10.021  11.118  0.0417 -0.1868 -0.1440
  207MOL0     C27871   6.789  10.089  11.198  0.6512 -0.4827  0.2394
  207MOL0     C27872   6.924  10.074  11.123 -0.7400 -0.3729 -0.2106
  207MOL0     C27873   7.025  10.184  11.191 -0.4086 -0.0912 -0.5662
  207MOL0     C27874   7.094  10.110  11.299 -0.1376  0.5256  0.4624
  207MOL0     C27875   7.131  10.042  11.388 -0.0864 -0.2151  0.2387
  207MOL0     C27876   6.327  10.103  11.198  0.0480  0.9561 -0.2313
  207MOL0     C27877   6.191  10.086  11.160  0.9606  0.3650  0.0419
  207MOL0     H27878   5.963  10.203  10.796  3.0117 -3.7356  1.0846
  207MOL0     H27879   5.773  10.292  10.661 -0.6525  0.9654  0.6120
  207MOL0     H27880   5.504  10.268  10.655 -2.0483 -0.9969 -1.5539
  207MOL0     H27881   5.617  10.350  10.548 -0.7799 -0.3615  0.7122
  207MOL0     H27882   5.348  10.233  10.473  0.8968 -1.5258  1.8200
  207MOL0     H27883   5.383  10.401  10.492  0.2147  0.3435 -0.2363
  207MOL0     H27884   5.494  10.411  10.285  2.4713 -1.3801 -2.8243
  207MOL0     H27885   5.568  10.259  10.300  1.2183  1.9744  2.0951
  207MOL0     H27886   5.390  10.124  10.214 -0.9696  0.3256  1.5141
  207MOL0     H27887   5.269  10.247  10.241  0.1592  2.1195  1.6501
  207MOL0     H27888   5.406  10.383  10.079 -1.6872 -0.1907  2.1731
  207MOL0     H27889   5.527  10.258  10.058  0.8617  0.9043  1.4690
  207MOL0     H27890   5.395  10.230   9.871  0.4106  1.2445  0.7674
  207MOL0     H27891   5.341  10.110   9.986 -1.6004  0.2739  0.5787
  207MOL0     H27892   5.139  10.290  10.042 -0.0375 -0.1006  1.4219
  207MOL0     H27893   5.220  10.383   9.920  0.0698  0.9392  2.4779
  207MOL0     H27894   5.129  10.093   9.864  5.5001 -0.5884  0.4931
  207MOL0     H27895   5.203  10.196   9.748  1.3458  1.6511  0.7045
  207MOL0     H27896   5.081  10.433   9.701 -1.4242  0.4972 -3.0003
  207MOL0     H27897   4.692  10.530   9.752  0.6201 -2.2280  2.2482
  207MOL0     H27898   4.847  10.609   9.703  0.1276 -0.3173 -1.5258
  207MOL0     H27899   4.691  10.401   9.535  0.5915 -0.1333  1.0885
  207MOL0     H27900   4.846  10.458   9.508  1.1716  0.9367  0.7265
  207MOL0     H27901   4.681  10.578   9.368 -0.9404 -1.7614 -0.0982
  207MOL0     H27902   4.757  10.696   9.483 -0.8090  0.4718 -0.7870
  207MOL0     H27903   4.564  10.725   9.609  1.8692 -0.4417 -0.4887
  207MOL0     H27904   4.490  10.585   9.558  0.6895 -0.6837  0.5528
  207MOL0     H27905   4.461  10.493   9.350  3.3190  2.2471 -1.0710
  207MOL0     H27906   4.314  10.360   9.070 -1.1812  4.1381 -1.3992
  207MOL0     H27907   4.364  10.316   9.237 -1.1433  0.0767  0.5319
  207MOL0     H27908   4.197  10.335   9.203  2.0282 -2.2483  1.2541
  207MOL0     H27909   4.196  10.618   8.719  1.2369 -0.6474  1.3230
  207MOL0     H27910   4.056  10.581   8.509 -3.0059  1.5996  1.0680
  207MOL0     H27911   3.772  10.551   8.454  0.6229  0.2462  0.7137
  207MOL0     H27912   3.880  10.512   8.318 -2.9407  0.3555 -2.8661
  207MOL0     H27913   3.668  10.480   8.244  0.2180 -0.7886 -2.5127
  207MOL0     H27914   3.760  10.323   8.240  2.3088 -0.0632  2.0675
  207MOL0     H27915   3.614  10.364   8.475  0.5241 -1.5657  1.0682
  207MOL0     H27916   3.609  10.217   8.369 -1.5422  0.1843 -1.8920
  207MOL0     H27917   3.445  10.468   8.345 -0.6993  0.7213 -0.6467
  207MOL0     H27918   3.446  10.349   8.214 -1.2473  1.7589  0.2066
  207MOL0     H27919   3.392  10.294   8.496 -0.7343  3.7532 -0.4677
  207MOL0     H27920   3.394  10.177   8.356 -0.1274 -0.3351 -0.8883
  207MOL0     H27921   3.183  10.259   8.269  0.3984 -1.1109  0.4835
  207MOL0     H27922   3.166  10.209   8.433  3.1756 -1.3031  1.0362
  207MOL0     H27923   3.234  10.504   8.373 -1.9432  1.9302 -0.5805
  207MOL0     H27924   3.148  10.456   8.513 -5.0341 -0.2916  0.4506
  207MOL0     H27925   2.989  10.423   8.269  0.8612 -1.8711  1.2997
  207MOL0     H27926   2.993  10.579   8.368  1.0162  1.0201 -1.8879
  207MOL0     H27927   3.842  10.265   8.707  1.8813 -2.4505  4.4327
  207MOL0     H27928   3.962  10.303   8.906  0.8788  0.3172  0.0468
  207MOL0     H27929   4.176  10.831   9.123  3.7266  3.8158 -0.8132
  207MOL0     H27930   4.341  10.895   9.297 -0.3446 -0.0438  2.2860
  207MOL0     H27931   5.627   9.886  10.630 -1.8567  0.1104  2.0188
  207MOL0     H27932   5.791   9.815  10.771 -0.7495 -0.4206  2.0653
  207MOL0     H27933   6.237   9.910  10.862  2.4934  1.6731 -1.5583
  207MOL0     H27934   6.468   9.931  10.946 -1.0793  0.2306 -1.4773
  207MOL0     H27935   6.681   9.912  11.123  0.9591 -0.0649  1.2833
  207MOL0     H27936   6.670  10.041  11.011  1.1096 -0.4362 -0.2175
  207MOL0     H27937   6.803  10.047  11.299  0.2943 -3.1794 -0.7628
  207MOL0     H27938   6.763  10.194  11.212 -2.4495 -1.0431 -0.6390
  207MOL0     H27939   6.905  10.110  11.021 -0.3486  0.9486  0.1616
  207MOL0     H27940   6.969   9.975  11.113 -0.9091 -0.2615 -3.0339
  207MOL0     H27941   6.982  10.281  11.217  1.5404  0.1521  2.2041
  207MOL0     H27942   7.101  10.212  11.117  0.7711 -3.0860 -0.6452
  207MOL0     H27943   7.156   9.974  11.467 -0.1503  1.1062  1.4506
  207MOL0     H27944   6.344  10.156  11.291 -1.7874  2.4019 -0.6637
  207MOL0     H27945   6.124  10.138  11.228  2.3771  1.0670  0.9470
  208MOL0     O27946   3.817   4.848   5.590 -0.3632  0.4950  0.2308
  208MOL0     C27947   3.878   4.952   5.598  0.0897  0.9066 -0.1701
  208MOL0     O27948   3.820   5.075   5.631 -0.8263  0.6548  0.2360
  208MOL0     C27949   3.688   5.087   5.602 -1.3571 -0.3001 -0.1864
  208MOL0     C27950   3.613   5.175   5.677  0.2790  0.0706 -0.7763
  208MOL0     C27951   3.490   5.225   5.653  0.3777  0.0543 -0.0600
  208MOL0     C27952   3.430   5.196   5.530 -0.4940 -0.5235 -0.0088
  208MOL0     O27953   3.316   5.274   5.506 -0.2046 -0.1763  0.6421
  208MOL0     C27954   3.261   5.259   5.382  0.1515  0.0252 -0.1437
  208MOL0     C27955   3.139   5.346   5.371 -0.4537  0.3530 -0.0795
  208MOL0     C27956   3.017   5.296   5.460  0.0345 -1.2419 -0.0912
  208MOL0     C27957   2.894   5.386   5.421  0.8847 -0.3667  0.4214
  208MOL0     C27958   2.760   5.320   5.462  0.0697  0.7081 -0.5199
  208MOL0     C27959   2.643   5.413   5.432  0.3329 -0.2343  0.1740
  208MOL0     C27960   2.512   5.344   5.489  0.9075 -0.4287 -0.2008
  208MOL0     C27961   2.399   5.432   5.441  0.7299 -0.4787  0.7295
  208MOL0     N27962   2.271   5.375   5.484 -0.1899  0.3524 -0.0932
  208MOL0     C27963   2.225   5.403   5.616 -0.0247  0.3501  0.6426
  208MOL0     C27964   2.113   5.326   5.629 -0.1867  0.2740 -0.0972
  208MOL0     C27965   2.021   5.313   5.744  0.6259  0.7208 -0.8779
  208MOL0     C27966   1.876   5.366   5.723 -1.0666  0.4856  0.0019
  208MOL0     C27967   1.791   5.293   5.607 -0.2787 -1.0741 -0.2561
  208MOL0     C27968   1.651   5.356   5.600  0.3787 -0.2820 -0.7337
  208MOL0     O27969   1.644   5.456   5.496 -0.1173  0.1120  0.5917
  208MOL0     C27970   1.517   5.491   5.457  0.6094  0.3103 -0.4493
  208MOL0     C27971   1.495   5.577   5.351 -0.7153  0.3334 -0.4276
  208MOL0     C27972   1.382   5.638   5.300  0.5897  0.6591 -0.2404
  208MOL0     C27973   1.410   5.734   5.190  0.2346 -0.7565 -0.0548
  208MOL0     C27974   1.257   5.600   5.371 -0.5261 -0.4918  1.0396
  208MOL0     C27975   1.131   5.669   5.330  0.4709  0.1335 -0.0970
  208MOL0     O27976   1.111   5.681   5.196  0.9642  1.1069 -0.6025
  208MOL0     C27977   1.014   5.766   5.155  0.2928 -0.0172  0.8215
  208MOL0     C27978   0.961   5.740   5.030 -0.0935  0.4294  1.1751
  208MOL0     C27979   0.868   5.822   4.972  0.1837  0.2914  0.7010
  208MOL0     C27980   0.836   5.946   5.025 -1.4660 -1.3945  0.8563
  208MOL0     O27981   0.743   6.034   4.971 -0.7545 -0.1531  0.0516
  208MOL0     C27982   0.719   6.005   4.827 -0.1015  0.1739 -0.2866
  208MOL0     C27983   0.669   6.139   4.766 -0.1347 -0.5395 -0.3091
  208MOL0     C27984   0.627   6.123   4.616 -0.6681  0.0945  0.8235
  208MOL0     C27985   0.507   6.201   4.576  1.0840 -1.6467 -0.6956
  208MOL0     C27986   0.481   6.204   4.428  0.8465 -0.6231 -0.3148
  208MOL0     C27987   0.351   6.277   4.393 -1.3451 -0.0511 -0.4088
  208MOL0     C27988   0.323   6.262   4.245  1.0654  0.3906  0.3250
  208MOL0     C27989   0.185   6.316   4.213  0.7120  0.2469 -0.5861
  208MOL0    Cl27990   0.148   6.261   4.043  0.1586 -0.0376 -0.1982
  208MOL0     C27991   0.896   5.983   5.150 -0.0271  0.6712  0.2996
  208MOL0     C27992   0.978   5.894   5.213 -0.3906  0.5609 -0.9080
  208MOL0     O27993   1.064   5.718   5.419 -0.1080  0.0223 -0.1305
  208MOL0     C27994   1.271   5.507   5.477 -0.0008 -0.2385 -0.7431
  208MOL0     C27995   1.396   5.466   5.527 -0.6350 -0.5823  0.1443
  208MOL0     N27996   2.084   5.280   5.502  0.4535  0.5910 -0.7053
  208MOL0     N27997   2.175   5.296   5.420 -0.5188 -0.3564  0.2508
  208MOL0     C27998   3.501   5.110   5.438 -0.4725  0.5800 -0.8520
  208MOL0     C27999   3.632   5.060   5.472 -0.1350  0.3948 -0.1061
  208MOL0     C28000   4.022   4.933   5.580 -1.6870  0.2202 -0.3426
  208MOL0     C28001   4.108   5.050   5.611 -0.2092  0.1901 -0.2125
  208MOL0     C28002   4.246   5.023   5.613 -0.3120 -0.4877 -0.2478
  208MOL0     C28003   4.307   4.908   5.592 -0.5181  0.5224 -0.3599
  208MOL0     O28004   4.443   4.876   5.579 -0.5225 -0.1014  0.0776
  208MOL0     C28005   4.528   4.939   5.670  0.3611  0.3018 -0.5745
  208MOL0     C28006   4.615   5.047   5.600 -0.0716 -0.0973  0.4577
  208MOL0     C28007   4.713   5.125   5.691 -0.6897  1.2326 -0.4038
  208MOL0     C28008   4.764   5.249   5.618 -0.8252  0.3409 -0.2301
  208MOL0     C28009   4.880   5.312   5.686 -0.9918  0.2519 -0.9042
  208MOL0     C28010   4.993   5.349   5.727  1.1450  0.4564 -0.6726
  208MOL0     C28011   4.228   4.798   5.562  0.4224 -0.7502  0.1615
  208MOL0     C28012   4.088   4.812   5.557 -0.7666 -0.8203  0.5337
  208MOL0     H28013   3.647   5.213   5.773 -0.8001  3.8769 -1.7265
  208MOL0     H28014   3.444   5.293   5.724  1.4653  0.7008  0.0548
  208MOL0     H28015   3.335   5.300   5.312 -0.2716  0.9092 -0.0873
  208MOL0     H28016   3.237   5.155   5.357 -1.0338  0.7368 -2.1937
  208MOL0     H28017   3.165   5.450   5.391 -1.0178  0.3233  0.8694
  208MOL0     H28018   3.101   5.348   5.269  0.6443 -2.9138 -0.7035
  208MOL0     H28019   2.993   5.196   5.423  2.1474 -1.5511 -0.7469
  208MOL0     H28020   3.037   5.308   5.567  1.4907 -0.9155 -0.3831
  208MOL0     H28021   2.893   5.482   5.475 -0.1674 -0.0401 -0.1631
  208MOL0     H28022   2.883   5.408   5.315 -3.0805  1.4603  1.0191
  208MOL0     H28023   2.741   5.228   5.407  2.4838  1.2486 -2.4010
  208MOL0     H28024   2.765   5.289   5.567  2.6069 -0.7521 -0.9962
  208MOL0     H28025   2.660   5.511   5.478  0.0857 -1.1334  2.3394
  208MOL0     H28026   2.631   5.447   5.329  0.7384 -1.8919 -0.4508
  208MOL0     H28027   2.509   5.244   5.445  0.0953  0.4190 -2.2194
  208MOL0     H28028   2.515   5.324   5.596 -1.4348 -1.9734 -0.3561
  208MOL0     H28029   2.397   5.422   5.332 -2.3591 -3.1271  0.8805
  208MOL0     H28030   2.418   5.535   5.473 -2.0745  0.2604  0.2843
  208MOL0     H28031   2.282   5.462   5.688  3.1463 -2.5837  0.8233
  208MOL0     H28032   2.012   5.205   5.759  2.0970  0.6314 -0.4678
  208MOL0     H28033   2.067   5.357   5.834 -0.2752  0.6600 -0.3764
  208MOL0     H28034   1.877   5.475   5.713  2.7800  0.5982  0.0861
  208MOL0     H28035   1.830   5.334   5.817  0.7819 -0.7963  0.5182
  208MOL0     H28036   1.782   5.185   5.624 -0.7552 -1.2717 -1.6248
  208MOL0     H28037   1.849   5.309   5.516  1.8466 -2.3015  0.8089
  208MOL0     H28038   1.606   5.410   5.684 -2.0050 -1.1826 -1.3322
  208MOL0     H28039   1.584   5.271   5.579 -0.6085  0.1327  0.6071
  208MOL0     H28040   1.588   5.599   5.301 -0.1153  0.4477  0.7038
  208MOL0     H28041   1.517   5.747   5.170  0.3154  0.0156  0.8298
  208MOL0     H28042   1.361   5.714   5.094  1.2903 -0.0428 -0.7610
  208MOL0     H28043   1.380   5.834   5.223 -2.3881 -0.5077 -2.6790
  208MOL0     H28044   0.995   5.650   4.980 -2.5795  0.1691 -0.2603
  208MOL0     H28045   0.840   5.791   4.872 -1.6802  0.8506  1.0123
  208MOL0     H28046   0.809   5.967   4.779 -0.7186  1.3006 -2.4602
  208MOL0     H28047   0.647   5.924   4.813  0.6287 -0.7700  1.1029
  208MOL0     H28048   0.583   6.174   4.824  1.0922 -3.2134  3.4556
  208MOL0     H28049   0.756   6.203   4.777  0.7693 -1.7194 -0.4262
  208MOL0     H28050   0.607   6.017   4.596 -0.4271  0.0844  0.6274
  208MOL0     H28051   0.716   6.153   4.560 -1.8995 -1.6783 -2.3483
  208MOL0     H28052   0.424   6.164   4.637 -0.2649 -0.6798 -1.8663
  208MOL0     H28053   0.521   6.308   4.596 -0.5141 -0.0974 -6.1772
  208MOL0     H28054   0.474   6.101   4.394  0.2103  0.0270 -2.3026
  208MOL0     H28055   0.562   6.250   4.370  1.0158 -0.9785 -0.3565
  208MOL0     H28056   0.275   6.220   4.448  1.0515 -1.7833  1.2827
  208MOL0     H28057   0.371   6.378   4.430  2.4806 -0.4318 -1.0886
  208MOL0     H28058   0.314   6.159   4.210 -0.0245  0.4584  0.3630
  208MOL0     H28059   0.398   6.314   4.186  1.0221  0.2003  0.0990
  208MOL0     H28060   0.171   6.424   4.226  0.0196 -0.0474  1.6959
  208MOL0     H28061   0.116   6.271   4.286 -0.1812  0.9055 -1.0038
  208MOL0     H28062   0.883   6.077   5.204 -0.3438  0.8164 -0.0240
  208MOL0     H28063   1.017   5.926   5.309 -1.5982 -2.3023  0.6735
  208MOL0     H28064   1.187   5.478   5.539  3.2076 -1.8393  3.3495
  208MOL0     H28065   1.397   5.401   5.614  1.4714  1.4446  1.7785
  208MOL0     H28066   3.458   5.090   5.341 -1.0761  2.3960 -0.9953
  208MOL0     H28067   3.677   5.009   5.388  0.9492  0.2812  0.5232
  208MOL0     H28068   4.066   5.147   5.636 -0.8988 -0.2042  0.2036
  208MOL0     H28069   4.318   5.104   5.618 -0.5214  0.3490 -5.3025
  208MOL0     H28070   4.468   4.975   5.754 -0.1100 -0.7271 -0.4612
  208MOL0     H28071   4.580   4.855   5.717 -0.3858  1.1294  1.9056
  208MOL0     H28072   4.551   5.120   5.550  0.9462  0.2695 -0.3426
  208MOL0     H28073   4.683   4.994   5.533  0.3276 -0.7657  1.3694
  208MOL0     H28074   4.796   5.061   5.724 -0.1339  3.0104  1.9632
  208MOL0     H28075   4.674   5.147   5.791  1.6813 -1.1959  1.1762
  208MOL0     H28076   4.687   5.323   5.598  1.3990  2.3809 -1.8982
  208MOL0     H28077   4.800   5.226   5.518  1.1313  1.8118  0.0738
  208MOL0     H28078   5.089   5.383   5.762  1.8588 -2.1125  0.0458
  208MOL0     H28079   4.281   4.704   5.546  1.8617 -0.2303  1.6024
  208MOL0     H28080   4.034   4.718   5.562 -1.6873 -0.2587  4.6213
  209MOL0     O28081   1.589   3.208  10.483  0.2097 -0.2621  0.0667
  209MOL0     C28082   1.638   3.171  10.586 -0.0141 -0.0491  0.2504
  209MOL0     O28083   1.579   3.081  10.670 -0.2725  0.2002 -0.2256
  209MOL0     C28084   1.458   3.044  10.635  0.7661  0.0984  0.3109
  209MOL0     C28085   1.425   2.970  10.518  0.2141  1.9696 -0.0800
  209MOL0     C28086   1.289   2.957  10.484  0.9789 -0.3938 -0.9208
  209MOL0     C28087   1.184   2.995  10.565 -0.1068  0.7157 -0.2626
  209MOL0     O28088   1.049   2.969  10.549 -0.5847  0.6502 -0.6156
  209MOL0     C28089   0.991   2.894  10.441 -0.2116 -0.3030 -0.1568
  209MOL0     C28090   0.896   2.979  10.371 -0.1786  0.3184 -0.0443
  209MOL0     C28091   0.782   3.039  10.458 -0.0665  0.6730 -0.6679
  209MOL0     C28092   0.679   3.111  10.365  0.4441 -0.4314 -0.0824
  209MOL0     C28093   0.728   3.250  10.324 -0.2870  0.3708 -0.5411
  209MOL0     C28094   0.619   3.331  10.253  0.2594  0.2620 -1.3690
  209MOL0     C28095   0.675   3.451  10.181  0.2562 -0.0309  0.1810
  209MOL0     C28096   0.764   3.417  10.067  0.0039  0.0401  0.2563
  209MOL0     N28097   0.772   3.540   9.983  0.3262  0.1982  0.3303
  209MOL0     C28098   0.863   3.635  10.019  0.7655 -0.4746 -0.3467
  209MOL0     C28099   0.840   3.740   9.938 -0.0282  0.1910  0.6071
  209MOL0     C28100   0.913   3.868   9.926 -0.7341  0.4118  0.4647
  209MOL0     C28101   0.836   3.996   9.963 -0.5007  0.3132 -0.1107
  209MOL0     C28102   0.892   4.134   9.920  0.9334  0.2154  0.4802
  209MOL0     C28103   0.891   4.139   9.767  0.9319 -0.7214 -1.1460
  209MOL0     O28104   0.911   4.273   9.717  0.0425  0.2673  0.9913
  209MOL0     C28105   0.823   4.381   9.728 -0.0318  0.7163  0.3830
  209MOL0     C28106   0.876   4.512   9.739 -0.3732  0.0895  0.2276
  209MOL0     C28107   0.798   4.626   9.751 -0.3568  0.1462  0.0947
  209MOL0     C28108   0.880   4.749   9.760 -0.4225  0.2678  0.4023
  209MOL0     C28109   0.659   4.614   9.759 -0.2739 -0.0164  0.4981
  209MOL0     C28110   0.566   4.732   9.794 -0.1461  1.1389 -0.6109
  209MOL0     O28111   0.615   4.848   9.851 -0.3067  0.0911  0.6224
  209MOL0     C28112   0.518   4.933   9.895 -0.1978 -0.5476  0.1594
  209MOL0     C28113   0.493   4.950  10.032  0.1500  0.0388 -0.8863
  209MOL0     C28114   0.404   5.048  10.074 -0.2061  0.2210 -0.3865
  209MOL0     C28115   0.337   5.124   9.976 -0.0021  0.5406 -0.9869
  209MOL0     O28116   0.251   5.227   9.993  0.0581 -0.6069  0.6142
  209MOL0     C28117   0.179   5.244  10.116 -0.8988  0.1238  0.2906
  209MOL0     C28118   0.071   5.146  10.110  0.2363 -0.4208  0.6674
  209MOL0     C28119  -0.060   5.176  10.182  0.0463  0.0963  0.3200
  209MOL0     C28120  -0.175   5.087  10.145  0.2951  0.0681 -0.6714
  209MOL0     C28121  -0.304   5.155  10.180  0.2621 -0.0746  0.1158
  209MOL0     C28122  -0.426   5.061  10.157  0.0082  0.4605 -0.2837
  209MOL0     C28123  -0.551   5.141  10.190  0.2815 -0.2541 -0.5000
  209MOL0     C28124  -0.679   5.059  10.166  0.0706 -0.3050  0.1736
  209MOL0    Cl28125  -0.813   5.115  10.266  0.0427  0.1700 -0.3089
  209MOL0     C28126   0.365   5.100   9.844 -0.1413 -0.0364  0.9571
  209MOL0     C28127   0.464   5.012   9.806 -0.1182 -0.1813 -0.0584
  209MOL0     O28128   0.451   4.706   9.773  0.0993 -0.1220 -0.4144
  209MOL0     C28129   0.599   4.484   9.739  0.1382  0.4366  0.1387
  209MOL0     C28130   0.680   4.368   9.730  0.0590 -0.1517 -0.8255
  209MOL0     N28131   0.734   3.698   9.851 -0.5667  0.0734  0.1546
  209MOL0     N28132   0.690   3.578   9.879 -0.9032  0.3547 -0.1750
  209MOL0     C28133   1.218   3.062  10.689 -0.4580  0.2666 -0.3128
  209MOL0     C28134   1.356   3.091  10.720 -0.0622  0.9050  0.2193
  209MOL0     C28135   1.764   3.239  10.637  0.7090 -0.4717 -0.3436
  209MOL0     C28136   1.818   3.207  10.761  0.3048 -0.2034  0.0366
  209MOL0     C28137   1.949   3.245  10.786  0.1417  0.3956  0.3514
  209MOL0     C28138   2.034   3.305  10.690 -0.5410  0.7757 -0.8082
  209MOL0     O28139   2.166   3.326  10.717 -0.4661 -0.2703 -0.3399
  209MOL0     C28140   2.211   3.471  10.714  0.5685  0.9249 -0.2287
  209MOL0     C28141   2.312   3.495  10.827 -0.3617  0.8047  0.0696
  209MOL0     C28142   2.425   3.389  10.839  0.2806 -0.8257 -0.4793
  209MOL0     C28143   2.511   3.439  10.951 -0.1372  0.2068 -0.6937
  209MOL0     C28144   2.628   3.525  10.919  0.1384  0.6314 -0.0866
  209MOL0     C28145   2.734   3.570  10.899 -0.0521 -0.5172 -0.2149
  209MOL0     C28146   1.975   3.347  10.575 -0.0541  0.6533  0.0632
  209MOL0     C28147   1.840   3.316  10.548  0.7175 -0.7929 -0.4321
  209MOL0     H28148   1.505   2.935  10.454  1.1718  0.4142  1.8472
  209MOL0     H28149   1.250   2.906  10.396 -3.7441  1.6455 -0.3197
  209MOL0     H28150   1.057   2.845  10.368 -0.8361  0.6486 -1.3892
  209MOL0     H28151   0.939   2.810  10.488 -0.4859  0.8215  1.6321
  209MOL0     H28152   0.949   3.065  10.331  0.6564 -0.5962 -0.9763
  209MOL0     H28153   0.866   2.923  10.282 -1.4004  1.9768 -0.7062
  209MOL0     H28154   0.739   2.959  10.519  3.1534 -0.9126 -0.2374
  209MOL0     H28155   0.814   3.109  10.535 -1.2349 -3.2175  3.8527
  209MOL0     H28156   0.646   3.053  10.279  0.1491 -1.6842  0.8522
  209MOL0     H28157   0.587   3.121  10.424 -1.2691  2.6678 -2.9442
  209MOL0     H28158   0.769   3.311  10.405  3.8968 -0.6297 -1.6525
  209MOL0     H28159   0.821   3.228  10.271 -0.8571 -2.1709 -0.6144
  209MOL0     H28160   0.560   3.259  10.196 -2.1554  0.9992  0.0481
  209MOL0     H28161   0.551   3.365  10.332 -0.9204  1.4060 -2.8226
  209MOL0     H28162   0.596   3.517  10.145  0.7014 -0.1777 -1.1021
  209MOL0     H28163   0.737   3.505  10.253  3.0184 -0.3514 -1.7952
  209MOL0     H28164   0.725   3.333  10.008  1.6392 -0.5423 -0.0658
  209MOL0     H28165   0.857   3.379  10.112 -0.8369 -5.0142 -1.5324
  209MOL0     H28166   0.935   3.640  10.099  0.2014  0.0026  0.1496
  209MOL0     H28167   0.995   3.856   9.997 -4.3051  0.5157  5.0564
  209MOL0     H28168   0.947   3.871   9.822 -3.7656 -1.1899 -0.7054
  209MOL0     H28169   0.823   4.018  10.070 -0.2346  4.2202 -0.7231
  209MOL0     H28170   0.738   3.982   9.916  0.1529  0.1212 -1.4404
  209MOL0     H28171   0.992   4.146   9.962  2.3993  0.5562 -2.7763
  209MOL0     H28172   0.821   4.205   9.963  2.1066  0.8424  1.4218
  209MOL0     H28173   0.807   4.088   9.718 -0.8782  0.6171  0.3712
  209MOL0     H28174   0.977   4.074   9.755  1.2913 -0.2949 -0.9226
  209MOL0     H28175   0.984   4.524   9.740 -0.3630  1.1366 -2.8026
  209MOL0     H28176   0.909   4.757   9.865  0.1796 -3.8967  0.7166
  209MOL0     H28177   0.968   4.730   9.697 -0.1769 -0.8834  1.0611
  209MOL0     H28178   0.847   4.845   9.719  1.2871  1.3546  1.4432
  209MOL0     H28179   0.553   4.897  10.105  0.1322  2.0709  0.6781
  209MOL0     H28180   0.373   5.071  10.175 -1.1560 -1.2768 -0.3140
  209MOL0     H28181   0.235   5.232  10.209  0.5506  1.9643 -0.2963
  209MOL0     H28182   0.133   5.343  10.113 -2.1536 -0.4523 -2.4080
  209MOL0     H28183   0.045   5.127  10.005  3.5321 -0.7706 -0.1896
  209MOL0     H28184   0.092   5.047  10.151 -0.5528  0.3721  3.1939
  209MOL0     H28185  -0.091   5.278  10.157 -1.1348 -0.4614 -0.5986
  209MOL0     H28186  -0.038   5.170  10.289 -1.0022 -2.2083  0.4608
  209MOL0     H28187  -0.166   5.052  10.042 -2.1335 -0.6507 -0.7050
  209MOL0     H28188  -0.173   4.993  10.202 -2.1905 -0.1047 -0.7489
  209MOL0     H28189  -0.315   5.244  10.118  2.8901 -1.0139 -1.8349
  209MOL0     H28190  -0.295   5.183  10.286 -0.0096  0.6668 -0.0457
  209MOL0     H28191  -0.429   5.017  10.057  2.6802 -1.4783  0.3818
  209MOL0     H28192  -0.414   4.979  10.228 -0.6107 -0.2974 -1.0469
  209MOL0     H28193  -0.549   5.237  10.139  1.3741  0.1047  0.1908
  209MOL0     H28194  -0.534   5.167  10.295  4.7321  0.7456 -1.2484
  209MOL0     H28195  -0.658   4.952  10.178  5.4638  0.2458 -1.6547
  209MOL0     H28196  -0.714   5.077  10.064 -0.6217  3.8536  0.9656
  209MOL0     H28197   0.326   5.160   9.761  0.3901 -1.8774 -0.7046
  209MOL0     H28198   0.501   4.998   9.704  0.6236 -0.9394  0.3033
  209MOL0     H28199   0.492   4.480   9.758  0.5366  1.9950  3.5591
  209MOL0     H28200   0.624   4.275   9.730 -1.1155  0.4648  2.1647
  209MOL0     H28201   1.145   3.098  10.760 -0.7763  0.6822 -0.8394
  209MOL0     H28202   1.371   3.147  10.812 -1.8219  2.3234 -0.2964
  209MOL0     H28203   1.763   3.149  10.835  2.8647 -0.3205  1.9844
  209MOL0     H28204   1.992   3.221  10.883 -0.6072  1.5446  0.9868
  209MOL0     H28205   2.266   3.492  10.622  2.8654  0.5153  0.9756
  209MOL0     H28206   2.129   3.542  10.724  1.2547  2.1342 -2.3903
  209MOL0     H28207   2.257   3.491  10.921  0.8473 -2.3897  0.7564
  209MOL0     H28208   2.359   3.594  10.827 -0.0265  0.7295  3.2422
  209MOL0     H28209   2.482   3.375  10.746 -0.2308  1.7106 -1.2534
  209MOL0     H28210   2.376   3.296  10.869  2.1517 -1.6808  0.0569
  209MOL0     H28211   2.567   3.358  10.998  0.9525  1.0879 -0.4387
  209MOL0     H28212   2.442   3.492  11.018  1.2488 -0.4551  1.3516
  209MOL0     H28213   2.831   3.608  10.877 -0.3181  0.0066 -0.5075
  209MOL0     H28214   2.029   3.397  10.495  1.8611  0.9800  1.4759
  209MOL0     H28215   1.807   3.344  10.449  1.1845 -1.6339 -0.8389
  210MOL0     O28216  10.304   9.500   1.739 -0.1135  0.2007 -0.4062
  210MOL0     C28217  10.385   9.592   1.758 -0.2327  0.1266  0.5012
  210MOL0     O28218  10.357   9.723   1.755 -0.7492 -0.0220  0.1713
  210MOL0     C28219  10.229   9.779   1.749 -0.5546  0.4120 -0.2197
  210MOL0     C28220  10.226   9.914   1.707 -1.0818  0.6579  0.0939
  210MOL0     C28221  10.113   9.989   1.723 -0.6513  0.2656  0.2442
  210MOL0     C28222   9.993   9.922   1.765 -0.2269 -1.3491  0.0409
  210MOL0     O28223   9.881  10.001   1.744  0.1947  0.1455 -0.9394
  210MOL0     C28224   9.757   9.956   1.809 -0.1764 -0.6591 -0.4834
  210MOL0     C28225   9.672  10.090   1.822  0.0505  1.2449 -0.9872
  210MOL0     C28226   9.638  10.152   1.687 -0.3891 -0.3326  0.5946
  210MOL0     C28227   9.562  10.288   1.721 -1.0991  1.0240  0.4965
  210MOL0     C28228   9.532  10.367   1.595  0.0527  0.3444  0.1001
  210MOL0     C28229   9.451  10.490   1.632 -0.4381 -0.2416  0.0452
  210MOL0     C28230   9.450  10.582   1.506  0.9746  0.6296  0.0102
  210MOL0     C28231   9.568  10.664   1.491  0.0826 -0.1236 -0.6502
  210MOL0     N28232   9.543  10.783   1.413  0.1385 -0.1987 -1.0845
  210MOL0     C28233   9.432  10.858   1.415 -0.8036 -0.0698  0.4912
  210MOL0     C28234   9.455  10.966   1.343 -1.4443 -0.8533  0.1030
  210MOL0     C28235   9.366  11.082   1.331  0.8543 -0.4390  0.5069
  210MOL0     C28236   9.373  11.174   1.458 -0.2210 -0.0758  0.3821
  210MOL0     C28237   9.286  11.292   1.428  0.3221  0.2620 -0.5502
  210MOL0     C28238   9.130  11.267   1.439  1.0968 -0.2351  0.0129
  210MOL0     O28239   9.075  11.215   1.314  0.4061  0.4087  0.0993
  210MOL0     C28240   8.932  11.205   1.311 -0.2311 -1.0193  0.1050
  210MOL0     C28241   8.875  11.176   1.191 -1.1478 -0.8439  0.6429
  210MOL0     C28242   8.735  11.157   1.174  0.6714 -0.5886  0.4805
  210MOL0     C28243   8.681  11.149   1.030 -0.1484  0.2156 -0.1197
  210MOL0     C28244   8.651  11.150   1.291 -0.4721 -0.5664 -0.3639
  210MOL0     C28245   8.514  11.116   1.286  0.6563  0.4171  0.7795
  210MOL0     O28246   8.426  11.186   1.357 -1.0992  0.4875 -0.6425
  210MOL0     C28247   8.308  11.143   1.401  0.6110 -0.9498 -0.4894
  210MOL0     C28248   8.241  11.231   1.501 -0.2286  0.6794  0.1027
  210MOL0     C28249   8.110  11.196   1.549  1.3237  0.9768 -0.0373
  210MOL0     C28250   8.042  11.078   1.502 -0.3139  0.0339 -0.1583
  210MOL0     O28251   7.914  11.063   1.546  0.8700 -0.4536 -0.0590
  210MOL0     C28252   7.865  10.935   1.553  0.0648 -0.1385  0.5378
  210MOL0     C28253   7.725  10.954   1.607 -1.1111 -1.0254  0.0865
  210MOL0     C28254   7.660  10.817   1.638 -0.6137 -0.3495 -0.2776
  210MOL0     C28255   7.516  10.836   1.662 -0.0325  0.4298 -1.2130
  210MOL0     C28256   7.421  10.726   1.599  0.1950  0.8236 -0.2840
  210MOL0     C28257   7.275  10.744   1.662  0.5027  0.0709 -0.1474
  210MOL0     C28258   7.266  10.708   1.804  0.2189  0.2504 -0.6507
  210MOL0     C28259   7.121  10.709   1.847  0.2593  0.3375  0.2577
  210MOL0    Cl28260   7.028  10.568   1.790 -0.1429 -0.0708 -0.0081
  210MOL0     C28261   8.109  11.011   1.409  0.2328 -0.6933  0.2583
  210MOL0     C28262   8.235  11.042   1.360 -0.4064  0.7220 -0.5196
  210MOL0     O28263   8.484  11.011   1.230 -0.4035  0.0628  0.3948
  210MOL0     C28264   8.718  11.171   1.411 -0.5463  0.0340 -1.3021
  210MOL0     C28265   8.851  11.199   1.430 -0.1166  0.2007  0.4775
  210MOL0     N28266   9.583  10.959   1.286  0.1994  0.0775  0.3604
  210MOL0     N28267   9.634  10.851   1.333  0.0878  0.6746 -0.5787
  210MOL0     C28268   9.996   9.789   1.799  0.9114 -0.6083 -0.7264
  210MOL0     C28269  10.116   9.715   1.797  0.9756 -0.9919  0.7684
  210MOL0     C28270  10.527   9.556   1.774  0.1958  0.4238 -0.6928
  210MOL0     C28271  10.620   9.640   1.835 -0.0333  0.0083 -0.2466
  210MOL0     C28272  10.757   9.612   1.859 -0.5605  0.3715 -0.6719
  210MOL0     C28273  10.805   9.493   1.818  0.0880  0.4805 -0.2618
  210MOL0     O28274  10.943   9.478   1.825  0.7154  0.5501 -0.4294
  210MOL0     C28275  11.015   9.495   1.953  0.1339  0.5678 -0.9370
  210MOL0     C28276  11.170   9.470   1.943  0.1554  0.6239  0.5059
  210MOL0     C28277  11.206   9.315   1.936 -0.4883 -0.8696  0.4402
  210MOL0     C28278  11.221   9.266   2.082 -0.2611 -1.0290  1.7606
  210MOL0     C28279  11.253   9.120   2.079  0.8393  0.7638 -0.4442
  210MOL0     C28280  11.287   9.002   2.083  0.2355 -0.6344 -0.1888
  210MOL0     C28281  10.717   9.408   1.746 -0.1993 -0.2369 -0.1363
  210MOL0     C28282  10.577   9.437   1.731 -0.1557  0.4750 -0.0526
  210MOL0     H28283  10.316   9.967   1.677 -0.8491 -0.6063 -1.6165
  210MOL0     H28284  10.101  10.089   1.685  0.4359 -0.4379 -2.1701
  210MOL0     H28285   9.713   9.871   1.756 -0.2514 -0.4490 -0.7625
  210MOL0     H28286   9.769   9.917   1.910 -2.0173 -0.3227 -0.1032
  210MOL0     H28287   9.578  10.052   1.865  1.4573  0.7526  1.9658
  210MOL0     H28288   9.711  10.160   1.896  0.1779 -1.1520  1.3843
  210MOL0     H28289   9.712  10.178   1.611 -2.8348  2.3083 -1.1070
  210MOL0     H28290   9.559  10.095   1.637 -0.0701  0.3471 -0.7142
  210MOL0     H28291   9.468  10.259   1.769 -1.4294 -1.3688 -1.4602
  210MOL0     H28292   9.625  10.343   1.793  2.1385  0.4567 -1.6787
  210MOL0     H28293   9.631  10.375   1.549 -0.2206  0.6985 -0.4353
  210MOL0     H28294   9.476  10.301   1.529  0.2440  0.7561 -0.4786
  210MOL0     H28295   9.351  10.462   1.666 -0.0552 -1.2826  0.3721
  210MOL0     H28296   9.475  10.546   1.723 -3.3987 -0.6220  1.1630
  210MOL0     H28297   9.440  10.520   1.417 -2.4613  1.5853 -0.3931
  210MOL0     H28298   9.358  10.639   1.511  0.4223 -0.3198  1.8635
  210MOL0     H28299   9.645  10.604   1.440 -2.6224 -2.9547 -1.7452
  210MOL0     H28300   9.604  10.690   1.590  0.9833 -2.5018 -0.2763
  210MOL0     H28301   9.341  10.828   1.465  0.5034 -3.7308  1.0278
  210MOL0     H28302   9.397  11.141   1.244 -2.3229 -1.8344 -1.7568
  210MOL0     H28303   9.262  11.057   1.308  0.3296  2.6172 -1.0752
  210MOL0     H28304   9.477  11.201   1.473  0.8188 -3.3509 -0.1033
  210MOL0     H28305   9.348  11.125   1.553 -1.0992  4.2276  2.6310
  210MOL0     H28306   9.314  11.339   1.333 -0.5097  1.8458 -0.0514
  210MOL0     H28307   9.301  11.367   1.506  1.0932  2.2582 -2.5065
  210MOL0     H28308   9.090  11.367   1.454 -1.3698 -1.2907  1.0343
  210MOL0     H28309   9.109  11.202   1.524 -4.2028  3.1110  1.7927
  210MOL0     H28310   8.945  11.181   1.108  0.9150 -0.9781  2.2910
  210MOL0     H28311   8.577  11.178   1.010 -0.4211 -1.0378 -0.6508
  210MOL0     H28312   8.732  11.222   0.967 -1.9590  0.1843 -1.7004
  210MOL0     H28313   8.696  11.048   0.990 -2.2057 -0.5654  0.8995
  210MOL0     H28314   8.297  11.314   1.544 -1.5508  2.7532 -1.9497
  210MOL0     H28315   8.050  11.257   1.616 -2.8272 -1.4672 -1.1821
  210MOL0     H28316   7.851  10.896   1.452  3.2187  1.2781 -0.5827
  210MOL0     H28317   7.939  10.870   1.601 -0.5342 -2.3884 -1.4320
  210MOL0     H28318   7.745  11.015   1.696  4.4317 -0.5906 -1.1105
  210MOL0     H28319   7.669  10.995   1.523 -0.1198  1.1600  0.4306
  210MOL0     H28320   7.715  10.773   1.722  1.3852 -0.2892 -1.5004
  210MOL0     H28321   7.674  10.746   1.556  0.6475 -0.4465  0.0029
  210MOL0     H28322   7.506  10.838   1.771  0.3847  1.3604 -1.1840
  210MOL0     H28323   7.468  10.924   1.618 -1.7267 -0.8694 -2.1292
  210MOL0     H28324   7.457  10.623   1.611 -1.2037  0.3506  0.1269
  210MOL0     H28325   7.415  10.730   1.490  0.1469 -3.7937 -0.6632
  210MOL0     H28326   7.254  10.852   1.657  1.8147  0.2888 -1.5531
  210MOL0     H28327   7.214  10.675   1.603  1.4458 -0.6972 -0.2415
  210MOL0     H28328   7.315  10.780   1.870  1.6992 -0.0200 -1.4148
  210MOL0     H28329   7.319  10.615   1.826  0.3848  0.3178 -0.7554
  210MOL0     H28330   7.076  10.798   1.801  1.7585  0.9155 -0.1482
  210MOL0     H28331   7.107  10.733   1.952  0.1316 -0.1606  0.3587
  210MOL0     H28332   8.054  10.936   1.352 -0.0888 -0.2063 -0.0801
  210MOL0     H28333   8.270  10.990   1.271  2.5289  1.4585  0.0927
  210MOL0     H28334   8.672  11.160   1.509  2.7431  0.7285  0.4804
  210MOL0     H28335   8.891  11.222   1.528 -0.0387  3.0072 -0.1401
  210MOL0     H28336   9.894   9.754   1.812  0.0677  0.9205 -2.6404
  210MOL0     H28337  10.108   9.613   1.834  0.1196 -1.2910 -0.1864
  210MOL0     H28338  10.586   9.736   1.872 -1.0610 -1.3836  2.7591
  210MOL0     H28339  10.818   9.676   1.923  0.5008 -1.3519  0.1199
  210MOL0     H28340  11.003   9.594   1.998  0.2681 -0.1392  0.6913
  210MOL0     H28341  10.962   9.427   2.020  0.2873  0.8790 -0.4974
  210MOL0     H28342  11.212   9.513   2.034  0.0948  0.6044  0.5430
  210MOL0     H28343  11.211   9.526   1.858 -0.4211  0.7375  0.2910
  210MOL0     H28344  11.291   9.294   1.871 -1.1972 -2.5315  0.0047
  210MOL0     H28345  11.123   9.263   1.888 -1.1646  2.0114 -1.8219
  210MOL0     H28346  11.134   9.291   2.143 -3.7647 -2.3859 -2.2118
  210MOL0     H28347  11.307   9.312   2.132 -1.1661  0.9575  1.5680
  210MOL0     H28348  11.321   8.900   2.083  0.4391 -0.5700  0.2875
  210MOL0     H28349  10.761   9.317   1.707 -0.8020 -0.3941 -0.4635
  210MOL0     H28350  10.513   9.371   1.675  1.0684 -2.2872  1.5810
  211MOL0     O28351   5.005  11.183   1.773  0.2408 -0.1532  0.2912
  211MOL0     C28352   4.945  11.134   1.865  0.1366 -0.0397  0.6788
  211MOL0     O28353   5.007  11.083   1.978 -0.1354 -0.5841  0.1906
  211MOL0     C28354   5.143  11.126   1.994 -0.2801  1.1177 -0.0854
  211MOL0     C28355   5.173  11.259   2.027 -0.1187  0.1171 -0.4437
  211MOL0     C28356   5.304  11.306   2.043  0.2101 -0.2686 -0.1239
  211MOL0     C28357   5.414  11.220   2.027  0.1930  0.7393 -0.4290
  211MOL0     O28358   5.543  11.256   2.056 -0.0973  0.0071 -0.2729
  211MOL0     C28359   5.564  11.385   2.105  0.2424 -0.1137  0.9639
  211MOL0     C28360   5.697  11.375   2.169  0.4431 -0.0178  0.1381
  211MOL0     C28361   5.808  11.318   2.072  0.1763 -0.4593  0.6417
  211MOL0     C28362   5.944  11.372   2.113  0.2142  0.1201  0.7420
  211MOL0     C28363   6.038  11.344   1.989 -0.1362  0.7839 -0.1865
  211MOL0     C28364   6.190  11.335   2.033  0.7324 -0.1470  0.4680
  211MOL0     C28365   6.273  11.298   1.910 -0.5724  0.8228 -0.1013
  211MOL0     C28366   6.403  11.239   1.958 -0.9194 -0.0070 -0.3022
  211MOL0     N28367   6.492  11.188   1.852  0.3173  0.2417  0.9268
  211MOL0     C28368   6.613  11.247   1.816 -0.7447 -0.1825  0.0841
  211MOL0     C28369   6.660  11.163   1.714  0.0028 -0.4017  0.3122
  211MOL0     C28370   6.776  11.208   1.623 -0.4067 -1.0581 -0.6339
  211MOL0     C28371   6.780  11.134   1.497 -0.1744 -0.4007  0.5724
  211MOL0     C28372   6.858  11.004   1.523  0.7954 -0.1865  0.3667
  211MOL0     C28373   6.842  10.907   1.400 -0.0573  0.4267  0.1744
  211MOL0     O28374   6.902  10.962   1.273 -0.2917  0.2500 -0.7290
  211MOL0     C28375   7.037  10.996   1.263  0.4359 -0.0526 -0.6182
  211MOL0     C28376   7.080  11.084   1.176 -0.4412  0.2626  0.3138
  211MOL0     C28377   7.215  11.132   1.161  0.7353 -0.5196 -0.3162
  211MOL0     C28378   7.240  11.234   1.057 -0.1507  0.2744 -1.2200
  211MOL0     C28379   7.313  11.071   1.239  0.2960  0.5185 -0.6184
  211MOL0     C28380   7.462  11.095   1.231  0.7193 -0.7430 -0.0068
  211MOL0     O28381   7.503  11.202   1.182 -0.3223 -0.0120 -0.0933
  211MOL0     C28382   7.635  11.199   1.137  0.1502 -0.1933 -0.8303
  211MOL0     C28383   7.658  11.216   0.998 -0.8117 -0.0227 -0.2271
  211MOL0     C28384   7.787  11.227   0.945 -1.0788 -0.1785  0.3777
  211MOL0     C28385   7.893  11.203   1.029  0.1901 -0.3623 -0.5141
  211MOL0     O28386   8.020  11.183   0.978  0.6852 -0.0994 -0.7071
  211MOL0     C28387   8.140  11.234   1.046  0.7301  0.0939  0.0685
  211MOL0     C28388   8.271  11.218   0.981  0.5197 -0.2280 -0.7864
  211MOL0     C28389   8.290  11.310   0.862 -0.3134  0.3904 -0.1934
  211MOL0     C28390   8.404  11.258   0.776 -0.0410 -0.5870  0.0864
  211MOL0     C28391   8.444  11.351   0.665  0.4148  0.1312  0.4559
  211MOL0     C28392   8.542  11.279   0.576  0.1364 -0.1643 -0.8774
  211MOL0     C28393   8.600  11.370   0.468  0.2884  0.3260  0.5773
  211MOL0     C28394   8.687  11.478   0.523  0.6344 -0.3158  0.2105
  211MOL0    Cl28395   8.570  11.618   0.522  0.3922  0.6012 -0.0188
  211MOL0     C28396   7.876  11.187   1.170 -0.2001  0.7383  0.7808
  211MOL0     C28397   7.750  11.189   1.220  0.9026 -0.5587 -0.1173
  211MOL0     O28398   7.528  11.015   1.295 -0.2892 -0.1139  0.6602
  211MOL0     C28399   7.266  10.960   1.323  0.2989  0.1583  0.0400
  211MOL0     C28400   7.131  10.926   1.335 -0.2889 -0.0014  0.7252
  211MOL0     N28401   6.572  11.059   1.691 -0.0064  0.0775  0.5239
  211MOL0     N28402   6.470  11.076   1.776  0.5178  0.1530 -0.1337
  211MOL0     C28403   5.385  11.089   1.996  0.6827 -0.9892  0.0940
  211MOL0     C28404   5.253  11.040   1.962  0.3206 -0.5930  0.2784
  211MOL0     C28405   4.799  11.124   1.850  0.8276 -0.2507  0.4685
  211MOL0     C28406   4.709  11.084   1.955 -0.1337  0.0732 -0.2795
  211MOL0     C28407   4.574  11.062   1.926  0.4821 -0.1732 -0.1089
  211MOL0     C28408   4.516  11.095   1.802 -0.5646 -0.1376  0.0159
  211MOL0     O28409   4.381  11.097   1.780 -0.1427  0.0055  0.6666
  211MOL0     C28410   4.298  11.031   1.879 -0.1007 -0.0903 -0.3798
  211MOL0     C28411   4.161  10.996   1.805 -0.3927 -0.1207 -0.2682
  211MOL0     C28412   4.108  10.859   1.857 -0.2879 -0.3661 -0.0556
  211MOL0     C28413   3.970  10.810   1.795 -0.1703 -0.2884  0.3350
  211MOL0     C28414   3.909  10.701   1.873  0.5755 -0.1775 -0.6764
  211MOL0     C28415   3.867  10.609   1.940 -0.3679  0.3303 -0.2636
  211MOL0     C28416   4.596  11.145   1.700 -1.0387  1.0520  0.1174
  211MOL0     C28417   4.737  11.155   1.724 -0.1295  0.8825 -0.2716
  211MOL0     H28418   5.088  11.324   2.045  0.2086  0.1007  1.3287
  211MOL0     H28419   5.318  11.411   2.064  0.2707 -0.0037 -1.4084
  211MOL0     H28420   5.577  11.455   2.022  1.1904 -0.0074  1.1878
  211MOL0     H28421   5.490  11.421   2.178 -1.8000  0.1038 -1.1126
  211MOL0     H28422   5.732  11.476   2.191  0.4127 -0.1348  0.7661
  211MOL0     H28423   5.702  11.314   2.260 -1.5663  1.1165  1.0805
  211MOL0     H28424   5.798  11.211   2.050 -1.6207 -0.5606  1.6976
  211MOL0     H28425   5.780  11.362   1.976  1.1012 -0.0477  0.5569
  211MOL0     H28426   5.951  11.475   2.149  2.2859 -0.3352  1.8067
  211MOL0     H28427   5.974  11.309   2.197 -2.1280 -0.6071  1.0924
  211MOL0     H28428   6.012  11.250   1.939  2.7587  0.8037 -1.9588
  211MOL0     H28429   6.028  11.424   1.916  1.5616  3.6822  2.5098
  211MOL0     H28430   6.229  11.431   2.069  1.0620 -0.8072  1.9664
  211MOL0     H28431   6.202  11.262   2.114 -1.6825 -1.3789 -0.2136
  211MOL0     H28432   6.227  11.219   1.850 -0.3266 -1.2995  2.3411
  211MOL0     H28433   6.301  11.384   1.849  3.1142 -0.0566  0.1078
  211MOL0     H28434   6.377  11.156   2.024 -0.8402  0.4235  0.2839
  211MOL0     H28435   6.458  11.315   2.013 -1.0283  0.0465 -0.2666
  211MOL0     H28436   6.651  11.338   1.861  0.6795 -0.7631  0.1015
  211MOL0     H28437   6.752  11.312   1.598 -1.1868 -0.4077  2.3654
  211MOL0     H28438   6.870  11.199   1.678 -1.1709 -1.9168  0.5867
  211MOL0     H28439   6.838  11.196   1.427 -1.6804  1.7428  1.1242
  211MOL0     H28440   6.679  11.108   1.466 -0.7858  1.2739  1.0243
  211MOL0     H28441   6.818  10.954   1.611 -0.3945  1.0984  0.5935
  211MOL0     H28442   6.964  11.021   1.543  1.0842 -1.0720 -0.2903
  211MOL0     H28443   6.739  10.873   1.386  0.0155  0.0330  0.5716
  211MOL0     H28444   6.893  10.817   1.434  2.0312  1.5355  0.1574
  211MOL0     H28445   7.009  11.117   1.102 -1.5551 -0.4766  1.0258
  211MOL0     H28446   7.308  11.202   0.977 -2.4983 -1.0579 -2.8236
  211MOL0     H28447   7.148  11.257   1.002 -1.7475 -3.4595 -0.4102
  211MOL0     H28448   7.279  11.323   1.106  0.0904 -0.3335 -0.2827
  211MOL0     H28449   7.575  11.245   0.934  0.1967  0.3905 -1.3743
  211MOL0     H28450   7.799  11.234   0.838  5.0407  1.7351  0.7846
  211MOL0     H28451   8.119  11.341   1.052 -1.6476 -0.3153  0.0437
  211MOL0     H28452   8.146  11.200   1.150 -2.8838 -1.5513 -0.0963
  211MOL0     H28453   8.350  11.237   1.053 -1.3907  1.6759  0.9575
  211MOL0     H28454   8.272  11.110   0.960  0.2550 -0.7404  1.6027
  211MOL0     H28455   8.323  11.410   0.894  1.9539 -0.3377 -0.0560
  211MOL0     H28456   8.194  11.322   0.811 -1.0036 -0.0851  0.9518
  211MOL0     H28457   8.498  11.260   0.833 -0.6969  2.1342  1.2004
  211MOL0     H28458   8.381  11.156   0.742 -2.3604  0.2591 -1.0460
  211MOL0     H28459   8.478  11.446   0.707 -2.3119  2.1413 -1.5650
  211MOL0     H28460   8.360  11.382   0.603 -0.2805 -0.5097  1.0542
  211MOL0     H28461   8.619  11.239   0.642  0.4858  2.9371  0.7779
  211MOL0     H28462   8.486  11.195   0.533  1.1616 -2.3122  1.6919
  211MOL0     H28463   8.517  11.406   0.406  0.6645  2.1067  1.0571
  211MOL0     H28464   8.665  11.308   0.405 -1.7715 -0.4743 -0.8866
  211MOL0     H28465   8.778  11.497   0.466 -0.5896  0.7178 -1.4949
  211MOL0     H28466   8.724  11.468   0.626  2.4472  0.1253 -0.3605
  211MOL0     H28467   7.959  11.171   1.238  0.6424  0.3376 -0.3020
  211MOL0     H28468   7.736  11.176   1.327 -1.4698  2.5483  0.0904
  211MOL0     H28469   7.335  10.915   1.394  0.5721 -2.3945 -1.7353
  211MOL0     H28470   7.103  10.830   1.379 -1.1123 -0.9216 -1.6398
  211MOL0     H28471   5.469  11.022   1.983 -0.9964 -3.5060  1.3734
  211MOL0     H28472   5.236  10.940   1.922 -0.8552  0.1877 -1.3041
  211MOL0     H28473   4.746  11.066   2.055  0.3272 -1.4624 -0.6923
  211MOL0     H28474   4.512  11.036   2.011  0.0566  1.7704  0.2178
  211MOL0     H28475   4.343  10.939   1.917 -0.6830 -0.0993  0.3023
  211MOL0     H28476   4.286  11.096   1.967  0.6175 -0.3198 -0.1007
  211MOL0     H28477   4.171  10.984   1.697 -0.3345  0.1263 -0.2920
  211MOL0     H28478   4.087  11.071   1.835  2.0971  2.0984  0.7528
  211MOL0     H28479   4.096  10.855   1.966  1.5783 -1.6938  0.1527
  211MOL0     H28480   4.189  10.790   1.834 -0.1855 -1.2695  2.6943
  211MOL0     H28481   3.978  10.788   1.689  5.2247  3.4952 -0.4501
  211MOL0     H28482   3.901  10.895   1.792  1.3558  0.9917  0.3228
  211MOL0     H28483   3.838  10.530   2.005 -1.8044  0.9082 -0.1798
  211MOL0     H28484   4.568  11.159   1.596  2.5588  1.0672 -1.0119
  211MOL0     H28485   4.802  11.175   1.640  2.2200 -1.5488  0.8311
  212MOL0     O28486   7.899   9.337   3.693  0.3777 -0.3353 -0.4628
  212MOL0     C28487   7.995   9.417   3.685 -0.8188  0.8122  0.4638
  212MOL0     O28488   7.993   9.548   3.699  0.0372 -0.7810 -0.0947
  212MOL0     C28489   7.873   9.613   3.674 -0.1376 -0.5820 -0.5682
  212MOL0     C28490   7.775   9.597   3.767  0.8099  0.5665  0.1700
  212MOL0     C28491   7.649   9.660   3.758  0.5704  0.6989 -0.2753
  212MOL0     C28492   7.628   9.745   3.647  0.6549 -0.0135  0.0747
  212MOL0     O28493   7.505   9.813   3.628 -0.6274 -0.9787  0.3062
  212MOL0     C28494   7.481   9.906   3.733  0.2664 -0.2058 -0.2858
  212MOL0     C28495   7.366  10.000   3.704  0.0650  0.0685 -0.5107
  212MOL0     C28496   7.230   9.940   3.740 -0.2645 -0.2204 -0.6804
  212MOL0     C28497   7.126  10.043   3.701  0.1620 -0.7030 -0.2986
  212MOL0     C28498   6.992   9.972   3.703  0.6219 -0.5120  0.6598
  212MOL0     C28499   6.885  10.073   3.695 -0.2651 -0.1197 -0.3506
  212MOL0     C28500   6.746  10.008   3.690  0.4679  0.5163 -1.0522
  212MOL0     C28501   6.723   9.904   3.812  0.3375 -0.6431 -0.0401
  212MOL0     N28502   6.579   9.869   3.823 -0.0178  0.2532  0.5657
  212MOL0     C28503   6.510   9.791   3.727 -0.9027  0.7688  1.1403
  212MOL0     C28504   6.387   9.797   3.770 -0.3529  0.2089 -0.1515
  212MOL0     C28505   6.279   9.715   3.695  0.0824 -0.1938  1.0936
  212MOL0     C28506   6.157   9.792   3.674 -0.3627 -0.5171  0.4871
  212MOL0     C28507   6.061   9.791   3.789  0.1408  0.4890 -0.1256
  212MOL0     C28508   5.930   9.849   3.761 -0.2294  0.4368  0.0258
  212MOL0     O28509   5.840   9.789   3.859  0.7435 -0.3213  0.3178
  212MOL0     C28510   5.706   9.787   3.823 -0.5135  0.0853  0.2913
  212MOL0     C28511   5.642   9.852   3.717  0.0865  0.2717  0.9079
  212MOL0     C28512   5.503   9.827   3.689 -0.7791  0.0792 -0.6576
  212MOL0     C28513   5.441   9.908   3.582 -0.0920  0.2178  0.1666
  212MOL0     C28514   5.435   9.734   3.771  0.9215 -0.2142 -0.2558
  212MOL0     C28515   5.293   9.700   3.742 -0.5313 -1.0952  0.0178
  212MOL0     O28516   5.218   9.808   3.737  0.2709 -0.3973 -0.0848
  212MOL0     C28517   5.092   9.812   3.695  0.0272 -0.8150  0.4508
  212MOL0     C28518   4.981   9.753   3.764  0.5369 -0.2746  1.0121
  212MOL0     C28519   4.854   9.772   3.714 -0.8692 -0.0590  0.6766
  212MOL0     C28520   4.826   9.861   3.609  0.0171 -0.4556  0.1989
  212MOL0     O28521   4.699   9.863   3.557  0.6379  0.5467 -0.9776
  212MOL0     C28522   4.655   9.941   3.444 -0.0698  0.1233  0.3649
  212MOL0     C28523   4.507   9.975   3.445 -0.2223  0.7897  0.6127
  212MOL0     C28524   4.418   9.868   3.383 -0.3187  0.9903  0.6185
  212MOL0     C28525   4.428   9.728   3.452 -0.2364 -0.2909  0.0201
  212MOL0     C28526   4.336   9.621   3.384  0.0480  0.7519  0.4308
  212MOL0     C28527   4.330   9.484   3.468 -0.4124  0.4072 -0.0138
  212MOL0     C28528   4.442   9.390   3.437  0.7842 -0.5966 -0.4440
  212MOL0     C28529   4.460   9.276   3.535  0.3266  0.4901 -0.3553
  212MOL0    Cl28530   4.309   9.181   3.548  0.1139  0.0490 -0.2548
  212MOL0     C28531   4.935   9.927   3.545  1.4702 -0.3125 -0.4758
  212MOL0     C28532   5.062   9.900   3.585  0.3531  0.2146 -0.5083
  212MOL0     O28533   5.251   9.588   3.745 -0.0363 -0.1984 -0.7753
  212MOL0     C28534   5.506   9.668   3.870 -0.3016 -0.0113  0.4529
  212MOL0     C28535   5.639   9.693   3.893 -0.9990 -0.1976  0.6052
  212MOL0     N28536   6.372   9.868   3.893 -0.1738  0.8292  0.0229
  212MOL0     N28537   6.486   9.910   3.917  0.0341 -0.1520 -0.6749
  212MOL0     C28538   7.727   9.764   3.547 -0.2218  0.1729  0.6727
  212MOL0     C28539   7.851   9.692   3.567  0.1752 -0.0940  0.6162
  212MOL0     C28540   8.131   9.350   3.693  0.7152  0.7213 -0.9763
  212MOL0     C28541   8.143   9.210   3.697 -0.5424  1.1934  0.0156
  212MOL0     C28542   8.277   9.147   3.697  0.1552 -0.6356 -0.0004
  212MOL0     C28543   8.393   9.228   3.693  0.2512 -0.3570 -0.1150
  212MOL0     O28544   8.513   9.167   3.689 -0.4470 -0.1729  0.0205
  212MOL0     C28545   8.617   9.237   3.759 -0.6785 -0.4817  0.4939
  212MOL0     C28546   8.734   9.133   3.794 -0.2650 -0.3394 -0.1622
  212MOL0     C28547   8.680   8.990   3.829 -0.2618  0.3761 -0.4244
  212MOL0     C28548   8.584   8.976   3.949  0.0237 -0.3366 -0.0012
  212MOL0     C28549   8.502   8.857   3.920  0.2122 -0.4526  0.5388
  212MOL0     C28550   8.426   8.762   3.898 -0.4309 -0.2206  0.3925
  212MOL0     C28551   8.380   9.364   3.685  0.6599  0.3567  0.2632
  212MOL0     C28552   8.250   9.421   3.687  0.1529 -0.8809  0.2555
  212MOL0     H28553   7.788   9.522   3.844  0.1864 -1.2953 -1.4774
  212MOL0     H28554   7.568   9.635   3.826  0.9691  0.1216 -0.0063
  212MOL0     H28555   7.467   9.845   3.823 -2.9102 -0.9029 -1.1298
  212MOL0     H28556   7.573   9.962   3.750  0.6016 -1.2463  1.5592
  212MOL0     H28557   7.389  10.093   3.757  0.7147  0.1712 -0.9609
  212MOL0     H28558   7.367  10.023   3.597  0.5983 -1.3554 -0.8265
  212MOL0     H28559   7.224   9.850   3.679 -0.3218 -0.1308 -0.8071
  212MOL0     H28560   7.234   9.915   3.847 -0.1162  1.6313 -0.2180
  212MOL0     H28561   7.145  10.122   3.774 -0.9307 -1.8292  1.2609
  212MOL0     H28562   7.150  10.084   3.603  2.5494  1.3805  1.0271
  212MOL0     H28563   6.978   9.909   3.615 -2.5290 -0.0401  0.7099
  212MOL0     H28564   6.971   9.922   3.799 -1.9822  0.6398  0.7546
  212MOL0     H28565   6.894  10.144   3.778  1.1770  0.0079 -0.5980
  212MOL0     H28566   6.895  10.132   3.603  0.3194 -0.7397 -0.6975
  212MOL0     H28567   6.664  10.080   3.698 -1.2133 -1.3058 -1.2115
  212MOL0     H28568   6.720   9.955   3.598 -1.8131  0.3550 -0.3659
  212MOL0     H28569   6.762   9.955   3.900  0.5489 -0.4122 -0.2640
  212MOL0     H28570   6.780   9.813   3.790 -0.4091 -1.2820  0.6371
  212MOL0     H28571   6.542   9.757   3.629 -4.8643 -0.9457  0.2371
  212MOL0     H28572   6.318   9.676   3.601  1.8747  0.1440  1.6595
  212MOL0     H28573   6.255   9.622   3.747  0.4984 -1.2483 -0.5197
  212MOL0     H28574   6.108   9.742   3.590 -2.6380  1.0103  0.8261
  212MOL0     H28575   6.184   9.895   3.647  0.5258 -0.7472  0.4501
  212MOL0     H28576   6.098   9.841   3.879  0.9679 -1.1698  0.4928
  212MOL0     H28577   6.049   9.688   3.823 -2.4148  0.7491 -0.0229
  212MOL0     H28578   5.901   9.817   3.661  1.4151 -1.5635  0.1254
  212MOL0     H28579   5.937   9.958   3.755 -3.3694  0.7055 -0.6540
  212MOL0     H28580   5.703   9.910   3.649 -0.8034 -0.7220 -0.8192
  212MOL0     H28581   5.352   9.955   3.624  0.1395  1.1554 -0.3558
  212MOL0     H28582   5.519   9.980   3.554  0.0653  0.1985  0.5505
  212MOL0     H28583   5.411   9.847   3.496 -0.0705 -0.7407  0.8291
  212MOL0     H28584   4.994   9.669   3.832  1.0741  0.2043  1.5088
  212MOL0     H28585   4.775   9.708   3.752 -2.5628  2.9573  2.6687
  212MOL0     H28586   4.711  10.035   3.432  2.7229 -1.3424  0.9994
  212MOL0     H28587   4.681   9.881   3.357  2.4532  0.0860  1.0703
  212MOL0     H28588   4.478  10.002   3.547  1.5260  0.5130  1.2107
  212MOL0     H28589   4.492  10.053   3.369 -2.6986 -2.6886 -2.8745
  212MOL0     H28590   4.448   9.858   3.278 -1.9594 -1.7908  0.3257
  212MOL0     H28591   4.312   9.893   3.389 -1.4508 -3.0890  0.8992
  212MOL0     H28592   4.526   9.686   3.476 -1.2747 -2.1840  1.2896
  212MOL0     H28593   4.380   9.729   3.550 -0.0560 -3.6581  0.2821
  212MOL0     H28594   4.376   9.606   3.283  2.4896 -0.3982  1.5018
  212MOL0     H28595   4.233   9.658   3.379  0.1671  1.1084  0.6064
  212MOL0     H28596   4.331   9.503   3.576  0.9180  0.4195 -0.0100
  212MOL0     H28597   4.237   9.431   3.446 -0.9694  1.2687  0.2015
  212MOL0     H28598   4.538   9.443   3.444  1.0948 -1.1394 -0.5729
  212MOL0     H28599   4.428   9.345   3.339  1.9322 -3.0666  0.4634
  212MOL0     H28600   4.492   9.310   3.634  1.8396 -1.9867  0.0886
  212MOL0     H28601   4.532   9.206   3.492  2.6797  2.8219 -0.4450
  212MOL0     H28602   4.917   9.988   3.457  0.3164 -0.8878 -0.6517
  212MOL0     H28603   5.142   9.953   3.534 -0.6190  3.0941  0.7731
  212MOL0     H28604   5.465   9.579   3.916 -1.7311 -0.6679 -1.8865
  212MOL0     H28605   5.705   9.629   3.950  1.6810  1.0002 -0.9543
  212MOL0     H28606   7.700   9.832   3.467  0.0616 -1.0626 -0.5177
  212MOL0     H28607   7.914   9.694   3.479 -3.1152  1.2627 -1.9468
  212MOL0     H28608   8.062   9.137   3.692  0.4228  0.1491 -0.9917
  212MOL0     H28609   8.274   9.039   3.690 -3.9318 -0.6332 -1.0688
  212MOL0     H28610   8.658   9.316   3.697 -0.8621 -0.0890  0.8665
  212MOL0     H28611   8.584   9.285   3.852 -0.6148  2.6723 -1.0184
  212MOL0     H28612   8.802   9.178   3.867 -2.0119 -0.5614  1.7196
  212MOL0     H28613   8.801   9.126   3.709 -0.6069  0.6244 -0.5285
  212MOL0     H28614   8.771   8.934   3.855 -1.2222  0.6339  4.6764
  212MOL0     H28615   8.636   8.936   3.745  0.1653 -2.3171  0.9522
  212MOL0     H28616   8.509   9.056   3.951 -0.1348 -0.4289 -1.1990
  212MOL0     H28617   8.652   8.984   4.035  1.6452  1.2882 -1.3412
  212MOL0     H28618   8.354   8.685   3.877 -0.5310 -0.3682  1.2401
  212MOL0     H28619   8.463   9.434   3.680  2.2031 -1.4577 -1.7614
  212MOL0     H28620   8.251   9.528   3.671 -0.9191 -1.1773 -2.1546
  213MOL0     O28621   8.541   4.382  10.137 -0.3714  0.1890 -0.5730
  213MOL0     C28622   8.562   4.496  10.095 -0.5249 -0.2453  0.8454
  213MOL0     O28623   8.458   4.588  10.072  0.1448  0.2925  0.5362
  213MOL0     C28624   8.337   4.538  10.102  0.9559  0.8510 -0.3999
  213MOL0     C28625   8.272   4.562  10.222 -0.4370 -0.8601  0.8119
  213MOL0     C28626   8.147   4.515  10.249  0.1452  0.7926  0.0329
  213MOL0     C28627   8.087   4.434  10.155  0.3467  0.2035  0.0181
  213MOL0     O28628   7.959   4.395  10.185  0.0722 -0.0050  0.2049
  213MOL0     C28629   7.873   4.381  10.072  0.9397  0.4905  1.0641
  213MOL0     C28630   7.726   4.366  10.137 -0.3702  0.5124  0.6809
  213MOL0     C28631   7.622   4.412  10.031  0.8416  0.4960  0.2785
  213MOL0     C28632   7.478   4.393  10.093  0.0337  0.1016  0.8230
  213MOL0     C28633   7.371   4.440   9.997  0.3967 -0.0574  0.6791
  213MOL0     C28634   7.240   4.436  10.076  0.2875 -0.1771  0.9729
  213MOL0     C28635   7.123   4.447   9.973  1.1740  0.2658  0.2700
  213MOL0     C28636   7.002   4.367  10.016 -0.0465  0.6097 -0.4830
  213MOL0     N28637   6.889   4.397   9.934 -0.1944 -0.4667 -0.8534
  213MOL0     C28638   6.807   4.501   9.959 -0.3193  0.1881  0.2191
  213MOL0     C28639   6.724   4.507   9.859 -0.1163  0.4702  0.1971
  213MOL0     C28640   6.627   4.614   9.830 -0.1575  0.3411  0.5104
  213MOL0     C28641   6.513   4.569   9.739  0.4908  0.0020 -1.0500
  213MOL0     C28642   6.405   4.475   9.816 -0.6742  0.4711  0.6626
  213MOL0     C28643   6.350   4.530   9.943  0.0426 -0.2030 -0.7513
  213MOL0     O28644   6.306   4.659   9.918  0.0799 -0.1989  0.1472
  213MOL0     C28645   6.337   4.753  10.009 -0.0850 -1.6737 -1.1718
  213MOL0     C28646   6.318   4.884   9.972  0.4637 -0.2259  0.0959
  213MOL0     C28647   6.350   4.994  10.044 -0.5959  0.9487 -0.0227
  213MOL0     C28648   6.323   5.127   9.977 -0.1754 -0.2459  0.6165
  213MOL0     C28649   6.400   4.975  10.176 -0.1122  0.5087 -0.1505
  213MOL0     C28650   6.438   5.097  10.269 -0.4768  0.6242  0.5977
  213MOL0     O28651   6.507   5.069  10.385 -0.1332 -0.9722 -0.2402
  213MOL0     C28652   6.542   5.168  10.473  0.5978 -0.3317 -0.0163
  213MOL0     C28653   6.521   5.158  10.616  0.5903 -0.5708  0.0064
  213MOL0     C28654   6.588   5.235  10.707 -0.6173  0.4467  1.2530
  213MOL0     C28655   6.671   5.331  10.663 -0.4288 -1.1998  0.6918
  213MOL0     O28656   6.734   5.401  10.760  0.5903 -0.2188  0.4526
  213MOL0     C28657   6.768   5.529  10.728  0.3561 -0.9084 -0.1476
  213MOL0     C28658   6.815   5.604  10.853 -0.6763  0.1269 -0.2396
  213MOL0     C28659   6.920   5.516  10.930  0.2657 -0.5472 -0.1530
  213MOL0     C28660   6.854   5.424  11.039 -0.2159 -0.0508  0.2185
  213MOL0     C28661   6.963   5.368  11.129 -0.0192  0.1138 -0.2567
  213MOL0     C28662   6.915   5.254  11.222 -0.2355 -0.4324  0.4552
  213MOL0     C28663   7.028   5.211  11.316 -0.6752  1.1672  0.6071
  213MOL0     C28664   7.077   5.069  11.273  0.8662 -0.4857 -0.4799
  213MOL0    Cl28665   6.942   4.961  11.331 -0.6350 -0.3615 -0.2149
  213MOL0     C28666   6.705   5.345  10.520  0.1787  0.5489  0.4897
  213MOL0     C28667   6.637   5.266  10.427 -0.3491 -0.2269 -1.1743
  213MOL0     O28668   6.396   5.207  10.242  0.7715 -0.0497  0.4207
  213MOL0     C28669   6.406   4.844  10.221 -0.4610  0.4695 -1.0478
  213MOL0     C28670   6.380   4.735  10.145  0.1810 -0.6444 -0.6417
  213MOL0     N28671   6.755   4.397   9.773 -0.1442  0.2368 -0.0855
  213MOL0     N28672   6.853   4.336   9.823  0.1826 -0.0580 -0.3391
  213MOL0     C28673   8.148   4.392  10.041  0.1099 -0.4121  0.1839
  213MOL0     C28674   8.275   4.452  10.015 -0.1896  0.3479  0.3178
  213MOL0     C28675   8.706   4.537  10.069 -0.2767  0.3258 -1.1769
  213MOL0     C28676   8.799   4.487  10.160  0.1177 -0.3911 -0.1477
  213MOL0     C28677   8.935   4.539  10.151  0.8537  0.2381 -0.4932
  213MOL0     C28678   8.973   4.640  10.069 -0.7553  0.5220  0.1136
  213MOL0     O28679   9.099   4.695  10.074 -0.3774 -0.1032  0.7006
  213MOL0     C28680   9.136   4.749  10.199  1.3469 -0.1400  0.2471
  213MOL0     C28681   9.208   4.882  10.183  0.4262 -0.5098  0.2429
  213MOL0     C28682   9.161   4.966  10.067 -0.4310  0.1883 -0.6438
  213MOL0     C28683   9.223   5.100  10.088 -0.4537  1.3190 -0.2032
  213MOL0     C28684   9.200   5.185   9.971  0.9644  0.2228 -0.0346
  213MOL0     C28685   9.189   5.250   9.874 -0.4596 -0.5905  0.3365
  213MOL0     C28686   8.880   4.689   9.975 -0.4253 -0.4255  1.1506
  213MOL0     C28687   8.750   4.644   9.985  0.8206  1.0374 -0.6771
  213MOL0     H28688   8.330   4.620  10.293  0.3196 -1.6558  0.8513
  213MOL0     H28689   8.090   4.534  10.340  0.0139  1.3953 -0.1745
  213MOL0     H28690   7.871   4.477  10.020 -1.4029 -0.3144 -0.5056
  213MOL0     H28691   7.890   4.305   9.995  0.3416  2.8493 -1.5734
  213MOL0     H28692   7.709   4.263  10.171  0.3929  0.2998  0.4365
  213MOL0     H28693   7.719   4.437  10.219 -1.8180  0.5387  0.5515
  213MOL0     H28694   7.646   4.517  10.018 -0.1447  0.7228  0.2431
  213MOL0     H28695   7.630   4.360   9.935 -3.2718 -1.1364  0.5865
  213MOL0     H28696   7.456   4.287  10.102 -2.1773  0.5191  0.8433
  213MOL0     H28697   7.470   4.446  10.188 -0.0105 -1.4614  1.7065
  213MOL0     H28698   7.375   4.548   9.975 -0.4100  0.0172  0.8843
  213MOL0     H28699   7.377   4.382   9.904 -0.6076 -0.4705  0.8650
  213MOL0     H28700   7.232   4.343  10.133 -2.0210 -0.8230 -0.2719
  213MOL0     H28701   7.250   4.515  10.150  1.0395  1.6150 -0.9418
  213MOL0     H28702   7.096   4.551   9.954 -0.2174 -0.0459  0.4431
  213MOL0     H28703   7.155   4.406   9.877 -0.1671 -0.0817 -0.0453
  213MOL0     H28704   6.985   4.407  10.116  0.3363 -0.3191 -0.0359
  213MOL0     H28705   7.019   4.259  10.010 -1.8367  0.3257 -1.1257
  213MOL0     H28706   6.820   4.573  10.039  3.3567  3.0723 -2.6038
  213MOL0     H28707   6.591   4.656   9.925 -1.1902 -0.4465  0.4830
  213MOL0     H28708   6.682   4.690   9.775 -0.3505 -0.9933 -1.6208
  213MOL0     H28709   6.557   4.520   9.651  1.1698 -1.7856  0.2270
  213MOL0     H28710   6.463   4.663   9.714 -0.2914  0.1982  1.0512
  213MOL0     H28711   6.458   4.379   9.828 -1.8895 -0.1917  0.8526
  213MOL0     H28712   6.322   4.460   9.747 -0.0706 -2.2794  0.3913
  213MOL0     H28713   6.439   4.529  10.007 -0.0132 -0.1531 -0.6745
  213MOL0     H28714   6.269   4.466   9.979  1.8881 -1.2276  1.9034
  213MOL0     H28715   6.278   4.910   9.874 -1.0317  2.2543  1.2608
  213MOL0     H28716   6.280   5.115   9.878  0.9380  3.1433 -0.4331
  213MOL0     H28717   6.266   5.187  10.049 -0.6547  1.2580 -0.9697
  213MOL0     H28718   6.414   5.186   9.963  0.9242 -2.1106 -0.4099
  213MOL0     H28719   6.450   5.086  10.654 -2.3725  2.8448  1.4932
  213MOL0     H28720   6.568   5.226  10.813 -1.6273 -2.6643  0.9038
  213MOL0     H28721   6.857   5.530  10.664  0.2760 -1.2017 -0.2683
  213MOL0     H28722   6.686   5.584  10.681  0.7328 -1.3374 -1.3606
  213MOL0     H28723   6.865   5.690  10.808 -2.5066 -0.6459 -4.1753
  213MOL0     H28724   6.726   5.630  10.910 -0.8260 -1.8787  0.5255
  213MOL0     H28725   6.983   5.589  10.981 -2.9181  3.8416 -1.8576
  213MOL0     H28726   6.993   5.474  10.860  0.4723  0.8290 -0.7939
  213MOL0     H28727   6.785   5.488  11.096 -0.6947 -3.0063  3.2065
  213MOL0     H28728   6.790   5.347  10.996 -1.8485  1.2717  0.1488
  213MOL0     H28729   7.003   5.454  11.184 -1.0404 -0.1700  0.9723
  213MOL0     H28730   7.042   5.329  11.065  1.3116 -0.9996  1.9547
  213MOL0     H28731   6.836   5.284  11.291  0.5440 -1.0269  1.6308
  213MOL0     H28732   6.885   5.170  11.158  0.8990 -1.5498  1.3440
  213MOL0     H28733   6.988   5.206  11.417  0.9286 -0.8736  1.2052
  213MOL0     H28734   7.116   5.276  11.318  1.6528 -1.7471  0.3422
  213MOL0     H28735   7.165   5.038  11.331  1.2130  0.7207 -0.3379
  213MOL0     H28736   7.111   5.067  11.168  1.7366 -0.1434 -0.2167
  213MOL0     H28737   6.779   5.413  10.479  0.0447 -0.5870 -1.7657
  213MOL0     H28738   6.654   5.266  10.320  0.6895  1.3263 -1.0433
  213MOL0     H28739   6.454   4.809  10.312 -0.9048 -0.1356 -1.0449
  213MOL0     H28740   6.407   4.643  10.197 -0.8394 -0.3254  0.5129
  213MOL0     H28741   8.100   4.324   9.972 -1.7176  3.0931 -2.2700
  213MOL0     H28742   8.319   4.435   9.917 -0.5060  1.6960 -0.0923
  213MOL0     H28743   8.769   4.414  10.235 -0.3940  0.0051  0.0439
  213MOL0     H28744   9.003   4.491  10.221  0.2236  1.0181  0.6980
  213MOL0     H28745   9.036   4.771  10.237 -0.6823  1.7070 -5.1673
  213MOL0     H28746   9.194   4.683  10.264  2.2245 -1.9341 -2.1877
  213MOL0     H28747   9.314   4.863  10.163  0.2176 -0.7859 -0.6369
  213MOL0     H28748   9.186   4.941  10.273 -0.0164 -3.5193  2.2558
  213MOL0     H28749   9.053   4.985  10.066 -0.9837 -2.4753  0.1097
  213MOL0     H28750   9.191   4.912   9.976  2.4738 -1.7770  1.3110
  213MOL0     H28751   9.329   5.081  10.107 -0.9189 -0.8584  0.5718
  213MOL0     H28752   9.189   5.143  10.182 -1.5402 -1.0692  0.5815
  213MOL0     H28753   9.174   5.308   9.785  1.8769 -0.7246 -0.2056
  213MOL0     H28754   8.914   4.771   9.914  2.5761 -1.0391  1.8371
  213MOL0     H28755   8.678   4.678   9.912  3.0576 -0.9412 -4.0824
  214MOL0     O28756   5.973   1.237   6.554 -0.3672  0.0413  0.2590
  214MOL0     C28757   6.021   1.156   6.474  0.2248 -0.3591 -0.6631
  214MOL0     O28758   6.038   1.181   6.341 -0.5118 -0.5440 -0.0353
  214MOL0     C28759   6.013   1.310   6.293 -1.3367  0.0090  0.5104
  214MOL0     C28760   6.110   1.361   6.209 -0.1764  0.1877 -0.6486
  214MOL0     C28761   6.103   1.496   6.158 -0.2779  0.3831  0.4300
  214MOL0     C28762   5.996   1.569   6.199  0.4954  0.0973 -1.4277
  214MOL0     O28763   5.990   1.692   6.142  0.2631  0.4178  0.0466
  214MOL0     C28764   5.928   1.802   6.204  0.0401 -0.3286  0.4693
  214MOL0     C28765   6.001   1.934   6.156  0.5004  0.4310 -0.2323
  214MOL0     C28766   6.121   1.973   6.240 -0.5636  0.6685 -0.1907
  214MOL0     C28767   6.238   1.858   6.214  0.6194 -0.0556  0.0016
  214MOL0     C28768   6.373   1.874   6.298  0.4890  0.4744  0.2769
  214MOL0     C28769   6.357   1.841   6.450  0.2512  0.4446 -0.4834
  214MOL0     C28770   6.380   1.695   6.479 -0.8482 -0.4534  0.4453
  214MOL0     C28771   6.366   1.676   6.628  0.7319  0.3853  0.3544
  214MOL0     N28772   6.228   1.688   6.685  0.3945  0.1149 -0.0646
  214MOL0     C28773   6.112   1.654   6.624 -0.0511 -0.0530  0.2391
  214MOL0     C28774   6.011   1.688   6.703  0.1163 -0.2315 -0.5874
  214MOL0     C28775   5.863   1.689   6.675 -0.8042  0.1869 -0.3266
  214MOL0     C28776   5.807   1.550   6.674  0.1401 -0.8948 -0.4728
  214MOL0     C28777   5.653   1.562   6.660  0.4906 -0.1122 -0.3976
  214MOL0     C28778   5.581   1.428   6.658  0.1380  0.3241  0.4981
  214MOL0     O28779   5.444   1.439   6.629 -0.0674  0.2782  0.1642
  214MOL0     C28780   5.348   1.459   6.729 -0.2987 -0.0994  0.1208
  214MOL0     C28781   5.216   1.460   6.693 -0.4343  0.2661  0.7310
  214MOL0     C28782   5.108   1.444   6.782  0.5140  0.0579 -0.7151
  214MOL0     C28783   4.966   1.429   6.725 -0.5718  0.0129  0.1039
  214MOL0     C28784   5.135   1.440   6.927  0.3533  0.2902 -0.2863
  214MOL0     C28785   5.038   1.375   7.015 -1.0177  0.1034  0.2073
  214MOL0     O28786   5.002   1.248   6.976 -0.3200  0.0641 -0.9329
  214MOL0     C28787   4.908   1.181   7.053  0.9162  0.0699 -0.3092
  214MOL0     C28788   4.948   1.070   7.132 -1.1316 -0.6377  0.2060
  214MOL0     C28789   4.854   0.998   7.203 -0.3257 -0.3685 -0.7887
  214MOL0     C28790   4.720   1.037   7.209  0.8853  0.1586 -0.0902
  214MOL0     O28791   4.626   0.961   7.279  0.5780  0.3592 -0.0932
  214MOL0     C28792   4.521   1.024   7.350  0.0413  0.3768 -1.1043
  214MOL0     C28793   4.488   0.931   7.466  0.2169 -0.6206 -0.0255
  214MOL0     C28794   4.424   1.016   7.578 -0.4689 -0.8567  0.3211
  214MOL0     C28795   4.366   0.933   7.679  0.3913  0.7760  0.4464
  214MOL0     C28796   4.311   1.003   7.801 -0.2094  0.0736 -0.2463
  214MOL0     C28797   4.238   1.133   7.776  0.0855 -0.7460 -0.2864
  214MOL0     C28798   4.138   1.165   7.892  0.0144 -0.0680  0.1597
  214MOL0     C28799   4.054   1.294   7.871  0.4725 -0.0394 -0.6719
  214MOL0    Cl28800   4.158   1.436   7.888  0.3697 -0.0385 -0.0641
  214MOL0     C28801   4.683   1.133   7.123  1.2359  0.0124  0.6867
  214MOL0     C28802   4.772   1.213   7.052 -0.3004 -1.0624 -0.2158
  214MOL0     O28803   5.021   1.429   7.126 -0.2549 -0.6705 -0.2397
  214MOL0     C28804   5.270   1.448   6.961  0.6337 -0.0316 -0.4288
  214MOL0     C28805   5.377   1.454   6.865  0.3761 -0.2174 -0.6456
  214MOL0     N28806   6.068   1.744   6.816 -0.1118 -0.4378  0.3046
  214MOL0     N28807   6.196   1.750   6.804 -0.5392 -0.0999  0.3972
  214MOL0     C28808   5.895   1.518   6.270  0.3473 -0.2432  0.5429
  214MOL0     C28809   5.903   1.389   6.320  0.7275  0.9847 -0.1066
  214MOL0     C28810   6.079   1.040   6.533 -0.0530  0.1882  0.0229
  214MOL0     C28811   6.123   0.943   6.448 -0.0994 -0.0283  0.7771
  214MOL0     C28812   6.175   0.824   6.501 -0.5087  0.3742 -0.2245
  214MOL0     C28813   6.189   0.808   6.635 -0.7214  0.4658 -0.6094
  214MOL0     O28814   6.257   0.702   6.677 -0.3480 -0.0722 -0.1987
  214MOL0     C28815   6.374   0.730   6.753 -0.0872 -0.1464  0.2247
  214MOL0     C28816   6.461   0.609   6.786 -0.1714 -0.0343 -0.2506
  214MOL0     C28817   6.451   0.581   6.934 -0.5693  0.0258 -0.2021
  214MOL0     C28818   6.541   0.459   6.953  0.2349 -0.0595  0.1220
  214MOL0     C28819   6.549   0.439   7.102  0.1835  0.1157 -0.6253
  214MOL0     C28820   6.561   0.440   7.217  0.4585 -0.1275  0.4311
  214MOL0     C28821   6.155   0.915   6.721 -0.4081 -0.3592 -0.2662
  214MOL0     C28822   6.103   1.030   6.674 -0.0196 -0.2935  0.2980
  214MOL0     H28823   6.176   1.284   6.171 -1.9342 -2.1870  0.8365
  214MOL0     H28824   6.171   1.551   6.094 -0.3415  0.8559  0.7668
  214MOL0     H28825   5.824   1.800   6.169  1.0892 -2.7406 -3.1045
  214MOL0     H28826   5.922   1.788   6.313 -3.0295 -7.1613 -0.0480
  214MOL0     H28827   6.026   1.929   6.050  0.3301 -0.7015 -0.2285
  214MOL0     H28828   5.930   2.017   6.152  1.7481  1.6463  1.2361
  214MOL0     H28829   6.155   2.073   6.211 -0.1326 -0.3760 -3.7591
  214MOL0     H28830   6.095   1.986   6.345  0.9134  0.5320  0.2228
  214MOL0     H28831   6.198   1.767   6.259  1.2261  1.2309  3.4537
  214MOL0     H28832   6.248   1.851   6.105 -3.6131 -1.5991 -0.4483
  214MOL0     H28833   6.449   1.817   6.243 -0.5976  1.5083 -2.4497
  214MOL0     H28834   6.410   1.976   6.282  1.8030 -0.3011 -2.1169
  214MOL0     H28835   6.423   1.907   6.508  0.5665 -0.6051  0.3753
  214MOL0     H28836   6.254   1.865   6.480  1.0399  2.4801  0.8454
  214MOL0     H28837   6.319   1.627   6.419  0.9432 -0.5651 -1.3419
  214MOL0     H28838   6.482   1.672   6.446  0.2533  3.0470  0.9720
  214MOL0     H28839   6.426   1.747   6.685  2.4401 -1.4237  0.9162
  214MOL0     H28840   6.394   1.573   6.653  0.6139  0.4551  0.7804
  214MOL0     H28841   6.112   1.614   6.523  2.6220  2.6970 -0.9992
  214MOL0     H28842   5.803   1.754   6.740 -0.7535  2.8298 -2.7378
  214MOL0     H28843   5.855   1.738   6.577  1.0929 -0.6727 -0.9483
  214MOL0     H28844   5.833   1.500   6.767 -1.9126  0.1870  0.7734
  214MOL0     H28845   5.855   1.498   6.591  1.0637 -0.1263 -0.4300
  214MOL0     H28846   5.629   1.620   6.570  1.9087 -0.4539 -1.0229
  214MOL0     H28847   5.615   1.615   6.748  0.5658 -1.4901  0.4845
  214MOL0     H28848   5.592   1.352   6.737 -1.1084 -1.5813 -1.0627
  214MOL0     H28849   5.631   1.381   6.573 -0.8846  0.3006 -0.1178
  214MOL0     H28850   5.191   1.463   6.587  1.4757 -2.9300  0.0533
  214MOL0     H28851   4.928   1.327   6.733 -1.6310  0.5313  2.3197
  214MOL0     H28852   4.891   1.500   6.762 -2.0588 -1.8771  0.8796
  214MOL0     H28853   4.959   1.435   6.616  2.4687  0.0560 -0.1719
  214MOL0     H28854   5.052   1.043   7.144 -1.3464 -1.6549 -0.0742
  214MOL0     H28855   4.896   0.926   7.272  0.6564  1.3042  0.4218
  214MOL0     H28856   4.558   1.121   7.382  2.9027 -1.1285  0.5481
  214MOL0     H28857   4.431   1.045   7.292  0.0745 -1.6796 -2.0146
  214MOL0     H28858   4.428   0.851   7.424  1.3466 -0.8343 -1.3220
  214MOL0     H28859   4.582   0.883   7.497 -0.2330 -2.3609 -1.1735
  214MOL0     H28860   4.342   1.079   7.542  0.7020 -0.4232 -1.8278
  214MOL0     H28861   4.496   1.083   7.626  2.3290 -2.2073 -1.6968
  214MOL0     H28862   4.283   0.881   7.630  1.1958 -2.0045  1.7878
  214MOL0     H28863   4.431   0.851   7.714 -2.2249 -1.4302  0.5341
  214MOL0     H28864   4.393   1.026   7.869 -0.7418 -3.0115  1.6491
  214MOL0     H28865   4.234   0.939   7.846 -0.9772 -0.5551 -2.3315
  214MOL0     H28866   4.316   1.207   7.755  2.0784 -1.2879  4.1197
  214MOL0     H28867   4.181   1.128   7.683  0.6432  2.4112 -0.9397
  214MOL0     H28868   4.181   1.144   7.990 -2.3288 -1.8912  0.8752
  214MOL0     H28869   4.061   1.089   7.877 -0.7516  0.7888 -0.4605
  214MOL0     H28870   3.974   1.305   7.945 -1.2808  2.3600 -2.7543
  214MOL0     H28871   4.008   1.288   7.772 -0.7512 -1.1692 -0.0748
  214MOL0     H28872   4.579   1.165   7.118  1.6151  1.2419  0.3500
  214MOL0     H28873   4.740   1.301   6.997  1.3180  1.0912  2.0332
  214MOL0     H28874   5.299   1.448   7.066 -0.4362  0.9869 -0.1034
  214MOL0     H28875   5.479   1.448   6.902 -0.0366 -0.2127  0.5328
  214MOL0     H28876   5.812   1.584   6.292 -1.6011 -1.7494 -1.7448
  214MOL0     H28877   5.817   1.356   6.378  0.4780 -3.4955 -2.6256
  214MOL0     H28878   6.112   0.953   6.341 -0.4593  0.7964  0.8860
  214MOL0     H28879   6.223   0.754   6.433 -0.0034 -0.7282  1.2245
  214MOL0     H28880   6.435   0.812   6.715 -0.7192  0.4025  0.3772
  214MOL0     H28881   6.339   0.770   6.849  0.4559  1.7381 -0.3321
  214MOL0     H28882   6.562   0.620   6.748  1.3039 -3.6140  2.0740
  214MOL0     H28883   6.413   0.528   6.730  0.2903  0.0827 -0.8148
  214MOL0     H28884   6.350   0.564   6.971 -0.7872  3.7468  1.3151
  214MOL0     H28885   6.496   0.665   6.988 -3.1741  0.7711  0.9462
  214MOL0     H28886   6.637   0.473   6.904 -1.0923  0.2559 -2.5812
  214MOL0     H28887   6.482   0.372   6.922  0.1298  0.7985 -2.2611
  214MOL0     H28888   6.569   0.441   7.323  3.7332  2.6778  0.3391
  214MOL0     H28889   6.163   0.900   6.828  3.1322  2.7952  0.1237
  214MOL0     H28890   6.071   1.111   6.739 -1.4696  0.8550 -1.7118
  215MOL0     O28891   5.473  10.259   5.214  0.1737  0.3415 -0.1633
  215MOL0     C28892   5.399  10.220   5.297 -0.7742 -0.0930  0.6180
  215MOL0     O28893   5.414  10.230   5.429 -0.9676 -0.7455 -0.9256
  215MOL0     C28894   5.504  10.312   5.492  0.1490  0.6064  0.3759
  215MOL0     C28895   5.614  10.373   5.427 -0.2437  0.9404 -0.0353
  215MOL0     C28896   5.694  10.445   5.508  0.0654 -0.3090 -0.0545
  215MOL0     C28897   5.671  10.467   5.641  0.7398 -0.4064  0.1176
  215MOL0     O28898   5.751  10.541   5.728  0.1197  0.2379 -0.0728
  215MOL0     C28899   5.834  10.651   5.673  0.6687  0.5035  0.2231
  215MOL0     C28900   5.874  10.740   5.780  0.4919 -0.1450 -0.6606
  215MOL0     C28901   5.950  10.660   5.891  0.0009  0.8024  0.5883
  215MOL0     C28902   5.985  10.751   6.000 -0.1871 -0.0211 -0.3256
  215MOL0     C28903   5.877  10.846   6.054 -0.8147  0.0370 -0.6385
  215MOL0     C28904   5.736  10.798   6.089 -0.4695 -0.4566  0.5090
  215MOL0     C28905   5.744  10.728   6.228 -0.1745 -0.3583 -0.3343
  215MOL0     C28906   5.758  10.815   6.348  0.3949  0.1303 -0.0235
  215MOL0     N28907   5.636  10.890   6.358 -0.2606 -1.0482  0.2120
  215MOL0     C28908   5.509  10.833   6.377  0.2725 -0.1745  0.6045
  215MOL0     C28909   5.428  10.932   6.382  0.2984 -0.4269  0.1480
  215MOL0     C28910   5.280  10.921   6.399  0.1059  0.1031 -0.5562
  215MOL0     C28911   5.194  11.006   6.307  0.4688 -0.2079  0.1755
  215MOL0     C28912   5.195  10.963   6.159  0.1333 -0.1007  0.0663
  215MOL0     C28913   5.134  10.815   6.131  0.2598  0.9838 -0.2909
  215MOL0     O28914   5.088  10.819   5.996 -0.0382  0.2033  0.4697
  215MOL0     C28915   4.991  10.723   5.958 -0.4235  0.0102 -0.8755
  215MOL0     C28916   4.931  10.746   5.834 -0.1167 -0.1004 -0.3024
  215MOL0     C28917   4.832  10.663   5.776  0.0829 -0.6414 -0.1331
  215MOL0     C28918   4.782  10.686   5.636  0.6105 -0.0608  0.2350
  215MOL0     C28919   4.776  10.568   5.861 -1.3739 -0.2880  0.1582
  215MOL0     C28920   4.659  10.486   5.826 -0.8261  0.7837 -0.1204
  215MOL0     O28921   4.565  10.537   5.744 -0.1726  0.4696  0.1650
  215MOL0     C28922   4.442  10.478   5.724 -0.6006 -0.5225 -0.1183
  215MOL0     C28923   4.365  10.410   5.824 -0.0128  0.7610  0.4090
  215MOL0     C28924   4.229  10.382   5.790 -0.3280 -0.5404 -0.1357
  215MOL0     C28925   4.165  10.427   5.675 -0.3057 -1.0876 -0.1592
  215MOL0     O28926   4.034  10.406   5.655  0.1204  0.2166 -0.3461
  215MOL0     C28927   3.981  10.279   5.683  0.3403  0.2900 -0.8218
  215MOL0     C28928   3.851  10.244   5.608 -0.6588 -0.4350 -0.9679
  215MOL0     C28929   3.728  10.326   5.669 -0.0761  0.2488 -0.8208
  215MOL0     C28930   3.604  10.251   5.607 -0.1379  0.0371  0.2234
  215MOL0     C28931   3.470  10.327   5.624  0.3061 -0.6583 -0.4157
  215MOL0     C28932   3.348  10.244   5.573 -0.4371 -0.1601  0.0163
  215MOL0     C28933   3.225  10.336   5.573  0.2525  0.2239 -1.7612
  215MOL0     C28934   3.091  10.263   5.548 -0.4923  0.7771  0.8251
  215MOL0    Cl28935   2.943  10.374   5.537  0.4458  0.2030  0.6031
  215MOL0     C28936   4.240  10.507   5.598  0.3859 -0.8581  0.6739
  215MOL0     C28937   4.383  10.535   5.607  0.1991 -0.2984 -0.2597
  215MOL0     O28938   4.662  10.374   5.868  0.6465  0.3103  0.0602
  215MOL0     C28939   4.837  10.544   5.984  0.2633 -0.7010  0.7553
  215MOL0     C28940   4.940  10.615   6.030 -0.1792  0.6637  0.5210
  215MOL0     N28941   5.498  11.053   6.359 -0.4440  0.1668 -0.8817
  215MOL0     N28942   5.627  11.025   6.339 -0.1402  0.3565 -0.4580
  215MOL0     C28943   5.549  10.427   5.701  0.3047 -0.0707  1.4380
  215MOL0     C28944   5.466  10.342   5.625 -0.3104 -0.4733  0.7091
  215MOL0     C28945   5.276  10.161   5.248 -0.0865  0.5079  0.0329
  215MOL0     C28946   5.190  10.106   5.345  0.4594  0.1295  0.4656
  215MOL0     C28947   5.068  10.049   5.302  0.3640 -0.0911  0.2507
  215MOL0     C28948   5.038  10.028   5.162 -0.4247  0.5502 -0.5140
  215MOL0     O28949   4.916   9.987   5.124 -0.0922 -1.1042 -0.0871
  215MOL0     C28950   4.800   9.976   5.213 -0.4555  0.8306  0.6916
  215MOL0     C28951   4.672   9.958   5.132 -0.3988  0.2770 -0.1644
  215MOL0     C28952   4.682   9.844   5.024  0.5804  0.2828 -0.1611
  215MOL0     C28953   4.546   9.843   4.950 -0.0925 -1.1373 -0.3858
  215MOL0     C28954   4.434   9.778   5.024 -0.4041 -0.7731  0.6334
  215MOL0     C28955   4.334   9.750   5.076 -0.2694 -1.0805  0.1875
  215MOL0     C28956   5.121  10.089   5.065  0.5057  0.0459 -0.4530
  215MOL0     C28957   5.238  10.151   5.105 -0.4564 -0.9974 -0.0383
  215MOL0     H28958   5.638  10.360   5.322  2.8911  0.7996  0.5968
  215MOL0     H28959   5.785  10.485   5.466  0.9264 -1.3108  0.7896
  215MOL0     H28960   5.918  10.605   5.620  1.3107 -1.1195  2.4923
  215MOL0     H28961   5.772  10.706   5.603 -0.7863 -1.5098 -0.1731
  215MOL0     H28962   5.947  10.805   5.731  1.0196 -2.1320 -2.6931
  215MOL0     H28963   5.785  10.795   5.812  0.9010 -1.3206  2.9237
  215MOL0     H28964   5.889  10.573   5.919  0.1803 -1.3899 -4.5497
  215MOL0     H28965   6.040  10.610   5.852 -1.0418 -3.0899  2.7007
  215MOL0     H28966   6.010  10.685   6.084  0.5513 -0.7633 -1.1042
  215MOL0     H28967   6.072  10.811   5.971  0.3565 -1.0251 -0.8165
  215MOL0     H28968   5.924  10.903   6.134  1.3021  0.6267 -2.2146
  215MOL0     H28969   5.873  10.923   5.976  1.5746 -0.9585 -1.8626
  215MOL0     H28970   5.674  10.888   6.099 -0.7790 -0.7010  0.8277
  215MOL0     H28971   5.684  10.742   6.011 -0.2828 -1.3278  1.0001
  215MOL0     H28972   5.663  10.655   6.237  2.2485 -3.2748 -0.7821
  215MOL0     H28973   5.832  10.663   6.228  1.4743  1.7560 -0.7147
  215MOL0     H28974   5.846  10.880   6.353 -0.0011  0.5873  2.2225
  215MOL0     H28975   5.760  10.747   6.433  0.7219  0.7635  0.4829
  215MOL0     H28976   5.485  10.727   6.375 -2.2666  0.3425 -0.8028
  215MOL0     H28977   5.250  10.816   6.393  0.7554 -0.2582  1.4511
  215MOL0     H28978   5.263  10.953   6.503  1.0335 -0.5810 -0.1792
  215MOL0     H28979   5.218  11.113   6.308 -1.2016  0.2071 -0.4151
  215MOL0     H28980   5.093  10.990   6.347 -0.1093 -2.9633 -2.0642
  215MOL0     H28981   5.299  10.970   6.124 -0.4924 -2.7993 -2.8171
  215MOL0     H28982   5.137  11.032   6.098  0.0533  0.4244  0.7309
  215MOL0     H28983   5.045  10.795   6.191 -0.4678  1.7932 -1.0700
  215MOL0     H28984   5.206  10.734   6.145 -0.4080  0.7667  2.4500
  215MOL0     H28985   4.969  10.831   5.779 -1.8042  0.4331 -0.6954
  215MOL0     H28986   4.838  10.776   5.606  1.9062 -0.3624  1.6052
  215MOL0     H28987   4.805  10.608   5.563 -2.6511 -0.8066 -0.1390
  215MOL0     H28988   4.676  10.710   5.649  0.5890 -0.4176  0.7750
  215MOL0     H28989   4.420  10.376   5.911 -0.4112  1.0769  0.7920
  215MOL0     H28990   4.168  10.318   5.854  1.2496 -0.0124  1.9943
  215MOL0     H28991   4.041  10.197   5.643  1.2175  0.7171 -0.3962
  215MOL0     H28992   3.979  10.263   5.791  0.7106  1.2586 -0.6616
  215MOL0     H28993   3.867  10.275   5.504  2.7937  0.8695 -0.1777
  215MOL0     H28994   3.844  10.136   5.622  1.7135 -0.6533 -1.0436
  215MOL0     H28995   3.726  10.431   5.636  1.2463  0.5369 -0.0650
  215MOL0     H28996   3.733  10.323   5.778  0.3616  0.8627 -0.8164
  215MOL0     H28997   3.613  10.233   5.499  0.8633  0.2554  0.2652
  215MOL0     H28998   3.594  10.149   5.645  1.2231 -0.7358 -1.3689
  215MOL0     H28999   3.471  10.427   5.580  2.9267  0.8459  2.6730
  215MOL0     H29000   3.455  10.343   5.731 -0.9312  0.9309 -0.7866
  215MOL0     H29001   3.363  10.211   5.470 -0.6603 -4.3847  1.1616
  215MOL0     H29002   3.309  10.159   5.628  0.3551 -0.8787 -0.5101
  215MOL0     H29003   3.238  10.429   5.516  0.6415  1.5623  0.4229
  215MOL0     H29004   3.209  10.376   5.673  0.6089  3.1355 -2.7596
  215MOL0     H29005   3.068  10.194   5.630  0.8116  0.0417  0.6004
  215MOL0     H29006   3.094  10.194   5.463 -1.9425  0.7398  0.7688
  215MOL0     H29007   4.194  10.559   5.514 -1.4306 -0.0204  2.1021
  215MOL0     H29008   4.441  10.608   5.552 -0.3857  1.2521  1.0962
  215MOL0     H29009   4.804  10.463   6.048 -0.9246  1.4289  3.0027
  215MOL0     H29010   4.979  10.596   6.130  0.7678  2.4965  0.5540
  215MOL0     H29011   5.525  10.455   5.803 -0.6628  2.0071  0.7074
  215MOL0     H29012   5.368  10.312   5.662  0.0862  1.0121  3.1880
  215MOL0     H29013   5.201  10.104   5.453  0.0983 -4.7776  0.6410
  215MOL0     H29014   4.998  10.010   5.376  0.9182 -1.1386  0.2427
  215MOL0     H29015   4.808   9.888   5.278  1.7924 -0.3493 -1.0338
  215MOL0     H29016   4.784  10.060   5.281 -1.5607 -0.3811  2.0057
  215MOL0     H29017   4.648  10.054   5.086 -4.7395 -1.7582 -2.8577
  215MOL0     H29018   4.585   9.940   5.195 -1.1233  0.5789 -1.0566
  215MOL0     H29019   4.698   9.746   5.069  1.2369  1.0096  1.2661
  215MOL0     H29020   4.770   9.858   4.960  0.4615 -0.9326 -0.6148
  215MOL0     H29021   4.559   9.800   4.850 -1.7650  0.1490 -1.2131
  215MOL0     H29022   4.529   9.951   4.947  0.2861 -0.8358  3.4087
  215MOL0     H29023   4.242   9.748   5.131 -1.2349 -0.6131 -1.3756
  215MOL0     H29024   5.095  10.092   4.960 -0.6842 -1.7443 -0.2683
  215MOL0     H29025   5.284  10.211   5.027 -0.0952  0.0989  0.9952
  216MOL0     O29026   3.467   7.273   3.409  0.6623 -1.2196 -0.4507
  216MOL0     C29027   3.503   7.164   3.442  0.7626 -0.0537  0.0774
  216MOL0     O29028   3.477   7.042   3.382  0.3243  0.2035  0.2115
  216MOL0     C29029   3.385   7.031   3.275 -0.6990  0.0364  0.1167
  216MOL0     C29030   3.328   6.907   3.258 -0.2658  0.3225 -0.3846
  216MOL0     C29031   3.233   6.879   3.153  0.4095  0.5636 -0.5315
  216MOL0     C29032   3.180   6.987   3.075 -0.8411 -0.1927  0.7650
  216MOL0     O29033   3.091   6.960   2.972 -0.1922 -0.3857 -0.0499
  216MOL0     C29034   3.027   7.062   2.896  0.0054  0.6169 -0.0035
  216MOL0     C29035   2.920   6.991   2.810  0.6198  0.0282 -0.7971
  216MOL0     C29036   2.846   7.094   2.722 -0.3792 -0.3749 -0.5044
  216MOL0     C29037   2.731   7.021   2.654  0.2440 -0.1997 -0.1071
  216MOL0     C29038   2.649   7.110   2.557  0.5196  0.0416  0.4072
  216MOL0     C29039   2.548   7.013   2.486 -0.7609 -1.2413  0.6136
  216MOL0     C29040   2.444   7.087   2.404 -0.6915 -0.2094 -0.3186
  216MOL0     C29041   2.354   6.999   2.312  0.0107 -1.5297  0.2332
  216MOL0     N29042   2.274   7.076   2.221  0.0931 -0.1005  0.3945
  216MOL0     C29043   2.312   7.102   2.092  0.1586  0.0074  1.2355
  216MOL0     C29044   2.197   7.161   2.035 -0.1288  0.5718 -0.1161
  216MOL0     C29045   2.190   7.228   1.902  0.5319  0.5066  0.4984
  216MOL0     C29046   2.054   7.201   1.830  0.6880 -0.1415 -0.6084
  216MOL0     C29047   1.945   7.299   1.882  0.3843 -0.3128  0.3599
  216MOL0     C29048   1.837   7.317   1.777 -0.4879 -0.1471  1.0974
  216MOL0     O29049   1.750   7.196   1.768 -0.2180  0.4626 -0.5590
  216MOL0     C29050   1.665   7.182   1.659 -0.6943 -0.0157 -0.0487
  216MOL0     C29051   1.638   7.291   1.567  0.5353 -0.3847  0.1676
  216MOL0     C29052   1.563   7.271   1.449 -0.5799 -0.2693 -0.3561
  216MOL0     C29053   1.534   7.399   1.371  0.9993  0.6503  0.2844
  216MOL0     C29054   1.513   7.133   1.426 -0.9412 -1.2857 -0.1199
  216MOL0     C29055   1.450   7.090   1.302  0.0855 -0.1514  0.4914
  216MOL0     O29056   1.467   6.962   1.274 -0.4807  0.6656  0.1405
  216MOL0     C29057   1.384   6.902   1.181 -0.8315  0.3085 -0.2056
  216MOL0     C29058   1.318   6.791   1.231  0.4136 -0.6679  0.8187
  216MOL0     C29059   1.225   6.724   1.150  0.2327 -0.4573 -0.2078
  216MOL0     C29060   1.181   6.768   1.020 -0.1714  0.8675  0.3102
  216MOL0     O29061   1.075   6.702   0.964  0.4426 -0.2508 -0.4303
  216MOL0     C29062   1.050   6.724   0.823 -0.0858  0.8806 -0.1000
  216MOL0     C29063   0.960   6.616   0.761 -0.8726  0.4891  0.6142
  216MOL0     C29064   0.822   6.630   0.826  0.2644 -0.1455  0.6093
  216MOL0     C29065   0.730   6.519   0.782  0.5627  0.2169  0.1516
  216MOL0     C29066   0.602   6.524   0.854 -0.0944  1.2834  0.4271
  216MOL0     C29067   0.504   6.446   0.765  0.2828  0.0940 -0.1971
  216MOL0     C29068   0.434   6.524   0.646 -0.7670 -0.5859 -0.0838
  216MOL0     C29069   0.381   6.673   0.661 -0.2279  0.5159  0.2008
  216MOL0    Cl29070   0.259   6.665   0.797 -0.5716 -0.3777 -0.0732
  216MOL0     C29071   1.257   6.881   0.980  0.1315  1.0506  0.5228
  216MOL0     C29072   1.354   6.951   1.051 -0.2682  0.5456  0.3874
  216MOL0     O29073   1.394   7.176   1.230 -0.4061  0.3293 -0.0873
  216MOL0     C29074   1.536   7.037   1.525  0.7493  0.0781  0.1122
  216MOL0     C29075   1.616   7.055   1.636  0.4469  0.0103  0.8758
  216MOL0     N29076   2.099   7.169   2.121 -0.0895  0.2473  0.6665
  216MOL0     N29077   2.143   7.123   2.236 -0.3132  0.8360  0.2163
  216MOL0     C29078   3.245   7.111   3.090 -0.1971  0.1958 -0.4503
  216MOL0     C29079   3.346   7.135   3.183 -0.7084  0.4005  0.7810
  216MOL0     C29080   3.570   7.162   3.578 -0.2058  0.7758  0.7145
  216MOL0     C29081   3.602   7.036   3.635  0.3637 -0.2512  0.2663
  216MOL0     C29082   3.660   7.024   3.768 -0.7261  0.4737  0.8241
  216MOL0     C29083   3.692   7.139   3.838 -0.0699 -0.6920 -0.1841
  216MOL0     O29084   3.774   7.132   3.946 -0.5193  0.1579 -0.2350
  216MOL0     C29085   3.763   7.223   4.049 -0.4495  0.1308 -0.5427
  216MOL0     C29086   3.871   7.188   4.162 -0.2951  0.2866  1.1777
  216MOL0     C29087   4.018   7.185   4.102 -0.2625  0.3969  0.2933
  216MOL0     C29088   4.064   7.333   4.060 -0.0951 -0.2143 -0.2452
  216MOL0     C29089   4.216   7.338   4.033  0.3733  0.5436 -0.7027
  216MOL0     C29090   4.333   7.345   4.028 -0.3338 -0.3607 -0.4972
  216MOL0     C29091   3.657   7.265   3.781  0.1444  0.3546  0.0677
  216MOL0     C29092   3.594   7.276   3.658 -0.4172 -0.3998  1.2139
  216MOL0     H29093   3.370   6.826   3.316 -0.9790 -0.9684 -1.6020
  216MOL0     H29094   3.205   6.776   3.136 -0.0691  0.6203 -0.0979
  216MOL0     H29095   2.991   7.148   2.954  1.8083  1.2972  0.1735
  216MOL0     H29096   3.101   7.099   2.825  0.8111 -3.2368 -1.4395
  216MOL0     H29097   2.961   6.916   2.742 -0.6803 -2.0045  0.5569
  216MOL0     H29098   2.851   6.939   2.878  2.9138 -0.7931  1.0119
  216MOL0     H29099   2.818   7.188   2.769  1.7872  0.3256 -0.4874
  216MOL0     H29100   2.919   7.120   2.645 -2.6718  2.4453 -1.8962
  216MOL0     H29101   2.774   6.946   2.587  1.9467  1.1546 -0.6307
  216MOL0     H29102   2.657   6.979   2.723 -0.9085 -0.8572 -1.6793
  216MOL0     H29103   2.597   7.190   2.611  0.8917  0.2946  0.4005
  216MOL0     H29104   2.715   7.161   2.487 -2.8027  0.7297 -2.5032
  216MOL0     H29105   2.620   6.959   2.423  1.5801  1.6965  0.5659
  216MOL0     H29106   2.500   6.936   2.548 -4.3150  1.1515  1.1716
  216MOL0     H29107   2.383   7.153   2.466  2.4321  0.6233  2.1410
  216MOL0     H29108   2.506   7.149   2.337  0.8926  0.8439  1.9978
  216MOL0     H29109   2.287   6.947   2.381 -0.8702  0.2901  0.8109
  216MOL0     H29110   2.416   6.925   2.261  1.4071 -3.0582  3.7932
  216MOL0     H29111   2.413   7.096   2.052 -0.4827  1.8407 -0.9034
  216MOL0     H29112   2.211   7.335   1.908 -1.5313  1.0956 -1.6755
  216MOL0     H29113   2.271   7.182   1.843 -0.7819  0.6618 -1.5326
  216MOL0     H29114   2.010   7.103   1.850 -1.3784  0.7959 -0.3330
  216MOL0     H29115   2.081   7.200   1.723 -2.1826 -2.7115 -1.4345
  216MOL0     H29116   1.987   7.398   1.901 -1.6852  1.4781 -3.3467
  216MOL0     H29117   1.894   7.262   1.972  1.1210  1.6088  1.6175
  216MOL0     H29118   1.889   7.340   1.684 -1.2027  2.3738  1.2429
  216MOL0     H29119   1.775   7.401   1.811  0.6045  0.3013  2.0225
  216MOL0     H29120   1.664   7.394   1.594 -1.5504 -0.1332  1.5070
  216MOL0     H29121   1.433   7.399   1.330  0.9599 -0.7724  0.3131
  216MOL0     H29122   1.545   7.489   1.432 -2.6617  0.2008  1.8255
  216MOL0     H29123   1.596   7.394   1.280  1.1465  2.1545  0.2737
  216MOL0     H29124   1.344   6.751   1.328  1.9985 -0.8222  0.3644
  216MOL0     H29125   1.172   6.640   1.195  1.2719 -1.7355 -1.2920
  216MOL0     H29126   1.003   6.822   0.810 -0.7829  0.4184 -1.1704
  216MOL0     H29127   1.147   6.720   0.773 -0.5855  0.6208 -1.0764
  216MOL0     H29128   0.953   6.629   0.652 -1.3979  1.7607  0.7861
  216MOL0     H29129   1.009   6.521   0.784  0.0560 -0.0815 -3.0635
  216MOL0     H29130   0.781   6.732   0.823 -2.6003 -1.2101  0.8301
  216MOL0     H29131   0.840   6.612   0.932 -0.4521  2.6418  1.2930
  216MOL0     H29132   0.716   6.535   0.675 -1.9224 -0.9728  0.2470
  216MOL0     H29133   0.776   6.420   0.796  1.7420  0.9773  2.0674
  216MOL0     H29134   0.555   6.622   0.871  0.0323  1.0515  2.2083
  216MOL0     H29135   0.609   6.469   0.948 -0.1897  2.4050  1.1118
  216MOL0     H29136   0.555   6.356   0.729 -1.1432 -1.2169  0.8989
  216MOL0     H29137   0.432   6.415   0.841 -0.3686 -0.0981 -0.8769
  216MOL0     H29138   0.349   6.468   0.606 -2.0543  1.1521  0.0862
  216MOL0     H29139   0.515   6.535   0.573  0.5689 -2.6458  0.9833
  216MOL0     H29140   0.334   6.720   0.574  1.2561  1.3403 -0.1900
  216MOL0     H29141   0.460   6.741   0.694 -0.1837  0.6710 -0.2070
  216MOL0     H29142   1.236   6.932   0.886 -1.5836  1.9886  1.3465
  216MOL0     H29143   1.401   7.038   1.007 -1.6372 -0.1620 -2.8011
  216MOL0     H29144   1.496   6.937   1.508 -2.5581  1.3584 -0.5143
  216MOL0     H29145   1.642   6.973   1.702  3.8986  0.1095 -0.1699
  216MOL0     H29146   3.223   7.203   3.036 -0.1347  0.3211 -0.2661
  216MOL0     H29147   3.394   7.232   3.188 -2.3015  1.4252 -1.6221
  216MOL0     H29148   3.588   6.944   3.580 -1.4003 -0.9237  1.7526
  216MOL0     H29149   3.673   6.922   3.802  2.3365 -0.3528 -2.3151
  216MOL0     H29150   3.774   7.323   4.007 -1.6524  0.0531 -1.0859
  216MOL0     H29151   3.669   7.224   4.105  0.7343  0.2023  1.5175
  216MOL0     H29152   3.854   7.099   4.223  2.7728 -1.2829 -0.0431
  216MOL0     H29153   3.868   7.265   4.240 -2.5135 -0.5078  1.9489
  216MOL0     H29154   4.022   7.120   4.013 -2.4982  1.5509 -0.7469
  216MOL0     H29155   4.077   7.149   4.186 -3.3004  0.1441  2.4993
  216MOL0     H29156   4.049   7.397   4.148  0.6905 -1.7856  1.0920
  216MOL0     H29157   4.008   7.361   3.970 -1.8681 -2.0911  0.1964
  216MOL0     H29158   4.438   7.352   4.045 -0.9300  1.5125  3.6486
  216MOL0     H29159   3.686   7.355   3.833 -1.3958  0.6116  0.5343
  216MOL0     H29160   3.570   7.369   3.608 -1.4351 -2.2325 -1.9894
  217MOL0     O29161   8.464   1.988   7.141 -0.6146  0.3981  0.1578
  217MOL0     C29162   8.415   1.978   7.029 -0.1716  0.3237 -0.3955
  217MOL0     O29163   8.472   1.935   6.917  0.7589 -0.5263  0.1163
  217MOL0     C29164   8.602   1.888   6.922  0.0745 -0.0392 -0.4624
  217MOL0     C29165   8.711   1.914   7.021  0.7751 -0.2164 -0.7599
  217MOL0     C29166   8.835   1.853   7.002 -0.0490  0.4453  0.4257
  217MOL0     C29167   8.857   1.758   6.890  0.4289 -0.1628  0.1031
  217MOL0     O29168   8.978   1.702   6.857 -0.0579 -0.3114  0.3754
  217MOL0     C29169   9.071   1.689   6.967  0.2507  0.4975  0.2037
  217MOL0     C29170   9.172   1.583   6.930  0.8561 -1.2215 -0.3170
  217MOL0     C29171   9.123   1.454   6.984 -0.3576 -0.8604  0.2501
  217MOL0     C29172   9.226   1.332   6.964  0.1015 -0.2562  0.1298
  217MOL0     C29173   9.167   1.198   6.981  0.6166  0.4313  0.8458
  217MOL0     C29174   9.057   1.189   7.094 -0.0937  0.0484  0.6155
  217MOL0     C29175   9.024   1.033   7.104 -0.0730  0.6926 -0.4583
  217MOL0     C29176   8.881   1.013   7.161 -0.8279 -0.9648  0.0553
  217MOL0     N29177   8.828   0.883   7.133 -0.6921 -0.9544  1.0144
  217MOL0     C29178   8.823   0.826   7.006 -1.1386  0.5564  0.7625
  217MOL0     C29179   8.788   0.694   7.023 -0.3694  0.0959  0.5209
  217MOL0     C29180   8.763   0.587   6.927  0.7683 -0.2335  0.5625
  217MOL0     C29181   8.891   0.518   6.871  0.0731 -0.0317 -0.1610
  217MOL0     C29182   8.985   0.465   6.978  0.2753 -0.0466  0.2285
  217MOL0     C29183   9.083   0.369   6.920 -0.2639  0.4792  0.1470
  217MOL0     O29184   9.176   0.314   7.010  0.5892  0.3431 -0.6316
  217MOL0     C29185   9.264   0.211   6.963 -0.2303 -0.2293 -0.1359
  217MOL0     C29186   9.298   0.192   6.833 -1.2276  1.5424  0.7425
  217MOL0     C29187   9.395   0.095   6.791  0.5796 -0.0257  0.0649
  217MOL0     C29188   9.422   0.087   6.644  0.4374 -0.0407 -0.3421
  217MOL0     C29189   9.457   0.021   6.900 -0.5440  0.1730 -0.8040
  217MOL0     C29190   9.555  -0.080   6.873 -0.0702 -0.1977 -0.8032
  217MOL0     O29191   9.639  -0.113   6.974  0.3524  0.7369  0.2744
  217MOL0     C29192   9.752  -0.191   6.942  0.5040 -1.0934  0.1614
  217MOL0     C29193   9.751  -0.327   6.934  0.7991 -0.1186 -0.8231
  217MOL0     C29194   9.871  -0.398   6.918  0.2591  0.5533 -0.3558
  217MOL0     C29195   9.997  -0.330   6.894 -1.2683  0.5787  0.5363
  217MOL0     O29196  10.115  -0.396   6.891 -0.2048 -0.1212  0.6418
  217MOL0     C29197  10.127  -0.535   6.920  0.3848 -0.2570 -0.0488
  217MOL0     C29198  10.264  -0.586   6.959 -0.1391  0.0550 -0.2346
  217MOL0     C29199  10.356  -0.540   6.856  0.0134  0.0366 -0.8368
  217MOL0     C29200  10.503  -0.546   6.906 -0.7611 -0.5812 -0.9781
  217MOL0     C29201  10.600  -0.480   6.799  0.6394  0.0360 -0.0020
  217MOL0     C29202  10.748  -0.488   6.847 -0.0653 -0.3626 -0.2075
  217MOL0     C29203  10.853  -0.467   6.741  0.3881 -0.6539 -0.2817
  217MOL0     C29204  10.999  -0.472   6.798  0.6162  0.3889 -0.1176
  217MOL0    Cl29205  11.035  -0.614   6.896 -0.5234 -0.1608 -0.3080
  217MOL0     C29206   9.991  -0.192   6.896 -0.7191 -0.2013  1.1434
  217MOL0     C29207   9.868  -0.130   6.924  0.0657 -0.9586  1.6979
  217MOL0     O29208   9.553  -0.134   6.768  0.0418  0.6247  0.3286
  217MOL0     C29209   9.429   0.057   7.033 -0.2502 -0.1440  0.5109
  217MOL0     C29210   9.335   0.152   7.062  1.1150  0.0686 -0.2238
  217MOL0     N29211   8.797   0.668   7.152  0.7573 -0.8058 -0.3823
  217MOL0     N29212   8.824   0.778   7.217 -0.2528  0.1877  0.4425
  217MOL0     C29213   8.747   1.742   6.802  0.0918  0.3893  1.3353
  217MOL0     C29214   8.626   1.810   6.813  0.1873 -0.0693  0.8208
  217MOL0     C29215   8.270   2.044   7.020  0.5382  0.8496  0.5268
  217MOL0     C29216   8.210   2.102   7.132 -0.7158 -0.9933 -0.0007
  217MOL0     C29217   8.080   2.147   7.128  0.1059  0.4171  0.3030
  217MOL0     C29218   8.002   2.142   7.012 -0.9539  0.1718  0.8865
  217MOL0     O29219   7.871   2.167   6.997  0.0224  0.2735 -0.6901
  217MOL0     C29220   7.796   2.191   7.118 -0.4497  0.9520  0.3767
  217MOL0     C29221   7.648   2.234   7.077 -0.1670 -0.0343 -0.1329
  217MOL0     C29222   7.566   2.287   7.200  0.4187  0.2504  0.1618
  217MOL0     C29223   7.431   2.353   7.151  0.8676 -0.4248  0.5520
  217MOL0     C29224   7.341   2.242   7.123 -1.1066 -0.7233 -0.3134
  217MOL0     C29225   7.290   2.134   7.115  0.2828 -0.0408  0.1402
  217MOL0     C29226   8.066   2.103   6.896 -0.5810  0.8050  0.2345
  217MOL0     C29227   8.200   2.050   6.894  0.3400 -0.5179 -0.6657
  217MOL0     H29228   8.700   1.976   7.109 -1.3717 -1.3194 -0.1818
  217MOL0     H29229   8.915   1.892   7.064  1.8210  0.9063 -2.1304
  217MOL0     H29230   9.130   1.778   6.988  2.2966 -1.0760  1.5992
  217MOL0     H29231   9.018   1.658   7.058  0.1838 -2.0261 -0.6193
  217MOL0     H29232   9.198   1.588   6.823 -0.3932 -1.7688 -0.6598
  217MOL0     H29233   9.260   1.614   6.988 -0.1609 -0.4830  0.8704
  217MOL0     H29234   9.099   1.458   7.090 -1.7504 -1.9166  0.0119
  217MOL0     H29235   9.031   1.423   6.933  0.1339  0.7724 -1.7394
  217MOL0     H29236   9.277   1.332   6.866 -1.4843 -0.0596 -0.7240
  217MOL0     H29237   9.308   1.356   7.032  0.1875  2.6262 -0.8335
  217MOL0     H29238   9.103   1.176   6.894  0.0848  3.0844  0.4982
  217MOL0     H29239   9.254   1.132   6.989  1.6011  1.5625 -0.0362
  217MOL0     H29240   9.091   1.240   7.185 -1.3048  0.5770  0.7947
  217MOL0     H29241   8.958   1.231   7.076 -2.0031 -3.6495  1.4180
  217MOL0     H29242   9.033   0.988   7.005  1.0337  0.5845 -0.3264
  217MOL0     H29243   9.096   0.981   7.168 -1.8913  0.2096  1.3048
  217MOL0     H29244   8.817   1.094   7.125 -1.2765 -1.5341 -0.4503
  217MOL0     H29245   8.883   1.038   7.267 -2.2699  3.2121 -0.6834
  217MOL0     H29246   8.847   0.874   6.911 -0.3121 -1.0723  0.1096
  217MOL0     H29247   8.695   0.510   6.964  1.2829 -0.2254  1.5579
  217MOL0     H29248   8.704   0.636   6.849  0.3032  1.7754  2.0818
  217MOL0     H29249   8.940   0.587   6.802 -0.9923  1.4633  0.5154
  217MOL0     H29250   8.859   0.429   6.816  2.3883 -0.8223 -0.3583
  217MOL0     H29251   8.920   0.415   7.050 -0.5349 -0.4115 -0.7307
  217MOL0     H29252   9.031   0.549   7.031 -0.3531 -0.1224  0.9098
  217MOL0     H29253   9.144   0.418   6.843 -1.9759 -0.0792 -1.6586
  217MOL0     H29254   9.035   0.284   6.871  0.4462  0.5358 -0.6625
  217MOL0     H29255   9.244   0.252   6.761 -0.5968  1.8185  0.4907
  217MOL0     H29256   9.384   0.173   6.588 -0.3801  0.2916  0.6842
  217MOL0     H29257   9.528   0.090   6.619  0.0491  1.0970 -2.0487
  217MOL0     H29258   9.381  -0.009   6.611 -0.4127 -0.5835  2.0763
  217MOL0     H29259   9.658  -0.384   6.937  0.3438  0.5882  2.2202
  217MOL0     H29260   9.860  -0.506   6.915  1.7501  0.3631 -3.5013
  217MOL0     H29261  10.057  -0.553   7.003 -1.9668  3.3191 -1.0183
  217MOL0     H29262  10.083  -0.605   6.849 -2.8752 -0.4470  1.9654
  217MOL0     H29263  10.294  -0.561   7.062 -1.4266  1.6753 -0.2048
  217MOL0     H29264  10.263  -0.694   6.969 -0.8822  0.2824  4.4024
  217MOL0     H29265  10.340  -0.438   6.821 -2.8303 -0.5949 -1.5488
  217MOL0     H29266  10.342  -0.603   6.768  0.0921  0.6219 -1.2765
  217MOL0     H29267  10.506  -0.494   7.003  0.4360 -3.5781  0.7536
  217MOL0     H29268  10.543  -0.643   6.939  0.4197  1.2771  3.9416
  217MOL0     H29269  10.554  -0.384   6.771 -0.0563  0.4462  2.3248
  217MOL0     H29270  10.586  -0.542   6.710  0.6106  0.9229 -0.6274
  217MOL0     H29271  10.765  -0.412   6.923  1.0112  0.2204 -1.0057
  217MOL0     H29272  10.772  -0.581   6.899 -1.9078 -1.6758 -1.5581
  217MOL0     H29273  10.848  -0.369   6.693 -3.2176 -0.4285  0.2613
  217MOL0     H29274  10.824  -0.547   6.672 -1.1973  1.0336 -1.6817
  217MOL0     H29275  11.007  -0.383   6.861  0.9288  0.3937 -0.1614
  217MOL0     H29276  11.075  -0.454   6.721 -0.2892  1.0759 -0.8641
  217MOL0     H29277  10.084  -0.137   6.887  0.0827 -1.2463  2.5364
  217MOL0     H29278   9.878  -0.023   6.910  1.5023 -1.3098 -0.4590
  217MOL0     H29279   9.477   0.005   7.115  0.8765  1.7098  1.0796
  217MOL0     H29280   9.327   0.178   7.167  1.3606  1.3954 -0.5195
  217MOL0     H29281   8.753   1.687   6.709 -0.2516  0.4239  1.2926
  217MOL0     H29282   8.552   1.795   6.735  2.2724  0.7151 -1.4323
  217MOL0     H29283   8.257   2.107   7.229 -0.8833 -3.1174  0.2468
  217MOL0     H29284   8.029   2.174   7.220 -1.7310 -2.4625  0.2488
  217MOL0     H29285   7.789   2.100   7.179 -1.5967 -1.3421 -2.9316
  217MOL0     H29286   7.843   2.274   7.174  0.7281 -0.2344  1.2130
  217MOL0     H29287   7.592   2.151   7.033  2.1185 -2.7501  1.7086
  217MOL0     H29288   7.660   2.314   7.004 -2.3317  0.4334 -0.0430
  217MOL0     H29289   7.634   2.361   7.244  1.1121 -2.3149  3.8635
  217MOL0     H29290   7.560   2.211   7.279 -0.0974 -0.6501 -0.7153
  217MOL0     H29291   7.442   2.421   7.067 -0.8996  3.1466  2.9630
  217MOL0     H29292   7.388   2.420   7.226 -2.9288  3.7751 -4.6131
  217MOL0     H29293   7.248   2.036   7.124  2.0039 -0.7517  0.7920
  217MOL0     H29294   8.014   2.123   6.803 -2.4015 -0.9550  0.7933
  217MOL0     H29295   8.254   2.025   6.803 -0.5455 -1.4877 -0.9382
  218MOL0     O29296   6.961   5.409   1.201  0.0855 -0.2038  0.3049
  218MOL0     C29297   6.919   5.494   1.278  1.2464  0.6645 -1.0106
  218MOL0     O29298   6.974   5.615   1.311  0.9746  0.0102  0.7061
  218MOL0     C29299   7.086   5.666   1.247 -0.0241 -0.2803 -0.0879
  218MOL0     C29300   7.098   5.807   1.246 -0.6561 -0.1892 -0.7335
  218MOL0     C29301   7.221   5.864   1.208  0.0611 -0.7463  0.0141
  218MOL0     C29302   7.329   5.787   1.167 -0.8118 -0.3414 -0.1815
  218MOL0     O29303   7.461   5.826   1.151  0.1392 -0.3481  0.0638
  218MOL0     C29304   7.493   5.954   1.094  0.8508 -0.4164  0.5903
  218MOL0     C29305   7.637   5.972   1.050 -0.2389 -0.2678 -0.5575
  218MOL0     C29306   7.656   6.109   0.978 -0.2990  0.0584 -0.5272
  218MOL0     C29307   7.811   6.154   0.982  0.4513 -0.4156  0.4111
  218MOL0     C29308   7.832   6.289   0.909 -0.0714 -1.2731  0.3446
  218MOL0     C29309   7.975   6.343   0.890 -0.1121  0.1779 -0.2703
  218MOL0     C29310   8.028   6.429   1.014 -0.4137  0.0141  0.2651
  218MOL0     C29311   8.142   6.524   0.975  0.1446 -0.1846 -0.2748
  218MOL0     N29312   8.149   6.611   1.097  0.0747  0.9512  0.0406
  218MOL0     C29313   8.067   6.716   1.101 -0.9797 -1.1741 -0.2005
  218MOL0     C29314   8.086   6.765   1.222  0.7366 -0.0436 -0.0830
  218MOL0     C29315   8.029   6.895   1.290  0.1424 -0.3427  0.8630
  218MOL0     C29316   7.877   6.898   1.276  0.4348  0.1691 -0.9551
  218MOL0     C29317   7.810   6.790   1.362 -0.0051  0.3495  0.6012
  218MOL0     C29318   7.663   6.822   1.400  0.6062  0.7085  0.3296
  218MOL0     O29319   7.582   6.714   1.457  0.0871  0.3142  0.4266
  218MOL0     C29320   7.445   6.703   1.436 -0.3385  0.3374 -0.5567
  218MOL0     C29321   7.369   6.786   1.354  0.6985 -0.4374  0.5106
  218MOL0     C29322   7.223   6.774   1.368  0.7032 -0.8937  0.4187
  218MOL0     C29323   7.150   6.879   1.284 -0.0414  0.0781  0.5372
  218MOL0     C29324   7.163   6.685   1.455  0.3500  0.7606  0.1344
  218MOL0     C29325   7.019   6.680   1.480  0.1305 -0.1367  0.0234
  218MOL0     O29326   6.981   6.564   1.537  0.1929 -0.3255  0.0469
  218MOL0     C29327   6.847   6.550   1.575 -0.6631  0.0163  1.1377
  218MOL0     C29328   6.798   6.628   1.683 -0.1904 -0.5036 -0.0861
  218MOL0     C29329   6.675   6.591   1.734  0.1158 -0.0237  0.9192
  218MOL0     C29330   6.598   6.485   1.680 -0.3964 -0.0809  0.0658
  218MOL0     O29331   6.474   6.459   1.726 -0.1715 -0.2454  0.3924
  218MOL0     C29332   6.409   6.565   1.799 -0.1418 -0.3114  0.0948
  218MOL0     C29333   6.282   6.496   1.862 -1.5157  0.0121 -0.9609
  218MOL0     C29334   6.210   6.603   1.950 -0.0803 -0.4223  0.9419
  218MOL0     C29335   6.087   6.670   1.881 -0.3768 -0.4250 -0.1297
  218MOL0     C29336   5.989   6.593   1.812  0.7368  0.6131  0.1835
  218MOL0     C29337   5.941   6.470   1.892 -0.8537  0.8487 -0.0624
  218MOL0     C29338   5.822   6.396   1.828  0.0519  0.1105 -0.7312
  218MOL0     C29339   5.799   6.266   1.908  0.3470  0.5378 -0.1122
  218MOL0    Cl29340   5.914   6.137   1.849  0.1079 -0.0943 -0.1862
  218MOL0     C29341   6.651   6.409   1.572 -0.2842 -1.4702  0.3292
  218MOL0     C29342   6.779   6.441   1.519  0.2292 -0.3001 -0.8618
  218MOL0     O29343   6.949   6.777   1.461  0.6903 -0.0249  0.4941
  218MOL0     C29344   7.240   6.595   1.530 -0.2851  0.1576 -0.1971
  218MOL0     C29345   7.382   6.608   1.527 -0.2840  0.6823  1.0015
  218MOL0     N29346   8.179   6.693   1.291 -0.2910 -0.7228 -0.1252
  218MOL0     N29347   8.212   6.587   1.217  0.5364  0.6663 -0.5379
  218MOL0     C29348   7.307   5.648   1.151 -0.9998  0.7025 -0.9350
  218MOL0     C29349   7.181   5.597   1.189 -0.2422 -0.9327  0.9001
  218MOL0     C29350   6.805   5.450   1.367 -0.4186  0.4876 -0.0513
  218MOL0     C29351   6.784   5.516   1.482  0.1604 -0.5163 -0.1771
  218MOL0     C29352   6.679   5.474   1.571  0.5208 -0.0105  0.7436
  218MOL0     C29353   6.598   5.354   1.542  0.6484  0.2365 -0.1255
  218MOL0     O29354   6.485   5.332   1.622 -0.0255 -1.0491 -0.5620
  218MOL0     C29355   6.402   5.216   1.597 -0.6151 -0.7872 -0.6456
  218MOL0     C29356   6.263   5.242   1.674 -0.7396  0.6281  0.0837
  218MOL0     C29357   6.274   5.326   1.808  0.7774  0.1552 -0.5461
  218MOL0     C29358   6.152   5.319   1.895 -0.2065 -0.0220  0.1581
  218MOL0     C29359   6.111   5.439   1.968 -0.0730  0.2704 -0.9281
  218MOL0     C29360   6.058   5.529   2.026 -0.3545  0.2703 -0.1761
  218MOL0     C29361   6.639   5.277   1.424  0.0701 -0.2676 -0.4462
  218MOL0     C29362   6.734   5.332   1.340 -0.4502 -0.1119  0.2197
  218MOL0     H29363   7.012   5.860   1.285 -0.3173 -0.5652  0.5431
  218MOL0     H29364   7.224   5.970   1.231  0.2394 -0.9337  0.8862
  218MOL0     H29365   7.435   5.973   1.003  0.4887 -1.1178  0.6639
  218MOL0     H29366   7.472   6.026   1.174 -2.1212 -1.5309  0.9577
  218MOL0     H29367   7.698   5.967   1.141 -1.2200  1.8987  0.3026
  218MOL0     H29368   7.672   5.891   0.986  0.9754  0.5333 -0.9421
  218MOL0     H29369   7.631   6.108   0.871 -1.4356  0.8804 -0.2945
  218MOL0     H29370   7.593   6.188   1.020 -0.7158  0.7694 -2.3822
  218MOL0     H29371   7.847   6.159   1.085  2.1902 -3.5168  0.0866
  218MOL0     H29372   7.860   6.080   0.918 -0.9288 -0.8345 -0.2137
  218MOL0     H29373   7.793   6.292   0.807  1.0612 -2.2668 -0.1383
  218MOL0     H29374   7.769   6.367   0.953  1.7601 -0.4599  1.7089
  218MOL0     H29375   8.049   6.262   0.877  0.6063  0.9095 -0.8982
  218MOL0     H29376   7.966   6.403   0.799 -0.4253  2.5706  1.2861
  218MOL0     H29377   7.946   6.492   1.049 -2.2731 -1.0008 -1.9500
  218MOL0     H29378   8.060   6.365   1.096  0.2411 -0.7180 -0.5413
  218MOL0     H29379   8.115   6.586   0.889 -3.3744  0.0067  0.8068
  218MOL0     H29380   8.235   6.469   0.957  0.4180  0.1284  0.1573
  218MOL0     H29381   7.991   6.765   1.041 -1.4126 -1.2258  0.3013
  218MOL0     H29382   8.053   6.894   1.396  0.2842 -3.1893  0.8968
  218MOL0     H29383   8.080   6.984   1.254  0.7689  0.3026  3.1930
  218MOL0     H29384   7.836   6.904   1.175 -1.1192 -2.0182 -0.5242
  218MOL0     H29385   7.850   6.994   1.322  5.6648  0.6322  2.0494
  218MOL0     H29386   7.867   6.769   1.453  1.4548  0.1386 -0.3221
  218MOL0     H29387   7.822   6.699   1.302 -2.1892  0.5264 -0.1996
  218MOL0     H29388   7.621   6.862   1.307  0.2017 -3.4924 -1.4948
  218MOL0     H29389   7.662   6.908   1.469  0.2812  1.0744 -0.1261
  218MOL0     H29390   7.412   6.862   1.291  2.7015 -2.4943 -0.7683
  218MOL0     H29391   7.052   6.838   1.259  0.8220 -1.5073 -0.4206
  218MOL0     H29392   7.125   6.965   1.348  0.9277 -1.9536  3.8935
  218MOL0     H29393   7.204   6.903   1.192  0.1701 -0.7458  0.4415
  218MOL0     H29394   6.863   6.697   1.735 -0.1226 -1.4229  1.0930
  218MOL0     H29395   6.660   6.652   1.823  0.1714  0.1827  0.7896
  218MOL0     H29396   6.464   6.603   1.886 -3.0692  2.4415  0.9559
  218MOL0     H29397   6.375   6.644   1.732  0.4670  0.9578  1.2377
  218MOL0     H29398   6.219   6.459   1.781 -0.4021 -0.6869 -1.5460
  218MOL0     H29399   6.321   6.413   1.921  1.8637  2.4068  0.5169
  218MOL0     H29400   6.280   6.679   1.985  0.6626  0.1480 -1.5707
  218MOL0     H29401   6.167   6.554   2.038 -0.3260 -0.6405  0.7046
  218MOL0     H29402   6.044   6.723   1.967  1.0018 -2.8782  2.2454
  218MOL0     H29403   6.121   6.742   1.806 -1.0988 -0.4343 -0.4702
  218MOL0     H29404   6.029   6.561   1.716 -2.0733  1.0220 -1.2119
  218MOL0     H29405   5.904   6.655   1.784  1.3627  0.9439 -1.0675
  218MOL0     H29406   6.025   6.401   1.908  0.2252  1.3677 -2.8917
  218MOL0     H29407   5.902   6.511   1.985 -1.7446 -0.5181  0.1939
  218MOL0     H29408   5.824   6.360   1.725  2.3933 -0.4641 -0.5439
  218MOL0     H29409   5.734   6.456   1.854 -0.8370 -1.0559 -0.9872
  218MOL0     H29410   5.701   6.230   1.877  1.5974 -3.6280  0.1478
  218MOL0     H29411   5.809   6.290   2.015 -2.0820  1.6103 -0.0597
  218MOL0     H29412   6.610   6.316   1.534  4.5546 -2.6624 -2.9674
  218MOL0     H29413   6.824   6.368   1.452 -1.3003 -2.7871  0.6660
  218MOL0     H29414   7.193   6.528   1.602  0.3137 -1.3108 -1.1076
  218MOL0     H29415   7.445   6.546   1.591 -1.9110  0.8117  2.8508
  218MOL0     H29416   7.387   5.583   1.116 -3.1975 -1.7368 -1.7985
  218MOL0     H29417   7.165   5.490   1.178 -3.1210 -0.6448  1.6024
  218MOL0     H29418   6.832   5.611   1.504 -1.6134  0.1406  1.1905
  218MOL0     H29419   6.663   5.535   1.660 -0.7984 -0.7131  1.0234
  218MOL0     H29420   6.377   5.205   1.490 -1.3061  0.7336 -0.6602
  218MOL0     H29421   6.449   5.126   1.636 -1.1062 -0.5503  0.5211
  218MOL0     H29422   6.214   5.145   1.684 -0.1191  0.1759 -1.0549
  218MOL0     H29423   6.204   5.300   1.602  0.7622 -0.2221 -1.9650
  218MOL0     H29424   6.301   5.429   1.781 -0.0537  0.3412 -0.6972
  218MOL0     H29425   6.344   5.289   1.883 -1.2415  1.3994  2.1347
  218MOL0     H29426   6.158   5.241   1.972  0.9668  1.2784  1.4611
  218MOL0     H29427   6.064   5.290   1.837  0.5206 -2.3119  0.0965
  218MOL0     H29428   5.997   5.604   2.072 -0.0777 -0.4175  1.3597
  218MOL0     H29429   6.585   5.186   1.398 -0.0319 -1.1736  2.5162
  218MOL0     H29430   6.743   5.276   1.247 -1.2371  0.6513 -0.3245
  219MOL0     O29431   4.776   8.712  10.268  0.6215  1.2573  0.4410
  219MOL0     C29432   4.654   8.744  10.256 -0.2050  0.3442 -0.6420
  219MOL0     O29433   4.602   8.872  10.232 -0.7501  0.2659 -0.6879
  219MOL0     C29434   4.705   8.967  10.216  0.8162  0.1963 -0.0574
  219MOL0     C29435   4.749   9.053  10.322  0.2106 -0.2097 -0.3536
  219MOL0     C29436   4.857   9.137  10.304  1.0044  0.0476  0.6513
  219MOL0     C29437   4.917   9.146  10.178 -0.2982 -0.2331 -0.4716
  219MOL0     O29438   5.006   9.239  10.141  0.0748 -1.0329  0.0829
  219MOL0     C29439   5.035   9.357  10.225  0.5000 -0.4830 -0.6678
  219MOL0     C29440   5.114   9.467  10.153  1.0452  0.2782  0.3600
  219MOL0     C29441   5.210   9.538  10.253 -0.5793  0.2348  0.0150
  219MOL0     C29442   5.138   9.619  10.364  0.4751 -0.2390  0.5197
  219MOL0     C29443   5.068   9.748  10.314 -0.0770  0.6746 -0.0423
  219MOL0     C29444   5.161   9.864  10.282  0.9648  0.4717 -0.0036
  219MOL0     C29445   5.093   9.985  10.204 -0.1407  0.7251 -0.7519
  219MOL0     C29446   4.950  10.027  10.261  0.3852  0.0607  1.4539
  219MOL0     N29447   4.926  10.165  10.255  0.5374 -0.4546 -0.3628
  219MOL0     C29448   4.838  10.221  10.164  0.2510 -0.4880 -0.4304
  219MOL0     C29449   4.836  10.356  10.196  0.5083  0.8066 -0.0447
  219MOL0     C29450   4.775  10.474  10.131  1.3052 -0.4100  0.3988
  219MOL0     C29451   4.624  10.467  10.139  0.3262 -0.2224  0.1325
  219MOL0     C29452   4.556  10.590  10.068  0.3409  0.1382  0.6780
  219MOL0     C29453   4.400  10.593  10.099  0.9593  0.2056 -0.5982
  219MOL0     O29454   4.384  10.643  10.231 -0.3264  0.0089  0.0156
  219MOL0     C29455   4.251  10.685  10.251 -1.0749 -0.8031 -0.2623
  219MOL0     C29456   4.242  10.799  10.328  0.3688  0.0528 -0.3127
  219MOL0     C29457   4.119  10.865  10.353  0.3674  0.0596 -0.1783
  219MOL0     C29458   4.124  10.989  10.438  0.1058 -0.7382  0.2633
  219MOL0     C29459   4.006  10.815  10.287 -0.3115 -0.3749  0.2882
  219MOL0     C29460   3.866  10.872  10.303 -0.0444 -0.0490  0.4740
  219MOL0     O29461   3.845  10.954  10.403 -0.1826 -0.4435 -0.1982
  219MOL0     C29462   3.743  11.049  10.388 -0.6043 -0.0698  0.5880
  219MOL0     C29463   3.685  11.085  10.513 -0.8577  0.5366  0.6454
  219MOL0     C29464   3.592  11.187  10.521  0.7161  0.0541  0.6581
  219MOL0     C29465   3.552  11.255  10.405 -0.4354 -0.0592  0.1929
  219MOL0     O29466   3.460  11.349  10.431  0.4161  0.0384 -0.2379
  219MOL0     C29467   3.391  11.401  10.323  1.1805 -0.0651  0.6196
  219MOL0     C29468   3.289  11.511  10.362 -1.0495  0.0933 -0.5722
  219MOL0     C29469   3.198  11.551  10.242  0.1863 -0.4162 -0.6401
  219MOL0     C29470   3.094  11.653  10.302 -0.3431 -0.7380  0.5973
  219MOL0     C29471   2.971  11.635  10.217  0.3413 -0.5240 -0.6639
  219MOL0     C29472   2.873  11.752  10.253  0.9505 -0.1675  0.0976
  219MOL0     C29473   2.746  11.753  10.170  0.0428  0.2592 -0.3833
  219MOL0     C29474   2.658  11.633  10.192  0.3983 -1.1801 -0.1878
  219MOL0    Cl29475   2.490  11.688  10.135 -0.3415 -0.1001 -0.0177
  219MOL0     C29476   3.609  11.220  10.280  0.1323 -0.4331  0.7000
  219MOL0     C29477   3.698  11.114  10.262 -0.5452 -1.2348  0.0324
  219MOL0     O29478   3.778  10.818  10.240  0.5191  0.2239  0.1494
  219MOL0     C29479   4.015  10.693  10.220 -0.0697  0.2922  0.4790
  219MOL0     C29480   4.134  10.632  10.198  0.6249 -1.1141 -0.8479
  219MOL0     N29481   4.922  10.379  10.301  0.3148  0.8494 -0.1739
  219MOL0     N29482   4.973  10.265  10.334 -0.1816 -0.8232  0.5982
  219MOL0     C29483   4.875   9.064  10.075 -0.8134  1.0995  0.0287
  219MOL0     C29484   4.774   8.972  10.096  0.9059 -0.2293 -0.1307
  219MOL0     C29485   4.556   8.629  10.264 -0.4774  0.1604 -0.3024
  219MOL0     C29486   4.422   8.661  10.271  0.2863 -0.3197  0.4774
  219MOL0     C29487   4.332   8.556  10.267 -0.6151 -0.7003  0.3543
  219MOL0     C29488   4.368   8.425  10.275  0.2102  0.0892 -0.3478
  219MOL0     O29489   4.275   8.322  10.276  0.0384  0.5223  0.2573
  219MOL0     C29490   4.149   8.340  10.352 -0.5027  0.6704 -0.1878
  219MOL0     C29491   4.165   8.379  10.510 -0.1459  1.0857 -0.4669
  219MOL0     C29492   4.019   8.392  10.575  0.0751  0.0360 -0.3124
  219MOL0     C29493   4.011   8.375  10.726 -1.0374  1.0538  0.8711
  219MOL0     C29494   3.877   8.391  10.779  0.9092  0.5206  0.2615
  219MOL0     C29495   3.766   8.410  10.822 -0.6305 -0.3237 -0.8049
  219MOL0     C29496   4.504   8.392  10.268  0.0143 -0.1392  0.2659
  219MOL0     C29497   4.598   8.494  10.259 -0.8385 -0.7766 -0.0758
  219MOL0     H29498   4.713   9.051  10.424  2.0225 -0.0407  0.3204
  219MOL0     H29499   4.901   9.193  10.385 -0.5282  0.1264  1.4679
  219MOL0     H29500   4.939   9.392  10.264  1.7967 -0.7528  3.1454
  219MOL0     H29501   5.095   9.319  10.308  0.8335  5.1623  2.1675
  219MOL0     H29502   5.175   9.426  10.071  1.9060  1.2972  0.4673
  219MOL0     H29503   5.043   9.539  10.111  1.3475 -0.0932 -0.8346
  219MOL0     H29504   5.279   9.465  10.295 -0.3253  1.5289  1.9998
  219MOL0     H29505   5.257   9.615  10.191 -0.2998 -1.3327 -1.7829
  219MOL0     H29506   5.066   9.548  10.407  0.2891  0.1163  0.8088
  219MOL0     H29507   5.215   9.635  10.440  1.0736  0.8551 -0.2961
  219MOL0     H29508   5.010   9.713  10.228 -1.9005 -3.7990  2.6645
  219MOL0     H29509   4.990   9.779  10.385  0.6200  2.3052  0.0547
  219MOL0     H29510   5.194   9.905  10.378  2.5840 -1.8385  0.5260
  219MOL0     H29511   5.246   9.828  10.223  0.3766 -0.3030 -0.4087
  219MOL0     H29512   5.156  10.072  10.227 -0.4669  0.7108  0.2426
  219MOL0     H29513   5.096   9.962  10.097  1.5889 -0.4286 -0.4875
  219MOL0     H29514   4.956  10.008  10.368  1.9303  0.0386  1.3884
  219MOL0     H29515   4.871   9.970  10.212  2.1907 -0.9561 -0.4630
  219MOL0     H29516   4.785  10.181  10.078 -0.6101  0.2243 -0.2410
  219MOL0     H29517   4.805  10.573  10.168 -0.4001 -0.4165  1.9477
  219MOL0     H29518   4.811  10.473  10.028  0.6601 -2.2732  0.1593
  219MOL0     H29519   4.602  10.466  10.246 -0.0271 -2.1938  0.0729
  219MOL0     H29520   4.592  10.371  10.098 -1.2212  0.5556 -0.5628
  219MOL0     H29521   4.579  10.580   9.962 -0.5706 -1.4074  0.5921
  219MOL0     H29522   4.589  10.693  10.087 -0.1872  0.6588 -1.0478
  219MOL0     H29523   4.362  10.491  10.084  1.0859  0.1592 -0.6054
  219MOL0     H29524   4.351  10.659  10.027 -1.2005 -1.4636 -0.7870
  219MOL0     H29525   4.339  10.835  10.360 -0.8123  1.1049  2.3285
  219MOL0     H29526   4.060  10.989  10.527  3.6714 -0.2541  3.0834
  219MOL0     H29527   4.228  11.008  10.467  0.0867  0.2783 -0.2964
  219MOL0     H29528   4.106  11.076  10.375  5.6368 -0.0107 -0.7965
  219MOL0     H29529   3.718  11.045  10.608 -0.1343  0.8125  0.5180
  219MOL0     H29530   3.543  11.208  10.616 -2.9481 -3.5173 -0.1803
  219MOL0     H29531   3.457  11.448  10.249  0.1902  1.3135  0.5748
  219MOL0     H29532   3.342  11.325  10.260  2.5653 -0.3899 -0.1165
  219MOL0     H29533   3.222  11.482  10.444  1.0598 -1.9924  0.5162
  219MOL0     H29534   3.338  11.601  10.400  0.3331 -0.4359 -1.0493
  219MOL0     H29535   3.143  11.466  10.200 -0.9018  0.2875 -0.6868
  219MOL0     H29536   3.252  11.600  10.160 -0.7983  1.0220 -0.4758
  219MOL0     H29537   3.060  11.616  10.399 -3.2518 -0.1341 -0.0923
  219MOL0     H29538   3.141  11.750  10.318  0.8092 -1.1168 -0.3697
  219MOL0     H29539   2.930  11.533  10.214 -2.9693  0.6846 -2.4917
  219MOL0     H29540   2.996  11.651  10.112 -0.0576  0.3856 -0.6264
  219MOL0     H29541   2.849  11.737  10.359  1.6567  1.1299  0.4588
  219MOL0     H29542   2.921  11.850  10.249  1.7517 -0.3859  2.6498
  219MOL0     H29543   2.776  11.752  10.065  1.9220 -0.5959  0.1245
  219MOL0     H29544   2.688  11.845  10.185 -1.7318 -1.0231  1.0757
  219MOL0     H29545   2.659  11.606  10.298 -0.5344 -1.7280 -0.3111
  219MOL0     H29546   2.704  11.551  10.136  0.6593  0.5389 -2.6867
  219MOL0     H29547   3.578  11.271  10.190  0.9912 -1.2210 -0.0684
  219MOL0     H29548   3.745  11.101  10.165  2.3815 -2.4359  1.4970
  219MOL0     H29549   3.932  10.636  10.179  0.8574  0.0247 -1.0960
  219MOL0     H29550   4.141  10.546  10.133  1.2966  0.3271 -2.7768
  219MOL0     H29551   4.915   9.081   9.975 -0.6130 -0.1973 -0.1299
  219MOL0     H29552   4.738   8.900  10.023  1.9484  0.0644 -0.9626
  219MOL0     H29553   4.396   8.765  10.281 -0.5593 -0.4470 -0.2155
  219MOL0     H29554   4.229   8.589  10.260 -1.1339 -1.6911  2.5529
  219MOL0     H29555   4.098   8.418  10.294 -0.1730  0.9835 -0.0658
  219MOL0     H29556   4.096   8.245  10.344 -0.3270  0.5888 -0.4074
  219MOL0     H29557   4.234   8.464  10.514  1.5493 -0.2165 -0.3550
  219MOL0     H29558   4.209   8.288  10.553 -1.3579  0.2872 -0.8549
  219MOL0     H29559   3.959   8.312  10.529 -1.2493  1.5297 -1.2843
  219MOL0     H29560   3.967   8.485  10.551 -0.8455 -0.7385 -1.4187
  219MOL0     H29561   4.071   8.451  10.777 -1.9450  0.2521  3.2413
  219MOL0     H29562   4.066   8.282  10.743 -2.0672  0.0768 -0.8504
  219MOL0     H29563   3.669   8.428  10.865 -0.7092  1.1672 -1.5280
  219MOL0     H29564   4.543   8.292  10.283  1.1227  0.3642  0.8876
  219MOL0     H29565   4.700   8.455  10.264 -1.1720 -1.7756 -0.7759
  220MOL0     O29566   0.520   4.482   9.414 -0.1133 -0.7696 -0.2301
  220MOL0     C29567   0.522   4.379   9.346 -0.0112  0.1482 -0.0823
  220MOL0     O29568   0.409   4.325   9.278 -0.5205  0.0573 -0.2907
  220MOL0     C29569   0.273   4.361   9.301  0.1737  0.4500  0.2702
  220MOL0     C29570   0.223   4.469   9.369  0.1073  0.6397  0.0686
  220MOL0     C29571   0.089   4.508   9.370 -0.1093  0.5965 -0.1694
  220MOL0     C29572  -0.001   4.420   9.319  1.3230 -0.4054 -0.0451
  220MOL0     O29573  -0.132   4.462   9.332  0.0351 -0.2898  0.1817
  220MOL0     C29574  -0.208   4.362   9.403  0.5020  0.8603  0.4275
  220MOL0     C29575  -0.343   4.418   9.436  0.5501 -0.3837 -1.3887
  220MOL0     C29576  -0.433   4.313   9.494  0.8062  0.7105  0.3484
  220MOL0     C29577  -0.547   4.386   9.567 -0.1109 -0.5140 -0.5337
  220MOL0     C29578  -0.668   4.303   9.610 -0.5333  0.0896 -0.4300
  220MOL0     C29579  -0.791   4.394   9.651  1.1016  0.1975 -0.1357
  220MOL0     C29580  -0.892   4.324   9.739 -0.8199 -1.0482 -0.2010
  220MOL0     C29581  -0.949   4.205   9.672  0.5651  0.7985  0.7167
  220MOL0     N29582  -1.031   4.229   9.552  0.1197  0.3100  0.2517
  220MOL0     C29583  -1.141   4.311   9.543  0.0078 -0.1345 -0.2720
  220MOL0     C29584  -1.206   4.261   9.433  0.3543  0.2865 -0.3171
  220MOL0     C29585  -1.322   4.331   9.377 -0.3382  0.5027 -0.1325
  220MOL0     C29586  -1.262   4.404   9.253 -0.0527 -0.1240 -0.6344
  220MOL0     C29587  -1.350   4.520   9.218  0.1277  0.6672 -0.1235
  220MOL0     C29588  -1.338   4.551   9.066  0.3183  0.3407  0.0130
  220MOL0     O29589  -1.429   4.656   9.033 -0.0368  0.2087 -0.5162
  220MOL0     C29590  -1.543   4.597   8.979  0.1269 -0.3792 -0.3310
  220MOL0     C29591  -1.609   4.481   9.023  0.0907 -0.1828 -0.3110
  220MOL0     C29592  -1.739   4.457   8.971 -0.5828  0.0592 -0.3882
  220MOL0     C29593  -1.780   4.316   8.998 -1.1503  0.7242 -0.2391
  220MOL0     C29594  -1.819   4.539   8.892 -1.1956 -0.0242  0.0788
  220MOL0     C29595  -1.956   4.518   8.853  0.9058  0.3627  0.7960
  220MOL0     O29596  -2.035   4.452   8.942  0.3707 -0.3447 -0.8365
  220MOL0     C29597  -2.163   4.421   8.916 -0.1833 -0.5317 -0.2132
  220MOL0     C29598  -2.210   4.295   8.941  0.3059  0.0995 -0.6247
  220MOL0     C29599  -2.347   4.261   8.918 -0.2888 -0.1274 -0.1947
  220MOL0     C29600  -2.434   4.355   8.875  0.9788 -0.1894  0.2193
  220MOL0     O29601  -2.566   4.328   8.866 -0.3929  0.0378 -0.1435
  220MOL0     C29602  -2.614   4.347   8.734 -0.6139 -0.1935  0.1944
  220MOL0     C29603  -2.742   4.268   8.729  0.2220  0.6731 -0.4577
  220MOL0     C29604  -2.820   4.316   8.603  0.8195 -0.7459  0.0261
  220MOL0     C29605  -2.924   4.211   8.562 -0.0081 -0.6758  0.1581
  220MOL0     C29606  -3.022   4.261   8.453 -0.8973  0.4369  0.3267
  220MOL0     C29607  -3.107   4.143   8.385 -0.1680  0.0089  0.4262
  220MOL0     C29608  -3.036   4.055   8.281  0.3614  0.8179  0.0875
  220MOL0     C29609  -3.044   4.102   8.139 -0.0936 -1.2107  0.4704
  220MOL0    Cl29610  -3.209   4.088   8.069  0.0707  0.0087  0.6271
  220MOL0     C29611  -2.390   4.478   8.858  0.4129 -1.3932 -0.8042
  220MOL0     C29612  -2.257   4.514   8.872 -0.7298  0.0058  0.0266
  220MOL0     O29613  -1.996   4.575   8.746  0.4383  0.4934  0.5408
  220MOL0     C29614  -1.741   4.648   8.836 -0.1920  0.1120 -0.6523
  220MOL0     C29615  -1.613   4.683   8.882  0.1390  0.3571 -0.2144
  220MOL0     N29616  -1.131   4.149   9.385  0.3760 -0.6410 -0.5966
  220MOL0     N29617  -1.029   4.135   9.459  0.7323 -0.0969 -0.4274
  220MOL0     C29618   0.047   4.298   9.264  0.6176 -0.0674  0.3973
  220MOL0     C29619   0.184   4.276   9.248  0.7091 -0.3259  0.1570
  220MOL0     C29620   0.652   4.312   9.335  0.0568 -0.3931  1.2704
  220MOL0     C29621   0.768   4.366   9.389  0.3371  0.4908 -0.4107
  220MOL0     C29622   0.889   4.299   9.355 -0.1443 -0.1681  0.5541
  220MOL0     C29623   0.896   4.184   9.269 -0.9230 -0.4622 -0.5268
  220MOL0     O29624   1.007   4.116   9.245  0.2241 -0.0063 -0.7401
  220MOL0     C29625   1.104   4.094   9.350  0.6118  0.0423 -0.3139
  220MOL0     C29626   1.040   4.026   9.477 -0.1925  0.3447  0.5597
  220MOL0     C29627   1.014   3.876   9.462  0.1753 -0.1134 -0.0099
  220MOL0     C29628   1.141   3.783   9.466 -0.6473  0.0890  0.3684
  220MOL0     C29629   1.175   3.760   9.608  0.5275 -0.1254 -0.2509
  220MOL0     C29630   1.214   3.762   9.724 -0.5010  0.0061 -0.6402
  220MOL0     C29631   0.785   4.141   9.207 -0.5706 -0.4656 -0.0462
  220MOL0     C29632   0.665   4.195   9.247  0.3168 -0.8337  0.7074
  220MOL0     H29633   0.288   4.540   9.419 -0.4465  0.7198  0.6830
  220MOL0     H29634   0.064   4.601   9.419 -1.4479  0.3341 -0.3119
  220MOL0     H29635  -0.218   4.273   9.341  0.6906  0.7277  0.5882
  220MOL0     H29636  -0.165   4.348   9.502 -2.4230  0.3171  1.7448
  220MOL0     H29637  -0.333   4.506   9.501  0.9158 -0.1141 -1.7950
  220MOL0     H29638  -0.382   4.477   9.352 -0.7575  3.2960  1.5027
  220MOL0     H29639  -0.467   4.230   9.431  0.8731 -1.8196  3.4241
  220MOL0     H29640  -0.377   4.252   9.565  0.8525 -2.6014 -2.2934
  220MOL0     H29641  -0.501   4.444   9.647  1.1005 -0.3764 -1.3057
  220MOL0     H29642  -0.605   4.462   9.513 -0.5774  0.9190  1.8171
  220MOL0     H29643  -0.703   4.233   9.533 -3.6650  0.6279  0.3710
  220MOL0     H29644  -0.636   4.232   9.687 -0.1146 -1.4730 -1.9811
  220MOL0     H29645  -0.758   4.483   9.705  1.1449 -0.4709  0.9632
  220MOL0     H29646  -0.834   4.436   9.559  0.7793 -3.1540 -1.6504
  220MOL0     H29647  -0.841   4.289   9.829  0.9693  0.4543 -0.5534
  220MOL0     H29648  -0.976   4.390   9.763 -1.3988 -2.2293  1.1349
  220MOL0     H29649  -1.014   4.149   9.740 -0.1229 -0.9752 -1.3035
  220MOL0     H29650  -0.879   4.127   9.639 -2.3899 -1.4231 -0.8346
  220MOL0     H29651  -1.163   4.402   9.599  2.4520  2.1858 -2.7780
  220MOL0     H29652  -1.404   4.262   9.354 -0.5052  0.1173  1.4493
  220MOL0     H29653  -1.361   4.400   9.452 -0.5178 -0.4199  0.6549
  220MOL0     H29654  -1.264   4.329   9.173  1.8641  1.1883 -2.0149
  220MOL0     H29655  -1.161   4.442   9.272  0.1314  2.3106 -5.1399
  220MOL0     H29656  -1.315   4.606   9.275  0.8368  0.4058 -0.1575
  220MOL0     H29657  -1.453   4.494   9.244  0.2118  1.5275  1.1965
  220MOL0     H29658  -1.352   4.465   9.000  2.2083  0.6281 -0.8058
  220MOL0     H29659  -1.242   4.601   9.052 -0.0219  1.4068  1.3349
  220MOL0     H29660  -1.550   4.409   9.079  0.5366 -0.4169 -1.0593
  220MOL0     H29661  -1.867   4.279   8.944 -1.4581 -1.0816  1.3898
  220MOL0     H29662  -1.699   4.248   8.967 -0.2320  2.5441 -2.1443
  220MOL0     H29663  -1.806   4.301   9.103  4.6768 -4.7561  1.0227
  220MOL0     H29664  -2.152   4.214   8.983 -2.2422 -0.5040  2.0864
  220MOL0     H29665  -2.387   4.161   8.934 -1.3037  0.1283 -1.0445
  220MOL0     H29666  -2.632   4.455   8.730  0.5240  0.0291  0.6683
  220MOL0     H29667  -2.548   4.318   8.652 -2.7798  1.4158 -2.3192
  220MOL0     H29668  -2.712   4.163   8.719  3.2915  1.4558 -0.3904
  220MOL0     H29669  -2.801   4.274   8.820  3.7564 -0.7986  2.1899
  220MOL0     H29670  -2.748   4.315   8.521 -1.4279 -2.3825 -2.0528
  220MOL0     H29671  -2.872   4.412   8.607 -0.5875 -1.5070  1.4152
  220MOL0     H29672  -2.874   4.119   8.531  0.2758 -0.5395  0.2141
  220MOL0     H29673  -2.994   4.189   8.644 -2.3748 -1.4415 -1.9243
  220MOL0     H29674  -2.977   4.319   8.372  1.7661  0.8168  1.9635
  220MOL0     H29675  -3.106   4.317   8.495 -5.0593 -6.1015  2.3498
  220MOL0     H29676  -3.149   4.082   8.465 -1.8057  2.7253  1.7672
  220MOL0     H29677  -3.191   4.186   8.328 -0.8726 -3.1786 -1.1885
  220MOL0     H29678  -3.086   3.958   8.286  1.5354  0.1808 -0.3226
  220MOL0     H29679  -2.936   4.041   8.324 -0.0987 -2.6536  0.3132
  220MOL0     H29680  -2.971   4.049   8.077  1.4487 -1.1902  2.1741
  220MOL0     H29681  -3.008   4.204   8.121  1.0223 -1.7055 -0.2376
  220MOL0     H29682  -2.456   4.560   8.831  1.5359 -0.3799 -0.5636
  220MOL0     H29683  -2.222   4.615   8.854 -1.3456  0.5333  1.5912
  220MOL0     H29684  -1.779   4.712   8.756  0.9551 -1.4688 -2.5569
  220MOL0     H29685  -1.553   4.768   8.852 -0.5014  0.8315 -0.1829
  220MOL0     H29686  -0.023   4.221   9.232  1.3764 -0.1337 -1.1914
  220MOL0     H29687   0.215   4.182   9.202 -3.7340 -2.1408  0.3301
  220MOL0     H29688   0.759   4.455   9.450  3.0792  1.3504 -1.1085
  220MOL0     H29689   0.974   4.332   9.413  0.4790  0.2398 -0.5626
  220MOL0     H29690   1.190   4.041   9.308  1.2120 -0.3111  1.2997
  220MOL0     H29691   1.133   4.195   9.381  1.6923 -0.3095 -0.1431
  220MOL0     H29692   0.956   4.082   9.518  1.9322  4.3662  0.0190
  220MOL0     H29693   1.111   4.044   9.558  2.6141  2.1222 -2.0609
  220MOL0     H29694   0.957   3.866   9.369 -1.7441 -2.0385  1.3019
  220MOL0     H29695   0.946   3.862   9.546 -0.5083  0.6522 -0.4199
  220MOL0     H29696   1.232   3.831   9.428 -1.7213  2.5665  0.7092
  220MOL0     H29697   1.134   3.686   9.416  1.8764  0.2258 -0.4170
  220MOL0     H29698   1.244   3.766   9.827 -2.0221 -2.5320 -0.0011
  220MOL0     H29699   0.797   4.057   9.139  1.1659  0.3456 -0.8199
  220MOL0     H29700   0.575   4.158   9.197  1.2156 -1.1262 -0.7422
  221MOL0     O29701   0.940   3.242   8.092  0.0931 -0.1537  0.3973
  221MOL0     C29702   0.859   3.191   8.018  0.0047 -0.3559 -0.2841
  221MOL0     O29703   0.842   3.061   7.987 -0.1327  0.1069 -0.4381
  221MOL0     C29704   0.942   2.969   8.015 -0.4120  0.7784 -0.1861
  221MOL0     C29705   1.010   2.912   7.908  0.3009  0.7469  0.4928
  221MOL0     C29706   1.107   2.820   7.927  0.5050 -0.3972 -0.4045
  221MOL0     C29707   1.159   2.797   8.048  0.4528 -0.4774  0.6589
  221MOL0     O29708   1.261   2.710   8.068 -0.0573 -0.2487  0.5880
  221MOL0     C29709   1.212   2.578   8.102  0.3513  0.6720  0.5122
  221MOL0     C29710   1.243   2.487   7.992 -0.0034 -0.1234  0.2460
  221MOL0     C29711   1.394   2.474   7.950  0.5761  0.1831  0.2641
  221MOL0     C29712   1.478   2.389   8.054  0.1386 -0.4415  1.0145
  221MOL0     C29713   1.587   2.305   7.998 -0.5713  0.2954 -0.0059
  221MOL0     C29714   1.668   2.226   8.104  0.0227  0.8905  0.0310
  221MOL0     C29715   1.758   2.125   8.036 -0.0215 -0.9568 -0.2828
  221MOL0     C29716   1.893   2.181   8.005 -0.9038 -0.2285  0.1434
  221MOL0     N29717   1.984   2.104   7.920 -0.2510 -0.7958  0.4007
  221MOL0     C29718   2.004   1.972   7.936 -0.5138 -0.0728 -0.8031
  221MOL0     C29719   2.075   1.939   7.830 -0.0702  0.1797 -0.2979
  221MOL0     C29720   2.122   1.798   7.797  0.3813 -1.0480  0.9960
  221MOL0     C29721   2.018   1.704   7.730 -1.0041 -0.0959  0.0934
  221MOL0     C29722   1.911   1.651   7.828  0.1468 -0.6109  0.5464
  221MOL0     C29723   1.802   1.566   7.751  0.2973  0.1588  0.2388
  221MOL0     O29724   1.704   1.630   7.663  0.5039  0.4469  0.3440
  221MOL0     C29725   1.570   1.594   7.675  0.5785 -0.9390 -0.3656
  221MOL0     C29726   1.475   1.695   7.645  0.7277 -0.1980  0.4694
  221MOL0     C29727   1.335   1.679   7.646  0.2491  0.6265  0.3512
  221MOL0     C29728   1.259   1.805   7.618  0.2702  0.2699 -0.8651
  221MOL0     C29729   1.288   1.553   7.677  0.0335  0.4789  0.2268
  221MOL0     C29730   1.153   1.515   7.679  0.5888 -0.4632 -0.5988
  221MOL0     O29731   1.068   1.614   7.657 -0.4459 -0.8793 -0.0407
  221MOL0     C29732   0.937   1.575   7.645 -0.6954  0.1192  0.5072
  221MOL0     C29733   0.839   1.628   7.734  1.0720 -0.3418  0.2295
  221MOL0     C29734   0.708   1.586   7.736 -0.2970 -0.0082 -1.3414
  221MOL0     C29735   0.665   1.489   7.636 -0.0895  0.8788 -0.2069
  221MOL0     O29736   0.526   1.468   7.631  0.6929 -0.5168  0.0754
  221MOL0     C29737   0.472   1.369   7.540  1.2888  0.2082 -0.5192
  221MOL0     C29738   0.321   1.350   7.583 -0.4341 -0.2769  0.0233
  221MOL0     C29739   0.308   1.241   7.691 -0.2305 -0.2818 -0.4502
  221MOL0     C29740   0.161   1.197   7.710 -0.0313 -0.1732  0.5062
  221MOL0     C29741   0.154   1.063   7.789  0.1831  0.3458  0.5931
  221MOL0     C29742   0.011   1.011   7.831  0.5604 -1.1745 -0.8027
  221MOL0     C29743   0.025   0.882   7.915  1.0353 -0.2626  0.1420
  221MOL0     C29744  -0.102   0.805   7.917  0.8917 -0.7982  0.3626
  221MOL0    Cl29745  -0.092   0.707   8.065  0.4057 -0.0474 -0.3153
  221MOL0     C29746   0.756   1.441   7.552 -0.8636 -0.2602  0.2616
  221MOL0     C29747   0.891   1.474   7.552 -0.2848 -0.8415  0.3352
  221MOL0     O29748   1.119   1.398   7.720  0.1769 -0.6354  0.1251
  221MOL0     C29749   1.383   1.451   7.714 -0.0451  0.5033 -0.0638
  221MOL0     C29750   1.523   1.475   7.717 -0.6117 -0.2066  0.5164
  221MOL0     N29751   2.112   2.058   7.770  0.0081  0.2811 -0.7705
  221MOL0     N29752   2.057   2.159   7.819 -0.1678  0.2651  0.2713
  221MOL0     C29753   1.098   2.847   8.161  0.3375 -0.0869  0.6945
  221MOL0     C29754   0.987   2.934   8.147 -0.3471  0.2023 -0.3733
  221MOL0     C29755   0.751   3.288   7.988  0.4555  0.2991  0.7950
  221MOL0     C29756   0.618   3.240   7.984  0.3972 -0.1475 -0.0354
  221MOL0     C29757   0.521   3.325   7.954 -0.0344  0.9464  0.1332
  221MOL0     C29758   0.548   3.462   7.947  0.4061  0.5003 -0.0498
  221MOL0     O29759   0.440   3.544   7.934 -0.4016  0.2817 -0.2619
  221MOL0     C29760   0.451   3.685   7.919 -0.2404  0.0454 -0.1630
  221MOL0     C29761   0.321   3.757   7.957 -1.1139  0.0171  0.4801
  221MOL0     C29762   0.217   3.752   7.848  0.2468  0.3671  0.4472
  221MOL0     C29763   0.078   3.766   7.920 -0.7964 -0.5660  0.5372
  221MOL0     C29764  -0.026   3.773   7.824 -0.0734 -0.1827  0.4959
  221MOL0     C29765  -0.097   3.805   7.727 -0.2989  0.1492  0.0883
  221MOL0     C29766   0.679   3.514   7.969  0.2919 -0.1365  0.0068
  221MOL0     C29767   0.786   3.428   7.991 -0.4570 -0.2154  0.7811
  221MOL0     H29768   0.966   2.929   7.810 -0.0700  3.0281  1.0007
  221MOL0     H29769   1.161   2.774   7.845 -0.5058  0.0692 -1.3551
  221MOL0     H29770   1.269   2.540   8.187 -0.4951 -1.9145  0.0172
  221MOL0     H29771   1.105   2.569   8.122  0.4777 -1.3763  0.5197
  221MOL0     H29772   1.216   2.386   8.026 -2.0066  1.5304  4.2090
  221MOL0     H29773   1.186   2.511   7.902 -1.6326 -1.3507  0.8886
  221MOL0     H29774   1.403   2.421   7.855  0.4099  0.0217  0.3399
  221MOL0     H29775   1.432   2.576   7.935 -1.2882  0.9133  0.2951
  221MOL0     H29776   1.516   2.465   8.124 -0.1745 -0.7905  1.5722
  221MOL0     H29777   1.410   2.325   8.111 -3.1180 -0.2779 -2.3285
  221MOL0     H29778   1.542   2.241   7.922 -1.0722  2.4237 -1.6107
  221MOL0     H29779   1.659   2.362   7.938 -1.1146  1.8681  0.7937
  221MOL0     H29780   1.731   2.294   8.162 -0.5403  0.5643  1.0384
  221MOL0     H29781   1.598   2.173   8.169  2.3126  1.1243  2.8948
  221MOL0     H29782   1.778   2.047   8.110 -0.7050  0.1469  1.1166
  221MOL0     H29783   1.712   2.083   7.947  0.2778 -2.0438  0.0576
  221MOL0     H29784   1.942   2.180   8.103  1.4924 -1.0722 -0.9853
  221MOL0     H29785   1.880   2.283   7.968 -0.2353  0.4270  1.6031
  221MOL0     H29786   1.945   1.905   7.997 -2.0838  2.2927  0.4428
  221MOL0     H29787   2.204   1.808   7.726  1.9612  1.4499  3.0037
  221MOL0     H29788   2.161   1.751   7.888 -2.9237 -2.4566  1.8414
  221MOL0     H29789   2.073   1.623   7.681 -0.0961 -0.0448  1.0035
  221MOL0     H29790   1.976   1.760   7.646  2.1445  0.2954 -1.3447
  221MOL0     H29791   1.852   1.729   7.879 -1.0420 -2.6205  2.4302
  221MOL0     H29792   1.958   1.591   7.906  0.8660 -0.6972  0.0531
  221MOL0     H29793   1.754   1.509   7.831 -0.4576 -2.3579 -1.8612
  221MOL0     H29794   1.867   1.502   7.689  2.8309  2.7885 -0.0386
  221MOL0     H29795   1.510   1.792   7.610 -1.5635 -0.0625 -1.6951
  221MOL0     H29796   1.316   1.889   7.577 -0.8759  2.8812  2.3991
  221MOL0     H29797   1.167   1.799   7.560 -2.0846 -0.1534  2.6305
  221MOL0     H29798   1.223   1.843   7.714 -0.2042  1.0692 -1.3530
  221MOL0     H29799   0.867   1.693   7.816  1.0843 -0.4215  0.2891
  221MOL0     H29800   0.648   1.626   7.817  0.7671  1.0856 -1.0665
  221MOL0     H29801   0.469   1.408   7.438  1.8656  2.1436  0.1546
  221MOL0     H29802   0.520   1.271   7.544 -1.0179 -1.0110 -1.0031
  221MOL0     H29803   0.277   1.449   7.600  1.0643  1.5697 -5.0415
  221MOL0     H29804   0.264   1.319   7.495 -0.2635 -1.5387  0.3296
  221MOL0     H29805   0.336   1.293   7.784  0.9709 -1.3659 -0.1803
  221MOL0     H29806   0.373   1.154   7.680 -1.4080 -1.2113 -0.2086
  221MOL0     H29807   0.107   1.270   7.770  1.3963  0.3413  1.1942
  221MOL0     H29808   0.101   1.193   7.618 -1.1896 -1.2217  1.2675
  221MOL0     H29809   0.218   1.074   7.877  0.6534  2.7266  0.0111
  221MOL0     H29810   0.195   0.978   7.734 -5.7556 -2.9877  0.5047
  221MOL0     H29811  -0.035   1.089   7.892  1.6096  2.2437 -3.9999
  221MOL0     H29812  -0.049   1.012   7.739  0.2377  0.2299 -0.5980
  221MOL0     H29813   0.043   0.913   8.019  0.6009  0.8485 -0.1036
  221MOL0     H29814   0.118   0.833   7.886  2.5051  0.9889  2.4459
  221MOL0     H29815  -0.107   0.727   7.841  2.3472 -0.8889  0.3331
  221MOL0     H29816  -0.192   0.866   7.917  1.3899  0.1467  3.5341
  221MOL0     H29817   0.727   1.373   7.472 -1.1062  1.2347 -0.9674
  221MOL0     H29818   0.958   1.426   7.481  0.1430  0.8706 -0.4669
  221MOL0     H29819   1.352   1.349   7.733 -1.1521  0.0485 -3.5691
  221MOL0     H29820   1.601   1.401   7.733  1.4435  1.0031 -2.9156
  221MOL0     H29821   1.130   2.818   8.260  1.4645 -0.2372  0.3061
  221MOL0     H29822   0.934   2.969   8.234  1.0462  0.5316  0.3741
  221MOL0     H29823   0.599   3.133   7.985  1.8123 -0.4254 -0.5505
  221MOL0     H29824   0.417   3.294   7.958  0.7060 -2.1486 -1.6170
  221MOL0     H29825   0.524   3.717   7.994  0.1724  1.6054 -1.1736
  221MOL0     H29826   0.489   3.709   7.819 -0.7933  0.6534 -0.2290
  221MOL0     H29827   0.337   3.864   7.975 -0.5563 -0.4981  3.7029
  221MOL0     H29828   0.277   3.731   8.054 -1.5733  3.7436  1.4436
  221MOL0     H29829   0.208   3.657   7.795 -1.1517  1.1782 -0.8488
  221MOL0     H29830   0.234   3.833   7.776  3.7651  1.3824  2.1864
  221MOL0     H29831   0.075   3.858   7.980  2.4283 -1.5880  2.5258
  221MOL0     H29832   0.070   3.674   7.978  0.6189 -0.0307  1.6681
  221MOL0     H29833  -0.162   3.804   7.642 -1.2393 -2.2000  0.7299
  221MOL0     H29834   0.700   3.619   7.985 -0.0105  0.1973 -1.5878
  221MOL0     H29835   0.886   3.470   7.998 -0.0444 -0.7639 -1.3309
  222MOL0     O29836   9.818   6.075   8.597  0.0490 -0.5328  0.2369
  222MOL0     C29837   9.780   6.049   8.710 -0.3141 -0.3400  0.5785
  222MOL0     O29838   9.829   5.952   8.786  0.2691 -0.2072 -0.3797
  222MOL0     C29839   9.920   5.876   8.734 -1.3068  0.1149  0.4100
  222MOL0     C29840   9.889   5.768   8.650 -0.5354  0.4335  0.2048
  222MOL0     C29841   9.975   5.663   8.624 -0.5868 -0.0302  0.0634
  222MOL0     C29842  10.100   5.664   8.677  0.1879  0.7472 -0.1952
  222MOL0     O29843  10.166   5.547   8.658 -0.1669  0.6164  0.3515
  222MOL0     C29844  10.299   5.532   8.712  0.0195 -0.1698 -0.0977
  222MOL0     C29845  10.337   5.378   8.712 -1.0486  0.6228  0.4721
  222MOL0     C29846  10.297   5.311   8.581 -0.0170  0.0788  0.0372
  222MOL0     C29847  10.401   5.350   8.467  0.0299 -0.1651 -0.8573
  222MOL0     C29848  10.355   5.300   8.330  0.6518 -0.1585 -0.1024
  222MOL0     C29849  10.221   5.350   8.274  0.4027 -0.5351  0.4757
  222MOL0     C29850  10.213   5.321   8.131 -0.2586  0.4479  0.1581
  222MOL0     C29851  10.077   5.357   8.057  0.5831  0.3585 -0.8476
  222MOL0     N29852   9.973   5.253   8.087 -0.6352 -0.2972 -0.3546
  222MOL0     C29853   9.975   5.118   8.066 -0.5680 -0.0709 -0.4121
  222MOL0     C29854   9.854   5.066   8.100 -0.5516 -0.6701  0.6464
  222MOL0     C29855   9.813   4.924   8.097  0.1948  0.1342  0.5756
  222MOL0     C29856   9.844   4.846   8.219 -0.0131 -0.2388  0.2910
  222MOL0     C29857   9.807   4.701   8.187  0.5463 -0.1032 -0.0376
  222MOL0     C29858   9.795   4.626   8.315  0.8606 -0.1892 -0.7955
  222MOL0     O29859   9.905   4.531   8.310  0.2843 -0.2783 -0.8941
  222MOL0     C29860   9.912   4.439   8.414 -0.1381 -0.8947 -0.0691
  222MOL0     C29861  10.031   4.367   8.409 -0.5567  0.3363 -0.9893
  222MOL0     C29862  10.050   4.256   8.496  0.5818  0.2606  0.1725
  222MOL0     C29863  10.169   4.164   8.476  0.4935  0.0519 -1.1204
  222MOL0     C29864   9.953   4.229   8.594  0.0796 -0.6387 -0.8297
  222MOL0     C29865   9.944   4.109   8.685  0.5043 -0.6498 -0.4400
  222MOL0     O29866   9.860   4.118   8.790 -0.6266 -0.1532  0.1747
  222MOL0     C29867   9.889   4.047   8.903  0.4014  0.6114  0.6105
  222MOL0     C29868   9.987   4.080   8.991  0.3293  0.0786  0.0747
  222MOL0     C29869  10.010   4.007   9.103 -0.0646 -0.1732 -0.7210
  222MOL0     C29870   9.933   3.899   9.135  0.5044  0.6506 -0.0600
  222MOL0     O29871   9.961   3.811   9.227  0.4276  0.3053 -0.1815
  222MOL0     C29872  10.096   3.796   9.274  0.5041 -0.5063 -0.9115
  222MOL0     C29873  10.105   3.701   9.392  0.3496  0.9053  0.0389
  222MOL0     C29874  10.054   3.552   9.368 -0.8249 -0.9832 -0.3675
  222MOL0     C29875  10.124   3.483   9.245  0.8298 -0.5759 -0.8590
  222MOL0     C29876  10.271   3.454   9.262  0.0070  0.3209  0.1324
  222MOL0     C29877  10.360   3.561   9.212  0.1975 -0.5651  0.0050
  222MOL0     C29878  10.506   3.504   9.197 -0.2411 -0.2049 -0.0248
  222MOL0     C29879  10.594   3.573   9.289  0.2615 -0.4374 -0.0758
  222MOL0    Cl29880  10.764   3.529   9.260 -0.4094 -0.3663  0.1287
  222MOL0     C29881   9.821   3.877   9.062 -1.1037 -0.7169  0.6834
  222MOL0     C29882   9.799   3.952   8.940  0.1569 -0.4459 -0.5474
  222MOL0     O29883  10.017   4.017   8.664  0.1384 -0.1638 -0.8708
  222MOL0     C29884   9.846   4.314   8.608 -0.0660 -0.0990 -0.9735
  222MOL0     C29885   9.824   4.416   8.517  0.7805 -0.4017  0.9512
  222MOL0     N29886   9.787   5.172   8.161 -1.0883  1.0185  0.2771
  222MOL0     N29887   9.853   5.278   8.143 -0.4566 -0.4668  0.4428
  222MOL0     C29888  10.144   5.776   8.755 -0.1021 -0.7494 -0.2847
  222MOL0     C29889  10.045   5.881   8.788 -0.6453  0.4618 -0.1197
  222MOL0     C29890   9.674   6.131   8.766 -0.0384 -0.3390 -0.0373
  222MOL0     C29891   9.616   6.116   8.894 -0.2858  0.0435  0.7581
  222MOL0     C29892   9.511   6.195   8.936  0.1374 -0.0110 -0.5174
  222MOL0     C29893   9.450   6.288   8.853 -0.5946 -1.0577  0.3253
  222MOL0     O29894   9.340   6.367   8.879 -0.0031  0.3708  0.1346
  222MOL0     C29895   9.273   6.355   9.000 -0.4690  0.5371 -0.2532
  222MOL0     C29896   9.184   6.232   9.019 -0.3920  0.4305 -0.9087
  222MOL0     C29897   9.077   6.231   8.908 -0.1675  0.5400  0.4072
  222MOL0     C29898   8.991   6.110   8.924  0.6931  0.3924  0.8934
  222MOL0     C29899   8.893   6.096   8.816 -0.6624  0.2703 -0.3409
  222MOL0     C29900   8.828   6.077   8.718 -0.7385 -0.0205  0.0483
  222MOL0     C29901   9.511   6.316   8.727  1.1338 -0.5854  0.1587
  222MOL0     C29902   9.619   6.235   8.690  0.5396 -0.0963 -0.9394
  222MOL0     H29903   9.783   5.757   8.633 -0.4318 -0.1643 -0.1260
  222MOL0     H29904   9.948   5.575   8.566  0.3924 -1.0000  1.0247
  222MOL0     H29905  10.366   5.602   8.660  1.1568  0.7769  2.4271
  222MOL0     H29906  10.310   5.566   8.816  1.6338 -0.8774  0.0034
  222MOL0     H29907  10.439   5.342   8.727 -1.5317 -0.5050  1.1589
  222MOL0     H29908  10.281   5.340   8.799 -2.7444  1.9114  0.0148
  222MOL0     H29909  10.294   5.201   8.588 -2.2321  0.1715  1.2729
  222MOL0     H29910  10.198   5.346   8.552  1.9913  2.9279 -4.5929
  222MOL0     H29911  10.418   5.458   8.479  1.7863 -0.4719 -0.2873
  222MOL0     H29912  10.496   5.307   8.497  0.9223  2.8151  1.0429
  222MOL0     H29913  10.434   5.320   8.257  0.9989 -0.0903  0.2853
  222MOL0     H29914  10.346   5.191   8.325  2.8145 -0.3646 -0.5897
  222MOL0     H29915  10.144   5.287   8.319 -1.5198  0.4025 -1.3398
  222MOL0     H29916  10.212   5.457   8.298  3.3863  0.1015 -0.8235
  222MOL0     H29917  10.296   5.377   8.088 -0.7836  0.4857 -0.8373
  222MOL0     H29918  10.240   5.217   8.110  0.7909  0.9597 -1.2222
  222MOL0     H29919  10.088   5.382   7.951  0.2494  0.0175 -0.9648
  222MOL0     H29920  10.034   5.452   8.092 -2.6158  0.2043 -3.8597
  222MOL0     H29921  10.065   5.067   8.033  0.3334  0.7203  0.7577
  222MOL0     H29922   9.705   4.922   8.081  0.2976 -1.6353 -0.0721
  222MOL0     H29923   9.866   4.881   8.012  2.0858 -2.8831  3.0649
  222MOL0     H29924   9.787   4.885   8.304 -1.6811 -0.3132 -0.7548
  222MOL0     H29925   9.952   4.856   8.229 -0.1017  1.9474 -0.4667
  222MOL0     H29926   9.879   4.658   8.116  0.9804 -0.0086  0.3472
  222MOL0     H29927   9.711   4.704   8.134  0.8379  1.7382 -0.5154
  222MOL0     H29928   9.697   4.578   8.325  0.1917  1.0281 -1.3834
  222MOL0     H29929   9.806   4.699   8.395  2.8165  2.4177 -3.2548
  222MOL0     H29930  10.098   4.381   8.325 -0.1545  1.2479 -0.5314
  222MOL0     H29931  10.252   4.228   8.443  2.0621 -1.8593 -1.0610
  222MOL0     H29932  10.205   4.118   8.568 -1.0655 -0.9279 -0.9668
  222MOL0     H29933  10.131   4.086   8.409 -0.5146 -2.2310  1.8682
  222MOL0     H29934  10.049   4.161   8.955 -1.8940  1.2412 -1.2967
  222MOL0     H29935  10.101   4.031   9.158  0.3136 -1.4043 -0.7720
  222MOL0     H29936  10.166   3.767   9.195  0.7577  0.6796 -1.1431
  222MOL0     H29937  10.116   3.893   9.321 -0.7350 -0.4837 -0.3897
  222MOL0     H29938  10.209   3.691   9.422  0.8353  1.2901 -1.4309
  222MOL0     H29939  10.050   3.747   9.474  1.9833 -3.0459  3.7217
  222MOL0     H29940   9.946   3.562   9.353 -0.6077  1.5801 -0.6264
  222MOL0     H29941  10.072   3.492   9.458 -0.3519 -0.3819 -0.0553
  222MOL0     H29942  10.076   3.390   9.213  2.4157 -1.0492 -1.9818
  222MOL0     H29943  10.110   3.546   9.156 -2.1868  1.6963  1.0251
  222MOL0     H29944  10.297   3.360   9.212  3.0134  0.8056  0.6342
  222MOL0     H29945  10.283   3.440   9.369 -1.6518 -0.0849  0.2884
  222MOL0     H29946  10.322   3.577   9.110  0.4857 -0.2751 -0.0592
  222MOL0     H29947  10.352   3.650   9.275 -0.6645  0.2318 -1.1777
  222MOL0     H29948  10.531   3.522   9.092  0.9521 -3.0634 -0.3018
  222MOL0     H29949  10.525   3.399   9.221  3.1798  0.6790  1.8497
  222MOL0     H29950  10.569   3.545   9.392 -0.5962  0.5384 -0.0020
  222MOL0     H29951  10.577   3.679   9.273  0.0792  0.1873  3.3496
  222MOL0     H29952   9.752   3.796   9.080  0.1470 -2.7422 -2.7723
  222MOL0     H29953   9.716   3.931   8.874 -1.0277  2.4143 -0.1098
  222MOL0     H29954   9.764   4.289   8.674  0.9109 -1.0877 -0.0904
  222MOL0     H29955   9.734   4.474   8.535 -0.9090 -1.8368 -2.0683
  222MOL0     H29956  10.242   5.784   8.801  0.9969 -0.5261 -2.5482
  222MOL0     H29957  10.069   5.970   8.844  0.4013 -0.7008  1.3653
  222MOL0     H29958   9.647   6.036   8.960  0.1838  0.5230  1.1216
  222MOL0     H29959   9.473   6.190   9.038 -1.4075 -0.1096 -1.0848
  222MOL0     H29960   9.340   6.355   9.087 -2.7677  1.8848  1.6627
  222MOL0     H29961   9.212   6.445   9.017 -0.9881  0.5661 -2.0399
  222MOL0     H29962   9.138   6.236   9.118 -0.5807 -1.7545 -0.8684
  222MOL0     H29963   9.247   6.143   9.011  0.6142  0.8726  1.2092
  222MOL0     H29964   9.119   6.219   8.808  0.8483 -2.0332  1.0724
  222MOL0     H29965   9.012   6.319   8.913 -1.2255 -0.0301 -1.9006
  222MOL0     H29966   8.931   6.121   9.015 -0.4202  1.7968  0.0310
  222MOL0     H29967   9.053   6.020   8.936 -0.6601 -0.5170  1.3117
  222MOL0     H29968   8.762   6.051   8.638 -3.6841 -1.7555  2.7891
  222MOL0     H29969   9.466   6.393   8.665 -1.2309 -1.1955  1.0203
  222MOL0     H29970   9.655   6.256   8.590  0.8578  1.2502 -0.5705
  223MOL0     O29971   5.399   7.394   6.378 -0.5253 -0.2817 -0.2966
  223MOL0     C29972   5.471   7.375   6.282 -0.2398 -0.3802  1.2602
  223MOL0     O29973   5.432   7.349   6.147 -0.1635  0.0524 -0.8858
  223MOL0     C29974   5.304   7.316   6.124  0.4594  0.2642  0.0249
  223MOL0     C29975   5.289   7.213   6.040 -0.1777  0.3208  0.3819
  223MOL0     C29976   5.165   7.163   6.007 -0.0351 -1.0088  0.3869
  223MOL0     C29977   5.048   7.209   6.066  0.7804 -0.7694 -0.8845
  223MOL0     O29978   4.936   7.139   6.024  0.5230 -0.0678 -0.5515
  223MOL0     C29979   4.799   7.178   6.065 -0.2912  1.0114 -0.6669
  223MOL0     C29980   4.701   7.064   6.024 -0.8858  0.1958  0.4596
  223MOL0     C29981   4.758   6.918   6.059  0.0970  0.4268  0.2097
  223MOL0     C29982   4.818   6.844   5.946  0.3724 -0.2055  0.3751
  223MOL0     C29983   4.855   6.698   5.983 -0.5343  0.0552  1.0552
  223MOL0     C29984   4.912   6.627   5.859 -0.3702 -0.5489  0.0676
  223MOL0     C29985   4.921   6.476   5.876  0.1310 -0.1965  1.0565
  223MOL0     C29986   4.996   6.424   5.756 -0.0483 -0.9555 -0.3022
  223MOL0     N29987   4.917   6.455   5.635 -0.0296 -0.1007  0.3821
  223MOL0     C29988   4.791   6.401   5.620 -0.4702 -0.3339 -0.1425
  223MOL0     C29989   4.744   6.450   5.502 -0.1942 -0.2301  0.7290
  223MOL0     C29990   4.615   6.427   5.445 -0.4208  0.2301  0.0153
  223MOL0     C29991   4.611   6.345   5.313 -0.1355 -0.1175 -0.0248
  223MOL0     C29992   4.485   6.270   5.266 -0.5194 -0.0408  1.1299
  223MOL0     C29993   4.518   6.180   5.136 -0.8506 -0.2628  0.1375
  223MOL0     O29994   4.520   6.264   5.020  0.8341 -0.3949 -0.1155
  223MOL0     C29995   4.538   6.198   4.904 -0.7966 -0.5025  0.6506
  223MOL0     C29996   4.432   6.150   4.823 -0.2398  0.6030 -0.9011
  223MOL0     C29997   4.460   6.070   4.708  0.2634  0.4546 -0.3290
  223MOL0     C29998   4.341   5.998   4.642 -0.4063 -0.3164 -0.4638
  223MOL0     C29999   4.593   6.062   4.668  0.0343 -0.2982  0.4866
  223MOL0     C30000   4.630   5.979   4.548  0.2783  0.8626 -0.0650
  223MOL0     O30001   4.737   6.009   4.464 -0.7934 -0.7593 -0.1690
  223MOL0     C30002   4.778   5.911   4.373 -0.3810 -0.1751 -0.8698
  223MOL0     C30003   4.882   5.820   4.405  0.0398 -0.8302  0.1293
  223MOL0     C30004   4.902   5.707   4.330 -1.1959  0.3438  1.0052
  223MOL0     C30005   4.822   5.685   4.212  0.2082  0.2139 -1.0954
  223MOL0     O30006   4.875   5.595   4.120 -0.1034 -1.0261  0.0657
  223MOL0     C30007   4.868   5.620   3.979 -1.0212 -0.0466 -0.0269
  223MOL0     C30008   4.741   5.583   3.909 -0.3668 -0.5848 -0.4802
  223MOL0     C30009   4.684   5.447   3.967 -0.1473  0.2063  0.1322
  223MOL0     C30010   4.567   5.384   3.892  0.6888  0.7669 -0.6195
  223MOL0     C30011   4.435   5.400   3.977 -0.5769  0.8348 -0.4242
  223MOL0     C30012   4.314   5.347   3.913  0.3630  1.4826 -0.1691
  223MOL0     C30013   4.303   5.196   3.898  0.9456 -0.6587 -0.2200
  223MOL0     C30014   4.158   5.155   3.833 -0.7812 -0.6318  0.6511
  223MOL0    Cl30015   4.132   5.210   3.668  0.2507 -0.6765  0.1576
  223MOL0     C30016   4.714   5.769   4.189 -0.1117  0.4704 -0.1590
  223MOL0     C30017   4.685   5.871   4.279 -0.3206  0.5191  0.2555
  223MOL0     O30018   4.569   5.874   4.533 -0.2693  0.0279 -0.2020
  223MOL0     C30019   4.698   6.107   4.745 -0.4357  0.3463 -0.4826
  223MOL0     C30020   4.667   6.174   4.861  0.2107 -0.2299  0.9784
  223MOL0     N30021   4.843   6.538   5.444  0.2213 -0.0651  0.3752
  223MOL0     N30022   4.942   6.539   5.529 -0.4467 -0.2974 -0.1714
  223MOL0     C30023   5.056   7.319   6.149 -0.3955  0.0078 -0.6704
  223MOL0     C30024   5.179   7.377   6.177 -0.7952  0.2159 -0.9831
  223MOL0     C30025   5.618   7.385   6.306 -0.5089 -0.5093 -0.7450
  223MOL0     C30026   5.710   7.326   6.219  0.1455 -0.3762 -0.6068
  223MOL0     C30027   5.840   7.343   6.240 -0.5414 -0.3094 -0.8156
  223MOL0     C30028   5.895   7.414   6.342  0.3569  1.2677 -0.4397
  223MOL0     O30029   6.027   7.437   6.371  0.2589  0.0057 -0.1206
  223MOL0     C30030   6.127   7.377   6.290  0.0055  0.0841  0.4397
  223MOL0     C30031   6.256   7.430   6.328 -0.2336 -0.0526  0.3457
  223MOL0     C30032   6.385   7.369   6.269  0.2414  0.4809 -0.5774
  223MOL0     C30033   6.488   7.387   6.381  0.7312  0.0029 -0.2909
  223MOL0     C30034   6.623   7.380   6.319 -0.1155  0.1267 -0.2435
  223MOL0     C30035   6.715   7.355   6.245 -0.6701 -0.8051 -0.0578
  223MOL0     C30036   5.807   7.478   6.422 -0.2535 -0.5393 -0.2910
  223MOL0     C30037   5.665   7.475   6.406  0.7623  0.2993 -0.1946
  223MOL0     H30038   5.370   7.148   6.006  0.6496  0.0787  2.6727
  223MOL0     H30039   5.160   7.080   5.937 -0.4409  2.2919 -3.9125
  223MOL0     H30040   4.808   7.187   6.173 -0.9059  2.2435 -0.6960
  223MOL0     H30041   4.749   7.269   6.031 -1.1690  0.3095 -1.3156
  223MOL0     H30042   4.610   7.090   6.079 -1.4820  1.3046 -0.9807
  223MOL0     H30043   4.680   7.060   5.917  0.2594  0.4691  0.2178
  223MOL0     H30044   4.832   6.926   6.140  2.9875  3.5001 -2.4467
  223MOL0     H30045   4.682   6.850   6.100  0.9323 -1.6572 -1.4973
  223MOL0     H30046   4.746   6.844   5.864 -1.0372 -3.7394  1.4010
  223MOL0     H30047   4.902   6.896   5.900  0.6577 -0.6138  0.4317
  223MOL0     H30048   4.927   6.702   6.066  1.0746 -1.1784 -0.2050
  223MOL0     H30049   4.761   6.648   6.008 -0.6743 -1.3805 -1.9580
  223MOL0     H30050   4.851   6.650   5.772 -1.9663  0.1596  1.3224
  223MOL0     H30051   5.010   6.671   5.837 -1.5440  1.4166 -1.5807
  223MOL0     H30052   4.966   6.452   5.972 -0.5467  0.1923  1.4798
  223MOL0     H30053   4.817   6.441   5.879 -0.2268 -0.0435 -3.0797
  223MOL0     H30054   5.002   6.314   5.760 -3.9928 -1.3292 -0.4937
  223MOL0     H30055   5.090   6.479   5.753  0.3694 -1.6391  0.0070
  223MOL0     H30056   4.740   6.326   5.682 -1.1945  0.4293  0.2067
  223MOL0     H30057   4.557   6.362   5.511 -2.6663  1.0680 -1.0173
  223MOL0     H30058   4.579   6.529   5.424  2.6270  1.2006 -0.9957
  223MOL0     H30059   4.693   6.274   5.312 -0.9115 -1.0388  0.3928
  223MOL0     H30060   4.616   6.420   5.233 -4.7280 -1.3362 -1.8231
  223MOL0     H30061   4.413   6.348   5.237 -3.0714 -1.4651  3.2401
  223MOL0     H30062   4.446   6.205   5.345  0.6450 -1.5483  0.5115
  223MOL0     H30063   4.440   6.104   5.137 -0.1614 -1.0009  2.1127
  223MOL0     H30064   4.611   6.123   5.150 -0.1596  0.4273 -1.3152
  223MOL0     H30065   4.334   6.175   4.862 -0.4047  0.3132 -1.1358
  223MOL0     H30066   4.240   6.028   4.672 -2.1201 -3.4514 -2.5875
  223MOL0     H30067   4.345   6.005   4.533 -0.7036  2.4094 -0.3522
  223MOL0     H30068   4.349   5.890   4.660 -0.2435 -0.3435 -0.6944
  223MOL0     H30069   4.951   5.850   4.483  1.4782 -1.3720 -0.8925
  223MOL0     H30070   4.991   5.645   4.344 -0.2994  1.4134  0.2071
  223MOL0     H30071   4.912   5.718   3.958 -1.2358  0.6371  2.4551
  223MOL0     H30072   4.937   5.545   3.940 -1.6092 -0.1720 -0.8328
  223MOL0     H30073   4.661   5.654   3.931 -1.5224 -2.1118  0.4234
  223MOL0     H30074   4.747   5.586   3.800  1.6211  0.7074 -0.3837
  223MOL0     H30075   4.652   5.470   4.069 -1.3874  1.7149 -0.5674
  223MOL0     H30076   4.768   5.377   3.976 -0.7363 -0.3856  1.3261
  223MOL0     H30077   4.547   5.438   3.799 -2.7459  3.4531  1.4582
  223MOL0     H30078   4.586   5.277   3.877  0.4996  0.4603  1.0757
  223MOL0     H30079   4.431   5.510   3.978  5.5339  1.3804 -0.2406
  223MOL0     H30080   4.439   5.357   4.077 -4.8872  1.2834  0.1711
  223MOL0     H30081   4.236   5.386   3.979  0.4830  0.1207  0.8222
  223MOL0     H30082   4.289   5.390   3.816 -2.2596  1.5584  0.4575
  223MOL0     H30083   4.292   5.159   4.000 -1.0848  0.7686  0.1517
  223MOL0     H30084   4.385   5.143   3.849  1.3753  0.0665 -0.2960
  223MOL0     H30085   4.072   5.193   3.890 -0.3432 -1.9695  2.2798
  223MOL0     H30086   4.149   5.047   3.840  3.8508 -1.3394 -1.0114
  223MOL0     H30087   4.636   5.745   4.117 -0.7334 -1.5651  1.1001
  223MOL0     H30088   4.585   5.909   4.259 -0.2228 -0.0527 -1.4565
  223MOL0     H30089   4.796   6.079   4.708  0.0205  1.0814  0.1395
  223MOL0     H30090   4.749   6.201   4.927  1.1642 -1.3933  0.2999
  223MOL0     H30091   4.962   7.361   6.186 -1.6653  0.0238 -3.6179
  223MOL0     H30092   5.193   7.457   6.249  1.6323 -1.4303  0.5237
  223MOL0     H30093   5.663   7.270   6.139 -0.8757  2.3397 -2.0503
  223MOL0     H30094   5.908   7.297   6.168  1.7875 -1.5733  1.9569
  223MOL0     H30095   6.118   7.270   6.311 -1.3806 -0.4033 -2.2149
  223MOL0     H30096   6.113   7.390   6.183  0.0845 -0.1884  0.3945
  223MOL0     H30097   6.272   7.428   6.436  2.0955  3.5002  0.2226
  223MOL0     H30098   6.249   7.535   6.297 -1.2013 -0.7880 -2.2615
  223MOL0     H30099   6.405   7.411   6.171  3.9843 -1.2434 -0.7263
  223MOL0     H30100   6.374   7.264   6.243  1.5974 -0.2579  1.5646
  223MOL0     H30101   6.477   7.310   6.459  0.6059 -1.0163 -1.2866
  223MOL0     H30102   6.479   7.490   6.416  0.4567 -0.3833  0.8328
  223MOL0     H30103   6.800   7.370   6.182  0.5766 -2.2802  1.2032
  223MOL0     H30104   5.861   7.536   6.497 -1.2496  0.2397 -0.1563
  223MOL0     H30105   5.596   7.537   6.462  0.2533 -0.0437 -0.4393
  224MOL0     O30106   4.616   4.295   7.518  0.2018 -0.3480  0.1969
  224MOL0     C30107   4.669   4.337   7.414  1.1070  0.7496 -0.2648
  224MOL0     O30108   4.605   4.414   7.322  0.3977 -0.9407  0.4438
  224MOL0     C30109   4.475   4.436   7.352  0.2790 -0.6585  0.9255
  224MOL0     C30110   4.431   4.544   7.432  0.2398  0.0505 -0.5247
  224MOL0     C30111   4.297   4.558   7.470  0.1918  0.8553 -0.6894
  224MOL0     C30112   4.201   4.471   7.412 -0.4617  0.8294 -0.5480
  224MOL0     O30113   4.071   4.491   7.452  0.2597 -0.5099  0.0096
  224MOL0     C30114   3.974   4.402   7.393  0.1792  0.1771  0.0451
  224MOL0     C30115   3.834   4.435   7.447 -0.9482  0.2881  0.0131
  224MOL0     C30116   3.731   4.394   7.355  0.2254 -0.2065  0.4085
  224MOL0     C30117   3.592   4.424   7.402  0.7835 -0.1679 -0.6892
  224MOL0     C30118   3.470   4.386   7.311 -0.4955 -0.3781 -0.4662
  224MOL0     C30119   3.336   4.441   7.367  0.8403  0.2553 -0.6483
  224MOL0     C30120   3.213   4.448   7.276  0.2686  0.1479  0.7732
  224MOL0     C30121   3.184   4.331   7.179 -0.0116  0.4586 -0.3939
  224MOL0     N30122   3.079   4.354   7.077 -0.6809 -0.2750 -0.2528
  224MOL0     C30123   2.949   4.397   7.106 -0.0781 -0.5993  0.5917
  224MOL0     C30124   2.889   4.416   6.985 -0.4857 -0.0363 -0.4193
  224MOL0     C30125   2.747   4.453   6.961  0.2021  0.1810 -0.4287
  224MOL0     C30126   2.709   4.451   6.814  0.4936 -1.1427  1.2704
  224MOL0     C30127   2.555   4.453   6.794 -0.0828 -0.2113 -0.1854
  224MOL0     C30128   2.499   4.591   6.761 -0.2584 -0.3688 -0.1364
  224MOL0     O30129   2.352   4.588   6.775 -0.5610 -0.2175  0.1700
  224MOL0     C30130   2.277   4.551   6.665 -0.4801  0.7641 -0.4740
  224MOL0     C30131   2.189   4.449   6.682 -0.8269  0.0242  1.1853
  224MOL0     C30132   2.099   4.416   6.577 -0.7229 -0.1580 -0.2158
  224MOL0     C30133   2.012   4.302   6.617 -0.0753 -0.1343 -0.3676
  224MOL0     C30134   2.092   4.488   6.457  0.3396 -0.2352 -0.3619
  224MOL0     C30135   1.989   4.464   6.350 -1.3030 -0.1257  0.0729
  224MOL0     O30136   1.921   4.352   6.363 -0.8789 -0.1721  0.0492
  224MOL0     C30137   1.823   4.330   6.276 -0.1964 -0.2252 -0.6451
  224MOL0     C30138   1.700   4.335   6.328  0.1965  0.1303 -1.0080
  224MOL0     C30139   1.597   4.275   6.253  0.5987 -0.4230 -0.8837
  224MOL0     C30140   1.607   4.222   6.120  0.0118 -1.4856 -0.9032
  224MOL0     O30141   1.505   4.158   6.060 -0.1934 -0.0846 -0.0164
  224MOL0     C30142   1.507   4.130   5.917 -0.9834 -0.4987  0.1375
  224MOL0     C30143   1.383   4.055   5.855 -0.3808 -0.2700 -0.0399
  224MOL0     C30144   1.248   4.124   5.858  0.1758  0.0316  0.2585
  224MOL0     C30145   1.147   4.061   5.767 -0.3180  0.4046 -0.3278
  224MOL0     C30146   1.007   4.131   5.776 -0.3135  0.4694  0.8241
  224MOL0     C30147   1.001   4.281   5.777  0.0599  0.3963  0.4719
  224MOL0     C30148   0.867   4.348   5.749  0.1707 -0.3556 -0.2431
  224MOL0     C30149   0.771   4.332   5.871  0.2118 -0.7974  0.9626
  224MOL0    Cl30150   0.614   4.373   5.817  0.8689  0.4972 -0.1717
  224MOL0     C30151   1.740   4.245   6.064  0.2202  0.5081 -0.4466
  224MOL0     C30152   1.846   4.288   6.149 -0.6093 -0.9295  0.2220
  224MOL0     O30153   1.975   4.558   6.269 -0.6809 -0.1058 -0.4648
  224MOL0     C30154   2.179   4.597   6.449  0.4538 -0.6001 -0.2150
  224MOL0     C30155   2.262   4.631   6.562 -0.8564 -0.5047  0.1964
  224MOL0     N30156   2.988   4.388   6.893  0.5689 -0.0200 -0.4909
  224MOL0     N30157   3.105   4.361   6.950  0.2278 -0.2165  0.2534
  224MOL0     C30158   4.249   4.369   7.321  1.6543 -0.1911  0.7420
  224MOL0     C30159   4.381   4.356   7.293  1.0178  0.1009  0.0824
  224MOL0     C30160   4.808   4.306   7.401  1.0094  0.8825  0.1886
  224MOL0     C30161   4.881   4.365   7.301 -0.1853 -0.0811  0.2093
  224MOL0     C30162   5.017   4.348   7.286  0.2723 -0.6941 -1.1136
  224MOL0     C30163   5.081   4.250   7.358  0.4414 -0.3378 -0.2458
  224MOL0     O30164   5.211   4.241   7.312  0.4651 -0.0834 -0.5484
  224MOL0     C30165   5.310   4.229   7.419 -0.4810 -0.5582 -0.0896
  224MOL0     C30166   5.447   4.213   7.359 -0.6157 -0.5627  0.3822
  224MOL0     C30167   5.547   4.241   7.471 -0.5134 -1.2988 -0.5563
  224MOL0     C30168   5.677   4.167   7.442  0.1360  1.1554  1.0301
  224MOL0     C30169   5.768   4.236   7.345  0.2334 -0.8959 -0.1013
  224MOL0     C30170   5.858   4.292   7.293  0.1648  0.6442  0.8540
  224MOL0     C30171   5.008   4.178   7.457  0.0720  0.5269 -0.1061
  224MOL0     C30172   4.870   4.206   7.475  0.9677 -0.3644  0.0693
  224MOL0     H30173   4.508   4.611   7.469  3.1427 -1.8742 -2.5839
  224MOL0     H30174   4.263   4.621   7.551 -0.5803 -0.6202  0.1699
  224MOL0     H30175   3.983   4.414   7.285 -1.0638  1.8606  0.0945
  224MOL0     H30176   3.996   4.299   7.422 -0.0904  0.3808  1.0384
  224MOL0     H30177   3.825   4.372   7.536  0.3967  1.0507  0.7214
  224MOL0     H30178   3.828   4.543   7.464  1.3172  0.3023  1.1574
  224MOL0     H30179   3.748   4.441   7.258 -2.0566  1.4395  0.7393
  224MOL0     H30180   3.742   4.286   7.340  1.1890 -0.0030 -0.4732
  224MOL0     H30181   3.565   4.373   7.495  0.8406  1.6958  0.3987
  224MOL0     H30182   3.590   4.533   7.417  0.9856 -0.0808 -1.2803
  224MOL0     H30183   3.492   4.424   7.211 -0.0606 -1.6918 -0.8971
  224MOL0     H30184   3.458   4.277   7.305  0.9225 -0.7051  1.4913
  224MOL0     H30185   3.299   4.379   7.449  1.2074  2.0788  0.9605
  224MOL0     H30186   3.358   4.539   7.409  0.2095 -0.9655  2.9130
  224MOL0     H30187   3.125   4.465   7.338 -0.8566 -2.4404  0.0151
  224MOL0     H30188   3.233   4.534   7.211 -3.5361  0.9131  0.3630
  224MOL0     H30189   3.154   4.234   7.222 -2.1889  0.3248 -2.0437
  224MOL0     H30190   3.280   4.314   7.130 -0.2343  0.5514 -0.8639
  224MOL0     H30191   2.912   4.424   7.205 -0.7679  1.0893 -0.0951
  224MOL0     H30192   2.693   4.372   7.011  1.2536  0.5333  1.3486
  224MOL0     H30193   2.721   4.546   7.013 -1.9951  0.1186 -1.3095
  224MOL0     H30194   2.752   4.356   6.779 -1.5631 -1.2808 -1.1380
  224MOL0     H30195   2.757   4.528   6.752 -1.0752 -2.9702 -2.4957
  224MOL0     H30196   2.508   4.423   6.888  1.9458  2.1599  1.7123
  224MOL0     H30197   2.515   4.394   6.710  0.4445 -0.2043 -0.4428
  224MOL0     H30198   2.538   4.612   6.661  3.2771  1.2305  1.4182
  224MOL0     H30199   2.543   4.666   6.828 -2.2802 -0.4132  1.3467
  224MOL0     H30200   2.181   4.405   6.781 -0.3736  0.1493  1.2803
  224MOL0     H30201   1.914   4.336   6.583  0.1329 -0.9289 -1.8224
  224MOL0     H30202   2.031   4.212   6.557 -0.6396 -1.5425  1.4777
  224MOL0     H30203   2.016   4.278   6.724  2.3508 -0.9868 -0.6039
  224MOL0     H30204   1.677   4.363   6.431 -0.4280 -1.7334 -0.5802
  224MOL0     H30205   1.505   4.264   6.309  0.9665  3.6081  0.8675
  224MOL0     H30206   1.535   4.228   5.877  2.1668  0.7425  4.5841
  224MOL0     H30207   1.596   4.073   5.889 -0.1947  1.4960 -1.6918
  224MOL0     H30208   1.410   4.029   5.752 -0.0443  0.5211 -0.1535
  224MOL0     H30209   1.362   3.962   5.909  1.2052  0.5935  2.2060
  224MOL0     H30210   1.268   4.221   5.813  1.4490 -0.9297 -1.3514
  224MOL0     H30211   1.210   4.135   5.960 -3.3301  1.4840 -1.0412
  224MOL0     H30212   1.177   4.078   5.664 -0.6438  2.2872 -0.1614
  224MOL0     H30213   1.142   3.955   5.792 -0.6041  0.6620  0.7534
  224MOL0     H30214   0.964   4.093   5.869  0.0149 -1.7099  0.1594
  224MOL0     H30215   0.950   4.089   5.693  0.5538 -1.9903  1.3867
  224MOL0     H30216   1.030   4.321   5.874 -2.4801  0.6157  1.2184
  224MOL0     H30217   1.061   4.318   5.693 -2.0134  2.5104 -0.1998
  224MOL0     H30218   0.816   4.300   5.665  2.4093 -1.6641 -0.9217
  224MOL0     H30219   0.886   4.454   5.729  1.0505 -0.8329 -2.2005
  224MOL0     H30220   0.807   4.397   5.952  1.0663 -0.3030  0.2158
  224MOL0     H30221   0.780   4.229   5.907  1.6957 -2.2807 -2.9905
  224MOL0     H30222   1.768   4.231   5.959 -3.4021  0.3021 -1.5069
  224MOL0     H30223   1.949   4.293   6.118 -0.9748 -1.4854 -1.1606
  224MOL0     H30224   2.187   4.666   6.366  2.9640  0.4153  0.7810
  224MOL0     H30225   2.316   4.724   6.549 -5.5155  2.6737  1.1438
  224MOL0     H30226   4.181   4.302   7.269  1.8016 -1.6069  2.2639
  224MOL0     H30227   4.417   4.265   7.246  1.4349  0.5158 -0.4162
  224MOL0     H30228   4.830   4.441   7.243 -1.4253 -0.6870  0.4701
  224MOL0     H30229   5.075   4.401   7.211 -0.7875  0.7614 -0.9372
  224MOL0     H30230   5.301   4.315   7.486 -1.5519 -1.2963  0.7475
  224MOL0     H30231   5.284   4.145   7.484  1.0903 -0.3610  0.8662
  224MOL0     H30232   5.461   4.293   7.284 -1.0631 -0.0299  0.8607
  224MOL0     H30233   5.464   4.115   7.312  0.9778  0.7346 -2.0178
  224MOL0     H30234   5.512   4.190   7.561  1.6687 -0.8737  0.6186
  224MOL0     H30235   5.564   4.343   7.507 -3.1629 -1.2236  0.6794
  224MOL0     H30236   5.663   4.073   7.387  0.3689  2.5526 -1.6057
  224MOL0     H30237   5.735   4.138   7.530  0.2648  0.5682  0.7579
  224MOL0     H30238   5.944   4.345   7.257  0.1858 -1.6117 -3.0231
  224MOL0     H30239   5.058   4.092   7.501 -0.4200 -0.4743 -1.4389
  224MOL0     H30240   4.804   4.153   7.543 -0.3690 -1.1743 -1.7827
  225MOL0     O30241   9.730   5.114   1.180 -0.1794 -0.3683 -0.8221
  225MOL0     C30242   9.754   5.061   1.076 -0.1557 -0.9960  0.1091
  225MOL0     O30243   9.656   5.020   0.984  0.2208  0.3189 -0.7628
  225MOL0     C30244   9.532   5.047   1.025  0.1358 -0.4730 -0.5466
  225MOL0     C30245   9.469   5.158   0.984 -0.6640 -1.0617  0.4082
  225MOL0     C30246   9.337   5.192   1.022 -0.4864  0.6198  0.6310
  225MOL0     C30247   9.260   5.108   1.096 -0.3149 -0.1038 -0.6737
  225MOL0     O30248   9.129   5.134   1.120  0.1263  0.6585  0.0535
  225MOL0     C30249   9.070   5.113   1.252  0.8832 -1.0226  0.5747
  225MOL0     C30250   9.115   5.220   1.352 -1.2029 -0.5166 -0.3496
  225MOL0     C30251   9.028   5.204   1.485  0.1301  0.2598  1.3290
  225MOL0     C30252   9.096   5.287   1.596 -0.0905  0.6024 -0.0451
  225MOL0     C30253   9.032   5.286   1.735 -0.0856  0.0934  0.5215
  225MOL0     C30254   8.909   5.376   1.744  0.8645  0.2412 -0.2923
  225MOL0     C30255   8.847   5.361   1.890  0.1550 -0.3527  0.4635
  225MOL0     C30256   8.713   5.416   1.922 -0.0960 -0.0039  0.7241
  225MOL0     N30257   8.699   5.564   1.907  0.3150  0.4713  0.0215
  225MOL0     C30258   8.753   5.644   2.001  0.6265  0.3694 -0.2113
  225MOL0     C30259   8.726   5.768   1.950 -0.6099  0.2407 -1.0056
  225MOL0     C30260   8.756   5.903   2.015  0.5071 -0.1269  0.3168
  225MOL0     C30261   8.864   5.989   1.947  0.1080  0.4469 -0.1897
  225MOL0     C30262   8.995   5.913   1.938 -0.0829  0.5575 -0.7392
  225MOL0     C30263   9.112   6.011   1.925 -0.7835  0.0123  0.3248
  225MOL0     O30264   9.224   5.932   1.914 -0.0159 -0.2075 -0.1273
  225MOL0     C30265   9.345   5.993   1.953  0.7904 -0.4973 -0.2749
  225MOL0     C30266   9.372   6.129   1.931  0.8401  0.4105  0.0159
  225MOL0     C30267   9.492   6.186   1.988  0.8508  0.8068  0.1318
  225MOL0     C30268   9.522   6.332   1.973  0.0399  0.0893  0.7765
  225MOL0     C30269   9.578   6.105   2.072 -0.9569 -0.5026  0.2061
  225MOL0     C30270   9.693   6.156   2.171  0.3383 -0.4364 -0.3131
  225MOL0     O30271   9.732   6.062   2.263 -0.7032  0.0201  0.0334
  225MOL0     C30272   9.828   6.091   2.357 -0.2478 -0.1462  0.3709
  225MOL0     C30273   9.820   6.024   2.483  0.9543 -0.1205  0.0597
  225MOL0     C30274   9.917   6.038   2.578 -0.5103 -0.0328  0.2346
  225MOL0     C30275  10.019   6.139   2.567 -0.0004  0.8985 -0.4374
  225MOL0     O30276  10.110   6.150   2.671  0.4656 -0.0529 -0.5166
  225MOL0     C30277  10.209   6.249   2.665 -0.8019 -0.2977  0.2451
  225MOL0     C30278  10.318   6.231   2.768 -0.1643 -0.6045  0.2588
  225MOL0     C30279  10.399   6.099   2.758 -0.0674 -0.1810  0.2552
  225MOL0     C30280  10.498   6.084   2.884  0.0018 -0.7893  0.6232
  225MOL0     C30281  10.548   5.950   2.918  0.0545 -0.5321  0.0377
  225MOL0     C30282  10.647   5.938   3.034  0.0722 -0.6270  0.4038
  225MOL0     C30283  10.711   5.802   3.044  0.4355  0.6596 -0.0607
  225MOL0     C30284  10.630   5.699   3.119 -0.5761  0.8205  0.1779
  225MOL0    Cl30285  10.730   5.544   3.129  0.1707  0.4246 -0.1878
  225MOL0     C30286  10.025   6.212   2.446  0.1939  0.0038  0.3862
  225MOL0     C30287   9.942   6.185   2.336  0.2589 -0.2833 -0.3431
  225MOL0     O30288   9.732   6.272   2.169  0.1386  0.6815  0.1734
  225MOL0     C30289   9.553   5.967   2.066  0.0586  0.0851 -0.4140
  225MOL0     C30290   9.442   5.914   2.004  0.2988  0.0651  0.6112
  225MOL0     N30291   8.661   5.759   1.828 -0.6022 -0.7136  0.0005
  225MOL0     N30292   8.641   5.638   1.808  0.4949  1.1142  0.6402
  225MOL0     C30293   9.315   4.987   1.145 -0.1751  0.0248  0.4154
  225MOL0     C30294   9.450   4.957   1.109  0.1449  0.2533 -0.4999
  225MOL0     C30295   9.891   5.048   1.036  0.2501  0.6339 -1.0045
  225MOL0     C30296   9.995   5.122   1.090  0.6617 -0.3545 -0.5655
  225MOL0     C30297  10.128   5.106   1.055  0.6261  0.2300 -0.8037
  225MOL0     C30298  10.164   5.002   0.965 -0.1412  1.3323  0.8487
  225MOL0     O30299  10.288   4.974   0.916  0.0920 -0.4780  0.5880
  225MOL0     C30300  10.399   5.049   0.964  0.2145  0.8098 -0.4397
  225MOL0     C30301  10.525   5.030   0.880 -0.5306 -0.0276  0.0388
  225MOL0     C30302  10.623   5.148   0.916 -0.3012 -0.0723  0.1265
  225MOL0     C30303  10.760   5.140   0.845  0.2693 -0.5632 -0.8534
  225MOL0     C30304  10.842   5.025   0.887 -0.9301 -0.1135 -1.2125
  225MOL0     C30305  10.903   4.934   0.925 -0.1250  0.8575  0.0121
  225MOL0     C30306  10.062   4.922   0.907  0.6475  0.8872  0.2533
  225MOL0     C30307   9.926   4.947   0.941  0.6057 -0.4139 -1.1301
  225MOL0     H30308   9.542   5.227   0.943 -1.9564  0.8559  1.1566
  225MOL0     H30309   9.292   5.284   0.986  1.0444  1.2289  0.1878
  225MOL0     H30310   8.962   5.129   1.239  1.4816  3.6940 -0.3725
  225MOL0     H30311   9.083   5.011   1.290 -0.4635 -1.7575 -0.7995
  225MOL0     H30312   9.218   5.195   1.379 -1.1268 -1.6072 -1.5523
  225MOL0     H30313   9.109   5.319   1.307  0.3985 -0.5262 -0.6455
  225MOL0     H30314   8.928   5.244   1.469  1.4078  2.8858 -0.8266
  225MOL0     H30315   9.022   5.104   1.529 -1.0271 -0.6043 -0.6581
  225MOL0     H30316   9.197   5.246   1.596 -0.5994 -0.9080  2.9137
  225MOL0     H30317   9.109   5.385   1.549 -0.3109 -0.0533 -1.5233
  225MOL0     H30318   9.000   5.185   1.764  0.0016 -0.3963 -1.0077
  225MOL0     H30319   9.103   5.319   1.811 -0.1952 -2.4741  1.8771
  225MOL0     H30320   8.941   5.477   1.717  0.3405  0.3832 -0.3950
  225MOL0     H30321   8.838   5.344   1.668 -0.6979  0.1797  1.1501
  225MOL0     H30322   8.844   5.254   1.915  1.1372 -0.6518 -0.6405
  225MOL0     H30323   8.922   5.399   1.960  0.9032 -1.1274  0.1046
  225MOL0     H30324   8.672   5.384   2.018 -2.1203 -0.8511 -0.3694
  225MOL0     H30325   8.644   5.372   1.850 -1.8780  2.9083  0.5044
  225MOL0     H30326   8.809   5.617   2.090 -1.1179 -0.6508  0.6394
  225MOL0     H30327   8.669   5.969   2.027 -0.0230 -1.2151  3.3501
  225MOL0     H30328   8.789   5.896   2.119  1.6065  2.9625  0.2919
  225MOL0     H30329   8.865   6.074   2.016 -0.8878 -1.9847  3.0901
  225MOL0     H30330   8.835   6.015   1.845  1.9699  1.4260 -0.5150
  225MOL0     H30331   8.986   5.847   1.851 -1.2330  0.0638 -0.2660
  225MOL0     H30332   9.013   5.852   2.027 -0.6932  0.5256 -0.6364
  225MOL0     H30333   9.123   6.066   2.019  3.1683 -0.4237  0.2849
  225MOL0     H30334   9.106   6.088   1.847  2.6205 -0.5531 -0.6574
  225MOL0     H30335   9.302   6.194   1.879  2.7567  1.2641 -1.6898
  225MOL0     H30336   9.502   6.391   2.062 -1.3058  0.5115  0.2327
  225MOL0     H30337   9.624   6.355   1.942 -0.0750 -2.2826 -1.7950
  225MOL0     H30338   9.459   6.372   1.892  1.9876 -2.3314 -2.1912
  225MOL0     H30339   9.748   5.945   2.501 -0.0206  0.4810 -1.0079
  225MOL0     H30340   9.914   5.982   2.670 -0.9785 -2.7405 -1.3165
  225MOL0     H30341  10.264   6.249   2.570  3.2086 -0.1821  2.3718
  225MOL0     H30342  10.161   6.347   2.679  0.5958  0.3226  0.9287
  225MOL0     H30343  10.385   6.313   2.738 -3.0465  0.9410 -2.5692
  225MOL0     H30344  10.282   6.243   2.871 -1.4285  0.0799 -0.2433
  225MOL0     H30345  10.452   6.081   2.664 -0.6906 -0.4263 -0.0569
  225MOL0     H30346  10.321   6.022   2.765  1.1262 -1.4940 -0.2508
  225MOL0     H30347  10.584   6.151   2.888  0.9686 -2.0535  2.3475
  225MOL0     H30348  10.446   6.123   2.972  0.5823  1.7120 -0.0550
  225MOL0     H30349  10.584   5.901   2.827 -3.0186 -0.5853 -1.2963
  225MOL0     H30350  10.469   5.881   2.950  0.3251 -1.4581 -1.1911
  225MOL0     H30351  10.720   6.016   3.009 -1.2766  0.7782  0.6218
  225MOL0     H30352  10.604   5.971   3.129  0.2136  1.4211 -0.1802
  225MOL0     H30353  10.801   5.827   3.101 -0.5030 -0.0227  1.8356
  225MOL0     H30354  10.746   5.768   2.946  1.8299 -0.9682  0.9462
  225MOL0     H30355  10.537   5.689   3.062  1.2271 -1.0321 -2.6920
  225MOL0     H30356  10.612   5.726   3.224  2.2332 -2.5117  1.7184
  225MOL0     H30357  10.089   6.299   2.429  0.8600 -0.8023 -1.4568
  225MOL0     H30358   9.961   6.228   2.238 -0.9816 -3.2890 -2.0502
  225MOL0     H30359   9.620   5.902   2.122 -1.2472  0.0840  1.2288
  225MOL0     H30360   9.421   5.807   2.006  0.2006 -0.0499 -2.2991
  225MOL0     H30361   9.261   4.913   1.205  2.0879  0.3977  3.1423
  225MOL0     H30362   9.498   4.869   1.149  0.3263  1.2489  1.6423
  225MOL0     H30363   9.966   5.182   1.176  1.0722 -2.8892  1.4583
  225MOL0     H30364  10.211   5.164   1.094  3.0663 -2.2165 -1.9911
  225MOL0     H30365  10.383   5.157   0.974  2.5639  1.1423  0.3363
  225MOL0     H30366  10.424   5.020   1.066  0.6362  2.9465  0.1182
  225MOL0     H30367  10.500   5.039   0.774  0.4514 -3.3090 -0.5907
  225MOL0     H30368  10.566   4.929   0.887  3.6790  1.4678 -0.5239
  225MOL0     H30369  10.620   5.159   1.025 -0.6883  0.7563  0.0375
  225MOL0     H30370  10.577   5.238   0.876  0.0581  0.1670  0.2525
  225MOL0     H30371  10.808   5.235   0.870 -2.3695  1.4065 -2.6814
  225MOL0     H30372  10.746   5.141   0.736  1.5424  0.0357 -1.0280
  225MOL0     H30373  10.954   4.847   0.958  1.1409  1.7641  0.5039
  225MOL0     H30374  10.094   4.844   0.840  0.4201  1.5496 -0.6472
  225MOL0     H30375   9.854   4.879   0.898 -0.3743 -1.2098  1.5561
  226MOL0     O30376   3.575   0.819   7.546 -0.3875  0.1089 -0.1815
  226MOL0     C30377   3.577   0.744   7.446 -0.4877 -0.3383  0.2878
  226MOL0     O30378   3.469   0.689   7.384  0.4827  0.2576 -0.1577
  226MOL0     C30379   3.353   0.699   7.456 -0.3662  0.1906 -0.0751
  226MOL0     C30380   3.307   0.603   7.540 -0.0890  0.2369  0.0715
  226MOL0     C30381   3.173   0.604   7.583  0.4728 -0.3290 -0.2083
  226MOL0     C30382   3.087   0.714   7.565 -0.2662 -0.0962  0.3622
  226MOL0     O30383   2.961   0.720   7.624 -0.4929  1.1654 -0.2015
  226MOL0     C30384   2.857   0.672   7.539  0.4571 -0.7636  0.0134
  226MOL0     C30385   2.748   0.609   7.621  1.2476 -0.1123 -0.3242
  226MOL0     C30386   2.664   0.527   7.520  0.6699 -0.0004  0.4261
  226MOL0     C30387   2.535   0.455   7.584 -0.5045  0.2882 -0.3967
  226MOL0     C30388   2.419   0.555   7.601  0.0876 -0.3337  0.0993
  226MOL0     C30389   2.293   0.486   7.634 -0.3694  0.1141  0.3869
  226MOL0     C30390   2.171   0.582   7.646  0.2161  0.4499  0.2195
  226MOL0     C30391   2.043   0.503   7.647  0.3000  0.1076  0.0264
  226MOL0     N30392   1.926   0.576   7.595 -0.5695 -0.7762 -0.7279
  226MOL0     C30393   1.900   0.705   7.657 -0.3969 -0.1411  1.0777
  226MOL0     C30394   1.776   0.742   7.601  0.3520 -0.1730  0.0839
  226MOL0     C30395   1.706   0.875   7.591 -0.6429  0.2267 -0.2031
  226MOL0     C30396   1.661   0.910   7.733 -0.1808 -0.0152 -0.8632
  226MOL0     C30397   1.575   0.802   7.816 -1.0544  0.0974  0.9355
  226MOL0     C30398   1.457   0.746   7.730  0.0924  0.6301 -0.0838
  226MOL0     O30399   1.372   0.688   7.834 -0.2634 -0.0096 -0.8407
  226MOL0     C30400   1.312   0.769   7.934 -0.3891  0.0876  0.1904
  226MOL0     C30401   1.276   0.702   8.050  0.2688  0.7897 -0.2513
  226MOL0     C30402   1.214   0.757   8.152 -0.3316  0.4135 -0.3458
  226MOL0     C30403   1.187   0.660   8.266  0.0302  0.0884 -0.7558
  226MOL0     C30404   1.189   0.897   8.146  0.2264 -0.2263  0.2436
  226MOL0     C30405   1.123   0.979   8.257  0.4556 -0.0753 -0.1955
  226MOL0     O30406   1.026   1.065   8.228  0.2217  0.5337  0.7174
  226MOL0     C30407   0.978   1.157   8.320  0.5547 -0.2124 -0.2301
  226MOL0     C30408   1.053   1.208   8.434  0.3245 -0.5253 -0.4346
  226MOL0     C30409   1.003   1.306   8.517 -0.1414 -0.4916  0.6819
  226MOL0     C30410   0.883   1.368   8.484 -0.5172 -0.4488  0.6915
  226MOL0     O30411   0.829   1.454   8.561  0.5770 -0.6377 -0.4761
  226MOL0     C30412   0.803   1.411   8.693  0.8909  0.3863  0.6819
  226MOL0     C30413   0.686   1.314   8.704 -0.4304  0.5039  0.3883
  226MOL0     C30414   0.557   1.381   8.664  0.5874 -0.0634 -0.0523
  226MOL0     C30415   0.440   1.286   8.692  0.5005  0.8015  0.3057
  226MOL0     C30416   0.309   1.371   8.643  0.2788  0.6575  0.2032
  226MOL0     C30417   0.185   1.276   8.613 -0.4168  0.1504 -0.8234
  226MOL0     C30418   0.144   1.223   8.749  0.5103  0.4766  0.2269
  226MOL0     C30419   0.008   1.152   8.750  0.2559  0.0251 -0.2048
  226MOL0    Cl30420  -0.138   1.261   8.740 -0.1753  0.1393  0.1151
  226MOL0     C30421   0.814   1.339   8.367 -0.5260  0.1953  0.8166
  226MOL0     C30422   0.854   1.222   8.297 -0.0042 -0.4712 -1.1805
  226MOL0     O30423   1.145   0.939   8.375 -0.1910 -0.4723  0.7670
  226MOL0     C30424   1.233   0.977   8.038  0.0569  0.3852 -0.0106
  226MOL0     C30425   1.286   0.912   7.928 -0.0744  0.1840  0.0018
  226MOL0     N30426   1.742   0.637   7.517  0.2572  0.2619  0.4136
  226MOL0     N30427   1.820   0.536   7.521 -0.4614  0.8274 -0.3290
  226MOL0     C30428   3.137   0.817   7.474 -0.3189  0.3350 -1.2328
  226MOL0     C30429   3.275   0.811   7.427  0.7225 -0.2445 -0.6412
  226MOL0     C30430   3.712   0.731   7.383  0.8663  0.4038  0.6173
  226MOL0     C30431   3.828   0.776   7.442  0.6387 -0.5736 -0.0194
  226MOL0     C30432   3.936   0.795   7.359 -0.7060 -0.1042 -0.7873
  226MOL0     C30433   3.936   0.763   7.224 -0.0639 -0.1834 -0.1794
  226MOL0     O30434   4.029   0.791   7.133 -0.1965  0.0033  0.2235
  226MOL0     C30435   4.143   0.862   7.178  0.2622 -0.0252  0.0611
  226MOL0     C30436   4.229   0.906   7.059  0.2067 -0.5693  0.1340
  226MOL0     C30437   4.179   1.045   6.998  0.1288 -0.0145 -0.3036
  226MOL0     C30438   4.294   1.109   6.925 -1.0743  0.2665  0.0635
  226MOL0     C30439   4.239   1.219   6.841  0.4740  0.8454  0.8060
  226MOL0     C30440   4.202   1.305   6.771 -0.5274  0.0893 -0.0274
  226MOL0     C30441   3.826   0.690   7.180 -0.3708 -0.0304 -0.3015
  226MOL0     C30442   3.718   0.661   7.259  0.2680 -0.5143 -0.0653
  226MOL0     H30443   3.369   0.517   7.562 -2.1615 -1.0281  1.3050
  226MOL0     H30444   3.139   0.523   7.646 -1.3638  1.0665  0.6990
  226MOL0     H30445   2.818   0.758   7.484 -0.6680 -0.0547  1.8281
  226MOL0     H30446   2.896   0.589   7.480  0.2464 -1.2581  0.5608
  226MOL0     H30447   2.788   0.557   7.709 -0.3556  0.5899  0.8640
  226MOL0     H30448   2.693   0.692   7.666  2.8034  1.0318 -0.4294
  226MOL0     H30449   2.627   0.592   7.440  1.2855  2.0512  1.7170
  226MOL0     H30450   2.721   0.449   7.469  1.0625  0.0680  0.7592
  226MOL0     H30451   2.504   0.371   7.521  0.0641  0.7645 -1.3431
  226MOL0     H30452   2.565   0.419   7.683  1.0126  0.7582 -0.6535
  226MOL0     H30453   2.447   0.633   7.673 -0.3681 -0.9473  0.9488
  226MOL0     H30454   2.397   0.605   7.506  0.4413 -0.0096  0.1818
  226MOL0     H30455   2.274   0.408   7.559  2.2053 -2.0894  1.8138
  226MOL0     H30456   2.292   0.441   7.733 -2.8863  5.5173  3.2449
  226MOL0     H30457   2.179   0.636   7.741 -0.0705  2.2758 -0.7639
  226MOL0     H30458   2.178   0.653   7.564  0.0223  0.4068  0.1656
  226MOL0     H30459   2.030   0.447   7.740 -0.3575 -1.3275 -0.8785
  226MOL0     H30460   2.067   0.431   7.568  1.7848  0.4866  0.1156
  226MOL0     H30461   1.959   0.765   7.726 -0.0912  0.5632  0.2269
  226MOL0     H30462   1.775   0.949   7.549 -2.4390  1.8821 -0.3510
  226MOL0     H30463   1.627   0.875   7.515 -0.5715  0.5493 -0.2795
  226MOL0     H30464   1.604   1.004   7.734  2.7523  1.9167 -0.3582
  226MOL0     H30465   1.748   0.945   7.790 -1.4101  2.4867 -0.3701
  226MOL0     H30466   1.538   0.853   7.905 -1.3786  0.7432  0.4379
  226MOL0     H30467   1.644   0.725   7.853 -1.4514 -1.7992 -1.9544
  226MOL0     H30468   1.491   0.678   7.651  0.4604  2.2023 -1.3134
  226MOL0     H30469   1.413   0.827   7.672 -1.7505 -0.9411 -1.0308
  226MOL0     H30470   1.313   0.602   8.068 -3.3806 -0.5333  0.7157
  226MOL0     H30471   1.085   0.673   8.303  0.0343 -2.2456  0.2494
  226MOL0     H30472   1.201   0.556   8.234 -1.6620  0.0144 -1.3243
  226MOL0     H30473   1.252   0.689   8.349 -0.0471  1.1484 -1.0496
  226MOL0     H30474   1.148   1.164   8.464 -0.9339 -1.3634  2.7114
  226MOL0     H30475   1.053   1.341   8.607 -1.2312 -1.7216  1.8274
  226MOL0     H30476   0.893   1.388   8.750 -0.5613  0.7212  3.2487
  226MOL0     H30477   0.771   1.509   8.731 -1.8569 -0.1656  0.0216
  226MOL0     H30478   0.699   1.231   8.634  1.9280  1.7269 -0.7431
  226MOL0     H30479   0.672   1.282   8.808 -2.1536 -0.9391 -0.2443
  226MOL0     H30480   0.562   1.395   8.556 -4.2962 -0.8357 -0.6135
  226MOL0     H30481   0.539   1.481   8.705  1.5845  1.0761 -2.2572
  226MOL0     H30482   0.455   1.197   8.630  0.0568  1.1234 -0.2819
  226MOL0     H30483   0.431   1.253   8.795  1.7064 -2.1285 -0.4376
  226MOL0     H30484   0.327   1.427   8.550 -3.6926  2.9097  0.5649
  226MOL0     H30485   0.281   1.438   8.725  0.5086 -2.0865  2.6601
  226MOL0     H30486   0.102   1.338   8.579 -0.1765  0.3040 -1.1371
  226MOL0     H30487   0.194   1.183   8.555 -0.7951 -1.1204  1.0691
  226MOL0     H30488   0.126   1.308   8.816  0.5345 -0.4021  1.3693
  226MOL0     H30489   0.212   1.154   8.800  0.4247  1.9008  2.3931
  226MOL0     H30490   0.002   1.088   8.839 -1.0165  2.9529  1.9699
  226MOL0     H30491  -0.006   1.085   8.664  0.8205  0.6503 -0.7938
  226MOL0     H30492   0.717   1.380   8.340 -0.9010  0.8261  2.9122
  226MOL0     H30493   0.796   1.184   8.213  0.8362  0.4986 -2.2355
  226MOL0     H30494   1.219   1.084   8.032 -3.0112  0.1201  0.7486
  226MOL0     H30495   1.304   0.968   7.837 -2.0180 -1.1435 -1.2697
  226MOL0     H30496   3.073   0.898   7.440 -0.1008  0.1786 -2.0384
  226MOL0     H30497   3.309   0.893   7.365 -0.6786  2.7381  2.2207
  226MOL0     H30498   3.837   0.799   7.547 -1.7438  0.3303  0.0562
  226MOL0     H30499   4.013   0.854   7.408  0.8174  0.8107 -4.0470
  226MOL0     H30500   4.108   0.949   7.235 -0.3576  0.0685 -0.4568
  226MOL0     H30501   4.204   0.791   7.235  0.0406 -2.7943 -2.9008
  226MOL0     H30502   4.222   0.829   6.982 -3.3511  1.8672 -2.3254
  226MOL0     H30503   4.331   0.923   7.093 -0.0536  2.0816 -0.1951
  226MOL0     H30504   4.129   1.115   7.066 -0.4593 -0.8756  0.1580
  226MOL0     H30505   4.098   1.010   6.933 -0.4799 -0.5381  0.7187
  226MOL0     H30506   4.335   1.031   6.861 -1.6908 -0.1961  0.2166
  226MOL0     H30507   4.368   1.158   6.989 -0.0420  3.7560 -3.4418
  226MOL0     H30508   4.145   1.385   6.728 -1.2396 -0.3407  0.1029
  226MOL0     H30509   3.818   0.648   7.080 -0.0848 -2.9368  0.7788
  226MOL0     H30510   3.635   0.605   7.217 -1.3397  1.5271  0.2280
  227MOL0     O30511   9.678  11.167   9.291  0.0429  0.2066  0.5820
  227MOL0     C30512   9.654  11.268   9.353 -0.3275  0.1645 -0.3876
  227MOL0     O30513   9.557  11.281   9.436 -0.2220 -0.7393 -0.5286
  227MOL0     C30514   9.450  11.192   9.446  0.1192 -0.5744 -0.7650
  227MOL0     C30515   9.378  11.141   9.333  0.6640 -0.8979 -0.4094
  227MOL0     C30516   9.284  11.044   9.354 -0.5033  0.6333 -0.9538
  227MOL0     C30517   9.251  10.997   9.490  0.0286 -0.2252 -0.6833
  227MOL0     O30518   9.157  10.894   9.497 -0.1204  0.1211 -0.2721
  227MOL0     C30519   9.153  10.799   9.610  0.0524  0.4835  0.1967
  227MOL0     C30520   9.056  10.679   9.596  0.5752 -0.4102 -0.3218
  227MOL0     C30521   8.923  10.735   9.556  0.6203  0.8007 -0.6423
  227MOL0     C30522   8.823  10.633   9.618  0.9455  0.0645 -0.0466
  227MOL0     C30523   8.685  10.693   9.603  0.1891 -0.0106  0.2250
  227MOL0     C30524   8.574  10.616   9.676 -0.2153  0.5603 -0.4535
  227MOL0     C30525   8.438  10.672   9.639 -0.0864  0.0018  0.4566
  227MOL0     C30526   8.386  10.656   9.498  1.0470 -0.5720  0.1185
  227MOL0     N30527   8.252  10.717   9.474  0.7928 -0.5239  0.0369
  227MOL0     C30528   8.158  10.741   9.574 -0.3253  1.0073  0.2549
  227MOL0     C30529   8.062  10.811   9.516 -0.2670 -0.3306 -0.7660
  227MOL0     C30530   7.953  10.888   9.591 -0.0928  0.4452 -0.5747
  227MOL0     C30531   7.815  10.817   9.577  0.2250 -0.1187  0.1051
  227MOL0     C30532   7.709  10.871   9.674  0.0841 -0.2486  0.5343
  227MOL0     C30533   7.656  11.015   9.629 -0.2670 -0.8058 -1.0828
  227MOL0     O30534   7.546  11.060   9.707  0.6547 -0.0443  0.4044
  227MOL0     C30535   7.500  11.185   9.683 -0.4351 -0.1008  0.8962
  227MOL0     C30536   7.390  11.227   9.751 -0.5824 -0.4652 -0.9117
  227MOL0     C30537   7.317  11.351   9.737 -0.3551 -0.5082  0.4034
  227MOL0     C30538   7.203  11.379   9.827  0.4073 -0.1084  0.5012
  227MOL0     C30539   7.385  11.446   9.649 -0.2967 -0.4340  0.2556
  227MOL0     C30540   7.347  11.586   9.615  0.5266 -0.2205  0.2010
  227MOL0     O30541   7.393  11.638   9.500 -0.2873  0.6814 -0.6531
  227MOL0     C30542   7.339  11.756   9.462  0.3478  0.1451 -0.9841
  227MOL0     C30543   7.208  11.766   9.409 -0.1874 -0.4825 -0.3527
  227MOL0     C30544   7.151  11.885   9.374  0.4394  0.0764 -0.7128
  227MOL0     C30545   7.206  12.004   9.413  0.7882  0.5697 -0.4446
  227MOL0     O30546   7.143  12.125   9.415 -0.2840  0.6582  0.3453
  227MOL0     C30547   7.041  12.142   9.317  0.1138 -0.2289  0.5798
  227MOL0     C30548   6.988  12.284   9.347  0.6289 -0.3975  0.2462
  227MOL0     C30549   6.854  12.303   9.260 -0.1418 -0.6721 -0.0113
  227MOL0     C30550   6.782  12.428   9.277 -0.3155 -0.3897 -0.6662
  227MOL0     C30551   6.645  12.424   9.230  0.7907  0.0451  0.5437
  227MOL0     C30552   6.597  12.571   9.203 -0.9994 -0.1142 -0.1969
  227MOL0     C30553   6.468  12.572   9.117 -0.0804  0.1658 -0.2512
  227MOL0     C30554   6.357  12.638   9.200  0.5632 -0.9664 -0.2316
  227MOL0    Cl30555   6.316  12.542   9.353 -0.3549  0.8521 -0.1782
  227MOL0     C30556   7.332  12.005   9.472  0.4413  0.5122  0.1734
  227MOL0     C30557   7.398  11.880   9.493 -0.3730  0.5021  0.5120
  227MOL0     O30558   7.270  11.643   9.698 -0.0505 -0.0413  0.0868
  227MOL0     C30559   7.492  11.400   9.569  1.0825 -0.1413 -0.1404
  227MOL0     C30560   7.546  11.273   9.584  0.2151  0.2514  0.3360
  227MOL0     N30561   8.087  10.821   9.383 -0.3866 -0.4629  0.1983
  227MOL0     N30562   8.206  10.769   9.362  0.3315  0.0362  0.1947
  227MOL0     C30563   9.320  11.051   9.595  0.2354  0.2672  0.6216
  227MOL0     C30564   9.407  11.153   9.578  0.0765 -0.5934 -0.1228
  227MOL0     C30565   9.753  11.384   9.331 -0.3005  0.2980  0.1166
  227MOL0     C30566   9.849  11.402   9.230  0.7113  0.6733  0.0808
  227MOL0     C30567   9.926  11.510   9.215 -0.2448 -0.0040 -0.0620
  227MOL0     C30568   9.926  11.612   9.314  0.2816 -1.1671 -1.0525
  227MOL0     O30569  10.011  11.725   9.310  0.3810  0.0618 -0.1778
  227MOL0     C30570  10.144  11.709   9.255 -0.6405  0.0070 -0.2602
  227MOL0     C30571  10.191  11.836   9.180  0.1685 -0.2086 -0.5052
  227MOL0     C30572  10.318  11.902   9.240 -1.2235 -0.0865  0.7623
  227MOL0     C30573  10.452  11.825   9.246  0.1582 -0.4639  0.4640
  227MOL0     C30574  10.499  11.794   9.115 -1.1385  0.2611 -0.0473
  227MOL0     C30575  10.535  11.776   9.002 -0.5727 -0.0898  0.3339
  227MOL0     C30576   9.838  11.600   9.415 -0.0012  0.1673 -0.3801
  227MOL0     C30577   9.761  11.486   9.427  0.3116 -0.3884 -0.1183
  227MOL0     H30578   9.411  11.181   9.238 -0.8272  1.4726 -0.0284
  227MOL0     H30579   9.228  11.003   9.271 -0.6280 -0.2669 -0.4487
  227MOL0     H30580   9.250  10.750   9.616 -0.7180 -1.5257 -2.0223
  227MOL0     H30581   9.127  10.853   9.702  1.4365  2.4903 -0.5211
  227MOL0     H30582   9.084  10.605   9.521  0.9991 -2.4815  1.7543
  227MOL0     H30583   9.061  10.621   9.689  1.2311 -0.2308 -0.2435
  227MOL0     H30584   8.909  10.828   9.611 -0.3574  1.3165 -1.7038
  227MOL0     H30585   8.913  10.746   9.448 -1.7483  2.6080 -0.3266
  227MOL0     H30586   8.831  10.531   9.578  2.3964 -0.2625  1.0170
  227MOL0     H30587   8.842  10.619   9.725 -0.2684 -0.4625  0.1210
  227MOL0     H30588   8.678  10.796   9.641 -2.7961  0.8340 -2.2477
  227MOL0     H30589   8.664  10.696   9.496  0.6975  0.8991  0.1399
  227MOL0     H30590   8.574  10.509   9.653  1.6160  0.9908 -2.7931
  227MOL0     H30591   8.584  10.628   9.784 -1.7779 -2.5127  0.1370
  227MOL0     H30592   8.364  10.619   9.700 -0.2109 -1.3970 -0.8501
  227MOL0     H30593   8.448  10.780   9.653  3.8641 -0.0246 -0.9899
  227MOL0     H30594   8.394  10.548   9.486  2.0118 -0.4700 -0.2672
  227MOL0     H30595   8.460  10.701   9.431  1.9227 -1.5827  0.3757
  227MOL0     H30596   8.171  10.714   9.679  1.1171 -2.8476 -0.7344
  227MOL0     H30597   7.975  10.893   9.699 -2.6241 -0.0847  0.0223
  227MOL0     H30598   7.961  10.987   9.545  3.3033 -1.2210 -4.1046
  227MOL0     H30599   7.829  10.711   9.599  0.5597  0.2657  1.9513
  227MOL0     H30600   7.788  10.822   9.471 -0.3949 -0.5868  0.2362
  227MOL0     H30601   7.742  10.872   9.778  0.2406  1.5804  0.4994
  227MOL0     H30602   7.623  10.804   9.678 -0.2652  0.1348 -0.1776
  227MOL0     H30603   7.627  11.016   9.523 -0.6016  1.3102 -1.0146
  227MOL0     H30604   7.742  11.079   9.653  2.7340 -4.6073 -0.6711
  227MOL0     H30605   7.347  11.154   9.818 -1.8271 -0.5682 -1.7919
  227MOL0     H30606   7.196  11.486   9.849 -0.5787 -0.1658  0.4961
  227MOL0     H30607   7.106  11.356   9.782  0.3112  1.6664 -0.2794
  227MOL0     H30608   7.198  11.327   9.923 -0.2532 -2.0496 -0.5231
  227MOL0     H30609   7.152  11.676   9.388  1.2126 -1.2662 -0.8855
  227MOL0     H30610   7.050  11.881   9.334  0.7155 -1.1208 -1.3310
  227MOL0     H30611   7.082  12.139   9.215 -0.0412  1.0683  0.4530
  227MOL0     H30612   6.958  12.071   9.320  0.6919 -0.9676 -0.2401
  227MOL0     H30613   6.964  12.295   9.453  0.9184 -1.0676  0.3872
  227MOL0     H30614   7.059  12.357   9.304 -1.1057  0.3579 -1.4792
  227MOL0     H30615   6.784  12.225   9.292 -2.5732  0.6068 -1.8608
  227MOL0     H30616   6.877  12.285   9.155  1.3550  0.3213  0.1210
  227MOL0     H30617   6.786  12.450   9.384  0.3963  0.3738 -0.8346
  227MOL0     H30618   6.833  12.506   9.219 -2.0943  1.0898 -0.3231
  227MOL0     H30619   6.571  12.372   9.292 -1.2305  2.2663  0.1546
  227MOL0     H30620   6.636  12.364   9.139  0.5771  0.9746 -0.0552
  227MOL0     H30621   6.586  12.629   9.295 -0.8656 -0.9164  0.3347
  227MOL0     H30622   6.676  12.619   9.144 -0.5748 -0.0109  0.4399
  227MOL0     H30623   6.442  12.468   9.095  0.1512 -0.0390  0.4156
  227MOL0     H30624   6.486  12.621   9.020  3.4321 -1.4722 -0.6119
  227MOL0     H30625   6.272  12.645   9.130 -0.5812 -3.1445  0.8346
  227MOL0     H30626   6.375  12.740   9.235  1.2844 -1.7325  1.7566
  227MOL0     H30627   7.363  12.101   9.513 -3.4259  1.0858  2.2897
  227MOL0     H30628   7.493  11.885   9.546  1.0617  3.0253 -2.0390
  227MOL0     H30629   7.544  11.451   9.488  0.8866  0.0643 -0.1362
  227MOL0     H30630   7.618  11.242   9.509  0.2934  2.5002 -0.5870
  227MOL0     H30631   9.297  11.028   9.699 -3.1049 -1.6140 -0.3985
  227MOL0     H30632   9.455  11.201   9.663 -1.4524  0.5202  0.1443
  227MOL0     H30633   9.859  11.330   9.149  2.2937  1.0410 -0.0797
  227MOL0     H30634   9.997  11.512   9.134  0.7431  0.5989  0.7959
  227MOL0     H30635  10.220  11.694   9.333 -0.7790  2.4656  0.4408
  227MOL0     H30636  10.152  11.623   9.187 -3.5867  0.0993 -0.8319
  227MOL0     H30637  10.113  11.912   9.165  2.0894  1.9969  0.0411
  227MOL0     H30638  10.213  11.811   9.076  1.4507  0.3583 -0.3880
  227MOL0     H30639  10.293  11.946   9.338 -1.5860  0.3870  0.4626
  227MOL0     H30640  10.332  11.995   9.184  0.6788 -0.2592  0.9098
  227MOL0     H30641  10.439  11.732   9.302 -3.4299  0.5229  1.5478
  227MOL0     H30642  10.521  11.894   9.295  0.6913 -1.3898  1.0442
  227MOL0     H30643  10.564  11.738   8.906  1.3758 -0.8281  1.1577
  227MOL0     H30644   9.824  11.674   9.494 -0.8321 -0.1606 -0.2021
  227MOL0     H30645   9.689  11.487   9.508 -1.2973 -0.3863 -1.5068
  228MOL0     O30646   1.393   3.861   5.583  0.7227 -0.5254 -0.3234
  228MOL0     C30647   1.368   3.759   5.645  0.4350 -0.2819  0.0491
  228MOL0     O30648   1.452   3.697   5.729 -0.0605  1.0329 -0.6155
  228MOL0     C30649   1.587   3.737   5.742  0.5254  0.1789  0.5204
  228MOL0     C30650   1.673   3.738   5.626  0.3776  1.2252 -0.8768
  228MOL0     C30651   1.803   3.777   5.639 -0.3274 -0.2273  0.1763
  228MOL0     C30652   1.858   3.819   5.758 -0.3103 -0.1588  0.0721
  228MOL0     O30653   1.987   3.847   5.752 -0.2871  0.1790 -0.1049
  228MOL0     C30654   2.046   3.943   5.840 -0.0921 -1.1395 -0.1403
  228MOL0     C30655   2.116   3.888   5.966 -0.4669 -0.0069  0.0608
  228MOL0     C30656   2.251   3.816   5.941  0.2693 -0.3769 -0.0794
  228MOL0     C30657   2.268   3.731   5.812  0.3065  0.4355 -0.6833
  228MOL0     C30658   2.421   3.693   5.788  0.0915 -0.0305 -0.4250
  228MOL0     C30659   2.439   3.538   5.758 -0.3068 -0.6901 -0.7791
  228MOL0     C30660   2.400   3.456   5.881  1.0318  0.2068  0.1289
  228MOL0     C30661   2.370   3.312   5.835 -1.3874  0.1473  0.1128
  228MOL0     N30662   2.235   3.293   5.790  0.4677 -0.3683 -0.8939
  228MOL0     C30663   2.124   3.289   5.874  0.2428  0.8150  0.6464
  228MOL0     C30664   2.023   3.238   5.794 -0.3280 -0.1791  0.6203
  228MOL0     C30665   1.872   3.227   5.821 -0.9980 -0.0418 -0.5230
  228MOL0     C30666   1.848   3.143   5.951  0.3947 -0.1570  0.0856
  228MOL0     C30667   1.700   3.156   6.004  0.1144 -0.2416 -0.4019
  228MOL0     C30668   1.575   3.130   5.909  0.4098  0.3832  0.1146
  228MOL0     O30669   1.580   3.212   5.783 -0.6937  0.4323 -1.1271
  228MOL0     C30670   1.477   3.219   5.691  0.2038 -0.0325  0.3440
  228MOL0     C30671   1.503   3.307   5.584  0.6162 -0.7811  0.5191
  228MOL0     C30672   1.411   3.332   5.478  0.3838  0.1463 -0.5112
  228MOL0     C30673   1.451   3.430   5.372 -0.1701  0.3846  0.0719
  228MOL0     C30674   1.288   3.265   5.485 -0.0243  0.4857  0.3624
  228MOL0     C30675   1.173   3.278   5.386 -0.3082  0.4436 -0.2071
  228MOL0     O30676   1.055   3.216   5.419  0.3600 -0.1122  0.2202
  228MOL0     C30677   1.013   3.110   5.338  0.0595 -0.0034 -0.5295
  228MOL0     C30678   1.092   3.039   5.246 -0.0594  0.3689 -0.3341
  228MOL0     C30679   1.029   2.944   5.168 -0.1772  0.3008  0.3110
  228MOL0     C30680   0.893   2.911   5.181 -0.0881  0.0445 -0.0633
  228MOL0     O30681   0.841   2.825   5.091  0.0060  0.2032  0.5367
  228MOL0     C30682   0.709   2.783   5.105  0.3516  0.1536  0.3246
  228MOL0     C30683   0.692   2.679   4.990 -0.2912 -1.0597 -0.4983
  228MOL0     C30684   0.569   2.595   5.018  0.5992  0.2723  0.1568
  228MOL0     C30685   0.567   2.470   4.924  0.0187  0.7466  0.5509
  228MOL0     C30686   0.445   2.474   4.837  0.1121 -0.1479 -0.4024
  228MOL0     C30687   0.406   2.333   4.783  0.1734  0.1128 -0.0847
  228MOL0     C30688   0.282   2.330   4.696  0.0748 -0.6688  0.2101
  228MOL0     C30689   0.272   2.425   4.583  0.4276  0.2801 -0.0793
  228MOL0    Cl30690   0.386   2.399   4.447 -0.0601 -0.1519 -0.6503
  228MOL0     C30691   0.820   2.962   5.288 -0.0217 -0.3149 -0.4076
  228MOL0     C30692   0.878   3.062   5.361 -0.5127 -0.1683 -0.7842
  228MOL0     O30693   1.185   3.340   5.286 -1.0688 -0.0196  0.2918
  228MOL0     C30694   1.258   3.177   5.597 -0.3324  0.3747 -0.2325
  228MOL0     C30695   1.351   3.163   5.701  0.4888  0.7329  1.1844
  228MOL0     N30696   2.070   3.227   5.668  1.2430  0.0264  0.4755
  228MOL0     N30697   2.192   3.259   5.666  0.3000 -0.0390  0.9030
  228MOL0     C30698   1.776   3.838   5.871 -0.1206  0.1248 -0.8074
  228MOL0     C30699   1.638   3.793   5.864 -0.7288  1.0340  1.0693
  228MOL0     C30700   1.238   3.685   5.614 -0.1634 -0.6467  0.0576
  228MOL0     C30701   1.202   3.576   5.690  1.0249  0.0400  0.4613
  228MOL0     C30702   1.087   3.496   5.666  0.5742 -0.4965 -0.1444
  228MOL0     C30703   1.000   3.532   5.568  0.0300  0.1104  0.0898
  228MOL0     O30704   0.871   3.485   5.556  0.4762  0.1954 -0.3016
  228MOL0     C30705   0.826   3.374   5.645 -0.1120 -0.8645  0.2615
  228MOL0     C30706   0.680   3.330   5.609 -0.2345  0.1079  0.6432
  228MOL0     C30707   0.558   3.436   5.611  0.1099 -0.0052 -0.0414
  228MOL0     C30708   0.420   3.386   5.585 -0.3185 -0.6045  0.8151
  228MOL0     C30709   0.397   3.333   5.451 -0.8333  0.0890 -0.2602
  228MOL0     C30710   0.385   3.283   5.339 -0.0831  0.0173  0.5909
  228MOL0     C30711   1.034   3.634   5.483  0.3120 -0.1021 -0.4757
  228MOL0     C30712   1.154   3.702   5.503  0.0146  0.3677  0.8326
  228MOL0     H30713   1.636   3.711   5.528 -0.0007  0.1363 -0.4393
  228MOL0     H30714   1.872   3.760   5.556 -0.5001  1.4373 -0.3458
  228MOL0     H30715   2.127   3.996   5.788 -0.6428 -0.0829  0.0333
  228MOL0     H30716   1.972   4.017   5.872  0.2614 -1.6379  1.9607
  228MOL0     H30717   2.147   3.968   6.035 -4.1254  0.7732  1.0129
  228MOL0     H30718   2.043   3.829   6.022 -1.0241  0.3700 -0.2556
  228MOL0     H30719   2.327   3.894   5.951  0.6539 -0.9245  1.6147
  228MOL0     H30720   2.283   3.740   6.013  0.5684 -2.4775 -2.3126
  228MOL0     H30721   2.204   3.643   5.812 -0.4695  0.9650  0.6605
  228MOL0     H30722   2.231   3.794   5.730 -0.8558  2.7253  1.4521
  228MOL0     H30723   2.468   3.761   5.716  1.1598  2.5388  2.4913
  228MOL0     H30724   2.484   3.728   5.870 -0.8674  3.8970 -1.1479
  228MOL0     H30725   2.372   3.501   5.680  0.5140 -2.1964 -0.8128
  228MOL0     H30726   2.544   3.517   5.735  0.7177 -1.6397  3.7483
  228MOL0     H30727   2.489   3.444   5.944  0.2974 -0.8343  1.0102
  228MOL0     H30728   2.318   3.494   5.942 -1.7693 -0.5297 -2.8849
  228MOL0     H30729   2.387   3.247   5.921 -4.8815 -0.5680  0.4074
  228MOL0     H30730   2.438   3.273   5.759  0.6978  3.3463  0.1429
  228MOL0     H30731   2.124   3.287   5.982  0.0241 -4.2454  0.8019
  228MOL0     H30732   1.827   3.327   5.822  0.0560  0.4461 -0.0709
  228MOL0     H30733   1.824   3.166   5.744  0.8286 -1.7429 -0.3932
  228MOL0     H30734   1.914   3.183   6.029  0.6630  0.3219 -0.3795
  228MOL0     H30735   1.867   3.036   5.942 -1.9278 -0.4748 -2.0023
  228MOL0     H30736   1.699   3.253   6.054 -0.5159 -0.0987 -0.6694
  228MOL0     H30737   1.684   3.090   6.090 -0.4921 -1.0451 -1.1183
  228MOL0     H30738   1.487   3.143   5.973  2.2800 -1.2674  3.2274
  228MOL0     H30739   1.567   3.027   5.873 -1.5941  0.3147  0.6297
  228MOL0     H30740   1.595   3.364   5.592  0.6872 -1.0515  1.8835
  228MOL0     H30741   1.559   3.444   5.380  0.1642 -0.1005 -2.7067
  228MOL0     H30742   1.430   3.390   5.273  0.4200  1.0923 -0.3535
  228MOL0     H30743   1.394   3.523   5.369  2.3288  2.0266  0.0049
  228MOL0     H30744   1.191   3.080   5.233 -0.6543  2.2576  0.6705
  228MOL0     H30745   1.077   2.893   5.086 -0.7910 -0.3374  0.3417
  228MOL0     H30746   0.686   2.735   5.201 -0.0312 -1.7244 -0.6580
  228MOL0     H30747   0.639   2.866   5.091 -0.9996 -1.1204 -0.8337
  228MOL0     H30748   0.666   2.732   4.898 -2.0755 -0.1554  0.4549
  228MOL0     H30749   0.774   2.608   4.976 -1.0886 -2.2983  0.8233
  228MOL0     H30750   0.478   2.654   5.006  0.1185  0.5444  3.9628
  228MOL0     H30751   0.556   2.560   5.121 -0.0591 -0.6006 -0.2145
  228MOL0     H30752   0.660   2.458   4.869 -1.0226 -0.2656 -1.0600
  228MOL0     H30753   0.554   2.385   4.992 -1.8840  1.8391  1.6597
  228MOL0     H30754   0.454   2.540   4.750 -3.3081 -0.3777 -1.0771
  228MOL0     H30755   0.358   2.509   4.893 -0.6982 -2.2367 -0.2638
  228MOL0     H30756   0.495   2.299   4.729 -0.6964 -1.6013 -0.5096
  228MOL0     H30757   0.388   2.259   4.862  1.6919  3.3740  3.6291
  228MOL0     H30758   0.191   2.338   4.757 -2.1431 -1.0816 -2.8214
  228MOL0     H30759   0.278   2.228   4.655 -2.4574 -0.1352 -1.0812
  228MOL0     H30760   0.268   2.528   4.620  1.2874  0.9225 -1.6870
  228MOL0     H30761   0.169   2.408   4.549  0.4693  0.9859 -0.5882
  228MOL0     H30762   0.716   2.931   5.297 -0.3675 -0.8489 -4.4151
  228MOL0     H30763   0.822   3.112   5.440  0.7192 -1.1456  0.7609
  228MOL0     H30764   1.164   3.130   5.620  0.4418 -1.1245 -0.0296
  228MOL0     H30765   1.322   3.106   5.789 -0.6740  2.1742  1.7800
  228MOL0     H30766   1.830   3.865   5.962  1.0375  1.0294 -1.7324
  228MOL0     H30767   1.584   3.803   5.957 -1.0798  3.7030  0.6471
  228MOL0     H30768   1.267   3.534   5.766 -1.9118 -0.6716  2.7540
  228MOL0     H30769   1.068   3.407   5.724  1.9442 -1.9818 -1.8333
  228MOL0     H30770   0.890   3.288   5.628  1.9288  1.0767 -2.9553
  228MOL0     H30771   0.834   3.418   5.745 -1.4767 -0.6962  0.3184
  228MOL0     H30772   0.654   3.258   5.687  3.9584  2.0522  4.3111
  228MOL0     H30773   0.674   3.274   5.515 -1.5669 -0.9056  1.2900
  228MOL0     H30774   0.585   3.507   5.532  1.9651 -0.6885 -0.0628
  228MOL0     H30775   0.562   3.482   5.710  4.3348 -0.1807  0.0426
  228MOL0     H30776   0.351   3.469   5.602  2.4406  2.2487 -0.8576
  228MOL0     H30777   0.398   3.310   5.661  0.0474 -2.5962 -0.9756
  228MOL0     H30778   0.350   3.232   5.252 -2.5926 -1.4111  2.3027
  228MOL0     H30779   0.970   3.657   5.398 -0.1106 -0.2499 -0.1981
  228MOL0     H30780   1.182   3.773   5.426  0.8377  1.2512  1.9235
  229MOL0     O30781   5.773   2.578   3.983  0.2005  0.4767 -0.4401
  229MOL0     C30782   5.772   2.659   4.075 -0.7853 -0.0309 -0.5593
  229MOL0     O30783   5.667   2.736   4.104  0.3304 -0.0580 -0.0259
  229MOL0     C30784   5.542   2.689   4.057 -1.2106  0.5764 -0.5046
  229MOL0     C30785   5.487   2.748   3.945 -0.0697  0.0251  0.1240
  229MOL0     C30786   5.357   2.699   3.892 -0.8989  1.0744 -0.8733
  229MOL0     C30787   5.294   2.593   3.955 -0.4125 -0.2450  0.1513
  229MOL0     O30788   5.171   2.558   3.897 -0.2436 -0.0166 -0.0459
  229MOL0     C30789   5.093   2.458   3.966  0.1701 -0.1146 -0.0143
  229MOL0     C30790   4.952   2.455   3.910  0.0174 -0.0632  0.4135
  229MOL0     C30791   4.854   2.360   3.977  0.0269 -1.1153 -0.2529
  229MOL0     C30792   4.721   2.340   3.893 -0.9682 -0.3494 -0.4543
  229MOL0     C30793   4.622   2.270   3.979  0.6258 -0.1810 -0.0672
  229MOL0     C30794   4.492   2.255   3.905 -0.7561 -0.0489  0.4236
  229MOL0     C30795   4.486   2.133   3.807 -0.2325 -0.7994  0.0553
  229MOL0     C30796   4.357   2.125   3.723 -0.2333 -0.2882 -0.7797
  229MOL0     N30797   4.254   2.082   3.811 -0.3838  0.0304 -0.5202
  229MOL0     C30798   4.141   2.160   3.837  0.0979 -0.4287 -0.9475
  229MOL0     C30799   4.072   2.082   3.924  0.7485  0.1255 -0.3824
  229MOL0     C30800   3.951   2.113   4.006 -0.3993 -0.2349  0.0033
  229MOL0     C30801   3.820   2.097   3.926 -0.5945  0.2729 -0.2816
  229MOL0     C30802   3.700   2.112   4.018 -0.8712 -0.3024  0.3693
  229MOL0     C30803   3.568   2.114   3.945  1.0082 -0.2055 -0.1797
  229MOL0     O30804   3.534   1.989   3.885 -1.0124  0.3292 -0.4876
  229MOL0     C30805   3.405   1.975   3.842 -0.0518 -0.3925  0.2115
  229MOL0     C30806   3.301   2.064   3.859 -0.2630 -0.6688  0.6709
  229MOL0     C30807   3.170   2.033   3.836  0.2486  0.0887 -0.6036
  229MOL0     C30808   3.058   2.130   3.882 -0.3272 -0.0921  0.0428
  229MOL0     C30809   3.133   1.914   3.776 -0.9417 -0.3470 -0.1670
  229MOL0     C30810   2.990   1.877   3.745  0.1364 -0.1630  0.2405
  229MOL0     O30811   2.954   1.747   3.759  0.6365  0.8020 -0.0029
  229MOL0     C30812   2.823   1.728   3.743  1.2489  0.2026  0.0227
  229MOL0     C30813   2.739   1.760   3.857  0.0187  0.1364 -0.2995
  229MOL0     C30814   2.601   1.737   3.853 -1.0087  0.2527  0.2074
  229MOL0     C30815   2.544   1.679   3.744  0.2898 -0.1861  0.2266
  229MOL0     O30816   2.411   1.648   3.765 -0.2233 -0.5001  0.5468
  229MOL0     C30817   2.335   1.596   3.650  0.1470 -0.5042 -0.0754
  229MOL0     C30818   2.195   1.584   3.694 -0.5664  0.8855  0.3031
  229MOL0     C30819   2.157   1.450   3.749 -1.0470 -0.3079  0.6968
  229MOL0     C30820   2.010   1.418   3.728  0.2528 -0.0302 -0.1287
  229MOL0     C30821   1.919   1.519   3.798  0.9947 -0.3077 -0.5753
  229MOL0     C30822   1.775   1.473   3.810 -0.4471 -0.8041  1.3244
  229MOL0     C30823   1.700   1.470   3.676 -0.4490 -0.3556 -0.2178
  229MOL0     C30824   1.562   1.516   3.694  0.2105  0.1625  0.3862
  229MOL0    Cl30825   1.445   1.473   3.574 -0.1765 -0.0496 -0.0340
  229MOL0     C30826   2.620   1.646   3.632 -0.8269 -0.0955  1.3073
  229MOL0     C30827   2.762   1.670   3.629  1.3034  0.4169  0.1990
  229MOL0     O30828   2.920   1.968   3.691  0.4667 -0.3640  0.1028
  229MOL0     C30829   3.237   1.820   3.754 -1.0081  0.7976 -0.5138
  229MOL0     C30830   3.368   1.851   3.781 -0.2285 -0.5994 -0.9137
  229MOL0     N30831   4.140   1.966   3.956  0.1972 -0.5885  0.0602
  229MOL0     N30832   4.249   1.966   3.888 -0.3573  0.2909 -0.1935
  229MOL0     C30833   5.364   2.534   4.064  0.0593  0.3514  0.3336
  229MOL0     C30834   5.478   2.591   4.120  0.0701  1.0324  0.3139
  229MOL0     C30835   5.902   2.683   4.143 -0.6459 -0.8040 -0.4357
  229MOL0     C30836   6.007   2.595   4.149  0.4586 -0.0505  0.3990
  229MOL0     C30837   6.127   2.632   4.193  0.2151 -0.4107 -0.2354
  229MOL0     C30838   6.155   2.769   4.217  0.7854  0.6518  0.3820
  229MOL0     O30839   6.279   2.810   4.246  0.1192 -0.0076 -0.4538
  229MOL0     C30840   6.388   2.720   4.251  0.7919  0.4724  0.0914
  229MOL0     C30841   6.519   2.792   4.273  0.0711 -0.3230 -1.0902
  229MOL0     C30842   6.545   2.919   4.190  0.4527  0.1056  0.4611
  229MOL0     C30843   6.601   2.900   4.045  0.0236  1.0133  0.3152
  229MOL0     C30844   6.500   2.843   3.963  0.6748 -0.1624  0.5205
  229MOL0     C30845   6.408   2.823   3.879  0.5112 -0.1594  0.4492
  229MOL0     C30846   6.052   2.860   4.211  0.3092 -0.7218 -0.3066
  229MOL0     C30847   5.925   2.817   4.183 -0.1104  0.3213  0.8740
  229MOL0     H30848   5.545   2.829   3.901  1.3576 -0.7861  0.4346
  229MOL0     H30849   5.311   2.740   3.803 -2.1502  0.2135 -0.6523
  229MOL0     H30850   5.139   2.359   3.968 -3.8112 -2.2389 -2.1568
  229MOL0     H30851   5.085   2.495   4.069 -1.2735  1.8080 -0.7600
  229MOL0     H30852   4.910   2.556   3.909  3.0356  1.2922 -0.0919
  229MOL0     H30853   4.957   2.433   3.803  0.6933  2.1129 -0.0593
  229MOL0     H30854   4.901   2.266   4.008  1.1415  0.1861  2.2398
  229MOL0     H30855   4.829   2.407   4.072  0.4035 -1.4155  0.0003
  229MOL0     H30856   4.676   2.434   3.862  2.1327  0.2634 -3.7199
  229MOL0     H30857   4.746   2.288   3.800 -2.1878  2.8126 -2.7436
  229MOL0     H30858   4.650   2.166   3.998 -0.5886 -0.4026  0.6817
  229MOL0     H30859   4.605   2.316   4.077 -1.8580  0.4433 -0.7005
  229MOL0     H30860   4.414   2.240   3.981 -1.0447 -2.4116 -0.2547
  229MOL0     H30861   4.460   2.343   3.848  1.1741  0.6219  0.3341
  229MOL0     H30862   4.573   2.131   3.740 -2.2781 -1.4384 -2.7753
  229MOL0     H30863   4.491   2.043   3.869 -0.0432 -0.1600  0.9855
  229MOL0     H30864   4.369   2.068   3.631  0.4693 -2.1078  0.3889
  229MOL0     H30865   4.332   2.230   3.705 -0.5481  0.1885  1.9870
  229MOL0     H30866   4.113   2.258   3.799 -2.4541 -1.3311 -1.5492
  229MOL0     H30867   3.953   2.046   4.093  0.2087 -2.3278 -1.5353
  229MOL0     H30868   3.955   2.214   4.047 -0.9998  0.4836 -1.6423
  229MOL0     H30869   3.813   2.001   3.875  2.9697  0.8329 -2.1633
  229MOL0     H30870   3.821   2.178   3.852 -0.3018  1.2252  0.7311
  229MOL0     H30871   3.703   2.208   4.070  1.8552 -0.1831  0.1344
  229MOL0     H30872   3.713   2.040   4.099 -2.1107 -1.7927 -0.7089
  229MOL0     H30873   3.571   2.192   3.868 -0.8689  0.7294  0.6488
  229MOL0     H30874   3.496   2.130   4.025 -0.7449 -3.3245 -0.9859
  229MOL0     H30875   3.326   2.166   3.888  1.1741 -1.1641  1.2591
  229MOL0     H30876   2.966   2.081   3.917 -0.7753  0.2899 -0.5838
  229MOL0     H30877   3.100   2.190   3.964  1.1413  0.1478 -0.8519
  229MOL0     H30878   3.030   2.190   3.796 -1.7384 -0.8124 -0.0254
  229MOL0     H30879   2.782   1.788   3.952 -0.8261 -2.5275  0.9550
  229MOL0     H30880   2.539   1.771   3.935 -1.8223  2.0663 -1.1050
  229MOL0     H30881   2.338   1.682   3.583 -1.8526  0.1649  0.6214
  229MOL0     H30882   2.373   1.504   3.604  0.0008  0.8478 -3.1196
  229MOL0     H30883   2.169   1.661   3.766 -1.4945  1.7896 -0.9454
  229MOL0     H30884   2.128   1.597   3.609 -0.3840 -1.3122 -0.2451
  229MOL0     H30885   2.178   1.438   3.856 -0.1231 -0.0719  0.5477
  229MOL0     H30886   2.219   1.371   3.707  1.3554  0.1728  3.0677
  229MOL0     H30887   1.966   1.410   3.628 -2.1696  1.8940  0.6630
  229MOL0     H30888   2.011   1.320   3.777 -0.1067  0.6668  1.3202
  229MOL0     H30889   1.923   1.615   3.745  1.6898 -0.6720 -1.1912
  229MOL0     H30890   1.972   1.530   3.893  2.8710 -1.5825 -1.4174
  229MOL0     H30891   1.770   1.379   3.866 -0.4573 -1.3466  0.4476
  229MOL0     H30892   1.736   1.555   3.869 -0.6045 -1.2288  1.8163
  229MOL0     H30893   1.702   1.371   3.631 -0.0500 -0.3217 -0.2802
  229MOL0     H30894   1.745   1.540   3.605  1.4137 -0.2979  0.9517
  229MOL0     H30895   1.563   1.625   3.700 -0.1050  0.0982  2.7975
  229MOL0     H30896   1.531   1.473   3.790  1.2515 -0.8332  0.2964
  229MOL0     H30897   2.575   1.605   3.542  0.7526 -2.7524  1.6144
  229MOL0     H30898   2.816   1.649   3.537 -1.9402  4.2992 -3.0087
  229MOL0     H30899   3.221   1.725   3.705 -0.1983  1.5620 -2.3647
  229MOL0     H30900   3.437   1.768   3.771  0.3326 -0.0933 -1.2640
  229MOL0     H30901   5.331   2.443   4.114 -1.2109 -0.8323 -2.4459
  229MOL0     H30902   5.528   2.547   4.206 -0.5900 -1.0061 -0.2902
  229MOL0     H30903   6.008   2.490   4.122 -3.5793 -0.1750  0.1506
  229MOL0     H30904   6.203   2.555   4.190  0.0840 -0.5373 -0.3248
  229MOL0     H30905   6.382   2.652   4.337  1.6908  1.1673  0.7266
  229MOL0     H30906   6.399   2.669   4.154 -1.2394  0.9014 -0.4073
  229MOL0     H30907   6.604   2.724   4.263  1.9172  2.0013 -2.2635
  229MOL0     H30908   6.505   2.827   4.375 -0.4128 -2.9766 -0.1642
  229MOL0     H30909   6.615   2.980   4.247  2.7290  1.1432 -3.1395
  229MOL0     H30910   6.452   2.975   4.185  0.8220  0.6528 -0.4429
  229MOL0     H30911   6.670   2.816   4.059  0.9622  1.7222  0.0148
  229MOL0     H30912   6.646   2.992   4.006 -0.2923  1.0566  0.0516
  229MOL0     H30913   6.342   2.793   3.801  1.0923 -1.2944  0.3661
  229MOL0     H30914   6.063   2.964   4.240 -1.0313 -0.3562 -1.0116
  229MOL0     H30915   5.845   2.890   4.172  0.4210  0.7217 -0.5625
  230MOL0     O30916   1.150   2.881   1.806 -0.8304 -0.2540 -0.0778
  230MOL0     C30917   1.261   2.871   1.753 -0.4243 -1.0119 -0.6241
  230MOL0     O30918   1.314   2.769   1.683  0.8980  0.5519  0.1814
  230MOL0     C30919   1.235   2.652   1.673  0.3147  0.0183 -0.7785
  230MOL0     C30920   1.098   2.638   1.669  0.4005  0.2562  0.2098
  230MOL0     C30921   1.031   2.518   1.632  0.0912 -0.2194  0.1552
  230MOL0     C30922   1.109   2.410   1.602 -0.3666 -0.2550 -0.8532
  230MOL0     O30923   1.054   2.286   1.572 -0.8353  0.0207 -0.2150
  230MOL0     C30924   0.918   2.273   1.600  0.5447 -0.4914 -0.7703
  230MOL0     C30925   0.891   2.116   1.587 -0.5632 -0.3760  0.5670
  230MOL0     C30926   0.738   2.092   1.610  0.3167  0.3032  0.1863
  230MOL0     C30927   0.654   2.122   1.498  0.9648 -0.0244  0.6206
  230MOL0     C30928   0.501   2.102   1.517 -0.0966 -0.2011  0.2604
  230MOL0     C30929   0.430   2.147   1.645 -0.1460 -0.2814  0.5625
  230MOL0     C30930   0.462   2.292   1.675  0.3979 -0.0753 -0.3311
  230MOL0     C30931   0.418   2.396   1.561  0.6315  0.0830 -0.2412
  230MOL0     N30932   0.277   2.378   1.539  0.9334  0.4705  0.1717
  230MOL0     C30933   0.232   2.349   1.416  0.2248  0.3493 -0.5290
  230MOL0     C30934   0.100   2.375   1.416 -0.3861  0.4119 -0.4044
  230MOL0     C30935   0.011   2.342   1.303 -0.2340  0.3520  0.2911
  230MOL0     C30936  -0.134   2.372   1.337  1.1290  0.0310  0.1942
  230MOL0     C30937  -0.158   2.524   1.347 -0.4095  0.2228  0.1137
  230MOL0     C30938  -0.303   2.539   1.390  0.6293 -1.1236  0.4497
  230MOL0     O30939  -0.325   2.677   1.421  0.1596 -0.1762  0.3957
  230MOL0     C30940  -0.454   2.701   1.463  1.1736 -0.9091  0.3208
  230MOL0     C30941  -0.507   2.832   1.475  0.6449 -0.3272 -0.3479
  230MOL0     C30942  -0.624   2.866   1.545 -0.4058 -0.7212 -0.2019
  230MOL0     C30943  -0.653   3.016   1.565  0.6770  0.0397 -0.3604
  230MOL0     C30944  -0.711   2.761   1.594 -0.4605  0.5825 -0.0416
  230MOL0     C30945  -0.837   2.789   1.666 -0.3840  0.0269 -0.8958
  230MOL0     O30946  -0.910   2.669   1.692 -0.0377 -0.0322 -0.0983
  230MOL0     C30947  -1.038   2.683   1.747  0.1514  0.6477 -0.0422
  230MOL0     C30948  -1.147   2.609   1.681 -0.1570 -0.0314 -0.4323
  230MOL0     C30949  -1.274   2.601   1.745  0.6207  1.0865 -0.9157
  230MOL0     C30950  -1.299   2.665   1.868 -0.0338 -0.7485  0.3534
  230MOL0     O30951  -1.421   2.658   1.923 -0.2143  0.8513 -0.8013
  230MOL0     C30952  -1.482   2.772   1.988 -0.2351 -0.9472 -0.1384
  230MOL0     C30953  -1.629   2.728   2.021  0.5361 -0.0885  0.3545
  230MOL0     C30954  -1.656   2.638   2.141 -0.5748  0.2597  0.1090
  230MOL0     C30955  -1.804   2.609   2.160  0.7396 -0.2897 -0.3455
  230MOL0     C30956  -1.808   2.511   2.279  0.7857  0.4387  0.1693
  230MOL0     C30957  -1.946   2.468   2.324 -0.1474  0.0998  0.2049
  230MOL0     C30958  -2.019   2.379   2.230  0.3989 -0.5461  0.1994
  230MOL0     C30959  -2.168   2.357   2.255  0.0745  0.5700  0.4679
  230MOL0    Cl30960  -2.204   2.309   2.427 -0.0788 -0.1754  0.0964
  230MOL0     C30961  -1.191   2.734   1.930 -0.2781 -0.4412  0.0174
  230MOL0     C30962  -1.067   2.750   1.867 -0.2655  0.1078  0.3925
  230MOL0     O30963  -0.870   2.898   1.720  0.6023 -0.4168  0.2054
  230MOL0     C30964  -0.670   2.633   1.572 -0.1762  0.3065 -0.3124
  230MOL0     C30965  -0.546   2.603   1.505  0.1990  0.0007 -0.1625
  230MOL0     N30966   0.069   2.428   1.545  0.0952  0.3705 -0.6342
  230MOL0     N30967   0.184   2.439   1.610 -0.5932 -0.0817 -0.1924
  230MOL0     C30968   1.246   2.416   1.597 -0.2725  0.3204  0.8337
  230MOL0     C30969   1.308   2.538   1.638 -0.0474  0.6616 -0.6505
  230MOL0     C30970   1.361   2.974   1.797  0.0435  0.2319 -0.1780
  230MOL0     C30971   1.490   2.972   1.748  0.4605  0.5625 -0.6551
  230MOL0     C30972   1.590   3.051   1.799 -0.9429  0.1499 -0.7407
  230MOL0     C30973   1.573   3.123   1.920  0.9862  0.5888  0.1813
  230MOL0     O30974   1.683   3.197   1.967  0.3640 -0.1017  0.4159
  230MOL0     C30975   1.661   3.287   2.078 -0.3201  0.1772  0.8331
  230MOL0     C30976   1.590   3.419   2.032 -0.3720 -0.2085  0.3887
  230MOL0     C30977   1.646   3.469   1.898 -0.7584 -0.1025 -0.2413
  230MOL0     C30978   1.616   3.608   1.871 -0.2270 -0.3098  0.3592
  230MOL0     C30979   1.475   3.637   1.838  0.6360  0.4962 -0.1653
  230MOL0     C30980   1.359   3.674   1.809 -0.0040  0.4655 -0.9752
  230MOL0     C30981   1.439   3.119   1.976 -0.2270 -0.0444 -0.3067
  230MOL0     C30982   1.336   3.052   1.911  0.4278 -0.2363  0.1877
  230MOL0     H30983   1.033   2.723   1.682  0.7593  0.8057 -1.3833
  230MOL0     H30984   0.923   2.512   1.639  0.1359 -2.2675 -0.2766
  230MOL0     H30985   0.885   2.300   1.701  0.4355  1.2043 -1.2242
  230MOL0     H30986   0.852   2.328   1.533 -2.2538 -2.8726 -0.1959
  230MOL0     H30987   0.926   2.086   1.488  0.4809 -1.9906  1.3894
  230MOL0     H30988   0.948   2.059   1.660 -1.5286  0.1735  1.7821
  230MOL0     H30989   0.713   1.990   1.639 -3.6658  0.9542 -0.2734
  230MOL0     H30990   0.716   2.162   1.692  1.6184 -1.2004  1.8956
  230MOL0     H30991   0.673   2.220   1.455  0.4747 -0.1262  0.1667
  230MOL0     H30992   0.690   2.064   1.412  2.3397  2.3076 -0.4713
  230MOL0     H30993   0.444   2.119   1.425 -0.8913 -2.7562  0.2131
  230MOL0     H30994   0.495   1.993   1.525 -2.2130  0.0062  2.5038
  230MOL0     H30995   0.325   2.118   1.637  0.0735 -0.5421 -2.6190
  230MOL0     H30996   0.474   2.092   1.729  0.5546  0.1567  0.4945
  230MOL0     H30997   0.419   2.320   1.772  0.2831  1.5003 -0.8045
  230MOL0     H30998   0.569   2.302   1.694  0.7099  0.0797 -2.0323
  230MOL0     H30999   0.471   2.369   1.470  0.3192 -1.8033  0.1086
  230MOL0     H31000   0.428   2.500   1.593  2.4467  0.7060 -2.5369
  230MOL0     H31001   0.294   2.307   1.337 -1.2555 -0.6685 -1.2007
  230MOL0     H31002   0.040   2.385   1.207  2.6141 -1.3707  0.2673
  230MOL0     H31003   0.019   2.234   1.286  0.0239  0.1694  1.4909
  230MOL0     H31004  -0.162   2.321   1.429  1.4968 -1.0180 -0.2612
  230MOL0     H31005  -0.197   2.336   1.256 -0.9687  3.5983  0.0191
  230MOL0     H31006  -0.131   2.564   1.249 -0.0578 -3.3505 -1.3971
  230MOL0     H31007  -0.104   2.580   1.424 -0.7378 -0.6283  0.9772
  230MOL0     H31008  -0.331   2.471   1.471 -1.3163 -1.2898 -0.3151
  230MOL0     H31009  -0.364   2.513   1.303  2.4607  0.6693 -1.5020
  230MOL0     H31010  -0.451   2.915   1.434  0.1565  0.7852  1.1382
  230MOL0     H31011  -0.646   3.045   1.670  1.2727 -0.9471 -0.1121
  230MOL0     H31012  -0.573   3.075   1.519  1.9109  0.8064  2.5517
  230MOL0     H31013  -0.750   3.037   1.520  0.4828 -1.3358 -0.6471
  230MOL0     H31014  -1.130   2.551   1.591  0.7090  1.5283 -1.3204
  230MOL0     H31015  -1.354   2.549   1.693 -1.6927  1.4392  2.0498
  230MOL0     H31016  -1.425   2.808   2.074  2.0492 -0.1546 -1.8678
  230MOL0     H31017  -1.482   2.855   1.916  2.0605 -1.0264 -0.3024
  230MOL0     H31018  -1.686   2.821   2.032 -0.7588 -0.2555 -3.5656
  230MOL0     H31019  -1.688   2.689   1.938 -0.3358 -0.4950  1.1445
  230MOL0     H31020  -1.618   2.688   2.231 -0.2088  0.0226  0.0878
  230MOL0     H31021  -1.594   2.549   2.132 -0.6425  0.1060  1.0448
  230MOL0     H31022  -1.856   2.704   2.179 -1.2195 -0.9862 -1.9010
  230MOL0     H31023  -1.840   2.581   2.061  2.0637  3.0439 -1.9140
  230MOL0     H31024  -1.755   2.558   2.363  2.7123  0.7488 -1.1468
  230MOL0     H31025  -1.759   2.419   2.245 -2.3353 -1.5931  0.8160
  230MOL0     H31026  -1.937   2.401   2.411  0.5557 -0.5428 -0.3446
  230MOL0     H31027  -2.010   2.553   2.349  3.0614  1.4584  5.4244
  230MOL0     H31028  -1.973   2.280   2.222  0.6928 -0.5669  1.8509
  230MOL0     H31029  -2.008   2.429   2.133  0.0616  0.2334  0.5521
  230MOL0     H31030  -2.200   2.273   2.192 -2.3460  2.9390 -1.7180
  230MOL0     H31031  -2.229   2.442   2.222  0.9611 -0.2504 -3.7988
  230MOL0     H31032  -1.207   2.784   2.025  0.6756  1.5270 -0.8248
  230MOL0     H31033  -0.999   2.817   1.918 -0.4507  2.5013 -2.2356
  230MOL0     H31034  -0.729   2.550   1.612  1.9741 -0.3996  1.6477
  230MOL0     H31035  -0.535   2.499   1.479 -0.6847  0.4509 -2.5820
  230MOL0     H31036   1.302   2.328   1.567 -2.0500  0.5725 -4.1093
  230MOL0     H31037   1.416   2.533   1.631 -0.0144  2.0553 -1.5904
  230MOL0     H31038   1.501   2.909   1.660 -1.5617  0.2597 -0.7252
  230MOL0     H31039   1.693   3.061   1.765 -1.2828 -0.1500 -1.9021
  230MOL0     H31040   1.603   3.232   2.153 -0.6264 -1.6939 -0.6911
  230MOL0     H31041   1.748   3.309   2.139  0.1307  1.1041 -0.1190
  230MOL0     H31042   1.622   3.491   2.107 -0.0529  0.1831 -0.1170
  230MOL0     H31043   1.485   3.389   2.027 -0.8176  1.3601 -2.9321
  230MOL0     H31044   1.601   3.406   1.821 -1.3968  0.9022 -0.7062
  230MOL0     H31045   1.754   3.458   1.909 -0.5616  0.4270 -1.4915
  230MOL0     H31046   1.666   3.640   1.779 -2.3434 -1.4238 -1.2649
  230MOL0     H31047   1.654   3.679   1.945 -0.1228  0.0758 -0.0611
  230MOL0     H31048   1.257   3.694   1.785  0.2020 -0.2683 -2.5894
  230MOL0     H31049   1.425   3.180   2.065  1.5096  2.7487 -1.8309
  230MOL0     H31050   1.237   3.065   1.955  0.5927  2.0189  0.0523
  231MOL0     O31051   6.481   2.467   4.017 -0.5360  0.2204 -0.1397
  231MOL0     C31052   6.495   2.502   3.901  0.6443 -0.7262  0.4839
  231MOL0     O31053   6.398   2.497   3.800  0.2097  0.5154 -0.4866
  231MOL0     C31054   6.285   2.429   3.835  0.2960 -0.6983 -0.4302
  231MOL0     C31055   6.290   2.294   3.871  0.1657  0.0748 -0.0728
  231MOL0     C31056   6.179   2.237   3.914  0.6058  1.1962 -0.1015
  231MOL0     C31057   6.047   2.295   3.904 -0.5665  0.8543 -0.5450
  231MOL0     O31058   5.940   2.225   3.940 -0.3127  0.1852 -0.0883
  231MOL0     C31059   5.805   2.254   3.889  1.0010 -0.4439  0.6121
  231MOL0     C31060   5.724   2.125   3.922  0.6675  0.3995  0.0256
  231MOL0     C31061   5.573   2.149   3.950 -0.6996  0.3978  0.6599
  231MOL0     C31062   5.505   2.220   3.825  0.2730  1.0203 -0.1846
  231MOL0     C31063   5.355   2.206   3.820 -0.6341  0.1769  1.0280
  231MOL0     C31064   5.293   2.065   3.824 -0.3958  0.4186 -0.2638
  231MOL0     C31065   5.143   2.060   3.840  0.6847  0.7943  0.3368
  231MOL0     C31066   5.098   1.925   3.905 -0.0206 -0.2590  0.2641
  231MOL0     N31067   4.955   1.907   3.882 -0.6307  0.3846  0.6033
  231MOL0     C31068   4.897   1.803   3.812 -0.0842 -0.5266  0.1350
  231MOL0     C31069   4.764   1.819   3.821 -0.1951 -0.5004  0.5030
  231MOL0     C31070   4.657   1.721   3.766 -0.4581  0.3984  0.3679
  231MOL0     C31071   4.508   1.756   3.795  0.1579 -0.1855 -0.1857
  231MOL0     C31072   4.428   1.642   3.740  0.5015 -0.0525  0.0482
  231MOL0     C31073   4.285   1.672   3.765  0.6428  0.1636  0.6050
  231MOL0     O31074   4.196   1.572   3.712 -0.8319  0.2883 -0.2753
  231MOL0     C31075   4.083   1.551   3.779 -0.0082  0.9448 -0.8466
  231MOL0     C31076   4.085   1.462   3.889 -0.1786  1.0832 -0.5948
  231MOL0     C31077   3.976   1.444   3.982  0.2107 -1.0213  0.3933
  231MOL0     C31078   3.994   1.347   4.077 -0.4195  0.2300 -0.6601
  231MOL0     C31079   3.861   1.525   3.963 -0.0762 -0.7716 -0.0464
  231MOL0     C31080   3.737   1.527   4.040 -0.0297  0.1545  0.4219
  231MOL0     O31081   3.725   1.438   4.135 -0.3176  0.5976  0.2812
  231MOL0     C31082   3.596   1.410   4.166 -0.2518  0.2692 -0.4590
  231MOL0     C31083   3.565   1.428   4.299  0.3675 -0.3615  0.1050
  231MOL0     C31084   3.438   1.393   4.344 -1.1808 -0.7358  0.0550
  231MOL0     C31085   3.344   1.339   4.257  0.0322 -0.0069 -0.7696
  231MOL0     O31086   3.228   1.321   4.325 -0.1130  0.0274  0.1413
  231MOL0     C31087   3.144   1.218   4.285  0.2587 -0.0972 -0.7956
  231MOL0     C31088   3.074   1.155   4.406  0.0518  0.2159 -0.4885
  231MOL0     C31089   2.948   1.066   4.371  1.0500  0.8712 -0.1733
  231MOL0     C31090   2.853   1.039   4.491  0.3698  0.1758 -0.1271
  231MOL0     C31091   2.766   0.922   4.461  0.0491  0.5866  0.2385
  231MOL0     C31092   2.670   0.934   4.340 -0.0728 -0.0992  0.2057
  231MOL0     C31093   2.572   1.057   4.337  0.0936  0.5634 -0.6493
  231MOL0     C31094   2.482   1.049   4.215 -0.5492 -1.1159  0.1496
  231MOL0    Cl31095   2.386   1.206   4.196  0.1896 -0.5813  0.1465
  231MOL0     C31096   3.373   1.312   4.125  0.5948 -0.7325 -0.4364
  231MOL0     C31097   3.502   1.349   4.075  0.0848 -0.7380 -0.5878
  231MOL0     O31098   3.652   1.609   4.011  0.9942 -0.1770  0.3693
  231MOL0     C31099   3.869   1.622   3.858 -0.1207  0.1755 -0.3501
  231MOL0     C31100   3.978   1.631   3.771  0.2463  0.5190 -0.1498
  231MOL0     N31101   4.749   1.941   3.882  0.8811 -0.9059 -0.7239
  231MOL0     N31102   4.859   1.981   3.934 -0.2819  0.4083  0.3548
  231MOL0     C31103   6.043   2.425   3.868  0.5812  0.3905  1.0695
  231MOL0     C31104   6.162   2.499   3.848  0.3680  0.5460 -0.3321
  231MOL0     C31105   6.631   2.563   3.875 -1.3042  0.0704  0.5410
  231MOL0     C31106   6.735   2.560   3.981 -0.6254 -0.2921 -0.3996
  231MOL0     C31107   6.861   2.623   3.964 -0.2071  0.1261  0.3070
  231MOL0     C31108   6.891   2.679   3.848  0.7304 -0.6874  0.8934
  231MOL0     O31109   6.998   2.756   3.823  0.4251  0.3704  0.1197
  231MOL0     C31110   7.085   2.693   3.735 -0.8210  0.9932  0.4405
  231MOL0     C31111   7.163   2.569   3.800 -0.4891 -0.3809  0.0265
  231MOL0     C31112   7.310   2.556   3.742  0.0527 -0.7257  0.5713
  231MOL0     C31113   7.316   2.436   3.641  0.1628 -0.1888 -1.0904
  231MOL0     C31114   7.234   2.472   3.519 -0.1479 -0.6305 -0.4225
  231MOL0     C31115   7.194   2.530   3.424 -0.5540  0.7808  0.0566
  231MOL0     C31116   6.787   2.675   3.737 -1.1211 -0.8497  0.4442
  231MOL0     C31117   6.661   2.621   3.750 -0.4452  0.1073  0.5020
  231MOL0     H31118   6.377   2.228   3.869 -0.4036 -0.7130  0.4453
  231MOL0     H31119   6.189   2.138   3.957  0.8295  0.1758 -2.3351
  231MOL0     H31120   5.760   2.333   3.950 -0.1798 -0.7770  0.2036
  231MOL0     H31121   5.795   2.286   3.785  0.0642  0.8238  1.0660
  231MOL0     H31122   5.742   2.059   3.836  1.7575  1.6170 -0.7069
  231MOL0     H31123   5.774   2.076   4.006  1.5222 -0.4890 -0.9721
  231MOL0     H31124   5.535   2.048   3.969 -3.4042  0.7228 -2.1327
  231MOL0     H31125   5.553   2.201   4.044 -2.4096  1.3666 -0.1991
  231MOL0     H31126   5.536   2.324   3.829 -0.3755  1.2147  0.0422
  231MOL0     H31127   5.545   2.170   3.737  0.2971 -0.9929  0.8833
  231MOL0     H31128   5.308   2.276   3.889 -1.2116  2.4975 -1.5429
  231MOL0     H31129   5.326   2.245   3.722 -2.6920 -1.9189  0.7026
  231MOL0     H31130   5.307   2.010   3.731 -2.7811 -1.9709  0.6513
  231MOL0     H31131   5.335   2.007   3.907 -0.0193 -2.1856 -2.1571
  231MOL0     H31132   5.094   2.136   3.902 -0.9057 -1.6321  2.2539
  231MOL0     H31133   5.097   2.076   3.742  4.6464  2.8663 -1.3785
  231MOL0     H31134   5.109   1.934   4.013 -1.1685  1.0864  0.2880
  231MOL0     H31135   5.156   1.841   3.866 -0.3910 -1.1529  1.5904
  231MOL0     H31136   4.938   1.717   3.760 -0.4258  1.3400 -3.5804
  231MOL0     H31137   4.659   1.718   3.656 -0.4929  1.5360  0.3219
  231MOL0     H31138   4.679   1.621   3.805 -0.5158  0.0709 -0.4223
  231MOL0     H31139   4.492   1.848   3.739 -0.7168  2.3504  3.7937
  231MOL0     H31140   4.505   1.780   3.902  0.4367 -0.3429 -0.1401
  231MOL0     H31141   4.448   1.540   3.774 -1.5903 -0.0032  1.6041
  231MOL0     H31142   4.444   1.651   3.632  0.8451  2.5803  0.2533
  231MOL0     H31143   4.255   1.765   3.716 -0.9050 -1.0637 -0.8960
  231MOL0     H31144   4.265   1.693   3.871  1.8370  3.3762  0.3247
  231MOL0     H31145   4.179   1.409   3.880  0.8613  2.4082  1.4949
  231MOL0     H31146   4.092   1.299   4.073 -0.4738  0.1504 -4.4567
  231MOL0     H31147   3.987   1.395   4.175 -1.9960  1.2904 -1.2516
  231MOL0     H31148   3.916   1.271   4.069 -1.9762  1.7425 -0.3790
  231MOL0     H31149   3.642   1.464   4.367 -0.8167  1.0204  0.7586
  231MOL0     H31150   3.410   1.431   4.442  0.4841  1.4702 -0.2424
  231MOL0     H31151   3.074   1.256   4.210  0.2381 -0.7751 -1.1297
  231MOL0     H31152   3.197   1.142   4.228  0.7848  1.7365 -2.8685
  231MOL0     H31153   3.147   1.095   4.462 -0.0580 -0.9366 -1.5198
  231MOL0     H31154   3.046   1.240   4.468 -0.3617  0.2597 -0.7394
  231MOL0     H31155   2.986   0.972   4.331 -1.3748  1.2631 -3.8001
  231MOL0     H31156   2.894   1.112   4.288  0.0554  0.5872  0.3053
  231MOL0     H31157   2.916   1.020   4.578 -0.0849  1.1023  0.4180
  231MOL0     H31158   2.784   1.121   4.515 -1.1919 -0.4304 -2.2128
  231MOL0     H31159   2.715   0.905   4.556 -0.5141 -3.2554 -0.6055
  231MOL0     H31160   2.833   0.837   4.443 -1.4179 -0.1884 -2.0422
  231MOL0     H31161   2.736   0.927   4.252  0.3824  1.4254  0.3983
  231MOL0     H31162   2.602   0.848   4.337 -2.5818  1.7864 -0.3638
  231MOL0     H31163   2.631   1.146   4.359  2.1388 -0.8864  0.1128
  231MOL0     H31164   2.511   1.039   4.425 -0.6195 -1.5338 -1.5022
  231MOL0     H31165   2.421   0.959   4.228 -1.3757 -0.7464 -1.0255
  231MOL0     H31166   2.545   1.035   4.127  0.8482  0.5907  0.8175
  231MOL0     H31167   3.288   1.276   4.068 -1.7948  0.2826  2.2473
  231MOL0     H31168   3.527   1.327   3.972  0.4377 -0.1409 -0.6334
  231MOL0     H31169   3.801   1.702   3.832  0.1232  0.9217  1.2132
  231MOL0     H31170   3.982   1.716   3.703  0.7760 -0.0279 -0.8240
  231MOL0     H31171   5.950   2.479   3.851  0.3807 -0.1651  0.3451
  231MOL0     H31172   6.157   2.599   3.807  1.9270 -0.5747 -3.6175
  231MOL0     H31173   6.723   2.506   4.074 -0.9728  0.6278  0.1088
  231MOL0     H31174   6.931   2.639   4.046  1.6266 -1.3067 -0.9027
  231MOL0     H31175   7.050   2.657   3.638  0.7431  1.1491 -0.2105
  231MOL0     H31176   7.157   2.770   3.708 -2.0288  1.8630 -0.3965
  231MOL0     H31177   7.105   2.477   3.784 -0.9458 -0.4171  1.7728
  231MOL0     H31178   7.167   2.580   3.908  2.2214 -3.6673  0.4360
  231MOL0     H31179   7.382   2.540   3.823  1.2082 -0.7920 -0.4442
  231MOL0     H31180   7.337   2.644   3.683  1.7164 -2.8404 -2.0768
  231MOL0     H31181   7.272   2.343   3.678  1.7905 -0.8803 -0.8085
  231MOL0     H31182   7.419   2.415   3.611  0.1116 -0.5137 -1.0374
  231MOL0     H31183   7.151   2.571   3.335  1.8460 -0.6325 -1.8703
  231MOL0     H31184   6.823   2.729   3.650 -0.7498  3.0849  2.8070
  231MOL0     H31185   6.594   2.627   3.665  0.3594 -1.7438 -0.3300
  232MOL0     O31186   4.371   3.586   9.842  0.1497 -0.2273 -0.3526
  232MOL0     C31187   4.279   3.508   9.877 -0.9294 -0.2072 -0.7082
  232MOL0     O31188   4.152   3.504   9.826  0.8690  0.3018  0.3613
  232MOL0     C31189   4.137   3.538   9.694  1.0628 -0.8905  0.5831
  232MOL0     C31190   4.077   3.442   9.604 -0.7567 -0.0098 -0.1744
  232MOL0     C31191   4.065   3.478   9.472 -0.7349  0.0458 -1.4800
  232MOL0     C31192   4.108   3.598   9.423 -0.3264  1.3165 -1.0650
  232MOL0     O31193   4.104   3.635   9.297 -0.8117  0.6361  0.8113
  232MOL0     C31194   3.979   3.605   9.244  0.6347 -0.4761 -1.4894
  232MOL0     C31195   3.971   3.690   9.117 -0.0539 -1.0034  0.3819
  232MOL0     C31196   3.845   3.663   9.020 -0.7877 -0.1668 -0.8615
  232MOL0     C31197   3.726   3.738   9.071  0.5334  0.7547 -0.6844
  232MOL0     C31198   3.582   3.715   9.002  0.1232  0.2699 -0.3393
  232MOL0     C31199   3.469   3.768   9.088  0.7249  0.9315 -0.6896
  232MOL0     C31200   3.339   3.794   9.015  0.0176  0.2565  0.3017
  232MOL0     C31201   3.230   3.850   9.112  0.8197 -0.0932 -0.5725
  232MOL0     N31202   3.093   3.830   9.085  0.5260  0.7413  0.4088
  232MOL0     C31203   2.985   3.848   9.169  0.6435  0.7071  0.2558
  232MOL0     C31204   2.885   3.814   9.092 -0.0098 -0.4377  0.6581
  232MOL0     C31205   2.736   3.807   9.132 -0.2060 -0.3970 -0.2238
  232MOL0     C31206   2.666   3.951   9.124  0.1593  0.3566 -0.0128
  232MOL0     C31207   2.537   3.969   9.222 -0.4231  0.4455  0.6208
  232MOL0     C31208   2.404   3.921   9.163 -0.2169 -0.7270 -0.5954
  232MOL0     O31209   2.421   3.800   9.095 -0.2325 -0.2499  0.0366
  232MOL0     C31210   2.305   3.739   9.055 -0.2176 -0.0230 -0.6730
  232MOL0     C31211   2.312   3.603   9.053 -0.6208  0.1032  0.0421
  232MOL0     C31212   2.207   3.518   9.007 -0.1526 -0.3592 -0.6219
  232MOL0     C31213   2.241   3.372   9.013 -1.1744  0.4124 -0.0185
  232MOL0     C31214   2.082   3.584   8.979 -0.6258  0.0267  0.0639
  232MOL0     C31215   1.966   3.511   8.936  0.1120  0.0008  0.6427
  232MOL0     O31216   1.849   3.579   8.925 -0.0686  0.3292  0.5809
  232MOL0     C31217   1.733   3.510   8.908 -0.2020 -0.1577  0.8054
  232MOL0     C31218   1.687   3.468   8.779 -0.2009 -0.4902 -0.5277
  232MOL0     C31219   1.560   3.425   8.771 -0.9411  0.0733 -0.1548
  232MOL0     C31220   1.467   3.438   8.875 -0.2272  0.6303 -0.1982
  232MOL0     O31221   1.329   3.414   8.863  0.5902  0.3169  1.0170
  232MOL0     C31222   1.283   3.415   8.727 -0.1827  0.2186 -0.2450
  232MOL0     C31223   1.140   3.405   8.712 -0.1928  0.3071 -0.0297
  232MOL0     C31224   1.073   3.272   8.743 -0.3819  0.0319 -0.8087
  232MOL0     C31225   0.928   3.275   8.697  0.1414 -0.6215  0.2115
  232MOL0     C31226   0.868   3.134   8.701 -0.8362  0.0123  0.1406
  232MOL0     C31227   0.903   3.044   8.815 -0.1343 -0.0234 -0.8012
  232MOL0     C31228   0.848   2.903   8.797  0.4858  0.4522 -0.2306
  232MOL0     C31229   0.846   2.839   8.942  0.1230  0.2169 -1.0148
  232MOL0    Cl31230   0.765   2.673   8.938  0.1355  0.3072  0.1763
  232MOL0     C31231   1.516   3.467   9.002 -0.3835  0.0241 -0.8636
  232MOL0     C31232   1.653   3.499   9.021  0.6095  0.4427  0.5603
  232MOL0     O31233   1.983   3.398   8.901  0.8237 -0.4727  0.0714
  232MOL0     C31234   2.073   3.724   9.001  0.4125  0.2821  0.0946
  232MOL0     C31235   2.178   3.800   9.034 -0.3449 -0.4424  0.2552
  232MOL0     N31236   2.922   3.768   8.965 -0.4056  0.2857 -1.0994
  232MOL0     N31237   3.046   3.780   8.965  0.2581 -0.1239 -0.0045
  232MOL0     C31238   4.168   3.697   9.499 -0.5953  0.1277 -0.4937
  232MOL0     C31239   4.174   3.669   9.640 -0.1926 -0.2192 -0.6628
  232MOL0     C31240   4.323   3.403   9.969  0.0246  0.0691 -0.1808
  232MOL0     C31241   4.444   3.405  10.049 -0.5022  0.1474 -0.7885
  232MOL0     C31242   4.483   3.283  10.118 -0.0737  0.8347 -0.3792
  232MOL0     C31243   4.402   3.180  10.124  0.0216 -0.5968  0.7122
  232MOL0     O31244   4.452   3.065  10.182  0.2398  0.2998  0.5331
  232MOL0     C31245   4.377   2.946  10.164  0.3987  0.2082  0.1615
  232MOL0     C31246   4.269   2.931  10.268 -1.6082  0.6397  0.2141
  232MOL0     C31247   4.306   2.942  10.415  1.2183 -0.7266  0.5098
  232MOL0     C31248   4.361   2.812  10.470 -0.3014 -1.0112  0.6162
  232MOL0     C31249   4.370   2.807  10.616  0.2310 -0.4090 -0.1146
  232MOL0     C31250   4.352   2.795  10.735  0.6009 -0.0864 -0.6588
  232MOL0     C31251   4.278   3.181  10.056  0.0129  0.3759 -0.7013
  232MOL0     C31252   4.243   3.288   9.968 -0.5916  0.3886  0.2726
  232MOL0     H31253   4.047   3.342   9.633  2.3040 -1.2282 -0.7356
  232MOL0     H31254   4.030   3.400   9.405  1.9995 -1.1088 -1.6776
  232MOL0     H31255   3.966   3.498   9.225  1.8307 -1.1643  1.1089
  232MOL0     H31256   3.899   3.650   9.304  2.4697 -0.3184  0.9965
  232MOL0     H31257   3.977   3.799   9.133 -0.7557 -1.0829  1.2436
  232MOL0     H31258   4.056   3.647   9.063  2.7449 -0.8034  4.1515
  232MOL0     H31259   3.872   3.702   8.922 -1.7761 -3.3099 -2.4955
  232MOL0     H31260   3.815   3.561   8.997  0.4131 -0.0150 -3.4883
  232MOL0     H31261   3.710   3.705   9.174  0.4239  1.6837 -0.3874
  232MOL0     H31262   3.753   3.844   9.075  1.3287  0.6943 -3.0362
  232MOL0     H31263   3.579   3.748   8.898 -1.9442 -1.3479 -0.8588
  232MOL0     H31264   3.564   3.607   8.995 -0.3330  0.1585  1.9323
  232MOL0     H31265   3.453   3.705   9.176  1.4912 -0.1427 -1.2813
  232MOL0     H31266   3.496   3.864   9.131 -0.7856  0.9149  0.3572
  232MOL0     H31267   3.362   3.861   8.931  2.8756 -1.7056 -0.6129
  232MOL0     H31268   3.302   3.704   8.965  0.1572  1.2605 -1.7361
  232MOL0     H31269   3.245   3.959   9.117 -0.5130  0.0586  1.8346
  232MOL0     H31270   3.254   3.830   9.217 -2.5250  1.9238  0.7272
  232MOL0     H31271   2.969   3.883   9.270 -1.7802 -4.6105  2.1377
  232MOL0     H31272   2.666   3.742   9.079  0.8777 -0.5069 -1.5945
  232MOL0     H31273   2.743   3.766   9.233 -0.3971  2.7687  1.2208
  232MOL0     H31274   2.636   3.960   9.020 -0.0557  2.3345  0.1727
  232MOL0     H31275   2.742   4.029   9.139 -0.5195  1.4649 -2.0530
  232MOL0     H31276   2.513   4.074   9.243 -0.2545  0.9641 -1.5674
  232MOL0     H31277   2.549   3.915   9.316 -2.1267 -0.5796  0.2999
  232MOL0     H31278   2.371   4.000   9.095 -0.2705 -0.4719 -0.2754
  232MOL0     H31279   2.323   3.924   9.236  1.2243 -1.7617  1.1338
  232MOL0     H31280   2.411   3.570   9.084  0.1708  0.7982 -1.6113
  232MOL0     H31281   2.323   3.357   9.084  0.2373 -1.0788 -1.8666
  232MOL0     H31282   2.152   3.321   9.051 -0.4757  0.1641  1.3499
  232MOL0     H31283   2.281   3.332   8.919  1.9628 -1.4703  1.9421
  232MOL0     H31284   1.759   3.466   8.698  1.1123 -4.3844  0.5184
  232MOL0     H31285   1.530   3.390   8.672  1.7394 -5.6208  0.6586
  232MOL0     H31286   1.320   3.511   8.689  1.0333 -0.1410 -0.0316
  232MOL0     H31287   1.324   3.333   8.667 -1.0702 -0.0693 -0.4624
  232MOL0     H31288   1.102   3.485   8.776  1.7987 -0.9369  2.9029
  232MOL0     H31289   1.107   3.430   8.610 -2.0359 -3.0364 -0.3988
  232MOL0     H31290   1.087   3.266   8.851  2.0499  1.0721 -1.0184
  232MOL0     H31291   1.133   3.193   8.698  0.5738 -0.1323  0.7196
  232MOL0     H31292   0.862   3.339   8.756 -2.2974 -1.2268 -1.7330
  232MOL0     H31293   0.927   3.317   8.596  0.4061 -4.5490 -1.5749
  232MOL0     H31294   0.911   3.083   8.615  0.0017  1.4845 -0.3516
  232MOL0     H31295   0.759   3.139   8.701 -0.9333 -1.4895  1.3796
  232MOL0     H31296   1.012   3.045   8.816  0.0005 -2.5239  1.8014
  232MOL0     H31297   0.870   3.088   8.910  0.8023 -0.3303 -0.3181
  232MOL0     H31298   0.915   2.847   8.732  0.6107  1.9793 -1.4967
  232MOL0     H31299   0.744   2.907   8.763  0.7295  2.1408 -0.8978
  232MOL0     H31300   0.781   2.891   9.013  0.4249 -0.5048 -0.1826
  232MOL0     H31301   0.946   2.839   8.987 -0.1005 -0.8832 -0.4842
  232MOL0     H31302   1.445   3.458   9.083  2.8776 -1.8622  2.0665
  232MOL0     H31303   1.692   3.530   9.118  0.4551  2.0869  0.1280
  232MOL0     H31304   1.986   3.782   8.974  0.4356 -0.1084 -0.8519
  232MOL0     H31305   2.166   3.908   9.043 -2.3965 -0.5820 -0.2708
  232MOL0     H31306   4.195   3.795   9.462 -0.1078  0.2467  0.1615
  232MOL0     H31307   4.195   3.737   9.723 -0.9456 -0.7435 -0.0241
  232MOL0     H31308   4.506   3.494  10.048 -1.8611  1.1521 -3.0303
  232MOL0     H31309   4.581   3.271  10.161 -0.4140  1.8426  0.7545
  232MOL0     H31310   4.331   2.930  10.066  0.4865  0.2506  0.1146
  232MOL0     H31311   4.457   2.871  10.171 -2.0264 -2.4415  1.5907
  232MOL0     H31312   4.223   2.832  10.252 -1.0914  0.3571  0.4484
  232MOL0     H31313   4.187   3.001  10.247 -4.0443 -2.5793 -2.1262
  232MOL0     H31314   4.220   2.961  10.478  1.7969 -0.2362  1.1701
  232MOL0     H31315   4.371   3.030  10.427  1.1861 -0.3643 -1.4790
  232MOL0     H31316   4.453   2.785  10.418  0.0161  0.3458  0.4406
  232MOL0     H31317   4.296   2.726  10.453 -1.8478 -0.4006  2.8794
  232MOL0     H31318   4.348   2.783  10.841 -0.3245 -3.6401 -0.9492
  232MOL0     H31319   4.208   3.099  10.048  0.2400 -0.4040  3.3454
  232MOL0     H31320   4.159   3.263   9.905  0.7423 -1.1084 -0.9892
  233MOL0     O31321   7.245   7.812   2.478  0.1409 -0.0877 -0.3251
  233MOL0     C31322   7.239   7.817   2.354  1.7557  0.6937 -0.6281
  233MOL0     O31323   7.120   7.818   2.286  0.5548  0.2674  0.4818
  233MOL0     C31324   7.006   7.860   2.353 -0.5040 -1.0756 -0.7651
  233MOL0     C31325   6.902   7.770   2.378  0.1807 -0.1212 -0.3207
  233MOL0     C31326   6.794   7.813   2.455  0.7245 -0.0058  0.3267
  233MOL0     C31327   6.780   7.941   2.499  0.1642 -0.8958 -0.3645
  233MOL0     O31328   6.665   7.970   2.563  0.2836  0.2932 -0.2726
  233MOL0     C31329   6.676   8.017   2.701  0.4761 -0.5341 -0.0340
  233MOL0     C31330   6.559   8.095   2.737  0.4315  0.3306 -0.2128
  233MOL0     C31331   6.424   8.019   2.753 -0.1821  0.5624 -0.5237
  233MOL0     C31332   6.321   8.088   2.840  0.0450  0.1349  0.3145
  233MOL0     C31333   6.264   8.208   2.777  0.3428 -0.2319  0.5158
  233MOL0     C31334   6.131   8.255   2.838  0.3095  1.3662  0.0508
  233MOL0     C31335   5.998   8.183   2.797  0.0081  0.0570 -0.7529
  233MOL0     C31336   5.993   8.175   2.648  0.5959  0.0930 -0.1951
  233MOL0     N31337   5.872   8.109   2.617  1.1329 -1.2673  0.0405
  233MOL0     C31338   5.749   8.167   2.613 -0.9357  0.0041 -1.3272
  233MOL0     C31339   5.665   8.070   2.576  0.5731  0.6077  0.6370
  233MOL0     C31340   5.508   8.070   2.575  0.1710 -0.4794  0.4870
  233MOL0     C31341   5.460   8.198   2.492  0.0145  0.7729 -1.2811
  233MOL0     C31342   5.463   8.169   2.340  0.1166  0.2243 -0.4772
  233MOL0     C31343   5.427   8.277   2.240  0.3665  0.1580  0.7973
  233MOL0     O31344   5.301   8.340   2.274  0.9076 -0.5016  0.6376
  233MOL0     C31345   5.180   8.263   2.283  0.6358 -0.9588  0.2412
  233MOL0     C31346   5.134   8.143   2.233 -0.6024 -0.5331 -0.2701
  233MOL0     C31347   5.004   8.096   2.251  0.3342  0.9193  0.4304
  233MOL0     C31348   4.973   7.964   2.194  0.0663 -0.2417  0.9338
  233MOL0     C31349   4.914   8.172   2.324 -0.1275 -1.0924 -0.5538
  233MOL0     C31350   4.776   8.138   2.356  0.1033  0.2411 -0.2745
  233MOL0     O31351   4.723   8.209   2.463 -0.4156  0.0055  0.3880
  233MOL0     C31352   4.596   8.162   2.500 -0.3233 -0.7613  0.8299
  233MOL0     C31353   4.580   8.040   2.558  0.3082  0.3318  0.1331
  233MOL0     C31354   4.453   7.993   2.595 -0.5881 -0.4693  0.4753
  233MOL0     C31355   4.347   8.085   2.576  1.2580  0.7312  0.4217
  233MOL0     O31356   4.225   8.048   2.612 -0.5301  0.2741 -0.5965
  233MOL0     C31357   4.154   8.003   2.494 -0.4808  0.3371  0.2380
  233MOL0     C31358   4.188   7.855   2.459 -0.6424  0.3942 -0.4877
  233MOL0     C31359   4.104   7.791   2.354 -0.1935  0.1026 -0.6607
  233MOL0     C31360   4.166   7.663   2.302 -0.2894  0.0041  0.9799
  233MOL0     C31361   4.059   7.589   2.211 -0.2927  0.0783  0.5121
  233MOL0     C31362   3.980   7.667   2.100 -0.6920  0.0230 -0.3410
  233MOL0     C31363   3.872   7.603   2.010  0.7202  0.1174  0.8312
  233MOL0     C31364   3.917   7.471   1.936  0.4769  0.3948  0.0047
  233MOL0    Cl31365   3.780   7.404   1.839  0.1690  0.1445 -0.2422
  233MOL0     C31366   4.368   8.216   2.531  0.4883 -0.0056  0.2563
  233MOL0     C31367   4.490   8.246   2.475  0.7289 -0.0861 -0.7560
  233MOL0     O31368   4.723   8.044   2.291 -0.0047 -0.1044 -0.4065
  233MOL0     C31369   4.959   8.284   2.379 -0.4860 -0.0495 -0.1801
  233MOL0     C31370   5.090   8.340   2.359  0.5577  0.5503 -0.4891
  233MOL0     N31371   5.734   7.957   2.539 -0.0509 -0.8446  0.1213
  233MOL0     N31372   5.859   7.986   2.571 -0.0693 -0.3056 -0.1281
  233MOL0     C31373   6.886   8.028   2.487  0.2694  0.0880 -0.2686
  233MOL0     C31374   6.996   7.993   2.410 -0.7559 -0.5765  0.6544
  233MOL0     C31375   7.359   7.793   2.278  0.4451 -0.2022 -1.3633
  233MOL0     C31376   7.475   7.776   2.348  0.4621 -0.3250 -0.5965
  233MOL0     C31377   7.599   7.790   2.289 -0.1516 -0.6299  0.3059
  233MOL0     C31378   7.609   7.840   2.157 -0.4456 -0.0272  0.5376
  233MOL0     O31379   7.715   7.879   2.087  0.1950 -0.3106 -0.0175
  233MOL0     C31380   7.834   7.803   2.111  1.4439  0.5136  0.2055
  233MOL0     C31381   7.937   7.872   2.191  0.3683 -0.0986 -0.3623
  233MOL0     C31382   7.990   7.997   2.110 -0.4329 -0.4290 -0.2458
  233MOL0     C31383   8.025   8.120   2.199 -0.1966  0.3026 -0.6622
  233MOL0     C31384   8.053   8.226   2.101  0.3743 -0.0651  0.4911
  233MOL0     C31385   8.087   8.317   2.026  0.1899 -0.4220 -0.6239
  233MOL0     C31386   7.487   7.855   2.087 -0.0516  0.0796 -0.4343
  233MOL0     C31387   7.367   7.819   2.144 -0.3024 -0.8113 -0.3309
  233MOL0     H31388   6.904   7.667   2.346 -1.9243  0.1124 -1.3482
  233MOL0     H31389   6.712   7.744   2.473  0.0630  0.9205  0.9093
  233MOL0     H31390   6.690   7.929   2.765  1.3601  0.3954  1.1112
  233MOL0     H31391   6.762   8.083   2.716  1.2574 -0.7833 -2.8797
  233MOL0     H31392   6.567   8.130   2.841  0.7352 -3.3078  1.1243
  233MOL0     H31393   6.552   8.171   2.659 -0.3085 -0.8320 -1.3132
  233MOL0     H31394   6.398   7.995   2.649  3.0788  1.5127 -1.6625
  233MOL0     H31395   6.443   7.922   2.800  0.4074  2.1941  2.8823
  233MOL0     H31396   6.238   8.017   2.835 -0.6045  0.8062 -5.1789
  233MOL0     H31397   6.347   8.104   2.945 -0.6721 -0.1420  0.5395
  233MOL0     H31398   6.339   8.287   2.789 -0.1010  0.0680  1.4302
  233MOL0     H31399   6.251   8.190   2.670  2.5238  1.5054 -0.1253
  233MOL0     H31400   6.128   8.248   2.947 -2.8258  2.3699  0.1438
  233MOL0     H31401   6.124   8.363   2.821  1.9864  1.9123  2.3806
  233MOL0     H31402   5.976   8.086   2.841 -0.3587  0.0419 -0.9606
  233MOL0     H31403   5.919   8.244   2.841  1.3719  0.2963  1.4888
  233MOL0     H31404   6.077   8.125   2.598  0.0307  1.1823 -2.3931
  233MOL0     H31405   5.995   8.271   2.594 -0.5498 -1.4472 -3.2363
  233MOL0     H31406   5.723   8.269   2.640  2.3807  0.3436  1.1968
  233MOL0     H31407   5.460   7.973   2.555 -4.8409  1.7359  0.4346
  233MOL0     H31408   5.479   8.093   2.677  1.2461 -0.7163  0.8686
  233MOL0     H31409   5.510   8.293   2.510 -1.8172  1.4926  0.4262
  233MOL0     H31410   5.359   8.213   2.530  0.1421 -0.1587 -0.5321
  233MOL0     H31411   5.385   8.094   2.327  0.2331 -0.0561  0.3936
  233MOL0     H31412   5.561   8.125   2.320  1.1515  1.2051  2.0432
  233MOL0     H31413   5.430   8.244   2.136  2.4015 -0.7160  1.0988
  233MOL0     H31414   5.507   8.351   2.248  2.3426 -1.1709 -3.5636
  233MOL0     H31415   5.203   8.087   2.170 -2.5784 -0.1698 -2.9403
  233MOL0     H31416   4.901   7.972   2.112  1.8629 -0.6622 -0.7620
  233MOL0     H31417   5.060   7.923   2.142  0.0295 -0.9801  1.4373
  233MOL0     H31418   4.936   7.889   2.265 -0.4625 -0.7974  0.0865
  233MOL0     H31419   4.663   7.973   2.575  1.5486  1.2296 -1.9419
  233MOL0     H31420   4.455   7.896   2.644  1.1563  0.0608  1.5247
  233MOL0     H31421   4.048   8.020   2.517 -0.7952  3.2223 -2.5273
  233MOL0     H31422   4.162   8.065   2.404  0.9333 -1.8691 -1.2395
  233MOL0     H31423   4.295   7.843   2.443  0.0059 -2.8058  4.1276
  233MOL0     H31424   4.181   7.797   2.552 -0.7104 -0.8985 -1.2759
  233MOL0     H31425   4.096   7.864   2.273  0.5918 -0.9507 -1.7339
  233MOL0     H31426   4.007   7.771   2.402 -0.3177 -1.0455 -1.3467
  233MOL0     H31427   4.252   7.693   2.242 -3.0644  2.2979 -2.2539
  233MOL0     H31428   4.203   7.589   2.374  2.2677  2.3668  2.2756
  233MOL0     H31429   3.994   7.537   2.282  3.0470 -3.8494  1.1133
  233MOL0     H31430   4.117   7.513   2.157  2.1256  0.3084  2.5866
  233MOL0     H31431   3.937   7.751   2.155 -3.0837 -0.8677 -0.7474
  233MOL0     H31432   4.044   7.714   2.024 -1.5549  2.4335  0.3242
  233MOL0     H31433   3.844   7.674   1.932  1.9411  0.0811  0.3320
  233MOL0     H31434   3.786   7.584   2.076  1.2955  0.7929  1.7928
  233MOL0     H31435   3.948   7.396   2.009 -2.9229 -0.5883  0.6227
  233MOL0     H31436   3.998   7.505   1.871  0.1406  3.8539  1.1404
  233MOL0     H31437   4.288   8.288   2.540 -0.0212 -0.5099 -0.1449
  233MOL0     H31438   4.494   8.348   2.437 -0.5392  0.1771 -0.2105
  233MOL0     H31439   4.899   8.352   2.439  0.8961  0.7438  0.3488
  233MOL0     H31440   5.120   8.431   2.410  0.1652 -0.3729  1.4499
  233MOL0     H31441   6.867   8.130   2.516  1.6369  0.2466  0.1334
  233MOL0     H31442   7.071   8.069   2.388 -2.0215  0.5582  0.1285
  233MOL0     H31443   7.482   7.750   2.453 -1.4617 -0.9042 -0.5678
  233MOL0     H31444   7.686   7.770   2.352 -0.0250  1.9128  1.0687
  233MOL0     H31445   7.814   7.701   2.146  1.2696  0.7854  0.9272
  233MOL0     H31446   7.875   7.778   2.012  1.4580 -3.0278  0.9470
  233MOL0     H31447   8.017   7.802   2.215  1.5712  1.2772 -0.2068
  233MOL0     H31448   7.897   7.909   2.286 -1.7447 -0.3753 -1.1003
  233MOL0     H31449   7.916   8.024   2.035 -0.0001 -1.6096 -1.1194
  233MOL0     H31450   8.073   7.972   2.044 -1.7052  0.4380 -2.2949
  233MOL0     H31451   8.113   8.104   2.262  0.6951  0.1670 -1.9039
  233MOL0     H31452   7.939   8.134   2.265  0.6803 -0.1294  0.5994
  233MOL0     H31453   8.092   8.404   1.964 -0.7231 -0.4318 -0.7108
  233MOL0     H31454   7.491   7.894   1.986 -4.3221  1.7843 -0.1480
  233MOL0     H31455   7.275   7.822   2.086 -1.3561 -4.0891  0.9053
  234MOL0     O31456   6.602   5.301   7.822 -0.1651  0.2861 -0.7366
  234MOL0     C31457   6.669   5.207   7.784 -0.6819 -0.2156 -0.1298
  234MOL0     O31458   6.626   5.104   7.695 -0.1592 -0.0744 -0.0197
  234MOL0     C31459   6.514   5.114   7.620  0.0056 -0.1565  0.2969
  234MOL0     C31460   6.457   5.235   7.579 -0.9811  0.0990  0.1423
  234MOL0     C31461   6.340   5.242   7.505  0.1505  0.1647  0.9561
  234MOL0     C31462   6.278   5.119   7.465 -0.6595  0.0287 -0.3155
  234MOL0     O31463   6.157   5.106   7.411  0.4654  0.1150 -0.0865
  234MOL0     C31464   6.102   5.229   7.361  0.0537 -0.0276 -0.5126
  234MOL0     C31465   5.969   5.203   7.293  0.3809  1.7760 -0.3924
  234MOL0     C31466   5.915   5.336   7.240 -0.0997  1.4480 -0.7104
  234MOL0     C31467   5.765   5.314   7.206  0.8499 -0.2761 -0.7704
  234MOL0     C31468   5.729   5.269   7.065  0.0927 -1.0040 -0.1242
  234MOL0     C31469   5.582   5.227   7.037 -0.3886 -0.0969  0.1691
  234MOL0     C31470   5.547   5.185   6.898  0.1495  0.7027  0.4133
  234MOL0     C31471   5.580   5.292   6.792  0.0711 -0.1022  1.0946
  234MOL0     N31472   5.543   5.246   6.663 -0.0319  0.8377 -0.2785
  234MOL0     C31473   5.441   5.289   6.586  1.2115  0.0058 -0.1783
  234MOL0     C31474   5.473   5.261   6.459  0.4816 -0.0119 -0.3730
  234MOL0     C31475   5.389   5.296   6.343  1.1211  0.4452  0.4715
  234MOL0     C31476   5.382   5.193   6.225 -0.4184  0.6816  0.5664
  234MOL0     C31477   5.262   5.213   6.137 -0.7666  0.2043 -0.2419
  234MOL0     C31478   5.130   5.189   6.216 -0.7963 -0.0592 -0.0086
  234MOL0     O31479   5.028   5.190   6.117 -0.0909  0.4893  0.6403
  234MOL0     C31480   4.898   5.150   6.153 -0.4599 -0.4582  0.7846
  234MOL0     C31481   4.860   5.076   6.264 -0.0310  0.6223  0.2069
  234MOL0     C31482   4.722   5.040   6.287 -0.6349 -0.7524  0.2359
  234MOL0     C31483   4.704   4.954   6.409  0.0197  0.5660 -0.5093
  234MOL0     C31484   4.624   5.084   6.193  0.7406 -0.0096  0.5457
  234MOL0     C31485   4.481   5.049   6.213  1.0914 -0.6423  0.5136
  234MOL0     O31486   4.398   5.106   6.116 -0.4219  0.6001 -0.0881
  234MOL0     C31487   4.266   5.073   6.114 -0.1711  0.8722 -0.2417
  234MOL0     C31488   4.179   5.093   6.221  0.0160 -0.4045  0.6001
  234MOL0     C31489   4.049   5.054   6.209  0.3238  0.0134  0.8365
  234MOL0     C31490   3.993   5.002   6.094  1.1452  0.1770 -0.0133
  234MOL0     O31491   3.857   4.963   6.088  0.3450 -0.7255  0.7373
  234MOL0     C31492   3.771   4.955   6.210 -0.0938 -0.5910  0.3225
  234MOL0     C31493   3.628   4.957   6.166 -0.1318 -0.5066 -0.3276
  234MOL0     C31494   3.586   5.076   6.080 -1.0077  0.6415  0.5674
  234MOL0     C31495   3.437   5.060   6.058 -0.6908 -0.1578  0.1847
  234MOL0     C31496   3.370   5.189   6.018 -0.3010  1.1114  1.1770
  234MOL0     C31497   3.225   5.145   5.985 -0.8479 -0.3992 -0.2798
  234MOL0     C31498   3.156   5.272   5.926 -0.1449 -0.2837 -0.4005
  234MOL0     C31499   3.019   5.226   5.870 -0.1501  0.2809 -0.7350
  234MOL0    Cl31500   2.941   5.353   5.790  0.2131 -0.4965 -0.3476
  234MOL0     C31501   4.076   4.981   5.985  0.2208 -0.2005 -0.3663
  234MOL0     C31502   4.215   5.029   5.992  0.0695  0.5213  0.8860
  234MOL0     O31503   4.441   4.975   6.301 -0.4353  0.2656 -0.2246
  234MOL0     C31504   4.661   5.171   6.079 -0.0254  0.4951  0.0496
  234MOL0     C31505   4.802   5.191   6.068  0.7376 -0.1794 -1.0502
  234MOL0     N31506   5.597   5.204   6.452 -0.2134 -0.2759  0.4264
  234MOL0     N31507   5.634   5.200   6.578 -0.3419 -0.1983 -0.3035
  234MOL0     C31508   6.342   4.996   7.487  0.0927 -0.1455  0.8105
  234MOL0     C31509   6.457   4.991   7.567 -0.1167 -0.1571  0.6772
  234MOL0     C31510   6.810   5.191   7.843  0.6574 -0.5102  0.1713
  234MOL0     C31511   6.898   5.093   7.795 -0.5773  0.2857  0.1704
  234MOL0     C31512   7.032   5.094   7.830 -0.2186 -0.0722 -0.2921
  234MOL0     C31513   7.079   5.185   7.924  1.7647 -0.0426  0.0059
  234MOL0     O31514   7.205   5.171   7.957  0.7057 -0.0562 -0.1941
  234MOL0     C31515   7.257   5.224   8.082 -0.1100 -0.0383 -1.1316
  234MOL0     C31516   7.396   5.161   8.114 -0.5253  0.3727  0.0115
  234MOL0     C31517   7.498   5.217   8.015 -0.4985  0.4416 -0.6490
  234MOL0     C31518   7.640   5.151   8.036 -0.6606  0.3622  0.0891
  234MOL0     C31519   7.746   5.247   8.026 -0.3503  0.8467  0.0086
  234MOL0     C31520   7.840   5.324   8.037  0.9862  0.0019 -0.5853
  234MOL0     C31521   6.994   5.286   7.965  0.0600  0.4831 -0.3799
  234MOL0     C31522   6.858   5.286   7.937 -0.3104 -0.1764  0.6268
  234MOL0     H31523   6.498   5.327   7.618  0.2043 -1.0619  1.7808
  234MOL0     H31524   6.309   5.345   7.489  3.0708  1.1994  1.4187
  234MOL0     H31525   6.081   5.293   7.447 -3.7600 -1.7726  0.0856
  234MOL0     H31526   6.174   5.284   7.299  0.3244  3.8164  2.8073
  234MOL0     H31527   5.983   5.140   7.204  0.3193 -0.1889  0.9408
  234MOL0     H31528   5.906   5.149   7.364  0.6938  0.0005 -1.4027
  234MOL0     H31529   5.920   5.405   7.325 -2.9618 -2.2134  2.8648
  234MOL0     H31530   5.976   5.377   7.159 -1.1010  0.6311 -1.9294
  234MOL0     H31531   5.704   5.253   7.273  0.8457 -1.4495 -1.8066
  234MOL0     H31532   5.722   5.413   7.217 -1.0310 -1.1777  0.6008
  234MOL0     H31533   5.753   5.356   7.003  0.1185  0.3344  1.6749
  234MOL0     H31534   5.787   5.185   7.025  1.5519  1.2476 -3.0864
  234MOL0     H31535   5.548   5.150   7.107  1.0627 -0.4993  0.4737
  234MOL0     H31536   5.514   5.311   7.052 -0.4931 -0.2766  0.7219
  234MOL0     H31537   5.607   5.096   6.876 -0.7035  0.2419 -0.1083
  234MOL0     H31538   5.441   5.159   6.898 -0.1383  1.7766 -0.0954
  234MOL0     H31539   5.689   5.304   6.790  0.0964 -0.1897  1.8674
  234MOL0     H31540   5.525   5.385   6.806 -1.3162 -0.6604 -0.3131
  234MOL0     H31541   5.349   5.333   6.623  0.1686 -0.9316 -1.5652
  234MOL0     H31542   5.294   5.335   6.379  1.2937  0.9787  0.3511
  234MOL0     H31543   5.426   5.382   6.287 -1.1676 -0.9096 -3.5971
  234MOL0     H31544   5.380   5.088   6.255 -3.0876 -0.5262 -3.0500
  234MOL0     H31545   5.460   5.205   6.150  0.5102 -1.0249  1.1961
  234MOL0     H31546   5.277   5.134   6.063 -4.8990  0.0157 -1.1336
  234MOL0     H31547   5.258   5.313   6.092  1.3182  0.8075  0.8149
  234MOL0     H31548   5.123   5.262   6.296  0.1803 -0.8653  0.8337
  234MOL0     H31549   5.137   5.093   6.269 -1.7728  0.7230  1.5932
  234MOL0     H31550   4.941   5.037   6.326 -1.2726  0.1353  1.5658
  234MOL0     H31551   4.797   4.942   6.464  0.6553  3.4638 -0.8143
  234MOL0     H31552   4.642   5.006   6.482  2.6087  2.0095  0.8028
  234MOL0     H31553   4.660   4.857   6.381 -1.7831  0.9865  0.6883
  234MOL0     H31554   4.206   5.134   6.317 -1.1554  0.2897  0.6480
  234MOL0     H31555   3.993   5.059   6.302 -1.3322  1.7674 -0.1874
  234MOL0     H31556   3.791   4.865   6.269 -1.9811 -0.0467  1.8916
  234MOL0     H31557   3.792   5.048   6.265 -3.1059 -0.4761  1.4327
  234MOL0     H31558   3.615   4.859   6.119 -0.3561 -0.6320 -0.0116
  234MOL0     H31559   3.567   4.960   6.257 -1.4284 -0.1148 -1.1878
  234MOL0     H31560   3.640   5.065   5.986  0.9388 -0.0781  1.7149
  234MOL0     H31561   3.614   5.171   6.129 -1.4239  1.1581 -0.1759
  234MOL0     H31562   3.428   4.984   5.980  0.9420 -0.8242  0.6103
  234MOL0     H31563   3.392   5.024   6.151 -0.4791  0.9639  0.7398
  234MOL0     H31564   3.422   5.221   5.927 -2.9099 -0.1493 -0.9103
  234MOL0     H31565   3.371   5.267   6.095 -0.5018  3.3240 -0.9358
  234MOL0     H31566   3.234   5.066   5.911 -2.3907 -0.4330 -0.4630
  234MOL0     H31567   3.179   5.111   6.078  1.6550 -0.6822  0.9389
  234MOL0     H31568   3.209   5.318   5.842  1.7461  0.6722  1.2292
  234MOL0     H31569   3.145   5.355   5.995  1.1426  0.5375 -1.1492
  234MOL0     H31570   2.966   5.173   5.950  1.5505  1.7599  1.5059
  234MOL0     H31571   3.036   5.160   5.784  2.6852  0.2032 -0.2192
  234MOL0     H31572   4.034   4.941   5.894  0.3523  1.4215 -1.1872
  234MOL0     H31573   4.279   5.012   5.906  0.4803  1.0353  1.0826
  234MOL0     H31574   4.583   5.207   6.012  0.1620 -1.5448 -1.3478
  234MOL0     H31575   4.830   5.260   5.989 -0.9390  2.9143  0.8755
  234MOL0     H31576   6.293   4.907   7.451 -1.0578  1.7890 -3.0183
  234MOL0     H31577   6.510   4.901   7.594  0.7570  0.7080  1.9744
  234MOL0     H31578   6.877   5.016   7.721  0.0253 -0.6269  0.9248
  234MOL0     H31579   7.084   5.004   7.799 -0.4216  0.8563 -3.7533
  234MOL0     H31580   7.258   5.332   8.068  2.1541  0.3579  1.2004
  234MOL0     H31581   7.191   5.204   8.167  0.5751  2.4350  0.0772
  234MOL0     H31582   7.385   5.053   8.105  0.7326  0.3222 -1.3203
  234MOL0     H31583   7.411   5.183   8.220 -1.5315 -2.0022  0.6905
  234MOL0     H31584   7.510   5.326   8.018  2.7091  0.1535  1.3298
  234MOL0     H31585   7.464   5.199   7.913  0.1580 -0.2763 -0.7560
  234MOL0     H31586   7.656   5.072   7.962 -0.8014  0.6009 -0.1966
  234MOL0     H31587   7.647   5.102   8.134  1.8854  0.9114  0.2329
  234MOL0     H31588   7.913   5.401   8.054 -1.0172  1.9268 -0.1648
  234MOL0     H31589   7.035   5.363   8.029  0.6613  1.1129 -1.5002
  234MOL0     H31590   6.789   5.362   7.970  0.0331  0.6587 -0.5222
  235MOL0     O31591   8.989   6.975   5.679  0.9640 -0.4728 -0.4571
  235MOL0     C31592   9.004   7.035   5.570  0.2258  0.1441 -0.1839
  235MOL0     O31593   8.901   7.103   5.496 -0.5559  0.3857  0.5964
  235MOL0     C31594   8.778   7.090   5.545  1.3246 -0.5302 -0.0204
  235MOL0     C31595   8.702   6.974   5.526  0.1230  0.8502  0.3534
  235MOL0     C31596   8.578   6.958   5.590 -0.4512 -0.2963 -0.4421
  235MOL0     C31597   8.533   7.053   5.674  0.2705 -0.0279 -0.2001
  235MOL0     O31598   8.416   7.021   5.741 -0.6208 -0.3628 -0.0260
  235MOL0     C31599   8.399   7.084   5.872 -0.6342  0.3044 -0.4691
  235MOL0     C31600   8.274   7.027   5.944 -0.1155 -0.0231  0.3668
  235MOL0     C31601   8.143   7.081   5.876  0.5440  0.5056  1.0664
  235MOL0     C31602   8.016   7.008   5.921 -0.8146 -0.1968  0.6035
  235MOL0     C31603   7.897   7.067   5.850 -0.6475 -0.0468 -1.0680
  235MOL0     C31604   7.770   6.984   5.879  0.1703  0.3037 -0.1628
  235MOL0     C31605   7.645   7.037   5.803  0.3901 -0.3964 -0.8529
  235MOL0     C31606   7.532   6.931   5.819 -0.3922  0.5629  0.6336
  235MOL0     N31607   7.410   6.973   5.759  0.0047 -0.0898 -0.5428
  235MOL0     C31608   7.292   6.939   5.813  0.5022 -1.4835  0.1805
  235MOL0     C31609   7.208   6.994   5.720 -0.5157  0.3691  0.5921
  235MOL0     C31610   7.062   6.990   5.727  0.4510 -0.3855  0.1869
  235MOL0     C31611   6.993   6.894   5.624  0.6929  0.6475  0.1103
  235MOL0     C31612   6.843   6.857   5.645  0.4460  0.4217 -0.1423
  235MOL0     C31613   6.756   6.976   5.639  0.2032 -0.2152  0.2983
  235MOL0     O31614   6.743   7.040   5.760  0.0434  0.0461 -0.2147
  235MOL0     C31615   6.631   7.027   5.833  0.4112  0.1438 -1.5134
  235MOL0     C31616   6.559   6.905   5.841 -0.2800 -0.5059  0.3789
  235MOL0     C31617   6.437   6.903   5.902  0.6197  0.5257  0.8913
  235MOL0     C31618   6.377   6.760   5.920 -0.1377  0.7903 -0.8419
  235MOL0     C31619   6.382   7.028   5.950 -0.7980  0.3472  0.3209
  235MOL0     C31620   6.247   7.037   6.008  0.0631  0.7161  0.2867
  235MOL0     O31621   6.158   6.924   5.991  0.7986 -0.2737  0.0764
  235MOL0     C31622   6.034   6.946   6.029 -0.0230 -0.2540 -0.4048
  235MOL0     C31623   6.005   6.956   6.165  0.0435 -0.0166  0.3881
  235MOL0     C31624   5.873   6.959   6.205 -0.1583  0.3681 -0.1276
  235MOL0     C31625   5.771   6.967   6.108  0.4964 -0.2305 -0.4344
  235MOL0     O31626   5.639   6.986   6.138 -0.0815  0.4527 -0.6702
  235MOL0     C31627   5.593   6.931   6.266 -0.7591  0.2547  0.1669
  235MOL0     C31628   5.448   6.975   6.267 -0.1127 -0.1328 -0.1317
  235MOL0     C31629   5.377   6.896   6.373  0.1432 -0.8376 -0.2133
  235MOL0     C31630   5.237   6.965   6.405 -1.0773 -0.4831  0.0509
  235MOL0     C31631   5.172   6.902   6.528  0.3802 -0.2898 -0.6211
  235MOL0     C31632   5.025   6.926   6.537  0.8790  0.1108 -0.4762
  235MOL0     C31633   4.979   7.066   6.504  0.1354  0.1786  0.7212
  235MOL0     C31634   4.829   7.088   6.526  0.0297  0.3867 -0.3356
  235MOL0    Cl31635   4.723   6.967   6.456 -0.3654 -0.5016  0.3575
  235MOL0     C31636   5.809   6.964   5.971 -0.0878  0.0302 -0.4582
  235MOL0     C31637   5.940   6.954   5.933  0.3692  0.0729 -0.8263
  235MOL0     O31638   6.216   7.138   6.068 -0.0204  0.4765  0.2636
  235MOL0     C31639   6.457   7.144   5.942 -0.5576 -0.6047  0.3139
  235MOL0     C31640   6.578   7.143   5.888 -0.7643 -0.0227  0.0412
  235MOL0     N31641   7.277   7.053   5.616 -0.2775  0.1842  0.0476
  235MOL0     N31642   7.398   7.038   5.641 -0.8434  0.9797  0.3367
  235MOL0     C31643   8.607   7.171   5.698  1.0924 -0.2504  0.9857
  235MOL0     C31644   8.735   7.188   5.639  0.5798 -0.1640 -0.4814
  235MOL0     C31645   9.134   7.023   5.506  0.5216  0.7645  0.1166
  235MOL0     C31646   9.236   6.937   5.546  0.1085  0.5695 -0.2449
  235MOL0     C31647   9.368   6.938   5.488 -0.2471  0.1264 -0.2211
  235MOL0     C31648   9.396   7.035   5.391  0.3387  0.2217  0.5655
  235MOL0     O31649   9.516   7.063   5.332  0.3406  0.5417 -0.1866
  235MOL0     C31650   9.639   7.023   5.399  0.1163  0.2272  0.2339
  235MOL0     C31651   9.778   7.043   5.323 -0.3704 -0.2659  0.3389
  235MOL0     C31652   9.803   7.193   5.297  0.3126 -0.2702 -0.3198
  235MOL0     C31653   9.947   7.226   5.264  0.0779  0.4250  0.1505
  235MOL0     C31654  10.035   7.168   5.365  0.1813  0.2524  0.3512
  235MOL0     C31655  10.108   7.138   5.458 -0.2070  0.6226  0.5318
  235MOL0     C31656   9.291   7.121   5.345 -0.1814  0.0397  0.6693
  235MOL0     C31657   9.166   7.111   5.406  0.1204 -0.1286  0.5895
  235MOL0     H31658   8.721   6.898   5.450  1.4938  1.2593  0.2778
  235MOL0     H31659   8.506   6.882   5.561 -0.2710  0.1890 -2.2673
  235MOL0     H31660   8.486   7.053   5.932 -1.6961 -0.6781  0.6202
  235MOL0     H31661   8.385   7.192   5.875 -1.4283  0.2047  1.4336
  235MOL0     H31662   8.283   6.918   5.951 -3.4793 -0.4241 -0.2831
  235MOL0     H31663   8.281   7.065   6.046  1.9680  1.6436 -0.3104
  235MOL0     H31664   8.123   7.187   5.898 -1.0324  0.3106  0.7239
  235MOL0     H31665   8.156   7.088   5.767 -1.1221 -2.8778  0.5241
  235MOL0     H31666   8.029   6.904   5.889  1.2745 -0.7600  2.9719
  235MOL0     H31667   8.004   6.996   6.029  3.1250 -4.1876  0.9179
  235MOL0     H31668   7.882   7.174   5.863 -0.1890 -0.2305  1.5144
  235MOL0     H31669   7.918   7.052   5.743  2.3188 -1.1520 -0.4268
  235MOL0     H31670   7.782   6.881   5.845 -1.2443 -0.1507  0.6424
  235MOL0     H31671   7.743   6.994   5.985  0.9209 -0.3172  0.0923
  235MOL0     H31672   7.604   7.132   5.837  2.9058  1.8531 -3.5267
  235MOL0     H31673   7.656   7.065   5.698 -0.4524  0.1118 -0.8130
  235MOL0     H31674   7.515   6.900   5.923 -1.2996 -3.6706 -0.5796
  235MOL0     H31675   7.560   6.844   5.759 -4.3189  0.4259 -1.3148
  235MOL0     H31676   7.268   6.880   5.901  3.2149  2.0669  3.6742
  235MOL0     H31677   7.039   6.953   5.828  1.1332  0.8508  0.8316
  235MOL0     H31678   7.020   7.089   5.708 -0.6624 -0.7863  0.5066
  235MOL0     H31679   7.052   6.802   5.623  2.3212  1.5577 -3.2053
  235MOL0     H31680   6.993   6.936   5.523 -2.5518 -1.3967 -0.9136
  235MOL0     H31681   6.821   6.797   5.734  2.2182 -1.1645 -0.6928
  235MOL0     H31682   6.813   6.794   5.560 -1.9345  2.9008 -1.3143
  235MOL0     H31683   6.662   6.960   5.585 -0.2622 -1.4275  1.4106
  235MOL0     H31684   6.809   7.042   5.570 -0.1966 -2.3082 -2.2008
  235MOL0     H31685   6.615   6.816   5.816  0.6216 -0.1044  0.9154
  235MOL0     H31686   6.289   6.739   5.859 -1.4519 -2.7486  1.8978
  235MOL0     H31687   6.457   6.690   5.893 -0.4349 -0.9152  2.2461
  235MOL0     H31688   6.352   6.748   6.026  3.0453  0.4079 -0.0219
  235MOL0     H31689   6.079   6.946   6.243  1.4690  1.8881 -0.6267
  235MOL0     H31690   5.858   6.949   6.312  2.1014  0.2965  0.2296
  235MOL0     H31691   5.594   6.821   6.262 -1.6284  0.1955  1.1581
  235MOL0     H31692   5.657   6.957   6.350 -1.7904  2.3279  0.3706
  235MOL0     H31693   5.441   7.084   6.269 -1.1532 -0.1872  0.2365
  235MOL0     H31694   5.400   6.956   6.170  0.0059  1.6769 -0.5701
  235MOL0     H31695   5.438   6.904   6.464  0.3063  4.5637 -0.4416
  235MOL0     H31696   5.369   6.794   6.336 -2.4408 -0.3274 -1.3105
  235MOL0     H31697   5.237   7.074   6.401  2.0095 -0.3146  1.6735
  235MOL0     H31698   5.167   6.940   6.324 -0.7424  1.1093 -0.7718
  235MOL0     H31699   5.221   6.925   6.623 -3.0263 -0.0052  1.2397
  235MOL0     H31700   5.174   6.795   6.508  0.6987 -0.2221 -0.9547
  235MOL0     H31701   4.981   6.862   6.461  2.1103  1.8631 -2.8088
  235MOL0     H31702   4.996   6.898   6.639  1.0709 -3.8095 -1.3626
  235MOL0     H31703   4.999   7.087   6.399 -1.7888 -0.3924  0.2035
  235MOL0     H31704   5.039   7.135   6.564  2.4183 -0.8329 -0.2752
  235MOL0     H31705   4.797   7.189   6.497 -1.4131  0.0319 -0.0799
  235MOL0     H31706   4.822   7.075   6.634  0.0150  1.3277 -0.2108
  235MOL0     H31707   5.736   6.952   5.891  0.5257 -0.2236 -0.9936
  235MOL0     H31708   5.969   6.947   5.829 -0.0938 -1.1264 -0.8916
  235MOL0     H31709   6.426   7.243   5.973  0.5080 -0.8121  2.1461
  235MOL0     H31710   6.631   7.237   5.889  0.5336 -0.7321  0.7754
  235MOL0     H31711   8.573   7.245   5.769 -1.6674 -1.3794  0.9586
  235MOL0     H31712   8.809   7.264   5.661  0.3816  0.0624 -0.5826
  235MOL0     H31713   9.214   6.871   5.630  2.0629  0.6233  0.3594
  235MOL0     H31714   9.449   6.877   5.527 -0.7149  1.2106  2.6844
  235MOL0     H31715   9.637   7.086   5.488  0.8480  1.7823 -0.8044
  235MOL0     H31716   9.631   6.916   5.422  0.2897 -0.2950 -1.8902
  235MOL0     H31717   9.777   6.978   5.235  0.1683  1.5732 -1.0768
  235MOL0     H31718   9.847   6.995   5.394 -1.6317 -2.2783  0.2710
  235MOL0     H31719   9.766   7.262   5.373  0.0075 -0.1306 -0.5947
  235MOL0     H31720   9.741   7.225   5.213 -2.7720 -1.5475  1.2978
  235MOL0     H31721   9.949   7.335   5.263  0.9131  0.4417 -1.8675
  235MOL0     H31722   9.979   7.200   5.162  0.6848 -0.7759  0.6256
  235MOL0     H31723  10.177   7.110   5.534  0.9569 -1.6237 -1.2329
  235MOL0     H31724   9.309   7.180   5.256  1.6486 -1.2882  0.0990
  235MOL0     H31725   9.095   7.187   5.373 -1.3181 -1.2372  0.9947
  236MOL0     O31726  11.297   5.005   9.141  0.4318  0.7905 -0.1919
  236MOL0     C31727  11.342   4.892   9.137 -0.1791 -0.1618 -1.0517
  236MOL0     O31728  11.288   4.779   9.187  0.3996  0.3592 -1.3799
  236MOL0     C31729  11.175   4.778   9.259 -0.1842 -0.2098 -0.1504
  236MOL0     C31730  11.061   4.802   9.198  0.3918  0.6655  0.1317
  236MOL0     C31731  10.947   4.814   9.281 -0.5001  0.7978  0.4114
  236MOL0     C31732  10.954   4.795   9.422  0.0569 -0.2676  0.3227
  236MOL0     O31733  10.838   4.809   9.487 -0.4853 -0.0505  0.0589
  236MOL0     C31734  10.838   4.825   9.627 -0.4253  0.0555  0.2384
  236MOL0     C31735  10.704   4.886   9.684 -0.5764  0.2579  0.4151
  236MOL0     C31736  10.596   4.787   9.661  0.7540  0.3234 -0.7536
  236MOL0     C31737  10.462   4.847   9.695 -0.3264 -0.2889  0.2135
  236MOL0     C31738  10.349   4.748   9.676  0.4705 -0.0539 -0.1191
  236MOL0     C31739  10.214   4.822   9.700 -0.4160  0.0379 -0.2661
  236MOL0     C31740  10.107   4.716   9.681 -0.1776  0.1722  0.6237
  236MOL0     C31741   9.967   4.778   9.688 -0.2015  0.0530  0.3679
  236MOL0     N31742   9.856   4.698   9.641 -0.2849 -0.5589 -0.1818
  236MOL0     C31743   9.824   4.657   9.513 -1.8886 -0.3328  0.3878
  236MOL0     C31744   9.709   4.586   9.530  0.1482  0.0457  0.3253
  236MOL0     C31745   9.640   4.503   9.429 -0.2260 -0.2729  0.4343
  236MOL0     C31746   9.491   4.482   9.444  0.9894 -0.6522  0.3367
  236MOL0     C31747   9.428   4.412   9.324  0.3499  0.6814 -0.1617
  236MOL0     C31748   9.280   4.369   9.338 -0.4420 -0.7441 -0.1095
  236MOL0     O31749   9.197   4.471   9.407 -0.4680  0.1579 -0.3798
  236MOL0     C31750   9.065   4.493   9.372  0.1041 -0.2365 -0.8094
  236MOL0     C31751   8.998   4.600   9.423 -0.2209 -0.1909  0.1288
  236MOL0     C31752   8.860   4.635   9.386 -0.4373 -0.2472  0.1145
  236MOL0     C31753   8.812   4.782   9.429  0.5330  0.3463  0.3671
  236MOL0     C31754   8.788   4.549   9.297  0.8380  0.1462 -0.5089
  236MOL0     C31755   8.653   4.576   9.228 -0.3614 -0.8888  0.0859
  236MOL0     O31756   8.639   4.526   9.106  0.4162 -0.3351 -0.2321
  236MOL0     C31757   8.513   4.500   9.055  0.3235 -0.4289  0.1031
  236MOL0     C31758   8.396   4.471   9.121 -0.1406 -0.6025 -0.8294
  236MOL0     C31759   8.277   4.441   9.060  1.0763  0.1758  0.5162
  236MOL0     C31760   8.261   4.458   8.922 -0.3187  0.3387 -0.2145
  236MOL0     O31761   8.138   4.449   8.872  0.4031 -0.3151  0.3919
  236MOL0     C31762   8.133   4.407   8.735  0.1050  0.1068  0.2860
  236MOL0     C31763   7.991   4.373   8.682  0.3353  0.4783 -0.3754
  236MOL0     C31764   7.891   4.493   8.692 -0.2268  1.1231  0.3236
  236MOL0     C31765   7.749   4.450   8.649 -0.6674  0.4189  0.7314
  236MOL0     C31766   7.635   4.540   8.712 -0.9075 -0.0138 -0.2507
  236MOL0     C31767   7.565   4.476   8.832  0.1723 -0.1321 -0.4301
  236MOL0     C31768   7.417   4.515   8.842 -0.1405  1.1621  0.0097
  236MOL0     C31769   7.339   4.458   8.963  0.0083 -0.0970 -0.7175
  236MOL0    Cl31770   7.399   4.529   9.124 -0.3301  0.0782 -0.3044
  236MOL0     C31771   8.374   4.507   8.850 -0.8974  0.2729 -0.5510
  236MOL0     C31772   8.497   4.519   8.917 -0.2264 -0.7414 -0.5939
  236MOL0     O31773   8.566   4.638   9.286 -0.1534 -0.2626  0.0757
  236MOL0     C31774   8.867   4.447   9.243  0.9910 -0.9772 -0.4587
  236MOL0     C31775   8.993   4.420   9.280 -0.2195 -0.2520 -0.3551
  236MOL0     N31776   9.677   4.589   9.661  0.0162 -0.6883 -0.7998
  236MOL0     N31777   9.771   4.642   9.732  0.0753 -0.0392  0.5183
  236MOL0     C31778  11.075   4.752   9.479 -0.6410 -0.1078  0.4315
  236MOL0     C31779  11.185   4.749   9.398  0.5992  0.0115 -0.8534
  236MOL0     C31780  11.486   4.873   9.083 -0.0576  0.3709  0.2958
  236MOL0     C31781  11.554   4.985   9.034 -0.1267 -0.0104 -0.5994
  236MOL0     C31782  11.686   4.963   8.984 -0.4881 -0.7656  0.2014
  236MOL0     C31783  11.751   4.847   8.979 -0.0284 -0.4924  0.0990
  236MOL0     O31784  11.863   4.852   8.909  0.3170 -0.0387  0.5054
  236MOL0     C31785  11.933   4.722   8.894 -0.1153  0.0880 -0.2341
  236MOL0     C31786  12.028   4.702   9.017  0.5929 -0.0597 -0.6230
  236MOL0     C31787  12.135   4.815   9.018 -0.0967  0.7811 -0.9833
  236MOL0     C31788  12.254   4.777   9.108  0.3680  0.9838  0.1084
  236MOL0     C31789  12.199   4.747   9.238 -0.4061  0.1267 -0.2274
  236MOL0     C31790  12.135   4.724   9.337 -0.2962  0.0711  0.7455
  236MOL0     C31791  11.683   4.735   9.037 -0.0090  0.1641 -0.1590
  236MOL0     C31792  11.560   4.752   9.093  0.5601 -0.7941  0.0203
  236MOL0     H31793  11.058   4.828   9.093 -0.6794 -2.7299 -0.8233
  236MOL0     H31794  10.852   4.834   9.233  0.0907  2.8297 -0.0143
  236MOL0     H31795  10.848   4.722   9.663 -1.6328 -0.7275 -1.5673
  236MOL0     H31796  10.927   4.871   9.672 -0.6559 -0.2709  1.0410
  236MOL0     H31797  10.717   4.898   9.792  4.3450  1.5765 -0.0789
  236MOL0     H31798  10.690   4.985   9.641  3.9624  0.2441 -1.6190
  236MOL0     H31799  10.594   4.740   9.563 -2.1211 -0.0724 -0.5802
  236MOL0     H31800  10.602   4.702   9.730 -2.7989 -1.6146 -2.5585
  236MOL0     H31801  10.462   4.887   9.798 -2.4448 -0.0163  0.1462
  236MOL0     H31802  10.435   4.942   9.648 -1.3675  1.2729  3.5940
  236MOL0     H31803  10.350   4.715   9.572 -2.5439  1.3196 -0.6836
  236MOL0     H31804  10.358   4.660   9.742 -0.0877  1.0676  1.5316
  236MOL0     H31805  10.212   4.876   9.795  1.9819  0.7184 -0.5320
  236MOL0     H31806  10.214   4.900   9.624  5.3350  0.3616 -0.4393
  236MOL0     H31807  10.110   4.680   9.578  0.7996  1.4531  0.1750
  236MOL0     H31808  10.118   4.635   9.754  1.3131  0.3857  0.6687
  236MOL0     H31809   9.964   4.866   9.625 -4.0443  0.1466  0.4515
  236MOL0     H31810   9.931   4.803   9.789 -1.0566 -1.9991  0.6368
  236MOL0     H31811   9.886   4.665   9.425 -2.9970 -1.3250 -0.5347
  236MOL0     H31812   9.664   4.549   9.333  3.8933  2.0948  2.3464
  236MOL0     H31813   9.685   4.403   9.425  0.7989  0.2300 -1.2751
  236MOL0     H31814   9.453   4.585   9.443  1.7926 -0.3460  0.1588
  236MOL0     H31815   9.469   4.434   9.540  0.2202 -0.5824  0.1978
  236MOL0     H31816   9.490   4.322   9.317 -0.1800  0.4063 -1.8088
  236MOL0     H31817   9.453   4.473   9.236  4.7891  0.5900  0.7838
  236MOL0     H31818   9.287   4.279   9.400  0.7343 -1.1077 -0.7343
  236MOL0     H31819   9.240   4.333   9.243 -2.8461 -1.2690  1.0233
  236MOL0     H31820   9.060   4.669   9.478 -1.0988 -1.0112  2.2482
  236MOL0     H31821   8.880   4.863   9.399  1.9032 -0.5880  0.8300
  236MOL0     H31822   8.714   4.792   9.382  0.9145 -1.3511 -0.9016
  236MOL0     H31823   8.797   4.784   9.537 -3.4295 -3.0258  0.1324
  236MOL0     H31824   8.401   4.480   9.229 -2.4836 -0.1268 -0.7223
  236MOL0     H31825   8.185   4.429   9.116  0.8829  2.5913  0.8079
  236MOL0     H31826   8.181   4.476   8.666 -0.5766  0.0084 -0.3044
  236MOL0     H31827   8.196   4.318   8.727 -1.4215 -1.0547  0.5296
  236MOL0     H31828   7.993   4.335   8.580  2.1941 -0.9782  0.1343
  236MOL0     H31829   7.954   4.290   8.742 -0.5651 -0.2221 -1.8519
  236MOL0     H31830   7.913   4.568   8.616  1.9584 -2.7211 -3.2710
  236MOL0     H31831   7.890   4.526   8.796 -1.4825 -0.3695  0.8205
  236MOL0     H31832   7.756   4.456   8.540 -0.2739  1.9548  0.8080
  236MOL0     H31833   7.734   4.345   8.675 -1.2678  0.2541 -0.2220
  236MOL0     H31834   7.569   4.570   8.630  3.1447  4.6560 -2.3200
  236MOL0     H31835   7.683   4.634   8.743  2.7995 -1.1087 -2.0447
  236MOL0     H31836   7.583   4.368   8.834 -0.7417 -0.2924 -0.3489
  236MOL0     H31837   7.616   4.509   8.924 -0.9920  0.1423  0.1370
  236MOL0     H31838   7.371   4.472   8.752  3.1972  0.8672 -1.6917
  236MOL0     H31839   7.398   4.622   8.829  3.9192  1.9532 -0.7383
  236MOL0     H31840   7.345   4.349   8.958 -1.4502 -0.2506  0.1403
  236MOL0     H31841   7.238   4.495   8.941  0.2857 -0.3490 -2.5999
  236MOL0     H31842   8.370   4.502   8.742 -3.7606  0.1857 -0.5153
  236MOL0     H31843   8.589   4.538   8.862  0.8687  0.4203  1.5188
  236MOL0     H31844   8.826   4.394   9.158 -1.4238  1.2163 -0.7516
  236MOL0     H31845   9.040   4.332   9.236 -0.6684 -0.5304 -0.2832
  236MOL0     H31846  11.076   4.721   9.583 -4.2917  1.9676  1.2611
  236MOL0     H31847  11.274   4.713   9.448 -0.3771  3.5272  4.0984
  236MOL0     H31848  11.510   5.084   9.037 -1.7659 -0.5839  4.6473
  236MOL0     H31849  11.731   5.049   8.936 -1.7484 -1.6459 -2.8198
  236MOL0     H31850  11.866   4.638   8.872  0.6401 -0.0136 -2.3110
  236MOL0     H31851  11.999   4.737   8.809 -1.2187  0.1057 -1.1011
  236MOL0     H31852  12.073   4.603   9.004 -0.1431 -0.6695  1.2123
  236MOL0     H31853  11.978   4.691   9.113  1.3092 -0.4653 -0.2875
  236MOL0     H31854  12.087   4.905   9.058  0.6365  1.3076 -1.2676
  236MOL0     H31855  12.167   4.842   8.917  1.1890  0.2831 -0.7340
  236MOL0     H31856  12.330   4.855   9.115 -0.3151  1.8883 -1.8554
  236MOL0     H31857  12.311   4.689   9.076 -0.5572 -0.4396  2.1141
  236MOL0     H31858  12.070   4.690   9.415 -2.2512 -2.6371 -1.8557
  236MOL0     H31859  11.737   4.641   9.047  2.4349  1.2587 -2.0590
  236MOL0     H31860  11.508   4.665   9.131 -2.9345 -0.5142 -3.4335
  237MOL0     O31861   0.341   6.129   6.491  0.8219  0.2202 -0.6368
  237MOL0     C31862   0.390   6.025   6.436  0.3120 -0.4617 -0.2748
  237MOL0     O31863   0.312   5.916   6.391 -0.4049 -0.1428 -0.1833
  237MOL0     C31864   0.183   5.927   6.398 -0.0704 -0.0289 -0.8747
  237MOL0     C31865   0.120   6.011   6.310 -0.4499  0.7384 -0.0445
  237MOL0     C31866  -0.017   6.022   6.308  0.0183  0.5089 -0.1530
  237MOL0     C31867  -0.103   5.949   6.395  0.5221 -1.3886  0.0758
  237MOL0     O31868  -0.238   5.969   6.378  0.0169  0.9796 -0.2604
  237MOL0     C31869  -0.311   5.952   6.488 -0.1778 -0.2384 -0.0732
  237MOL0     C31870  -0.439   6.039   6.490 -0.0833  0.1388 -0.0532
  237MOL0     C31871  -0.518   6.025   6.358 -0.1034 -0.2509  0.8590
  237MOL0     C31872  -0.629   6.124   6.377  0.3686  0.1946 -0.4883
  237MOL0     C31873  -0.592   6.272   6.414 -0.7267 -0.8886 -0.3596
  237MOL0     C31874  -0.716   6.350   6.410  0.4263 -0.2494  0.2833
  237MOL0     C31875  -0.679   6.494   6.430 -0.5906  0.2223  0.0130
  237MOL0     C31876  -0.793   6.592   6.456  0.4056  0.0067 -0.2833
  237MOL0     N31877  -0.893   6.583   6.348 -0.5289 -0.3417  0.5423
  237MOL0     C31878  -1.021   6.542   6.370  0.2248 -1.3638 -0.2464
  237MOL0     C31879  -1.076   6.534   6.241 -0.1900  0.6062 -0.9728
  237MOL0     C31880  -1.219   6.491   6.219  0.0008 -0.8610  0.5215
  237MOL0     C31881  -1.327   6.594   6.204  0.5276 -1.2079  0.2595
  237MOL0     C31882  -1.474   6.534   6.197 -0.0763 -0.1451  0.7190
  237MOL0     C31883  -1.576   6.640   6.145 -0.2429  0.0273  0.3834
  237MOL0     O31884  -1.710   6.585   6.162 -0.6047 -0.8888  0.5101
  237MOL0     C31885  -1.807   6.682   6.133 -0.4944 -0.6373  0.7757
  237MOL0     C31886  -1.794   6.824   6.121 -0.3617  0.7106  0.4431
  237MOL0     C31887  -1.901   6.918   6.108  0.1277  0.2851 -0.6080
  237MOL0     C31888  -1.868   7.058   6.109 -0.0379 -0.6014 -0.0646
  237MOL0     C31889  -2.030   6.852   6.107 -0.3799 -0.7754 -0.5365
  237MOL0     C31890  -2.155   6.928   6.085  0.7840  0.0605  1.1141
  237MOL0     O31891  -2.273   6.864   6.076  0.0410  0.8428  0.1553
  237MOL0     C31892  -2.380   6.941   6.103  0.0618  0.7072  0.2648
  237MOL0     C31893  -2.478   6.929   6.014 -0.4108 -0.9882 -0.0290
  237MOL0     C31894  -2.610   6.971   6.040 -0.3242  0.1069 -0.2420
  237MOL0     C31895  -2.637   7.062   6.149 -1.3239  0.6463  0.7953
  237MOL0     O31896  -2.766   7.078   6.182 -0.0541 -0.3969 -0.2476
  237MOL0     C31897  -2.803   7.163   6.291 -0.1965 -1.0233  1.0087
  237MOL0     C31898  -2.826   7.059   6.400  0.4161 -0.7280 -0.5376
  237MOL0     C31899  -2.834   7.113   6.544 -0.7132  0.2077  0.3289
  237MOL0     C31900  -2.930   7.039   6.633 -0.8157  0.3105  0.2233
  237MOL0     C31901  -2.918   7.078   6.774 -0.2696  0.2761 -1.0709
  237MOL0     C31902  -3.013   7.000   6.862  0.7692  0.3617 -0.4598
  237MOL0     C31903  -3.157   7.056   6.860  0.1954  0.4197  0.0354
  237MOL0     C31904  -3.247   7.006   6.981  0.3628  0.5231 -0.4821
  237MOL0    Cl31905  -3.425   7.049   6.944  0.1927  0.2235 -0.1689
  237MOL0     C31906  -2.522   7.080   6.233  0.6403 -0.7018  0.8461
  237MOL0     C31907  -2.399   7.022   6.214  0.4974 -0.8306  0.4077
  237MOL0     O31908  -2.144   7.051   6.072  0.2041  1.1163  0.3716
  237MOL0     C31909  -2.039   6.717   6.131 -0.8509 -0.3578 -0.4285
  237MOL0     C31910  -1.932   6.631   6.135 -0.4596  0.1942  0.5513
  237MOL0     N31911  -0.973   6.563   6.145 -0.2449 -0.3948 -0.3454
  237MOL0     N31912  -0.869   6.590   6.213  0.0400 -0.4906  0.2665
  237MOL0     C31913  -0.037   5.854   6.479  0.4710 -0.2154 -0.0723
  237MOL0     C31914   0.104   5.841   6.477  0.5894  0.7318 -0.5449
  237MOL0     C31915   0.536   6.002   6.442  0.4261  0.1872  0.4575
  237MOL0     C31916   0.622   6.078   6.515  0.7686 -0.3624  0.0872
  237MOL0     C31917   0.750   6.025   6.550  0.6096  0.1310  0.6337
  237MOL0     C31918   0.791   5.900   6.488  0.4361  0.6395  0.8079
  237MOL0     O31919   0.921   5.852   6.515 -0.0452 -0.8333  0.1909
  237MOL0     C31920   0.988   5.762   6.420  0.6257  0.0079  0.1518
  237MOL0     C31921   0.952   5.617   6.460 -0.5081  0.5713 -0.2853
  237MOL0     C31922   1.013   5.518   6.368  0.0707  0.3749 -0.3214
  237MOL0     C31923   0.981   5.529   6.212 -1.3626  0.7411 -0.6835
  237MOL0     C31924   0.841   5.494   6.192 -0.1151  0.0333  0.6408
  237MOL0     C31925   0.726   5.471   6.154  0.6722 -0.4054 -0.5405
  237MOL0     C31926   0.706   5.838   6.391  0.2155  0.0854 -0.3689
  237MOL0     C31927   0.582   5.885   6.370  0.0366 -0.3693  0.2707
  237MOL0     H31928   0.190   6.061   6.245  1.8818  0.5531  2.1800
  237MOL0     H31929  -0.053   6.093   6.233 -2.4866  0.0806  0.5571
  237MOL0     H31930  -0.340   5.846   6.495  0.9595 -0.4574  2.3911
  237MOL0     H31931  -0.248   5.981   6.572 -2.0952  1.1030  0.9902
  237MOL0     H31932  -0.504   6.011   6.574  0.7524  0.3829  0.6939
  237MOL0     H31933  -0.406   6.141   6.514  0.4290  1.0647 -4.0511
  237MOL0     H31934  -0.448   6.060   6.281  2.0358 -3.4148  1.1699
  237MOL0     H31935  -0.561   5.926   6.342 -2.8249  0.5742  2.5046
  237MOL0     H31936  -0.689   6.126   6.285 -0.8525  3.2244  0.2444
  237MOL0     H31937  -0.694   6.087   6.457 -0.4786  0.2266 -1.1481
  237MOL0     H31938  -0.548   6.294   6.511  1.2138 -0.9580 -1.1724
  237MOL0     H31939  -0.524   6.319   6.343 -2.2335  3.0766  0.5635
  237MOL0     H31940  -0.765   6.341   6.313  0.2674  2.6310 -0.0054
  237MOL0     H31941  -0.791   6.331   6.488  1.1082  0.7526  1.1994
  237MOL0     H31942  -0.615   6.507   6.519  0.4781 -0.7473 -0.5852
  237MOL0     H31943  -0.623   6.530   6.343 -1.1485  1.0706 -0.0070
  237MOL0     H31944  -0.757   6.695   6.454 -0.2562  0.3441  2.1255
  237MOL0     H31945  -0.850   6.572   6.547  1.0607  1.4998  0.4823
  237MOL0     H31946  -1.066   6.522   6.466 -0.5642 -0.7683 -0.4772
  237MOL0     H31947  -1.213   6.436   6.125  0.8094 -1.4534  0.9029
  237MOL0     H31948  -1.247   6.424   6.301  2.0563  0.7809  2.7230
  237MOL0     H31949  -1.296   6.648   6.114  1.1566 -2.4809 -0.2954
  237MOL0     H31950  -1.327   6.663   6.290 -2.2553 -0.8361  0.0836
  237MOL0     H31951  -1.510   6.502   6.295  0.4443 -1.0107  0.6376
  237MOL0     H31952  -1.475   6.448   6.130  1.3712 -0.1687  0.6983
  237MOL0     H31953  -1.541   6.660   6.044  1.2344 -2.2375  0.3598
  237MOL0     H31954  -1.560   6.723   6.214  0.1747 -0.2171  0.5861
  237MOL0     H31955  -1.694   6.867   6.120 -0.1842  0.5046  2.8744
  237MOL0     H31956  -1.932   7.111   6.180  0.0576 -0.9660  0.2992
  237MOL0     H31957  -1.762   7.066   6.137 -0.1117 -2.8296  1.0512
  237MOL0     H31958  -1.896   7.097   6.011  0.5117  0.3818  0.1543
  237MOL0     H31959  -2.463   6.861   5.931  0.9645 -2.8416  1.6617
  237MOL0     H31960  -2.690   6.953   5.970  1.3870 -0.4250 -2.1537
  237MOL0     H31961  -2.714   7.223   6.311  0.2181 -0.8747 -1.0642
  237MOL0     H31962  -2.894   7.220   6.271  0.5949 -0.3473 -0.9036
  237MOL0     H31963  -2.914   6.997   6.379 -0.3764  0.2193 -0.1160
  237MOL0     H31964  -2.749   6.981   6.400  1.5247  0.3226  0.3885
  237MOL0     H31965  -2.857   7.219   6.556 -2.3215 -0.0441 -0.2691
  237MOL0     H31966  -2.728   7.107   6.570 -0.7162  0.4628  0.3970
  237MOL0     H31967  -3.028   7.046   6.584 -0.6431 -0.2560 -0.2036
  237MOL0     H31968  -2.909   6.932   6.629  0.1166  0.3584  2.3596
  237MOL0     H31969  -2.942   7.181   6.802 -1.6391 -0.6122  1.3537
  237MOL0     H31970  -2.817   7.059   6.811 -0.3675  1.9472  0.1654
  237MOL0     H31971  -3.010   6.893   6.840 -1.3309  0.0322  0.6103
  237MOL0     H31972  -2.976   7.016   6.964  2.4658 -2.6127 -0.5017
  237MOL0     H31973  -3.211   7.009   6.777  0.3759  0.4513 -0.0991
  237MOL0     H31974  -3.158   7.163   6.841 -1.5875 -0.0796 -3.4778
  237MOL0     H31975  -3.223   7.054   7.076 -1.7279 -2.0761  1.5491
  237MOL0     H31976  -3.235   6.898   6.997 -2.8549  0.2253  0.8208
  237MOL0     H31977  -2.535   7.136   6.325  0.7546 -0.7307  0.8788
  237MOL0     H31978  -2.317   7.046   6.280 -0.5574  1.7703  0.8820
  237MOL0     H31979  -2.131   6.660   6.124 -0.2898 -1.3223 -0.1845
  237MOL0     H31980  -1.947   6.524   6.140  1.7876 -0.2862 -1.3254
  237MOL0     H31981  -0.099   5.800   6.549  1.8159 -0.5327  0.9214
  237MOL0     H31982   0.146   5.761   6.537  0.9875  0.0965 -1.6361
  237MOL0     H31983   0.576   6.164   6.562 -1.4430 -1.5125  0.1813
  237MOL0     H31984   0.811   6.086   6.616  0.5752 -0.1557  0.9322
  237MOL0     H31985   0.954   5.792   6.321 -1.0607  3.2945  1.5570
  237MOL0     H31986   1.094   5.786   6.429  0.5358  0.5776 -0.2932
  237MOL0     H31987   0.843   5.605   6.462 -0.3080 -1.9294  2.1755
  237MOL0     H31988   0.988   5.597   6.562  1.4049  0.0358 -1.0203
  237MOL0     H31989   0.971   5.426   6.408  1.6464 -0.7756 -1.1947
  237MOL0     H31990   1.121   5.513   6.381  0.4281 -0.4822 -2.9991
  237MOL0     H31991   1.042   5.450   6.167  0.3598 -0.0232  2.6242
  237MOL0     H31992   1.000   5.630   6.175 -3.4124  0.9042 -1.3731
  237MOL0     H31993   0.621   5.461   6.137  0.2956  0.1327  1.1959
  237MOL0     H31994   0.737   5.752   6.332  2.2387  1.6957 -1.7858
  237MOL0     H31995   0.513   5.833   6.304  0.4923  2.4740 -2.6870
  238MOL0     O31996  10.322   8.798   0.622  0.5311 -0.2835 -0.5557
  238MOL0     C31997  10.341   8.732   0.514 -0.3265  0.6015 -0.2369
  238MOL0     O31998  10.242   8.681   0.428  0.6661  0.2558 -0.6888
  238MOL0     C31999  10.114   8.724   0.435 -0.0108 -0.0376 -0.2193
  238MOL0     C32000  10.043   8.708   0.551 -0.5840 -0.6374  0.0181
  238MOL0     C32001   9.913   8.731   0.560  0.1008  0.6242  0.7023
  238MOL0     C32002   9.839   8.778   0.447  1.1965 -0.3820 -0.1463
  238MOL0     O32003   9.702   8.803   0.441  0.2113 -0.1886 -0.1197
  238MOL0     C32004   9.635   8.807   0.569 -0.7089 -0.5273  0.4737
  238MOL0     C32005   9.503   8.885   0.543  0.7138  0.5326  0.5458
  238MOL0     C32006   9.402   8.806   0.462 -0.3612 -0.4673  0.0998
  238MOL0     C32007   9.279   8.880   0.407 -0.1696  0.3989  0.1378
  238MOL0     C32008   9.207   8.807   0.292 -0.2496  0.5370  0.5899
  238MOL0     C32009   9.162   8.666   0.319  0.5401 -0.5754  0.3547
  238MOL0     C32010   9.117   8.590   0.198  0.7481  0.3411  0.6596
  238MOL0     C32011   8.978   8.626   0.134 -0.7966  0.8804 -0.5660
  238MOL0     N32012   8.855   8.598   0.209  0.2652  0.0209  0.2492
  238MOL0     C32013   8.817   8.469   0.254  0.3133  0.0977  0.2298
  238MOL0     C32014   8.713   8.480   0.347  0.0362 -0.2916 -0.3496
  238MOL0     C32015   8.634   8.364   0.417  0.1053  0.4415 -0.0710
  238MOL0     C32016   8.575   8.281   0.305  0.1800 -0.0872 -0.6319
  238MOL0     C32017   8.494   8.154   0.369 -0.0833 -0.1405 -0.0820
  238MOL0     C32018   8.354   8.206   0.405  0.5068  1.0883 -0.0780
  238MOL0     O32019   8.274   8.098   0.446 -0.2048 -0.1734 -0.7235
  238MOL0     C32020   8.148   8.130   0.492 -0.6750  0.4701  0.0522
  238MOL0     C32021   8.079   8.252   0.500 -0.5713  0.6430  0.1188
  238MOL0     C32022   7.957   8.268   0.562 -0.9988 -0.9526 -0.3587
  238MOL0     C32023   7.918   8.415   0.581 -0.3043  0.8074 -0.4726
  238MOL0     C32024   7.876   8.154   0.588  0.1559 -0.5743  0.7163
  238MOL0     C32025   7.727   8.157   0.621 -0.0486  0.1044 -0.0976
  238MOL0     O32026   7.663   8.041   0.605 -0.3572  0.7086 -1.0188
  238MOL0     C32027   7.526   8.061   0.626 -0.4798  0.4059  1.0238
  238MOL0     C32028   7.459   8.056   0.750 -1.2281 -0.3192 -0.7274
  238MOL0     C32029   7.323   8.031   0.754  0.1602  0.3909 -0.8680
  238MOL0     C32030   7.249   8.004   0.639 -0.1918  0.0175 -0.4240
  238MOL0     O32031   7.109   7.999   0.637 -0.5630 -0.2849 -0.7488
  238MOL0     C32032   7.039   7.929   0.741 -0.7066  0.6052  0.3121
  238MOL0     C32033   6.887   7.925   0.726 -0.8546  0.8573  0.7637
  238MOL0     C32034   6.844   7.795   0.650 -0.3141  1.1844 -0.7077
  238MOL0     C32035   6.689   7.800   0.601 -0.3388 -1.1997  0.6830
  238MOL0     C32036   6.592   7.812   0.715 -0.4967 -0.3068 -0.7526
  238MOL0     C32037   6.441   7.818   0.678  0.3031 -0.2675  0.8610
  238MOL0     C32038   6.354   7.825   0.799 -0.0157  0.5399  0.4829
  238MOL0     C32039   6.228   7.903   0.766  0.1716  0.2892 -0.2540
  238MOL0    Cl32040   6.110   7.811   0.670  0.2949 -0.0475 -0.5539
  238MOL0     C32041   7.309   8.034   0.520 -0.2728  0.7216  0.4916
  238MOL0     C32042   7.444   8.051   0.516 -0.0359 -0.7565 -0.7252
  238MOL0     O32043   7.684   8.261   0.672 -0.2792  0.1265  0.2280
  238MOL0     C32044   7.947   8.037   0.568  0.3456  0.1339 -0.2517
  238MOL0     C32045   8.076   8.018   0.533 -0.4404  0.2268  0.6447
  238MOL0     N32046   8.685   8.612   0.348  0.7003 -0.3888  0.5634
  238MOL0     N32047   8.772   8.688   0.277  0.2222  0.8346  0.0469
  238MOL0     C32048   9.913   8.791   0.327 -0.3489 -0.1955 -0.8277
  238MOL0     C32049  10.050   8.766   0.317 -0.2999 -0.0537 -0.9374
  238MOL0     C32050  10.481   8.726   0.469  0.3104  0.3266  0.0273
  238MOL0     C32051  10.583   8.755   0.553  0.2185 -0.1179  0.8279
  238MOL0     C32052  10.714   8.742   0.506 -0.2619  0.4524 -0.3965
  238MOL0     C32053  10.742   8.702   0.373  0.4422 -0.0134 -1.1501
  238MOL0     O32054  10.874   8.701   0.334 -0.2316  0.4697 -0.5596
  238MOL0     C32055  10.914   8.704   0.194 -0.1474  0.9747  0.1772
  238MOL0     C32056  10.890   8.843   0.133  0.0025  0.2069 -0.3692
  238MOL0     C32057  10.944   8.852  -0.006 -1.0740 -0.1599  0.3783
  238MOL0     C32058  10.836   8.808  -0.108  1.0200 -0.5257  0.2616
  238MOL0     C32059  10.747   8.922  -0.135 -0.1186  0.0176 -0.3921
  238MOL0     C32060  10.677   9.020  -0.148  0.8060 -0.0946  0.0035
  238MOL0     C32061  10.632   8.668   0.289  0.0508 -0.2506 -0.1478
  238MOL0     C32062  10.502   8.677   0.342  0.8122  0.1847  0.5972
  238MOL0     H32063  10.083   8.658   0.639 -1.1600 -2.2325 -0.5804
  238MOL0     H32064   9.864   8.738   0.657 -0.7837  1.0541  0.2354
  238MOL0     H32065   9.611   8.706   0.602  1.4676 -1.4489 -0.5271
  238MOL0     H32066   9.697   8.859   0.643  0.0403 -1.0814  0.2406
  238MOL0     H32067   9.458   8.903   0.641 -1.7404 -1.3046 -0.1337
  238MOL0     H32068   9.534   8.982   0.502 -1.4427  1.0211 -0.0951
  238MOL0     H32069   9.459   8.766   0.378 -3.6712 -1.8781 -1.7146
  238MOL0     H32070   9.358   8.723   0.519 -1.9628  0.6033  0.4836
  238MOL0     H32071   9.203   8.886   0.485 -1.1294  0.0885 -0.7461
  238MOL0     H32072   9.306   8.977   0.363 -1.7666  0.5604 -0.5871
  238MOL0     H32073   9.119   8.865   0.263 -1.7210 -1.8463  0.0378
  238MOL0     H32074   9.285   8.788   0.218  1.5345 -3.2950  3.1142
  238MOL0     H32075   9.242   8.606   0.363  0.2146 -0.9481  0.4415
  238MOL0     H32076   9.077   8.685   0.384  1.5977  1.9676  1.1353
  238MOL0     H32077   9.186   8.583   0.114  0.0385 -3.1286  0.2361
  238MOL0     H32078   9.108   8.490   0.242 -0.3159  1.0832  2.2548
  238MOL0     H32079   8.963   8.574   0.039  0.8311  1.3132 -1.0923
  238MOL0     H32080   8.971   8.732   0.107  1.8646  1.6048  1.2501
  238MOL0     H32081   8.865   8.375   0.232  0.0002 -0.0332  0.0985
  238MOL0     H32082   8.703   8.312   0.485  0.6595  1.7402  0.4057
  238MOL0     H32083   8.549   8.404   0.474  0.4223  0.7545  0.1922
  238MOL0     H32084   8.651   8.242   0.236 -0.6395  1.6003 -2.5781
  238MOL0     H32085   8.516   8.338   0.233  1.1602 -0.0750 -1.4553
  238MOL0     H32086   8.547   8.124   0.460  0.5598 -0.6734 -0.6235
  238MOL0     H32087   8.500   8.068   0.302  1.3782 -1.2180  1.3404
  238MOL0     H32088   8.304   8.261   0.325 -0.0405  0.5475 -0.1192
  238MOL0     H32089   8.359   8.270   0.494 -0.8421  0.9435  0.1215
  238MOL0     H32090   8.136   8.329   0.449 -0.1405  1.3853  1.6828
  238MOL0     H32091   7.979   8.492   0.534 -2.9828  2.9659 -0.7086
  238MOL0     H32092   7.820   8.427   0.534 -1.7431  1.6787  2.4901
  238MOL0     H32093   7.909   8.440   0.687 -0.2740  1.6483 -0.6592
  238MOL0     H32094   7.523   8.079   0.834 -1.3253 -1.6036 -0.2815
  238MOL0     H32095   7.269   8.036   0.848 -1.1779 -0.4524 -1.5721
  238MOL0     H32096   7.073   7.826   0.760  0.9789  0.6544 -2.0572
  238MOL0     H32097   7.055   7.981   0.836  1.8747 -2.0653  1.5233
  238MOL0     H32098   6.839   7.939   0.823 -3.9137 -0.9392 -0.3512
  238MOL0     H32099   6.854   7.998   0.652 -1.7006  0.2283  0.4977
  238MOL0     H32100   6.852   7.713   0.721 -1.0322  2.1291  0.5064
  238MOL0     H32101   6.912   7.778   0.566  2.4380  0.1260  1.5682
  238MOL0     H32102   6.684   7.891   0.540  0.0210 -0.7877  1.2523
  238MOL0     H32103   6.676   7.703   0.552 -0.9561 -1.7158  1.8369
  238MOL0     H32104   6.611   7.898   0.779 -0.9170  0.1141 -1.1804
  238MOL0     H32105   6.605   7.719   0.772  0.8202  1.1896  1.5153
  238MOL0     H32106   6.429   7.898   0.605 -0.4493 -1.4308 -0.3466
  238MOL0     H32107   6.421   7.730   0.615  2.1771 -0.8533  0.9992
  238MOL0     H32108   6.401   7.844   0.896 -1.0094 -2.3369  1.6289
  238MOL0     H32109   6.314   7.724   0.808  1.5218 -0.1713 -0.2598
  238MOL0     H32110   6.263   7.996   0.720  0.5697 -0.8460 -2.3677
  238MOL0     H32111   6.169   7.925   0.855 -2.7341  1.4557 -2.3255
  238MOL0     H32112   7.255   8.024   0.426  0.9861 -1.2817 -0.0847
  238MOL0     H32113   7.492   8.056   0.419 -0.2119 -0.8869 -0.8199
  238MOL0     H32114   7.886   7.948   0.585 -1.1081  0.8337 -1.5912
  238MOL0     H32115   8.121   7.920   0.524 -4.0712 -1.4368 -1.5081
  238MOL0     H32116   9.853   8.821   0.241 -0.0826 -0.2014 -1.0149
  238MOL0     H32117  10.105   8.769   0.224 -0.4328 -1.9947 -1.1310
  238MOL0     H32118  10.576   8.792   0.655  0.4367 -0.0645  0.8241
  238MOL0     H32119  10.797   8.766   0.572 -1.2190  0.2915  0.9058
  238MOL0     H32120  11.020   8.686   0.174 -0.5643 -1.4680 -0.1112
  238MOL0     H32121  10.861   8.622   0.145 -0.9508 -0.0034  2.5560
  238MOL0     H32122  10.930   8.923   0.195 -0.1249 -1.1197  1.4929
  238MOL0     H32123  10.783   8.865   0.132 -0.0620  0.2049  1.8083
  238MOL0     H32124  11.017   8.773  -0.026 -0.5155  0.2405  0.8122
  238MOL0     H32125  10.989   8.950  -0.020  1.1951 -1.3746 -1.6194
  238MOL0     H32126  10.786   8.718  -0.072  0.7638 -0.3016  0.4683
  238MOL0     H32127  10.881   8.775  -0.202  2.3711  0.3922  0.5518
  238MOL0     H32128  10.624   9.113  -0.161  0.3774 -0.5556 -1.7822
  238MOL0     H32129  10.646   8.631   0.188 -0.8915 -1.9439  0.3161
  238MOL0     H32130  10.423   8.641   0.276  0.7497 -2.0235  1.7863
  239MOL0     O32131   7.717   3.651   1.462  0.1693 -0.0661  0.1043
  239MOL0     C32132   7.717   3.674   1.343 -0.2931  0.6016  0.1531
  239MOL0     O32133   7.615   3.658   1.267  0.1603  0.5702  0.4369
  239MOL0     C32134   7.498   3.611   1.320  0.8553  0.4719 -0.8275
  239MOL0     C32135   7.458   3.479   1.306 -0.2011 -0.2075  0.0619
  239MOL0     C32136   7.331   3.443   1.356 -0.2729 -0.0230 -0.9074
  239MOL0     C32137   7.240   3.533   1.418 -0.2379  0.4717  0.5872
  239MOL0     O32138   7.110   3.501   1.451  0.0307 -0.4764 -0.1251
  239MOL0     C32139   7.062   3.391   1.372  0.4392  0.1763 -1.2450
  239MOL0     C32140   6.909   3.393   1.402  0.0554 -0.0068 -0.6727
  239MOL0     C32141   6.823   3.317   1.301 -0.0353  0.8707  0.7366
  239MOL0     C32142   6.831   3.164   1.320  0.5612 -0.3179 -0.1262
  239MOL0     C32143   6.702   3.088   1.276 -1.2098 -0.7209 -0.3253
  239MOL0     C32144   6.722   2.933   1.254  0.8545  0.4226  0.3426
  239MOL0     C32145   6.586   2.871   1.231  0.2949  0.4348  0.3147
  239MOL0     C32146   6.597   2.721   1.214  0.1894 -0.0408 -0.4026
  239MOL0     N32147   6.468   2.654   1.213 -0.6686 -0.5320 -0.2811
  239MOL0     C32148   6.442   2.532   1.151  0.2412 -0.5951 -0.0468
  239MOL0     C32149   6.322   2.497   1.190  0.7610 -0.5452  0.7068
  239MOL0     C32150   6.254   2.372   1.138 -0.1074  0.3302 -0.5112
  239MOL0     C32151   6.171   2.385   1.009 -0.1980 -0.2150  0.0093
  239MOL0     C32152   6.245   2.421   0.888 -1.2154  0.1986 -0.0659
  239MOL0     C32153   6.151   2.431   0.763 -0.9866 -0.3134 -1.0568
  239MOL0     O32154   6.072   2.309   0.756  0.1225 -0.6600 -0.4787
  239MOL0     C32155   5.937   2.333   0.723  0.1194 -0.7118 -0.7030
  239MOL0     C32156   5.898   2.271   0.604 -0.1411 -0.7117 -0.0118
  239MOL0     C32157   5.765   2.290   0.559 -0.1505  0.0303  0.3941
  239MOL0     C32158   5.727   2.221   0.426 -0.8979 -0.1435 -0.1424
  239MOL0     C32159   5.668   2.364   0.632 -0.0988  0.2782 -1.3180
  239MOL0     C32160   5.533   2.389   0.595 -0.6162  0.3146 -0.3174
  239MOL0     O32161   5.483   2.500   0.642  0.3421 -0.2451 -0.1964
  239MOL0     C32162   5.347   2.530   0.637  0.0909 -0.0977 -0.7587
  239MOL0     C32163   5.314   2.664   0.677 -0.5477  0.6915 -0.0018
  239MOL0     C32164   5.180   2.697   0.698 -0.6055 -0.0470 -0.0826
  239MOL0     C32165   5.073   2.618   0.658  0.7086 -0.0419 -0.2414
  239MOL0     O32166   4.947   2.671   0.661  0.1782  0.3514  0.3355
  239MOL0     C32167   4.855   2.616   0.566  0.1238  1.0961  0.6778
  239MOL0     C32168   4.740   2.726   0.556 -0.7068  1.0021 -1.0022
  239MOL0     C32169   4.632   2.681   0.454 -1.4388 -0.5991  0.6551
  239MOL0     C32170   4.505   2.757   0.478  0.0814  0.2076 -0.1158
  239MOL0     C32171   4.415   2.780   0.361  0.4752 -0.0212 -0.3672
  239MOL0     C32172   4.279   2.824   0.403 -0.8470  0.4819 -0.8425
  239MOL0     C32173   4.186   2.877   0.293  0.3253  1.3141 -0.0884
  239MOL0     C32174   4.110   2.773   0.204  0.2517  0.5862 -0.5214
  239MOL0    Cl32175   3.980   2.694   0.291 -0.2638 -0.1024 -0.5393
  239MOL0     C32176   5.102   2.489   0.620 -0.1060 -0.1592  0.0252
  239MOL0     C32177   5.234   2.442   0.614  0.9777  0.0963 -0.0558
  239MOL0     O32178   5.476   2.312   0.515 -0.3054  0.2892 -0.4803
  239MOL0     C32179   5.708   2.417   0.758  0.4167 -0.0159  0.5471
  239MOL0     C32180   5.841   2.395   0.805  0.6005 -0.4877  0.2290
  239MOL0     N32181   6.273   2.594   1.273 -0.3134 -0.4763 -0.1624
  239MOL0     N32182   6.363   2.684   1.296  0.7746  0.2045  0.0275
  239MOL0     C32183   7.281   3.663   1.433  0.3414 -0.6267  0.7298
  239MOL0     C32184   7.413   3.707   1.387 -0.3616  0.2917  0.4405
  239MOL0     C32185   7.845   3.734   1.294  0.4193 -0.1104 -1.0826
  239MOL0     C32186   7.840   3.835   1.192  0.1767  0.5361  0.1640
  239MOL0     C32187   7.948   3.904   1.156  0.4558 -0.7835 -0.3457
  239MOL0     C32188   8.073   3.884   1.219  0.3507  0.0734 -0.1425
  239MOL0     O32189   8.194   3.947   1.197  0.2415  0.2590 -0.1097
  239MOL0     C32190   8.206   4.043   1.090 -0.0629 -0.2376  0.2663
  239MOL0     C32191   8.352   4.054   1.057 -0.1062 -0.6711 -0.1405
  239MOL0     C32192   8.443   4.109   1.167 -0.3474 -0.6676  0.2462
  239MOL0     C32193   8.576   4.159   1.105 -0.9181  0.3428 -0.8618
  239MOL0     C32194   8.633   4.256   1.201  0.2710 -0.6608  0.7258
  239MOL0     C32195   8.689   4.336   1.269  0.2559  0.6054 -0.5969
  239MOL0     C32196   8.089   3.786   1.317 -0.5745  0.1860  0.3475
  239MOL0     C32197   7.974   3.714   1.351  0.4217  0.7885 -0.7879
  239MOL0     H32198   7.510   3.398   1.256 -3.1001 -2.5016  0.4570
  239MOL0     H32199   7.305   3.337   1.363 -2.3262  0.5134  0.7430
  239MOL0     H32200   7.074   3.405   1.264  3.6816 -1.2124 -1.1510
  239MOL0     H32201   7.107   3.295   1.401 -1.3135 -0.5972 -0.9311
  239MOL0     H32202   6.889   3.372   1.508  1.7609  1.0905 -0.1003
  239MOL0     H32203   6.865   3.493   1.397 -1.4541 -0.5866  0.1600
  239MOL0     H32204   6.721   3.357   1.310 -0.3460  0.2684 -0.0065
  239MOL0     H32205   6.860   3.347   1.203  0.7564 -3.2058 -0.3866
  239MOL0     H32206   6.927   3.130   1.279  0.7428 -0.8870  0.7216
  239MOL0     H32207   6.837   3.143   1.428 -1.9679 -0.3716  0.0559
  239MOL0     H32208   6.626   3.099   1.353 -1.2003 -0.0378 -0.4009
  239MOL0     H32209   6.668   3.131   1.181  5.3361  1.7979 -2.1416
  239MOL0     H32210   6.795   2.909   1.176 -0.3569  0.6045 -0.8739
  239MOL0     H32211   6.766   2.888   1.344 -0.2500 -0.1589  0.6077
  239MOL0     H32212   6.518   2.884   1.316 -1.2023  1.7626 -1.0282
  239MOL0     H32213   6.536   2.910   1.142 -1.0435  2.1537  1.7349
  239MOL0     H32214   6.645   2.682   1.304 -2.2771 -1.2045  0.5195
  239MOL0     H32215   6.664   2.689   1.134 -1.1368 -2.4792 -0.6337
  239MOL0     H32216   6.491   2.473   1.073 -0.8482 -0.7388 -0.6503
  239MOL0     H32217   6.312   2.279   1.141 -2.0098 -0.9071  1.6471
  239MOL0     H32218   6.176   2.349   1.211 -0.1403 -0.1945 -0.7051
  239MOL0     H32219   6.096   2.461   1.030 -0.9576 -0.7127 -0.8325
  239MOL0     H32220   6.129   2.286   0.988 -2.6717  0.8618 -0.3286
  239MOL0     H32221   6.327   2.352   0.866  1.2044  3.1721 -1.0632
  239MOL0     H32222   6.297   2.515   0.909  1.3364 -0.8140 -1.3390
  239MOL0     H32223   6.218   2.441   0.677  3.6293  0.4628  2.2436
  239MOL0     H32224   6.091   2.521   0.777  1.4755  1.1699  0.8898
  239MOL0     H32225   5.966   2.227   0.532  0.1837  1.5583 -1.2034
  239MOL0     H32226   5.625   2.188   0.409 -0.2043 -3.4159  1.3575
  239MOL0     H32227   5.733   2.295   0.346 -2.4432 -0.2948 -0.4221
  239MOL0     H32228   5.778   2.127   0.403  0.6762  0.2681  1.4468
  239MOL0     H32229   5.397   2.734   0.686 -1.7437  2.6430 -2.7423
  239MOL0     H32230   5.162   2.800   0.730 -0.0627 -0.5213  1.8579
  239MOL0     H32231   4.892   2.600   0.465 -1.3425  2.1218 -0.0574
  239MOL0     H32232   4.815   2.525   0.612  2.3529 -1.4151 -1.9800
  239MOL0     H32233   4.693   2.746   0.652 -2.9042  1.1934 -2.0603
  239MOL0     H32234   4.796   2.811   0.516  0.3704  0.2952 -1.0605
  239MOL0     H32235   4.616   2.573   0.463  1.5754 -1.0636  1.9036
  239MOL0     H32236   4.667   2.716   0.356 -0.2733 -1.0007  0.9089
  239MOL0     H32237   4.455   2.697   0.555  3.9291  1.0477  3.3980
  239MOL0     H32238   4.528   2.854   0.522  0.4488  0.6450 -1.2446
  239MOL0     H32239   4.401   2.686   0.305 -0.7101 -0.4039  0.5395
  239MOL0     H32240   4.447   2.859   0.292 -1.6235  2.2017  1.0547
  239MOL0     H32241   4.226   2.736   0.440 -3.0662  2.3083  0.6621
  239MOL0     H32242   4.284   2.905   0.477  0.6497  1.5111 -2.0303
  239MOL0     H32243   4.243   2.928   0.214  0.1257 -1.9944 -2.5963
  239MOL0     H32244   4.118   2.948   0.341  0.0561  2.2474 -1.7276
  239MOL0     H32245   4.185   2.698   0.177 -1.1832 -1.0324 -0.2382
  239MOL0     H32246   4.072   2.821   0.114 -0.6324  0.4916 -0.2118
  239MOL0     H32247   5.026   2.422   0.583  0.8726 -1.1949 -0.1715
  239MOL0     H32248   5.250   2.339   0.583  1.1282  0.5435 -1.5490
  239MOL0     H32249   5.641   2.474   0.822  0.1641 -0.2155  0.4582
  239MOL0     H32250   5.884   2.442   0.892  0.6237  0.2518 -0.1752
  239MOL0     H32251   7.215   3.733   1.483 -2.6777 -3.6598  1.3843
  239MOL0     H32252   7.461   3.804   1.397 -0.4869  0.5713 -1.3550
  239MOL0     H32253   7.738   3.853   1.161 -1.0702 -1.7372  2.4943
  239MOL0     H32254   7.944   3.980   1.079 -1.5875 -1.2870 -0.7910
  239MOL0     H32255   8.142   4.038   1.002 -0.5193 -1.9726  0.6601
  239MOL0     H32256   8.186   4.138   1.140 -2.4261  0.7706 -2.3786
  239MOL0     H32257   8.355   4.113   0.964 -1.0509  0.8319  0.7362
  239MOL0     H32258   8.393   3.955   1.036  0.1976 -0.5184 -0.2715
  239MOL0     H32259   8.464   4.039   1.248  0.3652  0.5926  1.1920
  239MOL0     H32260   8.394   4.193   1.218 -1.9577 -1.2404 -0.2918
  239MOL0     H32261   8.563   4.204   1.006  2.3665  1.4249 -0.9200
  239MOL0     H32262   8.651   4.083   1.082 -0.3103  1.1668 -1.6572
  239MOL0     H32263   8.732   4.427   1.305  0.4124  0.2302  0.1966
  239MOL0     H32264   8.181   3.762   1.369 -0.5402 -1.9315 -0.6131
  239MOL0     H32265   7.988   3.638   1.428 -0.0415  2.4732  1.0353
  240MOL0     O32266  10.918   3.335  10.764 -0.6425 -0.2766 -0.5369
  240MOL0     C32267  10.956   3.430  10.834 -0.3559 -0.2547 -0.3283
  240MOL0     O32268  10.871   3.536  10.872 -0.1023  0.3041  0.3816
  240MOL0     C32269  10.736   3.516  10.851  0.0602 -0.0145  0.0784
  240MOL0     C32270  10.674   3.396  10.904  0.4372 -0.3769 -0.6577
  240MOL0     C32271  10.530   3.381  10.897 -0.1267  0.7520 -0.4082
  240MOL0     C32272  10.451   3.476  10.834  0.3607 -0.0785 -0.3295
  240MOL0     O32273  10.314   3.445  10.822 -0.6415  0.2238 -0.3326
  240MOL0     C32274  10.230   3.534  10.743 -0.2273  0.1121  0.8020
  240MOL0     C32275  10.175   3.650  10.824  0.4766 -0.4008 -0.3886
  240MOL0     C32276  10.033   3.621  10.885 -0.2601  0.7648  0.3315
  240MOL0     C32277   9.987   3.744  10.970 -0.2783  0.7482  0.5133
  240MOL0     C32278   9.880   3.716  11.074  0.2203 -0.6763  0.2539
  240MOL0     C32279   9.769   3.632  10.997 -0.9230 -0.3468  0.6564
  240MOL0     C32280   9.637   3.636  11.076 -0.2152  0.3117  0.4993
  240MOL0     C32281   9.537   3.546  10.998  0.4032  0.1872  0.1581
  240MOL0     N32282   9.426   3.513  11.090 -0.0997  0.1865  0.0310
  240MOL0     C32283   9.412   3.416  11.184 -1.1256  0.6702  0.9511
  240MOL0     C32284   9.295   3.430  11.227 -0.2491 -0.7856  0.9158
  240MOL0     C32285   9.223   3.333  11.309  0.2878  0.0279  0.3452
  240MOL0     C32286   9.198   3.392  11.444 -0.7357 -0.5430  0.3741
  240MOL0     C32287   9.112   3.520  11.447 -0.1275 -0.1574 -0.6939
  240MOL0     C32288   9.088   3.570  11.599  0.0208  0.0062  0.5724
  240MOL0     O32289   9.016   3.469  11.667 -1.5204 -0.1609  0.8624
  240MOL0     C32290   8.882   3.471  11.657  0.4044 -0.5196  0.7235
  240MOL0     C32291   8.813   3.412  11.557 -0.0194  0.2399 -0.1126
  240MOL0     C32292   8.676   3.422  11.547  0.2597  0.3351  0.3642
  240MOL0     C32293   8.613   3.328  11.451 -1.1462 -0.3823 -0.0024
  240MOL0     C32294   8.598   3.483  11.654  0.4993  0.5184 -0.6647
  240MOL0     C32295   8.446   3.495  11.662  0.4573  0.3369  0.5148
  240MOL0     O32296   8.381   3.473  11.546 -0.6690  0.2104  0.9079
  240MOL0     C32297   8.250   3.467  11.550  0.2564 -0.1100 -0.2069
  240MOL0     C32298   8.178   3.354  11.592  1.2231  1.2148 -0.4141
  240MOL0     C32299   8.042   3.348  11.565  0.1569 -0.8645 -0.6143
  240MOL0     C32300   7.973   3.459  11.515 -0.8454  0.0557  0.4931
  240MOL0     O32301   7.839   3.445  11.491  0.5347 -0.0703  0.1407
  240MOL0     C32302   7.758   3.545  11.429 -1.0744 -0.1346 -0.6015
  240MOL0     C32303   7.611   3.517  11.461 -0.3382  1.1779  0.3512
  240MOL0     C32304   7.510   3.592  11.381 -0.5203  0.5791  0.2011
  240MOL0     C32305   7.490   3.543  11.237 -0.0268 -0.2179  0.4921
  240MOL0     C32306   7.410   3.639  11.149 -0.9585 -0.9444  0.2817
  240MOL0     C32307   7.285   3.692  11.227  0.4139 -0.8209 -0.1513
  240MOL0     C32308   7.193   3.771  11.135  0.3065 -0.2378  0.7166
  240MOL0     C32309   7.077   3.817  11.212  0.8923  0.5390  0.1271
  240MOL0    Cl32310   6.961   3.680  11.257  0.1997  0.2921  0.3787
  240MOL0     C32311   8.048   3.567  11.459 -0.1489  0.2180  0.1219
  240MOL0     C32312   8.187   3.572  11.479  0.1938 -0.0242 -0.8553
  240MOL0     O32313   8.392   3.542  11.764 -0.2275 -0.0716  0.5899
  240MOL0     C32314   8.678   3.546  11.758  0.9893  0.5383  0.2521
  240MOL0     C32315   8.817   3.554  11.751  0.1144  0.6924  0.0415
  240MOL0     N32316   9.239   3.552  11.180 -0.1109 -0.0034 -0.1744
  240MOL0     N32317   9.317   3.601  11.087 -0.2277 -0.2168  0.2531
  240MOL0     C32318  10.513   3.598  10.783 -0.2404  0.4195  0.0314
  240MOL0     C32319  10.653   3.619  10.795  0.6968  0.4729  1.1149
  240MOL0     C32320  11.093   3.448  10.842 -1.2909  0.0210  0.6634
  240MOL0     C32321  11.133   3.542  10.952  0.4464  0.3731  0.4744
  240MOL0     C32322  11.272   3.557  10.983  0.2234 -0.0587  0.1205
  240MOL0     C32323  11.366   3.495  10.897  0.3856  0.9778 -0.2589
  240MOL0     O32324  11.497   3.526  10.896 -0.4136  0.1743  0.4545
  240MOL0     C32325  11.584   3.443  10.980  0.0744 -0.6956 -0.3840
  240MOL0     C32326  11.651   3.338  10.902 -0.5278  0.4845 -0.0620
  240MOL0     C32327  11.754   3.259  10.987  0.8012  0.1877  0.5672
  240MOL0     C32328  11.822   3.142  10.929 -0.1410  0.3516  0.5392
  240MOL0     C32329  11.891   3.055  11.029  0.0751  0.1448 -0.5629
  240MOL0     C32330  11.938   2.975  11.109 -0.2837  0.7944 -0.1246
  240MOL0     C32331  11.326   3.407  10.800  0.1111  0.3854 -0.4931
  240MOL0     C32332  11.193   3.396  10.760 -0.3697 -0.0343 -0.0951
  240MOL0     H32333  10.735   3.331  10.965  0.2844  0.8600  0.8581
  240MOL0     H32334  10.492   3.285  10.931  1.5374  0.2369  0.0847
  240MOL0     H32335  10.275   3.574  10.652 -0.0460  1.6267  1.5280
  240MOL0     H32336  10.154   3.468  10.701 -1.2433  0.6426  1.7585
  240MOL0     H32337  10.233   3.681  10.911 -1.4682 -4.2786  2.6125
  240MOL0     H32338  10.157   3.740  10.765 -3.5253  2.3894  4.3034
  240MOL0     H32339   9.954   3.614  10.810 -1.2161  0.1327  1.3828
  240MOL0     H32340  10.026   3.532  10.948 -4.3121  2.3259  2.4744
  240MOL0     H32341  10.073   3.801  11.007  1.4508  0.7793 -3.1030
  240MOL0     H32342   9.946   3.807  10.891 -1.9479  0.8353  1.4139
  240MOL0     H32343   9.916   3.669  11.165  2.7306 -0.4757 -0.5382
  240MOL0     H32344   9.841   3.808  11.119  1.4255  0.2441 -0.5121
  240MOL0     H32345   9.757   3.670  10.896  4.3443 -2.8230 -1.2816
  240MOL0     H32346   9.809   3.530  10.988  1.0126  0.3227  1.1534
  240MOL0     H32347   9.657   3.587  11.172  2.0929  2.0834  1.0062
  240MOL0     H32348   9.602   3.739  11.088 -0.9773  0.2423 -0.9219
  240MOL0     H32349   9.579   3.452  10.961 -0.8683 -1.0749  1.7729
  240MOL0     H32350   9.493   3.604  10.916 -0.6089  0.2572  0.7330
  240MOL0     H32351   9.476   3.330  11.193 -1.2345  0.1206 -2.4273
  240MOL0     H32352   9.132   3.305  11.254 -0.3105  1.5232  0.5156
  240MOL0     H32353   9.271   3.235  11.308 -2.1941 -1.3317  2.4060
  240MOL0     H32354   9.291   3.407  11.499 -0.8090 -0.6987  0.5423
  240MOL0     H32355   9.139   3.313  11.491 -2.0048  0.6229  0.8458
  240MOL0     H32356   9.019   3.524  11.389 -0.8953  1.8217  0.5932
  240MOL0     H32357   9.182   3.600  11.422 -0.0463  0.8878  2.4903
  240MOL0     H32358   9.037   3.666  11.597  0.8797  0.5104 -2.5891
  240MOL0     H32359   9.188   3.579  11.642  0.9388 -3.7732 -0.3436
  240MOL0     H32360   8.873   3.364  11.481  0.1406 -0.5084  0.4725
  240MOL0     H32361   8.541   3.264  11.502 -0.4504  1.4100  3.5455
  240MOL0     H32362   8.555   3.371  11.370  0.2483 -1.0327 -1.4055
  240MOL0     H32363   8.691   3.270  11.399 -0.7011 -0.5257  0.7974
  240MOL0     H32364   8.238   3.269  11.621  1.0901  1.6355  1.1917
  240MOL0     H32365   7.993   3.255  11.592  1.2162 -1.7929 -1.7850
  240MOL0     H32366   7.787   3.641  11.473 -0.6725  0.4210 -2.0299
  240MOL0     H32367   7.781   3.545  11.322  0.2310  3.0722 -0.4210
  240MOL0     H32368   7.589   3.412  11.442  5.4022 -0.6295  1.6764
  240MOL0     H32369   7.592   3.533  11.568 -1.4481 -0.0105  0.3494
  240MOL0     H32370   7.541   3.696  11.367 -1.3080  0.9044  0.7543
  240MOL0     H32371   7.414   3.594  11.433 -0.0827 -0.7705  1.1187
  240MOL0     H32372   7.581   3.518  11.182 -0.2217 -1.8904  0.8626
  240MOL0     H32373   7.444   3.443  11.235 -0.2329 -0.1261 -1.0284
  240MOL0     H32374   7.379   3.596  11.054  2.5170  1.5703 -2.2523
  240MOL0     H32375   7.471   3.725  11.123 -1.5099  0.7211  3.9306
  240MOL0     H32376   7.229   3.612  11.276 -0.1734 -0.0803  0.4118
  240MOL0     H32377   7.317   3.764  11.302 -2.0728 -0.0815  0.2968
  240MOL0     H32378   7.157   3.709  11.052  0.0484 -0.2184  0.8127
  240MOL0     H32379   7.242   3.857  11.090  1.2312 -0.6357  0.9506
  240MOL0     H32380   7.027   3.888  11.145 -1.0561 -0.2389  0.6989
  240MOL0     H32381   7.114   3.869  11.301  0.6893  0.5935  0.1801
  240MOL0     H32382   8.002   3.647  11.403  2.2465  2.5866  1.3261
  240MOL0     H32383   8.239   3.660  11.442  1.8299 -0.8862 -0.6848
  240MOL0     H32384   8.634   3.598  11.843 -0.2291 -0.7154  0.4117
  240MOL0     H32385   8.874   3.607  11.827 -0.2701  3.4596 -1.4627
  240MOL0     H32386  10.457   3.678  10.735 -1.9737  0.2965  1.7458
  240MOL0     H32387  10.699   3.711  10.761 -1.3645  0.9732 -0.5034
  240MOL0     H32388  11.065   3.592  11.020 -0.6514  1.4727 -1.3399
  240MOL0     H32389  11.305   3.623  11.063 -1.1420 -1.3758  1.8516
  240MOL0     H32390  11.662   3.509  11.018 -0.1817  0.6724 -2.0647
  240MOL0     H32391  11.535   3.397  11.067 -0.8012 -1.7721 -1.4082
  240MOL0     H32392  11.707   3.376  10.815 -0.6652 -3.4296 -2.0799
  240MOL0     H32393  11.572   3.278  10.855  1.4578 -1.1765 -1.4859
  240MOL0     H32394  11.690   3.215  11.064  0.5701 -2.7721 -1.1572
  240MOL0     H32395  11.835   3.321  11.028  0.9477  0.2864  0.1331
  240MOL0     H32396  11.900   3.183  10.865  0.3489  1.3156  1.7222
  240MOL0     H32397  11.749   3.086  10.868 -0.8947 -0.0681  1.7812
  240MOL0     H32398  11.989   2.902  11.168 -1.8319 -0.2258  0.0188
  240MOL0     H32399  11.394   3.364  10.727  2.3882 -0.3845  1.9428
  240MOL0     H32400  11.167   3.331  10.677 -2.0903  0.1964  0.2270
  241MOL0     O32401   3.768   1.043   6.612 -0.4430  0.0749  0.0999
  241MOL0     C32402   3.827   0.936   6.649  0.6216 -0.1830  0.4103
  241MOL0     O32403   3.768   0.821   6.699 -0.4876 -0.5141 -0.7643
  241MOL0     C32404   3.631   0.817   6.722 -0.4883  0.0110  0.5917
  241MOL0     C32405   3.586   0.723   6.817  0.0128  0.0702 -0.6142
  241MOL0     C32406   3.448   0.719   6.860  0.1848  0.3460 -0.3402
  241MOL0     C32407   3.352   0.786   6.788 -0.4201  0.5554 -0.4298
  241MOL0     O32408   3.223   0.785   6.830  0.0592  0.3868 -0.2317
  241MOL0     C32409   3.123   0.830   6.738 -1.3046  0.2660 -0.1504
  241MOL0     C32410   2.993   0.758   6.753 -0.0257 -0.2091 -0.0649
  241MOL0     C32411   2.939   0.760   6.893 -1.1458  0.8563  0.4395
  241MOL0     C32412   2.792   0.739   6.886 -0.3185  0.1253  0.6562
  241MOL0     C32413   2.731   0.718   7.026 -0.3677  0.4190 -0.3116
  241MOL0     C32414   2.597   0.644   7.020 -0.0429 -0.5408  0.5796
  241MOL0     C32415   2.543   0.591   7.155 -0.4220 -0.5471  0.1213
  241MOL0     C32416   2.463   0.464   7.137 -0.0306  1.1997 -1.1628
  241MOL0     N32417   2.325   0.514   7.113 -0.0770  0.3469 -0.0570
  241MOL0     C32418   2.241   0.557   7.216 -0.0471  0.5685  0.1902
  241MOL0     C32419   2.109   0.554   7.161 -0.5275 -0.0645  0.2375
  241MOL0     C32420   1.967   0.576   7.213 -0.9817  0.0391  0.0748
  241MOL0     C32421   1.877   0.656   7.120  0.2894 -0.0261  0.2777
  241MOL0     C32422   1.753   0.707   7.197  1.1547  0.2271 -0.9556
  241MOL0     C32423   1.664   0.797   7.117  0.4677  0.7068 -0.2305
  241MOL0     O32424   1.604   0.892   7.206  0.0781 -0.2878  0.3117
  241MOL0     C32425   1.491   0.861   7.278  0.6033 -0.5416 -0.3851
  241MOL0     C32426   1.436   0.971   7.345 -0.5599 -0.6591 -0.6395
  241MOL0     C32427   1.323   0.969   7.427 -0.5199  0.1923  0.6451
  241MOL0     C32428   1.287   1.103   7.487  0.3124 -0.0395  0.5915
  241MOL0     C32429   1.250   0.848   7.433  0.4340 -0.9308  0.2623
  241MOL0     C32430   1.123   0.837   7.506  0.5261 -0.0761  0.6401
  241MOL0     O32431   1.048   0.728   7.482 -0.8954 -0.0063 -0.6988
  241MOL0     C32432   0.920   0.712   7.536 -0.1731  0.4109 -0.7849
  241MOL0     C32433   0.822   0.814   7.568  0.2417  0.4147  1.0953
  241MOL0     C32434   0.695   0.785   7.599  0.7773 -0.4298 -0.4740
  241MOL0     C32435   0.651   0.655   7.616 -0.0146  0.3863 -0.0218
  241MOL0     O32436   0.524   0.615   7.658  0.0028 -0.5889  0.4145
  241MOL0     C32437   0.448   0.691   7.750  0.3170 -0.8250  0.3965
  241MOL0     C32438   0.438   0.635   7.896 -0.3649 -0.3581 -0.3828
  241MOL0     C32439   0.341   0.511   7.901  0.2855  0.7962 -1.0838
  241MOL0     C32440   0.301   0.459   8.037 -0.3375 -0.4808  0.1009
  241MOL0     C32441   0.167   0.395   8.025  0.2661 -0.2857 -0.2374
  241MOL0     C32442   0.106   0.369   8.161  0.0522 -0.9038  0.1813
  241MOL0     C32443  -0.046   0.329   8.157  0.0493  0.2065  0.5243
  241MOL0     C32444  -0.074   0.293   8.296  0.8396  0.2058  0.5448
  241MOL0    Cl32445  -0.247   0.245   8.306 -0.2581 -0.0281 -0.2678
  241MOL0     C32446   0.744   0.550   7.587 -0.2403  0.5642 -0.6116
  241MOL0     C32447   0.880   0.576   7.550  0.4375 -0.7638  0.4999
  241MOL0     O32448   1.101   0.924   7.583  0.2445 -0.1071  0.0621
  241MOL0     C32449   1.304   0.736   7.361  0.1807 -0.0362  0.9077
  241MOL0     C32450   1.431   0.737   7.295 -0.0300  0.0410 -0.3759
  241MOL0     N32451   2.130   0.526   7.031 -0.2012 -0.2726  0.8222
  241MOL0     N32452   2.253   0.516   6.997  0.9425  0.3956  0.4282
  241MOL0     C32453   3.399   0.859   6.676  0.6973 -0.2349 -1.6539
  241MOL0     C32454   3.536   0.888   6.654  0.0692 -0.0205  0.1921
  241MOL0     C32455   3.966   0.922   6.643 -0.6322 -0.9086 -0.4574
  241MOL0     C32456   4.030   0.808   6.683  0.6983  0.8670  0.1613
  241MOL0     C32457   4.170   0.802   6.678  0.2796  0.1321  0.0582
  241MOL0     C32458   4.248   0.912   6.625 -1.0455  0.2332  0.0661
  241MOL0     O32459   4.385   0.894   6.614 -0.0257  0.0835  0.2511
  241MOL0     C32460   4.450   0.973   6.518 -0.4671 -0.4140 -0.3238
  241MOL0     C32461   4.504   1.105   6.568  0.0730 -0.0705  0.6207
  241MOL0     C32462   4.595   1.088   6.689  0.7209 -1.3631 -0.2408
  241MOL0     C32463   4.673   1.215   6.705  0.0971 -0.0959 -0.2212
  241MOL0     C32464   4.606   1.351   6.698 -1.1157  0.2422  1.3371
  241MOL0     C32465   4.574   1.466   6.689 -0.9680  0.3694  0.3459
  241MOL0     C32466   4.176   1.021   6.580  0.1078 -0.0862  0.3181
  241MOL0     C32467   4.043   1.018   6.588 -0.3744 -0.1645  0.1717
  241MOL0     H32468   3.667   0.668   6.864  2.8494  2.5835 -2.2245
  241MOL0     H32469   3.424   0.669   6.953 -1.4387 -0.2504 -1.0488
  241MOL0     H32470   3.112   0.935   6.767  0.8653  0.6365 -0.4671
  241MOL0     H32471   3.158   0.815   6.635 -0.0402  1.5870  0.0537
  241MOL0     H32472   2.927   0.810   6.683 -0.0664 -2.0099 -1.4391
  241MOL0     H32473   2.989   0.654   6.720 -0.2686 -0.1633 -0.1805
  241MOL0     H32474   2.985   0.679   6.950  0.7774  1.5080 -0.1018
  241MOL0     H32475   2.954   0.860   6.936 -0.1236 -0.0810  2.3548
  241MOL0     H32476   2.758   0.837   6.851  1.3468  0.2697 -0.6873
  241MOL0     H32477   2.752   0.675   6.806 -0.9829  2.4050 -0.9219
  241MOL0     H32478   2.798   0.654   7.084  2.2940  2.3504 -1.0578
  241MOL0     H32479   2.722   0.809   7.086 -0.7932 -0.4315  0.9433
  241MOL0     H32480   2.514   0.701   6.978 -0.7096  1.6626  4.4274
  241MOL0     H32481   2.627   0.564   6.952  0.0528  1.0713 -1.3620
  241MOL0     H32482   2.630   0.575   7.219  1.5486  3.7153 -1.1012
  241MOL0     H32483   2.493   0.674   7.207  2.5170  0.4677  1.5059
  241MOL0     H32484   2.477   0.416   7.234 -1.2575  3.4773  0.2116
  241MOL0     H32485   2.506   0.402   7.058  4.3570  0.2275  1.6277
  241MOL0     H32486   2.266   0.561   7.322  1.8661  0.2278 -0.2144
  241MOL0     H32487   1.921   0.478   7.231 -2.3252  0.2700 -1.7741
  241MOL0     H32488   1.977   0.612   7.316  0.8753 -2.6325  0.9448
  241MOL0     H32489   1.841   0.595   7.037 -1.9638  2.7178 -0.9496
  241MOL0     H32490   1.931   0.744   7.084 -1.2721  1.6357  1.7965
  241MOL0     H32491   1.787   0.755   7.289  1.0807 -0.8955 -0.3270
  241MOL0     H32492   1.698   0.620   7.235 -0.3873  2.4303  2.3106
  241MOL0     H32493   1.580   0.749   7.066 -0.5198  0.9565  1.0999
  241MOL0     H32494   1.720   0.846   7.037  1.5024 -1.4806 -0.8996
  241MOL0     H32495   1.492   1.060   7.317 -0.2504 -0.3033  1.0063
  241MOL0     H32496   1.189   1.142   7.461 -0.6296 -1.8933  1.2087
  241MOL0     H32497   1.286   1.083   7.595 -3.7456 -0.1504  0.6853
  241MOL0     H32498   1.363   1.182   7.479 -1.3580  1.7456  1.6402
  241MOL0     H32499   0.854   0.916   7.547 -1.2166  0.3844 -1.7602
  241MOL0     H32500   0.629   0.869   7.613  0.3556 -0.7499 -0.5273
  241MOL0     H32501   0.478   0.796   7.746  1.7288 -1.2168  0.2542
  241MOL0     H32502   0.345   0.698   7.712  0.9063  4.8029 -1.1413
  241MOL0     H32503   0.531   0.589   7.929 -0.9208 -0.5682  0.9846
  241MOL0     H32504   0.420   0.716   7.967  0.9907 -0.1557 -0.2552
  241MOL0     H32505   0.375   0.427   7.840 -0.2595 -0.3060  0.0769
  241MOL0     H32506   0.245   0.548   7.862 -0.4581  0.9517  0.7645
  241MOL0     H32507   0.378   0.398   8.083  1.8703  3.0611  1.5542
  241MOL0     H32508   0.294   0.545   8.104  2.7513  0.1335 -0.2163
  241MOL0     H32509   0.201   0.299   7.983  0.5082  0.4429 -1.7689
  241MOL0     H32510   0.091   0.437   7.959 -0.2818 -1.0798 -0.1245
  241MOL0     H32511   0.166   0.303   8.225  1.3322 -1.1378 -1.2011
  241MOL0     H32512   0.111   0.457   8.226 -1.0379 -0.3552 -0.4433
  241MOL0     H32513  -0.057   0.240   8.095  0.7363 -0.2737  1.0742
  241MOL0     H32514  -0.116   0.407   8.124 -2.5491 -2.2752 -0.2499
  241MOL0     H32515  -0.074   0.389   8.347 -1.9337  1.4396 -1.5267
  241MOL0     H32516  -0.007   0.219   8.341  0.4248  0.3337  1.3880
  241MOL0     H32517   0.720   0.444   7.588 -0.2422  0.5570 -1.2967
  241MOL0     H32518   0.945   0.495   7.518  3.8878  2.1093 -0.4179
  241MOL0     H32519   1.249   0.643   7.367 -0.9112  0.5255 -0.0245
  241MOL0     H32520   1.461   0.639   7.259 -0.9819 -0.0405 -0.9730
  241MOL0     H32521   3.324   0.906   6.613 -1.7138 -0.3794  0.9132
  241MOL0     H32522   3.557   0.951   6.568  0.5324  1.3516  1.2891
  241MOL0     H32523   3.981   0.722   6.728  1.3685  0.4875  0.1842
  241MOL0     H32524   4.215   0.704   6.676  2.3437  0.9893 -3.2683
  241MOL0     H32525   4.531   0.904   6.491 -1.4256 -1.2774 -1.0280
  241MOL0     H32526   4.390   1.002   6.432 -1.2213 -0.9550  0.0083
  241MOL0     H32527   4.425   1.179   6.582  2.1975  2.8747 -1.7354
  241MOL0     H32528   4.557   1.144   6.480  1.1815 -3.7181 -0.5276
  241MOL0     H32529   4.666   1.005   6.682  0.5174 -1.5905  0.3214
  241MOL0     H32530   4.547   1.083   6.787 -2.6663  1.7312 -1.4864
  241MOL0     H32531   4.739   1.214   6.617  1.6594 -0.3877  0.9108
  241MOL0     H32532   4.741   1.194   6.788 -1.4377 -2.2510  0.5969
  241MOL0     H32533   4.562   1.572   6.695  0.6625  0.5918  0.1210
  241MOL0     H32534   4.221   1.109   6.535 -2.4614  0.3486 -1.6231
  241MOL0     H32535   3.994   1.105   6.548  0.0525  0.2644  0.5706
  242MOL0     O32536   3.002   0.211  11.218  0.2335  0.7579 -0.5439
  242MOL0     C32537   3.041   0.214  11.337 -0.5785  0.2138 -0.1589
  242MOL0     O32538   3.004   0.121  11.431 -0.0565  0.1647  0.2634
  242MOL0     C32539   2.959  -0.001  11.379  0.0332  0.2302 -0.9252
  242MOL0     C32540   3.014  -0.077  11.276  0.1602 -0.0416 -0.5612
  242MOL0     C32541   2.956  -0.196  11.240  0.1469  0.3516 -0.0684
  242MOL0     C32542   2.855  -0.254  11.319  0.6871  0.4688  0.3434
  242MOL0     O32543   2.791  -0.374  11.292 -0.2375  0.1787 -0.8309
  242MOL0     C32544   2.855  -0.460  11.191 -1.0555  0.6655  0.7984
  242MOL0     C32545   2.782  -0.587  11.173  0.6036 -0.2227 -0.3709
  242MOL0     C32546   2.649  -0.556  11.097  0.3635  0.0495  0.7583
  242MOL0     C32547   2.536  -0.661  11.121 -0.5748 -0.6265  0.7033
  242MOL0     C32548   2.448  -0.682  10.996 -0.1005  0.0445  0.5039
  242MOL0     C32549   2.353  -0.805  11.019  0.2345 -0.7535  0.4361
  242MOL0     C32550   2.225  -0.769  11.090  0.3004 -0.0760  0.1828
  242MOL0     C32551   2.127  -0.706  10.993 -0.7154 -0.8864  0.1920
  242MOL0     N32552   2.004  -0.663  11.054 -0.4645 -0.2283 -0.2361
  242MOL0     C32553   1.973  -0.539  11.097 -0.0912 -0.4738 -0.8307
  242MOL0     C32554   1.845  -0.542  11.126  0.2432 -0.0346  0.0249
  242MOL0     C32555   1.757  -0.427  11.184 -0.6407  0.5149 -0.7434
  242MOL0     C32556   1.679  -0.327  11.101 -0.1073  0.5833 -0.0244
  242MOL0     C32557   1.550  -0.378  11.051 -0.2036  0.8059 -0.1199
  242MOL0     C32558   1.489  -0.279  10.965  1.1382 -0.6533 -0.3443
  242MOL0     O32559   1.455  -0.155  11.024  0.5158 -0.4673  0.5536
  242MOL0     C32560   1.328  -0.109  11.001 -0.2426 -0.3830 -0.0556
  242MOL0     C32561   1.288  -0.048  10.886 -0.4942  0.5304  0.8273
  242MOL0     C32562   1.156  -0.021  10.864  0.2426  0.3367 -0.0296
  242MOL0     C32563   1.124   0.049  10.732 -0.3212 -0.0791 -0.4501
  242MOL0     C32564   1.054  -0.055  10.960  0.5029  0.3914 -0.4953
  242MOL0     C32565   0.906  -0.014  10.937  0.6667 -0.0909  0.4588
  242MOL0     O32566   0.819  -0.056  11.030 -0.3213 -0.3661  0.5501
  242MOL0     C32567   0.687  -0.013  11.060  0.6082  0.2326  1.1965
  242MOL0     C32568   0.616  -0.068  11.166 -0.2322  0.1946 -0.2285
  242MOL0     C32569   0.485  -0.035  11.195  0.6175 -0.2784  0.6165
  242MOL0     C32570   0.422   0.064  11.125 -0.7853  0.3703  0.1673
  242MOL0     O32571   0.312   0.120  11.165 -0.5901 -0.0429  0.0147
  242MOL0     C32572   0.206   0.147  11.075  0.6610 -0.4222 -0.3392
  242MOL0     C32573   0.118   0.250  11.132  0.6382 -0.8353  0.5177
  242MOL0     C32574   0.140   0.379  11.048 -0.2824  0.0864  0.4709
  242MOL0     C32575   0.107   0.503  11.131  0.3176 -0.2267  0.0578
  242MOL0     C32576   0.089   0.635  11.057  0.7372 -0.4396  0.4631
  242MOL0     C32577   0.223   0.684  10.998 -0.1462  0.5415 -0.5145
  242MOL0     C32578   0.214   0.815  10.938 -0.3741 -0.0806 -0.2392
  242MOL0     C32579   0.350   0.888  10.919 -0.2161  0.0639 -0.4559
  242MOL0    Cl32580   0.483   0.782  10.891 -0.7008  0.3796  0.2090
  242MOL0     C32581   0.491   0.124  11.020  0.3471  0.2392 -0.3360
  242MOL0     C32582   0.622   0.084  10.988  0.9378 -1.1018 -0.2309
  242MOL0     O32583   0.874   0.056  10.841  0.1664  0.8121  0.0178
  242MOL0     C32584   1.096  -0.112  11.087 -0.5602  0.0684 -0.4744
  242MOL0     C32585   1.237  -0.132  11.109  0.9903 -0.1371  1.2468
  242MOL0     N32586   1.789  -0.663  11.096  0.5101  0.0096  0.7946
  242MOL0     N32587   1.888  -0.739  11.057 -0.3634 -0.1016  0.3655
  242MOL0     C32588   2.805  -0.185  11.434  0.3407  0.0220  0.6547
  242MOL0     C32589   2.862  -0.061  11.460 -0.5708 -0.1604 -0.3735
  242MOL0     C32590   3.081   0.348  11.391 -0.0596 -0.8202 -0.3684
  242MOL0     C32591   3.122   0.449  11.314 -0.1778  0.2582  0.6992
  242MOL0     C32592   3.159   0.563  11.366  0.6956  0.0626  0.7378
  242MOL0     C32593   3.160   0.589  11.505 -0.2630  0.6118  0.3883
  242MOL0     O32594   3.211   0.694  11.569 -0.4170 -0.5231  0.2407
  242MOL0     C32595   3.322   0.773  11.514  0.0754  0.0008  0.3138
  242MOL0     C32596   3.429   0.772  11.618 -0.9141 -0.4241  0.4098
  242MOL0     C32597   3.398   0.849  11.747  0.0544  0.0231 -0.2228
  242MOL0     C32598   3.415   1.001  11.741  0.1398  0.1319 -0.2393
  242MOL0     C32599   3.310   1.075  11.818  1.4616 -0.1585  0.2266
  242MOL0     C32600   3.231   1.128  11.893 -0.2084  0.1278 -1.1990
  242MOL0     C32601   3.126   0.486  11.585 -1.1107  0.5123 -0.8375
  242MOL0     C32602   3.077   0.367  11.530  0.4433  0.0715  0.0406
  242MOL0     H32603   3.099  -0.037  11.222  0.3969  0.7294  0.3501
  242MOL0     H32604   2.995  -0.227  11.144  0.0567 -0.1903  0.0692
  242MOL0     H32605   2.856  -0.402  11.098 -0.7645 -2.8991 -1.6349
  242MOL0     H32606   2.956  -0.490  11.221 -0.7878 -0.7929 -1.3173
  242MOL0     H32607   2.843  -0.665  11.127  0.7595 -1.6295  2.0712
  242MOL0     H32608   2.761  -0.627  11.273  1.4607 -0.7641 -0.3931
  242MOL0     H32609   2.613  -0.459  11.132  3.3870  1.3175  0.7038
  242MOL0     H32610   2.664  -0.545  10.989  2.8616 -2.0947  0.7700
  242MOL0     H32611   2.596  -0.752  11.128 -0.7640 -0.6493  2.4694
  242MOL0     H32612   2.478  -0.644  11.212 -1.0503  1.2162  0.1067
  242MOL0     H32613   2.384  -0.599  10.966 -2.1417 -1.2824  0.9501
  242MOL0     H32614   2.513  -0.704  10.911 -2.1074 -1.4269 -0.7420
  242MOL0     H32615   2.334  -0.850  10.921  2.8664 -1.9289  0.3823
  242MOL0     H32616   2.414  -0.874  11.077  0.5185 -0.7103  0.1891
  242MOL0     H32617   2.184  -0.867  11.116  1.3795 -0.5155  0.3002
  242MOL0     H32618   2.233  -0.703  11.177 -0.8496  0.8550 -0.4045
  242MOL0     H32619   2.093  -0.770  10.910 -2.3989 -2.2018  1.8025
  242MOL0     H32620   2.167  -0.617  10.943  0.5796 -1.1127  0.8006
  242MOL0     H32621   2.031  -0.447  11.097 -2.4019  1.0595  0.4002
  242MOL0     H32622   1.684  -0.475  11.250  2.4521 -1.1155  1.7869
  242MOL0     H32623   1.822  -0.379  11.258  2.1144 -1.9000 -1.4090
  242MOL0     H32624   1.744  -0.305  11.015 -0.7392 -2.7607 -1.5245
  242MOL0     H32625   1.670  -0.232  11.154  0.6726  2.6019 -3.1899
  242MOL0     H32626   1.499  -0.391  11.147  0.8465 -0.1439  0.3344
  242MOL0     H32627   1.548  -0.478  11.009 -3.1281  1.6765 -2.3878
  242MOL0     H32628   1.409  -0.335  10.917  1.7504 -1.5376 -0.3620
  242MOL0     H32629   1.558  -0.244  10.887  0.9652  0.7156  0.0954
  242MOL0     H32630   1.366  -0.033  10.811 -1.0940 -3.9620 -0.9662
  242MOL0     H32631   1.031   0.009  10.689 -1.8381  3.0490 -0.3730
  242MOL0     H32632   1.126   0.155  10.756 -1.1453 -0.7300  2.9548
  242MOL0     H32633   1.208   0.035  10.664  0.9681 -1.7022  1.3800
  242MOL0     H32634   0.664  -0.141  11.230  0.1095  0.9662  0.4098
  242MOL0     H32635   0.427  -0.078  11.276 -0.8218 -1.0414 -0.7668
  242MOL0     H32636   0.233   0.181  10.975 -2.3360 -0.1320 -1.1603
  242MOL0     H32637   0.155   0.051  11.061 -0.1505 -0.1941  0.8493
  242MOL0     H32638   0.014   0.222  11.113  0.6598 -1.1223  0.8210
  242MOL0     H32639   0.135   0.274  11.237  0.4310 -0.0015  0.3709
  242MOL0     H32640   0.072   0.381  10.962  0.4268  0.0894 -0.0927
  242MOL0     H32641   0.240   0.401  11.010 -0.7581  3.0837  0.7116
  242MOL0     H32642   0.017   0.470  11.184  0.1206 -0.5799 -0.4823
  242MOL0     H32643   0.192   0.518  11.198  0.9713  2.3061 -1.2253
  242MOL0     H32644   0.048   0.713  11.123  0.1254 -0.6995  0.3947
  242MOL0     H32645   0.023   0.619  10.972  0.8456 -3.8157  0.8981
  242MOL0     H32646   0.290   0.688  11.084  1.9771 -1.4585 -1.9385
  242MOL0     H32647   0.274   0.613  10.933  0.6003 -0.4828  1.1242
  242MOL0     H32648   0.152   0.890  10.988 -1.3524  0.2056 -1.7789
  242MOL0     H32649   0.162   0.797  10.842 -0.9163 -0.4876  0.1196
  242MOL0     H32650   0.367   0.928  11.020 -0.7705  0.5139 -0.5364
  242MOL0     H32651   0.352   0.969  10.845 -0.3271  1.2703  0.8151
  242MOL0     H32652   0.451   0.214  10.973 -0.8774 -0.1575 -0.0692
  242MOL0     H32653   0.670   0.131  10.902  2.1330  1.6179  1.7847
  242MOL0     H32654   1.033  -0.158  11.162 -2.2663 -0.5422 -2.2163
  242MOL0     H32655   1.278  -0.181  11.196  1.7255 -0.6479  0.6299
  242MOL0     H32656   2.734  -0.230  11.502 -2.4636 -1.8581 -3.1309
  242MOL0     H32657   2.831   0.001  11.543 -5.0005  2.7046 -3.7197
  242MOL0     H32658   3.105   0.441  11.207  2.2024  0.6399  0.2497
  242MOL0     H32659   3.164   0.651  11.302 -2.1232 -0.3349 -0.1797
  242MOL0     H32660   3.365   0.720  11.428  0.3565  0.1798  0.3444
  242MOL0     H32661   3.294   0.876  11.489 -1.6847 -0.2093  1.2767
  242MOL0     H32662   3.523   0.811  11.578  0.9852 -1.6614  3.3453
  242MOL0     H32663   3.462   0.669  11.631 -2.5517 -1.1579 -0.8010
  242MOL0     H32664   3.449   0.816  11.839 -0.5026  2.5887  1.1079
  242MOL0     H32665   3.292   0.824  11.764  0.4187 -1.4615 -0.0215
  242MOL0     H32666   3.404   1.042  11.640 -1.9402  2.4614  0.8428
  242MOL0     H32667   3.512   1.025  11.785  0.1813  5.1617 -2.4578
  242MOL0     H32668   3.171   1.170  11.971 -0.6720 -1.1444 -0.8401
  242MOL0     H32669   3.137   0.495  11.692 -0.3579 -3.9168 -0.3762
  242MOL0     H32670   3.039   0.286  11.592  2.6122 -1.8841 -1.0383
  243MOL0     O32671   2.513   3.818   4.179  0.2059  0.2973  0.5307
  243MOL0     C32672   2.428   3.741   4.135 -0.1282 -0.1987 -0.0373
  243MOL0     O32673   2.436   3.597   4.137  0.4080  0.1024 -0.1976
  243MOL0     C32674   2.539   3.524   4.168 -0.3185 -0.7866 -0.1611
  243MOL0     C32675   2.663   3.549   4.099  0.3653  0.5099 -0.3114
  243MOL0     C32676   2.764   3.455   4.126 -0.3083 -0.7106  0.0146
  243MOL0     C32677   2.754   3.349   4.224  0.2852  0.5013  0.3451
  243MOL0     O32678   2.867   3.272   4.246  0.0118 -0.1575 -0.0872
  243MOL0     C32679   2.937   3.204   4.134  1.4071  0.0348 -0.7042
  243MOL0     C32680   3.057   3.280   4.088  0.1890  0.1541 -0.0070
  243MOL0     C32681   3.181   3.230   4.165 -0.2295  0.3376 -0.5692
  243MOL0     C32682   3.306   3.313   4.119  0.8279 -1.4744 -0.5990
  243MOL0     C32683   3.433   3.269   4.189  0.4842  0.5804  0.1421
  243MOL0     C32684   3.553   3.362   4.140 -0.2728 -0.1786  0.3552
  243MOL0     C32685   3.684   3.315   4.200 -1.0753 -0.7761 -0.0803
  243MOL0     C32686   3.807   3.418   4.187  1.2863  0.7718 -0.6297
  243MOL0     N32687   3.854   3.430   4.050 -0.1629  1.1851  0.4288
  243MOL0     C32688   3.854   3.546   3.968  0.0613  0.4936 -0.2747
  243MOL0     C32689   3.901   3.509   3.844  0.0250  0.4988  0.2355
  243MOL0     C32690   3.924   3.602   3.720 -0.5308  0.3317 -0.2574
  243MOL0     C32691   4.072   3.628   3.707  0.7521 -0.0680  0.4682
  243MOL0     C32692   4.098   3.739   3.599 -0.3035  0.4605  0.2064
  243MOL0     C32693   4.243   3.783   3.605 -0.5361  0.3509  0.2728
  243MOL0     O32694   4.249   3.888   3.714 -0.2539  0.6305  0.4776
  243MOL0     C32695   4.370   3.928   3.778  0.3485 -1.3236  0.8847
  243MOL0     C32696   4.496   3.889   3.731  0.5242  0.2463  0.1640
  243MOL0     C32697   4.613   3.928   3.797  0.4513 -0.9877 -0.5432
  243MOL0     C32698   4.744   3.875   3.749 -0.1973 -0.1700  0.0720
  243MOL0     C32699   4.605   4.005   3.916  0.0920 -0.7981 -0.7593
  243MOL0     C32700   4.717   4.029   4.008  0.0412 -0.2266 -1.1340
  243MOL0     O32701   4.834   3.961   3.997 -0.0618  0.2852  0.2870
  243MOL0     C32702   4.942   4.018   4.060 -0.3993 -0.7801 -0.3678
  243MOL0     C32703   5.021   4.105   3.984  0.3985  0.1495 -1.1213
  243MOL0     C32704   5.156   4.119   4.018  0.0772 -0.2115  0.0333
  243MOL0     C32705   5.207   4.064   4.135  1.3277 -0.3617 -0.2628
  243MOL0     O32706   5.331   4.101   4.166  0.0252  0.4583  0.1838
  243MOL0     C32707   5.376   4.078   4.297 -0.4739 -0.6198  0.2397
  243MOL0     C32708   5.491   4.173   4.324  0.0938  0.3745  0.2282
  243MOL0     C32709   5.619   4.146   4.246 -0.3962 -0.1306 -0.3644
  243MOL0     C32710   5.720   4.254   4.290 -0.0717  0.0048 -0.2385
  243MOL0     C32711   5.850   4.251   4.213 -0.5182 -0.3809 -0.1244
  243MOL0     C32712   5.962   4.321   4.290  0.2801 -0.6683 -0.3602
  243MOL0     C32713   6.099   4.311   4.224 -0.4389  0.5726 -0.6281
  243MOL0     C32714   6.214   4.300   4.313  0.0557 -0.7646 -0.7302
  243MOL0    Cl32715   6.368   4.332   4.219 -0.3550  0.1557 -0.3383
  243MOL0     C32716   5.125   3.983   4.216 -0.0524  1.3890  0.6690
  243MOL0     C32717   5.000   3.955   4.170  0.5358 -0.1034  0.8166
  243MOL0     O32718   4.696   4.099   4.109 -0.4737  0.0289 -0.1786
  243MOL0     C32719   4.473   4.043   3.957 -0.2299 -0.6716  0.0589
  243MOL0     C32720   4.361   4.018   3.883  0.1484  0.1588 -0.3072
  243MOL0     N32721   3.932   3.377   3.854  0.0222  0.1410  0.0135
  243MOL0     N32722   3.902   3.334   3.966 -0.5771 -0.1611 -0.6276
  243MOL0     C32723   2.639   3.335   4.290  0.5816 -0.1228 -0.1925
  243MOL0     C32724   2.530   3.415   4.255 -0.2021  0.3165 -0.2331
  243MOL0     C32725   2.299   3.801   4.116  0.5461 -0.4864 -0.1124
  243MOL0     C32726   2.275   3.938   4.081 -0.1756  1.0065 -0.3075
  243MOL0     C32727   2.150   3.985   4.068  0.6572  0.2292 -0.6885
  243MOL0     C32728   2.033   3.902   4.074  0.1922 -0.2507 -0.4191
  243MOL0     O32729   1.897   3.946   4.073  0.1669  1.0978 -0.1374
  243MOL0     C32730   1.858   4.059   4.002 -0.1382  0.4347 -0.3220
  243MOL0     C32731   1.782   4.027   3.879 -0.5088  0.5571  0.2751
  243MOL0     C32732   1.649   3.955   3.916 -0.0724 -0.0528 -0.3525
  243MOL0     C32733   1.572   3.913   3.794 -0.0033 -0.0120 -0.4795
  243MOL0     C32734   1.453   3.830   3.840 -0.6971  0.1897 -0.3847
  243MOL0     C32735   1.355   3.764   3.859 -0.9132 -0.0665 -0.2931
  243MOL0     C32736   2.055   3.766   4.096 -0.1905  0.3906 -0.3896
  243MOL0     C32737   2.190   3.720   4.123  0.2450  0.0964  0.2049
  243MOL0     H32738   2.684   3.633   4.033  0.9786  0.7213  0.1503
  243MOL0     H32739   2.858   3.476   4.077 -1.9272  0.4187 -2.8230
  243MOL0     H32740   2.964   3.109   4.181  0.1719  0.8900  1.9608
  243MOL0     H32741   2.863   3.178   4.058  3.2982  0.3529 -2.7395
  243MOL0     H32742   3.063   3.264   3.980 -1.2669  0.8910 -0.2337
  243MOL0     H32743   3.043   3.388   4.097 -0.1038  0.0139  1.3726
  243MOL0     H32744   3.159   3.242   4.271  0.9084  2.5013 -0.5209
  243MOL0     H32745   3.209   3.126   4.145  0.1378  0.2242  0.4875
  243MOL0     H32746   3.304   3.303   4.010 -2.2886  1.4178 -0.9685
  243MOL0     H32747   3.287   3.418   4.140 -1.7447 -2.4849  3.1823
  243MOL0     H32748   3.426   3.260   4.298 -3.9467 -1.7391 -0.0982
  243MOL0     H32749   3.449   3.163   4.172 -1.5062  0.4392 -1.1034
  243MOL0     H32750   3.550   3.351   4.031  2.2232  3.6466 -0.3084
  243MOL0     H32751   3.537   3.463   4.179  3.6611 -0.2602  2.7691
  243MOL0     H32752   3.679   3.293   4.307  2.3359 -2.6936 -0.1666
  243MOL0     H32753   3.720   3.223   4.153  1.9072  0.6643 -0.8087
  243MOL0     H32754   3.893   3.383   4.245  0.4869 -0.1336  0.0505
  243MOL0     H32755   3.793   3.517   4.232 -2.2308 -0.2250  0.8341
  243MOL0     H32756   3.832   3.649   3.996  2.9642  1.4542 -1.1664
  243MOL0     H32757   3.881   3.549   3.635 -0.0602 -2.2292  1.0171
  243MOL0     H32758   3.864   3.692   3.738 -3.5879 -1.4777 -0.6924
  243MOL0     H32759   4.131   3.539   3.684  1.3727  0.3916  0.2627
  243MOL0     H32760   4.108   3.659   3.806  0.2423 -1.1473  1.0098
  243MOL0     H32761   4.035   3.827   3.619 -1.7515 -0.8488  1.6341
  243MOL0     H32762   4.074   3.697   3.500  0.6443 -0.8641  0.5204
  243MOL0     H32763   4.281   3.816   3.508 -0.2223  1.2866  0.7060
  243MOL0     H32764   4.318   3.710   3.637  0.3149  0.8450 -0.5370
  243MOL0     H32765   4.503   3.814   3.653 -0.7491 -0.7303  0.9522
  243MOL0     H32766   4.730   3.830   3.650  0.1241 -0.0180 -0.0440
  243MOL0     H32767   4.808   3.964   3.747 -1.6437  0.9945  2.2884
  243MOL0     H32768   4.782   3.794   3.812  0.4514  0.9632  1.1685
  243MOL0     H32769   4.971   4.121   3.889  0.1964  0.2178 -1.0029
  243MOL0     H32770   5.222   4.170   3.948 -1.4167  0.0970 -1.2151
  243MOL0     H32771   5.299   4.083   4.374 -0.2477 -0.3093  0.4525
  243MOL0     H32772   5.421   3.978   4.307  3.3874  0.9378  0.3977
  243MOL0     H32773   5.454   4.268   4.285  0.0875  0.9291  1.5041
  243MOL0     H32774   5.502   4.162   4.433  1.0813 -1.5588 -0.0225
  243MOL0     H32775   5.596   4.157   4.139 -0.2532  0.6833 -0.3174
  243MOL0     H32776   5.664   4.047   4.261 -0.5669 -0.0887  0.4671
  243MOL0     H32777   5.688   4.357   4.271  2.2222  0.7574 -0.3737
  243MOL0     H32778   5.732   4.239   4.397 -1.2414  0.5572 -0.0145
  243MOL0     H32779   5.842   4.308   4.120  0.1425  0.4109  0.2918
  243MOL0     H32780   5.882   4.151   4.182  3.5218  1.0691 -1.3622
  243MOL0     H32781   5.935   4.427   4.296  1.2413 -0.4873  2.3339
  243MOL0     H32782   5.970   4.292   4.396  2.8592 -1.4193 -0.7078
  243MOL0     H32783   6.098   4.404   4.166  3.3184  2.0707  1.4138
  243MOL0     H32784   6.097   4.227   4.154 -2.7007  0.6777 -0.7764
  243MOL0     H32785   6.221   4.199   4.355 -1.8174 -1.2585 -1.4709
  243MOL0     H32786   6.204   4.382   4.385  0.6943 -0.0784 -1.4089
  243MOL0     H32787   5.142   3.917   4.301  1.3573 -1.6025 -1.7332
  243MOL0     H32788   4.947   3.874   4.219  2.7615 -1.8407  0.5157
  243MOL0     H32789   4.458   4.097   4.050 -0.7082 -2.3070  0.9839
  243MOL0     H32790   4.259   4.051   3.906 -0.3731 -1.7603  0.2833
  243MOL0     H32791   2.635   3.260   4.369  1.4681  0.3696  0.3400
  243MOL0     H32792   2.432   3.399   4.299 -0.8151  3.9969  0.0447
  243MOL0     H32793   2.363   4.001   4.092  1.0800 -1.1187  3.4884
  243MOL0     H32794   2.152   4.091   4.045  1.9853  0.3954  0.0983
  243MOL0     H32795   1.797   4.127   4.063 -2.2869 -0.3623 -1.4608
  243MOL0     H32796   1.944   4.120   3.973  1.8154 -0.6393  2.6894
  243MOL0     H32797   1.840   3.966   3.809 -0.7489  1.1675 -0.4747
  243MOL0     H32798   1.763   4.121   3.826  0.6102  1.3127  1.1610
  243MOL0     H32799   1.584   4.022   3.973  2.0158  2.7608 -1.0179
  243MOL0     H32800   1.671   3.867   3.977  0.5843  0.2064 -0.2087
  243MOL0     H32801   1.637   3.843   3.741 -0.8801  0.0729 -1.7095
  243MOL0     H32802   1.562   4.002   3.731  1.0004  0.2283 -0.3222
  243MOL0     H32803   1.273   3.695   3.860  1.1411 -2.6651  0.6857
  243MOL0     H32804   1.973   3.695   4.091 -0.3606  0.5650 -0.0930
  243MOL0     H32805   2.189   3.617   4.156 -2.2333  0.3322  1.0748
  244MOL0     O32806   8.417   7.659  10.026 -0.4364 -1.2155  0.2766
  244MOL0     C32807   8.532   7.614  10.007  1.1251 -0.2272  0.7196
  244MOL0     O32808   8.561   7.478   9.988 -0.2731 -0.5858  0.8194
  244MOL0     C32809   8.451   7.400   9.967 -0.6100 -0.9087  0.2994
  244MOL0     C32810   8.363   7.417   9.858  0.0059  0.7009  0.0709
  244MOL0     C32811   8.245   7.335   9.844  0.2541 -0.2237 -0.5088
  244MOL0     C32812   8.209   7.250   9.948  0.2186 -0.7801 -0.2356
  244MOL0     O32813   8.088   7.184   9.953  0.2081  1.4580  0.0054
  244MOL0     C32814   7.986   7.257  10.011  0.6946  1.2061  0.4020
  244MOL0     C32815   7.864   7.178   9.994 -0.1322 -0.1259 -0.2323
  244MOL0     C32816   7.810   7.160   9.852 -0.5549 -0.6502 -0.8470
  244MOL0     C32817   7.675   7.100   9.851 -0.0159 -0.1956  0.7770
  244MOL0     C32818   7.623   7.076   9.706  0.9379  0.2418 -0.2296
  244MOL0     C32819   7.494   6.990   9.709  0.0098  0.5219  0.4205
  244MOL0     C32820   7.433   6.969   9.574 -0.5001  0.2569  0.5746
  244MOL0     C32821   7.329   7.076   9.536 -0.9118  1.0729  0.1512
  244MOL0     N32822   7.216   7.053   9.620  0.4050  0.3768 -0.0769
  244MOL0     C32823   7.142   6.935   9.623  0.0790 -0.2619 -0.1277
  244MOL0     C32824   7.073   6.954   9.736 -0.0229 -0.2343 -0.4453
  244MOL0     C32825   6.979   6.856   9.793  0.0346  0.3801 -0.2477
  244MOL0     C32826   6.832   6.893   9.773 -0.1143  0.6217 -0.4076
  244MOL0     C32827   6.780   6.984   9.889 -0.3151 -0.2050  0.2242
  244MOL0     C32828   6.627   6.959   9.894  0.1402  0.1715 -0.0176
  244MOL0     O32829   6.569   7.000   9.765 -0.1412 -0.0614  0.0554
  244MOL0     C32830   6.428   7.008   9.765 -0.3592 -0.1435 -0.2298
  244MOL0     C32831   6.364   7.078   9.662 -0.0590 -1.0143  0.0372
  244MOL0     C32832   6.228   7.074   9.642 -0.3653 -0.4653  0.3842
  244MOL0     C32833   6.163   7.180   9.541  0.9808  0.3149 -0.5174
  244MOL0     C32834   6.145   6.998   9.727  0.0524  0.3561 -0.7680
  244MOL0     C32835   5.999   6.985   9.723  0.3002  1.0159  0.8990
  244MOL0     O32836   5.928   6.941   9.833 -0.5642 -0.1259 -0.6780
  244MOL0     C32837   5.793   6.922   9.825  0.7195 -0.8191 -0.0574
  244MOL0     C32838   5.734   6.804   9.878 -1.1193 -0.5584  0.4763
  244MOL0     C32839   5.598   6.782   9.881  0.5641 -0.2756 -0.1325
  244MOL0     C32840   5.513   6.860   9.806  0.0657 -0.5152  0.5595
  244MOL0     O32841   5.381   6.816   9.800 -0.2843 -0.4102 -0.3098
  244MOL0     C32842   5.287   6.896   9.722 -0.2931 -0.2439  0.8174
  244MOL0     C32843   5.148   6.845   9.734 -0.1019 -0.4256 -0.6392
  244MOL0     C32844   5.128   6.705   9.681 -0.3041 -0.4086 -0.2683
  244MOL0     C32845   4.984   6.661   9.681  0.1355 -0.4604 -0.0510
  244MOL0     C32846   4.889   6.765   9.611 -0.6606 -0.1100 -0.9868
  244MOL0     C32847   4.751   6.702   9.607 -0.0730 -0.4205 -0.2258
  244MOL0     C32848   4.746   6.577   9.534  0.2923 -0.3288 -0.9394
  244MOL0     C32849   4.614   6.513   9.497  0.3053 -0.2997  0.2081
  244MOL0    Cl32850   4.560   6.590   9.336 -0.2642 -0.1707 -0.1055
  244MOL0     C32851   5.565   6.982   9.746  0.3301  0.1793 -0.1367
  244MOL0     C32852   5.703   7.006   9.764  0.0442  0.1795  0.8798
  244MOL0     O32853   5.950   7.010   9.611  0.2090  0.6402 -0.2876
  244MOL0     C32854   6.206   6.933   9.843 -0.4877  0.6063  0.7466
  244MOL0     C32855   6.345   6.948   9.864 -0.0045 -0.0178 -1.0299
  244MOL0     N32856   7.098   7.078   9.796 -0.1179 -0.6483 -0.3258
  244MOL0     N32857   7.180   7.139   9.720 -0.5284  0.5117 -0.6528
  244MOL0     C32858   8.298   7.231  10.057 -0.4147  0.1373  0.6200
  244MOL0     C32859   8.417   7.307  10.063 -0.1238  0.0563  0.2048
  244MOL0     C32860   8.646   7.708  10.010 -0.2772 -0.3858  0.0168
  244MOL0     C32861   8.649   7.827  10.081 -0.1028  0.3593  0.1048
  244MOL0     C32862   8.773   7.894  10.070 -1.4167  0.5647 -0.1722
  244MOL0     C32863   8.892   7.844  10.012 -0.3104 -0.8449  0.2269
  244MOL0     O32864   9.008   7.917  10.022 -0.4091 -0.4214 -0.3945
  244MOL0     C32865   9.124   7.853   9.964 -0.9845 -0.6062  0.3604
  244MOL0     C32866   9.250   7.938   9.996 -0.1111 -0.7542 -0.4550
  244MOL0     C32867   9.246   8.084   9.966 -0.5251 -0.5644  0.2686
  244MOL0     C32868   9.388   8.135   9.926  0.3802  0.3427  0.1123
  244MOL0     C32869   9.487   8.094  10.035 -0.5520 -0.6051  0.7883
  244MOL0     C32870   9.567   8.059  10.122  0.6089  0.8089  0.4322
  244MOL0     C32871   8.878   7.730   9.941  1.1623 -0.0654  0.7247
  244MOL0     C32872   8.757   7.670   9.931 -0.3170 -0.0041 -0.5016
  244MOL0     H32873   8.374   7.503   9.792 -1.9714  0.9001 -0.0737
  244MOL0     H32874   8.170   7.352   9.767 -1.0236 -0.2812  0.6783
  244MOL0     H32875   8.002   7.273  10.118 -2.7108 -4.4082  2.1610
  244MOL0     H32876   7.976   7.358   9.970  1.2776  1.0192 -0.2245
  244MOL0     H32877   7.888   7.089  10.053 -0.5894  0.5144  0.9537
  244MOL0     H32878   7.787   7.229  10.052 -1.9917 -1.7623 -1.1518
  244MOL0     H32879   7.810   7.259   9.804 -1.5723 -0.6453 -0.8679
  244MOL0     H32880   7.885   7.110   9.790  1.8602  0.9587  0.6269
  244MOL0     H32881   7.670   7.008   9.911  0.6981 -0.6644  0.1437
  244MOL0     H32882   7.604   7.170   9.895 -1.9490 -1.3401 -0.3513
  244MOL0     H32883   7.604   7.180   9.675 -2.6447  0.0363  0.8420
  244MOL0     H32884   7.698   7.023   9.646  1.8353 -0.1321  1.1731
  244MOL0     H32885   7.526   6.890   9.737  1.5970  0.8977  0.0647
  244MOL0     H32886   7.412   7.022   9.774 -2.0505 -1.8901 -0.7918
  244MOL0     H32887   7.517   6.971   9.504  1.2456 -1.0918  2.5092
  244MOL0     H32888   7.397   6.867   9.557  5.0782 -2.4500  2.6074
  244MOL0     H32889   7.298   7.060   9.433  1.1460  0.8331 -0.4587
  244MOL0     H32890   7.375   7.175   9.541  1.5407  0.0160 -0.4405
  244MOL0     H32891   7.154   6.854   9.552  2.7441  0.5134 -0.6729
  244MOL0     H32892   6.984   6.766   9.731  1.6282  0.0311  0.3269
  244MOL0     H32893   7.012   6.834   9.895 -2.5341 -1.4019  0.3029
  244MOL0     H32894   6.768   6.804   9.772  1.2191 -0.3689 -1.2616
  244MOL0     H32895   6.821   6.948   9.679 -2.1326  0.7205 -0.1520
  244MOL0     H32896   6.810   7.089   9.878  0.6339 -0.3718  1.0999
  244MOL0     H32897   6.818   6.943   9.983  0.4946 -1.6313 -0.6935
  244MOL0     H32898   6.584   7.026   9.970 -2.7430 -2.8046  1.2250
  244MOL0     H32899   6.602   6.857   9.924  1.9072 -0.1433  0.4859
  244MOL0     H32900   6.426   7.142   9.600 -0.6098  0.2426  0.7566
  244MOL0     H32901   6.129   7.131   9.450  0.5028 -0.8668  0.2749
  244MOL0     H32902   6.081   7.226   9.598 -0.2708 -1.1857 -1.0358
  244MOL0     H32903   6.223   7.267   9.515  1.0397 -0.0904 -1.7532
  244MOL0     H32904   5.792   6.727   9.927  1.8341  0.5303 -1.0214
  244MOL0     H32905   5.570   6.692   9.934  2.7856 -1.2624 -0.4883
  244MOL0     H32906   5.291   6.998   9.761  3.8900  0.4617 -0.9190
  244MOL0     H32907   5.311   6.887   9.615  1.4200 -3.3326  1.3564
  244MOL0     H32908   5.104   6.848   9.835  3.0228 -2.3547  0.9484
  244MOL0     H32909   5.095   6.914   9.667  0.1950 -0.5076 -0.9587
  244MOL0     H32910   5.186   6.636   9.742  1.3230  1.0842 -0.0386
  244MOL0     H32911   5.167   6.700   9.579 -1.6166  1.2289 -0.9155
  244MOL0     H32912   4.982   6.564   9.630  0.3629 -1.7726  2.3027
  244MOL0     H32913   4.948   6.636   9.781  0.0024 -1.9386 -0.4436
  244MOL0     H32914   4.919   6.803   9.513 -0.0172 -3.3228 -2.1863
  244MOL0     H32915   4.882   6.854   9.673 -1.8483 -1.1559  0.4624
  244MOL0     H32916   4.727   6.686   9.712  0.3451  2.2037  0.3447
  244MOL0     H32917   4.682   6.774   9.562 -1.8760 -0.1762  2.6876
  244MOL0     H32918   4.799   6.503   9.595  3.6122  1.8639 -0.8928
  244MOL0     H32919   4.806   6.588   9.443  1.7712  2.0223  0.2307
  244MOL0     H32920   4.530   6.526   9.565  0.3823 -0.4366  0.3292
  244MOL0     H32921   4.628   6.406   9.478 -0.6305 -0.8335  2.2484
  244MOL0     H32922   5.507   7.053   9.688 -0.1364  0.5580  0.7742
  244MOL0     H32923   5.732   7.100   9.719 -0.6751 -0.6419 -1.4389
  244MOL0     H32924   6.139   6.889   9.916 -0.9951 -0.9646 -0.6191
  244MOL0     H32925   6.390   6.902   9.951 -1.8784 -1.1684 -0.6044
  244MOL0     H32926   8.273   7.146  10.119 -3.1904  0.5754  0.2200
  244MOL0     H32927   8.492   7.283  10.138  0.6572  2.5713  0.3131
  244MOL0     H32928   8.562   7.878  10.121 -0.6633  0.2897 -0.9648
  244MOL0     H32929   8.766   7.993  10.116 -1.0512 -0.4610  2.2437
  244MOL0     H32930   9.143   7.753  10.004  3.5415 -0.4343 -0.7878
  244MOL0     H32931   9.128   7.837   9.856  1.2386 -0.7163  0.4174
  244MOL0     H32932   9.338   7.892   9.950  1.7252 -1.3317  3.2420
  244MOL0     H32933   9.263   7.924  10.104 -0.4142  0.5711 -0.2386
  244MOL0     H32934   9.227   8.123  10.066 -0.0150  1.7792 -0.4996
  244MOL0     H32935   9.164   8.122   9.906  0.9784  0.9102 -0.9437
  244MOL0     H32936   9.385   8.245   9.926  0.6376  0.3529 -0.4972
  244MOL0     H32937   9.412   8.104   9.824 -1.4099  2.0203 -0.9016
  244MOL0     H32938   9.627   8.034  10.207  2.0981 -4.1005 -1.7189
  244MOL0     H32939   8.957   7.680   9.886 -0.3638 -1.2970 -0.4343
  244MOL0     H32940   8.756   7.578   9.873  1.9746  0.3641 -1.2205
  245MOL0     O32941   5.553   7.183   4.507 -0.0277 -0.6025 -0.1069
  245MOL0     C32942   5.550   7.308   4.521 -0.8168 -0.3167  0.2734
  245MOL0     O32943   5.449   7.379   4.574 -0.6482  0.9049 -0.3254
  245MOL0     C32944   5.330   7.314   4.605  0.2016  0.3684 -0.7431
  245MOL0     C32945   5.209   7.347   4.534 -0.6371  0.2021  0.0329
  245MOL0     C32946   5.096   7.291   4.584 -0.3101  0.4687 -0.8206
  245MOL0     C32947   5.092   7.204   4.693 -0.4046 -0.4947  0.2617
  245MOL0     O32948   4.968   7.175   4.732  0.1874  0.0685  0.1927
  245MOL0     C32949   4.947   7.108   4.859 -1.3510  0.5857 -0.5676
  245MOL0     C32950   4.798   7.124   4.881  0.7636  0.1730  0.0072
  245MOL0     C32951   4.770   7.042   5.011  0.0348 -1.0542 -0.2842
  245MOL0     C32952   4.629   7.068   5.067 -0.0826  0.0479 -0.5592
  245MOL0     C32953   4.511   7.063   4.967  0.6297  0.2901  0.4697
  245MOL0     C32954   4.503   6.929   4.886 -0.0521  0.2968 -0.4754
  245MOL0     C32955   4.374   6.921   4.805  0.2867 -0.4429  0.2242
  245MOL0     C32956   4.241   6.911   4.883 -0.3764 -0.2764  0.1003
  245MOL0     N32957   4.134   6.905   4.782  0.2959 -0.2662 -0.3682
  245MOL0     C32958   4.100   7.011   4.702  0.1271 -0.0786 -0.7335
  245MOL0     C32959   4.019   6.953   4.612 -0.4182  0.9448  0.3224
  245MOL0     C32960   3.948   7.010   4.491 -0.3014  0.5785 -0.9119
  245MOL0     C32961   3.798   6.979   4.489  0.8682 -0.1427  0.3490
  245MOL0     C32962   3.778   6.834   4.429  0.3398  0.9220  0.2690
  245MOL0     C32963   3.637   6.803   4.376  0.7148  0.2927  0.7747
  245MOL0     O32964   3.609   6.877   4.252 -0.0081  0.6125 -0.3877
  245MOL0     C32965   3.491   6.838   4.190  0.2094 -0.4463  0.1075
  245MOL0     C32966   3.442   6.911   4.078 -0.6444 -0.2061 -0.5149
  245MOL0     C32967   3.330   6.874   4.013  0.3238 -0.3342  0.5488
  245MOL0     C32968   3.313   6.954   3.885 -0.4954 -1.0975 -0.3930
  245MOL0     C32969   3.250   6.770   4.049  0.4005  0.5758 -0.8989
  245MOL0     C32970   3.115   6.724   4.001 -0.7172  0.2618 -0.1958
  245MOL0     O32971   3.064   6.599   4.027 -0.2427  0.5234 -0.3538
  245MOL0     C32972   2.959   6.548   3.944 -0.0563  0.1734 -1.2069
  245MOL0     C32973   2.869   6.462   4.020  0.2997 -0.6224  0.0279
  245MOL0     C32974   2.765   6.393   3.960  0.3536  0.3417 -0.5490
  245MOL0     C32975   2.741   6.410   3.823  0.7500 -0.1885 -0.5829
  245MOL0     O32976   2.644   6.333   3.770 -0.1101 -0.0488 -0.6931
  245MOL0     C32977   2.562   6.365   3.659 -0.4551 -0.4109 -0.0323
  245MOL0     C32978   2.498   6.245   3.588  0.4815  0.2608  0.2313
  245MOL0     C32979   2.393   6.301   3.497 -0.4332  0.3879  0.2246
  245MOL0     C32980   2.319   6.196   3.424  0.4293 -0.2558 -0.3382
  245MOL0     C32981   2.197   6.248   3.343 -0.3147  0.0577 -0.4114
  245MOL0     C32982   2.235   6.330   3.225  0.0720  0.0857  0.7428
  245MOL0     C32983   2.117   6.389   3.149 -0.4051  0.6328 -0.9134
  245MOL0     C32984   2.069   6.272   3.067  0.1190  0.8304  0.0111
  245MOL0    Cl32985   1.895   6.300   3.009 -0.5100  0.4129  0.2420
  245MOL0     C32986   2.810   6.507   3.757 -0.4906  0.1590 -0.2294
  245MOL0     C32987   2.920   6.578   3.809 -0.0444  0.2915 -0.7148
  245MOL0     O32988   3.052   6.807   3.935  0.3584  0.4143  0.0490
  245MOL0     C32989   3.293   6.697   4.161 -0.2700 -0.5443  0.2286
  245MOL0     C32990   3.410   6.736   4.232 -0.6073 -0.3313  0.7675
  245MOL0     N32991   4.000   6.819   4.649  0.4820 -0.5985  0.4723
  245MOL0     N32992   4.057   6.795   4.757  0.0816 -0.6582 -0.0198
  245MOL0     C32993   5.207   7.171   4.760  0.4213 -0.8779 -0.0737
  245MOL0     C32994   5.327   7.230   4.715  0.3265 -0.2734  0.4082
  245MOL0     C32995   5.669   7.388   4.464 -0.8301 -0.2239 -0.0343
  245MOL0     C32996   5.671   7.530   4.467 -0.1894  0.2475  0.0544
  245MOL0     C32997   5.781   7.590   4.414  0.3175  0.4212 -0.3865
  245MOL0     C32998   5.889   7.525   4.366  0.5299 -0.1730 -0.3902
  245MOL0     O32999   5.996   7.608   4.332  0.3566  0.0276  0.0439
  245MOL0     C33000   6.117   7.581   4.389  0.2877 -0.4820 -0.4229
  245MOL0     C33001   6.224   7.669   4.334  0.3240 -0.7105  0.2073
  245MOL0     C33002   6.264   7.612   4.200 -0.6663 -0.1527  0.5014
  245MOL0     C33003   6.386   7.682   4.150 -0.0939  0.4940 -0.4284
  245MOL0     C33004   6.509   7.648   4.216  0.8569 -0.0848 -0.2753
  245MOL0     C33005   6.609   7.633   4.280  0.0058  0.3449  0.4090
  245MOL0     C33006   5.891   7.383   4.363 -1.0096 -0.5139  0.9724
  245MOL0     C33007   5.781   7.318   4.414 -0.4394 -0.1304  0.5730
  245MOL0     H33008   5.209   7.414   4.448  1.0888  1.1319  0.6985
  245MOL0     H33009   5.003   7.305   4.529 -2.0000  0.2301  1.8116
  245MOL0     H33010   4.974   7.002   4.852 -3.3777  0.1319 -2.9807
  245MOL0     H33011   5.002   7.159   4.938  0.7753 -1.8922 -0.2838
  245MOL0     H33012   4.752   7.223   4.879 -1.3804 -0.7759  0.0943
  245MOL0     H33013   4.746   7.075   4.798 -1.7649 -1.8525  2.5901
  245MOL0     H33014   4.787   6.936   4.996  2.1969 -0.8520  0.4679
  245MOL0     H33015   4.838   7.074   5.090  0.3277 -0.0424 -0.9320
  245MOL0     H33016   4.622   6.994   5.148 -1.1877 -0.7997 -1.3937
  245MOL0     H33017   4.621   7.162   5.123 -1.4720  1.2990 -2.7346
  245MOL0     H33018   4.425   7.067   5.034  0.2092  0.9740 -0.0845
  245MOL0     H33019   4.508   7.143   4.892 -0.2515  0.0329  0.2136
  245MOL0     H33020   4.586   6.925   4.815  0.9402  0.3390  0.6584
  245MOL0     H33021   4.515   6.844   4.954 -1.1938  0.7065  0.2683
  245MOL0     H33022   4.379   7.015   4.750  2.9394 -0.7714 -0.2264
  245MOL0     H33023   4.394   6.847   4.728  2.3187  0.9834 -0.7171
  245MOL0     H33024   4.224   6.993   4.953  2.1367  1.2588 -0.9449
  245MOL0     H33025   4.241   6.814   4.934 -2.5896 -1.0562 -1.2382
  245MOL0     H33026   4.139   7.112   4.706 -0.0750 -0.0335  1.2948
  245MOL0     H33027   3.955   7.119   4.495 -0.1071  0.5626 -0.7870
  245MOL0     H33028   3.999   6.967   4.404 -0.8142  1.8356 -1.8552
  245MOL0     H33029   3.739   7.047   4.427 -3.2281 -4.3954 -0.9773
  245MOL0     H33030   3.760   6.980   4.591  3.2996 -1.6052  1.3491
  245MOL0     H33031   3.800   6.762   4.508 -0.0697 -0.9723 -1.2852
  245MOL0     H33032   3.842   6.799   4.348  2.0074  0.1283  1.8532
  245MOL0     H33033   3.565   6.815   4.458  0.9810  2.0797  0.7982
  245MOL0     H33034   3.636   6.697   4.353  1.0393  0.0315  1.8823
  245MOL0     H33035   3.513   6.974   4.026  0.4580  1.0497  2.3379
  245MOL0     H33036   3.330   7.062   3.897 -0.0258 -1.3704  1.8386
  245MOL0     H33037   3.379   6.915   3.808 -1.8460  0.7345 -2.6154
  245MOL0     H33038   3.207   6.951   3.856 -2.0841  3.5850  3.4881
  245MOL0     H33039   2.910   6.434   4.117  1.0303 -0.6175 -0.2689
  245MOL0     H33040   2.716   6.320   4.024 -0.0874  0.2308 -1.0029
  245MOL0     H33041   2.489   6.436   3.700 -0.3352  0.0947 -0.6870
  245MOL0     H33042   2.626   6.405   3.580  0.6764 -1.5030  0.3001
  245MOL0     H33043   2.574   6.194   3.527  1.3739 -1.7463  2.8315
  245MOL0     H33044   2.458   6.175   3.661  0.4252 -0.9693 -0.9290
  245MOL0     H33045   2.435   6.376   3.429 -0.9686  0.6629  0.1884
  245MOL0     H33046   2.316   6.351   3.557 -0.4204  1.4203 -0.5926
  245MOL0     H33047   2.386   6.141   3.358 -0.0161 -0.4547 -0.6352
  245MOL0     H33048   2.283   6.119   3.492  1.9562  0.0690  0.8816
  245MOL0     H33049   2.132   6.301   3.413 -1.1384 -1.3887 -0.0520
  245MOL0     H33050   2.147   6.153   3.324  0.5956 -0.7748  1.1332
  245MOL0     H33051   2.294   6.417   3.253 -1.1041  0.6520  1.5390
  245MOL0     H33052   2.300   6.271   3.159 -2.1002 -0.5023 -1.0050
  245MOL0     H33053   2.135   6.470   3.078 -1.0883  0.9742 -0.7084
  245MOL0     H33054   2.037   6.427   3.214  1.4740  1.1703  1.2083
  245MOL0     H33055   2.067   6.182   3.130  0.4829 -1.0881 -2.5203
  245MOL0     H33056   2.132   6.259   2.978  0.1216  1.6440 -0.1070
  245MOL0     H33057   2.805   6.507   3.648 -1.5170  1.2302 -0.1985
  245MOL0     H33058   2.965   6.648   3.739  3.2977 -1.4048 -0.4832
  245MOL0     H33059   3.239   6.616   4.209 -1.6210  0.0390 -0.2456
  245MOL0     H33060   3.434   6.681   4.322  1.1484  1.4829  1.4901
  245MOL0     H33061   5.205   7.092   4.833 -0.4503 -2.3734 -1.6481
  245MOL0     H33062   5.409   7.205   4.781  0.6522 -0.7277 -0.1629
  245MOL0     H33063   5.589   7.590   4.503 -0.0742  1.3428 -1.4025
  245MOL0     H33064   5.782   7.696   4.438 -2.0911 -0.3993  4.8259
  245MOL0     H33065   6.096   7.606   4.494  0.0767  1.6461 -0.9272
  245MOL0     H33066   6.149   7.478   4.372  2.2962 -0.6934  3.5873
  245MOL0     H33067   6.307   7.662   4.405  0.2107 -0.1173  0.4025
  245MOL0     H33068   6.204   7.776   4.324  0.1812 -0.7646 -0.1000
  245MOL0     H33069   6.192   7.634   4.121  1.1737  0.1755 -1.1850
  245MOL0     H33070   6.272   7.503   4.208  1.9779 -0.0361  0.4603
  245MOL0     H33071   6.354   7.787   4.153  0.5090  0.6984 -0.7718
  245MOL0     H33072   6.402   7.653   4.045 -2.3585 -1.1963 -0.3805
  245MOL0     H33073   6.711   7.623   4.314  0.3698 -0.1192 -0.7707
  245MOL0     H33074   5.985   7.340   4.330 -1.0263  1.0868 -1.3750
  245MOL0     H33075   5.781   7.211   4.437  0.5673 -0.4866 -0.9252
  246MOL0     O33076   8.365   7.994   5.237 -0.1242  0.7377  0.4029
  246MOL0     C33077   8.411   7.881   5.237 -0.0663  0.1034  0.4786
  246MOL0     O33078   8.360   7.766   5.300 -0.5352 -0.9759 -0.1315
  246MOL0     C33079   8.252   7.779   5.382  0.4524  0.6395  0.7394
  246MOL0     C33080   8.244   7.850   5.497 -0.3972 -0.3654  0.0812
  246MOL0     C33081   8.128   7.868   5.567  0.5321  0.6618 -0.1347
  246MOL0     C33082   8.009   7.795   5.532 -0.8534  0.5919  0.0490
  246MOL0     O33083   7.885   7.787   5.591  0.4075  0.5284 -0.7501
  246MOL0     C33084   7.835   7.918   5.626 -0.2735  1.0824 -0.7844
  246MOL0     C33085   7.688   7.929   5.676  0.0982 -0.4375 -1.0331
  246MOL0     C33086   7.590   7.892   5.574 -0.3085  0.0232 -0.1519
  246MOL0     C33087   7.548   7.746   5.576  0.7368  1.3450  0.3925
  246MOL0     C33088   7.498   7.685   5.709  0.1128 -0.3312 -0.8019
  246MOL0     C33089   7.423   7.554   5.688 -0.4411  0.2015 -0.1629
  246MOL0     C33090   7.365   7.491   5.818 -0.2816 -0.4705 -0.0471
  246MOL0     C33091   7.299   7.356   5.790 -0.5040  0.9290  0.4433
  246MOL0     N33092   7.202   7.314   5.894 -0.1929  0.0273  0.0467
  246MOL0     C33093   7.215   7.205   5.974  0.1378  0.5719 -0.6643
  246MOL0     C33094   7.096   7.206   6.031  0.1355  0.0639  0.6746
  246MOL0     C33095   7.042   7.106   6.136 -0.3403  0.5860  0.0199
  246MOL0     C33096   6.901   7.075   6.126  0.0758 -0.9025 -0.0478
  246MOL0     C33097   6.868   6.940   6.188  0.4921 -0.6949  0.9185
  246MOL0     C33098   6.716   6.931   6.207 -0.1707 -0.0797  0.0964
  246MOL0     O33099   6.685   6.883   6.338 -0.6569 -0.4080  0.0584
  246MOL0     C33100   6.566   6.906   6.381 -0.6165  0.0415  0.2004
  246MOL0     C33101   6.540   6.846   6.500  1.3980  0.9330  0.7555
  246MOL0     C33102   6.419   6.864   6.571  1.0877 -0.3649 -1.6215
  246MOL0     C33103   6.414   6.801   6.715 -0.1999  0.3831 -0.3255
  246MOL0     C33104   6.311   6.944   6.508 -1.1112  0.5092  0.4911
  246MOL0     C33105   6.179   6.954   6.570 -0.1235 -0.5337 -0.2019
  246MOL0     O33106   6.105   7.076   6.549  0.3130  0.3320 -0.1599
  246MOL0     C33107   5.972   7.083   6.601  0.2062  0.4230 -0.1593
  246MOL0     C33108   5.872   7.132   6.511 -0.2339  0.4697  0.4850
  246MOL0     C33109   5.744   7.151   6.561  0.5558 -0.3248  0.0906
  246MOL0     C33110   5.706   7.130   6.694  0.3704  0.3098 -0.4109
  246MOL0     O33111   5.580   7.162   6.743  0.7223 -0.2262  0.3942
  246MOL0     C33112   5.485   7.237   6.661  0.0118  0.3601  0.4196
  246MOL0     C33113   5.375   7.290   6.752 -0.2871  0.2918  0.1261
  246MOL0     C33114   5.261   7.187   6.779 -1.1223  0.2430  0.6294
  246MOL0     C33115   5.318   7.064   6.848  0.5289 -0.7117 -0.3934
  246MOL0     C33116   5.207   6.995   6.928 -0.3861 -0.1722 -0.4810
  246MOL0     C33117   5.271   6.901   7.020 -0.4650 -0.1394  0.4066
  246MOL0     C33118   5.156   6.843   7.099  0.1565  0.0805 -0.4325
  246MOL0     C33119   5.194   6.720   7.173 -0.2005  0.7187 -0.6281
  246MOL0    Cl33120   5.311   6.741   7.305 -0.4571 -0.0838  0.3440
  246MOL0     C33121   5.798   7.072   6.774 -0.1179  0.9596  0.1726
  246MOL0     C33122   5.926   7.042   6.732  0.2877  0.0453 -0.3179
  246MOL0     O33123   6.138   6.852   6.619  0.1664 -0.6528  0.1329
  246MOL0     C33124   6.337   6.990   6.382  0.4463 -0.1312  0.6152
  246MOL0     C33125   6.462   6.982   6.319  0.0682 -0.4651  0.0246
  246MOL0     N33126   7.017   7.317   5.987 -0.5522  0.1095 -0.3579
  246MOL0     N33127   7.083   7.388   5.903  0.4259  0.6208  0.1489
  246MOL0     C33128   8.035   7.698   5.426 -0.9282 -0.1401  0.0278
  246MOL0     C33129   8.153   7.690   5.349  0.3898  0.6060  0.2908
  246MOL0     C33130   8.538   7.861   5.160 -1.2790 -0.3775 -0.3200
  246MOL0     C33131   8.632   7.973   5.145 -0.6367  0.0680  0.1716
  246MOL0     C33132   8.744   7.957   5.062 -0.4400  1.1508  0.0520
  246MOL0     C33133   8.773   7.835   4.995  0.4982  0.0104  0.1036
  246MOL0     O33134   8.880   7.811   4.910  0.1836 -0.0446  0.0648
  246MOL0     C33135   8.973   7.919   4.869 -0.0517 -0.5594 -1.1927
  246MOL0     C33136   9.077   7.945   4.976 -0.4059 -0.1673 -0.3965
  246MOL0     C33137   9.157   8.077   4.959  0.5877  1.0400  0.9812
  246MOL0     C33138   9.277   8.092   5.049 -0.2470 -0.6032 -0.6950
  246MOL0     C33139   9.405   8.038   4.992  0.7820 -0.2269 -0.4281
  246MOL0     C33140   9.506   7.990   4.944  0.4972 -0.1575 -0.7888
  246MOL0     C33141   8.676   7.735   5.014  0.1719  0.3772  0.8818
  246MOL0     C33142   8.568   7.734   5.107 -0.1950 -0.1375 -0.2488
  246MOL0     H33143   8.326   7.902   5.543 -1.3980 -0.2699  1.8471
  246MOL0     H33144   8.127   7.945   5.644  0.5615  0.2237  0.3082
  246MOL0     H33145   7.898   7.967   5.701 -0.8502 -0.7462  1.0109
  246MOL0     H33146   7.846   7.972   5.532  2.1268 -1.0465 -1.8619
  246MOL0     H33147   7.667   7.873   5.767  0.0983 -1.3123 -1.5592
  246MOL0     H33148   7.683   8.037   5.692 -3.7434 -0.3724 -1.8552
  246MOL0     H33149   7.506   7.961   5.583 -2.3072 -2.0595 -1.7523
  246MOL0     H33150   7.633   7.925   5.479  1.0913 -0.0387  0.4308
  246MOL0     H33151   7.477   7.741   5.493  2.1899  1.0085 -0.8630
  246MOL0     H33152   7.626   7.683   5.532 -0.9052  1.0959 -2.3980
  246MOL0     H33153   7.584   7.669   5.775 -1.1062 -2.1964  0.4400
  246MOL0     H33154   7.441   7.754   5.772 -0.3520 -1.0575 -0.4188
  246MOL0     H33155   7.345   7.561   5.613 -0.7275 -0.9640  0.0038
  246MOL0     H33156   7.487   7.472   5.655 -0.4312  0.1542 -0.0286
  246MOL0     H33157   7.443   7.488   5.895 -2.6059 -0.0602  2.4873
  246MOL0     H33158   7.295   7.561   5.865  2.9740  1.1275  2.9859
  246MOL0     H33159   7.376   7.279   5.776 -0.0843  1.5920 -1.0608
  246MOL0     H33160   7.249   7.364   5.694 -1.1314 -2.9638  0.2763
  246MOL0     H33161   7.300   7.140   5.993  0.5423  1.5890  1.3451
  246MOL0     H33162   7.108   7.019   6.129 -2.6795 -1.2307 -0.6683
  246MOL0     H33163   7.068   7.135   6.239 -1.0482  3.7863 -0.6221
  246MOL0     H33164   6.876   7.094   6.021  1.7042  2.9231  0.1032
  246MOL0     H33165   6.851   7.153   6.184  1.5076 -1.2171  1.6977
  246MOL0     H33166   6.919   6.914   6.281 -0.7932 -0.1162  1.8056
  246MOL0     H33167   6.896   6.872   6.107 -1.0433 -0.1956 -0.0761
  246MOL0     H33168   6.682   6.858   6.132 -0.0255  1.8492 -1.9591
  246MOL0     H33169   6.669   7.026   6.181 -0.0806  0.5279  2.0106
  246MOL0     H33170   6.617   6.785   6.546  1.6485 -1.6897 -2.7352
  246MOL0     H33171   6.428   6.693   6.716  1.2735  0.5241  2.0968
  246MOL0     H33172   6.505   6.837   6.765  1.8852 -2.7070 -1.5447
  246MOL0     H33173   6.326   6.835   6.770 -0.1490 -0.4967  0.3180
  246MOL0     H33174   5.902   7.151   6.409 -1.0303 -0.1318  0.1291
  246MOL0     H33175   5.680   7.181   6.479 -1.2122 -1.8631  0.8397
  246MOL0     H33176   5.539   7.328   6.636  1.8294 -0.7911 -0.0237
  246MOL0     H33177   5.451   7.197   6.565 -2.7584  0.4801  1.2492
  246MOL0     H33178   5.406   7.315   6.854 -1.2968 -1.9566  1.0667
  246MOL0     H33179   5.328   7.377   6.706 -1.7866  1.1752  3.0687
  246MOL0     H33180   5.221   7.157   6.681  1.9126 -2.2407 -0.0358
  246MOL0     H33181   5.182   7.234   6.838 -0.2107  1.9008  0.6012
  246MOL0     H33182   5.344   6.984   6.778 -3.4702 -0.5829 -2.3302
  246MOL0     H33183   5.399   7.092   6.915  0.5516 -0.4579 -0.5269
  246MOL0     H33184   5.133   6.946   6.865 -3.3961  3.4520 -0.1537
  246MOL0     H33185   5.147   7.067   6.984  1.4783  2.9561 -2.2034
  246MOL0     H33186   5.323   6.824   6.963  0.3399  0.1628  0.7314
  246MOL0     H33187   5.337   6.959   7.085 -1.7153 -1.3815  2.9704
  246MOL0     H33188   5.069   6.813   7.039  1.7686 -0.6368 -2.5356
  246MOL0     H33189   5.130   6.915   7.176  0.6510 -0.4066  0.1947
  246MOL0     H33190   5.235   6.646   7.103  3.9071  1.7546  0.3825
  246MOL0     H33191   5.098   6.686   7.212  0.4384 -0.8093 -0.3045
  246MOL0     H33192   5.782   7.051   6.879 -2.8812  0.7444 -0.2181
  246MOL0     H33193   5.997   6.991   6.796 -0.3310  0.0245  0.3703
  246MOL0     H33194   6.261   7.032   6.316 -0.0562 -3.4654 -1.1209
  246MOL0     H33195   6.479   7.034   6.226 -1.2600  1.8573  0.9839
  246MOL0     H33196   7.953   7.632   5.401 -0.0936 -0.7958 -1.1069
  246MOL0     H33197   8.150   7.623   5.264  2.5408  0.3966  0.3294
  246MOL0     H33198   8.614   8.074   5.179  1.6569 -0.3723  3.0773
  246MOL0     H33199   8.821   8.034   5.056  0.8138 -0.1491 -1.2634
  246MOL0     H33200   9.024   7.865   4.789  0.7482 -2.9698  0.7969
  246MOL0     H33201   8.912   8.006   4.844  1.1796  1.1132  1.2262
  246MOL0     H33202   9.160   7.875   4.977  1.5894  2.0739 -0.1993
  246MOL0     H33203   9.027   7.941   5.074 -0.7756  3.5496 -0.2994
  246MOL0     H33204   9.084   8.153   4.988 -0.2172  0.5923  0.1798
  246MOL0     H33205   9.180   8.077   4.853  1.6946  0.4174  1.2067
  246MOL0     H33206   9.244   8.036   5.137 -0.4979 -2.7917 -2.1102
  246MOL0     H33207   9.298   8.194   5.081  3.3255 -1.3816 -0.1284
  246MOL0     H33208   9.603   7.953   4.918  0.2159  0.2831 -2.6352
  246MOL0     H33209   8.699   7.641   4.965 -0.1354  1.3349 -1.1883
  246MOL0     H33210   8.505   7.648   5.124 -2.3627  1.2724 -0.7321
  247MOL0     O33211   8.040   4.881   3.641  0.0895 -0.1179  0.0555
  247MOL0     C33212   8.061   4.971   3.723  0.2515 -0.5510 -0.4231
  247MOL0     O33213   8.178   5.033   3.755 -0.8780 -0.4298  0.2585
  247MOL0     C33214   8.289   4.996   3.686  0.0797  0.1259  0.4561
  247MOL0     C33215   8.348   5.072   3.587 -0.0027  0.2819  0.0360
  247MOL0     C33216   8.476   5.057   3.534  0.0756 -0.7364 -0.1023
  247MOL0     C33217   8.560   4.954   3.581  0.5543  0.0098  0.0939
  247MOL0     O33218   8.692   4.937   3.536  0.8962 -0.8336 -0.1335
  247MOL0     C33219   8.748   5.047   3.466 -0.5020 -0.0903 -0.5616
  247MOL0     C33220   8.888   5.015   3.445 -0.6242  0.3033  0.5843
  247MOL0     C33221   8.896   4.887   3.367 -0.8647 -1.3063  1.3682
  247MOL0     C33222   9.040   4.860   3.310 -0.2413  0.3986  0.3176
  247MOL0     C33223   9.136   4.833   3.431 -0.0206 -0.1987 -0.1833
  247MOL0     C33224   9.248   4.738   3.404 -0.2527 -0.1092  0.0471
  247MOL0     C33225   9.380   4.759   3.476  0.0627  1.1686 -0.1985
  247MOL0     C33226   9.462   4.637   3.468  0.1915 -0.1354  0.0805
  247MOL0     N33227   9.403   4.510   3.488 -0.0821  0.2827  0.2830
  247MOL0     C33228   9.420   4.407   3.395  0.4112 -0.3290  0.1250
  247MOL0     C33229   9.336   4.310   3.438 -0.3393 -1.6392 -0.8680
  247MOL0     C33230   9.293   4.182   3.374 -0.5054  0.0314 -0.2024
  247MOL0     C33231   9.165   4.211   3.307  0.2076  0.4859 -0.3973
  247MOL0     C33232   9.184   4.246   3.162 -0.1549  0.6210  0.7734
  247MOL0     C33233   9.049   4.260   3.093  0.5720  0.2524 -0.7488
  247MOL0     O33234   9.056   4.301   2.954 -0.3404 -0.4063  0.5743
  247MOL0     C33235   8.937   4.341   2.897 -0.2769 -0.5846  0.7147
  247MOL0     C33236   8.816   4.340   2.968  0.2326 -0.5376  0.2234
  247MOL0     C33237   8.695   4.386   2.905 -0.9256  0.2787 -0.1934
  247MOL0     C33238   8.577   4.364   2.989 -0.0956  0.6263 -0.3816
  247MOL0     C33239   8.703   4.446   2.775 -0.4821 -0.3389  0.2365
  247MOL0     C33240   8.589   4.487   2.704  1.0886  0.4966  0.5450
  247MOL0     O33241   8.589   4.474   2.563  0.4706  0.2502 -0.2425
  247MOL0     C33242   8.466   4.470   2.503  0.7232 -0.0962  0.6825
  247MOL0     C33243   8.439   4.553   2.401 -0.2916 -0.7177  0.6018
  247MOL0     C33244   8.319   4.559   2.333  0.0303 -0.3945  0.4868
  247MOL0     C33245   8.212   4.482   2.380 -0.0071  0.0533 -0.1437
  247MOL0     O33246   8.082   4.480   2.339  0.3135  0.2447  0.3880
  247MOL0     C33247   8.035   4.569   2.245 -0.2685  0.0190  0.1529
  247MOL0     C33248   7.886   4.588   2.257  0.5956  0.8271  0.9226
  247MOL0     C33249   7.854   4.691   2.357 -0.0853 -1.2431  0.1021
  247MOL0     C33250   7.702   4.695   2.395 -0.6090  0.2512 -0.4159
  247MOL0     C33251   7.673   4.817   2.486  1.2930 -0.6245  0.8936
  247MOL0     C33252   7.515   4.813   2.524  0.1719 -0.2456  0.3043
  247MOL0     C33253   7.473   4.959   2.552  0.4455 -0.0452 -0.0086
  247MOL0     C33254   7.552   5.030   2.660  1.3338 -0.3962 -0.6975
  247MOL0    Cl33255   7.529   4.938   2.807 -0.1426 -0.1718  0.0921
  247MOL0     C33256   8.228   4.403   2.490  0.4308  0.0957  0.2360
  247MOL0     C33257   8.358   4.383   2.548 -0.4179 -0.5391 -0.1543
  247MOL0     O33258   8.502   4.544   2.772 -0.1260 -0.2491  0.1431
  247MOL0     C33259   8.827   4.452   2.706  0.4914  0.6247 -0.5058
  247MOL0     C33260   8.944   4.407   2.773  0.3787 -0.0932  0.0963
  247MOL0     N33261   9.278   4.353   3.558 -0.0657 -0.3698 -0.3676
  247MOL0     N33262   9.316   4.476   3.584  0.4827  0.5171 -0.1416
  247MOL0     C33263   8.508   4.880   3.686 -0.3174  0.6870  0.6358
  247MOL0     C33264   8.378   4.901   3.734 -0.4307  0.0471  0.8652
  247MOL0     C33265   7.950   5.013   3.806 -0.6094  0.3965 -0.0559
  247MOL0     C33266   7.952   5.134   3.887  0.5035  0.0974  0.4481
  247MOL0     C33267   7.846   5.169   3.970  0.2157  0.0828 -0.0802
  247MOL0     C33268   7.737   5.087   3.978  0.0323  0.3778  0.5336
  247MOL0     O33269   7.629   5.106   4.067 -0.2166 -0.0067  0.2602
  247MOL0     C33270   7.634   5.180   4.194  0.5788  0.3878  0.5257
  247MOL0     C33271   7.703   5.100   4.306 -0.0457  0.1731  0.1575
  247MOL0     C33272   7.675   5.167   4.441 -0.6027 -0.7690 -0.5872
  247MOL0     C33273   7.541   5.117   4.507 -0.4217 -0.1962 -0.8128
  247MOL0     C33274   7.536   5.173   4.652 -0.6494  0.5912 -0.2392
  247MOL0     C33275   7.515   5.221   4.760  0.7041  0.0789  0.8813
  247MOL0     C33276   7.734   4.978   3.894 -0.1780  0.1312 -0.2260
  247MOL0     C33277   7.831   4.936   3.807 -0.4180 -0.0499  0.5653
  247MOL0     H33278   8.306   5.166   3.553  0.9967  0.6235 -0.3070
  247MOL0     H33279   8.510   5.124   3.455  0.4712  0.9296  1.4384
  247MOL0     H33280   8.698   5.061   3.370 -0.8109  1.4564 -0.2129
  247MOL0     H33281   8.741   5.142   3.522  2.1959  0.0046 -0.2695
  247MOL0     H33282   8.956   5.094   3.411  1.3606 -1.8168 -0.6988
  247MOL0     H33283   8.931   4.974   3.537  2.4067 -1.3237 -1.3616
  247MOL0     H33284   8.861   4.797   3.419 -1.8198  0.3883  3.8254
  247MOL0     H33285   8.831   4.907   3.282 -2.9911  1.1783  3.4062
  247MOL0     H33286   9.041   4.769   3.249  0.0765 -0.4548  1.5595
  247MOL0     H33287   9.069   4.943   3.245 -0.3977  0.0180 -0.2514
  247MOL0     H33288   9.181   4.925   3.472 -2.1053 -0.1810  2.3416
  247MOL0     H33289   9.086   4.789   3.518  0.1321  2.3702  1.3028
  247MOL0     H33290   9.214   4.635   3.419  1.7585 -0.9157 -0.6128
  247MOL0     H33291   9.264   4.736   3.296  0.1296 -2.0488  0.0958
  247MOL0     H33292   9.428   4.851   3.442 -0.4560  3.1121  3.7789
  247MOL0     H33293   9.365   4.773   3.584 -3.6701 -1.4523 -0.1703
  247MOL0     H33294   9.549   4.663   3.529  3.3806  0.6153 -4.2915
  247MOL0     H33295   9.506   4.637   3.368 -0.7763 -1.1226 -0.3650
  247MOL0     H33296   9.466   4.417   3.297  0.8758  0.6133  0.4275
  247MOL0     H33297   9.368   4.136   3.309 -1.4521  1.1375 -2.1873
  247MOL0     H33298   9.281   4.110   3.455  0.2208 -0.2279 -0.3231
  247MOL0     H33299   9.102   4.287   3.355 -0.6851  0.5943 -1.6847
  247MOL0     H33300   9.105   4.119   3.307  2.3634 -0.9857 -0.2109
  247MOL0     H33301   9.243   4.164   3.118  1.4398  0.4512  3.0786
  247MOL0     H33302   9.230   4.344   3.147 -1.0929  1.1188  1.1306
  247MOL0     H33303   9.001   4.334   3.158 -0.5241 -0.1621 -1.0661
  247MOL0     H33304   9.015   4.157   3.089  0.1385  0.4298 -3.3995
  247MOL0     H33305   8.812   4.278   3.057  0.5165 -0.6061  0.1876
  247MOL0     H33306   8.542   4.465   3.012 -0.0301  0.0415  2.6799
  247MOL0     H33307   8.497   4.306   2.941 -1.6936  2.1815  0.2551
  247MOL0     H33308   8.594   4.323   3.089 -2.0201 -2.1916 -1.0959
  247MOL0     H33309   8.516   4.629   2.385 -0.9646 -0.1854 -0.2127
  247MOL0     H33310   8.315   4.622   2.244  0.1939 -2.9920 -1.4797
  247MOL0     H33311   8.072   4.669   2.269 -3.7781  1.4922  0.0324
  247MOL0     H33312   8.085   4.541   2.152  0.9517 -4.5244  1.9166
  247MOL0     H33313   7.845   4.616   2.160  0.6597 -2.9258 -0.3473
  247MOL0     H33314   7.845   4.488   2.274  2.0102  0.4822  2.6126
  247MOL0     H33315   7.878   4.790   2.319  2.0274 -0.4636  3.1147
  247MOL0     H33316   7.902   4.671   2.453  1.4842  1.9212  0.0984
  247MOL0     H33317   7.646   4.706   2.302 -0.9008 -4.4683 -1.0668
  247MOL0     H33318   7.664   4.603   2.441  1.9369 -0.4401  0.4765
  247MOL0     H33319   7.691   4.904   2.423 -0.2844 -1.2532 -0.4990
  247MOL0     H33320   7.735   4.797   2.575 -0.4792 -0.5934  2.1929
  247MOL0     H33321   7.450   4.773   2.446 -2.5832  2.0390  1.2481
  247MOL0     H33322   7.488   4.751   2.610 -2.3357  1.2310  0.6769
  247MOL0     H33323   7.377   4.951   2.603  0.3918  0.3672 -0.0430
  247MOL0     H33324   7.457   5.025   2.466  1.6709  2.1800  1.3733
  247MOL0     H33325   7.531   5.137   2.672 -0.9369 -1.0010  1.7742
  247MOL0     H33326   7.657   5.037   2.630  1.4927  2.1414  0.2127
  247MOL0     H33327   8.145   4.338   2.517  0.6183 -0.4983 -0.5864
  247MOL0     H33328   8.378   4.309   2.625  0.1638  0.2838  0.5024
  247MOL0     H33329   8.845   4.480   2.603 -0.2870 -0.0996 -0.8487
  247MOL0     H33330   9.041   4.425   2.729 -0.0744  1.0133 -0.4878
  247MOL0     H33331   8.580   4.814   3.733 -0.8306 -0.3577  0.0188
  247MOL0     H33332   8.356   4.845   3.825  0.6795  1.4975  2.0884
  247MOL0     H33333   8.038   5.198   3.873 -0.0166  0.6794 -0.1332
  247MOL0     H33334   7.863   5.257   4.030  0.8874 -0.7929  1.0463
  247MOL0     H33335   7.695   5.269   4.180  0.9107  0.7560  3.7230
  247MOL0     H33336   7.537   5.219   4.227  0.6840  1.5468 -0.4712
  247MOL0     H33337   7.808   5.092   4.277 -0.4601 -1.4413 -1.0464
  247MOL0     H33338   7.674   4.995   4.311  1.5794 -0.2558  1.0056
  247MOL0     H33339   7.682   5.276   4.430 -0.9733 -0.7624 -0.7719
  247MOL0     H33340   7.753   5.148   4.515  0.4834  3.4280 -0.3929
  247MOL0     H33341   7.544   5.008   4.515 -0.3154 -0.1085  0.5116
  247MOL0     H33342   7.454   5.151   4.450  0.3813  4.8699  0.4555
  247MOL0     H33343   7.481   5.255   4.856 -0.5643 -0.6108  0.6934
  247MOL0     H33344   7.652   4.910   3.917  0.3445 -0.3899  0.1119
  247MOL0     H33345   7.824   4.842   3.753 -0.1769  0.4145 -0.3054
  248MOL0     O33346   9.868   6.286  10.551 -0.5856 -0.0394 -0.3199
  248MOL0     C33347   9.924   6.392  10.581 -0.9661  0.7390 -0.1206
  248MOL0     O33348   9.875   6.515  10.564  0.7280 -0.1432 -0.0097
  248MOL0     C33349   9.739   6.549  10.556 -0.2845  0.5706  0.4253
  248MOL0     C33350   9.701   6.675  10.526 -0.3122  0.5491 -0.2931
  248MOL0     C33351   9.566   6.714  10.509 -0.0393 -0.2928  0.6702
  248MOL0     C33352   9.459   6.616  10.525  0.5367 -0.4773 -0.6824
  248MOL0     O33353   9.329   6.664  10.509  0.0361  0.0622  0.5172
  248MOL0     C33354   9.222   6.573  10.540 -0.6188 -0.2542  0.2560
  248MOL0     C33355   9.082   6.630  10.504  0.2172  0.1920 -0.3122
  248MOL0     C33356   8.982   6.525  10.514 -0.2999  0.9121 -0.2222
  248MOL0     C33357   8.844   6.568  10.461 -0.7340  1.0648 -0.0818
  248MOL0     C33358   8.734   6.469  10.494  0.1974  0.0480  0.4141
  248MOL0     C33359   8.611   6.524  10.422 -0.0895  0.0610 -0.5125
  248MOL0     C33360   8.483   6.444  10.431 -0.5437  0.2673 -0.7389
  248MOL0     C33361   8.366   6.519  10.370 -0.6924 -0.0812 -0.8099
  248MOL0     N33362   8.248   6.426  10.377 -0.3929 -0.2656  0.5006
  248MOL0     C33363   8.198   6.356  10.276  0.3049 -0.5230 -0.0009
  248MOL0     C33364   8.086   6.302  10.337 -0.1624 -0.2239  0.4503
  248MOL0     C33365   7.989   6.204  10.273  0.5912  0.0054 -1.2559
  248MOL0     C33366   7.975   6.082  10.369  0.3125  0.5502  0.4744
  248MOL0     C33367   7.893   5.968  10.317  0.5834  1.0778 -0.7795
  248MOL0     C33368   7.742   6.009  10.297  0.1465 -0.0146  0.0907
  248MOL0     O33369   7.675   5.889  10.254  1.0815  0.5190 -0.6096
  248MOL0     C33370   7.553   5.900  10.189  0.1031  0.1574  0.0046
  248MOL0     C33371   7.499   6.009  10.131  0.3634  0.1643  0.1074
  248MOL0     C33372   7.374   6.009  10.065 -0.2829 -0.5137 -0.1177
  248MOL0     C33373   7.306   6.131  10.010  0.1765 -1.2298  0.2841
  248MOL0     C33374   7.296   5.889  10.050  0.4928 -0.0587 -0.7675
  248MOL0     C33375   7.159   5.877   9.994 -0.0482  0.0324  0.7388
  248MOL0     O33376   7.055   5.954  10.048  0.3013  0.1711  0.0733
  248MOL0     C33377   6.945   5.965   9.972 -0.3158  0.0641  0.8783
  248MOL0     C33378   6.818   5.945  10.040  0.3606 -0.2828 -0.0633
  248MOL0     C33379   6.698   5.967   9.969 -0.9818  0.3115  0.6026
  248MOL0     C33380   6.689   6.011   9.842  0.1787  0.0891 -0.0002
  248MOL0     O33381   6.560   6.017   9.780 -0.2215 -0.4650 -0.0490
  248MOL0     C33382   6.547   6.079   9.650  0.1781  0.0748 -0.1765
  248MOL0     C33383   6.423   6.024   9.582 -0.0168  0.0532  1.2062
  248MOL0     C33384   6.416   5.875   9.568  0.5606  1.2744 -0.7000
  248MOL0     C33385   6.486   5.834   9.437 -0.3138 -0.1630  0.0982
  248MOL0     C33386   6.474   5.684   9.408 -0.0265 -0.3272  0.0091
  248MOL0     C33387   6.561   5.598   9.498 -0.5473  0.4000  0.3363
  248MOL0     C33388   6.711   5.641   9.529  0.0651  1.3771 -0.2210
  248MOL0     C33389   6.794   5.533   9.597 -0.1954 -0.1791 -0.7319
  248MOL0    Cl33390   6.714   5.454   9.738  0.1017 -0.0021 -0.1456
  248MOL0     C33391   6.816   6.046   9.781  0.3995 -0.7563 -0.1300
  248MOL0     C33392   6.941   6.019   9.845  0.4497 -0.6990 -0.8514
  248MOL0     O33393   7.148   5.791   9.906 -0.1604  0.5138  0.0283
  248MOL0     C33394   7.359   5.777  10.105  0.4000 -0.6564 -0.2326
  248MOL0     C33395   7.479   5.783  10.176  0.1997  0.3520 -0.4520
  248MOL0     N33396   8.070   6.343  10.462  0.2623  0.1501  0.6077
  248MOL0     N33397   8.160   6.429  10.475  0.0291  0.4164  0.6386
  248MOL0     C33398   9.497   6.489  10.564  0.8344  0.9480 -0.6984
  248MOL0     C33399   9.632   6.457  10.581 -0.7403 -0.1510  1.5724
  248MOL0     C33400  10.063   6.386  10.621 -0.0741  0.3214  0.4616
  248MOL0     C33401  10.123   6.490  10.693 -0.1177  0.3697 -0.3910
  248MOL0     C33402  10.261   6.494  10.708 -0.2817 -0.0047  0.0965
  248MOL0     C33403  10.345   6.389  10.659  0.8937  0.2619 -0.6457
  248MOL0     O33404  10.476   6.412  10.677  0.5083 -0.6504  0.0409
  248MOL0     C33405  10.554   6.296  10.692  0.8128 -0.5677  0.8142
  248MOL0     C33406  10.688   6.327  10.769 -0.3115  0.4671  0.5068
  248MOL0     C33407  10.756   6.204  10.832  0.3232 -0.6536  0.3101
  248MOL0     C33408  10.897   6.238  10.879 -0.1370  1.3618  0.5009
  248MOL0     C33409  10.985   6.318  10.797 -0.9701 -0.0799 -0.5318
  248MOL0     C33410  11.062   6.374  10.717  0.3901  1.5966 -0.1350
  248MOL0     C33411  10.286   6.279  10.589 -0.1739 -0.4173 -0.5880
  248MOL0     C33412  10.141   6.280  10.579 -0.8058  0.5355  0.1505
  248MOL0     H33413   9.783   6.742  10.503 -0.6236 -0.2325 -4.5231
  248MOL0     H33414   9.538   6.815  10.481 -1.6560 -0.9729 -0.2816
  248MOL0     H33415   9.235   6.473  10.499 -1.5042 -0.5324  0.6365
  248MOL0     H33416   9.205   6.566  10.648 -3.1359  2.0559  0.1123
  248MOL0     H33417   9.051   6.707  10.575 -0.9943 -0.8130  0.2769
  248MOL0     H33418   9.078   6.666  10.400 -0.3136 -0.3907 -0.4967
  248MOL0     H33419   9.024   6.433  10.472  1.5322  0.9693  1.3326
  248MOL0     H33420   8.968   6.505  10.620  0.3580  2.5232  0.1981
  248MOL0     H33421   8.816   6.665  10.503  2.4829  2.1162 -0.0583
  248MOL0     H33422   8.852   6.581  10.352 -2.8496  1.5424 -0.2235
  248MOL0     H33423   8.752   6.374  10.442 -2.3977  0.7918 -2.1031
  248MOL0     H33424   8.727   6.457  10.602 -1.5001 -0.1052  0.3069
  248MOL0     H33425   8.599   6.622  10.470 -1.0569 -0.7257  0.9268
  248MOL0     H33426   8.634   6.554  10.319 -0.9279 -0.3819 -0.8329
  248MOL0     H33427   8.494   6.351  10.374  0.2075 -0.4493  0.5430
  248MOL0     H33428   8.467   6.410  10.534 -2.2656  1.0734 -0.6927
  248MOL0     H33429   8.390   6.544  10.266  3.6054 -0.3712 -0.0787
  248MOL0     H33430   8.357   6.609  10.431  0.6507  1.7670 -3.1715
  248MOL0     H33431   8.229   6.321  10.178  1.9478 -0.3351  0.4218
  248MOL0     H33432   7.895   6.260  10.271 -0.0418 -0.5768  2.9557
  248MOL0     H33433   8.012   6.175  10.170  2.9227 -0.6178 -0.6362
  248MOL0     H33434   7.927   6.120  10.460 -1.9828  2.0877 -1.2371
  248MOL0     H33435   8.072   6.040  10.396 -0.1214 -1.8360 -1.3938
  248MOL0     H33436   7.890   5.885  10.388 -0.0585  0.6216 -1.3294
  248MOL0     H33437   7.938   5.936  10.222 -2.3462  0.1774 -1.9684
  248MOL0     H33438   7.749   6.084  10.217  1.9865 -1.7920 -1.5229
  248MOL0     H33439   7.692   6.042  10.389 -0.1478 -1.6222  0.5369
  248MOL0     H33440   7.544   6.107  10.129  1.6299 -0.3959  0.1951
  248MOL0     H33441   7.358   6.227  10.008  1.0553 -1.6375 -3.3883
  248MOL0     H33442   7.268   6.109   9.910 -0.9765  0.0198  0.4225
  248MOL0     H33443   7.213   6.147  10.067  1.0398 -0.6001  1.5627
  248MOL0     H33444   6.807   5.907  10.141 -0.6431  2.0419  0.7565
  248MOL0     H33445   6.605   5.940  10.019  0.0780  0.6198  2.8710
  248MOL0     H33446   6.530   6.187   9.655 -0.5146  0.2194 -3.5298
  248MOL0     H33447   6.637   6.063   9.590  1.1036 -1.3420  1.5052
  248MOL0     H33448   6.348   6.049   9.658 -1.2548 -2.5145  0.9227
  248MOL0     H33449   6.408   6.081   9.490 -0.2256  0.6739  1.6151
  248MOL0     H33450   6.309   5.856   9.559  0.4735  0.6730  1.2811
  248MOL0     H33451   6.452   5.823   9.657 -0.9854 -0.8615 -1.2435
  248MOL0     H33452   6.437   5.882   9.352 -3.8632 -1.2920  1.3073
  248MOL0     H33453   6.589   5.871   9.431 -0.1623 -0.0374  2.5151
  248MOL0     H33454   6.505   5.663   9.305  1.7163  2.0426 -0.0409
  248MOL0     H33455   6.372   5.653   9.431 -0.8342  0.1147 -2.6144
  248MOL0     H33456   6.508   5.578   9.592  1.0480 -1.4932  0.8974
  248MOL0     H33457   6.563   5.500   9.450 -1.3416 -0.4041  1.8797
  248MOL0     H33458   6.728   5.734   9.583 -0.8337  1.5616 -0.2452
  248MOL0     H33459   6.751   5.657   9.428 -0.4095 -1.3233 -0.9326
  248MOL0     H33460   6.888   5.579   9.629 -0.3671  0.3142 -0.9254
  248MOL0     H33461   6.822   5.465   9.517  1.1749  3.0531 -3.2290
  248MOL0     H33462   6.809   6.092   9.683 -0.1253 -0.1065  0.2021
  248MOL0     H33463   7.035   6.049   9.800  0.4434  0.9968  0.2084
  248MOL0     H33464   7.312   5.681  10.084 -1.9651  1.0600 -3.9253
  248MOL0     H33465   7.511   5.692  10.224  1.9778  1.2540  0.1424
  248MOL0     H33466   9.417   6.417  10.578 -0.2109  1.5856 -2.9235
  248MOL0     H33467   9.651   6.351  10.598 -0.9672 -0.7573 -1.4351
  248MOL0     H33468  10.071   6.579  10.726  0.3135  1.3778 -2.2645
  248MOL0     H33469  10.310   6.580  10.753 -0.0150 -0.3881  0.5518
  248MOL0     H33470  10.509   6.217  10.752 -0.0706 -0.2078  0.6372
  248MOL0     H33471  10.581   6.271  10.588  2.1440  0.6425  0.8398
  248MOL0     H33472  10.675   6.395  10.854 -1.1849  0.3653  0.4731
  248MOL0     H33473  10.752   6.368  10.691  3.0375 -1.4921  1.9942
  248MOL0     H33474  10.767   6.118  10.765  0.0788  0.4596 -1.2004
  248MOL0     H33475  10.691   6.175  10.915  0.4895 -0.1636  0.6193
  248MOL0     H33476  10.949   6.143  10.895 -1.5606  0.1309 -1.5485
  248MOL0     H33477  10.896   6.299  10.970  0.5943 -0.8219  2.0564
  248MOL0     H33478  11.126   6.405  10.637  0.3498  0.0709 -0.8014
  248MOL0     H33479  10.347   6.196  10.556  3.4311  2.0657 -0.7347
  248MOL0     H33480  10.096   6.200  10.522 -0.9444  0.3868  0.4704
  249MOL0     O33481  10.925   1.148   3.812 -0.5521 -0.4968  0.6787
  249MOL0     C33482  10.992   1.176   3.707  0.0227 -0.4736 -0.3745
  249MOL0     O33483  10.989   1.105   3.596  0.0649  0.2656  0.1586
  249MOL0     C33484  10.895   1.002   3.582 -1.0279  0.6353  0.5530
  249MOL0     C33485  10.887   0.892   3.671  0.1333  0.2507 -0.4434
  249MOL0     C33486  10.782   0.796   3.645 -0.2262 -1.1721  0.4777
  249MOL0     C33487  10.710   0.790   3.528 -0.0987  0.6122 -0.4470
  249MOL0     O33488  10.621   0.685   3.520 -0.2557 -0.1243  0.0263
  249MOL0     C33489  10.500   0.707   3.446 -0.2683 -0.3225  0.0255
  249MOL0     C33490  10.431   0.576   3.422 -0.5700  0.0682 -1.3957
  249MOL0     C33491  10.526   0.460   3.376  0.3989  0.5883 -0.2844
  249MOL0     C33492  10.464   0.327   3.431 -0.4765 -0.3240  0.7727
  249MOL0     C33493  10.535   0.209   3.368  0.8045  0.1523 -0.0297
  249MOL0     C33494  10.494   0.072   3.409  0.0488  0.4426  0.2093
  249MOL0     C33495  10.497   0.033   3.563  1.0407  0.4260  0.1826
  249MOL0     C33496  10.449  -0.110   3.587  0.2187  0.1325 -0.8784
  249MOL0     N33497  10.304  -0.115   3.552 -0.4904 -0.4234 -0.1056
  249MOL0     C33498  10.254  -0.160   3.433 -0.4631 -0.0687 -0.8181
  249MOL0     C33499  10.124  -0.124   3.433  0.3969  0.5110 -0.2403
  249MOL0     C33500  10.020  -0.188   3.340  0.1361 -0.4328  0.1329
  249MOL0     C33501   9.883  -0.143   3.374 -1.0462 -0.5916 -0.2182
  249MOL0     C33502   9.786  -0.228   3.291  1.1659 -0.5025  0.2590
  249MOL0     C33503   9.646  -0.182   3.326  0.1047 -0.3973 -0.1446
  249MOL0     O33504   9.555  -0.272   3.274  0.0481  0.5693  0.1561
  249MOL0     C33505   9.426  -0.295   3.312 -0.2303 -0.6260  0.1621
  249MOL0     C33506   9.360  -0.198   3.384  0.3293  0.4861  0.6323
  249MOL0     C33507   9.232  -0.228   3.433 -0.4137 -0.2043 -0.7089
  249MOL0     C33508   9.176  -0.131   3.526  0.1699  0.1043  0.0990
  249MOL0     C33509   9.165  -0.346   3.390 -1.0660  0.0554 -0.3129
  249MOL0     C33510   9.026  -0.376   3.421  0.0958 -0.4815 -0.1142
  249MOL0     O33511   8.947  -0.356   3.314  0.0934  0.7215 -0.8437
  249MOL0     C33512   8.810  -0.370   3.334  0.0016 -0.3212  0.0145
  249MOL0     C33513   8.747  -0.455   3.241 -1.0309 -0.2332  0.0241
  249MOL0     C33514   8.609  -0.466   3.237 -1.0846  0.2653 -0.0487
  249MOL0     C33515   8.532  -0.394   3.325  0.0413 -0.1789 -0.2385
  249MOL0     O33516   8.394  -0.381   3.321 -0.3274 -0.2399 -0.1487
  249MOL0     C33517   8.341  -0.355   3.185  1.1555  0.2309  0.1990
  249MOL0     C33518   8.189  -0.354   3.188 -0.1266 -0.8237 -0.2887
  249MOL0     C33519   8.122  -0.479   3.251  0.0894 -0.5067 -0.5468
  249MOL0     C33520   7.972  -0.448   3.242  0.5956  0.4735  0.0775
  249MOL0     C33521   7.887  -0.573   3.288  0.3420 -0.0185  0.9675
  249MOL0     C33522   7.736  -0.567   3.255 -0.3749  1.0537 -0.0073
  249MOL0     C33523   7.670  -0.707   3.278 -0.3585  0.6487  0.1213
  249MOL0     C33524   7.525  -0.688   3.257  0.5509 -0.7811 -0.3661
  249MOL0    Cl33525   7.444  -0.605   3.383 -0.1155 -0.7411 -0.0544
  249MOL0     C33526   8.596  -0.331   3.433  0.1536 -0.3741 -1.1113
  249MOL0     C33527   8.737  -0.297   3.426 -0.1928  0.8162  0.1653
  249MOL0     O33528   8.993  -0.407   3.536  0.5987 -0.2646  0.0479
  249MOL0     C33529   9.234  -0.443   3.314 -0.7099  0.0464  0.5900
  249MOL0     C33530   9.359  -0.415   3.268  0.0257  0.2063  0.4846
  249MOL0     N33531  10.092  -0.053   3.552 -0.5942 -0.7646 -0.1584
  249MOL0     N33532  10.205  -0.051   3.616 -0.5368  0.1268 -0.5109
  249MOL0     C33533  10.727   0.901   3.442 -0.7981  0.4392 -0.8794
  249MOL0     C33534  10.814   1.003   3.469  0.7789 -0.5371 -0.2817
  249MOL0     C33535  11.074   1.299   3.727  0.2526  0.4055  0.6393
  249MOL0     C33536  11.147   1.344   3.619  0.5052 -0.3391 -0.6694
  249MOL0     C33537  11.215   1.466   3.622  1.0241 -1.2449  0.4423
  249MOL0     C33538  11.198   1.558   3.728 -1.2281  0.4288 -0.1323
  249MOL0     O33539  11.257   1.683   3.741  0.2210  0.1652 -0.4873
  249MOL0     C33540  11.336   1.685   3.864  0.9759  0.2873  0.2605
  249MOL0     C33541  11.421   1.554   3.887  0.0408  0.2884  0.4024
  249MOL0     C33542  11.514   1.569   4.008  0.4540 -0.8340 -0.4873
  249MOL0     C33543  11.446   1.511   4.140 -0.3452 -0.6003 -0.2958
  249MOL0     C33544  11.544   1.470   4.245 -0.2399 -0.0320  0.8264
  249MOL0     C33545  11.611   1.433   4.340 -0.0942  0.2954 -1.0574
  249MOL0     C33546  11.113   1.513   3.832  0.2862 -0.4251  0.4702
  249MOL0     C33547  11.057   1.387   3.826 -0.2519  0.3955 -0.4814
  249MOL0     H33548  10.951   0.874   3.757  1.4465 -0.8322 -1.5989
  249MOL0     H33549  10.765   0.708   3.705 -3.1578  0.2840  2.0387
  249MOL0     H33550  10.444   0.779   3.506 -0.7276 -0.9196  0.3245
  249MOL0     H33551  10.524   0.746   3.346  0.5568  0.0826  0.3754
  249MOL0     H33552  10.385   0.552   3.518 -1.3573  0.1165 -1.7514
  249MOL0     H33553  10.349   0.595   3.352 -1.2810 -1.7137 -1.1175
  249MOL0     H33554  10.526   0.462   3.267 -3.6120  2.9585 -0.4071
  249MOL0     H33555  10.630   0.464   3.410  0.2877  1.6912 -0.0493
  249MOL0     H33556  10.469   0.334   3.540  1.4091  3.0121  0.5845
  249MOL0     H33557  10.357   0.312   3.413 -0.4265 -0.7590  0.8172
  249MOL0     H33558  10.509   0.212   3.262  3.7958 -3.0551 -1.0349
  249MOL0     H33559  10.643   0.223   3.377  0.8375 -0.9538  1.8778
  249MOL0     H33560  10.395   0.055   3.366  0.4524 -2.4028  0.2197
  249MOL0     H33561  10.557  -0.002   3.360  0.6018 -0.4979  2.2506
  249MOL0     H33562  10.589   0.054   3.619  0.4102 -2.0265  2.3151
  249MOL0     H33563  10.422   0.103   3.603 -0.0435 -0.5706 -0.0646
  249MOL0     H33564  10.453  -0.124   3.696 -2.4368 -0.1815 -0.7722
  249MOL0     H33565  10.510  -0.189   3.542  2.0396  0.4991  0.7821
  249MOL0     H33566  10.320  -0.210   3.362 -0.6014 -2.1142  0.4218
  249MOL0     H33567  10.047  -0.169   3.235  1.9067 -2.7510  0.0723
  249MOL0     H33568  10.055  -0.292   3.344 -0.9676 -0.9409 -1.9514
  249MOL0     H33569   9.885  -0.039   3.341  0.9577 -0.8687 -1.0938
  249MOL0     H33570   9.863  -0.141   3.481 -0.0466  1.2006 -0.0376
  249MOL0     H33571   9.800  -0.332   3.320  0.1441 -0.7615 -0.1366
  249MOL0     H33572   9.799  -0.215   3.184 -2.2555 -0.5672 -0.2886
  249MOL0     H33573   9.628  -0.090   3.270 -1.9684  0.4056  1.7004
  249MOL0     H33574   9.652  -0.173   3.435 -1.4771  1.6097 -0.1573
  249MOL0     H33575   9.402  -0.112   3.436 -0.7411  0.7457  1.1016
  249MOL0     H33576   9.082  -0.165   3.570  1.2883 -2.7023  0.5176
  249MOL0     H33577   9.253  -0.113   3.601 -0.2299  0.9287  0.3272
  249MOL0     H33578   9.150  -0.036   3.477 -1.4392 -0.1752  0.3350
  249MOL0     H33579   8.810  -0.507   3.169 -0.1744 -0.8747  1.2015
  249MOL0     H33580   8.559  -0.544   3.180 -0.1546 -3.0055  3.2301
  249MOL0     H33581   8.378  -0.264   3.136  1.3409  0.1858  0.2518
  249MOL0     H33582   8.376  -0.432   3.116  2.9799  0.8697  0.3637
  249MOL0     H33583   8.159  -0.263   3.241 -2.0761 -1.1914 -0.6941
  249MOL0     H33584   8.165  -0.357   3.081  1.4114 -0.0037 -0.6897
  249MOL0     H33585   8.144  -0.494   3.358 -2.5272 -0.6561  0.0435
  249MOL0     H33586   8.142  -0.563   3.184 -0.2105  0.3374 -1.7167
  249MOL0     H33587   7.949  -0.364   3.308 -1.8481 -1.1638  1.4611
  249MOL0     H33588   7.953  -0.415   3.140  1.0912  0.3406 -0.0607
  249MOL0     H33589   7.903  -0.570   3.396  0.7710 -1.0998  0.9500
  249MOL0     H33590   7.932  -0.660   3.240 -0.5129  0.4679 -0.7818
  249MOL0     H33591   7.688  -0.481   3.302 -1.0806 -0.7121  2.7957
  249MOL0     H33592   7.715  -0.552   3.149  0.3665 -1.6150 -0.6073
  249MOL0     H33593   7.685  -0.746   3.379 -3.3531  2.6188  1.4742
  249MOL0     H33594   7.708  -0.772   3.199  1.8113 -0.4380  1.9523
  249MOL0     H33595   7.469  -0.782   3.261 -0.0666 -0.3960  0.4856
  249MOL0     H33596   7.497  -0.647   3.160  0.3630  0.5199  0.2182
  249MOL0     H33597   8.528  -0.290   3.507 -0.6253 -4.5385  0.7589
  249MOL0     H33598   8.792  -0.222   3.481  1.6124  1.3059 -2.1183
  249MOL0     H33599   9.182  -0.530   3.277  0.2809 -0.1809 -0.3188
  249MOL0     H33600   9.408  -0.480   3.196  0.0974  0.7721  0.0191
  249MOL0     H33601  10.669   0.916   3.351 -0.2595 -2.1155 -1.7125
  249MOL0     H33602  10.836   1.090   3.408 -0.1134 -0.5120 -0.5851
  249MOL0     H33603  11.168   1.284   3.531  0.7156  0.5257 -1.2168
  249MOL0     H33604  11.286   1.507   3.550  0.1833  1.2495  0.9260
  249MOL0     H33605  11.399   1.775   3.871  0.8037  0.6337 -1.8655
  249MOL0     H33606  11.265   1.695   3.947  0.5656 -3.3708  0.5163
  249MOL0     H33607  11.490   1.541   3.804 -0.3061  0.6003  0.0624
  249MOL0     H33608  11.356   1.468   3.906  0.4504 -0.5368 -1.7464
  249MOL0     H33609  11.542   1.674   4.011 -0.2303 -0.6576 -0.2086
  249MOL0     H33610  11.605   1.509   3.998  0.4946 -1.0253  0.9174
  249MOL0     H33611  11.387   1.421   4.125 -1.3595  0.1046 -0.6660
  249MOL0     H33612  11.372   1.587   4.169 -1.0713 -0.9936 -1.0711
  249MOL0     H33613  11.676   1.408   4.421 -2.8819 -1.4576  0.8284
  249MOL0     H33614  11.101   1.572   3.922  0.6200  2.3126 -1.1627
  249MOL0     H33615  10.986   1.369   3.906  1.4531 -0.8784  0.7848
  250MOL0     O33616   6.877   0.111   1.810 -0.3342 -0.9428  0.0111
  250MOL0     C33617   6.904   0.222   1.772  0.1786  0.0917  0.2468
  250MOL0     O33618   6.812   0.326   1.741  0.3970  0.4293  0.0758
  250MOL0     C33619   6.676   0.322   1.767 -0.5276  0.0193 -0.1173
  250MOL0     C33620   6.591   0.404   1.699  0.8685  0.2989  0.0022
  250MOL0     C33621   6.457   0.411   1.734 -0.0234  0.6113  0.2027
  250MOL0     C33622   6.394   0.324   1.825  0.4145  0.2906 -0.3761
  250MOL0     O33623   6.259   0.327   1.860  0.0087  0.3193 -0.1720
  250MOL0     C33624   6.162   0.403   1.787 -0.3395  0.5680  1.0680
  250MOL0     C33625   6.022   0.390   1.859 -1.5829  0.0930  0.7540
  250MOL0     C33626   5.961   0.528   1.889 -0.2331 -0.8982 -0.0613
  250MOL0     C33627   5.833   0.501   1.974 -0.0854 -0.0014 -0.3041
  250MOL0     C33628   5.723   0.419   1.910 -0.0428  0.1727  0.5064
  250MOL0     C33629   5.676   0.463   1.770 -0.2615  0.3691 -0.7667
  250MOL0     C33630   5.578   0.360   1.711 -0.1436 -0.4244  0.2125
  250MOL0     C33631   5.519   0.408   1.570  1.0499  0.0426 -1.7288
  250MOL0     N33632   5.464   0.549   1.576  0.1043 -0.7506 -0.9311
  250MOL0     C33633   5.508   0.641   1.484 -0.2892  0.4939 -0.1395
  250MOL0     C33634   5.420   0.741   1.486 -0.5269  0.5443 -0.1934
  250MOL0     C33635   5.429   0.862   1.403  0.3798 -0.5569  0.5244
  250MOL0     C33636   5.373   0.825   1.262  0.4454 -0.6371 -0.0252
  250MOL0     C33637   5.387   0.950   1.162 -0.2752  0.5055 -0.0124
  250MOL0     C33638   5.321   1.080   1.212 -0.3614 -0.0000  0.2228
  250MOL0     O33639   5.285   1.162   1.097 -0.3437  0.1758  0.8041
  250MOL0     C33640   5.178   1.135   1.020  0.1857  0.5791 -0.0751
  250MOL0     C33641   5.170   1.191   0.892 -0.7572 -0.5852 -0.3942
  250MOL0     C33642   5.070   1.159   0.802 -0.1985  0.3935 -0.0937
  250MOL0     C33643   5.082   1.226   0.661 -0.9631  1.2014 -0.1789
  250MOL0     C33644   4.965   1.064   0.832 -0.0879  0.1119 -0.4389
  250MOL0     C33645   4.855   1.029   0.738  0.5981 -0.9189 -0.4080
  250MOL0     O33646   4.734   0.992   0.800  0.4491 -0.1864 -0.2228
  250MOL0     C33647   4.663   0.893   0.740 -0.3948 -0.7738 -0.8569
  250MOL0     C33648   4.524   0.907   0.724  0.2389 -0.0093  0.2372
  250MOL0     C33649   4.445   0.805   0.678 -0.2809 -0.4195  0.9846
  250MOL0     C33650   4.515   0.686   0.636 -0.0230  0.5334  0.0454
  250MOL0     O33651   4.437   0.578   0.591  1.0862  0.2483 -0.3698
  250MOL0     C33652   4.501   0.463   0.535  0.8411 -0.0038 -0.1880
  250MOL0     C33653   4.392   0.358   0.516  0.0295 -0.3462 -0.7894
  250MOL0     C33654   4.455   0.219   0.477  0.8319  0.3820 -0.1594
  250MOL0     C33655   4.342   0.114   0.473  0.4682 -0.0035 -0.4013
  250MOL0     C33656   4.386  -0.030   0.436 -0.2369 -0.5438 -0.5875
  250MOL0     C33657   4.525  -0.067   0.494 -0.2539  0.3380  0.1337
  250MOL0     C33658   4.559  -0.221   0.455 -0.4613  0.3496  0.2058
  250MOL0     C33659   4.692  -0.272   0.511 -0.2603  0.3236 -0.4859
  250MOL0    Cl33660   4.839  -0.184   0.459  0.1015 -0.0713  0.4261
  250MOL0     C33661   4.650   0.686   0.635 -0.4430  0.2101 -0.2169
  250MOL0     C33662   4.728   0.785   0.693  0.8787  0.6083  0.4274
  250MOL0     O33663   4.872   1.036   0.619 -0.7887  0.5479  0.2301
  250MOL0     C33664   4.974   1.006   0.966 -0.4018 -0.3360 -0.3368
  250MOL0     C33665   5.083   1.035   1.052 -0.9160 -1.0499  0.1793
  250MOL0     N33666   5.324   0.718   1.583 -0.7277 -0.8593  0.0401
  250MOL0     N33667   5.353   0.599   1.632  0.6857 -1.0153  0.0129
  250MOL0     C33668   6.483   0.250   1.899  0.2406  0.2933  0.6549
  250MOL0     C33669   6.621   0.245   1.872  0.7510 -0.8351  0.5314
  250MOL0     C33670   7.044   0.263   1.781  0.0521  0.6105 -0.0763
  250MOL0     C33671   7.082   0.392   1.811  0.1872  0.6090 -0.4968
  250MOL0     C33672   7.215   0.419   1.856 -0.2136  0.6603  0.7877
  250MOL0     C33673   7.309   0.321   1.841 -0.2895 -0.1778  0.7364
  250MOL0     O33674   7.433   0.371   1.867 -0.2397 -0.8418 -0.6769
  250MOL0     C33675   7.522   0.381   1.756  1.2960  0.1991  0.0915
  250MOL0     C33676   7.638   0.471   1.795  1.2102 -0.4350 -0.4437
  250MOL0     C33677   7.759   0.459   1.691  0.5423 -0.2538  0.6088
  250MOL0     C33678   7.878   0.544   1.734 -0.2809 -0.1170  0.7102
  250MOL0     C33679   7.902   0.534   1.877  0.1647  0.0304  0.6728
  250MOL0     C33680   7.897   0.527   1.998 -0.7314 -0.3125  0.7481
  250MOL0     C33681   7.277   0.197   1.793 -0.2652  0.2993  0.6299
  250MOL0     C33682   7.143   0.170   1.769  0.2002  1.0249  0.4409
  250MOL0     H33683   6.645   0.464   1.627  3.6320  0.3257  1.9378
  250MOL0     H33684   6.397   0.484   1.681  1.3007  0.8122 -1.0688
  250MOL0     H33685   6.185   0.510   1.786 -1.6605  0.8890  2.2250
  250MOL0     H33686   6.150   0.356   1.689 -1.3337 -2.4599  2.5098
  250MOL0     H33687   5.951   0.342   1.792  0.1250 -2.5736  0.7229
  250MOL0     H33688   6.028   0.325   1.947 -1.8289 -2.4244 -0.9977
  250MOL0     H33689   6.021   0.599   1.946 -1.8789 -0.5254  1.2939
  250MOL0     H33690   5.930   0.581   1.798  0.1473 -1.2010 -0.3724
  250MOL0     H33691   5.872   0.458   2.067 -1.0728 -0.0053  0.1282
  250MOL0     H33692   5.799   0.601   2.005 -1.6753 -1.4722  3.3264
  250MOL0     H33693   5.753   0.314   1.907 -1.2474 -0.1723  0.0576
  250MOL0     H33694   5.638   0.412   1.979  0.3616 -1.9442  0.8603
  250MOL0     H33695   5.628   0.561   1.780  2.5263  1.6501  2.3422
  250MOL0     H33696   5.762   0.481   1.704 -0.1795  1.1074 -0.4737
  250MOL0     H33697   5.623   0.262   1.693 -0.2615 -0.7922  1.8170
  250MOL0     H33698   5.493   0.331   1.773 -1.4216 -0.0003 -1.2765
  250MOL0     H33699   5.438   0.340   1.541  1.2416 -1.2951  0.5920
  250MOL0     H33700   5.596   0.406   1.493  1.7365  2.4229 -1.1856
  250MOL0     H33701   5.593   0.626   1.419 -1.3570 -0.9699 -1.2765
  250MOL0     H33702   5.387   0.947   1.456 -0.5928  0.8317 -2.2645
  250MOL0     H33703   5.530   0.901   1.390 -0.2121  0.9782  0.3920
  250MOL0     H33704   5.269   0.793   1.263  0.4468 -0.6609 -0.4545
  250MOL0     H33705   5.430   0.739   1.224  2.7612  0.7488  0.1530
  250MOL0     H33706   5.343   0.917   1.067 -0.7096  0.3022  0.2567
  250MOL0     H33707   5.492   0.977   1.144 -0.2045 -1.2852 -2.9308
  250MOL0     H33708   5.404   1.139   1.252  0.7747 -0.6355 -1.0929
  250MOL0     H33709   5.239   1.073   1.285  1.2482  0.6166  2.1898
  250MOL0     H33710   5.258   1.252   0.872 -1.0178 -0.4572 -1.1670
  250MOL0     H33711   5.141   1.318   0.665 -1.3593  1.4331  0.4865
  250MOL0     H33712   5.119   1.149   0.592  1.5235 -0.0845  2.3766
  250MOL0     H33713   4.981   1.254   0.631 -1.0712  1.7534  0.6611
  250MOL0     H33714   4.475   0.998   0.760  0.9685  0.3490  0.3583
  250MOL0     H33715   4.338   0.812   0.667  0.0453  2.2795 -1.9046
  250MOL0     H33716   4.550   0.495   0.443 -0.4117 -0.7480 -1.1613
  250MOL0     H33717   4.567   0.416   0.608 -1.8818 -2.0118  1.1762
  250MOL0     H33718   4.330   0.345   0.606 -1.3120  0.6752 -1.5393
  250MOL0     H33719   4.325   0.388   0.435  0.1204 -0.7381 -1.0116
  250MOL0     H33720   4.529   0.193   0.553  0.9325  0.0900 -0.3563
  250MOL0     H33721   4.487   0.241   0.374 -1.3486  3.2815 -0.3422
  250MOL0     H33722   4.302   0.120   0.574  0.5586  1.0600 -0.4121
  250MOL0     H33723   4.269   0.153   0.400  0.5721  1.2112  0.1190
  250MOL0     H33724   4.405  -0.046   0.330  0.2183  2.1930 -0.9960
  250MOL0     H33725   4.310  -0.097   0.478  0.3010 -1.8535 -1.6449
  250MOL0     H33726   4.610  -0.012   0.453  1.6093 -0.4598  2.6415
  250MOL0     H33727   4.537  -0.056   0.602  2.3043  1.6590 -0.1959
  250MOL0     H33728   4.558  -0.234   0.346  0.0354 -0.2033  0.2629
  250MOL0     H33729   4.478  -0.289   0.486  0.8400 -1.5191 -0.2949
  250MOL0     H33730   4.707  -0.380   0.500 -0.9366  0.1861 -0.1065
  250MOL0     H33731   4.690  -0.252   0.619  0.2840  5.3418 -1.1896
  250MOL0     H33732   4.704   0.594   0.614 -1.3327 -0.9661  2.2846
  250MOL0     H33733   4.827   0.749   0.718  0.0601  0.1038  3.2377
  250MOL0     H33734   4.895   0.939   0.997  0.8224 -1.6412  0.0747
  250MOL0     H33735   5.096   0.971   1.139  3.0099  0.7065  1.0821
  250MOL0     H33736   6.442   0.184   1.975  1.5556 -1.8937 -0.4285
  250MOL0     H33737   6.684   0.175   1.927 -0.0911 -1.7836  0.3205
  250MOL0     H33738   7.014   0.474   1.830  2.0704  1.9823  0.6267
  250MOL0     H33739   7.251   0.514   1.894  1.0196 -0.5996  2.9967
  250MOL0     H33740   7.542   0.279   1.723 -0.3128 -0.8742  2.2215
  250MOL0     H33741   7.470   0.431   1.674 -1.5804 -1.0317  1.0427
  250MOL0     H33742   7.665   0.428   1.892 -0.2003 -0.6732 -0.1273
  250MOL0     H33743   7.594   0.571   1.805 -2.8080 -1.7344 -3.0237
  250MOL0     H33744   7.726   0.480   1.589  4.2798 -0.3833 -0.7666
  250MOL0     H33745   7.796   0.357   1.702  0.6913 -0.3858 -0.9095
  250MOL0     H33746   7.847   0.638   1.686 -2.1061 -1.9405 -1.9588
  250MOL0     H33747   7.972   0.523   1.683  1.8305  0.7505  3.9725
  250MOL0     H33748   7.892   0.511   2.104 -0.2913  0.8920  0.9675
  250MOL0     H33749   7.351   0.123   1.769 -0.7146 -0.9877  2.9384
  250MOL0     H33750   7.111   0.073   1.733 -1.3327  1.4652  0.5452
  251MOL0     O33751   5.648   1.333   9.579  0.2607 -0.1653 -0.3297
  251MOL0     C33752   5.705   1.339   9.470  0.1989 -0.6890 -0.3959
  251MOL0     O33753   5.806   1.264   9.439  0.2034  0.2898 -0.0117
  251MOL0     C33754   5.832   1.135   9.475 -0.1016 -0.2673  0.1401
  251MOL0     C33755   5.967   1.098   9.478 -1.4417 -0.0961  0.4254
  251MOL0     C33756   6.016   0.974   9.528  0.2974 -0.5629 -1.2744
  251MOL0     C33757   5.915   0.884   9.579  0.1130 -0.6768 -0.3367
  251MOL0     O33758   5.941   0.765   9.643 -0.2300 -0.7664  0.8712
  251MOL0     C33759   6.072   0.717   9.631  0.3028  1.4391  0.0190
  251MOL0     C33760   6.100   0.606   9.729 -0.4327 -0.0173  0.1131
  251MOL0     C33761   6.069   0.636   9.878 -0.4600 -0.2385 -0.6619
  251MOL0     C33762   6.141   0.532   9.974  0.3608 -0.1659  0.1505
  251MOL0     C33763   6.291   0.573   9.977 -0.1366  0.7138 -0.2542
  251MOL0     C33764   6.380   0.491  10.079 -0.0522 -0.1603 -0.0656
  251MOL0     C33765   6.526   0.469  10.028 -0.6592 -0.4813 -0.1325
  251MOL0     C33766   6.601   0.377  10.116  0.2805 -0.2158  0.4463
  251MOL0     N33767   6.742   0.360  10.081  0.1730  0.1689 -0.0339
  251MOL0     C33768   6.845   0.445  10.131 -0.2389  0.5667 -0.1568
  251MOL0     C33769   6.963   0.384  10.098 -0.6786  0.4550 -0.0517
  251MOL0     C33770   7.098   0.422  10.139  0.3486  0.7948  0.4381
  251MOL0     C33771   7.147   0.322  10.253  0.1829 -1.5067  0.2286
  251MOL0     C33772   7.289   0.351  10.303  0.5229  0.5391 -0.0559
  251MOL0     C33773   7.349   0.234  10.390  1.0586 -0.6172  0.9915
  251MOL0     O33774   7.372   0.133  10.292  0.1038 -0.1052 -0.7110
  251MOL0     C33775   7.492   0.116  10.217  0.2650 -0.1192 -0.7900
  251MOL0     C33776   7.619   0.165  10.264  0.4829  1.1670 -1.2142
  251MOL0     C33777   7.741   0.153  10.195 -0.3243  0.3017 -0.2088
  251MOL0     C33778   7.860   0.221  10.257  0.3777 -0.4002 -0.6208
  251MOL0     C33779   7.736   0.078  10.071 -0.2099  0.2366 -1.1862
  251MOL0     C33780   7.859   0.052   9.991  0.5191 -0.1915  0.6586
  251MOL0     O33781   7.835  -0.031   9.895  0.4642  1.0129  0.0174
  251MOL0     C33782   7.930  -0.060   9.800 -0.2569  0.1105 -0.1788
  251MOL0     C33783   8.026  -0.159   9.816 -0.1378 -0.0616  0.3661
  251MOL0     C33784   8.113  -0.185   9.705 -0.2348 -0.2622  0.3051
  251MOL0     C33785   8.117  -0.103   9.596 -0.7286  0.7616  0.3336
  251MOL0     O33786   8.202  -0.117   9.491  0.3439 -0.6472 -0.2252
  251MOL0     C33787   8.254  -0.247   9.458 -0.6573  1.0395 -0.5953
  251MOL0     C33788   8.388  -0.262   9.536 -0.1123  0.2120  0.1203
  251MOL0     C33789   8.503  -0.214   9.454  0.2143  0.2695  0.9931
  251MOL0     C33790   8.634  -0.226   9.537  1.2303 -1.0118 -0.3662
  251MOL0     C33791   8.763  -0.177   9.462  0.4796 -0.5121  0.6463
  251MOL0     C33792   8.787  -0.236   9.325 -0.0316  0.0568  0.2505
  251MOL0     C33793   8.930  -0.201   9.277  0.0255  0.4031 -0.3075
  251MOL0     C33794   8.973  -0.263   9.144  0.8532 -0.1023 -0.3562
  251MOL0    Cl33795   8.923  -0.434   9.141  0.0635  0.2241  0.3709
  251MOL0     C33796   8.025  -0.004   9.585 -0.2143 -0.4302  0.7865
  251MOL0     C33797   7.928   0.019   9.683  0.1278  0.0374 -0.0625
  251MOL0     O33798   7.964   0.108  10.008 -0.2448 -0.0718 -0.4212
  251MOL0     C33799   7.610   0.023  10.035 -0.6376  0.3563 -0.8650
  251MOL0     C33800   7.489   0.031  10.111  0.8304 -0.2645 -0.0184
  251MOL0     N33801   6.927   0.257  10.054 -0.2548  0.3389  0.0221
  251MOL0     N33802   6.802   0.252  10.031  0.8482 -0.0894 -0.0992
  251MOL0     C33803   5.778   0.923   9.585  0.0959 -0.3067  0.6932
  251MOL0     C33804   5.738   1.048   9.536  0.1678 -0.8783 -0.2046
  251MOL0     C33805   5.641   1.418   9.367  0.2357  0.3378  0.0593
  251MOL0     C33806   5.506   1.462   9.389  0.2786  1.1879  0.2795
  251MOL0     C33807   5.445   1.533   9.286 -0.0262  0.3678  0.3720
  251MOL0     C33808   5.514   1.583   9.171  1.8151 -0.0439  0.0319
  251MOL0     O33809   5.437   1.648   9.084 -0.3832  0.1054 -0.1506
  251MOL0     C33810   5.483   1.634   8.950  0.0966  0.2622  0.1918
  251MOL0     C33811   5.366   1.624   8.840 -0.0325  0.0908 -0.2900
  251MOL0     C33812   5.258   1.731   8.862  0.7697  0.6461  0.1545
  251MOL0     C33813   5.147   1.701   8.761 -0.7813 -0.5239 -1.0652
  251MOL0     C33814   5.045   1.810   8.762 -0.0195 -1.0130  0.3886
  251MOL0     C33815   4.959   1.903   8.772  0.3678  0.8588  0.1497
  251MOL0     C33816   5.652   1.549   9.155 -0.2945 -0.3219 -0.0726
  251MOL0     C33817   5.717   1.467   9.250  0.3149  0.2482  0.5441
  251MOL0     H33818   6.040   1.158   9.425 -2.4256 -0.9361 -2.0352
  251MOL0     H33819   6.120   0.944   9.522 -0.0033 -2.0529  0.2566
  251MOL0     H33820   6.102   0.683   9.532  0.0091 -0.9466  0.6731
  251MOL0     H33821   6.144   0.795   9.656  1.5632  0.8250 -1.5728
  251MOL0     H33822   6.039   0.519   9.704  0.5329 -0.7454  0.2520
  251MOL0     H33823   6.204   0.576   9.716 -0.1315  1.4080 -1.0362
  251MOL0     H33824   6.102   0.735   9.909 -4.4634  0.4481  2.2350
  251MOL0     H33825   5.961   0.630   9.895 -0.7366  0.0038 -2.1568
  251MOL0     H33826   6.105   0.539  10.077 -0.1043  0.6336 -0.0567
  251MOL0     H33827   6.132   0.428   9.942 -2.8681  0.5360 -1.7040
  251MOL0     H33828   6.334   0.566   9.877 -1.2464 -1.1493 -0.6517
  251MOL0     H33829   6.301   0.678  10.005 -1.3371  0.2096  2.4129
  251MOL0     H33830   6.371   0.540  10.177 -1.2231  0.2614 -0.3625
  251MOL0     H33831   6.331   0.395  10.099 -3.9809  1.7158  0.2166
  251MOL0     H33832   6.522   0.415   9.933  0.5114 -1.9078  0.6021
  251MOL0     H33833   6.579   0.563  10.013  0.8971 -1.2769  0.2368
  251MOL0     H33834   6.560   0.276  10.110  1.4813 -0.8128  1.8160
  251MOL0     H33835   6.597   0.410  10.221 -2.6695  2.0675 -0.2336
  251MOL0     H33836   6.825   0.528  10.199 -0.3665 -1.0861  1.9364
  251MOL0     H33837   7.169   0.413  10.056  1.4936 -0.3978  1.5121
  251MOL0     H33838   7.082   0.526  10.171 -1.1122  1.9026 -3.3259
  251MOL0     H33839   7.144   0.220  10.213 -0.6716 -0.5228 -2.4931
  251MOL0     H33840   7.077   0.332  10.336 -0.8412  2.0218 -0.8639
  251MOL0     H33841   7.276   0.441  10.363 -0.9175 -1.6459  3.2621
  251MOL0     H33842   7.352   0.361  10.214  0.8346  0.9412  0.2042
  251MOL0     H33843   7.272   0.201  10.459 -2.5199  1.3215 -1.7375
  251MOL0     H33844   7.434   0.281  10.441  1.7266  0.6810 -1.1694
  251MOL0     H33845   7.614   0.228  10.352 -1.2533 -1.5596  0.8033
  251MOL0     H33846   7.950   0.160  10.265  2.5284  2.5992 -0.3688
  251MOL0     H33847   7.885   0.307  10.194 -0.7915 -1.5632 -2.8292
  251MOL0     H33848   7.835   0.246  10.360 -2.6254 -3.8243 -0.2995
  251MOL0     H33849   8.028  -0.224   9.903 -1.9300  0.7751  1.0878
  251MOL0     H33850   8.184  -0.267   9.710 -1.2741 -1.1382  1.8231
  251MOL0     H33851   8.185  -0.332   9.471  1.1610 -0.3697  0.2565
  251MOL0     H33852   8.275  -0.248   9.351 -2.6115  1.3181 -1.0271
  251MOL0     H33853   8.380  -0.198   9.624  2.1657 -2.6630  2.6158
  251MOL0     H33854   8.410  -0.361   9.576  1.2381 -0.0186 -1.0954
  251MOL0     H33855   8.484  -0.115   9.411  1.1964 -0.0725 -0.3015
  251MOL0     H33856   8.511  -0.281   9.368 -1.2425 -0.4163  1.3568
  251MOL0     H33857   8.619  -0.180   9.635 -1.4432 -1.9711 -0.2384
  251MOL0     H33858   8.653  -0.332   9.560  1.1012 -0.1987  4.7324
  251MOL0     H33859   8.849  -0.203   9.524  1.6457 -0.5214 -0.9256
  251MOL0     H33860   8.760  -0.067   9.461  4.9403 -0.2146  0.7984
  251MOL0     H33861   8.788  -0.344   9.336 -1.2938 -0.1664 -1.3379
  251MOL0     H33862   8.703  -0.203   9.262 -1.4399 -3.2180  0.1998
  251MOL0     H33863   8.998  -0.218   9.360 -0.1033 -0.6531 -0.4119
  251MOL0     H33864   8.928  -0.091   9.272 -0.1085  0.3674 -1.2108
  251MOL0     H33865   9.081  -0.250   9.129  1.1707  1.8501  2.7151
  251MOL0     H33866   8.921  -0.205   9.066 -0.0454  2.1168  1.7496
  251MOL0     H33867   8.034   0.052   9.493  0.4598 -4.0362 -1.5233
  251MOL0     H33868   7.864   0.104   9.662 -1.6388 -0.8538  1.3527
  251MOL0     H33869   7.623  -0.043   9.950  1.7299  0.7144 -0.8592
  251MOL0     H33870   7.392  -0.016  10.096  2.0250 -2.3973 -1.5890
  251MOL0     H33871   5.700   0.859   9.626 -0.0582 -1.9351 -1.9377
  251MOL0     H33872   5.631   1.067   9.535  0.3077  0.0480  0.7938
  251MOL0     H33873   5.436   1.428   9.465  1.3614 -0.7352  0.4781
  251MOL0     H33874   5.339   1.551   9.296  0.1249  0.8513  1.2289
  251MOL0     H33875   5.560   1.708   8.928 -0.2357  0.9635  1.3115
  251MOL0     H33876   5.533   1.538   8.935 -1.9656 -0.6773 -1.1093
  251MOL0     H33877   5.319   1.526   8.849  1.6958 -0.7428  0.0759
  251MOL0     H33878   5.404   1.621   8.738 -3.3202  0.3474 -1.6519
  251MOL0     H33879   5.299   1.832   8.854 -0.9906  1.5095  1.4268
  251MOL0     H33880   5.219   1.719   8.963  1.4878  0.4388  0.4104
  251MOL0     H33881   5.103   1.605   8.793 -0.6653  0.0008  0.7952
  251MOL0     H33882   5.180   1.687   8.658 -2.8743  0.9080 -2.0042
  251MOL0     H33883   4.890   1.984   8.777  0.0633  0.8609 -2.6964
  251MOL0     H33884   5.725   1.573   9.078 -0.6479 -1.1828 -0.6835
  251MOL0     H33885   5.824   1.451   9.249  0.5408  0.5576  4.1613
  252MOL0     O33886   3.785  10.335   2.786  0.1686 -0.2598 -0.4014
  252MOL0     C33887   3.676  10.273   2.793  0.4898  0.0124  0.6615
  252MOL0     O33888   3.594  10.261   2.908 -0.2536 -0.0545  0.7057
  252MOL0     C33889   3.651  10.276   3.029  0.1396  0.9443 -0.1665
  252MOL0     C33890   3.570  10.319   3.130 -0.0819  0.2690  1.1210
  252MOL0     C33891   3.622  10.334   3.261  0.2597 -0.7851  0.2134
  252MOL0     C33892   3.755  10.303   3.292 -0.0149 -0.7342  0.1510
  252MOL0     O33893   3.801  10.321   3.417 -0.3615 -0.3344  0.3973
  252MOL0     C33894   3.940  10.359   3.442  0.2196 -0.1822  0.1676
  252MOL0     C33895   3.949  10.422   3.583  0.2252  0.0455  0.1832
  252MOL0     C33896   3.877  10.560   3.603  0.2288  0.2041 -0.1813
  252MOL0     C33897   3.730  10.574   3.559 -0.3020  0.0748 -0.0207
  252MOL0     C33898   3.673  10.701   3.618  0.1396  0.5192  0.8469
  252MOL0     C33899   3.627  10.683   3.757 -0.2410 -0.3423  0.0573
  252MOL0     C33900   3.590  10.819   3.817 -0.2196 -0.4439 -0.7139
  252MOL0     C33901   3.459  10.863   3.782 -0.2056  0.7750  0.2839
  252MOL0     N33902   3.352  10.762   3.802 -0.1524  0.1941 -0.8112
  252MOL0     C33903   3.237  10.758   3.729  0.0067  0.5418  0.3169
  252MOL0     C33904   3.142  10.694   3.813  0.1669 -0.4349  0.0925
  252MOL0     C33905   3.001  10.675   3.763  0.3818 -0.1220  0.4020
  252MOL0     C33906   2.978  10.529   3.726 -0.1559  0.1258 -0.0184
  252MOL0     C33907   2.990  10.430   3.845  0.3787  0.4833 -0.9786
  252MOL0     C33908   2.970  10.279   3.802 -0.0145 -0.6150 -0.3755
  252MOL0     O33909   2.829  10.257   3.811 -0.2314 -0.1457 -0.0811
  252MOL0     C33910   2.782  10.129   3.783  0.5057  0.2380 -0.2916
  252MOL0     C33911   2.861  10.012   3.759  0.6415  0.2454 -0.1364
  252MOL0     C33912   2.803   9.889   3.731 -0.0847 -0.3880  0.5429
  252MOL0     C33913   2.899   9.779   3.714 -0.4509 -0.2078  0.2187
  252MOL0     C33914   2.659   9.872   3.715  0.0235 -0.2070 -0.0236
  252MOL0     C33915   2.584   9.749   3.683 -1.0227 -0.1529 -0.2763
  252MOL0     O33916   2.647   9.635   3.718  0.0626 -0.3133  0.2148
  252MOL0     C33917   2.583   9.510   3.696 -0.3314 -0.4826  0.0171
  252MOL0     C33918   2.525   9.437   3.799 -0.0339  0.6938  0.4579
  252MOL0     C33919   2.470   9.311   3.777 -0.6028 -0.1406  0.1811
  252MOL0     C33920   2.489   9.255   3.640  0.7146 -0.0156  0.0975
  252MOL0     O33921   2.449   9.129   3.596  0.8817 -0.2172  0.3019
  252MOL0     C33922   2.435   9.024   3.688 -0.0697 -0.9040 -0.0568
  252MOL0     C33923   2.471   8.891   3.624  0.0266 -0.2008 -0.1068
  252MOL0     C33924   2.351   8.832   3.545  0.1060  0.1148  1.0155
  252MOL0     C33925   2.271   8.739   3.634 -0.4166  0.1816 -0.6248
  252MOL0     C33926   2.137   8.707   3.576 -0.0841 -0.3911  0.3938
  252MOL0     C33927   2.025   8.813   3.598 -0.4746  0.4006  0.1452
  252MOL0     C33928   1.888   8.787   3.515  0.7208 -0.8643 -0.9712
  252MOL0     C33929   1.777   8.733   3.611 -0.1419 -0.0173 -0.7705
  252MOL0    Cl33930   1.809   8.560   3.623  0.0735  0.2110  0.1197
  252MOL0     C33931   2.538   9.332   3.537 -0.4296 -0.1745 -0.1357
  252MOL0     C33932   2.584   9.459   3.565  0.0988  0.8680 -0.0498
  252MOL0     O33933   2.473   9.759   3.631  0.3516  0.4450  0.4649
  252MOL0     C33934   2.582   9.982   3.743 -0.3546  0.2357  0.0972
  252MOL0     C33935   2.639  10.109   3.775 -0.2412  0.6552 -0.9067
  252MOL0     N33936   3.210  10.662   3.929 -0.9826 -0.4662  0.8556
  252MOL0     N33937   3.333  10.709   3.929 -0.4463 -0.6390  0.2062
  252MOL0     C33938   3.839  10.257   3.185 -0.4854  0.8762  0.3407
  252MOL0     C33939   3.781  10.233   3.060 -0.5507 -0.4430  0.2157
  252MOL0     C33940   3.628  10.206   2.675 -0.7120  0.3863 -0.6379
  252MOL0     C33941   3.714  10.180   2.570 -0.2364 -0.3127 -1.2928
  252MOL0     C33942   3.678  10.109   2.459  0.4762  0.0077 -0.0277
  252MOL0     C33943   3.550  10.055   2.440  0.4579 -0.2698  0.9386
  252MOL0     O33944   3.519   9.992   2.329  0.8815  0.1188 -0.0781
  252MOL0     C33945   3.428  10.059   2.234 -0.2337 -0.2267 -0.3151
  252MOL0     C33946   3.498  10.157   2.142 -0.6199 -0.2733  0.4125
  252MOL0     C33947   3.600  10.075   2.053 -0.6871  0.1342 -0.0177
  252MOL0     C33948   3.671  10.163   1.946 -0.7034 -0.2378 -0.5944
  252MOL0     C33949   3.584  10.235   1.856  0.7612 -0.3481  0.2603
  252MOL0     C33950   3.498  10.283   1.782 -0.0547 -0.1469  0.1999
  252MOL0     C33951   3.454  10.097   2.536 -0.6487  0.5271 -0.9569
  252MOL0     C33952   3.496  10.162   2.652  0.0115  0.0883 -0.4361
  252MOL0     H33953   3.468  10.355   3.117 -0.1820  0.5233  2.4429
  252MOL0     H33954   3.571  10.386   3.341  0.5127 -1.7894  1.0496
  252MOL0     H33955   4.002  10.269   3.436  3.1439  1.7579 -0.8256
  252MOL0     H33956   3.975  10.433   3.369  2.1119 -2.4476 -1.3872
  252MOL0     H33957   3.897  10.350   3.647  0.6963 -0.5499 -0.0936
  252MOL0     H33958   4.054  10.423   3.615 -0.0975  0.0334  1.2954
  252MOL0     H33959   3.884  10.593   3.707 -1.7956 -0.3584  0.1817
  252MOL0     H33960   3.939  10.628   3.545 -1.0422  1.5526 -0.0330
  252MOL0     H33961   3.734  10.580   3.450  0.9241 -2.5993 -0.1998
  252MOL0     H33962   3.682  10.480   3.589  2.2231 -0.9334  1.1655
  252MOL0     H33963   3.740  10.786   3.601  0.3529 -0.0667 -1.6818
  252MOL0     H33964   3.587  10.728   3.556 -1.3613 -2.4371  1.4699
  252MOL0     H33965   3.555  10.601   3.764 -1.4026  0.6185 -0.2826
  252MOL0     H33966   3.708  10.639   3.816  0.3934  0.3587 -0.2684
  252MOL0     H33967   3.586  10.821   3.926 -4.2910  1.4640 -0.7283
  252MOL0     H33968   3.658  10.896   3.777  0.4328 -1.1217 -0.9347
  252MOL0     H33969   3.456  10.900   3.679 -1.5560 -0.2466 -0.0768
  252MOL0     H33970   3.446  10.950   3.848  2.0176 -0.4029  2.4411
  252MOL0     H33971   3.221  10.803   3.631  0.8102  1.2769  0.5038
  252MOL0     H33972   2.925  10.705   3.836 -1.9844  3.1479 -3.0534
  252MOL0     H33973   2.979  10.733   3.673 -0.9577 -0.0956  0.7286
  252MOL0     H33974   3.047  10.499   3.647 -2.2776 -0.4833 -1.7489
  252MOL0     H33975   2.876  10.522   3.685  0.6711  3.4901 -3.1521
  252MOL0     H33976   2.913  10.449   3.920  1.2614 -2.1354  0.7503
  252MOL0     H33977   3.090  10.441   3.887 -0.6966  1.1744  1.5271
  252MOL0     H33978   3.020  10.222   3.882 -0.8990  1.1770  1.5561
  252MOL0     H33979   3.005  10.259   3.700  1.3824  0.7306 -0.2004
  252MOL0     H33980   2.968  10.025   3.769  0.3621  1.2181  2.5768
  252MOL0     H33981   2.999   9.820   3.694 -0.0960 -0.4112  1.4794
  252MOL0     H33982   2.904   9.720   3.806  1.4187 -0.7123 -0.1695
  252MOL0     H33983   2.874   9.714   3.630  0.8325  0.9850 -1.1649
  252MOL0     H33984   2.517   9.467   3.903 -1.7405  0.6777  0.3636
  252MOL0     H33985   2.432   9.252   3.859 -1.9124  2.1092  1.2959
  252MOL0     H33986   2.503   9.040   3.772  1.0986 -1.2793 -0.9024
  252MOL0     H33987   2.335   9.026   3.732  0.2103  1.4092  0.6334
  252MOL0     H33988   2.553   8.908   3.554 -0.9906  3.0038 -0.6887
  252MOL0     H33989   2.504   8.818   3.699  1.4567 -0.1542 -0.6666
  252MOL0     H33990   2.385   8.792   3.450  2.5723  3.6084  0.2018
  252MOL0     H33991   2.294   8.923   3.522  1.3419  0.8876  0.8937
  252MOL0     H33992   2.334   8.652   3.658  0.2136  1.2828  2.1333
  252MOL0     H33993   2.265   8.800   3.724  2.9279  0.3422 -0.3977
  252MOL0     H33994   2.099   8.614   3.620  0.8037 -1.3928 -0.8506
  252MOL0     H33995   2.161   8.696   3.470 -1.6432  0.9805 -0.1386
  252MOL0     H33996   2.001   8.820   3.704  2.2583  1.8444  0.7661
  252MOL0     H33997   2.062   8.910   3.561 -0.0857  0.5673  0.9424
  252MOL0     H33998   1.893   8.704   3.444 -1.8644 -0.9903 -1.0801
  252MOL0     H33999   1.849   8.876   3.466 -0.0458  0.0406  1.1715
  252MOL0     H34000   1.681   8.744   3.559 -1.3488 -1.9706  0.8889
  252MOL0     H34001   1.780   8.789   3.704  1.5998 -0.4184 -0.5592
  252MOL0     H34002   2.555   9.295   3.437 -1.8609 -2.9938  0.5643
  252MOL0     H34003   2.616   9.531   3.491  0.0049  2.2654  1.2153
  252MOL0     H34004   2.473   9.986   3.744 -0.3451  0.4937  0.2466
  252MOL0     H34005   2.571  10.190   3.798  2.3744  4.0905 -4.1343
  252MOL0     H34006   3.940  10.220   3.200 -0.8401 -0.7049 -0.8946
  252MOL0     H34007   3.851  10.196   2.985 -1.9286  0.2858 -1.4948
  252MOL0     H34008   3.819  10.205   2.570 -0.0829 -0.6006  1.3615
  252MOL0     H34009   3.751  10.084   2.382 -0.2539  1.7351 -1.3460
  252MOL0     H34010   3.376   9.978   2.182  1.8471  0.7405 -4.3598
  252MOL0     H34011   3.349  10.113   2.286 -0.7223 -2.0215  0.9034
  252MOL0     H34012   3.565  10.222   2.199  0.9183  0.7895 -2.4376
  252MOL0     H34013   3.426  10.220   2.089 -0.0744  1.5235  1.7064
  252MOL0     H34014   3.568   9.982   2.005  1.3760  0.5817 -2.4433
  252MOL0     H34015   3.679  10.045   2.122  0.5523 -0.3746 -1.6044
  252MOL0     H34016   3.744  10.109   1.885 -1.9849  0.8514 -3.2775
  252MOL0     H34017   3.717  10.246   2.000 -0.8267  1.1037 -2.4362
  252MOL0     H34018   3.427  10.323   1.713  1.3450  0.0461 -1.2005
  252MOL0     H34019   3.348  10.076   2.526 -0.4021 -0.6876 -1.2181
  252MOL0     H34020   3.421  10.180   2.728 -1.0239 -2.9457 -0.5826
  253MOL0     O34021   6.078   3.255   3.250 -0.1530  0.3185  0.7374
  253MOL0     C34022   6.152   3.159   3.269 -0.1241 -0.1920 -0.1335
  253MOL0     O34023   6.114   3.034   3.312  0.7385  0.4862  0.2597
  253MOL0     C34024   5.984   3.018   3.358 -0.9060 -0.3430  0.3987
  253MOL0     C34025   5.912   2.911   3.319 -0.2501  0.0264  0.4874
  253MOL0     C34026   5.776   2.903   3.351 -0.1120  0.0073  0.6067
  253MOL0     C34027   5.714   3.001   3.433 -0.5683 -0.1725 -0.2103
  253MOL0     O34028   5.588   2.996   3.477  0.5439  0.2815  0.4562
  253MOL0     C34029   5.497   2.922   3.385  1.0031  0.0965  0.0213
  253MOL0     C34030   5.355   2.945   3.440 -0.4257 -0.5783 -0.5227
  253MOL0     C34031   5.255   2.883   3.350 -0.4227  0.6124  0.5661
  253MOL0     C34032   5.109   2.896   3.401  0.1682  0.2582  0.2312
  253MOL0     C34033   4.993   2.855   3.304  0.0679  0.5340  0.3442
  253MOL0     C34034   4.991   2.703   3.294 -1.0137 -0.5903  0.2031
  253MOL0     C34035   4.906   2.655   3.182  1.0004 -0.3295  0.7028
  253MOL0     C34036   4.905   2.505   3.183 -0.5575 -0.5935 -0.1839
  253MOL0     N34037   4.775   2.462   3.235 -0.0282  0.1589  0.2042
  253MOL0     C34038   4.747   2.443   3.373 -0.0489  0.0451  0.3935
  253MOL0     C34039   4.625   2.382   3.362 -0.0777  0.2072 -0.3925
  253MOL0     C34040   4.523   2.351   3.467 -0.0396 -0.6150 -0.0607
  253MOL0     C34041   4.444   2.469   3.523  0.1520  0.1310 -0.5425
  253MOL0     C34042   4.340   2.520   3.424 -0.0002  0.1606 -0.0253
  253MOL0     C34043   4.226   2.421   3.377 -0.2025  0.4307 -0.5573
  253MOL0     O34044   4.113   2.506   3.348  0.7145 -0.0008  1.4110
  253MOL0     C34045   4.001   2.507   3.444 -0.4171  0.4195 -0.6251
  253MOL0     C34046   4.031   2.505   3.580  0.1831 -0.4544  0.2652
  253MOL0     C34047   3.926   2.489   3.668  0.2419  0.6189 -0.1149
  253MOL0     C34048   3.958   2.483   3.812 -0.4690  0.7283  0.7494
  253MOL0     C34049   3.791   2.487   3.627  0.8931  0.1582  0.7782
  253MOL0     C34050   3.682   2.472   3.726  0.8433  0.9147  0.4586
  253MOL0     O34051   3.691   2.526   3.848 -0.9125 -0.1450 -0.0009
  253MOL0     C34052   3.578   2.510   3.936  1.0350  0.5870  0.7307
  253MOL0     C34053   3.595   2.447   4.062  1.1983 -0.2466 -0.3856
  253MOL0     C34054   3.479   2.416   4.138  0.0475 -0.3337 -0.3942
  253MOL0     C34055   3.349   2.445   4.091 -0.2557 -0.0728  0.3397
  253MOL0     O34056   3.238   2.411   4.153  0.8221  0.6750  0.0733
  253MOL0     C34057   3.247   2.336   4.280 -0.5456 -0.2392 -0.2292
  253MOL0     C34058   3.118   2.318   4.359 -0.2227  0.0553 -0.1725
  253MOL0     C34059   3.067   2.446   4.433  0.6779 -0.5546 -0.2610
  253MOL0     C34060   2.955   2.377   4.514 -0.2981 -0.4054  0.1030
  253MOL0     C34061   2.906   2.493   4.596 -0.0169 -0.5969 -0.7429
  253MOL0     C34062   2.782   2.454   4.670 -0.0757  1.1493  0.5288
  253MOL0     C34063   2.654   2.441   4.591 -0.2839  0.1181 -0.5691
  253MOL0     C34064   2.534   2.425   4.684  0.2927  0.1869  0.8609
  253MOL0    Cl34065   2.483   2.570   4.763 -0.4168  0.0722 -0.2081
  253MOL0     C34066   3.332   2.522   3.974  0.2390 -0.5521  0.4916
  253MOL0     C34067   3.449   2.557   3.896 -1.0449 -0.0567  0.7821
  253MOL0     O34068   3.588   2.397   3.689 -0.2580 -0.4900 -0.1455
  253MOL0     C34069   3.765   2.484   3.485  0.0469 -0.6977  0.9118
  253MOL0     C34070   3.875   2.509   3.398 -0.5196 -0.2579 -0.3282
  253MOL0     N34071   4.588   2.363   3.226 -1.3704  0.2509 -0.1676
  253MOL0     N34072   4.679   2.417   3.149 -0.0424  0.1220 -0.1543
  253MOL0     C34073   5.796   3.100   3.476  0.4470  0.5303  0.4699
  253MOL0     C34074   5.929   3.109   3.450 -0.5944  0.2235 -0.6253
  253MOL0     C34075   6.286   3.185   3.243 -0.9060  0.4786 -0.0907
  253MOL0     C34076   6.385   3.086   3.234 -0.7964  1.1565 -0.4028
  253MOL0     C34077   6.518   3.121   3.217 -0.6755  0.2387  0.0518
  253MOL0     C34078   6.561   3.254   3.209 -0.1104 -0.5959  0.3656
  253MOL0     O34079   6.695   3.275   3.191  0.1170 -0.0404  0.2084
  253MOL0     C34080   6.755   3.404   3.206 -0.3437 -0.2480 -0.8803
  253MOL0     C34081   6.755   3.457   3.347  0.1388  0.6554 -0.6385
  253MOL0     C34082   6.784   3.355   3.467  0.1234  0.5470 -0.6790
  253MOL0     C34083   6.913   3.271   3.451 -0.4133  0.4197 -0.6293
  253MOL0     C34084   7.023   3.343   3.511 -0.1536 -0.9333  0.2688
  253MOL0     C34085   7.108   3.415   3.561  0.2100  0.0230 -0.7580
  253MOL0     C34086   6.465   3.355   3.214 -0.3347 -0.1107 -0.1498
  253MOL0     C34087   6.331   3.319   3.244 -1.3553 -0.2910 -0.2248
  253MOL0     H34088   5.961   2.839   3.255  3.9791  1.4859  1.7686
  253MOL0     H34089   5.719   2.815   3.325  0.5751  0.0254 -1.0557
  253MOL0     H34090   5.506   2.948   3.280  0.5905  4.1311  0.8077
  253MOL0     H34091   5.519   2.816   3.402  0.5374 -0.1807 -1.0856
  253MOL0     H34092   5.346   2.920   3.546 -2.4749  0.3061 -0.4582
  253MOL0     H34093   5.329   3.050   3.429 -2.4829 -1.0820 -0.8174
  253MOL0     H34094   5.262   2.928   3.250  0.4506  0.0789  0.3756
  253MOL0     H34095   5.281   2.777   3.344  1.2555  0.8592  2.5753
  253MOL0     H34096   5.104   2.846   3.499 -0.1487 -0.0789  0.0456
  253MOL0     H34097   5.084   2.997   3.434 -3.1781 -0.3646  0.0129
  253MOL0     H34098   4.894   2.889   3.335  0.0380  0.3153  0.4926
  253MOL0     H34099   5.022   2.892   3.205 -3.1576  0.7038 -0.6578
  253MOL0     H34100   5.089   2.658   3.278 -0.4517  1.0236 -1.2535
  253MOL0     H34101   4.954   2.679   3.394 -0.2159  1.8223  1.1470
  253MOL0     H34102   4.804   2.695   3.190  1.2444  0.2698  0.8228
  253MOL0     H34103   4.959   2.709   3.103 -0.7314  1.0331  0.3962
  253MOL0     H34104   4.990   2.466   3.239 -0.7119  1.2648  1.4407
  253MOL0     H34105   4.916   2.475   3.078 -0.4795 -0.1554 -0.3017
  253MOL0     H34106   4.801   2.483   3.459 -1.5503  0.7965  1.0408
  253MOL0     H34107   4.455   2.271   3.439 -0.0864 -0.9459  0.9346
  253MOL0     H34108   4.591   2.315   3.545  0.3396 -1.3279 -0.7104
  253MOL0     H34109   4.519   2.545   3.548  0.5139 -0.4362  0.1222
  253MOL0     H34110   4.387   2.438   3.611 -2.2868  3.2961 -0.7933
  253MOL0     H34111   4.396   2.555   3.337 -1.6954  2.1937 -0.3753
  253MOL0     H34112   4.293   2.610   3.464 -1.8221 -0.2796 -1.0201
  253MOL0     H34113   4.212   2.341   3.450  1.2382  0.7558  0.1111
  253MOL0     H34114   4.257   2.368   3.287  1.7797  0.7545 -0.1202
  253MOL0     H34115   4.135   2.505   3.610  0.0803  1.0133  0.6625
  253MOL0     H34116   3.923   2.395   3.865 -4.8706  1.7488 -0.0027
  253MOL0     H34117   4.064   2.492   3.835  0.0087  2.1199 -1.6016
  253MOL0     H34118   3.922   2.574   3.861 -1.3490  1.2364 -0.7506
  253MOL0     H34119   3.698   2.432   4.092  0.6626  0.7387  2.2230
  253MOL0     H34120   3.493   2.367   4.234 -0.0868 -1.8107 -1.1144
  253MOL0     H34121   3.275   2.237   4.242 -2.4256  0.0328 -2.5230
  253MOL0     H34122   3.323   2.383   4.344 -1.1267  1.2506 -0.5872
  253MOL0     H34123   3.043   2.279   4.290 -0.7236  2.0486 -0.8325
  253MOL0     H34124   3.139   2.233   4.425  1.4748  1.4500  1.1670
  253MOL0     H34125   3.031   2.523   4.364  2.1732 -2.0395 -2.9034
  253MOL0     H34126   3.141   2.489   4.501  0.8237  0.2379 -0.9079
  253MOL0     H34127   2.870   2.338   4.457 -1.5225  1.4090  0.6120
  253MOL0     H34128   2.997   2.306   4.586 -2.0361 -1.3186  0.2630
  253MOL0     H34129   2.880   2.578   4.533 -0.2907  0.1749  0.3898
  253MOL0     H34130   2.976   2.529   4.671 -0.3205 -0.0428 -0.7196
  253MOL0     H34131   2.796   2.361   4.726 -4.6138 -0.1818 -0.0856
  253MOL0     H34132   2.769   2.536   4.741  1.7556  0.0889  2.1846
  253MOL0     H34133   2.659   2.351   4.529  0.1186 -3.3245  3.9657
  253MOL0     H34134   2.630   2.520   4.519 -1.7075 -0.3910 -0.6960
  253MOL0     H34135   2.570   2.352   4.757  3.3787 -0.6755 -1.2784
  253MOL0     H34136   2.445   2.387   4.633  1.2321  0.9399 -1.4900
  253MOL0     H34137   3.233   2.549   3.939  0.2483 -0.6505  0.3902
  253MOL0     H34138   3.451   2.619   3.808  2.2734  1.0564  1.5008
  253MOL0     H34139   3.669   2.473   3.435 -0.4595  0.3698  1.6170
  253MOL0     H34140   3.865   2.502   3.290  1.9698  0.3371 -0.6431
  253MOL0     H34141   5.749   3.169   3.545  0.1804  1.0950 -0.2669
  253MOL0     H34142   5.997   3.173   3.504 -2.0925  0.5772  0.9071
  253MOL0     H34143   6.365   2.985   3.268  1.1058  1.9063  3.3844
  253MOL0     H34144   6.599   3.050   3.224  1.0876  2.0348 -1.1847
  253MOL0     H34145   6.858   3.390   3.172 -0.1657 -2.1643  0.3019
  253MOL0     H34146   6.711   3.480   3.141 -0.3014  0.3781 -0.1885
  253MOL0     H34147   6.661   3.510   3.362  0.1136  0.7529 -1.1452
  253MOL0     H34148   6.830   3.534   3.365 -0.2568  0.3522  3.3973
  253MOL0     H34149   6.697   3.289   3.464  1.3738 -1.2066 -0.0052
  253MOL0     H34150   6.781   3.407   3.563 -1.1906  0.4818 -0.6615
  253MOL0     H34151   6.939   3.257   3.346 -0.5860 -2.3916 -0.3583
  253MOL0     H34152   6.907   3.173   3.498 -0.4021  0.9156  0.4418
  253MOL0     H34153   7.184   3.470   3.612  2.3864 -2.9365 -0.5783
  253MOL0     H34154   6.498   3.458   3.201 -1.4919  0.4876  1.3407
  253MOL0     H34155   6.262   3.402   3.262 -1.5470 -0.9161  2.3147
  254MOL0     O34156   3.048   3.760   6.973 -0.4362 -0.4040 -0.2993
  254MOL0     C34157   3.105   3.855   6.922  0.6210 -0.6070 -0.7065
  254MOL0     O34158   3.054   3.937   6.824  0.4505 -0.7719  0.1439
  254MOL0     C34159   2.921   3.945   6.803 -0.1963  0.4366 -0.1668
  254MOL0     C34160   2.846   3.831   6.757 -0.6253 -0.5462 -0.0939
  254MOL0     C34161   2.710   3.843   6.734 -0.1229  0.2095 -0.5999
  254MOL0     C34162   2.644   3.967   6.745 -0.3587 -0.3406 -0.0030
  254MOL0     O34163   2.508   3.955   6.727  0.6175 -0.7176  0.2903
  254MOL0     C34164   2.437   4.079   6.734  1.2973 -0.4043  0.4655
  254MOL0     C34165   2.282   4.059   6.726  0.8053 -0.8892  0.7230
  254MOL0     C34166   2.223   3.935   6.796  0.1805  0.2070 -0.0695
  254MOL0     C34167   2.073   3.938   6.786  0.7839  0.3933 -0.5547
  254MOL0     C34168   2.020   3.795   6.827  0.3116  0.8661  0.1190
  254MOL0     C34169   1.868   3.781   6.837 -0.3541 -0.2332  0.2125
  254MOL0     C34170   1.843   3.631   6.857 -0.6631  0.3368 -0.2890
  254MOL0     C34171   1.701   3.573   6.828  1.2007  0.2850  0.8244
  254MOL0     N34172   1.684   3.436   6.879  0.2923 -0.2003  0.1912
  254MOL0     C34173   1.786   3.357   6.927  0.3711 -0.8850 -0.3340
  254MOL0     C34174   1.729   3.262   7.003 -0.5339  0.8305  1.1133
  254MOL0     C34175   1.799   3.144   7.071 -0.8342 -0.2185 -0.8821
  254MOL0     C34176   1.891   3.068   6.974  0.0767  0.0739 -0.3036
  254MOL0     C34177   1.986   2.961   7.031 -0.9706 -1.0339 -0.4803
  254MOL0     C34178   2.098   3.024   7.110  0.0588  0.3226  0.4291
  254MOL0     O34179   2.192   2.920   7.145  0.0682 -0.2739 -0.2345
  254MOL0     C34180   2.313   2.952   7.208  0.5909  0.1284  0.8165
  254MOL0     C34181   2.350   2.847   7.299 -0.0091  0.5425  0.4872
  254MOL0     C34182   2.462   2.843   7.378 -1.2494 -1.0248  0.5087
  254MOL0     C34183   2.481   2.726   7.468 -0.2842 -0.7920  0.4659
  254MOL0     C34184   2.556   2.956   7.361  0.2913  0.4929  0.2507
  254MOL0     C34185   2.687   2.975   7.428 -0.2448 -0.4537 -0.2522
  254MOL0     O34186   2.726   2.882   7.514 -0.6714 -0.2353 -0.0260
  254MOL0     C34187   2.861   2.845   7.543  0.3504 -0.6997 -0.4424
  254MOL0     C34188   2.968   2.930   7.564 -0.2502 -0.5047  0.6776
  254MOL0     C34189   3.097   2.885   7.596 -0.4065  0.8543  0.2011
  254MOL0     C34190   3.119   2.749   7.612 -0.7607 -0.4636 -0.1896
  254MOL0     O34191   3.242   2.698   7.652  0.2986 -0.3924 -0.9069
  254MOL0     C34192   3.245   2.579   7.732  0.0728 -0.1228  0.7636
  254MOL0     C34193   3.386   2.553   7.767  0.1527  0.1850 -0.0900
  254MOL0     C34194   3.407   2.399   7.797  0.3404  0.3300 -0.1280
  254MOL0     C34195   3.411   2.371   7.952  0.1438  0.1601  0.5855
  254MOL0     C34196   3.544   2.408   8.012  0.0553 -0.3880 -0.3396
  254MOL0     C34197   3.550   2.354   8.160 -0.6577 -0.3288 -0.2839
  254MOL0     C34198   3.621   2.445   8.257  0.0489 -1.2048  0.2903
  254MOL0     C34199   3.650   2.404   8.394  0.4772  0.3049  0.4302
  254MOL0    Cl34200   3.723   2.243   8.386  0.4798 -0.4273 -0.0628
  254MOL0     C34201   3.014   2.656   7.593  0.6574 -0.2805  0.7249
  254MOL0     C34202   2.889   2.707   7.555  0.2139  0.1027 -0.5312
  254MOL0     O34203   2.762   3.064   7.377  0.9909  0.7382 -0.5145
  254MOL0     C34204   2.527   3.050   7.267 -0.0424 -0.2810  0.8264
  254MOL0     C34205   2.403   3.052   7.195 -0.8403  0.2148  0.4801
  254MOL0     N34206   1.591   3.290   7.008 -0.3085 -0.0911 -0.2101
  254MOL0     N34207   1.567   3.400   6.940 -0.3724 -0.7937 -0.4957
  254MOL0     C34208   2.714   4.082   6.794  0.0630  0.1453  1.1476
  254MOL0     C34209   2.851   4.065   6.823 -0.5165  0.0276  0.0722
  254MOL0     C34210   3.239   3.886   6.986 -0.9667 -0.1276  0.7574
  254MOL0     C34211   3.278   4.024   6.994  0.2654  0.9262  0.6226
  254MOL0     C34212   3.406   4.050   7.050  0.4756  0.0706  0.2399
  254MOL0     C34213   3.489   3.955   7.108 -0.1671  0.2085 -1.0531
  254MOL0     O34214   3.610   3.983   7.165  0.7371  0.9841  0.0297
  254MOL0     C34215   3.723   3.909   7.135 -0.0044  0.3138  0.2393
  254MOL0     C34216   3.844   4.001   7.148 -0.4087 -0.1158  0.0421
  254MOL0     C34217   3.976   3.925   7.108  0.6196  0.3173 -0.3708
  254MOL0     C34218   4.103   4.013   7.118 -0.4217 -0.2253  0.1201
  254MOL0     C34219   4.099   4.124   7.018  0.4195  0.1813 -0.5270
  254MOL0     C34220   4.089   4.220   6.938 -0.2561 -0.6272 -0.5022
  254MOL0     C34221   3.458   3.818   7.079  0.2345 -1.0746 -0.1539
  254MOL0     C34222   3.328   3.784   7.016  0.1882  1.1366 -0.0291
  254MOL0     H34223   2.910   3.747   6.735 -0.7702 -0.9309  0.9049
  254MOL0     H34224   2.668   3.749   6.700 -1.8553  0.0475  1.7043
  254MOL0     H34225   2.448   4.108   6.839 -5.0175 -0.0055  1.4135
  254MOL0     H34226   2.469   4.156   6.663  0.4124  0.7146  1.2398
  254MOL0     H34227   2.236   4.151   6.764  2.8419  0.1804  0.7860
  254MOL0     H34228   2.253   4.056   6.621 -0.1262  0.7347  0.8952
  254MOL0     H34229   2.271   3.846   6.755 -1.3142 -0.4570 -0.4377
  254MOL0     H34230   2.246   3.941   6.903 -2.0688 -2.8476  0.7203
  254MOL0     H34231   2.025   4.014   6.849 -2.6293  0.1045 -2.5506
  254MOL0     H34232   2.048   3.977   6.687 -1.1648  0.0530 -0.2418
  254MOL0     H34233   2.056   3.727   6.749 -1.3422  1.6034 -1.3771
  254MOL0     H34234   2.070   3.764   6.919  1.7520 -1.0569 -1.2351
  254MOL0     H34235   1.829   3.844   6.918  1.1617 -0.2430  0.9788
  254MOL0     H34236   1.828   3.828   6.747  0.4750 -1.3222 -0.7479
  254MOL0     H34237   1.914   3.568   6.802 -1.4154  0.4227 -1.3916
  254MOL0     H34238   1.860   3.624   6.965  0.2901 -0.0824 -0.4565
  254MOL0     H34239   1.688   3.570   6.720 -0.4020  3.1380  0.8473
  254MOL0     H34240   1.622   3.634   6.873  0.1233 -0.7116  0.3524
  254MOL0     H34241   1.889   3.386   6.909 -0.1981  2.4534  1.0534
  254MOL0     H34242   1.849   3.179   7.162  0.3490 -0.8593 -1.2550
  254MOL0     H34243   1.723   3.079   7.117  0.3139  1.1669  3.4312
  254MOL0     H34244   1.951   3.139   6.917  0.5229  0.6384  0.8287
  254MOL0     H34245   1.830   3.011   6.903  2.4853 -2.2717 -0.6866
  254MOL0     H34246   2.026   2.909   6.943  0.5654 -0.0807 -0.3787
  254MOL0     H34247   1.930   2.887   7.090 -2.5123  1.1020  0.8755
  254MOL0     H34248   2.065   3.072   7.203  0.1909  2.0781 -0.3950
  254MOL0     H34249   2.148   3.112   7.067 -1.6502  0.9370 -0.3882
  254MOL0     H34250   2.284   2.761   7.297  0.3180  0.0011  4.7399
  254MOL0     H34251   2.570   2.677   7.428 -1.3228 -0.1849 -2.8569
  254MOL0     H34252   2.488   2.759   7.572 -2.7199 -0.2901  0.5331
  254MOL0     H34253   2.394   2.661   7.460 -1.9054  0.9573  2.4799
  254MOL0     H34254   2.959   3.034   7.535 -3.1466 -0.4417  1.4885
  254MOL0     H34255   3.180   2.950   7.622 -0.6304  2.1814 -2.1519
  254MOL0     H34256   3.195   2.590   7.829 -0.7795 -4.5143  1.0332
  254MOL0     H34257   3.208   2.494   7.674 -3.5741  0.8625  1.4359
  254MOL0     H34258   3.446   2.571   7.678 -0.0613  0.4178 -0.1864
  254MOL0     H34259   3.418   2.618   7.848  0.1963 -0.3399  0.3228
  254MOL0     H34260   3.501   2.383   7.744 -0.0726  2.2738 -1.5660
  254MOL0     H34261   3.329   2.345   7.742 -0.6851  0.5270  1.0901
  254MOL0     H34262   3.327   2.416   8.006  0.4265  0.6877  0.5930
  254MOL0     H34263   3.401   2.263   7.964  1.7129 -0.3740 -2.1575
  254MOL0     H34264   3.544   2.517   8.005 -2.3103 -0.1613  1.8262
  254MOL0     H34265   3.628   2.369   7.954  0.2151 -0.1302 -0.2822
  254MOL0     H34266   3.447   2.342   8.196 -0.0964  0.1298  1.5756
  254MOL0     H34267   3.597   2.256   8.158  1.1525  0.4977 -0.3149
  254MOL0     H34268   3.569   2.541   8.269  2.2002  0.2206 -1.0332
  254MOL0     H34269   3.716   2.478   8.214  0.0182 -0.4525  0.7845
  254MOL0     H34270   3.556   2.394   8.448 -1.2958 -0.7817 -2.6174
  254MOL0     H34271   3.718   2.470   8.448 -0.0743 -1.3981  3.4246
  254MOL0     H34272   3.032   2.551   7.611  0.8935  0.0092  2.3081
  254MOL0     H34273   2.801   2.645   7.547 -0.0543  0.4393 -0.2589
  254MOL0     H34274   2.596   3.127   7.236 -0.3182 -0.3767 -0.0344
  254MOL0     H34275   2.388   3.136   7.128  2.8899  2.8452  2.5755
  254MOL0     H34276   2.663   4.173   6.823 -2.1555 -0.7967  0.4031
  254MOL0     H34277   2.907   4.147   6.866  1.1450  0.1786 -2.2109
  254MOL0     H34278   3.213   4.101   6.952 -0.1282  1.0024  1.3605
  254MOL0     H34279   3.452   4.148   7.046 -2.4970  1.5321 -2.4421
  254MOL0     H34280   3.737   3.830   7.209  1.7126 -2.0128 -2.3742
  254MOL0     H34281   3.732   3.858   7.039 -0.8923 -0.6811  0.6621
  254MOL0     H34282   3.845   4.039   7.251 -2.1326  1.5650 -0.5071
  254MOL0     H34283   3.840   4.089   7.083  3.2412  2.1848  2.5340
  254MOL0     H34284   3.975   3.887   7.006 -0.3768 -4.2872  1.1169
  254MOL0     H34285   3.977   3.839   7.175  1.3403 -0.7888 -1.7669
  254MOL0     H34286   4.189   3.956   7.083 -0.0627  0.8154 -0.7372
  254MOL0     H34287   4.126   4.051   7.219  1.0087 -1.2256  0.2009
  254MOL0     H34288   4.087   4.304   6.871  0.7072 -0.5329 -0.4280
  254MOL0     H34289   3.521   3.738   7.117  1.8137 -0.6967 -1.8183
  254MOL0     H34290   3.292   3.683   6.997  0.0147  1.4244 -1.3184
  255MOL0     O34291   6.975  10.915   3.354  0.1988  0.0095 -1.3059
  255MOL0     C34292   7.042  11.002   3.404  0.3615 -0.5700  0.1547
  255MOL0     O34293   7.021  11.059   3.524  0.3619 -0.3097  1.7306
  255MOL0     C34294   6.909  11.016   3.598 -0.0167 -0.1891  0.1960
  255MOL0     C34295   6.780  11.039   3.544  0.6940  0.1152 -0.1633
  255MOL0     C34296   6.658  11.001   3.608  0.2900 -0.0704 -0.2661
  255MOL0     C34297   6.664  10.936   3.733  0.1229  0.1421 -0.4584
  255MOL0     O34298   6.550  10.897   3.798 -0.7278 -0.2023  0.5027
  255MOL0     C34299   6.563  10.833   3.920  0.2976 -0.4207  0.1452
  255MOL0     C34300   6.426  10.792   3.976  0.0365 -1.0657 -0.2740
  255MOL0     C34301   6.331  10.922   3.974 -0.6714 -0.2635 -0.0453
  255MOL0     C34302   6.189  10.897   4.022  0.1901  0.4238  0.1196
  255MOL0     C34303   6.111  10.837   3.901  0.8300  0.7649  0.3154
  255MOL0     C34304   5.974  10.781   3.930 -0.1159  0.2468  0.2349
  255MOL0     C34305   5.878  10.895   3.974  0.5479 -0.2039  0.1314
  255MOL0     C34306   5.730  10.850   3.987  0.0555  0.6795 -0.2407
  255MOL0     N34307   5.638  10.959   4.034 -0.1379 -0.6715 -0.0707
  255MOL0     C34308   5.500  10.948   4.015  0.4230 -0.2189  0.2917
  255MOL0     C34309   5.452  11.044   4.096  0.8850  0.6149 -0.6126
  255MOL0     C34310   5.308  11.053   4.125  0.8475  0.6446 -0.5774
  255MOL0     C34311   5.274  11.187   4.191  0.0770 -0.3461 -0.3048
  255MOL0     C34312   5.139  11.248   4.152 -0.0835  0.1844 -0.3050
  255MOL0     C34313   5.017  11.179   4.226  0.3729  0.1455 -0.3413
  255MOL0     O34314   4.904  11.232   4.168  0.0638 -0.0163 -0.0226
  255MOL0     C34315   4.776  11.189   4.196  0.9854  0.1458  0.9709
  255MOL0     C34316   4.743  11.076   4.270  0.2744 -0.6409  0.0686
  255MOL0     C34317   4.606  11.056   4.310  0.3469 -0.1489 -0.0028
  255MOL0     C34318   4.583  10.945   4.413  0.0161  0.4099 -0.0618
  255MOL0     C34319   4.508  11.125   4.246 -0.2341 -0.1156  0.0217
  255MOL0     C34320   4.361  11.080   4.248  1.1105  0.1772  1.2100
  255MOL0     O34321   4.331  10.949   4.255  0.4362 -0.1311 -0.8023
  255MOL0     C34322   4.206  10.894   4.285  0.6628 -1.2692  0.0124
  255MOL0     C34323   4.079  10.940   4.237 -0.6998  0.0988 -0.0722
  255MOL0     C34324   3.957  10.878   4.281 -0.1682  1.2971  0.8016
  255MOL0     C34325   3.964  10.750   4.346 -0.5711 -0.6202 -0.3056
  255MOL0     O34326   3.861  10.680   4.385  0.1773  0.3215 -0.1375
  255MOL0     C34327   3.760  10.649   4.280 -0.5398  0.1534  1.1106
  255MOL0     C34328   3.640  10.742   4.306  0.1110 -0.0871 -0.7481
  255MOL0     C34329   3.507  10.708   4.242 -0.0401 -0.2331  0.0099
  255MOL0     C34330   3.444  10.575   4.295  0.3979 -0.1677 -0.1154
  255MOL0     C34331   3.290  10.570   4.264 -0.0119 -0.3446  0.8433
  255MOL0     C34332   3.233  10.423   4.284 -0.7103 -0.5673  0.0993
  255MOL0     C34333   3.082  10.397   4.255  0.8272  0.2879  1.1031
  255MOL0     C34334   3.036  10.252   4.292 -0.3380  0.7400  0.7352
  255MOL0    Cl34335   2.892  10.221   4.210  0.1962  0.3120  0.4326
  255MOL0     C34336   4.088  10.707   4.392 -0.0190 -0.6033 -0.0294
  255MOL0     C34337   4.201  10.778   4.363 -0.5630  0.4803  1.1578
  255MOL0     O34338   4.276  11.168   4.230 -0.3079  0.0938 -0.0484
  255MOL0     C34339   4.543  11.236   4.160  0.1763  0.7847 -0.7571
  255MOL0     C34340   4.677  11.272   4.133  0.3234 -0.1327 -0.5229
  255MOL0     N34341   5.554  11.112   4.146 -0.4828 -0.6555 -0.1185
  255MOL0     N34342   5.668  11.068   4.107  0.0581  0.7207 -0.5403
  255MOL0     C34343   6.799  10.898   3.781  0.7361 -0.0127 -0.5468
  255MOL0     C34344   6.913  10.951   3.722  0.4553 -0.6123  0.3123
  255MOL0     C34345   7.158  11.044   3.324 -0.3814  0.1563 -0.1797
  255MOL0     C34346   7.243  11.138   3.379 -0.1460 -1.0825  0.1426
  255MOL0     C34347   7.356  11.172   3.304 -0.4114 -0.6714 -0.4135
  255MOL0     C34348   7.379  11.132   3.172 -0.5906  0.0020  0.6596
  255MOL0     O34349   7.501  11.159   3.122 -0.8281  0.0988 -0.1325
  255MOL0     C34350   7.504  11.132   2.976 -0.1925  0.0412 -0.3754
  255MOL0     C34351   7.635  11.195   2.915  1.2043  0.1565  0.7458
  255MOL0     C34352   7.753  11.106   2.956  0.0614 -0.9136  1.2388
  255MOL0     C34353   7.891  11.156   2.890 -0.8522 -0.3714 -0.5045
  255MOL0     C34354   7.930  11.299   2.923  0.0356  0.4616 -0.1683
  255MOL0     C34355   7.956  11.419   2.919 -0.3435  0.2211  0.3550
  255MOL0     C34356   7.286  11.052   3.106 -0.3143  0.0767  0.5999
  255MOL0     C34357   7.173  10.999   3.184  0.0383 -0.1210 -0.5855
  255MOL0     H34358   6.773  11.090   3.448  0.0941 -0.7149 -0.5705
  255MOL0     H34359   6.564  11.033   3.563 -0.4466  0.5052  1.5739
  255MOL0     H34360   6.608  10.738   3.891 -1.2438 -0.8481 -1.0139
  255MOL0     H34361   6.616  10.887   3.999 -0.8895 -0.6335  1.1337
  255MOL0     H34362   6.387  10.710   3.915 -0.2976  0.7083 -2.5502
  255MOL0     H34363   6.443  10.755   4.078 -1.0229  2.1815  1.2210
  255MOL0     H34364   6.382  10.988   4.045 -1.0455 -0.7397  0.6895
  255MOL0     H34365   6.332  10.983   3.884  1.5886  1.3017  0.9341
  255MOL0     H34366   6.191  10.825   4.104  0.5169  1.6546  1.2384
  255MOL0     H34367   6.138  10.989   4.054 -0.1015 -0.5013  2.5697
  255MOL0     H34368   6.096  10.912   3.823 -1.4805 -0.6944 -0.7360
  255MOL0     H34369   6.166  10.763   3.843 -1.4964  0.4415 -1.6032
  255MOL0     H34370   5.933  10.731   3.841  1.2999  1.4738 -1.1655
  255MOL0     H34371   5.972  10.705   4.009 -0.2928 -2.5843 -2.3036
  255MOL0     H34372   5.914  10.949   4.062  1.7439  1.2692 -1.1799
  255MOL0     H34373   5.868  10.973   3.898 -0.1435 -1.2894 -0.9289
  255MOL0     H34374   5.733  10.771   4.063 -1.1908  1.7662  1.0072
  255MOL0     H34375   5.698  10.811   3.891  1.1834  1.0561 -0.7899
  255MOL0     H34376   5.456  10.863   3.964 -0.4492 -1.0880  2.3912
  255MOL0     H34377   5.251  11.044   4.031 -1.0635 -0.2147  0.6156
  255MOL0     H34378   5.276  10.973   4.191  3.1694 -1.1263 -1.4854
  255MOL0     H34379   5.336  11.254   4.129  0.3524 -2.7436 -2.8048
  255MOL0     H34380   5.287  11.187   4.299 -2.8904  0.0938  0.1276
  255MOL0     H34381   5.124  11.252   4.044  1.2407  4.4433 -0.4958
  255MOL0     H34382   5.134  11.354   4.178 -0.5589  0.0440  0.1890
  255MOL0     H34383   5.019  11.214   4.330 -0.1123  1.1428 -0.6594
  255MOL0     H34384   5.024  11.070   4.214  1.4684  0.2484 -0.7538
  255MOL0     H34385   4.830  11.021   4.304  1.7489  2.9976  2.7742
  255MOL0     H34386   4.518  10.986   4.491  2.7603 -1.4932  3.5201
  255MOL0     H34387   4.523  10.861   4.377  1.1087 -1.1763  1.6673
  255MOL0     H34388   4.677  10.925   4.465 -0.3275  0.1989  0.4884
  255MOL0     H34389   4.064  11.031   4.178 -1.5517  0.4247  0.6174
  255MOL0     H34390   3.862  10.916   4.245 -0.2425  0.8843  0.5524
  255MOL0     H34391   3.796  10.665   4.178  0.2105 -1.0548  1.1772
  255MOL0     H34392   3.722  10.546   4.283  3.2011 -1.3838  0.8755
  255MOL0     H34393   3.631  10.754   4.414  2.9115 -0.6455 -0.3773
  255MOL0     H34394   3.679  10.839   4.272 -0.8670  0.4172 -0.4853
  255MOL0     H34395   3.520  10.709   4.134  3.2025 -0.2480  0.3016
  255MOL0     H34396   3.434  10.780   4.281 -0.1024 -0.7225  0.8151
  255MOL0     H34397   3.505  10.495   4.252  1.5642  1.6508 -2.0235
  255MOL0     H34398   3.451  10.563   4.404 -1.1008  1.5016  0.2144
  255MOL0     H34399   3.262  10.598   4.162 -1.3251 -2.7431  0.4522
  255MOL0     H34400   3.234  10.631   4.336  0.2432  0.9991 -0.0782
  255MOL0     H34401   3.292  10.355   4.222 -0.7433 -0.1406 -0.4071
  255MOL0     H34402   3.255  10.393   4.387 -0.8409 -1.3911 -0.1098
  255MOL0     H34403   3.056  10.404   4.149 -1.4322 -2.0457  1.4010
  255MOL0     H34404   3.018  10.464   4.314 -3.0918 -1.1173 -1.1795
  255MOL0     H34405   3.014  10.242   4.399 -1.2498  1.2317  0.6023
  255MOL0     H34406   3.111  10.181   4.255  0.4867  3.2966 -3.0727
  255MOL0     H34407   4.097  10.619   4.454  1.2749 -0.5100 -0.0701
  255MOL0     H34408   4.298  10.735   4.387  0.0678  1.5167  0.5521
  255MOL0     H34409   4.462  11.292   4.114 -0.3623 -1.0338 -2.1262
  255MOL0     H34410   4.690  11.353   4.062  0.8222 -0.0980 -0.3936
  255MOL0     H34411   6.807  10.839   3.872 -1.1210  1.5018  0.6834
  255MOL0     H34412   7.009  10.938   3.770  0.5963  2.2345  0.9665
  255MOL0     H34413   7.234  11.181   3.478  1.9397 -1.1467  0.4034
  255MOL0     H34414   7.430  11.235   3.353 -0.7630 -1.0872  0.6876
  255MOL0     H34415   7.497  11.025   2.954 -0.5880  0.2976 -1.5835
  255MOL0     H34416   7.420  11.178   2.924  0.3268 -0.3593 -1.6093
  255MOL0     H34417   7.650  11.299   2.946  5.2696 -0.0458 -0.0517
  255MOL0     H34418   7.600  11.197   2.811  0.7751  1.2029  0.8956
  255MOL0     H34419   7.732  11.001   2.934  0.8796 -0.6144 -1.3641
  255MOL0     H34420   7.771  11.110   3.063  1.6057 -2.9599  1.1043
  255MOL0     H34421   7.902  11.134   2.783  0.9464  1.9181 -0.8874
  255MOL0     H34422   7.966  11.098   2.944 -2.0621 -1.3794  0.1274
  255MOL0     H34423   7.989  11.519   2.897  0.7576  0.0053  0.9323
  255MOL0     H34424   7.300  11.010   3.007  0.6223  1.9328 -0.0886
  255MOL0     H34425   7.106  10.923   3.143 -1.2171  0.6126  0.0588
  256MOL0     O34426   1.781   9.369  10.097  0.2995 -0.7380 -0.5707
  256MOL0     C34427   1.801   9.248  10.108 -0.9085 -0.4716 -0.3715
  256MOL0     O34428   1.715   9.152  10.073 -0.2936 -0.6697  0.1123
  256MOL0     C34429   1.609   9.173   9.994  0.1841 -0.3806  0.0142
  256MOL0     C34430   1.560   9.065   9.910  0.0762  0.3016  0.5759
  256MOL0     C34431   1.451   9.083   9.823 -0.1912 -0.5569  0.0317
  256MOL0     C34432   1.368   9.192   9.855  0.8110  0.0615  0.4245
  256MOL0     O34433   1.238   9.215   9.805  0.1086  0.6417 -0.5429
  256MOL0     C34434   1.191   9.144   9.688  0.1048 -0.7935  0.2697
  256MOL0     C34435   1.082   9.221   9.608  0.0426  0.2946  0.4591
  256MOL0     C34436   1.021   9.138   9.497  0.9159 -0.2969  0.1608
  256MOL0     C34437   0.924   9.028   9.532 -0.4712  0.2998  1.0413
  256MOL0     C34438   0.884   8.957   9.394  0.7579 -0.0856  0.3610
  256MOL0     C34439   0.793   8.835   9.410  0.0922 -0.2032 -0.0910
  256MOL0     C34440   0.650   8.867   9.432  0.8004  0.6523 -0.6933
  256MOL0     C34441   0.570   8.920   9.309 -0.1490  0.4749 -0.0210
  256MOL0     N34442   0.576   8.819   9.195 -0.0504  0.5039  0.3964
  256MOL0     C34443   0.567   8.685   9.193  0.1576  0.7283 -0.6120
  256MOL0     C34444   0.589   8.650   9.063  0.9184  0.5660  0.7497
  256MOL0     C34445   0.601   8.516   9.000 -0.6559 -0.3463 -0.6335
  256MOL0     C34446   0.466   8.451   8.997 -0.2112  0.5917 -0.2862
  256MOL0     C34447   0.481   8.319   8.922 -0.9831  0.0621  0.0097
  256MOL0     C34448   0.353   8.248   8.893  0.5729  0.3878  0.1823
  256MOL0     O34449   0.276   8.331   8.810 -0.1100 -0.1022  0.0792
  256MOL0     C34450   0.139   8.310   8.800  0.7036 -0.9199  0.6689
  256MOL0     C34451   0.065   8.192   8.837  0.5096  0.0394 -0.6345
  256MOL0     C34452  -0.075   8.185   8.821 -0.2780 -0.1182  0.7561
  256MOL0     C34453  -0.140   8.056   8.866 -0.5807 -0.2649  0.3085
  256MOL0     C34454  -0.148   8.297   8.771 -0.1935 -0.1069 -0.4870
  256MOL0     C34455  -0.297   8.311   8.789  1.0588 -0.0493 -0.0031
  256MOL0     O34456  -0.363   8.370   8.690 -1.3268 -0.9417  0.8523
  256MOL0     C34457  -0.484   8.341   8.656  0.1657  1.1261  0.4212
  256MOL0     C34458  -0.588   8.413   8.707 -0.6516 -0.3440 -1.2421
  256MOL0     C34459  -0.718   8.387   8.659  0.1344 -0.4353  0.4296
  256MOL0     C34460  -0.748   8.287   8.571  0.3667  0.5452  1.0990
  256MOL0     O34461  -0.875   8.249   8.534  0.4312 -0.1978 -0.6260
  256MOL0     C34462  -0.978   8.332   8.579 -0.4292  0.5757  0.2002
  256MOL0     C34463  -1.098   8.305   8.494  0.1043 -0.3216  0.4667
  256MOL0     C34464  -1.178   8.183   8.531 -0.3835  0.3678 -0.0866
  256MOL0     C34465  -1.314   8.194   8.470  0.1238 -0.9491  1.1701
  256MOL0     C34466  -1.403   8.099   8.542  0.5971 -0.2161  0.0539
  256MOL0     C34467  -1.547   8.109   8.486 -0.1430  0.4254 -0.0852
  256MOL0     C34468  -1.652   8.030   8.568  0.0001  0.2472 -0.8444
  256MOL0     C34469  -1.600   7.895   8.595  0.4149  0.2692 -0.2721
  256MOL0    Cl34470  -1.722   7.794   8.650 -0.0860 -0.0541  0.0700
  256MOL0     C34471  -0.640   8.206   8.530 -1.1071 -0.3735 -0.0223
  256MOL0     C34472  -0.507   8.240   8.563  0.1570  0.5805  0.6741
  256MOL0     O34473  -0.350   8.263   8.894 -0.3789  0.5253 -0.0560
  256MOL0     C34474  -0.069   8.409   8.730  0.2364  0.2910  0.4819
  256MOL0     C34475   0.069   8.413   8.739  1.0370 -0.0138 -0.1652
  256MOL0     N34476   0.600   8.755   8.975 -0.0750 -0.0112  0.3237
  256MOL0     N34477   0.604   8.859   9.066 -0.1852  0.1319 -0.6413
  256MOL0     C34478   1.401   9.286   9.948 -0.8587 -0.4429 -0.1925
  256MOL0     C34479   1.514   9.271  10.028  0.2048  0.6895 -0.2849
  256MOL0     C34480   1.927   9.213  10.168 -0.3384  0.1004  0.1022
  256MOL0     C34481   1.970   9.077  10.161  0.7752  0.3433 -0.5284
  256MOL0     C34482   2.095   9.045  10.203  0.0916 -0.6902 -0.1803
  256MOL0     C34483   2.187   9.142  10.237  1.1888  0.6760 -0.4067
  256MOL0     O34484   2.318   9.115  10.270  0.0327 -0.7408 -0.7183
  256MOL0     C34485   2.423   9.203  10.323  0.0195  0.2382  0.3332
  256MOL0     C34486   2.512   9.231  10.204  0.1975 -0.0810 -0.8552
  256MOL0     C34487   2.644   9.295  10.253  0.3519 -0.2520 -0.3161
  256MOL0     C34488   2.734   9.347  10.147 -1.2151 -0.2049  0.3336
  256MOL0     C34489   2.685   9.471  10.077  0.3503  0.4306  0.0246
  256MOL0     C34490   2.664   9.565   9.997 -0.2834  0.1750  0.2816
  256MOL0     C34491   2.144   9.277  10.242 -0.4222  0.7499 -0.3536
  256MOL0     C34492   2.018   9.309  10.218  0.6758 -0.1113  0.3649
  256MOL0     H34493   1.608   8.967   9.906 -3.6086 -1.6437  0.3446
  256MOL0     H34494   1.421   9.004   9.755 -1.6826  1.4397 -1.7562
  256MOL0     H34495   1.273   9.120   9.619 -0.1114 -1.0931  0.1157
  256MOL0     H34496   1.155   9.042   9.707  0.5802 -0.8082  1.1687
  256MOL0     H34497   1.006   9.265   9.673  0.3859  3.9185 -1.3499
  256MOL0     H34498   1.131   9.306   9.560 -3.4491  2.1549 -0.1237
  256MOL0     H34499   0.971   9.216   9.439  3.7982  2.3068  0.8960
  256MOL0     H34500   1.097   9.080   9.443 -0.1700 -2.0468  0.4668
  256MOL0     H34501   0.982   8.959   9.595  4.2435  2.0992 -0.8698
  256MOL0     H34502   0.843   9.072   9.590 -0.1999  1.5395  0.5019
  256MOL0     H34503   0.836   9.024   9.322  2.3287 -1.3715 -2.0349
  256MOL0     H34504   0.983   8.929   9.356  1.0292  0.6029  0.5326
  256MOL0     H34505   0.816   8.790   9.313  0.6941  3.6416 -1.9514
  256MOL0     H34506   0.833   8.775   9.492 -1.5258  1.0722  1.7271
  256MOL0     H34507   0.595   8.777   9.459 -2.4946  2.5925 -0.5078
  256MOL0     H34508   0.632   8.939   9.511 -0.5529 -0.3260 -0.0677
  256MOL0     H34509   0.626   9.010   9.284  3.4730 -0.9492  2.1732
  256MOL0     H34510   0.464   8.919   9.334 -0.0637  0.3447  0.3398
  256MOL0     H34511   0.548   8.616   9.274 -0.2792  0.9524 -0.5191
  256MOL0     H34512   0.649   8.518   8.902  1.6157 -0.0379  0.4017
  256MOL0     H34513   0.666   8.459   9.067 -0.8872 -0.1423 -0.2265
  256MOL0     H34514   0.399   8.516   8.940 -0.0897  0.2670 -0.8035
  256MOL0     H34515   0.427   8.419   9.094  0.3204  1.2838  0.1704
  256MOL0     H34516   0.543   8.254   8.984  1.6012  1.3029 -1.0970
  256MOL0     H34517   0.529   8.333   8.824  1.5973 -0.0764  1.1709
  256MOL0     H34518   0.304   8.229   8.989  0.2867 -1.2457 -0.2574
  256MOL0     H34519   0.369   8.149   8.848  0.2082  0.7169 -0.6913
  256MOL0     H34520   0.119   8.107   8.878 -0.3464 -1.2607 -2.0911
  256MOL0     H34521  -0.073   7.971   8.875 -0.3114 -0.0325  0.5167
  256MOL0     H34522  -0.193   8.067   8.962 -1.7848 -0.9012 -0.2594
  256MOL0     H34523  -0.214   8.026   8.792  0.1162  1.8735 -1.3562
  256MOL0     H34524  -0.571   8.491   8.780 -0.4374 -1.0232 -0.5438
  256MOL0     H34525  -0.799   8.443   8.704 -1.6577 -2.0364 -0.6459
  256MOL0     H34526  -0.995   8.318   8.687 -0.9560  2.2472  0.3727
  256MOL0     H34527  -0.950   8.437   8.567 -1.6239  0.7658 -1.2565
  256MOL0     H34528  -1.162   8.394   8.495 -2.4178 -2.0261 -0.1476
  256MOL0     H34529  -1.065   8.305   8.390  0.6677  1.9701  0.5750
  256MOL0     H34530  -1.182   8.173   8.640 -0.9276 -1.3893 -0.2398
  256MOL0     H34531  -1.132   8.091   8.495 -0.3584 -0.2566  1.4686
  256MOL0     H34532  -1.348   8.297   8.468  1.6312 -0.3789  2.7080
  256MOL0     H34533  -1.311   8.158   8.366 -2.1116  0.6472  0.4957
  256MOL0     H34534  -1.400   8.126   8.647 -1.5442 -0.4417  0.2164
  256MOL0     H34535  -1.366   7.996   8.544  0.7459 -0.1542  0.5477
  256MOL0     H34536  -1.571   8.216   8.490  0.0203  0.4499  2.8819
  256MOL0     H34537  -1.552   8.079   8.381  0.9529  0.9078 -0.2887
  256MOL0     H34538  -1.743   8.027   8.507 -1.0309 -1.1910  0.6814
  256MOL0     H34539  -1.691   8.074   8.660  0.2520  0.0836 -0.6588
  256MOL0     H34540  -1.516   7.906   8.664 -0.9094  2.1868  1.1450
  256MOL0     H34541  -1.552   7.864   8.502  4.0189  0.6036  1.3029
  256MOL0     H34542  -0.659   8.119   8.468 -0.1481  0.3659 -1.4239
  256MOL0     H34543  -0.416   8.188   8.532  0.2252  0.9596  0.2332
  256MOL0     H34544  -0.116   8.496   8.686  3.6922  0.8615 -2.6005
  256MOL0     H34545   0.122   8.502   8.707 -2.4997  1.7513 -1.5898
  256MOL0     H34546   1.340   9.373   9.972  1.7065  1.0541  1.3934
  256MOL0     H34547   1.526   9.335  10.115  0.1599  0.9242 -0.4505
  256MOL0     H34548   1.898   9.003  10.126  1.6969 -1.5212  1.3369
  256MOL0     H34549   2.126   8.943  10.226  1.0490 -0.0066  1.8258
  256MOL0     H34550   2.378   9.294  10.364 -1.6967  1.2766 -3.4672
  256MOL0     H34551   2.482   9.140  10.391  0.5873  0.0045 -0.3737
  256MOL0     H34552   2.464   9.289  10.125  1.4487 -2.2488 -3.3691
  256MOL0     H34553   2.524   9.133  10.158 -2.9908 -0.6712 -0.6986
  256MOL0     H34554   2.707   9.227  10.310  0.7533  0.0169 -0.4359
  256MOL0     H34555   2.632   9.385  10.314 -0.3058  0.4745 -1.4733
  256MOL0     H34556   2.753   9.273  10.069  3.6491  1.2404 -0.1317
  256MOL0     H34557   2.827   9.388  10.187 -1.3893  0.0222  0.5122
  256MOL0     H34558   2.646   9.644   9.927  1.8965  0.6987  0.2414
  256MOL0     H34559   2.218   9.354  10.264  3.2667 -2.9160  1.3420
  256MOL0     H34560   1.981   9.408  10.240  0.5826 -0.1815  0.5213
  257MOL0     O34561   5.164   3.846   6.221  0.8411 -0.4641  0.2039
  257MOL0     C34562   5.226   3.840   6.321 -0.2267  0.0980  0.3704
  257MOL0     O34563   5.174   3.839   6.445  0.6710 -0.9898 -0.9133
  257MOL0     C34564   5.051   3.902   6.465 -0.2770  0.2581 -0.0419
  257MOL0     C34565   4.930   3.843   6.434 -0.4938  0.6958 -0.9533
  257MOL0     C34566   4.811   3.901   6.481 -1.5616  0.1382  0.5004
  257MOL0     C34567   4.811   4.023   6.550 -0.2852 -0.4083  0.7802
  257MOL0     O34568   4.688   4.087   6.574  0.7347 -1.0958  0.5503
  257MOL0     C34569   4.678   4.189   6.683 -0.1290  1.0452  0.4966
  257MOL0     C34570   4.539   4.255   6.668 -0.1008  1.3624 -0.5606
  257MOL0     C34571   4.417   4.151   6.716  0.0523  0.0642  0.8842
  257MOL0     C34572   4.386   4.033   6.624  0.2845 -0.1115 -0.7300
  257MOL0     C34573   4.256   3.959   6.650  0.6917  0.4754 -0.1449
  257MOL0     C34574   4.138   4.046   6.588 -0.2670  0.9728 -0.1253
  257MOL0     C34575   4.007   3.961   6.584  0.4085  0.2234 -0.2601
  257MOL0     C34576   3.936   3.929   6.721  0.7618  0.3323  1.1625
  257MOL0     N34577   3.811   3.855   6.683 -0.6081 -0.8040  0.2891
  257MOL0     C34578   3.692   3.915   6.696 -0.4112  0.4208 -0.9718
  257MOL0     C34579   3.605   3.824   6.649  0.3819 -0.4826 -0.9655
  257MOL0     C34580   3.453   3.852   6.635  0.3458  0.2417 -0.9375
  257MOL0     C34581   3.422   3.893   6.494  0.1331 -0.5600  0.9403
  257MOL0     C34582   3.369   3.776   6.409  0.1276  0.1894  0.2904
  257MOL0     C34583   3.213   3.759   6.422  0.4327 -0.2295 -0.0497
  257MOL0     O34584   3.143   3.880   6.389  0.8062 -0.0688  0.2150
  257MOL0     C34585   3.010   3.869   6.358 -0.2335  0.1700 -0.5371
  257MOL0     C34586   2.951   3.795   6.256  0.2424  0.6752  0.6524
  257MOL0     C34587   2.810   3.806   6.226 -0.2708  0.1519 -0.8739
  257MOL0     C34588   2.744   3.706   6.138  0.2381  0.0532  0.0440
  257MOL0     C34589   2.724   3.875   6.310  0.6813 -0.2433  0.9677
  257MOL0     C34590   2.583   3.897   6.277  1.3590  0.1954 -0.3374
  257MOL0     O34591   2.503   3.926   6.384 -1.1316  1.1932  0.2786
  257MOL0     C34592   2.370   3.938   6.372 -0.2468  0.0158  0.2330
  257MOL0     C34593   2.299   3.845   6.442 -0.8426  0.0609  0.1840
  257MOL0     C34594   2.162   3.856   6.444 -0.3393  0.3981 -0.0300
  257MOL0     C34595   2.091   3.957   6.376 -0.2335  0.2702 -0.6932
  257MOL0     O34596   1.957   3.977   6.393  0.5392 -0.2876 -0.4735
  257MOL0     C34597   1.868   3.873   6.351  0.5568 -0.8329 -0.0132
  257MOL0     C34598   1.742   3.945   6.301  0.0561  0.3168 -0.6430
  257MOL0     C34599   1.628   3.845   6.330 -0.0053  0.1846  0.4096
  257MOL0     C34600   1.504   3.882   6.248 -0.3109  0.7809  0.0870
  257MOL0     C34601   1.398   3.773   6.272  0.0001 -0.9087  0.5612
  257MOL0     C34602   1.295   3.820   6.181  1.4064  0.3471  0.7626
  257MOL0     C34603   1.168   3.742   6.190  0.1518  0.4172  0.5661
  257MOL0     C34604   1.075   3.771   6.077 -0.0717  0.3252  0.0092
  257MOL0    Cl34605   0.923   3.680   6.116 -0.2007 -0.4145  0.1055
  257MOL0     C34606   2.169   4.058   6.315  0.4038  0.0864  1.7140
  257MOL0     C34607   2.312   4.048   6.305 -0.9285 -0.4067 -0.2358
  257MOL0     O34608   2.532   3.896   6.165  0.0881 -0.3976 -0.6027
  257MOL0     C34609   2.787   3.941   6.414 -0.4533  0.9137 -0.5963
  257MOL0     C34610   2.926   3.947   6.433  0.0740  0.0610 -0.8006
  257MOL0     N34611   3.683   3.715   6.602 -0.4793  0.0081  0.0936
  257MOL0     N34612   3.812   3.729   6.627  0.4380 -1.0348  0.6267
  257MOL0     C34613   4.935   4.079   6.578  0.1778 -0.1435 -1.0625
  257MOL0     C34614   5.050   4.021   6.535 -0.3623  0.0322  0.2287
  257MOL0     C34615   5.374   3.814   6.315 -0.2013  0.3548  1.1625
  257MOL0     C34616   5.458   3.838   6.199  1.0061  0.2457 -0.1233
  257MOL0     C34617   5.591   3.825   6.201 -0.1722  0.4629  0.6325
  257MOL0     C34618   5.653   3.771   6.315 -0.0084 -0.1647  0.2592
  257MOL0     O34619   5.789   3.751   6.309  0.5402 -1.1347  0.9963
  257MOL0     C34620   5.869   3.807   6.199 -0.0135  0.4544 -0.0230
  257MOL0     C34621   5.873   3.701   6.089 -0.3992 -0.1992 -0.0529
  257MOL0     C34622   5.980   3.592   6.108 -0.9068 -0.4368 -0.8802
  257MOL0     C34623   5.938   3.504   6.225 -0.6759 -0.3333  0.5769
  257MOL0     C34624   6.026   3.389   6.223 -0.9107 -0.0029 -0.4631
  257MOL0     C34625   6.094   3.289   6.217 -0.2323 -0.1723  0.6952
  257MOL0     C34626   5.574   3.728   6.423 -0.5472  0.8172 -0.7529
  257MOL0     C34627   5.434   3.759   6.431 -0.7158  0.5444  0.9247
  257MOL0     H34628   4.914   3.745   6.389  0.3172  0.5305 -0.9059
  257MOL0     H34629   4.719   3.848   6.457 -0.3759 -2.0759  0.6944
  257MOL0     H34630   4.691   4.139   6.779 -1.4149 -1.7469 -0.6466
  257MOL0     H34631   4.753   4.267   6.668  1.8651 -0.8489  0.2778
  257MOL0     H34632   4.542   4.347   6.727 -2.0629  1.9453 -1.2903
  257MOL0     H34633   4.537   4.300   6.568  1.9190  0.0405 -1.2629
  257MOL0     H34634   4.445   4.117   6.816  0.1353 -2.5503  0.0464
  257MOL0     H34635   4.330   4.214   6.739 -1.6974 -2.9190  3.2775
  257MOL0     H34636   4.387   4.073   6.522 -1.9433 -0.1070 -0.7986
  257MOL0     H34637   4.465   3.960   6.643  1.2689  1.1489  0.1853
  257MOL0     H34638   4.262   3.856   6.612 -1.7250  0.6935 -1.3692
  257MOL0     H34639   4.236   3.951   6.757 -0.4726  0.4842 -0.3463
  257MOL0     H34640   4.122   4.139   6.643 -0.2648  0.5009  0.6797
  257MOL0     H34641   4.162   4.080   6.486  2.5930  0.3086  0.2382
  257MOL0     H34642   3.936   4.015   6.521  0.8399  0.6823 -0.3568
  257MOL0     H34643   4.028   3.871   6.525 -3.1296 -0.1192 -1.1903
  257MOL0     H34644   3.909   4.019   6.776 -1.7200  0.6041 -0.3406
  257MOL0     H34645   4.002   3.859   6.774  0.1065 -1.8339 -0.6953
  257MOL0     H34646   3.683   4.018   6.728  4.5845  0.4183  1.3433
  257MOL0     H34647   3.402   3.761   6.667  2.9148 -1.4275 -1.2690
  257MOL0     H34648   3.438   3.929   6.712 -1.6783  2.1453 -3.0894
  257MOL0     H34649   3.511   3.936   6.448  2.3633 -3.5709  2.0708
  257MOL0     H34650   3.351   3.976   6.497 -0.6110 -1.0895 -0.6180
  257MOL0     H34651   3.425   3.686   6.436 -0.9990 -0.9083 -0.8889
  257MOL0     H34652   3.385   3.815   6.308 -1.8988  1.0104  0.2292
  257MOL0     H34653   3.190   3.730   6.525 -0.5589 -3.1390 -1.0116
  257MOL0     H34654   3.178   3.674   6.363 -1.0554  0.7605 -0.6607
  257MOL0     H34655   3.015   3.732   6.195 -2.3058  0.1855 -1.7242
  257MOL0     H34656   2.654   3.658   6.178 -0.2121  1.9730  1.5172
  257MOL0     H34657   2.711   3.759   6.049 -1.6052  0.7654  1.0987
  257MOL0     H34658   2.810   3.619   6.126 -0.4194 -0.7526  1.9261
  257MOL0     H34659   2.346   3.767   6.500  0.8280 -0.3865 -1.6576
  257MOL0     H34660   2.119   3.787   6.516  2.8088 -1.8580 -0.1048
  257MOL0     H34661   1.906   3.814   6.267 -0.0395 -2.2117  0.6520
  257MOL0     H34662   1.853   3.801   6.431 -1.0109 -0.6250 -0.0814
  257MOL0     H34663   1.729   4.032   6.366 -1.0791 -1.0408  1.0355
  257MOL0     H34664   1.765   3.973   6.198  1.6103 -0.3224 -0.5080
  257MOL0     H34665   1.608   3.845   6.437 -2.1383  0.0538  0.0516
  257MOL0     H34666   1.654   3.742   6.300  1.1702  1.0684 -1.8745
  257MOL0     H34667   1.463   3.977   6.281  1.1323  1.6561 -0.5536
  257MOL0     H34668   1.532   3.888   6.143  1.0500  1.8076  0.4854
  257MOL0     H34669   1.372   3.772   6.378  0.0285  3.1198  0.7374
  257MOL0     H34670   1.425   3.671   6.241 -0.9870 -1.9731  2.9775
  257MOL0     H34671   1.268   3.926   6.190  0.4001  0.2395 -0.7737
  257MOL0     H34672   1.340   3.816   6.081  0.3745 -2.2829  0.3284
  257MOL0     H34673   1.115   3.769   6.282  0.9404 -1.1278  1.5169
  257MOL0     H34674   1.188   3.635   6.190  0.8055  0.5248 -0.6010
  257MOL0     H34675   1.115   3.743   5.979 -3.3896 -2.4543 -0.7331
  257MOL0     H34676   1.058   3.879   6.071  0.5953  0.3441 -2.1660
  257MOL0     H34677   2.122   4.146   6.273  1.2743 -0.7693 -1.3972
  257MOL0     H34678   2.375   4.127   6.267 -1.0940 -0.9360 -1.6756
  257MOL0     H34679   2.723   4.000   6.478 -0.4226  0.5393 -0.2156
  257MOL0     H34680   2.957   4.016   6.512 -1.2202  0.4150 -0.5814
  257MOL0     H34681   4.939   4.181   6.616 -0.6689 -0.6146  0.3747
  257MOL0     H34682   5.139   4.073   6.566 -2.2607  2.3011  2.2708
  257MOL0     H34683   5.404   3.862   6.108  0.4186 -0.5117  0.0090
  257MOL0     H34684   5.630   3.848   6.102  0.4271 -0.6738  0.5818
  257MOL0     H34685   5.830   3.903   6.165  2.0162  2.0823  1.9008
  257MOL0     H34686   5.972   3.827   6.231 -0.2295 -0.5229  1.3803
  257MOL0     H34687   5.889   3.758   5.996 -0.0097  1.6559  1.1040
  257MOL0     H34688   5.774   3.658   6.075 -0.0076 -0.3737 -3.1179
  257MOL0     H34689   6.073   3.642   6.138 -2.6753  1.9788  1.1138
  257MOL0     H34690   5.990   3.534   6.016 -0.4761 -1.3095 -0.2999
  257MOL0     H34691   5.833   3.476   6.214 -0.4397 -1.3878  0.9119
  257MOL0     H34692   5.957   3.559   6.319 -0.6380 -2.4903  1.8950
  257MOL0     H34693   6.152   3.200   6.233 -0.2795 -0.2251  0.5719
  257MOL0     H34694   5.629   3.685   6.506  0.5187  1.4311 -1.1193
  257MOL0     H34695   5.375   3.744   6.522  0.6980 -1.8666  1.5171
  258MOL0     O34696   8.646   7.410   6.070  0.2813  0.2916 -0.7150
  258MOL0     C34697   8.692   7.490   5.997  0.4222  0.2177  0.6234
  258MOL0     O34698   8.631   7.605   5.949 -0.0516  0.1067 -0.3025
  258MOL0     C34699   8.507   7.660   5.984 -0.1823 -0.3830 -0.2318
  258MOL0     C34700   8.404   7.597   6.068 -0.6132  0.0764 -0.4805
  258MOL0     C34701   8.285   7.669   6.082  0.2523 -0.5617  0.4259
  258MOL0     C34702   8.249   7.796   6.024  0.3467  0.8270  0.4955
  258MOL0     O34703   8.130   7.841   6.061  0.4017 -0.6572 -0.3885
  258MOL0     C34704   8.050   7.901   5.960 -0.3097 -0.0067  0.0275
  258MOL0     C34705   7.908   7.891   6.001  0.8522  0.1237  0.0883
  258MOL0     C34706   7.861   7.752   6.027  0.8337 -0.3772 -0.8799
  258MOL0     C34707   7.710   7.750   6.062  0.0904  0.4308 -0.3351
  258MOL0     C34708   7.652   7.608   6.081 -0.0280 -0.6997 -0.1540
  258MOL0     C34709   7.543   7.605   6.203 -0.0572  0.4066  0.1156
  258MOL0     C34710   7.521   7.461   6.267  0.3325 -0.6204  0.3525
  258MOL0     C34711   7.466   7.365   6.159 -0.1326 -0.4095  0.0476
  258MOL0     N34712   7.474   7.226   6.196 -0.5900  0.2648  0.8555
  258MOL0     C34713   7.431   7.169   6.305  0.1416 -0.0299 -0.4098
  258MOL0     C34714   7.448   7.037   6.288  0.8387  0.5135 -0.0025
  258MOL0     C34715   7.416   6.929   6.379  0.4483  0.6516  0.5539
  258MOL0     C34716   7.322   6.968   6.497 -0.3035  0.1935  0.3595
  258MOL0     C34717   7.257   6.834   6.536 -0.0662  0.1145 -0.0907
  258MOL0     C34718   7.149   6.866   6.640 -0.0732  0.1331 -0.3972
  258MOL0     O34719   7.033   6.899   6.573 -0.4165 -0.0260 -0.0501
  258MOL0     C34720   6.939   6.971   6.636 -0.1058 -0.9684 -0.0001
  258MOL0     C34721   6.895   6.939   6.767 -0.1257  0.5196  0.6314
  258MOL0     C34722   6.768   6.995   6.811  0.0039 -0.2988  0.5823
  258MOL0     C34723   6.709   6.955   6.942  0.2036 -0.7859  0.0281
  258MOL0     C34724   6.699   7.094   6.727  0.0659  0.2150 -0.2026
  258MOL0     C34725   6.569   7.169   6.761 -0.3716  0.2985 -0.7487
  258MOL0     O34726   6.463   7.094   6.805 -0.7753  0.3687 -0.0098
  258MOL0     C34727   6.350   7.167   6.838  0.4354 -0.2770  0.1089
  258MOL0     C34728   6.280   7.234   6.737  0.9324  0.2460 -0.4459
  258MOL0     C34729   6.153   7.287   6.773  0.6409 -0.1607  0.3554
  258MOL0     C34730   6.113   7.294   6.909 -0.6245  1.2241  0.1679
  258MOL0     O34731   5.992   7.336   6.954 -0.4161 -0.2351 -0.0511
  258MOL0     C34732   5.914   7.424   6.863 -0.3670 -0.3109  0.4388
  258MOL0     C34733   5.784   7.483   6.931 -0.8156  0.2683  0.2161
  258MOL0     C34734   5.728   7.588   6.836 -0.6379  0.8704 -0.0817
  258MOL0     C34735   5.620   7.666   6.905 -0.7623  0.2470  0.1329
  258MOL0     C34736   5.540   7.746   6.802  0.2159 -0.0289  0.2056
  258MOL0     C34737   5.437   7.645   6.738 -0.0573  0.1614 -0.5739
  258MOL0     C34738   5.337   7.722   6.645 -0.4204  0.3410  0.0217
  258MOL0     C34739   5.210   7.650   6.610 -0.1335 -0.2646  0.3568
  258MOL0    Cl34740   5.137   7.721   6.460 -0.1238  0.1638 -0.4522
  258MOL0     C34741   6.197   7.246   7.010 -0.3225  0.1853 -0.4588
  258MOL0     C34742   6.314   7.177   6.975 -0.0517 -0.4541 -0.3795
  258MOL0     O34743   6.573   7.291   6.743  0.1994  0.1090  0.0730
  258MOL0     C34744   6.757   7.139   6.609 -0.2142 -0.1097  0.3807
  258MOL0     C34745   6.866   7.061   6.556  0.7622  0.1906 -0.5301
  258MOL0     N34746   7.509   7.018   6.169 -0.1827  0.9572 -0.3627
  258MOL0     N34747   7.520   7.127   6.111  0.0620  0.0735  0.4528
  258MOL0     C34748   8.347   7.847   5.943 -0.7105  0.0118 -0.1615
  258MOL0     C34749   8.476   7.787   5.929  0.9091  0.0009  0.2464
  258MOL0     C34750   8.821   7.475   5.930  0.2146 -0.0604  0.3451
  258MOL0     C34751   8.892   7.587   5.887 -0.4947 -0.0711 -0.3572
  258MOL0     C34752   9.023   7.580   5.841 -0.0089 -0.0355  0.2888
  258MOL0     C34753   9.089   7.454   5.846 -0.1036 -0.6729  0.6610
  258MOL0     O34754   9.214   7.456   5.799 -0.0915  0.1520  0.3321
  258MOL0     C34755   9.266   7.324   5.759 -1.0014 -0.6316  0.2184
  258MOL0     C34756   9.416   7.329   5.717  0.5100 -0.1001 -0.1699
  258MOL0     C34757   9.504   7.367   5.839  0.7172  0.0590 -0.2292
  258MOL0     C34758   9.628   7.446   5.799 -0.1987  0.0646 -0.7719
  258MOL0     C34759   9.709   7.380   5.708  0.2845 -0.0907  0.3746
  258MOL0     C34760   9.798   7.323   5.639  0.1424 -0.5008 -0.1264
  258MOL0     C34761   9.016   7.336   5.881 -1.3590  0.2010 -0.2244
  258MOL0     C34762   8.894   7.357   5.940 -0.1396 -0.4485 -0.3451
  258MOL0     H34763   8.413   7.508   6.128  0.3389 -2.0725 -3.5430
  258MOL0     H34764   8.208   7.630   6.147 -2.2561  0.3741 -1.7500
  258MOL0     H34765   8.072   8.006   5.938 -0.7776 -0.1056 -1.0077
  258MOL0     H34766   8.083   7.848   5.870  0.2002 -0.6188  0.5654
  258MOL0     H34767   7.888   7.957   6.086  1.5186 -0.8210  0.9946
  258MOL0     H34768   7.842   7.929   5.922 -2.9182 -0.5643  2.6201
  258MOL0     H34769   7.874   7.692   5.936  3.9308 -3.0975  1.1074
  258MOL0     H34770   7.912   7.703   6.110  2.2414  0.7447 -1.0480
  258MOL0     H34771   7.697   7.817   6.148  2.7122  0.0548  0.4294
  258MOL0     H34772   7.653   7.792   5.979  0.0386 -0.3406 -0.6952
  258MOL0     H34773   7.598   7.576   5.991  1.0276  0.8850 -1.4073
  258MOL0     H34774   7.734   7.537   6.099 -0.1912 -0.9197 -0.2794
  258MOL0     H34775   7.564   7.677   6.283 -3.5346  0.7900  0.8077
  258MOL0     H34776   7.449   7.646   6.166  0.3801 -1.0471 -2.8576
  258MOL0     H34777   7.611   7.426   6.317  0.4889  0.3675  0.7915
  258MOL0     H34778   7.433   7.474   6.330 -0.6043  0.2719 -1.0740
  258MOL0     H34779   7.527   7.385   6.070 -1.2262  1.1261 -0.3993
  258MOL0     H34780   7.363   7.390   6.133 -0.1329 -0.1907  0.2558
  258MOL0     H34781   7.398   7.222   6.393  4.7262 -2.0012  2.9035
  258MOL0     H34782   7.366   6.852   6.319  2.1255 -1.4422  1.7330
  258MOL0     H34783   7.500   6.867   6.412 -1.9835 -2.6111  1.0314
  258MOL0     H34784   7.253   7.045   6.461  1.2370  1.2852 -0.3943
  258MOL0     H34785   7.377   7.004   6.585  0.1781  2.5466 -0.8366
  258MOL0     H34786   7.321   6.766   6.592 -1.6011  0.9048  2.8298
  258MOL0     H34787   7.209   6.781   6.453  0.8554 -2.6595  1.0688
  258MOL0     H34788   7.165   6.945   6.714  0.3974  2.8222 -3.2119
  258MOL0     H34789   7.128   6.773   6.695 -0.3593 -1.4305 -2.9991
  258MOL0     H34790   6.955   6.879   6.835  0.8760  1.4729  0.6152
  258MOL0     H34791   6.636   6.873   6.936  0.1743 -0.7603  0.0327
  258MOL0     H34792   6.788   6.916   7.007  0.5167  0.3320  0.3305
  258MOL0     H34793   6.656   7.042   6.982  1.5737  0.7969 -1.4891
  258MOL0     H34794   6.310   7.225   6.633  0.2834  1.6381 -0.7870
  258MOL0     H34795   6.094   7.309   6.685  1.4701 -0.8996 -0.4146
  258MOL0     H34796   5.971   7.516   6.844 -1.9940  0.5473 -0.5705
  258MOL0     H34797   5.889   7.374   6.769  0.4326  0.9722 -0.4852
  258MOL0     H34798   5.712   7.405   6.957  0.4282 -1.1139 -0.3277
  258MOL0     H34799   5.830   7.535   7.015  0.2251 -2.2719  1.3140
  258MOL0     H34800   5.686   7.544   6.746 -1.7265  1.2959  0.2081
  258MOL0     H34801   5.806   7.651   6.792  0.8102 -1.3970 -0.9467
  258MOL0     H34802   5.555   7.597   6.959 -0.3339  0.3872  0.8335
  258MOL0     H34803   5.663   7.740   6.972  1.0784  1.1239 -1.8876
  258MOL0     H34804   5.608   7.780   6.724  0.5957 -1.4672 -0.1222
  258MOL0     H34805   5.492   7.826   6.861 -1.4167 -1.3497  0.7546
  258MOL0     H34806   5.492   7.566   6.686  2.9147  1.9486 -0.4130
  258MOL0     H34807   5.366   7.605   6.811  0.2702  3.1136  1.5530
  258MOL0     H34808   5.392   7.748   6.553 -0.6834 -2.2995 -0.9665
  258MOL0     H34809   5.297   7.810   6.695 -0.9046 -0.4906  1.1227
  258MOL0     H34810   5.136   7.646   6.691 -0.9943  0.0234 -0.3910
  258MOL0     H34811   5.250   7.552   6.583  0.7080 -0.1822  1.2874
  258MOL0     H34812   6.168   7.258   7.114 -2.6809  1.8591 -1.2367
  258MOL0     H34813   6.375   7.122   7.046  1.9056 -0.7548 -2.1953
  258MOL0     H34814   6.723   7.211   6.536  2.4369 -0.8686 -1.7680
  258MOL0     H34815   6.890   7.066   6.450 -0.7299 -0.5742 -0.9331
  258MOL0     H34816   8.336   7.938   5.885  1.3583  0.9723  0.8443
  258MOL0     H34817   8.549   7.843   5.871  0.3138  0.9951  0.4326
  258MOL0     H34818   8.847   7.685   5.896  2.2988  1.2427  0.5316
  258MOL0     H34819   9.079   7.671   5.824 -2.1594  1.0854 -1.1830
  258MOL0     H34820   9.259   7.251   5.841  0.5464 -2.1856 -0.9520
  258MOL0     H34821   9.198   7.287   5.681 -1.1727  1.8065 -0.8578
  258MOL0     H34822   9.421   7.411   5.645  1.9396 -0.0290 -0.0219
  258MOL0     H34823   9.442   7.234   5.670  4.1274  1.8914 -2.6975
  258MOL0     H34824   9.532   7.275   5.891  3.0247  0.5854 -0.4079
  258MOL0     H34825   9.448   7.423   5.914 -2.7418 -0.8192 -1.9699
  258MOL0     H34826   9.690   7.465   5.887  0.8175 -0.3178 -1.3983
  258MOL0     H34827   9.612   7.551   5.772 -0.2511  1.1453  2.8037
  258MOL0     H34828   9.868   7.276   5.574  0.3117 -0.8736  0.3183
  258MOL0     H34829   9.065   7.242   5.905 -1.1952  0.3667  0.1080
  258MOL0     H34830   8.855   7.260   5.969 -0.3979 -0.3830 -0.4643
  259MOL0     O34831   3.149   8.576   2.390 -0.3516  0.7249 -0.0351
  259MOL0     C34832   3.134   8.478   2.466  0.6582 -0.1494 -0.7770
  259MOL0     O34833   3.012   8.424   2.498  0.4787  0.3628 -0.1452
  259MOL0     C34834   2.907   8.511   2.480  0.2250  0.2562  0.5566
  259MOL0     C34835   2.876   8.607   2.581  0.7622  1.1604 -0.1333
  259MOL0     C34836   2.762   8.683   2.565  0.2645 -0.3032 -0.4996
  259MOL0     C34837   2.666   8.660   2.463 -0.0861 -0.0164  0.6889
  259MOL0     O34838   2.552   8.738   2.455 -0.3427  0.0802 -0.7586
  259MOL0     C34839   2.502   8.776   2.328  0.3298 -0.1078 -0.0304
  259MOL0     C34840   2.399   8.881   2.353 -0.4705  0.4121  0.5285
  259MOL0     C34841   2.310   8.862   2.469 -1.5080  0.2287  0.3319
  259MOL0     C34842   2.194   8.959   2.458 -0.2770 -0.6161 -1.0510
  259MOL0     C34843   2.118   8.948   2.607 -0.6336  0.0828  0.8265
  259MOL0     C34844   1.974   9.001   2.600 -0.4952 -0.8984  0.3803
  259MOL0     C34845   1.906   9.024   2.741  0.1289  0.5178  0.9293
  259MOL0     C34846   1.859   8.890   2.802  0.6019 -0.3050  0.1877
  259MOL0     N34847   1.728   8.836   2.750 -0.1337 -0.2952  1.1409
  259MOL0     C34848   1.626   8.916   2.704  0.6733 -0.6139 -1.4386
  259MOL0     C34849   1.523   8.834   2.691 -0.2975  0.2221  0.0435
  259MOL0     C34850   1.385   8.883   2.679  0.0090 -0.6610 -0.0035
  259MOL0     C34851   1.291   8.780   2.632  0.8226 -0.2320  0.0011
  259MOL0     C34852   1.141   8.823   2.649  0.4039 -0.0727  0.7801
  259MOL0     C34853   1.026   8.739   2.579 -0.6793  0.5381 -1.2278
  259MOL0     O34854   0.906   8.821   2.615  0.1145  0.4716 -0.3909
  259MOL0     C34855   0.781   8.765   2.601 -0.4349 -0.2551 -0.4078
  259MOL0     C34856   0.682   8.822   2.689 -0.5581  0.1878  0.2679
  259MOL0     C34857   0.544   8.775   2.675 -1.1854 -0.1483 -0.2903
  259MOL0     C34858   0.446   8.826   2.777  0.1356 -0.5823  0.2939
  259MOL0     C34859   0.507   8.691   2.564  0.5048  0.7922 -0.3289
  259MOL0     C34860   0.366   8.642   2.542  0.4349 -0.6896 -0.8588
  259MOL0     O34861   0.349   8.531   2.478 -0.1226  0.7184 -0.5415
  259MOL0     C34862   0.225   8.479   2.433 -0.1557 -0.1347  0.3857
  259MOL0     C34863   0.203   8.344   2.442  0.1565  0.1997 -0.5532
  259MOL0     C34864   0.082   8.289   2.390  0.3552  0.6057  0.6784
  259MOL0     C34865  -0.024   8.373   2.343 -0.3482  0.2700 -0.2260
  259MOL0     O34866  -0.143   8.323   2.290 -0.4978 -1.2220  0.2198
  259MOL0     C34867  -0.129   8.199   2.225  1.3946 -0.5406  0.8078
  259MOL0     C34868  -0.240   8.193   2.124 -0.3295 -0.4101 -1.0413
  259MOL0     C34869  -0.381   8.196   2.181 -0.2477  0.2270 -0.0146
  259MOL0     C34870  -0.498   8.165   2.088  0.4378  0.5757 -0.0485
  259MOL0     C34871  -0.627   8.151   2.171 -0.2083  0.8099  0.1364
  259MOL0     C34872  -0.754   8.130   2.076  0.1744  0.3611 -0.0842
  259MOL0     C34873  -0.887   8.122   2.156 -1.0157  0.0885  0.5308
  259MOL0     C34874  -1.002   8.080   2.064  0.1925  0.5470  0.0104
  259MOL0    Cl34875  -0.995   7.903   2.018 -0.2612 -0.1724 -0.0534
  259MOL0     C34876   0.001   8.512   2.345 -0.7258 -0.0238  0.1397
  259MOL0     C34877   0.124   8.562   2.384 -0.8001 -0.4095 -0.5263
  259MOL0     O34878   0.275   8.703   2.584  0.0147  0.2019  0.2337
  259MOL0     C34879   0.613   8.628   2.492 -0.8011 -0.1754 -0.6933
  259MOL0     C34880   0.748   8.662   2.520 -0.5351  0.2229  0.8403
  259MOL0     N34881   1.563   8.712   2.728  0.5480  0.7416 -0.5167
  259MOL0     N34882   1.685   8.708   2.754 -0.5357 -0.1221  0.0926
  259MOL0     C34883   2.698   8.562   2.360 -1.1709 -0.3251 -0.1037
  259MOL0     C34884   2.815   8.487   2.372  0.4731  0.2784 -0.2079
  259MOL0     C34885   3.262   8.418   2.507 -0.2677 -0.2769 -1.0512
  259MOL0     C34886   3.278   8.288   2.551 -0.5757 -0.3147 -0.2022
  259MOL0     C34887   3.407   8.231   2.572 -0.4219  0.2964  1.4573
  259MOL0     C34888   3.526   8.308   2.554  0.2360 -0.1009 -0.0872
  259MOL0     O34889   3.653   8.262   2.563  0.1605 -0.0925 -0.4711
  259MOL0     C34890   3.675   8.117   2.583 -0.3406  0.2685  0.1080
  259MOL0     C34891   3.665   8.052   2.449  0.3952  0.9226  0.3248
  259MOL0     C34892   3.773   8.096   2.366  0.1263 -0.2273 -0.3181
  259MOL0     C34893   3.792   8.011   2.236  0.2456  0.3327 -0.3038
  259MOL0     C34894   3.666   7.999   2.153 -0.5096 -0.5232  0.5553
  259MOL0     C34895   3.565   7.994   2.085  0.1074 -0.7702  0.3810
  259MOL0     C34896   3.507   8.449   2.528  0.7188 -0.5628 -0.6092
  259MOL0     C34897   3.379   8.500   2.501  0.5258  0.1510  0.1470
  259MOL0     H34898   2.939   8.623   2.668 -0.4861 -1.1930  1.3138
  259MOL0     H34899   2.740   8.762   2.635  0.0689 -1.3808  0.6948
  259MOL0     H34900   2.569   8.820   2.254 -0.1125  2.9076  1.2431
  259MOL0     H34901   2.444   8.695   2.283  1.2342 -0.3287 -0.8301
  259MOL0     H34902   2.446   8.980   2.359 -1.3579  0.8227  0.9575
  259MOL0     H34903   2.340   8.891   2.262  0.8860  2.9008 -0.1781
  259MOL0     H34904   2.279   8.758   2.481  1.5465 -0.5264  3.3279
  259MOL0     H34905   2.381   8.876   2.552 -1.6973  1.1325  0.3539
  259MOL0     H34906   2.241   9.056   2.439 -3.5165  1.4780  0.7314
  259MOL0     H34907   2.110   8.957   2.388  0.2307  3.4916 -2.0330
  259MOL0     H34908   2.124   8.845   2.643  0.2773 -0.0423  0.3566
  259MOL0     H34909   2.174   9.010   2.678 -0.5211  0.8765  0.0637
  259MOL0     H34910   1.978   9.100   2.553 -1.7669 -0.4443  1.1838
  259MOL0     H34911   1.926   8.929   2.533  1.7852 -1.5196 -0.7066
  259MOL0     H34912   1.989   9.069   2.797  1.8581 -0.1334 -0.9637
  259MOL0     H34913   1.831   9.103   2.733 -1.3468 -1.0279 -3.2032
  259MOL0     H34914   1.834   8.907   2.907  0.7650  3.5410 -0.2742
  259MOL0     H34915   1.939   8.816   2.793  1.8611  1.1833 -1.3134
  259MOL0     H34916   1.626   9.019   2.670  3.9957 -1.0874 -3.4132
  259MOL0     H34917   1.352   8.918   2.777 -0.0650  0.3197 -0.3694
  259MOL0     H34918   1.383   8.969   2.611 -1.3869  0.2389  1.1173
  259MOL0     H34919   1.301   8.693   2.698  0.4819  0.4282  0.9425
  259MOL0     H34920   1.310   8.760   2.526  0.4914  1.5454 -0.4348
  259MOL0     H34921   1.136   8.925   2.610 -1.9899  0.3160  1.9504
  259MOL0     H34922   1.121   8.818   2.757  0.5375 -1.9404  0.7399
  259MOL0     H34923   1.015   8.638   2.621  0.8465  0.8676  0.0891
  259MOL0     H34924   1.043   8.729   2.472  3.1145 -1.3311 -0.6520
  259MOL0     H34925   0.718   8.899   2.757 -1.4334 -0.3561  1.3728
  259MOL0     H34926   0.389   8.907   2.730  0.3797 -0.0423  0.9141
  259MOL0     H34927   0.387   8.740   2.808  0.4252 -1.4047 -1.3029
  259MOL0     H34928   0.496   8.873   2.862 -2.0410  1.1193  0.7394
  259MOL0     H34929   0.286   8.279   2.465  0.5057 -0.2845 -2.9317
  259MOL0     H34930   0.076   8.180   2.393 -0.9138  0.5656 -1.3215
  259MOL0     H34931  -0.039   8.188   2.164  1.0936  2.2828 -0.2860
  259MOL0     H34932  -0.145   8.119   2.297 -0.5277 -0.0385  0.9895
  259MOL0     H34933  -0.226   8.277   2.056  1.2881  1.0591  0.9956
  259MOL0     H34934  -0.221   8.098   2.073  0.7065  0.1665 -1.7413
  259MOL0     H34935  -0.404   8.298   2.211  1.2582  0.5056  0.2738
  259MOL0     H34936  -0.387   8.129   2.268 -0.0517  2.2499  1.6379
  259MOL0     H34937  -0.511   8.248   2.017 -3.2033  1.2862  1.2408
  259MOL0     H34938  -0.486   8.069   2.037 -2.0700 -0.8445  1.8503
  259MOL0     H34939  -0.652   8.248   2.216 -0.8481  1.1944 -0.9946
  259MOL0     H34940  -0.621   8.073   2.246  1.8473  0.8551  0.0678
  259MOL0     H34941  -0.755   8.219   2.012 -2.2871  1.3007  1.1207
  259MOL0     H34942  -0.739   8.039   2.017 -0.6674 -1.9225  2.9598
  259MOL0     H34943  -0.911   8.217   2.205 -2.1651 -0.5158  1.2064
  259MOL0     H34944  -0.877   8.042   2.231 -0.1462 -1.1758 -0.8784
  259MOL0     H34945  -1.004   8.146   1.977 -1.2081 -0.2917 -0.6160
  259MOL0     H34946  -1.096   8.095   2.118 -2.8016 -0.3986 -4.4190
  259MOL0     H34947  -0.082   8.576   2.318 -2.0927 -1.0281  1.7609
  259MOL0     H34948   0.132   8.669   2.368  1.6549 -0.8521 -3.0089
  259MOL0     H34949   0.581   8.574   2.403 -0.8180  4.7059 -4.0323
  259MOL0     H34950   0.825   8.614   2.461 -0.8970 -0.8427  1.2183
  259MOL0     H34951   2.637   8.540   2.273  0.4972 -3.0159 -0.7015
  259MOL0     H34952   2.842   8.402   2.309 -2.7770 -1.1873  0.1639
  259MOL0     H34953   3.194   8.225   2.578  1.5346 -3.0304  0.4646
  259MOL0     H34954   3.396   8.129   2.607 -1.7979 -0.2674 -0.4635
  259MOL0     H34955   3.772   8.084   2.619 -1.6015 -2.9940  0.8541
  259MOL0     H34956   3.601   8.073   2.650 -1.2360 -0.7141 -1.4585
  259MOL0     H34957   3.569   8.075   2.401 -0.2948 -2.2441 -0.0293
  259MOL0     H34958   3.658   7.943   2.454  2.2008  0.7471 -0.2761
  259MOL0     H34959   3.871   8.103   2.415  1.0641 -0.3356 -2.0652
  259MOL0     H34960   3.758   8.197   2.328  1.7895  0.5256  0.8830
  259MOL0     H34961   3.840   7.914   2.252 -1.8497 -0.7088 -0.0591
  259MOL0     H34962   3.873   8.068   2.190  1.4963 -1.0185  0.1509
  259MOL0     H34963   3.474   7.993   2.029  1.6953 -0.8649 -2.3365
  259MOL0     H34964   3.585   8.524   2.526  0.8888 -0.6190  1.6520
  259MOL0     H34965   3.367   8.606   2.482  0.0925 -0.1548 -1.3892
  260MOL0     O34966   2.459   7.946   6.156  0.1418  0.1223 -0.3351
  260MOL0     C34967   2.538   7.876   6.091 -0.0718  0.4537  0.6010
  260MOL0     O34968   2.626   7.787   6.142 -0.2395 -0.0468  0.2020
  260MOL0     C34969   2.631   7.760   6.279 -0.4936  0.5181  0.5847
  260MOL0     C34970   2.636   7.861   6.380 -0.3413  0.6469  0.5831
  260MOL0     C34971   2.697   7.828   6.502  0.0188  0.0505 -0.4028
  260MOL0     C34972   2.730   7.701   6.536 -0.2560  0.9761  0.7987
  260MOL0     O34973   2.788   7.666   6.658  0.2580 -0.0305 -0.9221
  260MOL0     C34974   2.888   7.749   6.706 -0.2879  1.8308  0.6893
  260MOL0     C34975   2.975   7.674   6.801  0.6996  0.1324 -0.4917
  260MOL0     C34976   2.917   7.672   6.939  0.2853 -0.2411  0.0440
  260MOL0     C34977   2.911   7.528   6.987 -0.4438 -0.0196  0.9834
  260MOL0     C34978   2.795   7.514   7.097 -0.3139  0.5685 -0.7556
  260MOL0     C34979   2.779   7.379   7.171  0.9585  0.3545 -0.1922
  260MOL0     C34980   2.635   7.344   7.213 -0.5462  0.3297  0.3919
  260MOL0     C34981   2.648   7.219   7.303  0.1520  0.2374 -0.3937
  260MOL0     N34982   2.665   7.105   7.210  0.2865  0.0689  0.1535
  260MOL0     C34983   2.583   7.050   7.118 -0.3323  0.1860  0.0113
  260MOL0     C34984   2.638   6.932   7.087 -0.2661  0.0604  0.0337
  260MOL0     C34985   2.598   6.826   6.986 -0.2322 -0.2420  0.1870
  260MOL0     C34986   2.474   6.745   7.036  0.1848 -0.3607 -0.1837
  260MOL0     C34987   2.457   6.705   7.175  0.1650 -0.0258 -0.1340
  260MOL0     C34988   2.559   6.589   7.210  0.9440  0.1381  0.2374
  260MOL0     O34989   2.511   6.463   7.148  0.0625  0.2746 -0.5630
  260MOL0     C34990   2.396   6.407   7.186 -0.4626 -0.1566  0.2719
  260MOL0     C34991   2.332   6.443   7.309  0.2366  0.0426  0.4522
  260MOL0     C34992   2.214   6.382   7.359 -0.2663  0.1102  0.2168
  260MOL0     C34993   2.164   6.434   7.496 -0.3326 -0.8390  0.3882
  260MOL0     C34994   2.153   6.282   7.270 -0.5373 -0.1511  0.0139
  260MOL0     C34995   2.033   6.216   7.288 -0.0896  0.0776 -0.0207
  260MOL0     O34996   1.931   6.300   7.321  0.6616 -0.5804 -0.4437
  260MOL0     C34997   1.804   6.249   7.321  0.6110 -0.5652 -0.0292
  260MOL0     C34998   1.734   6.251   7.437  0.2059  0.3808 -0.1993
  260MOL0     C34999   1.604   6.205   7.439  0.2538  0.3272 -0.7335
  260MOL0     C35000   1.546   6.150   7.327 -0.8797 -0.5078  0.2679
  260MOL0     O35001   1.420   6.101   7.328  0.0163  1.0090 -0.3283
  260MOL0     C35002   1.416   5.975   7.398 -0.1124 -0.6217 -0.0878
  260MOL0     C35003   1.374   5.982   7.545 -0.4951  0.1311  0.0199
  260MOL0     C35004   1.229   6.036   7.574 -0.3852 -0.2660 -0.3907
  260MOL0     C35005   1.214   6.185   7.577  0.6247  0.8159  0.1119
  260MOL0     C35006   1.079   6.246   7.530  0.4942  0.2400  1.1301
  260MOL0     C35007   0.973   6.228   7.643  0.4070  0.0809 -0.0621
  260MOL0     C35008   0.845   6.276   7.582 -0.0547  0.4246  0.2691
  260MOL0     C35009   0.719   6.223   7.671 -0.6581  0.7954 -0.2689
  260MOL0    Cl35010   0.582   6.316   7.620 -0.2382  0.0077 -0.0132
  260MOL0     C35011   1.620   6.147   7.204 -0.0224  0.4552 -0.1017
  260MOL0     C35012   1.749   6.199   7.206  0.0849  0.7177 -1.0336
  260MOL0     O35013   2.021   6.096   7.271 -0.3772 -0.3037  0.3890
  260MOL0     C35014   2.225   6.246   7.156  0.2940 -0.1113 -0.2276
  260MOL0     C35015   2.339   6.307   7.112  0.1771 -0.2890 -0.3974
  260MOL0     N35016   2.761   6.926   7.147 -0.0304  0.1066 -0.5814
  260MOL0     N35017   2.778   7.022   7.225 -0.1569  0.1926  0.7466
  260MOL0     C35018   2.720   7.604   6.444  0.3450 -0.0342  0.0435
  260MOL0     C35019   2.663   7.628   6.311  0.0959  0.4371  0.5053
  260MOL0     C35020   2.519   7.871   5.946 -0.0172  0.3035 -0.8101
  260MOL0     C35021   2.401   7.917   5.888 -0.3676  0.1017  0.2899
  260MOL0     C35022   2.388   7.929   5.747 -0.3957 -0.2025  0.2401
  260MOL0     C35023   2.487   7.887   5.653  0.4317 -0.9792  0.0023
  260MOL0     O35024   2.494   7.909   5.517 -0.3032 -0.0321 -0.4531
  260MOL0     C35025   2.402   7.983   5.449  0.6228  1.1441  0.0937
  260MOL0     C35026   2.459   8.035   5.309  0.4716  0.2956 -0.2711
  260MOL0     C35027   2.458   7.918   5.210 -0.0576 -1.2240  0.9305
  260MOL0     C35028   2.478   7.965   5.059 -0.0452 -0.3935 -0.9572
  260MOL0     C35029   2.614   8.013   5.046 -0.0212 -0.1588  0.0375
  260MOL0     C35030   2.723   8.042   5.019  0.1176 -0.0326 -0.1205
  260MOL0     C35031   2.586   7.801   5.715 -0.6366 -0.0821 -0.2541
  260MOL0     C35032   2.605   7.797   5.856  0.4567 -0.4834  1.3005
  260MOL0     H35033   2.605   7.962   6.354 -2.6986 -0.1775 -0.0884
  260MOL0     H35034   2.710   7.905   6.578  0.5810 -0.8763  0.4614
  260MOL0     H35035   2.950   7.778   6.621  0.5318 -0.3656  0.4602
  260MOL0     H35036   2.858   7.843   6.753  1.1316  0.5584  4.6123
  260MOL0     H35037   3.000   7.577   6.757  1.2640  0.4024 -0.7774
  260MOL0     H35038   3.066   7.733   6.811  0.1439  0.6422  2.3699
  260MOL0     H35039   2.985   7.725   7.006 -0.6764  1.5497 -0.3588
  260MOL0     H35040   2.822   7.724   6.937  0.5812  0.3956  1.4920
  260MOL0     H35041   2.871   7.469   6.904 -1.1072  2.2872 -0.4041
  260MOL0     H35042   3.007   7.485   7.018  1.0041  0.0196 -2.8728
  260MOL0     H35043   2.808   7.583   7.181  0.4552  0.2781 -0.6351
  260MOL0     H35044   2.701   7.529   7.043 -0.4581  0.0758 -0.6429
  260MOL0     H35045   2.822   7.305   7.103  0.3229  0.0589 -0.2853
  260MOL0     H35046   2.841   7.382   7.261 -0.4835 -1.0138  0.9089
  260MOL0     H35047   2.603   7.432   7.269  4.8839  1.6819  1.9663
  260MOL0     H35048   2.563   7.332   7.132  0.3614  1.4703 -0.6335
  260MOL0     H35049   2.558   7.216   7.366  0.2304 -0.9023 -0.3133
  260MOL0     H35050   2.731   7.215   7.374 -0.5395 -0.1033  0.4112
  260MOL0     H35051   2.492   7.093   7.077  1.2259  2.8975 -0.8442
  260MOL0     H35052   2.575   6.876   6.891 -2.2007  0.3002  0.9011
  260MOL0     H35053   2.685   6.762   6.969 -1.6843 -2.1206 -0.6075
  260MOL0     H35054   2.468   6.653   6.978 -2.6957 -1.3407  1.4782
  260MOL0     H35055   2.386   6.803   7.008 -0.7702 -0.7928  1.7511
  260MOL0     H35056   2.353   6.675   7.193 -0.2897  1.6826  0.3554
  260MOL0     H35057   2.470   6.791   7.242  0.0211  0.0014 -0.1391
  260MOL0     H35058   2.579   6.575   7.317  1.4314 -1.5689 -0.0379
  260MOL0     H35059   2.657   6.608   7.166  1.7070 -1.8312  0.9444
  260MOL0     H35060   2.381   6.515   7.374 -0.4960 -0.2865  1.3995
  260MOL0     H35061   2.055   6.426   7.503 -0.2749 -0.4579  1.9189
  260MOL0     H35062   2.213   6.377   7.575 -0.9277 -0.7642  0.8129
  260MOL0     H35063   2.183   6.541   7.503 -0.7992 -0.8480  2.3283
  260MOL0     H35064   1.780   6.307   7.518  1.2488 -0.9709  0.1741
  260MOL0     H35065   1.546   6.215   7.531  2.0162  0.0025  0.4751
  260MOL0     H35066   1.349   5.907   7.345  0.5053 -1.5568  0.3062
  260MOL0     H35067   1.511   5.920   7.391  0.0975 -0.1882 -0.6658
  260MOL0     H35068   1.367   5.876   7.572  1.6353  0.2789  1.4292
  260MOL0     H35069   1.453   6.031   7.602 -2.0626 -0.1265  2.5634
  260MOL0     H35070   1.212   5.990   7.672  1.2193 -1.0216 -0.4468
  260MOL0     H35071   1.162   5.987   7.502  0.3539 -2.9956  0.6605
  260MOL0     H35072   1.245   6.225   7.674  2.0575  0.3229 -0.1165
  260MOL0     H35073   1.281   6.226   7.501 -1.6179 -1.4231 -3.3595
  260MOL0     H35074   1.056   6.187   7.442 -3.9016  1.4701  1.2346
  260MOL0     H35075   1.105   6.350   7.505  0.4962  0.2056  0.9920
  260MOL0     H35076   0.964   6.121   7.664 -1.1527  0.0937 -0.5668
  260MOL0     H35077   0.992   6.286   7.734 -2.0027  0.2911  0.3825
  260MOL0     H35078   0.822   6.245   7.479 -0.4985 -0.1158  0.5284
  260MOL0     H35079   0.851   6.385   7.581 -0.1650  0.4464 -1.7011
  260MOL0     H35080   0.735   6.246   7.777 -3.2234  3.1679 -0.2760
  260MOL0     H35081   0.705   6.115   7.671 -0.9375  0.7606 -2.8164
  260MOL0     H35082   1.566   6.108   7.119  2.4656 -2.6984 -0.3924
  260MOL0     H35083   1.805   6.184   7.115  0.5001 -0.2486 -0.6374
  260MOL0     H35084   2.197   6.169   7.085 -1.7774  0.7691 -0.4387
  260MOL0     H35085   2.398   6.270   7.028  2.2111  0.6029  0.5586
  260MOL0     H35086   2.763   7.509   6.472 -1.1940 -1.0226 -0.7908
  260MOL0     H35087   2.668   7.546   6.240 -0.0361  0.1897  0.7821
  260MOL0     H35088   2.332   7.957   5.962 -1.3618 -1.7328  0.4219
  260MOL0     H35089   2.313   7.999   5.713  1.3324  1.5729 -0.1119
  260MOL0     H35090   2.315   7.917   5.445 -1.0119  3.2135 -0.7081
  260MOL0     H35091   2.365   8.068   5.508 -4.6920  0.4136 -1.7096
  260MOL0     H35092   2.564   8.057   5.331  0.5885  1.6656 -1.9975
  260MOL0     H35093   2.407   8.124   5.271  1.5105  0.8854 -0.3502
  260MOL0     H35094   2.366   7.859   5.207 -1.1764  0.4034  1.6459
  260MOL0     H35095   2.531   7.843   5.242 -0.2911 -1.0507  1.8942
  260MOL0     H35096   2.403   8.039   5.028  1.7557  1.9523  0.0189
  260MOL0     H35097   2.463   7.869   5.008 -1.5524 -1.0115  0.5500
  260MOL0     H35098   2.822   8.061   4.984 -0.1931  0.0772 -0.9681
  260MOL0     H35099   2.657   7.750   5.651  0.3660  0.0516  0.7351
  260MOL0     H35100   2.692   7.756   5.906  0.9227  0.6658  1.4428
  261MOL0     O35101   1.105   1.923   6.877 -0.2432  1.1740  0.0104
  261MOL0     C35102   1.215   1.876   6.914  0.1842 -0.5849  1.0499
  261MOL0     O35103   1.300   1.792   6.839  0.5260 -0.0095  0.6995
  261MOL0     C35104   1.259   1.716   6.728 -0.1686 -0.2525 -0.6564
  261MOL0     C35105   1.368   1.668   6.648  0.5417  0.5482 -0.0224
  261MOL0     C35106   1.338   1.605   6.520 -0.3082  0.6779 -0.0732
  261MOL0     C35107   1.200   1.578   6.487 -0.8526  0.2432 -0.9245
  261MOL0     O35108   1.160   1.519   6.367  0.0742  0.3965  0.2647
  261MOL0     C35109   1.231   1.533   6.241 -0.2367  0.2595  0.5477
  261MOL0     C35110   1.268   1.678   6.218  0.6563  0.2124 -0.0733
  261MOL0     C35111   1.145   1.763   6.191  0.5655 -1.0153  0.5422
  261MOL0     C35112   1.174   1.901   6.133  0.3060  0.6225 -0.5255
  261MOL0     C35113   1.050   1.984   6.103  0.1897 -0.0815 -1.0461
  261MOL0     C35114   1.080   2.134   6.076  0.1146  0.9271 -0.4353
  261MOL0     C35115   0.956   2.220   6.043  0.1956 -0.0270 -0.5054
  261MOL0     C35116   0.857   2.226   6.165 -0.3855  0.5060  0.2648
  261MOL0     N35117   0.732   2.156   6.115  0.6038  0.0869 -0.2696
  261MOL0     C35118   0.682   2.031   6.160 -0.1019 -0.4978 -0.7646
  261MOL0     C35119   0.595   1.994   6.066  0.5544 -0.1363  0.4293
  261MOL0     C35120   0.523   1.860   6.060  0.2405  0.0162 -0.4026
  261MOL0     C35121   0.406   1.841   6.161  0.0292 -0.5158  1.0284
  261MOL0     C35122   0.344   1.700   6.158  0.3251 -0.0133 -0.0450
  261MOL0     C35123   0.282   1.657   6.030  0.1365  0.0196 -0.0559
  261MOL0     O35124   0.240   1.527   6.060 -0.3464  0.2454  0.8153
  261MOL0     C35125   0.161   1.457   5.969  1.1220 -0.0063  0.5687
  261MOL0     C35126   0.154   1.314   5.972  0.4383 -0.0976  0.4029
  261MOL0     C35127   0.081   1.240   5.884 -0.1009  0.0637 -0.4537
  261MOL0     C35128   0.093   1.083   5.900 -0.4622 -0.4043  0.8924
  261MOL0     C35129  -0.003   1.315   5.788 -0.5879  0.9728  0.2143
  261MOL0     C35130  -0.086   1.246   5.687 -0.0351  0.1260 -0.9832
  261MOL0     O35131  -0.180   1.321   5.622  0.2169  0.2046  0.0199
  261MOL0     C35132  -0.207   1.310   5.488 -0.6311 -0.2642 -0.9061
  261MOL0     C35133  -0.111   1.261   5.399 -0.2743  0.1512  0.4704
  261MOL0     C35134  -0.130   1.252   5.260 -0.3465  0.4855  0.3468
  261MOL0     C35135  -0.255   1.296   5.212  0.4467 -1.0780  0.2195
  261MOL0     O35136  -0.296   1.301   5.079 -0.0973 -0.2806 -0.0300
  261MOL0     C35137  -0.209   1.248   4.983 -0.1020  0.3511  0.0368
  261MOL0     C35138  -0.287   1.260   4.847  0.0265  1.0654  0.3769
  261MOL0     C35139  -0.353   1.126   4.812  0.7785 -0.4225  0.0724
  261MOL0     C35140  -0.424   1.130   4.678  0.6561 -0.0489  1.3592
  261MOL0     C35141  -0.494   0.991   4.651 -0.0866 -0.0269 -0.1442
  261MOL0     C35142  -0.599   1.015   4.540 -1.0878 -0.4617  0.6605
  261MOL0     C35143  -0.671   0.881   4.500 -0.1365  0.1690  0.0585
  261MOL0     C35144  -0.772   0.824   4.602  0.6051 -0.1750 -0.3648
  261MOL0    Cl35145  -0.845   0.674   4.553  0.3199 -0.0426  0.3139
  261MOL0     C35146  -0.357   1.336   5.302 -0.7553  0.5198  0.7606
  261MOL0     C35147  -0.336   1.337   5.443 -0.2848 -0.1602  0.2682
  261MOL0     O35148  -0.080   1.123   5.680  0.1597 -0.2909  0.8367
  261MOL0     C35149   0.003   1.452   5.783 -0.5200 -0.9377 -0.2414
  261MOL0     C35150   0.079   1.521   5.873  0.3424 -1.3989 -1.2372
  261MOL0     N35151   0.575   2.098   5.973 -0.3404  0.2336 -0.4181
  261MOL0     N35152   0.651   2.191   6.004 -0.2164 -0.2904 -0.3132
  261MOL0     C35153   1.101   1.615   6.581 -0.0342  0.5514 -0.0012
  261MOL0     C35154   1.126   1.682   6.700  0.7725 -0.4996  0.7572
  261MOL0     C35155   1.261   1.920   7.051  1.1346  0.6760 -0.3877
  261MOL0     C35156   1.385   1.879   7.104  0.1768  0.3788 -0.1815
  261MOL0     C35157   1.437   1.926   7.221 -0.0265 -0.5608 -0.7242
  261MOL0     C35158   1.362   2.011   7.305 -0.2601  0.1575 -0.1494
  261MOL0     O35159   1.430   2.065   7.412  0.4626  0.2805 -0.3089
  261MOL0     C35160   1.376   2.186   7.474  0.2316  0.4674  0.7018
  261MOL0     C35161   1.457   2.221   7.594 -0.0655 -0.6466  0.7063
  261MOL0     C35162   1.588   2.300   7.564  0.2799 -0.0992  0.0303
  261MOL0     C35163   1.696   2.218   7.497 -0.1327  1.2295  0.3341
  261MOL0     C35164   1.747   2.103   7.572 -0.6913 -0.5427 -0.3129
  261MOL0     C35165   1.790   2.019   7.644 -0.0648 -0.1724 -0.0173
  261MOL0     C35166   1.235   2.035   7.267 -1.2939  0.4674  0.9082
  261MOL0     C35167   1.176   1.988   7.146 -0.1424  0.0238  0.6281
  261MOL0     H35168   1.466   1.699   6.684 -0.0580 -1.1329  3.4604
  261MOL0     H35169   1.422   1.579   6.457  0.3589 -1.6854  1.6274
  261MOL0     H35170   1.318   1.467   6.243 -1.1655 -1.1954 -2.2625
  261MOL0     H35171   1.174   1.487   6.160 -1.2865 -0.7118  1.7973
  261MOL0     H35172   1.337   1.728   6.285  0.7741  1.4933 -1.1083
  261MOL0     H35173   1.325   1.671   6.125  1.1847  1.8325  0.1023
  261MOL0     H35174   1.090   1.706   6.116  1.2447 -0.2123 -0.5894
  261MOL0     H35175   1.087   1.779   6.282  3.4924 -0.7007  2.4830
  261MOL0     H35176   1.241   1.953   6.202  1.5130 -0.3743 -0.8990
  261MOL0     H35177   1.226   1.883   6.038  1.4942  0.0193  0.2074
  261MOL0     H35178   0.996   1.935   6.021 -1.7483 -0.3670  0.3198
  261MOL0     H35179   0.981   1.984   6.188  0.9206 -0.1322 -0.4420
  261MOL0     H35180   1.126   2.181   6.164  0.3484  2.1556 -1.1894
  261MOL0     H35181   1.146   2.141   5.989 -1.2816 -2.9256 -2.0059
  261MOL0     H35182   0.991   2.313   5.997 -0.1756  0.0677 -0.5973
  261MOL0     H35183   0.899   2.177   5.961 -0.8863 -0.9325  0.6870
  261MOL0     H35184   0.832   2.331   6.181 -2.9201  0.4352 -2.3227
  261MOL0     H35185   0.902   2.183   6.254  1.3087 -0.2581 -0.9099
  261MOL0     H35186   0.729   1.971   6.237  4.1628  0.7637 -2.1231
  261MOL0     H35187   0.485   1.845   5.959 -0.0512  1.4381 -0.5177
  261MOL0     H35188   0.592   1.777   6.083 -0.8042 -0.5429  0.8489
  261MOL0     H35189   0.335   1.921   6.139 -1.2151 -2.1378 -1.4080
  261MOL0     H35190   0.446   1.872   6.258  0.1531  2.2907  0.1615
  261MOL0     H35191   0.274   1.693   6.242  1.9622 -1.9867  1.2452
  261MOL0     H35192   0.421   1.633   6.197  1.2358  0.2258 -1.3569
  261MOL0     H35193   0.341   1.671   5.939 -1.2975  5.1034 -0.5111
  261MOL0     H35194   0.194   1.721   6.032  1.5508  2.0687 -0.5733
  261MOL0     H35195   0.221   1.267   6.044  1.2270 -0.5076 -0.5810
  261MOL0     H35196   0.153   1.047   5.984 -0.5373  3.4542  2.7746
  261MOL0     H35197   0.005   1.019   5.889 -0.1401 -0.5220 -1.6182
  261MOL0     H35198   0.156   1.061   5.813 -0.7044  2.9467 -0.2524
  261MOL0     H35199  -0.013   1.231   5.437 -0.6239 -0.4205  0.9464
  261MOL0     H35200  -0.051   1.205   5.202  1.0122  0.0136  2.4755
  261MOL0     H35201  -0.117   1.306   4.981 -0.2593  0.6541  0.9548
  261MOL0     H35202  -0.183   1.144   5.007 -1.0750 -0.0734 -0.6927
  261MOL0     H35203  -0.358   1.342   4.851  2.0380  2.9262  0.0484
  261MOL0     H35204  -0.223   1.300   4.768 -1.5504  4.9787  0.8846
  261MOL0     H35205  -0.414   1.088   4.895  0.8841 -1.4661 -0.3226
  261MOL0     H35206  -0.277   1.050   4.792  0.7051  0.1378 -2.6289
  261MOL0     H35207  -0.496   1.212   4.677  0.3254 -0.3285 -0.0960
  261MOL0     H35208  -0.354   1.150   4.596 -1.5820 -0.0228 -0.6856
  261MOL0     H35209  -0.543   0.971   4.747 -1.1191 -1.9914 -1.0075
  261MOL0     H35210  -0.422   0.909   4.640 -1.1584 -0.8283 -1.5631
  261MOL0     H35211  -0.679   1.084   4.569 -1.1869  0.0106 -0.6461
  261MOL0     H35212  -0.549   1.066   4.457 -0.0589  1.9086  2.6231
  261MOL0     H35213  -0.601   0.800   4.477 -1.5451 -1.1992  0.4192
  261MOL0     H35214  -0.712   0.906   4.402  4.3981 -2.9751 -3.0398
  261MOL0     H35215  -0.855   0.894   4.607  1.6896  1.1495 -0.2756
  261MOL0     H35216  -0.734   0.819   4.705  0.1818 -0.2782 -0.2155
  261MOL0     H35217  -0.453   1.368   5.264  0.4741  3.9681  0.1453
  261MOL0     H35218  -0.409   1.357   5.521  0.6378 -2.4996  1.8302
  261MOL0     H35219  -0.034   1.514   5.702 -0.2700 -1.5407 -0.8270
  261MOL0     H35220   0.078   1.628   5.860  2.5132 -1.2046 -0.2229
  261MOL0     H35221   0.998   1.604   6.548  0.9358  0.4127 -3.3793
  261MOL0     H35222   1.042   1.719   6.757 -0.5162 -2.5495  0.3028
  261MOL0     H35223   1.455   1.819   7.047  1.6222  0.6854  1.1927
  261MOL0     H35224   1.532   1.880   7.247 -0.6632 -0.7228  1.5560
  261MOL0     H35225   1.371   2.267   7.401 -1.4761 -0.2107  0.0218
  261MOL0     H35226   1.275   2.161   7.509 -0.3260  0.5869 -0.7636
  261MOL0     H35227   1.478   2.128   7.649 -1.5718 -0.5377  1.5227
  261MOL0     H35228   1.392   2.284   7.655 -0.8886 -0.9793  0.1907
  261MOL0     H35229   1.621   2.339   7.660 -0.0885 -0.0802  0.1479
  261MOL0     H35230   1.564   2.390   7.506  2.0795  0.5018  0.1719
  261MOL0     H35231   1.779   2.284   7.470 -0.7039  1.8349  0.0380
  261MOL0     H35232   1.660   2.174   7.403 -3.1151 -1.1004  2.4057
  261MOL0     H35233   1.820   1.939   7.708 -2.7317 -0.8638  0.4828
  261MOL0     H35234   1.169   2.095   7.328  0.8716  1.2494  2.6214
  261MOL0     H35235   1.070   2.010   7.137  0.1733  1.3426 -0.0969
  262MOL0     O35236   5.170   7.925  10.269 -0.3232 -0.0600 -0.6912
  262MOL0     C35237   5.163   8.010  10.185 -1.0752  0.2112 -0.5387
  262MOL0     O35238   5.057   8.075  10.139 -0.4067  0.3877 -0.1117
  262MOL0     C35239   4.953   8.068  10.221  0.3995 -0.3248  0.1199
  262MOL0     C35240   4.823   8.048  10.167 -0.3476  0.6368 -0.3617
  262MOL0     C35241   4.713   8.047  10.250  0.6388 -1.5581  0.4409
  262MOL0     C35242   4.716   8.080  10.383  0.1018 -0.0957 -0.3561
  262MOL0     O35243   4.596   8.076  10.454  0.5677 -0.5562  0.2579
  262MOL0     C35244   4.578   8.156  10.582 -0.3587  0.1293  0.8208
  262MOL0     C35245   4.492   8.060  10.660 -0.6650  0.7799  0.3768
  262MOL0     C35246   4.345   8.060  10.630  0.4927 -0.5114  0.2560
  262MOL0     C35247   4.286   7.925  10.674 -0.1122 -0.6447  0.4408
  262MOL0     C35248   4.135   7.936  10.685 -0.1753  0.8535 -0.1761
  262MOL0     C35249   4.066   7.992  10.564  0.4328 -0.7260 -0.4919
  262MOL0     C35250   3.912   7.954  10.567 -0.4094 -0.0037 -0.5404
  262MOL0     C35251   3.832   8.030  10.678 -0.5778 -0.2825  0.3096
  262MOL0     N35252   3.688   7.999  10.667  0.2998  0.0218  0.0049
  262MOL0     C35253   3.578   8.093  10.643 -0.8888  0.0369  0.0504
  262MOL0     C35254   3.474   8.025  10.702  0.2475 -0.0608  0.1477
  262MOL0     C35255   3.333   8.088  10.718 -0.1888  0.0374  1.3739
  262MOL0     C35256   3.316   8.193  10.609  0.7342 -0.3431 -0.5261
  262MOL0     C35257   3.171   8.242  10.586 -0.0571  0.1893 -0.8854
  262MOL0     C35258   3.085   8.137  10.513 -0.1402 -0.7346  0.0590
  262MOL0     O35259   3.134   8.122  10.378 -0.6571  0.0205  0.6002
  262MOL0     C35260   3.064   8.054  10.284  0.9735 -0.1680 -0.1014
  262MOL0     C35261   2.924   8.042  10.286  0.8437 -0.3520 -1.0498
  262MOL0     C35262   2.850   7.969  10.200 -0.5991 -0.4652 -0.7615
  262MOL0     C35263   2.698   7.960  10.227  0.2908 -0.5373  0.7074
  262MOL0     C35264   2.908   7.921  10.078 -0.2587 -0.7378  0.3060
  262MOL0     C35265   2.821   7.852   9.978  0.9378 -0.4085  0.0069
  262MOL0     O35266   2.732   7.926   9.905  0.6351 -0.4878  0.2237
  262MOL0     C35267   2.671   7.871   9.794  0.0383  0.8649  0.7445
  262MOL0     C35268   2.742   7.791   9.696 -0.1295 -0.1999 -0.1142
  262MOL0     C35269   2.680   7.748   9.587  1.2511  0.6403 -0.0617
  262MOL0     C35270   2.546   7.778   9.559 -0.4233  0.9719 -0.8240
  262MOL0     O35271   2.501   7.750   9.434 -0.0701  0.1247  0.2136
  262MOL0     C35272   2.427   7.635   9.414 -0.8463  0.2074  0.8154
  262MOL0     C35273   2.282   7.641   9.454  0.3482 -0.5200 -0.0469
  262MOL0     C35274   2.185   7.528   9.410 -0.7007 -0.2175 -1.0014
  262MOL0     C35275   2.162   7.406   9.501 -0.1453  0.0626 -0.2549
  262MOL0     C35276   2.078   7.305   9.423  0.1679  0.3278  0.0558
  262MOL0     C35277   1.929   7.342   9.403 -0.1188  0.4527  0.0007
  262MOL0     C35278   1.854   7.339   9.540 -0.0325 -0.1207 -0.1320
  262MOL0     C35279   1.709   7.313   9.529  1.1860  0.1610  0.1836
  262MOL0    Cl35280   1.644   7.292   9.684  0.0014 -0.1852  0.1813
  262MOL0     C35281   2.474   7.852   9.647  0.0415 -0.8873  0.3743
  262MOL0     C35282   2.534   7.898   9.763 -0.2179 -0.8445 -1.4578
  262MOL0     O35283   2.859   7.740   9.957  0.2192  0.2581  0.1234
  262MOL0     C35284   3.041   7.945  10.067  0.8226  0.8271  0.7319
  262MOL0     C35285   3.122   8.014  10.163  0.6280 -0.0351  0.0517
  262MOL0     N35286   3.508   7.902  10.753  0.4567 -0.2655  0.1839
  262MOL0     N35287   3.636   7.892  10.730 -0.6801  0.1921 -0.1027
  262MOL0     C35288   4.841   8.112  10.438 -0.4648  0.1482  0.2175
  262MOL0     C35289   4.955   8.112  10.362 -0.5398 -0.8427 -0.4869
  262MOL0     C35290   5.287   8.061  10.128  0.1443  0.1083  0.7704
  262MOL0     C35291   5.410   8.005  10.153  0.1564  0.2859 -0.0416
  262MOL0     C35292   5.525   8.058  10.097 -0.2742  0.8183 -0.0421
  262MOL0     C35293   5.524   8.183  10.026  0.3540  0.4605  0.1033
  262MOL0     O35294   5.646   8.232   9.984 -0.1663  0.6463  0.4890
  262MOL0     C35295   5.656   8.374   9.961  0.3815 -0.4750  0.1890
  262MOL0     C35296   5.633   8.414   9.814  0.3055 -0.3263 -0.2399
  262MOL0     C35297   5.720   8.336   9.712  0.1835 -0.4679 -0.2692
  262MOL0     C35298   5.869   8.316   9.738 -0.7196  0.3359  0.2229
  262MOL0     C35299   5.923   8.449   9.766  0.4628  0.4473 -0.0140
  262MOL0     C35300   5.981   8.552   9.781 -0.9040  0.3014 -0.2296
  262MOL0     C35301   5.399   8.241  10.007  0.0306 -0.3707 -0.4412
  262MOL0     C35302   5.281   8.180  10.052 -0.2217 -0.2401  0.3769
  262MOL0     H35303   4.815   8.041  10.059  2.2110  3.7045 -0.8843
  262MOL0     H35304   4.611   8.025  10.220 -0.3434 -0.9356  3.0834
  262MOL0     H35305   4.676   8.173  10.627  0.8878 -3.0113 -0.4500
  262MOL0     H35306   4.528   8.254  10.573 -2.1122 -0.7801  0.1848
  262MOL0     H35307   4.538   7.961  10.654  1.3205  1.5503  2.0157
  262MOL0     H35308   4.498   8.100  10.762 -2.2220  1.5287  0.2090
  262MOL0     H35309   4.301   8.141  10.689  3.2169  0.1472  1.5579
  262MOL0     H35310   4.338   8.084  10.524  2.5278 -1.2272 -0.0991
  262MOL0     H35311   4.293   7.857  10.589 -0.2915 -3.1152  2.2896
  262MOL0     H35312   4.337   7.887  10.763 -0.2961 -1.1313  0.3422
  262MOL0     H35313   4.113   7.828  10.688 -0.6277  0.9663  2.2941
  262MOL0     H35314   4.098   7.985  10.775  0.4593 -2.9470  2.4331
  262MOL0     H35315   4.081   8.101  10.565 -0.5443 -0.5298 -2.3163
  262MOL0     H35316   4.102   7.956  10.468 -0.7548  2.9639 -2.5399
  262MOL0     H35317   3.867   7.969  10.469 -4.0610 -2.4423  0.5284
  262MOL0     H35318   3.906   7.849  10.595  1.9236 -0.2837 -0.9518
  262MOL0     H35319   3.851   8.134  10.650  0.1154  0.2332  2.5748
  262MOL0     H35320   3.866   8.008  10.779  1.2593 -1.4753 -0.5081
  262MOL0     H35321   3.582   8.195  10.607 -0.1369  0.2662  0.7372
  262MOL0     H35322   3.268   8.001  10.727  0.7961 -0.6786  1.8746
  262MOL0     H35323   3.334   8.140  10.815 -0.3137  2.5763  0.0914
  262MOL0     H35324   3.351   8.150  10.515  0.8883  1.9070 -1.5522
  262MOL0     H35325   3.372   8.286  10.624  0.6769 -0.8569  4.2820
  262MOL0     H35326   3.160   8.334  10.528 -3.5699  0.5997  0.2475
  262MOL0     H35327   3.118   8.263  10.679 -0.8185 -1.8730 -0.8086
  262MOL0     H35328   2.985   8.181  10.520 -0.0854 -0.8825  2.6499
  262MOL0     H35329   3.094   8.044  10.568  0.2817  0.4528  2.0983
  262MOL0     H35330   2.866   8.081  10.369 -0.4767 -1.3022 -1.4958
  262MOL0     H35331   2.676   8.042  10.296  0.9795  1.2412 -1.1039
  262MOL0     H35332   2.635   7.959  10.137  0.0887 -0.9593  0.8499
  262MOL0     H35333   2.673   7.869  10.282 -2.6422 -0.7652 -0.7621
  262MOL0     H35334   2.847   7.765   9.712  0.0797  1.1627  0.9410
  262MOL0     H35335   2.733   7.693   9.510  0.9667 -1.1991  0.9967
  262MOL0     H35336   2.439   7.598   9.312 -0.4791 -0.0737  0.9597
  262MOL0     H35337   2.473   7.553   9.469  0.5715 -1.1699 -2.1894
  262MOL0     H35338   2.273   7.651   9.563  0.1088 -0.0347 -0.1074
  262MOL0     H35339   2.240   7.737   9.424  1.1579 -0.2368 -0.3133
  262MOL0     H35340   2.201   7.492   9.308 -2.7249 -1.0392 -1.0671
  262MOL0     H35341   2.091   7.585   9.406  0.5928  2.0011 -4.1528
  262MOL0     H35342   2.259   7.359   9.520 -0.0379 -0.3260 -1.6365
  262MOL0     H35343   2.114   7.428   9.596 -0.9124 -2.7247  0.0885
  262MOL0     H35344   2.091   7.210   9.476  2.6630 -0.5931 -1.9727
  262MOL0     H35345   2.118   7.293   9.322 -4.8234  2.2425 -2.4864
  262MOL0     H35346   1.915   7.438   9.353  2.6785 -0.4643 -2.8647
  262MOL0     H35347   1.891   7.266   9.334  2.0481  0.7602 -1.6593
  262MOL0     H35348   1.865   7.434   9.592 -0.5581  0.3596 -0.8726
  262MOL0     H35349   1.892   7.257   9.601  0.2922  0.0294 -0.1290
  262MOL0     H35350   1.694   7.220   9.472 -1.3904  0.8997 -0.4481
  262MOL0     H35351   1.656   7.385   9.467 -1.7017 -4.0487 -2.8076
  262MOL0     H35352   2.368   7.866   9.629 -0.1114 -0.3653  1.5656
  262MOL0     H35353   2.474   7.944   9.841 -1.2523 -0.8623 -2.2267
  262MOL0     H35354   3.090   7.931   9.971  1.9332 -0.2288  1.4326
  262MOL0     H35355   3.229   8.033  10.153  0.4607  0.4727 -0.9214
  262MOL0     H35356   4.862   8.142  10.540  0.2044  1.1406 -0.2017
  262MOL0     H35357   5.044   8.150  10.411 -1.3378 -0.1098  0.4421
  262MOL0     H35358   5.416   7.908  10.201  0.7553 -0.0711 -0.8092
  262MOL0     H35359   5.621   8.007  10.104  0.5462  1.6660 -3.2184
  262MOL0     H35360   5.586   8.425  10.028  1.1421  1.9734 -0.7827
  262MOL0     H35361   5.750   8.405  10.006  1.6200 -2.3870 -0.9572
  262MOL0     H35362   5.658   8.521   9.807 -0.2497 -0.0719  1.2120
  262MOL0     H35363   5.527   8.411   9.787  0.5328 -1.0506 -1.0923
  262MOL0     H35364   5.695   8.382   9.616  1.5408  0.9995  0.0440
  262MOL0     H35365   5.675   8.236   9.710  0.0667 -0.4294 -3.1682
  262MOL0     H35366   5.919   8.274   9.651 -1.9735 -0.9495  0.1017
  262MOL0     H35367   5.897   8.255   9.825  0.7302  1.4306  0.5698
  262MOL0     H35368   6.028   8.648   9.789 -1.7630  0.6298  1.4734
  262MOL0     H35369   5.404   8.337   9.956  0.5933  0.2858  0.8167
  262MOL0     H35370   5.187   8.230  10.033 -0.5681  0.5350  3.5533
  263MOL0     O35371   4.648   0.577   9.657 -0.5347  0.4451 -0.4148
  263MOL0     C35372   4.691   0.482   9.720  0.5572  0.6623 -0.5123
  263MOL0     O35373   4.627   0.358   9.736 -0.2212  0.3254 -0.0988
  263MOL0     C35374   4.506   0.341   9.666 -0.1930 -0.1586  0.1978
  263MOL0     C35375   4.381   0.371   9.727  1.1104 -0.7976 -0.1147
  263MOL0     C35376   4.267   0.339   9.664  0.4447 -0.0706 -1.0458
  263MOL0     C35377   4.266   0.262   9.545  0.1420 -0.1934  0.4630
  263MOL0     O35378   4.161   0.205   9.479  0.0575 -0.3185  0.1615
  263MOL0     C35379   4.034   0.212   9.550  0.1920 -0.1411  1.0102
  263MOL0     C35380   3.930   0.123   9.479  1.3589 -0.2360  0.6706
  263MOL0     C35381   3.856   0.175   9.361 -0.6856 -0.6254 -0.9310
  263MOL0     C35382   3.776   0.065   9.287  0.7001 -0.2938 -0.0155
  263MOL0     C35383   3.628   0.044   9.340 -1.1391 -0.0969 -0.1375
  263MOL0     C35384   3.569  -0.076   9.265 -0.3177 -0.8232  0.4916
  263MOL0     C35385   3.426  -0.108   9.291  0.2473  0.4140  0.0393
  263MOL0     C35386   3.314  -0.011   9.239  0.1317  0.2351 -0.2056
  263MOL0     N35387   3.175  -0.050   9.271  0.4199  0.2457 -0.0473
  263MOL0     C35388   3.092   0.018   9.352  0.2141 -0.1066  0.2373
  263MOL0     C35389   2.987  -0.073   9.367 -1.2121 -0.4069 -0.1451
  263MOL0     C35390   2.864  -0.074   9.454 -0.4215  0.2523 -1.0796
  263MOL0     C35391   2.755   0.021   9.397 -0.6950 -0.0874 -0.1026
  263MOL0     C35392   2.614   0.013   9.470 -0.1283  0.1971 -0.2753
  263MOL0     C35393   2.536  -0.115   9.463  0.6384 -0.5144  0.1247
  263MOL0     O35394   2.420  -0.114   9.541  0.5245  0.1463  0.1081
  263MOL0     C35395   2.293  -0.086   9.488 -1.4976 -0.2386 -0.5289
  263MOL0     C35396   2.183  -0.118   9.562 -0.3818 -0.4244 -0.8316
  263MOL0     C35397   2.058  -0.078   9.527 -0.2544  0.3591  0.3722
  263MOL0     C35398   1.950  -0.114   9.629  0.5579 -1.0086 -1.0381
  263MOL0     C35399   2.039  -0.026   9.396 -0.6246 -0.9121  0.2947
  263MOL0     C35400   1.909  -0.007   9.338 -0.5016  0.0041  0.5305
  263MOL0     O35401   1.906   0.009   9.202 -0.2908 -0.2752 -0.7581
  263MOL0     C35402   1.795   0.062   9.155 -0.2496 -1.1118 -0.3437
  263MOL0     C35403   1.765   0.192   9.157 -0.2104 -1.2757 -0.0049
  263MOL0     C35404   1.652   0.243   9.090 -0.8161 -0.8081  0.4339
  263MOL0     C35405   1.569   0.153   9.027  0.4204 -0.0177  0.5008
  263MOL0     O35406   1.460   0.212   8.959  0.4116  0.1423 -0.1517
  263MOL0     C35407   1.395   0.134   8.852 -0.0118  0.5612  1.1930
  263MOL0     C35408   1.325   0.228   8.756  0.0847  0.8317 -0.7233
  263MOL0     C35409   1.203   0.286   8.831  0.4030 -0.7289 -0.6317
  263MOL0     C35410   1.187   0.440   8.810 -0.0589  0.0588  0.1928
  263MOL0     C35411   1.075   0.510   8.887  0.9246 -0.3171  0.3253
  263MOL0     C35412   1.078   0.499   9.047 -0.4886  0.5131 -1.2857
  263MOL0     C35413   1.214   0.515   9.121  0.4697 -0.1130 -0.4584
  263MOL0     C35414   1.274   0.648   9.108 -0.5394  0.6095 -0.3101
  263MOL0    Cl35415   1.406   0.666   9.229 -0.4261 -0.0359 -0.0225
  263MOL0     C35416   1.594   0.019   9.033  0.0135 -0.1878  0.0879
  263MOL0     C35417   1.713  -0.034   9.093  1.2460 -0.4853 -0.5018
  263MOL0     O35418   1.815  -0.003   9.405 -0.1349  0.2942  0.6387
  263MOL0     C35419   2.150   0.006   9.320 -0.2554  0.4145 -0.6949
  263MOL0     C35420   2.273  -0.024   9.363  1.0249  0.2591  0.3448
  263MOL0     N35421   3.016  -0.184   9.296 -0.0982  0.1636  1.1879
  263MOL0     N35422   3.126  -0.171   9.241 -0.0980  0.0851  0.0616
  263MOL0     C35423   4.387   0.228   9.483 -0.1617  0.0593 -0.1739
  263MOL0     C35424   4.507   0.275   9.543 -0.0704  0.5240 -0.2550
  263MOL0     C35425   4.826   0.505   9.779 -0.3837  0.4858 -0.2466
  263MOL0     C35426   4.870   0.411   9.880  0.4727  0.9630 -0.4808
  263MOL0     C35427   4.994   0.422   9.942  0.1948  0.4755  0.1010
  263MOL0     C35428   5.072   0.534   9.920  1.0971 -0.8175  0.4082
  263MOL0     O35429   5.193   0.540   9.984  0.1853  0.0285  0.2292
  263MOL0     C35430   5.285   0.637   9.932 -0.2086 -0.3839  0.7583
  263MOL0     C35431   5.415   0.588   9.998 -0.3939 -0.2692 -0.5367
  263MOL0     C35432   5.556   0.648   9.951  0.2090 -0.2527  0.4004
  263MOL0     C35433   5.567   0.800   9.918 -0.4570 -0.7709  0.1702
  263MOL0     C35434   5.537   0.873  10.033  0.0110 -0.8930 -0.5299
  263MOL0     C35435   5.510   0.934  10.136  0.3875  0.1026  0.7559
  263MOL0     C35436   5.027   0.626   9.826  0.7134  0.1795 -0.0878
  263MOL0     C35437   4.905   0.614   9.757 -0.5418  0.2982  0.0506
  263MOL0     H35438   4.384   0.441   9.810  0.5326  0.7625 -1.3669
  263MOL0     H35439   4.170   0.371   9.700  0.8176 -2.6027  2.7540
  263MOL0     H35440   4.052   0.178   9.652  2.8614 -0.0107  0.6537
  263MOL0     H35441   3.996   0.314   9.563 -2.1575 -1.0068  1.3822
  263MOL0     H35442   3.977   0.030   9.446  1.4726  0.1304 -0.2267
  263MOL0     H35443   3.847   0.099   9.545 -1.1896 -1.5693 -2.7196
  263MOL0     H35444   3.778   0.246   9.390 -0.0988 -0.1821 -0.3978
  263MOL0     H35445   3.940   0.208   9.298 -0.2006  0.3312  0.1816
  263MOL0     H35446   3.752   0.104   9.188 -1.7584  1.0236  1.0385
  263MOL0     H35447   3.843  -0.022   9.291 -0.0805 -0.8518  1.5453
  263MOL0     H35448   3.623   0.040   9.449 -0.5150  1.1961 -0.0303
  263MOL0     H35449   3.562   0.126   9.310 -0.5382  0.3547 -0.2511
  263MOL0     H35450   3.575  -0.066   9.157 -0.3538  0.8491  0.6170
  263MOL0     H35451   3.627  -0.163   9.298 -1.3402 -1.6392  0.1562
  263MOL0     H35452   3.398  -0.210   9.263  0.1249  0.6338 -0.6561
  263MOL0     H35453   3.413  -0.090   9.398 -0.6534 -0.1864  0.0453
  263MOL0     H35454   3.323  -0.018   9.130  2.0203 -3.0711  0.0442
  263MOL0     H35455   3.335   0.094   9.261  4.4188 -0.2168 -1.2471
  263MOL0     H35456   3.095   0.115   9.399  3.5373 -1.9840  4.5624
  263MOL0     H35457   2.823  -0.175   9.455  1.5422 -0.6821 -3.6103
  263MOL0     H35458   2.879  -0.033   9.554  1.0084  1.3783 -1.7144
  263MOL0     H35459   2.747  -0.008   9.292 -1.0788  1.0608 -0.4000
  263MOL0     H35460   2.793   0.123   9.387 -0.7802  0.1521  1.7200
  263MOL0     H35461   2.549   0.089   9.427 -2.4073 -0.3330  2.0104
  263MOL0     H35462   2.631   0.028   9.577  2.4731  2.6964 -0.9090
  263MOL0     H35463   2.600  -0.190   9.510 -2.2992 -0.0380  5.6740
  263MOL0     H35464   2.514  -0.148   9.361  0.8304 -0.3788  0.0384
  263MOL0     H35465   2.196  -0.169   9.657 -1.2541  0.5372 -0.1704
  263MOL0     H35466   1.980  -0.187   9.705  3.0404  0.3033 -0.6386
  263MOL0     H35467   1.934  -0.014   9.670 -0.5213 -1.5698 -0.0528
  263MOL0     H35468   1.855  -0.142   9.583 -0.5738  0.5813  0.2170
  263MOL0     H35469   1.838   0.251   9.212  1.3971  1.1089 -4.2344
  263MOL0     H35470   1.628   0.349   9.083 -2.6769 -1.3147 -1.9449
  263MOL0     H35471   1.471   0.079   8.795  1.3932 -0.3471  3.7697
  263MOL0     H35472   1.331   0.055   8.892  2.7699 -1.8776  1.1347
  263MOL0     H35473   1.388   0.310   8.721  1.4190  0.6930  1.2075
  263MOL0     H35474   1.278   0.161   8.683 -2.8779  0.6587  1.1967
  263MOL0     H35475   1.209   0.255   8.936  1.4838  0.5860 -0.2693
  263MOL0     H35476   1.112   0.239   8.793 -0.6803  1.0810 -0.4073
  263MOL0     H35477   1.287   0.481   8.826 -0.2457  0.1988  1.0732
  263MOL0     H35478   1.160   0.459   8.706 -0.3762 -0.1538  0.2350
  263MOL0     H35479   0.983   0.466   8.850  1.1234  0.3956 -1.0848
  263MOL0     H35480   1.070   0.614   8.853  0.7377  0.0447  1.4075
  263MOL0     H35481   1.001   0.567   9.086 -0.8933 -0.1072 -0.9866
  263MOL0     H35482   1.040   0.400   9.074 -0.8448  1.1517  0.7632
  263MOL0     H35483   1.281   0.444   9.072 -3.3244 -2.8428 -2.1345
  263MOL0     H35484   1.197   0.487   9.225 -0.9811  0.5682 -0.4879
  263MOL0     H35485   1.196   0.722   9.129  0.5843  2.0509 -1.0160
  263MOL0     H35486   1.311   0.652   9.005  0.7495 -3.1098 -0.1479
  263MOL0     H35487   1.527  -0.044   8.977  0.8687  0.4880 -1.7804
  263MOL0     H35488   1.744  -0.138   9.088 -0.6413 -1.0341 -2.5693
  263MOL0     H35489   2.130   0.045   9.220 -0.3397  0.2407 -0.7465
  263MOL0     H35490   2.359   0.002   9.301  0.6026  3.0794  0.7930
  263MOL0     H35491   4.386   0.175   9.388 -1.1180  0.9010 -0.6567
  263MOL0     H35492   4.597   0.245   9.491  0.1950  0.4785  0.2274
  263MOL0     H35493   4.796   0.339   9.913 -0.8124  1.9541 -1.0872
  263MOL0     H35494   5.029   0.337  10.000  0.5213 -2.0260 -3.4335
  263MOL0     H35495   5.284   0.626   9.823 -3.8035  0.0783  0.6355
  263MOL0     H35496   5.262   0.734   9.975  0.3591 -0.0915  0.4113
  263MOL0     H35497   5.423   0.479   9.996 -1.0545 -0.3971 -4.4740
  263MOL0     H35498   5.416   0.616  10.104  1.7453 -2.6864  0.1886
  263MOL0     H35499   5.586   0.603   9.856  2.0365 -1.5961  1.5393
  263MOL0     H35500   5.634   0.608  10.017 -0.2795 -4.0700 -1.0701
  263MOL0     H35501   5.498   0.818   9.835 -0.1353 -1.6219 -0.3022
  263MOL0     H35502   5.665   0.832   9.880 -0.8464 -2.1562 -2.2037
  263MOL0     H35503   5.457   0.989  10.212 -2.2370  1.3760 -1.7693
  263MOL0     H35504   5.086   0.715   9.805  1.9912  0.0055  2.4041
  263MOL0     H35505   4.877   0.702   9.699 -0.9773 -0.5431 -1.0457
  264MOL0     O35506   8.704  11.072  10.178  0.2438 -0.4365  0.9468
  264MOL0     C35507   8.763  11.179  10.165 -0.6468  0.1024  0.5159
  264MOL0     O35508   8.766  11.269  10.264  0.1861  0.5217 -0.1528
  264MOL0     C35509   8.702  11.256  10.380  0.6505 -1.3366 -1.1705
  264MOL0     C35510   8.624  11.155  10.442 -0.5512  0.1577 -0.2548
  264MOL0     C35511   8.577  11.167  10.575  0.7112 -0.1290 -0.0483
  264MOL0     C35512   8.624  11.265  10.661 -0.5438  0.5226  0.2375
  264MOL0     O35513   8.571  11.282  10.787 -0.5851 -0.7056  0.2158
  264MOL0     C35514   8.479  11.386  10.803 -0.1886 -0.4614 -0.2096
  264MOL0     C35515   8.432  11.381  10.946  0.2178  0.3748 -0.3116
  264MOL0     C35516   8.295  11.443  10.975 -0.2003  0.5062  0.5055
  264MOL0     C35517   8.307  11.598  10.939 -0.7862 -0.1191  0.4625
  264MOL0     C35518   8.189  11.679  10.982  0.0891  0.3647  1.1510
  264MOL0     C35519   8.068  11.653  10.892 -0.2620 -0.2427 -0.2107
  264MOL0     C35520   7.945  11.736  10.943 -0.3692 -0.7118 -0.7847
  264MOL0     C35521   7.915  11.855  10.849 -0.8064  0.2737 -0.2268
  264MOL0     N35522   7.798  11.931  10.897  0.5211 -0.0608  0.2548
  264MOL0     C35523   7.780  11.984  11.019  0.4357 -0.4687  0.4543
  264MOL0     C35524   7.659  12.042  11.010 -0.1824  0.1932  0.3736
  264MOL0     C35525   7.585  12.121  11.114  0.1262 -0.5337  0.8005
  264MOL0     C35526   7.438  12.068  11.129  0.0258  0.2531 -0.0154
  264MOL0     C35527   7.367  12.134  11.249  0.4590 -0.3978 -0.1071
  264MOL0     C35528   7.209  12.098  11.251 -0.6635 -0.0861  0.4130
  264MOL0     O35529   7.150  12.163  11.136 -0.0752 -0.8263 -0.2330
  264MOL0     C35530   7.043  12.097  11.084  0.4608  0.7911 -0.4517
  264MOL0     C35531   7.056  11.964  11.041  0.7051 -0.1250  0.1329
  264MOL0     C35532   6.940  11.893  11.004  0.0627 -0.4720  0.1103
  264MOL0     C35533   6.964  11.747  10.972 -0.6030 -0.3259 -0.0907
  264MOL0     C35534   6.810  11.949  10.999 -0.7020  0.1123 -0.4029
  264MOL0     C35535   6.685  11.887  10.946  1.0678  0.9736 -0.6114
  264MOL0     O35536   6.595  11.974  10.904 -0.0027  0.3387 -0.1040
  264MOL0     C35537   6.462  11.939  10.911 -0.6656  0.8471 -0.1678
  264MOL0     C35538   6.371  11.984  10.811 -0.1270  0.0898  0.6629
  264MOL0     C35539   6.235  11.958  10.809 -0.0918 -0.6070  0.4008
  264MOL0     C35540   6.177  11.900  10.922  0.0125  0.0487  0.3827
  264MOL0     O35541   6.040  11.877  10.942 -0.2194  0.4267  0.0223
  264MOL0     C35542   5.965  11.881  10.819  0.3214  0.0199 -0.6243
  264MOL0     C35543   5.808  11.870  10.853  0.0561 -0.8546  0.4324
  264MOL0     C35544   5.727  11.903  10.725 -0.1661 -0.2946  0.2058
  264MOL0     C35545   5.587  11.962  10.743  0.6400  0.4202  0.0826
  264MOL0     C35546   5.505  11.985  10.611 -0.2950  0.1887  0.4636
  264MOL0     C35547   5.469  11.851  10.553  0.0833 -0.3286  0.8313
  264MOL0     C35548   5.342  11.865  10.471  1.5980 -0.2109  0.2411
  264MOL0     C35549   5.293  11.721  10.428  0.5673 -0.2514  0.2976
  264MOL0    Cl35550   5.133  11.726  10.354 -0.0031 -0.2747  0.1188
  264MOL0     C35551   6.266  11.858  11.025 -0.3064  0.6160  0.4893
  264MOL0     C35552   6.405  11.880  11.024 -0.0983 -0.4734  0.7877
  264MOL0     O35553   6.671  11.763  10.945 -1.1018  0.6552  0.0634
  264MOL0     C35554   6.805  12.085  11.046 -0.4381  0.7897  1.4061
  264MOL0     C35555   6.916  12.157  11.082 -1.0588  0.0297  0.3615
  264MOL0     N35556   7.610  12.020  10.882 -0.5804 -0.1182  0.3609
  264MOL0     N35557   7.696  11.957  10.817  0.2963  0.0401  0.1519
  264MOL0     C35558   8.707  11.355  10.614 -0.1961  0.4545  0.0240
  264MOL0     C35559   8.747  11.357  10.474 -0.3467 -0.4041 -0.6216
  264MOL0     C35560   8.848  11.211  10.046  0.1648  0.1012 -0.5272
  264MOL0     C35561   8.891  11.336  10.029  0.3184  0.4222 -0.0281
  264MOL0     C35562   8.945  11.376   9.917  0.4399 -0.4448  0.4084
  264MOL0     C35563   8.980  11.285   9.810 -0.9601 -0.2392  0.1156
  264MOL0     O35564   9.063  11.319   9.705 -0.0755 -0.2269  0.2989
  264MOL0     C35565   9.072  11.461   9.671 -0.3402 -0.0508  1.3399
  264MOL0     C35566   9.146  11.491   9.532  0.1106 -0.2380  0.3500
  264MOL0     C35567   9.139  11.641   9.502  0.2585 -0.0126 -0.2766
  264MOL0     C35568   9.200  11.680   9.371 -0.0982 -0.2405 -0.3677
  264MOL0     C35569   9.127  11.608   9.266 -0.2050 -0.8118  0.0708
  264MOL0     C35570   9.084  11.541   9.179 -1.0110  0.5596 -1.0893
  264MOL0     C35571   8.928  11.159   9.828  0.1193  0.6699  0.9602
  264MOL0     C35572   8.858  11.120   9.947 -0.5099  0.2890  0.3018
  264MOL0     H35573   8.595  11.062  10.394 -0.9064 -0.3324  0.8737
  264MOL0     H35574   8.526  11.078  10.611  3.0932 -3.5400 -4.1816
  264MOL0     H35575   8.513  11.485  10.771 -2.0026  1.0977  2.2922
  264MOL0     H35576   8.398  11.354  10.737  1.5795 -3.2512 -1.2335
  264MOL0     H35577   8.425  11.277  10.978  1.3560  0.2020 -0.5802
  264MOL0     H35578   8.499  11.434  11.016 -3.2334 -0.0487  3.7119
  264MOL0     H35579   8.218  11.404  10.907  0.6401 -2.5786  1.1647
  264MOL0     H35580   8.261  11.431  11.078 -1.0149  2.2805  0.4832
  264MOL0     H35581   8.392  11.642  10.992 -1.6733  0.9241  1.0631
  264MOL0     H35582   8.316  11.612  10.831 -2.6667 -0.4923  0.2182
  264MOL0     H35583   8.171  11.645  11.085  3.1475 -0.4914  1.5002
  264MOL0     H35584   8.209  11.785  10.964  3.0999 -0.3673 -0.5298
  264MOL0     H35585   8.076  11.683  10.787 -3.5457 -0.1336 -0.5331
  264MOL0     H35586   8.050  11.545  10.895  0.1668 -0.3662 -1.3748
  264MOL0     H35587   7.859  11.670  10.955  0.5804 -1.4734  3.1249
  264MOL0     H35588   7.951  11.780  11.043 -1.0248 -0.1541 -0.9862
  264MOL0     H35589   7.909  11.827  10.744 -0.2630  2.0226 -0.7545
  264MOL0     H35590   8.003  11.918  10.862 -0.1598 -1.0461  2.4751
  264MOL0     H35591   7.851  11.993  11.100 -0.4762  0.1814  1.2028
  264MOL0     H35592   7.621  12.100  11.215 -1.7125 -1.0566  1.4058
  264MOL0     H35593   7.586  12.229  11.102 -0.8021 -0.0344  4.2221
  264MOL0     H35594   7.427  11.962  11.153 -2.4327  0.5296  0.3749
  264MOL0     H35595   7.375  12.086  11.042  2.0803 -0.8084 -1.8394
  264MOL0     H35596   7.382  12.242  11.252  0.4767 -0.4233  1.4177
  264MOL0     H35597   7.420  12.098  11.338  1.8496  1.9860  0.0878
  264MOL0     H35598   7.161  12.137  11.341  0.8208  2.0642  0.3560
  264MOL0     H35599   7.202  11.989  11.240 -1.9532  0.1419 -1.5051
  264MOL0     H35600   7.152  11.912  11.035  0.1327 -1.0341 -2.6996
  264MOL0     H35601   6.912  11.720  10.879  0.0578 -2.1295  0.0102
  264MOL0     H35602   7.070  11.718  10.965 -0.4781  0.5055 -3.6444
  264MOL0     H35603   6.918  11.685  11.049 -0.4913  1.7735  1.7414
  264MOL0     H35604   6.418  12.051  10.738  0.5590  0.4761  1.4376
  264MOL0     H35605   6.177  11.998  10.727 -0.9066 -0.8854  0.8380
  264MOL0     H35606   5.968  11.979  10.771 -1.6915 -0.8908 -2.8772
  264MOL0     H35607   5.993  11.804  10.747  0.3026 -1.5848  1.0039
  264MOL0     H35608   5.780  11.768  10.880  0.5826 -0.7167  1.5463
  264MOL0     H35609   5.781  11.950  10.923  0.4934 -2.9824  3.1941
  264MOL0     H35610   5.722  11.808  10.670 -4.3250 -0.5356  0.6572
  264MOL0     H35611   5.773  11.976  10.659 -2.0367  1.7847  1.0621
  264MOL0     H35612   5.532  11.894  10.808 -0.5100 -0.2671 -1.5271
  264MOL0     H35613   5.608  12.062  10.781 -0.8442  0.4291  0.9432
  264MOL0     H35614   5.554  12.051  10.539  0.8137 -1.7448 -0.6259
  264MOL0     H35615   5.412  12.034  10.642  0.7478  2.0072  0.9131
  264MOL0     H35616   5.550  11.827  10.483 -1.1760  2.1476 -1.6518
  264MOL0     H35617   5.458  11.770  10.626 -2.2034 -2.4648 -1.7046
  264MOL0     H35618   5.359  11.927  10.383 -1.5616  0.8172  0.2363
  264MOL0     H35619   5.260  11.907  10.529  1.0348  0.2212 -0.8454
  264MOL0     H35620   5.295  11.656  10.515 -1.6977 -0.2728  0.3938
  264MOL0     H35621   5.366  11.682  10.356 -1.3931 -1.0041 -1.3941
  264MOL0     H35622   6.228  11.802  11.110  1.9901  0.6464  1.6062
  264MOL0     H35623   6.478  11.850  11.099  0.3831 -1.2261  0.0300
  264MOL0     H35624   6.706  12.129  11.055  0.3047  2.1815  3.2499
  264MOL0     H35625   6.919  12.259  11.120  0.2310 -0.4028  1.4959
  264MOL0     H35626   8.747  11.435  10.676  0.5711  0.7499 -0.8397
  264MOL0     H35627   8.821  11.434  10.456  0.8529 -0.0032  4.3331
  264MOL0     H35628   8.865  11.423  10.089 -1.3511  2.2657 -3.1462
  264MOL0     H35629   8.983  11.477   9.928 -2.9866  1.5223 -3.1398
  264MOL0     H35630   8.973  11.507   9.658 -0.0312  0.5162  0.9337
  264MOL0     H35631   9.120  11.518   9.751  0.9489  1.2726 -0.3026
  264MOL0     H35632   9.102  11.424   9.457  0.4201 -0.5151  0.4127
  264MOL0     H35633   9.254  11.473   9.535  0.1440 -0.2967 -0.9880
  264MOL0     H35634   9.204  11.681   9.581  0.4096 -1.6298  0.4685
  264MOL0     H35635   9.039  11.669   9.537 -0.5477 -2.9631  0.1065
  264MOL0     H35636   9.304  11.647   9.364  1.4475  3.8064  0.7648
  264MOL0     H35637   9.203  11.787   9.347 -1.0172 -0.7488 -3.1163
  264MOL0     H35638   9.042  11.468   9.113 -2.2098  1.3188 -1.1954
  264MOL0     H35639   8.947  11.077   9.760  0.5546  0.2213  1.6062
  264MOL0     H35640   8.805  11.026   9.957 -0.2599 -0.0516 -1.2375
  265MOL0     O35641   1.834   3.667   0.237  0.0842 -0.4455 -0.3477
  265MOL0     C35642   1.852   3.788   0.214 -0.5009 -0.3235  0.4805
  265MOL0     O35643   1.764   3.889   0.234 -0.5135 -0.3033  1.0765
  265MOL0     C35644   1.637   3.867   0.281 -0.0422 -0.2416  0.3673
  265MOL0     C35645   1.545   3.782   0.206  0.8813 -0.4046 -0.0145
  265MOL0     C35646   1.420   3.742   0.259 -0.1920 -0.5532 -0.3830
  265MOL0     C35647   1.374   3.807   0.377  0.1209  0.1089 -0.1864
  265MOL0     O35648   1.252   3.796   0.442 -0.3640  0.7244 -0.0979
  265MOL0     C35649   1.144   3.733   0.372  0.1550  1.1125 -0.1345
  265MOL0     C35650   1.029   3.727   0.469 -0.1961 -0.8512 -0.2512
  265MOL0     C35651   1.042   3.635   0.581 -0.4068  0.3452 -0.4147
  265MOL0     C35652   1.122   3.679   0.707  0.0815  0.8324 -0.5080
  265MOL0     C35653   1.027   3.732   0.814 -0.4196 -0.9474 -0.6376
  265MOL0     C35654   0.959   3.864   0.780  0.3122 -0.1720  0.2135
  265MOL0     C35655   1.047   3.993   0.777 -0.1167 -0.0372  0.5012
  265MOL0     C35656   0.981   4.116   0.724  0.1375 -0.9743 -0.9054
  265MOL0     N35657   0.981   4.103   0.576 -0.5283  0.6617  0.3821
  265MOL0     C35658   1.092   4.118   0.499 -0.5908 -0.3146  1.3715
  265MOL0     C35659   1.055   4.087   0.372 -0.4239  1.0922 -0.2705
  265MOL0     C35660   1.144   4.088   0.250  0.0297 -0.2713 -0.0566
  265MOL0     C35661   1.073   4.155   0.138  0.1661 -0.2172  0.0747
  265MOL0     C35662   1.037   4.307   0.169  0.6730  0.7142 -0.3235
  265MOL0     C35663   0.965   4.375   0.055  0.3897  0.7649 -0.0006
  265MOL0     O35664   0.861   4.294  -0.003 -0.9360  0.3635 -0.3801
  265MOL0     C35665   0.739   4.323   0.048  0.4848  0.1393  0.4316
  265MOL0     C35666   0.668   4.451   0.029 -0.5012  0.2410  0.4135
  265MOL0     C35667   0.538   4.467   0.077  0.2352  0.8353 -0.6146
  265MOL0     C35668   0.467   4.596   0.050  0.4006  0.0358  0.9614
  265MOL0     C35669   0.480   4.367   0.151  0.7370  0.7542  1.3870
  265MOL0     C35670   0.355   4.384   0.219 -0.5571  0.2585 -0.7119
  265MOL0     O35671   0.267   4.278   0.214 -0.3615 -0.0867  0.0902
  265MOL0     C35672   0.146   4.308   0.266 -0.3401  0.7129 -0.4287
  265MOL0     C35673   0.045   4.385   0.203  0.1562 -0.1501 -0.4806
  265MOL0     C35674  -0.085   4.389   0.253  0.0618  0.5724 -0.4393
  265MOL0     C35675  -0.108   4.330   0.382 -0.8103  0.7886  0.5410
  265MOL0     O35676  -0.227   4.319   0.442  0.0301  0.3303  1.2230
  265MOL0     C35677  -0.342   4.308   0.347 -0.6378 -0.0305  0.1077
  265MOL0     C35678  -0.454   4.292   0.450  0.4674  0.3993 -0.9027
  265MOL0     C35679  -0.484   4.152   0.500 -0.4598 -0.3132  0.3287
  265MOL0     C35680  -0.568   4.066   0.397  1.0918  0.2742  0.7832
  265MOL0     C35681  -0.505   3.939   0.339  0.0587 -0.2824  0.3490
  265MOL0     C35682  -0.366   3.955   0.271  1.3845  0.5227  0.1762
  265MOL0     C35683  -0.320   3.834   0.186 -0.2816  0.3023 -0.7107
  265MOL0     C35684  -0.176   3.832   0.144  0.3139  0.1088 -0.0989
  265MOL0    Cl35685  -0.148   3.965   0.034 -0.1819 -0.7648 -0.1917
  265MOL0     C35686  -0.010   4.246   0.438  0.7164 -0.2382 -0.5871
  265MOL0     C35687   0.113   4.245   0.382 -0.4552  0.7439 -0.4391
  265MOL0     O35688   0.337   4.487   0.284 -0.2511 -0.1344 -0.4813
  265MOL0     C35689   0.546   4.250   0.169 -0.8529  0.7941 -0.6039
  265MOL0     C35690   0.675   4.230   0.123 -0.0936 -0.0749  0.3776
  265MOL0     N35691   0.919   4.044   0.380 -0.0207  0.0002  1.0655
  265MOL0     N35692   0.874   4.054   0.497 -0.2806 -0.0287 -0.8435
  265MOL0     C35693   1.455   3.901   0.446 -0.0282  0.4262 -0.2604
  265MOL0     C35694   1.584   3.928   0.400 -0.7230  0.7178 -0.2828
  265MOL0     C35695   1.996   3.825   0.192 -0.1351 -0.5880 -0.5000
  265MOL0     C35696   2.105   3.736   0.218  0.0153  0.1151 -0.4115
  265MOL0     C35697   2.234   3.767   0.197 -0.1522  0.5976  0.2868
  265MOL0     C35698   2.272   3.898   0.163 -0.1665 -0.7754 -0.9275
  265MOL0     O35699   2.403   3.931   0.151  0.6285  0.2831  0.2755
  265MOL0     C35700   2.448   4.054   0.089 -0.0386 -0.1670 -0.0744
  265MOL0     C35701   2.595   4.087   0.103 -1.0554  0.7511 -0.7965
  265MOL0     C35702   2.638   4.105   0.247 -0.1199 -1.2316  0.5893
  265MOL0     C35703   2.785   4.145   0.266 -0.7091  0.2167 -0.5739
  265MOL0     C35704   2.885   4.046   0.221  0.6212 -0.4369 -0.4706
  265MOL0     C35705   2.976   3.971   0.184 -1.2569  0.1171  0.4359
  265MOL0     C35706   2.167   3.990   0.125  0.4913 -0.4517 -0.9582
  265MOL0     C35707   2.035   3.959   0.160  0.9722 -1.0390  0.4811
  265MOL0     H35708   1.571   3.734   0.113  0.8680 -2.3489  0.9278
  265MOL0     H35709   1.351   3.676   0.207 -3.5191  1.6562  0.9520
  265MOL0     H35710   1.115   3.802   0.293 -0.6927  3.5104  2.1107
  265MOL0     H35711   1.167   3.632   0.337 -1.8138  0.2241  0.9789
  265MOL0     H35712   1.026   3.828   0.511 -0.9548 -0.4424 -1.2294
  265MOL0     H35713   0.931   3.706   0.424  0.5751 -2.9169 -1.0674
  265MOL0     H35714   0.941   3.603   0.607  0.6498 -2.2482  0.8366
  265MOL0     H35715   1.089   3.541   0.547 -0.3516  0.2209  0.0014
  265MOL0     H35716   1.179   3.593   0.745  0.1629  0.5683 -1.2141
  265MOL0     H35717   1.192   3.758   0.678  1.9724  0.2823  2.1230
  265MOL0     H35718   0.946   3.659   0.825 -1.7369  0.5857  0.1857
  265MOL0     H35719   1.083   3.742   0.907  1.0926 -1.5309 -1.4573
  265MOL0     H35720   0.913   3.859   0.681 -0.8074  2.5941  0.4995
  265MOL0     H35721   0.877   3.881   0.850  0.7485  0.3186  0.6088
  265MOL0     H35722   1.079   4.009   0.880 -2.5828  0.5194  1.2466
  265MOL0     H35723   1.135   3.975   0.714 -1.0541 -1.7553 -0.3904
  265MOL0     H35724   1.032   4.208   0.756 -2.4487 -0.3325  1.7452
  265MOL0     H35725   0.881   4.117   0.766  0.5637  0.1005  0.1390
  265MOL0     H35726   1.195   4.139   0.527  1.1470 -3.8605 -1.4334
  265MOL0     H35727   1.242   4.130   0.275  0.3751  0.5967 -2.6113
  265MOL0     H35728   1.161   3.991   0.203  1.1916  0.3996 -1.1055
  265MOL0     H35729   0.977   4.104   0.123  0.3106  0.1048 -2.2977
  265MOL0     H35730   1.126   4.142   0.043 -2.3947 -0.2620 -1.4544
  265MOL0     H35731   1.131   4.360   0.189  1.4337 -0.4152 -0.8059
  265MOL0     H35732   0.970   4.310   0.256  1.2995 -0.6312  0.2355
  265MOL0     H35733   1.034   4.392  -0.028  1.7955 -1.1989  0.6982
  265MOL0     H35734   0.922   4.471   0.088 -0.7818  0.0811  0.5208
  265MOL0     H35735   0.717   4.531  -0.025 -0.0199 -1.6801 -2.1513
  265MOL0     H35736   0.372   4.555   0.013  0.7675 -3.1591  3.1470
  265MOL0     H35737   0.454   4.661   0.137 -0.4244 -1.1746  1.7719
  265MOL0     H35738   0.515   4.652  -0.031  1.1686 -1.1871  0.5416
  265MOL0     H35739   0.073   4.448   0.119 -0.9569 -0.9592 -1.5004
  265MOL0     H35740  -0.166   4.439   0.200  1.1873  0.2025 -2.6235
  265MOL0     H35741  -0.359   4.398   0.288 -1.6223  0.9998  1.8665
  265MOL0     H35742  -0.328   4.221   0.283 -0.3208 -0.2074  0.4083
  265MOL0     H35743  -0.449   4.353   0.541 -2.6123 -2.0823  1.1479
  265MOL0     H35744  -0.547   4.328   0.405 -1.3742 -0.2817  2.1025
  265MOL0     H35745  -0.540   4.169   0.592 -1.6031 -0.9686 -0.2321
  265MOL0     H35746  -0.390   4.103   0.530 -0.5454 -0.5829  0.1651
  265MOL0     H35747  -0.657   4.032   0.451  1.2074 -0.1180  0.7301
  265MOL0     H35748  -0.604   4.133   0.318  1.9433  1.8057  1.6449
  265MOL0     H35749  -0.575   3.888   0.272 -2.6942  1.7209  1.5111
  265MOL0     H35750  -0.490   3.881   0.430 -0.2423 -0.3910  0.3293
  265MOL0     H35751  -0.367   4.043   0.206 -0.9447  0.2781 -0.2268
  265MOL0     H35752  -0.293   3.971   0.351 -0.4303  0.9468  1.8411
  265MOL0     H35753  -0.393   3.835   0.105  0.6489  2.9504 -1.6111
  265MOL0     H35754  -0.334   3.745   0.249 -2.5330  1.1847  0.1370
  265MOL0     H35755  -0.164   3.731   0.103 -3.0593 -0.8376  0.9336
  265MOL0     H35756  -0.113   3.850   0.232 -0.1072 -0.8447  0.4146
  265MOL0     H35757  -0.033   4.201   0.534  0.5320  1.9374  0.4504
  265MOL0     H35758   0.182   4.179   0.433 -1.5774 -0.7396 -0.7762
  265MOL0     H35759   0.511   4.170   0.233  0.1306  1.5219  0.9125
  265MOL0     H35760   0.723   4.134   0.142 -2.3545 -1.5738 -1.0167
  265MOL0     H35761   1.412   3.961   0.526 -2.6156 -1.3154 -0.2025
  265MOL0     H35762   1.657   3.983   0.458 -1.4087 -0.5635  1.9463
  265MOL0     H35763   2.093   3.630   0.239  1.0007 -0.3440 -2.0162
  265MOL0     H35764   2.310   3.690   0.202  0.8856  1.1101 -3.8803
  265MOL0     H35765   2.415   4.047  -0.015 -1.4182  0.1154  0.3195
  265MOL0     H35766   2.392   4.138   0.132 -0.0230 -0.0745 -0.2333
  265MOL0     H35767   2.617   4.179   0.048 -2.3936  1.1516 -0.7032
  265MOL0     H35768   2.650   4.005   0.055 -1.3688 -0.7503  1.2867
  265MOL0     H35769   2.606   4.021   0.309 -2.9761  1.0207  2.3987
  265MOL0     H35770   2.585   4.189   0.291 -0.9553 -1.1626 -0.5123
  265MOL0     H35771   2.793   4.168   0.372 -0.1781 -1.5016 -0.2151
  265MOL0     H35772   2.807   4.244   0.224 -2.7266  0.8706 -0.1784
  265MOL0     H35773   3.064   3.932   0.137 -0.7713 -1.7069  2.6500
  265MOL0     H35774   2.186   4.087   0.082 -0.2877  0.4147  0.5351
  265MOL0     H35775   1.960   4.027   0.120  0.3173 -3.0079 -1.9655
  266MOL0     O35776   7.462   9.030   5.750  0.1559  0.3219 -0.3112
  266MOL0     C35777   7.535   9.084   5.659  0.4541 -0.7163 -1.1093
  266MOL0     O35778   7.494   9.133   5.537  0.6380 -0.0246  0.2919
  266MOL0     C35779   7.360   9.145   5.491  0.1951 -0.2379  0.6418
  266MOL0     C35780   7.251   9.078   5.548  0.9041 -0.3509  0.3448
  266MOL0     C35781   7.114   9.111   5.505 -0.0711 -0.0068 -0.2837
  266MOL0     C35782   7.088   9.207   5.406  0.6815  0.4259  0.8490
  266MOL0     O35783   6.959   9.238   5.352  0.1090  0.5032  0.5421
  266MOL0     C35784   6.840   9.195   5.433 -1.0662  0.0964  1.2234
  266MOL0     C35785   6.711   9.259   5.371  0.0159 -0.1468 -1.2154
  266MOL0     C35786   6.596   9.267   5.478 -0.5568 -0.8649 -0.2744
  266MOL0     C35787   6.461   9.305   5.419 -1.8124  0.1698  0.0460
  266MOL0     C35788   6.345   9.338   5.517 -0.8639 -0.7613 -0.2654
  266MOL0     C35789   6.381   9.445   5.622  0.3317 -0.4983 -0.0097
  266MOL0     C35790   6.256   9.488   5.701  0.3671 -0.2285 -0.7035
  266MOL0     C35791   6.259   9.433   5.846 -0.0875 -0.5642  0.0279
  266MOL0     N35792   6.128   9.461   5.920  0.0683 -0.1231  0.2264
  266MOL0     C35793   6.058   9.580   5.911 -0.3673  0.2945  0.5348
  266MOL0     C35794   5.934   9.535   5.940 -0.5133 -0.1309 -0.5146
  266MOL0     C35795   5.815   9.622   5.942 -0.2766 -0.8131 -0.3895
  266MOL0     C35796   5.690   9.547   5.955 -0.2766 -0.8890  0.0083
  266MOL0     C35797   5.576   9.633   6.009  0.1032  0.5070 -0.1610
  266MOL0     C35798   5.447   9.561   6.037  0.4150  0.6808 -0.7439
  266MOL0     O35799   5.404   9.490   5.921 -0.3615  0.1178 -0.4230
  266MOL0     C35800   5.270   9.451   5.915 -0.6561 -0.0580  0.0964
  266MOL0     C35801   5.223   9.416   5.792  0.3212  0.3921 -0.1103
  266MOL0     C35802   5.091   9.376   5.771  0.0011  0.5645  0.5752
  266MOL0     C35803   5.049   9.335   5.627  0.4998  0.0480 -0.8001
  266MOL0     C35804   5.001   9.372   5.880  0.3759 -0.6178  0.8367
  266MOL0     C35805   4.862   9.320   5.869 -0.6249  0.2160  0.5655
  266MOL0     O35806   4.823   9.255   5.978  0.0189  0.4783  0.7872
  266MOL0     C35807   4.697   9.201   5.961 -0.0679 -0.2841 -0.0176
  266MOL0     C35808   4.602   9.224   6.057  0.3936  0.3557 -0.0692
  266MOL0     C35809   4.477   9.159   6.058 -0.1151  0.0782 -0.5499
  266MOL0     C35810   4.443   9.065   5.961 -0.4189  0.3322 -0.5352
  266MOL0     O35811   4.318   9.006   5.956 -0.2773  0.5450 -0.4178
  266MOL0     C35812   4.234   8.991   6.072 -0.4870 -0.5336  0.1572
  266MOL0     C35813   4.165   8.853   6.073 -0.0149  0.5753 -0.6915
  266MOL0     C35814   4.265   8.729   6.084  0.4387  0.5514 -0.5256
  266MOL0     C35815   4.319   8.693   6.222  0.2282  0.3908  0.2391
  266MOL0     C35816   4.456   8.750   6.251 -0.9493 -0.1636 -0.3592
  266MOL0     C35817   4.508   8.739   6.399 -0.7026 -0.0510 -0.0184
  266MOL0     C35818   4.577   8.605   6.436  0.9957  0.2070 -0.1945
  266MOL0     C35819   4.627   8.611   6.591 -0.3344  0.5676 -0.0202
  266MOL0    Cl35820   4.750   8.743   6.624  0.3558 -0.1437  0.0098
  266MOL0     C35821   4.533   9.033   5.861 -0.5720 -0.2886 -0.1638
  266MOL0     C35822   4.665   9.098   5.866 -0.1874  0.4037  1.4114
  266MOL0     O35823   4.794   9.335   5.769  0.1165 -0.2880  0.1800
  266MOL0     C35824   5.052   9.421   6.004 -0.1324  0.6934 -0.2319
  266MOL0     C35825   5.188   9.451   6.025  0.0814  0.6280 -0.3057
  266MOL0     N35826   5.936   9.399   5.964 -0.3073  0.0100  0.3633
  266MOL0     N35827   6.056   9.358   5.959  0.1182 -0.4557  0.0143
  266MOL0     C35828   7.197   9.276   5.351 -0.0531 -1.0710 -1.0504
  266MOL0     C35829   7.330   9.240   5.392  0.0308 -0.5224  0.6124
  266MOL0     C35830   7.679   9.092   5.682  0.0015  0.2775  0.5398
  266MOL0     C35831   7.765   9.173   5.594 -0.1389  0.5708  0.1181
  266MOL0     C35832   7.902   9.176   5.629  1.0651 -0.2556  0.1470
  266MOL0     C35833   7.956   9.118   5.745 -0.3437  0.1952  0.2789
  266MOL0     O35834   8.091   9.133   5.762 -0.3442 -0.4508 -0.3584
  266MOL0     C35835   8.156   9.095   5.895 -0.5037 -0.8952  0.6818
  266MOL0     C35836   8.085   9.150   6.018 -0.1338 -0.4126  0.5769
  266MOL0     C35837   8.164   9.212   6.126 -0.5000  0.7861 -0.2486
  266MOL0     C35838   8.075   9.215   6.246 -0.2589 -0.7222  0.4057
  266MOL0     C35839   8.142   9.295   6.350 -0.0089 -0.0925  0.4220
  266MOL0     C35840   8.219   9.350   6.423 -0.7357  0.2306 -0.3894
  266MOL0     C35841   7.881   9.030   5.828  1.0323  0.2620  0.8866
  266MOL0     C35842   7.743   9.031   5.797  0.2065  0.1850  0.0500
  266MOL0     H35843   7.257   8.990   5.612  1.6065 -2.6218 -2.5647
  266MOL0     H35844   7.032   9.060   5.554  0.9991  1.1983  3.0635
  266MOL0     H35845   6.829   9.086   5.438 -1.4080  0.1429  1.4678
  266MOL0     H35846   6.862   9.231   5.534  0.9599 -0.4505  1.0326
  266MOL0     H35847   6.718   9.358   5.325 -2.2388  1.3806  1.3711
  266MOL0     H35848   6.673   9.202   5.286  1.7833  2.3247 -3.8622
  266MOL0     H35849   6.581   9.168   5.521  2.0645 -1.0081  0.4750
  266MOL0     H35850   6.624   9.336   5.558 -2.1450  1.0215 -1.2337
  266MOL0     H35851   6.490   9.388   5.354  0.0106 -1.2902 -1.1498
  266MOL0     H35852   6.420   9.227   5.354 -0.2685 -3.9797  3.5660
  266MOL0     H35853   6.260   9.373   5.458  1.3410  3.8227 -1.1735
  266MOL0     H35854   6.322   9.245   5.571 -0.2846 -1.0918 -0.5911
  266MOL0     H35855   6.462   9.411   5.688  0.6966  3.0062  1.5523
  266MOL0     H35856   6.417   9.535   5.571 -2.8918  0.1166 -1.4728
  266MOL0     H35857   6.264   9.597   5.705  0.6416 -0.2858  1.1714
  266MOL0     H35858   6.163   9.445   5.664 -3.5189  2.8716  4.2034
  266MOL0     H35859   6.340   9.479   5.903 -0.4903 -0.6696  0.6942
  266MOL0     H35860   6.280   9.325   5.848 -2.9040 -1.1909 -0.3203
  266MOL0     H35861   6.102   9.677   5.895 -0.5959  0.3956  0.5164
  266MOL0     H35862   5.823   9.689   6.028  1.5690 -2.3807  0.7567
  266MOL0     H35863   5.800   9.686   5.855  0.9170 -0.1599 -0.1328
  266MOL0     H35864   5.701   9.470   6.032 -0.5642 -1.4525 -0.5042
  266MOL0     H35865   5.658   9.505   5.858 -2.3374  2.7321 -1.0727
  266MOL0     H35866   5.546   9.715   5.944  0.1799 -0.5950 -1.6210
  266MOL0     H35867   5.604   9.687   6.100 -1.1163 -0.4432  0.8040
  266MOL0     H35868   5.369   9.628   6.074 -0.9260 -0.0370 -2.1983
  266MOL0     H35869   5.463   9.486   6.116 -2.8847  4.0759  3.7145
  266MOL0     H35870   5.293   9.433   5.711 -0.2843  3.8689 -0.0603
  266MOL0     H35871   4.974   9.398   5.577  1.0826 -0.8376 -2.8931
  266MOL0     H35872   5.143   9.350   5.573 -1.0908  1.4512 -3.4593
  266MOL0     H35873   5.017   9.231   5.616 -0.7370  0.4534 -1.1750
  266MOL0     H35874   4.632   9.277   6.147  0.0453 -0.5262  0.5817
  266MOL0     H35875   4.409   9.175   6.140 -4.0411  1.6795 -3.7553
  266MOL0     H35876   4.285   9.020   6.165 -0.6862  3.4052 -0.7824
  266MOL0     H35877   4.147   9.058   6.066  0.2655  0.3890 -0.6638
  266MOL0     H35878   4.101   8.865   6.161  0.7271  1.7536 -0.2763
  266MOL0     H35879   4.103   8.840   5.984  1.0976 -0.7755 -1.3019
  266MOL0     H35880   4.342   8.737   6.007  0.2778 -1.6237 -0.9705
  266MOL0     H35881   4.202   8.654   6.036 -2.2036  0.5780  2.5943
  266MOL0     H35882   4.246   8.714   6.301  0.7516  0.7516  0.6288
  266MOL0     H35883   4.327   8.584   6.211  3.1597  0.5696 -0.1886
  266MOL0     H35884   4.454   8.858   6.229  0.1226  0.5905  2.6789
  266MOL0     H35885   4.527   8.709   6.179  1.3497  1.5018  0.8083
  266MOL0     H35886   4.579   8.822   6.406 -1.3417  0.5220 -0.1718
  266MOL0     H35887   4.420   8.743   6.464 -0.2795  2.4705  0.5175
  266MOL0     H35888   4.654   8.586   6.361  1.0993 -4.3352  0.7724
  266MOL0     H35889   4.509   8.520   6.430  1.1143 -0.0732  1.7144
  266MOL0     H35890   4.666   8.511   6.613 -0.8080 -0.7093 -4.0507
  266MOL0     H35891   4.540   8.623   6.656 -0.5404  1.7396 -0.4781
  266MOL0     H35892   4.502   8.956   5.791 -0.2534 -1.7623  1.2443
  266MOL0     H35893   4.738   9.057   5.796  0.4789  0.8522  1.8337
  266MOL0     H35894   4.979   9.440   6.082  0.2347  2.7397 -0.3568
  266MOL0     H35895   5.214   9.481   6.127 -0.8829  0.2724  0.0515
  266MOL0     H35896   7.184   9.362   5.286  0.0863 -1.1226 -1.1463
  266MOL0     H35897   7.409   9.308   5.362  1.4638 -0.6963  3.6023
  266MOL0     H35898   7.728   9.222   5.505 -0.2758 -1.4607 -1.0103
  266MOL0     H35899   7.972   9.234   5.569  0.1001  1.9442  1.0247
  266MOL0     H35900   8.141   8.988   5.909  0.0059 -1.3720 -1.8958
  266MOL0     H35901   8.262   9.122   5.897 -0.8734  0.6567  1.3820
  266MOL0     H35902   8.030   9.065   6.060 -1.3585 -0.5799 -1.2432
  266MOL0     H35903   8.010   9.224   5.990  0.9490  0.7020  0.5306
  266MOL0     H35904   8.197   9.310   6.092  2.0811 -0.5017 -1.8449
  266MOL0     H35905   8.256   9.161   6.158  0.0124  0.7159 -1.7438
  266MOL0     H35906   8.051   9.115   6.283 -1.5373 -0.5596  0.0414
  266MOL0     H35907   7.988   9.268   6.206 -0.2882 -0.8852  0.2482
  266MOL0     H35908   8.286   9.395   6.493 -0.8654 -0.5253  0.2354
  266MOL0     H35909   7.926   8.982   5.914  1.6493  0.6875  0.8114
  266MOL0     H35910   7.677   8.967   5.855  0.4505  0.8822  1.1465
  267MOL0     O35911   7.915   7.313   8.140  0.2990  0.1199  0.2856
  267MOL0     C35912   7.887   7.310   8.017 -0.0536  0.5358 -0.1230
  267MOL0     O35913   7.973   7.265   7.914 -0.4287 -0.7610  0.4429
  267MOL0     C35914   8.108   7.238   7.924 -0.3961  0.0141 -0.5515
  267MOL0     C35915   8.205   7.284   8.016 -0.4424 -1.0941 -0.0270
  267MOL0     C35916   8.336   7.237   8.012  0.1503  0.7456 -0.6578
  267MOL0     C35917   8.382   7.163   7.899  0.0250 -0.1999 -0.3421
  267MOL0     O35918   8.516   7.135   7.900  0.3324 -0.3586 -0.9314
  267MOL0     C35919   8.578   7.099   7.782  0.3746  0.6821 -0.2222
  267MOL0     C35920   8.730   7.117   7.781  1.0635  0.5537 -0.1663
  267MOL0     C35921   8.768   7.261   7.785 -0.2717 -0.3669  0.0843
  267MOL0     C35922   8.708   7.339   7.657  0.5958  0.5143 -0.6649
  267MOL0     C35923   8.802   7.454   7.620 -1.0205  0.4160 -0.0405
  267MOL0     C35924   8.751   7.524   7.492 -1.0272 -1.1669 -0.0845
  267MOL0     C35925   8.604   7.563   7.475 -0.3921  0.5641 -0.6163
  267MOL0     C35926   8.567   7.655   7.584 -0.1899 -1.0568 -0.0625
  267MOL0     N35927   8.461   7.756   7.553 -0.6989 -0.6922 -0.7007
  267MOL0     C35928   8.423   7.822   7.438 -0.7140 -0.1454  0.4101
  267MOL0     C35929   8.337   7.914   7.477  1.1937  1.4680  0.0410
  267MOL0     C35930   8.269   7.989   7.371  0.0914  0.0887  0.2848
  267MOL0     C35931   8.126   8.016   7.415 -0.6678 -1.3990  0.2477
  267MOL0     C35932   8.053   8.101   7.303  0.5235  0.2074 -0.0021
  267MOL0     C35933   7.901   8.107   7.343  0.0403 -0.8532 -0.0034
  267MOL0     O35934   7.872   8.214   7.432  0.1934 -0.2878  0.0194
  267MOL0     C35935   7.741   8.247   7.435  0.3750 -0.3649 -0.6186
  267MOL0     C35936   7.644   8.157   7.472  0.5340  0.8793  0.4040
  267MOL0     C35937   7.513   8.194   7.466  0.0743 -1.0992  0.1545
  267MOL0     C35938   7.414   8.097   7.519  0.3562  0.5708  0.2545
  267MOL0     C35939   7.473   8.330   7.425 -0.3571 -0.3250 -0.1665
  267MOL0     C35940   7.325   8.367   7.415 -0.7659 -0.1991 -0.2639
  267MOL0     O35941   7.305   8.497   7.373 -0.0834 -0.1802 -0.4330
  267MOL0     C35942   7.181   8.536   7.343  0.5831 -0.3001 -0.0223
  267MOL0     C35943   7.115   8.479   7.236 -0.5244  0.5194 -0.0253
  267MOL0     C35944   6.979   8.504   7.206  0.3392  0.3670 -0.4867
  267MOL0     C35945   6.917   8.613   7.278  0.0801 -0.4728  0.4550
  267MOL0     O35946   6.787   8.652   7.241  1.1533  0.5418 -0.0617
  267MOL0     C35947   6.730   8.773   7.301  0.4010  0.0411  0.2179
  267MOL0     C35948   6.611   8.839   7.220 -0.4654  0.1118 -0.0299
  267MOL0     C35949   6.487   8.764   7.238  0.7516  0.5451 -0.3600
  267MOL0     C35950   6.370   8.837   7.161 -0.1315 -0.5018  0.5201
  267MOL0     C35951   6.240   8.752   7.162  0.5390  1.2070 -0.3326
  267MOL0     C35952   6.130   8.830   7.091 -0.0689 -0.9563  0.3603
  267MOL0     C35953   5.995   8.765   7.112  0.6742 -0.3788 -0.0227
  267MOL0     C35954   5.980   8.627   7.049 -0.3074 -0.0574 -0.3907
  267MOL0    Cl35955   5.828   8.560   7.125  0.0429  0.0678 -0.0233
  267MOL0     C35956   6.995   8.681   7.377 -0.0373 -1.2374  0.6407
  267MOL0     C35957   7.122   8.642   7.414 -0.0571  0.1681 -0.6818
  267MOL0     O35958   7.232   8.291   7.455  0.3410 -0.1345  0.0154
  267MOL0     C35959   7.575   8.420   7.394 -0.4245  0.4403  0.2272
  267MOL0     C35960   7.711   8.373   7.397 -0.2856  0.6168 -0.0954
  267MOL0     N35961   8.323   7.911   7.620 -0.5874  0.6575  0.7989
  267MOL0     N35962   8.400   7.817   7.662 -0.7848 -0.1505  0.0414
  267MOL0     C35963   8.285   7.124   7.805  0.1180  0.2062 -0.0770
  267MOL0     C35964   8.153   7.153   7.817  0.6739 -0.5566  0.0105
  267MOL0     C35965   7.752   7.357   7.970  0.2757 -0.1255 -0.6795
  267MOL0     C35966   7.658   7.398   8.069 -0.1399 -0.4299 -0.0324
  267MOL0     C35967   7.530   7.437   8.034 -0.1904  0.3998 -0.3502
  267MOL0     C35968   7.495   7.440   7.897 -0.2777 -0.1688  0.1640
  267MOL0     O35969   7.375   7.502   7.865 -0.6056 -0.2495  0.3572
  267MOL0     C35970   7.244   7.467   7.917 -0.1831  0.7489  0.5498
  267MOL0     C35971   7.168   7.597   7.938  0.0184  1.4302 -0.0648
  267MOL0     C35972   7.031   7.577   7.892 -0.2899 -0.4446  1.2939
  267MOL0     C35973   6.943   7.703   7.921  0.3315  0.0661  0.0009
  267MOL0     C35974   6.905   7.729   8.061 -0.2482  0.0741 -0.1591
  267MOL0     C35975   6.875   7.765   8.172 -0.7830  1.8281  0.0972
  267MOL0     C35976   7.583   7.396   7.800 -0.0682  0.2370  0.7554
  267MOL0     C35977   7.713   7.357   7.842  0.9600  0.0426  0.0908
  267MOL0     H35978   8.184   7.357   8.093 -0.5066  1.8796 -2.6628
  267MOL0     H35979   8.405   7.287   8.079  2.2021 -1.2139 -1.1790
  267MOL0     H35980   8.559   6.992   7.775  2.1660  0.2035  1.3397
  267MOL0     H35981   8.536   7.150   7.694  0.2433 -1.1561 -1.2760
  267MOL0     H35982   8.776   7.077   7.872  0.1816  2.5916  1.2509
  267MOL0     H35983   8.775   7.065   7.696  0.2470 -0.0920 -0.2091
  267MOL0     H35984   8.754   7.318   7.877 -0.8004 -1.3859  0.6517
  267MOL0     H35985   8.876   7.268   7.769 -0.0772  0.0492  1.4816
  267MOL0     H35986   8.704   7.269   7.573 -2.0019  0.4551 -0.5765
  267MOL0     H35987   8.609   7.377   7.681  0.1547 -0.6374 -0.6081
  267MOL0     H35988   8.810   7.523   7.704 -1.4841  0.4110  0.0097
  267MOL0     H35989   8.897   7.405   7.594 -2.5421 -1.7565 -1.9514
  267MOL0     H35990   8.811   7.613   7.471 -1.0765 -0.6343  1.8098
  267MOL0     H35991   8.774   7.448   7.417  2.0069 -0.2090 -0.2620
  267MOL0     H35992   8.603   7.613   7.378  0.7898  0.0802 -0.9023
  267MOL0     H35993   8.534   7.480   7.490 -1.2087  1.6708  2.4533
  267MOL0     H35994   8.649   7.723   7.609 -0.3419  0.7192 -3.7260
  267MOL0     H35995   8.543   7.593   7.671  0.1179 -0.2865  0.5851
  267MOL0     H35996   8.461   7.804   7.338 -2.5974 -2.4345  0.0042
  267MOL0     H35997   8.310   8.090   7.359  0.9112 -0.3454 -0.7304
  267MOL0     H35998   8.261   7.928   7.281  0.5450  1.1346 -0.4822
  267MOL0     H35999   8.126   8.057   7.517 -4.3468  0.6752 -0.4254
  267MOL0     H36000   8.060   7.931   7.433 -2.9975  0.4850  1.1156
  267MOL0     H36001   8.063   8.059   7.203  0.9909  1.9085 -0.7026
  267MOL0     H36002   8.090   8.203   7.291 -1.1888  0.6979 -1.6767
  267MOL0     H36003   7.865   8.019   7.397 -2.6427 -0.4246 -0.9301
  267MOL0     H36004   7.836   8.127   7.258 -0.5473 -3.0078 -0.1180
  267MOL0     H36005   7.685   8.057   7.480  0.9155  0.6760 -2.9073
  267MOL0     H36006   7.367   8.144   7.606 -0.5054 -1.3009  0.8586
  267MOL0     H36007   7.341   8.060   7.445  0.8430 -2.1844  1.0272
  267MOL0     H36008   7.469   8.008   7.553  1.0063  1.5828  1.9538
  267MOL0     H36009   7.160   8.392   7.190  0.0453  1.0878 -0.5587
  267MOL0     H36010   6.937   8.446   7.124  1.3765  1.3731 -1.7919
  267MOL0     H36011   6.705   8.745   7.404  2.0044 -3.0742 -0.1066
  267MOL0     H36012   6.806   8.852   7.307  1.0268 -0.6373  1.7115
  267MOL0     H36013   6.597   8.943   7.253 -0.2357  0.7994 -1.9399
  267MOL0     H36014   6.640   8.839   7.115 -1.6244  1.3487 -0.3762
  267MOL0     H36015   6.459   8.766   7.344  1.2782  0.2621 -0.2141
  267MOL0     H36016   6.496   8.661   7.203 -0.2355 -0.1710  1.3511
  267MOL0     H36017   6.352   8.942   7.186  1.4870  0.3798 -1.7093
  267MOL0     H36018   6.406   8.846   7.059 -1.4533 -0.1367  0.0628
  267MOL0     H36019   6.214   8.733   7.267  1.6010  4.6960  0.7007
  267MOL0     H36020   6.268   8.654   7.122  2.6239  0.5975  2.2691
  267MOL0     H36021   6.137   8.930   7.134  0.0062 -0.8441  0.0851
  267MOL0     H36022   6.143   8.833   6.983  0.4607 -1.1677  0.4167
  267MOL0     H36023   5.921   8.832   7.068 -0.6675 -1.1753  0.9742
  267MOL0     H36024   5.983   8.774   7.221 -1.5569  3.9151 -0.4341
  267MOL0     H36025   6.060   8.557   7.075  1.9463  2.2186 -0.7878
  267MOL0     H36026   5.990   8.635   6.940 -0.7471 -1.6562 -0.5615
  267MOL0     H36027   6.946   8.756   7.438  0.3863 -0.1202 -0.3754
  267MOL0     H36028   7.179   8.692   7.492 -0.1346 -2.3550  1.0980
  267MOL0     H36029   7.563   8.516   7.346 -0.7454 -0.7296 -2.1382
  267MOL0     H36030   7.785   8.442   7.359  1.8581 -0.8918  1.1479
  267MOL0     H36031   8.302   7.064   7.717 -1.4019  0.6341 -0.6891
  267MOL0     H36032   8.087   7.119   7.738  1.4972  0.2884 -1.0825
  267MOL0     H36033   7.689   7.407   8.172  2.0443  0.6941 -0.7285
  267MOL0     H36034   7.463   7.459   8.116  1.8719  0.1309  1.4862
  267MOL0     H36035   7.201   7.407   7.837  0.5912  0.7739  0.1083
  267MOL0     H36036   7.261   7.416   8.012  1.2087  2.3789  1.2417
  267MOL0     H36037   7.224   7.673   7.884  4.4445 -3.3412 -3.1257
  267MOL0     H36038   7.166   7.623   8.045  0.7375  0.3092  0.2433
  267MOL0     H36039   6.987   7.487   7.936 -2.8027  0.1992  0.2275
  267MOL0     H36040   7.026   7.564   7.784 -2.5626  0.6523  1.2216
  267MOL0     H36041   6.846   7.670   7.882 -1.9733  0.8376  4.3806
  267MOL0     H36042   6.982   7.792   7.871 -1.8435 -0.7836 -3.5501
  267MOL0     H36043   6.849   7.806   8.268  2.1460 -1.1018  2.4152
  267MOL0     H36044   7.565   7.405   7.693  0.7256  1.1676  0.6793
  267MOL0     H36045   7.785   7.318   7.771 -1.2556 -1.9057 -1.1884
  268MOL0     O36046   2.379   9.735   7.678 -0.4148  0.2260 -0.0233
  268MOL0     C36047   2.391   9.656   7.770 -0.4426  0.1639  0.6958
  268MOL0     O36048   2.427   9.522   7.751 -0.2949 -0.3372 -0.0724
  268MOL0     C36049   2.380   9.450   7.645  0.5059 -0.9145 -0.1779
  268MOL0     C36050   2.250   9.468   7.596 -0.2913 -0.9590  0.4812
  268MOL0     C36051   2.208   9.384   7.492 -0.6722  0.9875 -0.0488
  268MOL0     C36052   2.293   9.289   7.432 -0.8221 -0.0870  0.4232
  268MOL0     O36053   2.243   9.202   7.335 -0.1227  0.5190  0.2076
  268MOL0     C36054   2.328   9.110   7.264 -0.1157 -0.2253  0.4303
  268MOL0     C36055   2.251   8.995   7.198 -0.2137 -0.1012 -0.1604
  268MOL0     C36056   2.125   9.039   7.117 -0.3288  0.1307  0.3686
  268MOL0     C36057   2.064   8.925   7.032  0.6596 -0.0572 -0.0054
  268MOL0     C36058   1.922   8.968   6.985  0.4732 -0.0004  0.6931
  268MOL0     C36059   1.875   8.897   6.855  0.1649 -0.8206  0.0834
  268MOL0     C36060   1.755   8.967   6.790  0.5280  0.1178 -0.1286
  268MOL0     C36061   1.781   9.110   6.742 -0.1026  0.3765  0.3877
  268MOL0     N36062   1.880   9.112   6.635  0.3087 -0.8629 -0.1035
  268MOL0     C36063   2.010   9.159   6.642 -0.0255  0.2246  0.5001
  268MOL0     C36064   2.077   9.137   6.524  0.1791 -0.1214 -0.4894
  268MOL0     C36065   2.212   9.191   6.491 -0.1186  0.4141  0.4473
  268MOL0     C36066   2.253   9.199   6.345 -0.4638 -0.2823  0.5996
  268MOL0     C36067   2.378   9.285   6.337  0.3550  0.2178  0.0779
  268MOL0     C36068   2.386   9.366   6.208 -0.2103  1.1790  0.6492
  268MOL0     O36069   2.412   9.277   6.094 -0.1943 -0.1789 -0.2126
  268MOL0     C36070   2.547   9.255   6.061  0.4993 -0.1772  0.7381
  268MOL0     C36071   2.602   9.131   6.067 -0.1906  0.4826  0.3408
  268MOL0     C36072   2.732   9.099   6.023  0.4671 -0.5613  0.3259
  268MOL0     C36073   2.769   8.952   6.017  0.2683 -0.6011 -0.7692
  268MOL0     C36074   2.819   9.194   5.963 -0.6411 -0.1795 -0.0646
  268MOL0     C36075   2.961   9.165   5.911  0.7648  0.1614  0.7262
  268MOL0     O36076   2.997   9.038   5.890  0.0906 -0.3546  0.3795
  268MOL0     C36077   3.137   9.017   5.870  0.8610  0.2148  0.2388
  268MOL0     C36078   3.210   9.045   5.753  0.1571 -0.0766 -0.4281
  268MOL0     C36079   3.352   9.022   5.748 -0.8617  0.6804 -0.8927
  268MOL0     C36080   3.408   8.939   5.843  0.5213 -0.2003 -0.5874
  268MOL0     O36081   3.534   8.888   5.847 -0.4619  0.0676 -0.6856
  268MOL0     C36082   3.635   8.930   5.750  0.2682  0.0483  0.3175
  268MOL0     C36083   3.658   8.830   5.640  0.2060 -0.4023 -0.0644
  268MOL0     C36084   3.701   8.690   5.689  0.1658 -0.9995  1.0676
  268MOL0     C36085   3.764   8.608   5.568  0.1013 -0.1421 -0.5960
  268MOL0     C36086   3.775   8.451   5.588 -0.2517 -0.5284  0.4838
  268MOL0     C36087   3.871   8.385   5.482  0.0773  0.1333  0.2688
  268MOL0     C36088   3.871   8.232   5.511 -0.5187 -0.0424  0.3872
  268MOL0     C36089   3.953   8.152   5.401  0.0892 -0.2423 -0.7483
  268MOL0    Cl36090   4.115   8.239   5.395  0.1769  0.0175  0.0016
  268MOL0     C36091   3.336   8.908   5.957 -0.4264  0.8965 -0.2318
  268MOL0     C36092   3.206   8.953   5.975 -0.8612 -1.0561  0.8440
  268MOL0     O36093   3.033   9.260   5.901 -0.2540  0.2810 -0.1201
  268MOL0     C36094   2.761   9.324   5.944 -0.0515  0.2741  0.0327
  268MOL0     C36095   2.629   9.353   6.000  0.0688  0.3770 -0.5867
  268MOL0     N36096   1.991   9.068   6.449  0.1896  0.1545  0.0908
  268MOL0     N36097   1.871   9.059   6.502 -0.2698 -1.2727 -0.1087
  268MOL0     C36098   2.428   9.291   7.472 -0.0941 -0.0505 -0.7434
  268MOL0     C36099   2.468   9.365   7.585 -0.1202  0.7423  0.3884
  268MOL0     C36100   2.376   9.709   7.904  0.9897 -0.4159 -0.5163
  268MOL0     C36101   2.340   9.623   8.010 -0.5263 -0.1060  1.0704
  268MOL0     C36102   2.319   9.663   8.142 -0.1999 -1.0393  0.2495
  268MOL0     C36103   2.335   9.799   8.166  0.6625 -0.6748  0.4834
  268MOL0     O36104   2.302   9.838   8.296 -0.2989 -0.0279  0.5113
  268MOL0     C36105   2.397   9.931   8.367  1.0631  0.6202 -0.7296
  268MOL0     C36106   2.331  10.067   8.362  0.3084  0.5657 -0.8110
  268MOL0     C36107   2.427  10.179   8.393 -0.6302 -0.3488 -0.0389
  268MOL0     C36108   2.379  10.327   8.419  1.0431 -0.3643  0.2545
  268MOL0     C36109   2.491  10.414   8.473  0.7304 -0.4807  0.3140
  268MOL0     C36110   2.568  10.481   8.538 -1.2555 -0.4138  0.1227
  268MOL0     C36111   2.381   9.891   8.059  0.1802  1.1977  0.1443
  268MOL0     C36112   2.398   9.850   7.928  1.2342  0.7972 -0.1024
  268MOL0     H36113   2.176   9.543   7.619  1.0289  0.4699  0.2113
  268MOL0     H36114   2.108   9.393   7.449  0.1790  0.0363 -2.4093
  268MOL0     H36115   2.376   9.176   7.191  0.0218 -0.8377 -0.0318
  268MOL0     H36116   2.398   9.057   7.329 -1.6703  1.0688  3.3728
  268MOL0     H36117   2.313   8.937   7.131 -0.2700 -0.6681  0.2724
  268MOL0     H36118   2.219   8.923   7.274  1.4551 -2.5352 -1.6307
  268MOL0     H36119   2.048   9.073   7.187 -1.0625 -0.6368 -0.0459
  268MOL0     H36120   2.162   9.117   7.050  2.1911 -0.9365  0.4241
  268MOL0     H36121   2.129   8.905   6.946  1.2800 -3.6196  1.1262
  268MOL0     H36122   2.053   8.828   7.081  3.2833 -0.6311 -0.4023
  268MOL0     H36123   1.851   8.962   7.068 -1.8804  3.0594 -0.9113
  268MOL0     H36124   1.931   9.075   6.968  5.7151 -0.0665  1.2932
  268MOL0     H36125   1.956   8.904   6.782  2.1429 -1.8880  2.0669
  268MOL0     H36126   1.859   8.791   6.877  0.8333 -0.2559  4.0361
  268MOL0     H36127   1.716   8.915   6.702  1.4446  2.1410 -1.8361
  268MOL0     H36128   1.677   8.963   6.866  1.9453 -0.4558  1.3605
  268MOL0     H36129   1.821   9.179   6.818  2.7814  1.7481 -2.1317
  268MOL0     H36130   1.683   9.140   6.704  0.2358  1.8293  0.5893
  268MOL0     H36131   2.067   9.204   6.723  0.9037 -0.7703  0.4267
  268MOL0     H36132   2.207   9.294   6.527 -1.1813  0.7669 -0.6261
  268MOL0     H36133   2.285   9.126   6.538 -0.2549 -0.2949 -0.2866
  268MOL0     H36134   2.167   9.237   6.289 -2.3958 -4.3319  0.4268
  268MOL0     H36135   2.272   9.106   6.290  1.1652  1.8955 -2.8430
  268MOL0     H36136   2.463   9.217   6.349  0.1715  0.4515  3.8415
  268MOL0     H36137   2.376   9.352   6.423  0.7594 -0.5193  0.6677
  268MOL0     H36138   2.470   9.434   6.220  1.3580 -0.8817  2.0853
  268MOL0     H36139   2.296   9.423   6.183  0.0132  0.8600 -1.0031
  268MOL0     H36140   2.544   9.058   6.122  1.7287 -2.1630 -0.9046
  268MOL0     H36141   2.853   8.940   6.086 -0.1879  2.3762  0.4982
  268MOL0     H36142   2.696   8.885   6.064  2.2280 -1.3935  1.3466
  268MOL0     H36143   2.778   8.921   5.913 -0.5010  1.7412 -1.5969
  268MOL0     H36144   3.158   9.091   5.670  1.0585  0.8414 -0.4985
  268MOL0     H36145   3.408   9.054   5.660  0.6218  0.0933 -0.2034
  268MOL0     H36146   3.617   9.035   5.724  1.5560  0.1437 -0.2556
  268MOL0     H36147   3.729   8.938   5.806 -0.0333  1.2572  0.6796
  268MOL0     H36148   3.576   8.827   5.568 -0.8724  0.3283  1.0975
  268MOL0     H36149   3.749   8.863   5.589  1.0507 -1.2406  0.8463
  268MOL0     H36150   3.612   8.639   5.727 -1.6720  0.1746 -1.3973
  268MOL0     H36151   3.784   8.697   5.761  1.4673  0.1475 -0.4723
  268MOL0     H36152   3.699   8.617   5.481  1.5726 -1.0028 -1.8452
  268MOL0     H36153   3.859   8.654   5.537 -0.9273  2.4745 -0.0782
  268MOL0     H36154   3.679   8.399   5.579 -1.1581  0.9603  1.2903
  268MOL0     H36155   3.818   8.436   5.688  1.9324 -1.4765 -0.5262
  268MOL0     H36156   3.831   8.401   5.382 -0.2108 -0.3335  0.3098
  268MOL0     H36157   3.967   8.438   5.488 -1.4517  2.9903  1.7100
  268MOL0     H36158   3.769   8.192   5.515 -0.1874 -1.1610 -1.3742
  268MOL0     H36159   3.916   8.217   5.610 -1.5220 -0.8760  0.7395
  268MOL0     H36160   3.903   8.163   5.305  0.4294  1.0636 -0.8049
  268MOL0     H36161   3.966   8.048   5.433  2.5465  0.7899  2.1718
  268MOL0     H36162   3.383   8.846   6.033 -2.1427  1.0788  1.0287
  268MOL0     H36163   3.159   8.940   6.072 -1.4003 -1.9457  0.4854
  268MOL0     H36164   2.800   9.404   5.883  1.8455 -0.2764  0.4710
  268MOL0     H36165   2.595   9.453   5.974  1.1814  0.4200 -1.9921
  268MOL0     H36166   2.496   9.220   7.427  0.9554 -0.2084  1.0394
  268MOL0     H36167   2.570   9.357   7.621  0.4450  0.7817 -1.0997
  268MOL0     H36168   2.329   9.517   7.990  2.0742 -0.3845  0.7980
  268MOL0     H36169   2.277   9.601   8.221  0.8348 -0.2498  1.4603
  268MOL0     H36170   2.418   9.892   8.467  1.8374  0.0794 -1.0964
  268MOL0     H36171   2.494   9.945   8.320  2.6018 -0.5444  1.8669
  268MOL0     H36172   2.241  10.081   8.423  0.4246  1.8416 -0.9019
  268MOL0     H36173   2.296  10.082   8.259 -1.7285 -0.0181 -0.2521
  268MOL0     H36174   2.515  10.178   8.328 -1.0279  3.3413 -0.8422
  268MOL0     H36175   2.476  10.147   8.486  1.2438  0.0516 -0.8320
  268MOL0     H36176   2.290  10.325   8.483  0.1847 -3.4427 -0.8733
  268MOL0     H36177   2.335  10.364   8.326  0.0757  0.5188  1.0351
  268MOL0     H36178   2.637  10.535   8.600 -2.3602  2.7350 -1.2204
  268MOL0     H36179   2.397   9.994   8.090 -1.7512  0.8664  2.5799
  268MOL0     H36180   2.422   9.926   7.854 -1.3469  2.0410  0.2451
  269MOL0     O36181  10.204   0.591   4.067  0.4855  0.0928 -0.2408
  269MOL0     C36182  10.284   0.620   3.983 -0.3649 -0.5624 -0.1622
  269MOL0     O36183  10.255   0.627   3.850  0.7938 -0.0411 -0.1159
  269MOL0     C36184  10.123   0.604   3.816 -0.6793  0.1039 -0.0715
  269MOL0     C36185  10.101   0.463   3.790 -0.5191 -0.5791 -0.2137
  269MOL0     C36186   9.978   0.433   3.747  0.0950  0.1803  0.3187
  269MOL0     C36187   9.867   0.520   3.752  0.1277  0.0817 -0.1755
  269MOL0     O36188   9.742   0.482   3.726  0.2084  0.0285 -0.1860
  269MOL0     C36189   9.726   0.398   3.607  0.9376  0.6800  1.3503
  269MOL0     C36190   9.601   0.314   3.622 -0.4953  0.0123  0.1525
  269MOL0     C36191   9.481   0.401   3.666  0.5802  0.2061 -0.3517
  269MOL0     C36192   9.353   0.372   3.584 -0.5740 -0.2723 -0.1155
  269MOL0     C36193   9.226   0.443   3.644  0.1173  1.0092  0.0878
  269MOL0     C36194   9.142   0.355   3.742  0.2262  0.4855 -0.3776
  269MOL0     C36195   9.015   0.435   3.767  0.4497  0.4226  0.3777
  269MOL0     C36196   8.924   0.372   3.870 -0.1971  0.0469 -0.2888
  269MOL0     N36197   8.802   0.446   3.891  0.3871 -0.1494  0.2916
  269MOL0     C36198   8.786   0.578   3.877 -1.6326  0.3049  0.2652
  269MOL0     C36199   8.658   0.610   3.906 -1.0153  0.4041 -0.4252
  269MOL0     C36200   8.602   0.747   3.915 -0.3055  0.1515 -0.2899
  269MOL0     C36201   8.656   0.828   4.032 -0.4513  0.6800  0.1959
  269MOL0     C36202   8.614   0.977   4.015  0.8011  0.0719  0.8355
  269MOL0     C36203   8.681   1.067   4.121  0.1843 -0.8057  0.1132
  269MOL0     O36204   8.667   1.022   4.252 -0.0886 -0.3983 -0.0710
  269MOL0     C36205   8.544   1.003   4.312  0.9328  0.1509 -0.2139
  269MOL0     C36206   8.533   0.918   4.418 -0.2854 -0.1748  0.3904
  269MOL0     C36207   8.408   0.877   4.478 -0.4557 -0.0145  0.9416
  269MOL0     C36208   8.418   0.785   4.591  0.4317  0.1094 -0.4001
  269MOL0     C36209   8.292   0.954   4.443 -0.0518  0.1287 -0.2665
  269MOL0     C36210   8.157   0.936   4.504 -0.1287  0.4160  0.0406
  269MOL0     O36211   8.047   0.960   4.423  0.0600 -0.3384 -0.2272
  269MOL0     C36212   7.919   0.952   4.474  0.8237 -0.3836  0.2876
  269MOL0     C36213   7.883   1.031   4.587  0.9741 -0.3929  0.2191
  269MOL0     C36214   7.748   1.053   4.618 -0.8764  0.0705  1.4373
  269MOL0     C36215   7.655   0.984   4.545 -0.4459  0.1049  0.3400
  269MOL0     O36216   7.530   1.008   4.579  0.7476  0.1026 -0.2202
  269MOL0     C36217   7.466   1.109   4.498 -0.0480 -0.6210 -0.4426
  269MOL0     C36218   7.342   1.166   4.566  0.0438 -0.2143 -0.6080
  269MOL0     C36219   7.276   1.275   4.497  0.5933  1.0590  0.1633
  269MOL0     C36220   7.151   1.315   4.575  0.4914  0.3148 -0.1414
  269MOL0     C36221   7.062   1.416   4.506  0.1877  0.5089  0.2466
  269MOL0     C36222   7.124   1.556   4.515 -0.2027 -0.6538 -0.1657
  269MOL0     C36223   7.029   1.660   4.446 -0.1581  0.3329 -0.1025
  269MOL0     C36224   7.095   1.775   4.364 -0.0206 -0.1408  0.1701
  269MOL0    Cl36225   7.173   1.678   4.229 -0.0343  0.3566 -0.4813
  269MOL0     C36226   7.684   0.895   4.438 -0.9683  0.0454 -1.0918
  269MOL0     C36227   7.824   0.878   4.404  0.0431 -0.6986  0.7875
  269MOL0     O36228   8.145   0.898   4.616 -0.4495  0.2432 -0.3162
  269MOL0     C36229   8.303   1.044   4.338 -0.0796  0.1697  0.0756
  269MOL0     C36230   8.426   1.067   4.274  0.0260  0.5068 -0.0518
  269MOL0     N36231   8.609   0.490   3.958  1.0822  0.7651  0.6446
  269MOL0     N36232   8.688   0.384   3.939  0.4738 -0.4689 -0.2676
  269MOL0     C36233   9.890   0.656   3.777 -0.5019 -0.9052  0.4157
  269MOL0     C36234  10.024   0.702   3.803 -0.4766 -0.2538  1.2685
  269MOL0     C36235  10.409   0.687   4.032  0.3717 -0.0884  0.9139
  269MOL0     C36236  10.491   0.763   3.948 -0.4844 -1.5045  0.2488
  269MOL0     C36237  10.612   0.818   3.988 -0.4532  0.5205 -0.0793
  269MOL0     C36238  10.664   0.796   4.115  0.0256  0.0211  0.0799
  269MOL0     O36239  10.781   0.852   4.162 -0.0542  0.1133  0.0408
  269MOL0     C36240  10.844   0.953   4.082  0.1389 -0.0760  0.4722
  269MOL0     C36241  10.956   1.006   4.168  0.0677  0.2144 -0.0942
  269MOL0     C36242  11.058   1.088   4.089  0.3371  0.2152  0.2197
  269MOL0     C36243  11.185   1.135   4.162 -0.4261  0.2396  0.5533
  269MOL0     C36244  11.243   1.017   4.219 -0.8263  0.1103 -1.0910
  269MOL0     C36245  11.286   0.911   4.267  0.8324  0.1188  0.3482
  269MOL0     C36246  10.589   0.715   4.192 -0.6702  0.9505 -0.5563
  269MOL0     C36247  10.463   0.662   4.154 -0.7566  0.6239  0.0187
  269MOL0     H36248  10.179   0.389   3.786  3.0466  2.8813 -3.1917
  269MOL0     H36249   9.960   0.328   3.727  0.3876 -0.0078  1.0294
  269MOL0     H36250   9.696   0.467   3.528  0.4213 -1.1678 -0.1267
  269MOL0     H36251   9.809   0.330   3.589  1.5131  0.6548  3.6839
  269MOL0     H36252   9.586   0.263   3.527  2.3599 -0.6487 -0.0472
  269MOL0     H36253   9.615   0.244   3.705 -1.5896 -1.9244 -1.1979
  269MOL0     H36254   9.448   0.387   3.769  2.5750  0.5559  0.3870
  269MOL0     H36255   9.500   0.508   3.656  2.1200  0.0518  0.5596
  269MOL0     H36256   9.373   0.404   3.481 -2.1151  1.5424  0.0847
  269MOL0     H36257   9.335   0.264   3.573 -1.9139  0.0844 -1.8624
  269MOL0     H36258   9.246   0.538   3.695 -2.3075 -0.5044  4.4236
  269MOL0     H36259   9.169   0.469   3.555 -0.5008  3.2894  1.0860
  269MOL0     H36260   9.102   0.265   3.695  0.5060  0.5893 -0.8119
  269MOL0     H36261   9.191   0.322   3.834 -0.3667 -0.9430 -0.5589
  269MOL0     H36262   9.049   0.535   3.794 -2.9681  2.2055 -1.2408
  269MOL0     H36263   8.958   0.437   3.673 -1.5726  2.2378  1.5558
  269MOL0     H36264   8.979   0.370   3.965 -2.5556 -1.7097  1.1609
  269MOL0     H36265   8.892   0.272   3.840 -2.8007  0.3195  1.2436
  269MOL0     H36266   8.865   0.640   3.838 -0.7523 -1.6549 -1.2218
  269MOL0     H36267   8.639   0.795   3.824 -0.1398  2.0226  0.7154
  269MOL0     H36268   8.494   0.743   3.933 -0.1578  1.9916  1.4285
  269MOL0     H36269   8.765   0.821   4.034 -0.3888  1.4096 -0.0765
  269MOL0     H36270   8.629   0.791   4.131  1.0723  0.5131  0.5790
  269MOL0     H36271   8.505   0.980   4.017  0.4851 -4.0146 -0.3788
  269MOL0     H36272   8.642   1.010   3.914 -0.5270 -2.0039 -0.2771
  269MOL0     H36273   8.645   1.170   4.125 -1.0072 -1.2396  2.4499
  269MOL0     H36274   8.787   1.076   4.094  0.6000  5.1416  2.3156
  269MOL0     H36275   8.617   0.854   4.444 -3.2682 -2.8983  4.8132
  269MOL0     H36276   8.382   0.825   4.686  2.7122 -1.1592  1.1092
  269MOL0     H36277   8.357   0.696   4.572 -0.5708  0.2036  2.0790
  269MOL0     H36278   8.521   0.756   4.615 -0.2847 -0.5348  2.2117
  269MOL0     H36279   7.947   1.090   4.652  0.1434 -1.6377  2.2984
  269MOL0     H36280   7.723   1.129   4.691  1.1187  1.9117  0.3498
  269MOL0     H36281   7.529   1.195   4.472 -5.7242  3.7297 -1.8425
  269MOL0     H36282   7.427   1.052   4.413 -2.7550 -0.4754  0.6150
  269MOL0     H36283   7.277   1.086   4.602 -0.1819  0.5259  0.6892
  269MOL0     H36284   7.392   1.201   4.656  0.0830 -1.9002  0.0735
  269MOL0     H36285   7.253   1.241   4.396  1.4298  2.2153 -0.4415
  269MOL0     H36286   7.348   1.357   4.495  2.2277 -0.3370 -0.0674
  269MOL0     H36287   7.092   1.223   4.584  2.5777 -1.1602 -0.9035
  269MOL0     H36288   7.190   1.349   4.671 -0.1044 -2.2395  1.0758
  269MOL0     H36289   6.961   1.431   4.546  0.0574  1.3542 -0.3713
  269MOL0     H36290   7.042   1.384   4.404 -2.9605  1.5306  0.4192
  269MOL0     H36291   7.141   1.586   4.619  0.7982 -2.8313  0.3601
  269MOL0     H36292   7.221   1.565   4.465 -1.7308 -0.7907 -3.3706
  269MOL0     H36293   6.967   1.710   4.521 -1.7589  1.8969 -2.3290
  269MOL0     H36294   6.959   1.604   4.384 -0.3322  1.8547 -1.3213
  269MOL0     H36295   7.163   1.834   4.426 -0.8335  0.4958  0.4783
  269MOL0     H36296   7.022   1.848   4.327  0.4339  0.7977  1.0868
  269MOL0     H36297   7.606   0.839   4.387  1.7396 -3.6142 -1.6875
  269MOL0     H36298   7.851   0.820   4.316 -1.3945 -3.2236  1.9207
  269MOL0     H36299   8.221   1.107   4.305  1.3158  1.3177 -1.3258
  269MOL0     H36300   8.424   1.134   4.189 -3.4933 -0.1670 -0.6611
  269MOL0     H36301   9.811   0.730   3.781  0.2852 -0.0667  0.7173
  269MOL0     H36302  10.045   0.808   3.799 -2.0027  0.0803 -3.0101
  269MOL0     H36303  10.466   0.785   3.845  1.5973  2.5078  0.4374
  269MOL0     H36304  10.670   0.872   3.914  1.8489 -2.4279 -0.6652
  269MOL0     H36305  10.889   0.901   3.997  1.1926  2.5642 -0.7097
  269MOL0     H36306  10.778   1.032   4.043 -0.0491  0.0856  1.1146
  269MOL0     H36307  11.000   0.917   4.214 -0.9990  0.9604  2.5415
  269MOL0     H36308  10.919   1.055   4.258  1.8990 -0.1633  0.9139
  269MOL0     H36309  10.996   1.170   4.052 -0.6319 -0.1003  1.0849
  269MOL0     H36310  11.087   1.029   4.002 -1.5703 -0.9459  0.3219
  269MOL0     H36311  11.169   1.200   4.248 -0.4762 -0.2344  0.9075
  269MOL0     H36312  11.264   1.162   4.092  0.5028 -2.3855  0.4421
  269MOL0     H36313  11.308   0.811   4.298  0.9724 -0.2799 -1.0042
  269MOL0     H36314  10.616   0.709   4.297 -2.7187  1.4988  0.0454
  269MOL0     H36315  10.400   0.608   4.224 -2.7572  2.3176 -0.3472
  270MOL0     O36316   9.637   2.570   9.675  0.5424  0.1396  0.0473
  270MOL0     C36317   9.756   2.606   9.661 -0.1627  0.2971  0.0843
  270MOL0     O36318   9.806   2.733   9.685  0.7522  0.1892  0.0097
  270MOL0     C36319   9.724   2.827   9.736 -0.0727  0.1827  0.0039
  270MOL0     C36320   9.733   2.882   9.870 -0.3161 -0.4074  0.1047
  270MOL0     C36321   9.636   2.968   9.915 -0.2137  0.0885  0.6623
  270MOL0     C36322   9.538   3.011   9.829 -0.0309 -0.6874  0.9510
  270MOL0     O36323   9.452   3.103   9.881 -0.4091 -0.6386 -0.5950
  270MOL0     C36324   9.403   3.191   9.780 -0.1321  0.8706  0.4649
  270MOL0     C36325   9.351   3.328   9.814 -0.2118 -0.2485  0.8709
  270MOL0     C36326   9.235   3.335   9.912 -0.5672 -0.2533 -0.4454
  270MOL0     C36327   9.107   3.298   9.843  0.2110 -0.8670 -0.3372
  270MOL0     C36328   8.992   3.293   9.951  0.2941 -0.4032  0.3773
  270MOL0     C36329   8.860   3.234   9.888 -0.6341 -0.2354  0.3701
  270MOL0     C36330   8.752   3.263  10.000 -0.2701  0.5732  0.4578
  270MOL0     C36331   8.617   3.250   9.944  0.3411  0.4975  0.0433
  270MOL0     N36332   8.504   3.245  10.043  0.0069 -0.1761 -0.1414
  270MOL0     C36333   8.394   3.340  10.044 -0.1145 -0.5973  0.5122
  270MOL0     C36334   8.317   3.315  10.153 -0.0304 -0.3864 -0.9983
  270MOL0     C36335   8.199   3.388  10.222 -0.1120 -0.0596 -0.1008
  270MOL0     C36336   8.078   3.288  10.263  0.5524 -0.1098 -0.0021
  270MOL0     C36337   8.001   3.231  10.145  0.2973 -0.3747 -0.7144
  270MOL0     C36338   7.878   3.146  10.190 -0.3317 -0.2203  0.4075
  270MOL0     O36339   7.925   3.033  10.266  0.4226  0.0509  0.5175
  270MOL0     C36340   7.833   2.956  10.336  0.0496  0.0351 -0.4016
  270MOL0     C36341   7.888   2.847  10.401 -0.1201  0.6396 -0.2270
  270MOL0     C36342   7.812   2.737  10.457 -0.5399  0.0605  0.1034
  270MOL0     C36343   7.888   2.636  10.533 -0.7608 -0.1367 -0.2841
  270MOL0     C36344   7.669   2.752  10.448  0.4866 -0.5673 -0.4699
  270MOL0     C36345   7.574   2.652  10.502  0.2019 -0.3012  0.2918
  270MOL0     O36346   7.444   2.684  10.497 -0.2528 -0.2727 -0.2864
  270MOL0     C36347   7.361   2.617  10.586 -1.0072 -0.6205 -0.2107
  270MOL0     C36348   7.370   2.626  10.724 -0.0342 -0.0111 -0.2733
  270MOL0     C36349   7.274   2.562  10.804  0.2223  0.4609 -0.2566
  270MOL0     C36350   7.172   2.482  10.754  0.2531  0.1037  0.0937
  270MOL0     O36351   7.085   2.433  10.851  0.0388 -0.0997 -0.6099
  270MOL0     C36352   6.980   2.354  10.814  0.4900 -1.0378  0.1966
  270MOL0     C36353   6.925   2.299  10.942  0.0811  0.4050  0.4916
  270MOL0     C36354   6.830   2.177  10.920  0.1373  0.0013 -0.1408
  270MOL0     C36355   6.743   2.146  11.048 -0.4843 -0.6564  0.6407
  270MOL0     C36356   6.656   2.020  11.037  0.3668 -0.7662 -0.6882
  270MOL0     C36357   6.563   2.047  10.919 -0.0206 -0.4814  0.2974
  270MOL0     C36358   6.462   1.937  10.926  0.3760 -0.9139  0.5188
  270MOL0     C36359   6.360   1.959  10.813  0.7905  0.5367 -0.1128
  270MOL0    Cl36360   6.436   1.922  10.650  0.2102  0.0639 -0.4806
  270MOL0     C36361   7.165   2.460  10.609  0.5148  0.0863  0.7243
  270MOL0     C36362   7.263   2.530  10.532 -0.3541 -0.1784 -0.4671
  270MOL0     O36363   7.611   2.535  10.542  0.5042  0.0982 -0.2297
  270MOL0     C36364   7.618   2.865  10.379  0.2223 -0.5077 -0.1513
  270MOL0     C36365   7.697   2.962  10.320 -0.2781 -0.7588 -0.0283
  270MOL0     N36366   8.375   3.200  10.212  0.2240 -0.0369  0.6400
  270MOL0     N36367   8.484   3.166  10.151  0.7572 -0.5566  0.3517
  270MOL0     C36368   9.526   2.963   9.690 -1.0005 -0.1239  0.0289
  270MOL0     C36369   9.621   2.873   9.654  0.9586 -0.4105  0.2818
  270MOL0     C36370   9.848   2.503   9.611 -0.7134  0.0956  0.5669
  270MOL0     C36371   9.815   2.368   9.627 -0.1812  0.6552  0.0431
  270MOL0     C36372   9.894   2.266   9.581  0.1860 -0.2028  0.4220
  270MOL0     C36373  10.015   2.295   9.513  0.0202  1.3521  0.0997
  270MOL0     O36374  10.081   2.182   9.469 -0.3144 -0.0416 -0.1241
  270MOL0     C36375  10.198   2.201   9.390 -0.1237 -0.8140  0.2725
  270MOL0     C36376  10.239   2.072   9.306 -0.0654  0.5050 -0.3385
  270MOL0     C36377  10.311   1.976   9.381  0.1091 -0.0388 -0.1622
  270MOL0     C36378  10.426   2.023   9.474  0.1839  0.2054  0.3491
  270MOL0     C36379  10.516   1.905   9.504  0.1582 -0.0007 -0.1182
  270MOL0     C36380  10.593   1.809   9.521  0.4884  0.5282 -0.5402
  270MOL0     C36381  10.050   2.427   9.491  0.0103 -0.3939 -0.4339
  270MOL0     C36382   9.970   2.529   9.544  0.3064  0.5984  0.7726
  270MOL0     H36383   9.815   2.862   9.938  2.3061  0.9589 -2.4799
  270MOL0     H36384   9.629   2.999  10.019  0.9002 -2.1386  1.4491
  270MOL0     H36385   9.490   3.217   9.718  0.2388  0.1076  0.6507
  270MOL0     H36386   9.321   3.145   9.725 -1.6942  1.3203  2.3380
  270MOL0     H36387   9.423   3.393   9.864  0.1652 -0.1956  0.2713
  270MOL0     H36388   9.333   3.382   9.721 -2.7649  0.7946  1.8984
  270MOL0     H36389   9.260   3.269   9.997  2.1233  0.2498 -0.7387
  270MOL0     H36390   9.221   3.435   9.953 -1.3005 -0.4234 -0.2666
  270MOL0     H36391   9.086   3.370   9.763 -0.1485 -1.3340 -0.6696
  270MOL0     H36392   9.112   3.202   9.791  0.0078 -1.7789  1.2638
  270MOL0     H36393   9.013   3.216  10.025 -3.6866 -0.8717  1.2576
  270MOL0     H36394   8.973   3.387  10.004  0.5745 -1.7661  3.0676
  270MOL0     H36395   8.842   3.290   9.796  2.4294 -1.6942 -1.2844
  270MOL0     H36396   8.859   3.128   9.861 -0.7810  0.0499 -0.7950
  270MOL0     H36397   8.761   3.194  10.085  0.8164  0.1812  0.0492
  270MOL0     H36398   8.761   3.365  10.037 -0.2528  0.8632 -0.3194
  270MOL0     H36399   8.608   3.153   9.894  0.4042 -0.0612  1.0905
  270MOL0     H36400   8.603   3.326   9.867 -0.9771  0.6588  0.4288
  270MOL0     H36401   8.374   3.421   9.976 -0.1221  0.3593  1.6253
  270MOL0     H36402   8.243   3.442  10.307  1.3150 -2.5450  0.8509
  270MOL0     H36403   8.163   3.469  10.157  1.6321  1.9316  1.2673
  270MOL0     H36404   8.014   3.346  10.330  0.0605  1.4765 -1.7485
  270MOL0     H36405   8.124   3.197  10.301  1.1394 -0.4610 -1.4523
  270MOL0     H36406   8.074   3.174  10.088 -1.6579 -0.4974 -3.2628
  270MOL0     H36407   7.971   3.322  10.092 -3.1063  0.0017  1.5389
  270MOL0     H36408   7.820   3.110  10.104 -2.8142 -0.5435  2.1169
  270MOL0     H36409   7.811   3.200  10.258  0.5390  0.6025  0.6329
  270MOL0     H36410   7.995   2.849  10.421  0.3173  4.6202 -2.0139
  270MOL0     H36411   7.996   2.652  10.531 -0.4523 -2.1075 -1.4835
  270MOL0     H36412   7.855   2.649  10.636  2.8969  1.0393  0.8883
  270MOL0     H36413   7.868   2.534  10.500  1.3882 -1.2620  1.6130
  270MOL0     H36414   7.438   2.697  10.769 -1.0276  0.9038 -0.1718
  270MOL0     H36415   7.276   2.583  10.910  2.7729 -0.6088 -0.0348
  270MOL0     H36416   6.908   2.408  10.750 -0.3255 -1.4960  0.7030
  270MOL0     H36417   7.007   2.265  10.757 -2.7724 -2.8027  1.1110
  270MOL0     H36418   7.010   2.263  11.001  0.2630 -1.0850 -0.6010
  270MOL0     H36419   6.870   2.373  11.000  2.2603  1.0044  1.9257
  270MOL0     H36420   6.893   2.087  10.915 -1.7852 -1.3593 -2.6413
  270MOL0     H36421   6.779   2.178  10.823 -0.6089  0.7529  0.2489
  270MOL0     H36422   6.812   2.144  11.134  0.2580 -0.9809  0.0473
  270MOL0     H36423   6.677   2.232  11.062 -0.6327  0.0031 -3.1798
  270MOL0     H36424   6.599   2.012  11.130  0.5860  0.5282 -0.4237
  270MOL0     H36425   6.709   1.925  11.032 -0.0303 -0.9365 -2.9568
  270MOL0     H36426   6.515   2.145  10.920 -0.2284 -0.5610 -0.9264
  270MOL0     H36427   6.620   2.031  10.827 -2.7689 -1.6340 -1.2939
  270MOL0     H36428   6.412   1.934  11.024 -0.6941 -0.5926 -0.0005
  270MOL0     H36429   6.519   1.845  10.915 -0.1849 -1.4108  1.5896
  270MOL0     H36430   6.275   1.892  10.826 -0.1139  1.1311 -2.4591
  270MOL0     H36431   6.321   2.060  10.824  2.4866  0.9424  3.9057
  270MOL0     H36432   7.089   2.393  10.570  1.9304 -1.8779  1.2410
  270MOL0     H36433   7.249   2.527  10.425  1.2231  2.3021 -0.8238
  270MOL0     H36434   7.510   2.871  10.371  0.3235  0.8158 -0.6464
  270MOL0     H36435   7.656   3.044  10.261 -0.7017 -1.8941 -1.3726
  270MOL0     H36436   9.452   3.000   9.620 -0.2258  0.9997 -0.2398
  270MOL0     H36437   9.610   2.843   9.550 -3.5269  2.3267 -0.3031
  270MOL0     H36438   9.721   2.335   9.670 -1.1359  1.0989 -1.6139
  270MOL0     H36439   9.856   2.165   9.585 -0.6658  0.0632 -0.5503
  270MOL0     H36440  10.176   2.281   9.318 -3.6484  3.3111  5.2141
  270MOL0     H36441  10.284   2.236   9.446 -0.5595  1.2779 -0.2649
  270MOL0     H36442  10.305   2.107   9.225  0.9860 -1.4440 -0.3678
  270MOL0     H36443  10.146   2.027   9.270 -0.4957  0.2504  1.0412
  270MOL0     H36444  10.337   1.905   9.302 -4.3602 -0.7686 -1.2503
  270MOL0     H36445  10.243   1.927   9.452  0.0845  1.6048  1.0089
  270MOL0     H36446  10.393   2.058   9.572  0.2085 -1.1398  0.8605
  270MOL0     H36447  10.488   2.102   9.431  1.1901  0.9854  3.0139
  270MOL0     H36448  10.671   1.738   9.540 -0.1729  0.4710  2.3650
  270MOL0     H36449  10.126   2.467   9.425 -1.6981  4.0564 -0.0460
  270MOL0     H36450   9.989   2.636   9.533  1.5883  0.3083 -0.0101
  271MOL0     O36451   0.298   4.573   1.864  0.4997 -0.3564  0.4141
  271MOL0     C36452   0.368   4.624   1.953 -0.3863 -0.0321  0.2617
  271MOL0     O36453   0.330   4.642   2.084 -0.2599 -0.0365  0.3664
  271MOL0     C36454   0.203   4.612   2.125  0.8275 -1.0067 -0.5237
  271MOL0     C36455   0.124   4.493   2.099 -1.2146 -0.9029 -0.9196
  271MOL0     C36456  -0.001   4.479   2.145  0.2731 -0.2682  0.3108
  271MOL0     C36457  -0.059   4.572   2.226  0.4584 -0.1117  0.2858
  271MOL0     O36458  -0.187   4.550   2.258 -0.9169  0.3644 -0.7793
  271MOL0     C36459  -0.255   4.624   2.368  0.2441  0.3005 -0.4033
  271MOL0     C36460  -0.385   4.545   2.388 -0.1391 -0.7440 -0.0939
  271MOL0     C36461  -0.462   4.600   2.506  0.7499 -0.6118 -0.2968
  271MOL0     C36462  -0.602   4.546   2.517 -0.8405  0.3558  0.0653
  271MOL0     C36463  -0.676   4.609   2.642  0.6618 -0.6754  0.3090
  271MOL0     C36464  -0.829   4.576   2.633 -0.6166 -0.0543  0.5374
  271MOL0     C36465  -0.900   4.619   2.766 -0.8447 -0.4572 -0.8539
  271MOL0     C36466  -1.045   4.585   2.747  0.4714  0.0191 -0.4385
  271MOL0     N36467  -1.127   4.595   2.869  0.6838  0.3263  0.2672
  271MOL0     C36468  -1.102   4.547   2.992  0.3117  0.7131  0.3233
  271MOL0     C36469  -1.219   4.549   3.052  0.0549  0.0206  0.6002
  271MOL0     C36470  -1.228   4.533   3.198 -0.0377  0.3275  0.1182
  271MOL0     C36471  -1.206   4.393   3.246 -0.3098  0.6585  0.5326
  271MOL0     C36472  -1.217   4.387   3.399  0.1351 -0.3581 -0.0385
  271MOL0     C36473  -1.094   4.451   3.472  0.3585  0.9103  0.6737
  271MOL0     O36474  -0.967   4.396   3.415  0.0996  0.4442 -0.1562
  271MOL0     C36475  -0.938   4.264   3.435 -0.5484 -0.0810  0.6832
  271MOL0     C36476  -1.004   4.174   3.522 -0.3221 -0.6684  0.4010
  271MOL0     C36477  -0.957   4.050   3.554  0.7812  0.0442  0.1024
  271MOL0     C36478  -1.052   3.953   3.629  0.5057  0.2946  1.0071
  271MOL0     C36479  -0.837   4.009   3.492 -0.0079  0.4164 -0.1051
  271MOL0     C36480  -0.772   3.885   3.529  0.3019  0.0429  0.5215
  271MOL0     O36481  -0.707   3.822   3.427 -0.3252  0.3746 -0.2990
  271MOL0     C36482  -0.626   3.720   3.454  1.3576  0.2319  1.2042
  271MOL0     C36483  -0.491   3.736   3.408 -0.3348 -1.3246 -0.2663
  271MOL0     C36484  -0.394   3.645   3.438 -0.2598  0.1551  0.0887
  271MOL0     C36485  -0.428   3.523   3.503  0.7649 -0.5853  0.0954
  271MOL0     O36486  -0.346   3.413   3.523 -0.2924 -0.4718  0.1552
  271MOL0     C36487  -0.231   3.395   3.438  0.0447  0.2869 -0.3205
  271MOL0     C36488  -0.159   3.264   3.463  0.2575  0.2873  0.1463
  271MOL0     C36489  -0.232   3.145   3.392 -0.8504 -0.5778  0.5027
  271MOL0     C36490  -0.163   3.016   3.413 -0.8687 -0.3445 -0.3841
  271MOL0     C36491  -0.237   2.898   3.352 -0.3652 -0.8539 -0.1308
  271MOL0     C36492  -0.183   2.771   3.405 -0.8925  0.1205 -0.6543
  271MOL0     C36493  -0.038   2.746   3.361 -0.0383  0.8032 -0.2201
  271MOL0     C36494  -0.007   2.594   3.389 -0.0531 -0.1892  0.4671
  271MOL0    Cl36495   0.140   2.550   3.295 -0.0718  0.7652 -0.0537
  271MOL0     C36496  -0.563   3.506   3.543 -0.4288  0.5672  0.7716
  271MOL0     C36497  -0.664   3.602   3.521 -0.3065 -0.5403 -0.7539
  271MOL0     O36498  -0.783   3.847   3.643 -0.5846 -0.4453 -0.6811
  271MOL0     C36499  -0.776   4.097   3.394 -0.1218  0.2980  0.0328
  271MOL0     C36500  -0.821   4.226   3.370 -0.6069 -0.5528  0.3215
  271MOL0     N36501  -1.314   4.586   2.964  0.5759  0.1200  0.0440
  271MOL0     N36502  -1.264   4.611   2.851 -0.5806  0.3703 -0.4917
  271MOL0     C36503   0.013   4.691   2.247  0.0105  0.4819 -0.1285
  271MOL0     C36504   0.139   4.709   2.205 -0.3367 -0.5954 -0.2980
  271MOL0     C36505   0.492   4.688   1.914  0.1771 -0.0747 -0.6241
  271MOL0     C36506   0.544   4.667   1.783 -0.8662  0.1188  0.0143
  271MOL0     C36507   0.653   4.733   1.729  0.3990  0.1833 -0.1091
  271MOL0     C36508   0.721   4.818   1.822 -0.5221 -0.2603 -0.2853
  271MOL0     O36509   0.832   4.877   1.765  0.4343  0.4323  0.1370
  271MOL0     C36510   0.898   4.981   1.835 -0.7949 -0.8032 -0.0335
  271MOL0     C36511   1.025   5.028   1.758 -0.8559 -0.6994  0.0267
  271MOL0     C36512   0.977   5.072   1.620  0.0868  0.3467 -0.0777
  271MOL0     C36513   1.092   5.114   1.537 -0.0869 -0.4366 -0.6192
  271MOL0     C36514   1.027   5.173   1.417  0.0326 -0.2056  1.0149
  271MOL0     C36515   1.004   5.204   1.303  0.3172 -0.0435  0.1698
  271MOL0     C36516   0.672   4.842   1.957 -0.1946  0.7811 -0.5191
  271MOL0     C36517   0.555   4.778   1.998  0.1939  0.2424  0.9480
  271MOL0     H36518   0.161   4.407   2.044 -0.5090 -2.4604  1.8336
  271MOL0     H36519  -0.064   4.396   2.115 -0.8993  0.8537 -0.4207
  271MOL0     H36520  -0.205   4.627   2.465  1.1695  0.8317 -0.8847
  271MOL0     H36521  -0.281   4.725   2.335 -0.5985 -0.5699 -2.6213
  271MOL0     H36522  -0.422   4.542   2.285  1.4597 -0.7080 -0.6976
  271MOL0     H36523  -0.364   4.441   2.415  2.1532  0.0322  1.3390
  271MOL0     H36524  -0.415   4.576   2.601 -1.1013 -0.1264  0.8080
  271MOL0     H36525  -0.466   4.710   2.512 -2.8622 -0.6955  2.4400
  271MOL0     H36526  -0.662   4.558   2.426 -3.2898 -4.2405  0.7894
  271MOL0     H36527  -0.599   4.438   2.529  0.9587  0.4632  0.8847
  271MOL0     H36528  -0.631   4.576   2.736  0.8879 -1.3396 -0.0234
  271MOL0     H36529  -0.669   4.718   2.630  0.0457 -0.6910 -0.2766
  271MOL0     H36530  -0.861   4.640   2.550  2.7601 -0.6267 -1.4213
  271MOL0     H36531  -0.839   4.467   2.623  1.8747 -0.7021  3.5263
  271MOL0     H36532  -0.854   4.574   2.854 -0.1970 -0.4147 -1.1568
  271MOL0     H36533  -0.895   4.728   2.781 -2.6831 -0.2224 -1.6462
  271MOL0     H36534  -1.060   4.479   2.723 -0.8298  0.8921 -4.0394
  271MOL0     H36535  -1.090   4.641   2.666  4.0150  3.1124 -0.5498
  271MOL0     H36536  -1.007   4.509   3.027  0.3599 -0.2624 -0.8096
  271MOL0     H36537  -1.147   4.596   3.235  1.9175 -1.8899 -0.1840
  271MOL0     H36538  -1.329   4.571   3.214 -0.9444  0.6286 -4.8993
  271MOL0     H36539  -1.115   4.340   3.218  0.0613  1.7376 -0.3745
  271MOL0     H36540  -1.286   4.335   3.200 -0.7782  1.7724 -0.1061
  271MOL0     H36541  -1.231   4.282   3.426 -0.9511 -0.0997  0.4809
  271MOL0     H36542  -1.312   4.434   3.428 -0.9305 -1.1131 -2.0943
  271MOL0     H36543  -1.099   4.422   3.578 -0.8078  0.9755  0.6549
  271MOL0     H36544  -1.100   4.560   3.461 -1.5216  0.7363 -0.5500
  271MOL0     H36545  -1.102   4.202   3.559 -1.3098 -1.3173 -1.5859
  271MOL0     H36546  -1.034   3.966   3.737  0.5068 -1.9158  1.3153
  271MOL0     H36547  -1.156   3.986   3.627  0.0793 -0.9930  1.0538
  271MOL0     H36548  -1.052   3.851   3.591 -0.8324  0.9662 -0.9290
  271MOL0     H36549  -0.478   3.830   3.355  0.8061 -1.4002 -0.1555
  271MOL0     H36550  -0.290   3.675   3.424 -0.9646  3.3256  1.0472
  271MOL0     H36551  -0.260   3.409   3.333  1.1550 -1.9670 -0.9943
  271MOL0     H36552  -0.165   3.478   3.465  0.7443 -0.2594 -0.2908
  271MOL0     H36553  -0.057   3.278   3.427 -0.4724  1.8047 -1.5196
  271MOL0     H36554  -0.153   3.252   3.572 -0.8109  2.4721  0.5052
  271MOL0     H36555  -0.221   3.180   3.289  1.3112  1.4923  1.3347
  271MOL0     H36556  -0.337   3.132   3.419 -0.8299  0.6933  1.3210
  271MOL0     H36557  -0.060   3.021   3.379 -0.2793 -0.4511  1.2811
  271MOL0     H36558  -0.147   3.003   3.521  0.8488  0.5130 -0.5081
  271MOL0     H36559  -0.233   2.898   3.242 -4.8983  0.6822 -0.4640
  271MOL0     H36560  -0.341   2.917   3.380 -0.2576 -0.0439 -0.2588
  271MOL0     H36561  -0.188   2.782   3.514 -1.2950 -1.7799 -0.4499
  271MOL0     H36562  -0.244   2.690   3.365 -0.3971 -1.5313  1.7276
  271MOL0     H36563   0.032   2.814   3.412 -1.8347  0.9176  2.3007
  271MOL0     H36564  -0.019   2.766   3.255  1.6277 -1.0583 -0.3396
  271MOL0     H36565  -0.079   2.527   3.341 -0.6523  1.1957 -0.6534
  271MOL0     H36566   0.010   2.572   3.495 -1.4800 -0.1222  0.7389
  271MOL0     H36567  -0.584   3.408   3.586 -0.3793 -0.3749 -1.2563
  271MOL0     H36568  -0.762   3.571   3.555 -0.6791  1.1407 -0.1918
  271MOL0     H36569  -0.685   4.090   3.336 -1.4513  3.5936 -2.7746
  271MOL0     H36570  -0.766   4.295   3.307 -1.3727  1.7107  1.9482
  271MOL0     H36571  -0.027   4.770   2.310 -0.7997 -0.5697  0.7094
  271MOL0     H36572   0.191   4.802   2.225  1.6237 -1.1695 -2.2755
  271MOL0     H36573   0.502   4.595   1.712  1.7148  0.1517 -1.6610
  271MOL0     H36574   0.695   4.717   1.630 -0.4616  0.9694 -0.6100
  271MOL0     H36575   0.846   5.077   1.840  0.6303 -0.0391  0.7314
  271MOL0     H36576   0.920   4.948   1.937 -2.5321  3.3749  1.9313
  271MOL0     H36577   1.095   4.946   1.735  1.3703  1.6583 -2.3601
  271MOL0     H36578   1.072   5.108   1.816 -2.0075  1.2028 -1.5242
  271MOL0     H36579   0.896   5.146   1.621 -1.1245 -0.9236  2.1636
  271MOL0     H36580   0.941   4.979   1.577 -0.1913 -0.0135  0.9087
  271MOL0     H36581   1.160   5.034   1.506  1.8444  0.1027  1.8276
  271MOL0     H36582   1.142   5.200   1.584 -0.0816 -1.3463  1.1144
  271MOL0     H36583   1.009   5.227   1.199  2.1582 -3.0027 -0.5118
  271MOL0     H36584   0.725   4.918   2.013 -1.0838  1.3025 -0.3767
  271MOL0     H36585   0.511   4.803   2.094  0.2850 -0.4749  1.1834
  272MOL0     O36586  10.952   5.326   1.233  0.0775 -0.3085  0.4119
  272MOL0     C36587  11.010   5.223   1.280  0.6963  0.5070  0.7018
  272MOL0     O36588  10.949   5.109   1.315  0.1506  0.2534 -1.1631
  272MOL0     C36589  10.814   5.100   1.306  0.4143  0.3852  0.1615
  272MOL0     C36590  10.723   5.194   1.368 -0.1767  0.4919 -0.1549
  272MOL0     C36591  10.588   5.173   1.389 -0.1074  0.7396  0.0803
  272MOL0     C36592  10.530   5.052   1.331  0.3454 -0.2255  0.4115
  272MOL0     O36593  10.400   5.014   1.340 -0.2936  0.0425  0.2677
  272MOL0     C36594  10.315   5.086   1.424  0.3310 -0.4484  0.4330
  272MOL0     C36595  10.187   5.019   1.423 -0.0571  1.3364  0.1831
  272MOL0     C36596  10.085   5.079   1.521 -0.0901  0.2203  0.2603
  272MOL0     C36597   9.960   4.992   1.511 -0.0202 -0.8921 -0.4061
  272MOL0     C36598   9.956   4.854   1.580 -0.6634  0.1231 -0.5477
  272MOL0     C36599   9.885   4.864   1.717  0.7418  0.3372  0.0474
  272MOL0     C36600   9.872   4.726   1.774  0.5793  0.4631  0.3370
  272MOL0     C36601   9.875   4.727   1.925  0.4667 -0.6721 -0.3735
  272MOL0     N36602   9.769   4.808   1.984  0.8827  0.6584  0.4775
  272MOL0     C36603   9.781   4.927   2.056 -0.0933 -0.1015  0.3289
  272MOL0     C36604   9.658   4.975   2.061 -0.6459  0.4008 -0.0954
  272MOL0     C36605   9.631   5.090   2.145 -0.7413 -0.0825  1.2048
  272MOL0     C36606   9.656   5.223   2.065  0.1258 -1.1845 -0.0971
  272MOL0     C36607   9.569   5.244   1.931 -0.1006 -0.6143 -0.4600
  272MOL0     C36608   9.418   5.271   1.985  0.4249 -0.2467 -0.2251
  272MOL0     O36609   9.402   5.404   2.042  0.5140 -0.5520 -0.1023
  272MOL0     C36610   9.295   5.438   2.118 -0.0840  0.1958  0.1677
  272MOL0     C36611   9.239   5.351   2.212  0.5982  0.1864  0.6805
  272MOL0     C36612   9.121   5.382   2.284 -0.2448 -0.1465  0.0669
  272MOL0     C36613   9.058   5.275   2.372 -0.0749 -0.3105 -0.3542
  272MOL0     C36614   9.076   5.520   2.280  0.2117  0.8398  0.2902
  272MOL0     C36615   8.946   5.572   2.344  0.7559  0.8374 -0.3458
  272MOL0     O36616   8.905   5.698   2.311  0.5253  1.1031  0.4279
  272MOL0     C36617   8.792   5.744   2.362 -0.8470 -0.6135 -0.5726
  272MOL0     C36618   8.668   5.680   2.378  0.2967 -0.1518  0.3791
  272MOL0     C36619   8.566   5.728   2.457  0.2347 -0.4285  0.2109
  272MOL0     C36620   8.589   5.846   2.531  0.6411 -0.1663 -0.5479
  272MOL0     O36621   8.500   5.902   2.622 -0.8558  0.4835 -0.2837
  272MOL0     C36622   8.385   5.825   2.657 -1.1257  0.6378  0.4083
  272MOL0     C36623   8.293   5.879   2.761 -0.2010  0.1180 -0.1284
  272MOL0     C36624   8.149   5.815   2.752 -0.3866  0.0952 -0.0948
  272MOL0     C36625   8.131   5.696   2.852  0.3310 -0.7023  0.1788
  272MOL0     C36626   8.020   5.605   2.810  0.1977  0.7352  0.1311
  272MOL0     C36627   8.055   5.522   2.683 -0.0259 -0.4575 -0.4380
  272MOL0     C36628   7.955   5.412   2.672 -0.3561  0.4568  0.3930
  272MOL0     C36629   7.980   5.340   2.542  0.6642  0.1777 -0.8795
  272MOL0    Cl36630   8.132   5.250   2.549 -0.2428 -0.0692  0.1168
  272MOL0     C36631   8.702   5.912   2.511 -0.0019  0.9889 -0.6598
  272MOL0     C36632   8.811   5.861   2.440 -0.0452  0.9283 -0.1727
  272MOL0     O36633   8.886   5.500   2.419  0.5994 -0.0430  0.2682
  272MOL0     C36634   9.139   5.607   2.185  0.2813 -0.9554  0.6969
  272MOL0     C36635   9.244   5.561   2.113  0.2901  0.3084  0.7204
  272MOL0     N36636   9.565   4.888   2.009 -0.2298  0.2091 -0.0297
  272MOL0     N36637   9.635   4.791   1.956 -0.1526 -0.5860  0.7703
  272MOL0     C36638  10.610   4.967   1.248 -0.1742  0.3850 -0.5555
  272MOL0     C36639  10.757   4.985   1.241 -0.3835 -0.9089  0.0960
  272MOL0     C36640  11.154   5.220   1.314  0.4222 -0.1941 -0.2139
  272MOL0     C36641  11.235   5.107   1.297  0.3497 -0.5971 -0.6155
  272MOL0     C36642  11.368   5.113   1.309 -0.6108 -0.1158  0.9478
  272MOL0     C36643  11.430   5.235   1.343  0.3134  0.5931  0.0706
  272MOL0     O36644  11.566   5.233   1.361 -0.0472 -0.3657 -0.1556
  272MOL0     C36645  11.628   5.352   1.310  0.9158  0.2895 -0.0757
  272MOL0     C36646  11.640   5.346   1.159  0.3564  0.2096  0.0843
  272MOL0     C36647  11.688   5.211   1.104 -0.3228 -0.2286 -0.7123
  272MOL0     C36648  11.767   5.216   0.974 -0.1356  1.0817  0.1731
  272MOL0     C36649  11.692   5.273   0.862 -0.9101 -0.6290 -0.2745
  272MOL0     C36650  11.642   5.319   0.761  0.2120 -0.6263 -0.4146
  272MOL0     C36651  11.348   5.348   1.359 -0.4460  0.6947  0.0613
  272MOL0     C36652  11.213   5.340   1.355 -0.4438 -0.0818  0.0418
  272MOL0     H36653  10.774   5.272   1.422  1.9339 -1.1739  0.4020
  272MOL0     H36654  10.528   5.252   1.434 -0.2336  0.5166  0.3125
  272MOL0     H36655  10.355   5.105   1.524  1.5919  1.0912 -0.3200
  272MOL0     H36656  10.307   5.178   1.366  0.0846 -1.1601 -0.6921
  272MOL0     H36657  10.147   5.030   1.321  1.3583  1.9184 -0.3403
  272MOL0     H36658  10.200   4.914   1.448  1.5414  1.0371 -1.6870
  272MOL0     H36659  10.120   5.081   1.624  0.8034  2.4717 -0.0373
  272MOL0     H36660  10.066   5.183   1.496  2.8396  0.4054 -1.6669
  272MOL0     H36661   9.871   5.048   1.542 -0.5539 -1.0803 -1.5257
  272MOL0     H36662   9.946   4.976   1.403  0.6821  1.4075 -0.8957
  272MOL0     H36663   9.894   4.797   1.511 -3.8059  2.1156  0.4398
  272MOL0     H36664  10.049   4.796   1.583 -2.0277 -2.2150  1.9622
  272MOL0     H36665   9.939   4.934   1.782  1.8062  0.3493 -0.8367
  272MOL0     H36666   9.780   4.894   1.703  0.6597 -0.8861 -2.3214
  272MOL0     H36667   9.776   4.685   1.742 -0.0279  0.3392  2.2329
  272MOL0     H36668   9.956   4.665   1.738  1.9376  2.5230 -0.1774
  272MOL0     H36669   9.969   4.769   1.961  0.0999 -1.4548  1.6315
  272MOL0     H36670   9.872   4.628   1.973  1.4948  0.0313  1.2230
  272MOL0     H36671   9.870   4.965   2.104 -1.4473  0.3745  2.6419
  272MOL0     H36672   9.529   5.066   2.175 -1.4942  1.8638  0.3420
  272MOL0     H36673   9.688   5.092   2.239 -2.1687  2.4444  2.1208
  272MOL0     H36674   9.763   5.231   2.048 -0.1205 -1.4441 -1.9248
  272MOL0     H36675   9.624   5.300   2.136  2.7122  0.8758 -1.0093
  272MOL0     H36676   9.568   5.153   1.870 -0.1965 -0.3598 -0.8388
  272MOL0     H36677   9.606   5.331   1.876 -1.4200 -0.4032 -1.0454
  272MOL0     H36678   9.396   5.200   2.065 -0.5488 -0.3621 -0.5880
  272MOL0     H36679   9.351   5.250   1.902 -0.9262 -0.0624  0.7887
  272MOL0     H36680   9.289   5.258   2.235 -0.1183 -0.2051  0.6768
  272MOL0     H36681   9.118   5.184   2.365  1.1555  0.5883 -2.4848
  272MOL0     H36682   9.056   5.300   2.479 -0.9275 -0.2612 -0.3707
  272MOL0     H36683   8.956   5.252   2.339 -0.4387 -1.6843  1.5122
  272MOL0     H36684   8.643   5.591   2.321 -4.4616 -0.0997  1.9602
  272MOL0     H36685   8.481   5.662   2.468 -0.2620 -0.1882 -1.8461
  272MOL0     H36686   8.330   5.814   2.563 -0.4505 -1.0043  0.1739
  272MOL0     H36687   8.420   5.724   2.681 -0.3175  1.0764  1.1150
  272MOL0     H36688   8.326   5.847   2.861 -1.1979 -2.1441 -0.4613
  272MOL0     H36689   8.276   5.986   2.748 -3.3741 -0.2728  0.0336
  272MOL0     H36690   8.136   5.772   2.652  1.9163 -1.0667  0.0427
  272MOL0     H36691   8.090   5.901   2.785 -1.3657 -1.4809  2.5091
  272MOL0     H36692   8.218   5.634   2.875  0.2561  0.3006  3.8952
  272MOL0     H36693   8.096   5.726   2.952 -1.2185 -2.0981  0.1079
  272MOL0     H36694   7.923   5.651   2.789 -0.1364 -0.0197 -0.0475
  272MOL0     H36695   7.991   5.539   2.893 -1.3581  2.2031  0.8195
  272MOL0     H36696   8.059   5.588   2.596  1.3080 -0.0138 -0.0688
  272MOL0     H36697   8.150   5.470   2.697 -0.5193 -0.4806  4.4728
  272MOL0     H36698   7.853   5.446   2.696 -0.3603 -0.4353  1.7532
  272MOL0     H36699   7.980   5.345   2.754 -3.2161 -0.3400  0.7425
  272MOL0     H36700   7.986   5.419   2.467 -0.5153  0.9707 -0.1730
  272MOL0     H36701   7.885   5.288   2.524  1.3328 -1.0669 -0.9432
  272MOL0     H36702   8.715   6.006   2.563 -1.6549  1.1864 -0.5421
  272MOL0     H36703   8.913   5.897   2.437  0.1576  0.3111 -1.7494
  272MOL0     H36704   9.099   5.706   2.170  0.7762 -0.9918 -1.0702
  272MOL0     H36705   9.289   5.624   2.036  0.7426 -2.0579 -1.0561
  272MOL0     H36706  10.564   4.889   1.188  2.0731  1.0376 -3.3474
  272MOL0     H36707  10.819   4.919   1.182 -0.1104 -0.3397 -0.2617
  272MOL0     H36708  11.206   5.006   1.270  0.2278 -0.8866  0.5524
  272MOL0     H36709  11.419   5.019   1.292 -2.9499 -1.0127 -2.2368
  272MOL0     H36710  11.575   5.443   1.339 -1.3893 -0.9768 -0.0741
  272MOL0     H36711  11.727   5.359   1.355  0.4917  0.1980  0.8908
  272MOL0     H36712  11.705   5.425   1.121  1.0842 -1.5365 -2.5865
  272MOL0     H36713  11.546   5.363   1.107  1.7362 -0.7233 -2.9807
  272MOL0     H36714  11.596   5.152   1.092  0.5651 -1.3901 -2.0546
  272MOL0     H36715  11.751   5.171   1.184 -0.0952 -0.0479 -0.7991
  272MOL0     H36716  11.800   5.117   0.940 -2.4210 -0.7944  2.9814
  272MOL0     H36717  11.853   5.280   0.994 -0.6834  1.2795  2.0025
  272MOL0     H36718  11.600   5.360   0.671  1.0870 -0.0276 -0.5645
  272MOL0     H36719  11.399   5.440   1.385 -1.1619  0.6741  1.6866
  272MOL0     H36720  11.160   5.433   1.373  0.3125  0.4813 -0.5611
  273MOL0     O36721   8.026   8.682   9.097 -0.2852  0.6689  0.2164
  273MOL0     C36722   7.949   8.642   9.187  0.2588  1.1022 -0.2560
  273MOL0     O36723   7.982   8.588   9.311  0.2448 -0.0213 -1.4092
  273MOL0     C36724   8.108   8.539   9.331  0.0229  0.5855  0.5388
  273MOL0     C36725   8.218   8.628   9.357  0.8259 -0.3168  0.1273
  273MOL0     C36726   8.348   8.583   9.362  0.2202  0.2638 -0.1763
  273MOL0     C36727   8.374   8.451   9.340  0.2848  0.1086  0.2944
  273MOL0     O36728   8.494   8.393   9.359  0.4551 -0.8632  0.5111
  273MOL0     C36729   8.533   8.305   9.258  0.3325 -0.1720  0.0058
  273MOL0     C36730   8.681   8.307   9.228 -0.0615  0.0311  0.2493
  273MOL0     C36731   8.735   8.203   9.125  0.5108  0.4614  0.5027
  273MOL0     C36732   8.879   8.222   9.084 -0.3348  0.0118 -0.4466
  273MOL0     C36733   8.918   8.120   8.977 -0.4624 -0.0472  1.0015
  273MOL0     C36734   9.063   8.135   8.932 -0.7486 -0.2542  1.3027
  273MOL0     C36735   9.161   8.128   9.051 -0.2531 -0.6800 -0.2522
  273MOL0     C36736   9.307   8.108   8.991  0.1675  0.2302  0.1693
  273MOL0     N36737   9.352   8.202   8.889 -0.2178  0.7266  0.2610
  273MOL0     C36738   9.399   8.329   8.894 -0.0783  0.5852 -0.5480
  273MOL0     C36739   9.432   8.359   8.764 -0.6651 -0.3148 -0.2209
  273MOL0     C36740   9.468   8.489   8.705  1.1991  0.9316 -0.0213
  273MOL0     C36741   9.617   8.515   8.721 -0.4274 -0.2828  0.3848
  273MOL0     C36742   9.663   8.637   8.627 -0.5370 -0.1554  0.0560
  273MOL0     C36743   9.806   8.673   8.639 -0.2536 -0.5354 -0.7441
  273MOL0     O36744   9.897   8.566   8.610 -0.1094  0.1190  0.5469
  273MOL0     C36745   9.994   8.537   8.702  0.1662  0.1210 -0.3076
  273MOL0     C36746  10.083   8.637   8.735 -0.6340 -0.4672  1.0968
  273MOL0     C36747  10.178   8.622   8.837  0.4629  0.3603 -0.3436
  273MOL0     C36748  10.283   8.722   8.854 -0.5490  0.5651 -0.2078
  273MOL0     C36749  10.188   8.487   8.899  0.7696  0.3056 -0.4997
  273MOL0     C36750  10.298   8.459   8.997  0.0613 -0.2089 -0.1400
  273MOL0     O36751  10.328   8.333   9.021 -0.1402  0.3267  0.6484
  273MOL0     C36752  10.440   8.323   9.093  0.2264  0.1107  0.1116
  273MOL0     C36753  10.445   8.268   9.222  0.1704 -0.2659  1.3846
  273MOL0     C36754  10.564   8.237   9.284  0.7328  0.4862  0.8993
  273MOL0     C36755  10.681   8.235   9.217 -0.3430  0.1621  0.3149
  273MOL0     O36756  10.777   8.164   9.285  0.3189 -0.4824 -0.0323
  273MOL0     C36757  10.905   8.160   9.230 -1.3862 -0.5501 -0.1186
  273MOL0     C36758  11.007   8.108   9.330 -0.5609 -0.2893  0.3500
  273MOL0     C36759  11.155   8.120   9.280  0.2436 -0.3099  0.5937
  273MOL0     C36760  11.206   8.262   9.277 -0.4238 -0.5763  0.0040
  273MOL0     C36761  11.335   8.265   9.199 -0.8546  1.0090  0.7543
  273MOL0     C36762  11.425   8.386   9.212  0.6903 -0.0192 -0.0213
  273MOL0     C36763  11.360   8.526   9.224  1.0110 -0.7459  0.0067
  273MOL0     C36764  11.473   8.632   9.242 -0.6452 -0.1208  0.0323
  273MOL0    Cl36765  11.554   8.583   9.394  0.1916  0.0462 -0.1335
  273MOL0     C36766  10.690   8.296   9.093 -0.0150 -0.4061 -0.1608
  273MOL0     C36767  10.569   8.346   9.029 -0.1254  0.5560 -1.0845
  273MOL0     O36768  10.337   8.552   9.067  0.7598 -0.3556  0.6918
  273MOL0     C36769  10.098   8.387   8.862 -0.1733 -0.2605  0.8272
  273MOL0     C36770  10.010   8.412   8.760  0.3419 -0.5112 -0.1150
  273MOL0     N36771   9.391   8.255   8.685  0.4064 -0.2053 -0.4346
  273MOL0     N36772   9.338   8.162   8.756  0.0932 -0.3735  0.0223
  273MOL0     C36773   8.266   8.362   9.324  0.1243  0.0694  0.3032
  273MOL0     C36774   8.132   8.398   9.318 -0.6745  0.8292 -0.2814
  273MOL0     C36775   7.805   8.663   9.161 -1.2702 -0.0276  0.7393
  273MOL0     C36776   7.708   8.594   9.230 -0.5187  0.5123  1.0284
  273MOL0     C36777   7.574   8.619   9.220 -0.3169  0.5552 -0.3219
  273MOL0     C36778   7.532   8.711   9.118  1.2247  0.2115 -0.0050
  273MOL0     O36779   7.394   8.739   9.109 -0.1474 -0.0072  0.3673
  273MOL0     C36780   7.302   8.681   9.204 -1.7873 -0.4738 -0.5437
  273MOL0     C36781   7.159   8.699   9.161  0.5403  0.0377 -0.4922
  273MOL0     C36782   7.085   8.825   9.212  0.0693  0.1804 -0.3424
  273MOL0     C36783   6.971   8.871   9.114 -0.9135  0.7327  0.2848
  273MOL0     C36784   6.903   8.987   9.171 -0.6499  0.0144  0.2871
  273MOL0     C36785   6.832   9.081   9.196  1.2202  0.0817 -0.0316
  273MOL0     C36786   7.624   8.785   9.043 -0.9272 -0.0739  0.4657
  273MOL0     C36787   7.758   8.761   9.069 -0.1911  1.1567  0.2863
  273MOL0     H36788   8.193   8.731   9.377  2.6330 -0.0713  1.3808
  273MOL0     H36789   8.420   8.659   9.388  2.1205 -1.5614  0.1602
  273MOL0     H36790   8.498   8.205   9.285  1.6743 -0.9502 -0.9942
  273MOL0     H36791   8.487   8.329   9.162 -2.0896 -1.7630  0.6793
  273MOL0     H36792   8.702   8.413   9.210  1.2096  0.1180  1.9834
  273MOL0     H36793   8.726   8.274   9.323  0.6497 -0.7608 -0.3471
  273MOL0     H36794   8.720   8.108   9.176 -1.1312  0.6826  0.5010
  273MOL0     H36795   8.676   8.205   9.033 -0.7953 -1.7502  1.2114
  273MOL0     H36796   8.895   8.320   9.039 -3.5521  0.6020 -0.5719
  273MOL0     H36797   8.946   8.225   9.171 -2.1049 -0.4631  1.0226
  273MOL0     H36798   8.891   8.021   9.016 -1.6962 -1.0041 -2.0020
  273MOL0     H36799   8.856   8.117   8.887  1.1764 -2.2611 -0.1637
  273MOL0     H36800   9.093   8.070   8.849  3.4309  0.9644  1.6225
  273MOL0     H36801   9.073   8.234   8.885  0.0590 -0.8986  0.0525
  273MOL0     H36802   9.143   8.217   9.112 -1.4539 -2.0204  1.4640
  273MOL0     H36803   9.124   8.049   9.117  0.7324  0.6773  2.0508
  273MOL0     H36804   9.309   8.010   8.943 -2.4763  1.5181 -2.9268
  273MOL0     H36805   9.371   8.120   9.079 -1.7571  0.5133  1.5959
  273MOL0     H36806   9.418   8.390   8.982 -3.1019 -0.1069  0.7054
  273MOL0     H36807   9.439   8.493   8.600  0.0931 -0.2842  0.1993
  273MOL0     H36808   9.414   8.569   8.757  1.9575  0.9454  0.7774
  273MOL0     H36809   9.685   8.434   8.694 -0.3719  0.3187 -1.4585
  273MOL0     H36810   9.632   8.547   8.824  1.1750 -0.0977  0.1239
  273MOL0     H36811   9.596   8.721   8.647 -0.2692 -0.0438  0.5073
  273MOL0     H36812   9.650   8.601   8.525  1.5312 -0.6659 -0.0763
  273MOL0     H36813   9.815   8.702   8.745 -0.7456 -1.6733 -0.3771
  273MOL0     H36814   9.818   8.763   8.578  0.9140  0.9266  1.4788
  273MOL0     H36815  10.081   8.736   8.691  1.3547 -0.7893  0.2185
  273MOL0     H36816  10.270   8.814   8.796  2.0009  1.5413  0.6043
  273MOL0     H36817  10.290   8.743   8.962  1.3515 -2.0344  0.2602
  273MOL0     H36818  10.371   8.670   8.814 -2.7292 -2.5349 -1.3206
  273MOL0     H36819  10.359   8.246   9.284  0.5667 -1.0517  1.6773
  273MOL0     H36820  10.575   8.212   9.389  0.4022  2.2396  1.3926
  273MOL0     H36821  10.919   8.102   9.138  1.7710  0.8269 -0.6238
  273MOL0     H36822  10.929   8.265   9.215 -3.0717 -0.2898 -1.2381
  273MOL0     H36823  10.996   8.162   9.425 -1.2820 -0.0179  0.1162
  273MOL0     H36824  10.990   8.000   9.337  1.2079 -0.5467  1.3356
  273MOL0     H36825  11.148   8.094   9.173  0.1974  0.9580  0.2724
  273MOL0     H36826  11.218   8.050   9.335  0.3230  1.1642  2.4708
  273MOL0     H36827  11.136   8.337   9.239 -0.8812 -1.5418 -1.0893
  273MOL0     H36828  11.215   8.285   9.384 -1.5434 -0.2056  0.0331
  273MOL0     H36829  11.326   8.241   9.093  1.4655  1.3412  0.4509
  273MOL0     H36830  11.391   8.181   9.242  0.0441  0.6330 -1.0559
  273MOL0     H36831  11.492   8.384   9.299 -0.9595  0.5450  1.3248
  273MOL0     H36832  11.494   8.389   9.128  0.6478 -0.1797 -0.0614
  273MOL0     H36833  11.284   8.523   9.302 -2.0488  0.3252 -2.6883
  273MOL0     H36834  11.305   8.553   9.133  1.2196  0.0205  0.0982
  273MOL0     H36835  11.443   8.737   9.253 -0.1961  0.1055 -0.8630
  273MOL0     H36836  11.546   8.631   9.161 -1.8790  2.0237 -1.1993
  273MOL0     H36837  10.780   8.301   9.034 -1.1806 -1.2656 -2.1245
  273MOL0     H36838  10.588   8.378   8.927  0.2886  0.7153 -0.9611
  273MOL0     H36839  10.109   8.290   8.908  0.4195  0.1268  1.5378
  273MOL0     H36840   9.936   8.342   8.723  2.2803 -1.1311 -3.1569
  273MOL0     H36841   8.286   8.256   9.313  0.1792  0.0659  0.4430
  273MOL0     H36842   8.061   8.318   9.303 -1.3530  1.5643 -1.1483
  273MOL0     H36843   7.735   8.514   9.298  0.2579  0.6831  0.9211
  273MOL0     H36844   7.504   8.559   9.277 -1.1072 -0.4514 -2.2722
  273MOL0     H36845   7.322   8.574   9.214  1.3560  0.0345 -0.5268
  273MOL0     H36846   7.313   8.722   9.305 -1.0160 -3.0643  0.5233
  273MOL0     H36847   7.115   8.622   9.225 -0.8245  1.7000  0.6706
  273MOL0     H36848   7.133   8.674   9.058 -0.7809  1.0981 -0.4432
  273MOL0     H36849   7.156   8.906   9.229 -0.4687  0.7334 -0.6880
  273MOL0     H36850   7.050   8.819   9.315  0.5131 -2.8654 -0.2716
  273MOL0     H36851   6.899   8.789   9.103  0.3791 -0.8532  2.7919
  273MOL0     H36852   7.025   8.897   9.023 -0.7709  0.6818  0.3543
  273MOL0     H36853   6.782   9.174   9.212  4.7792  2.0939  0.4507
  273MOL0     H36854   7.603   8.862   8.969  1.5200  0.1577 -0.1048
  273MOL0     H36855   7.830   8.813   9.007  0.7163 -2.1815 -1.7346
  274MOL0     O36856   9.702   9.742   8.180 -0.6508 -0.4825  1.0467
  274MOL0     C36857   9.776   9.819   8.117 -0.0084 -0.3798 -0.0165
  274MOL0     O36858   9.733   9.932   8.054  0.6625  0.3345 -0.1991
  274MOL0     C36859   9.598   9.955   8.042  0.4507  0.1796 -0.2064
  274MOL0     C36860   9.538   9.966   7.916 -0.5917  0.0588  0.4100
  274MOL0     C36861   9.397   9.975   7.891 -0.6650 -0.8383 -0.6988
  274MOL0     C36862   9.321   9.976   8.008 -0.5134  1.2825  0.3682
  274MOL0     O36863   9.183   9.992   8.010  0.5839  0.3741 -0.4490
  274MOL0     C36864   9.111   9.924   7.914 -0.1715 -0.4748  0.0749
  274MOL0     C36865   8.969   9.966   7.913  0.9693  0.2000 -0.5891
  274MOL0     C36866   8.946  10.107   7.898 -0.3038  0.3022 -0.3271
  274MOL0     C36867   8.810  10.139   7.843  0.3542 -0.2337 -0.3906
  274MOL0     C36868   8.816  10.201   7.705 -0.3585 -0.6612  0.0094
  274MOL0     C36869   8.862  10.100   7.596 -0.6817  0.0308  0.3178
  274MOL0     C36870   8.900  10.171   7.465 -0.0366  0.5683 -0.7442
  274MOL0     C36871   8.965  10.072   7.371 -0.6548  0.0346 -0.1107
  274MOL0     N36872   8.860  10.031   7.269 -0.2864  0.1131 -0.1642
  274MOL0     C36873   8.802  10.128   7.181  0.0842 -0.5316  0.0329
  274MOL0     C36874   8.722  10.060   7.096 -0.5991  0.8579  0.4248
  274MOL0     C36875   8.631  10.136   6.998  0.0559  0.2275  0.4019
  274MOL0     C36876   8.488  10.075   7.002 -0.9962 -0.8837 -0.6681
  274MOL0     C36877   8.386  10.165   6.933 -0.1832  1.1823  0.0219
  274MOL0     C36878   8.245  10.109   6.910  0.1044 -0.0214 -0.9434
  274MOL0     O36879   8.255  10.003   6.814 -0.1620 -0.2561  0.8845
  274MOL0     C36880   8.148   9.922   6.784  0.1403 -0.2680  0.3004
  274MOL0     C36881   8.031   9.927   6.862 -0.2009  0.3429 -0.6374
  274MOL0     C36882   7.926   9.841   6.815 -0.3581  0.4589 -0.3857
  274MOL0     C36883   7.794   9.840   6.887  0.7762 -0.6163 -0.8319
  274MOL0     C36884   7.931   9.763   6.692 -0.1141  0.6073  0.5553
  274MOL0     C36885   7.817   9.688   6.630 -0.0285 -0.1937 -0.9704
  274MOL0     O36886   7.830   9.654   6.502  0.0362 -0.1751 -0.0662
  274MOL0     C36887   7.735   9.590   6.439  0.4405  0.6376 -0.0673
  274MOL0     C36888   7.607   9.648   6.413 -0.9469  0.2656  0.1872
  274MOL0     C36889   7.509   9.578   6.334 -0.1656  0.9280 -0.3043
  274MOL0     C36890   7.535   9.456   6.284 -0.4994 -0.0718  0.1197
  274MOL0     O36891   7.439   9.394   6.211  0.1669  1.1810 -0.6377
  274MOL0     C36892   7.368   9.303   6.292  0.4696  0.0479  0.2062
  274MOL0     C36893   7.256   9.369   6.373  0.2113 -0.3333 -0.0078
  274MOL0     C36894   7.134   9.442   6.304 -0.9123  1.3559  0.3968
  274MOL0     C36895   7.083   9.546   6.396  0.6335  0.3990 -0.4155
  274MOL0     C36896   6.945   9.598   6.359  0.2346  0.0217 -0.5191
  274MOL0     C36897   6.899   9.737   6.424 -0.7115  0.9915 -0.2859
  274MOL0     C36898   6.978   9.856   6.370  0.2668 -0.5907  0.7632
  274MOL0     C36899   6.964   9.900   6.225  0.1418  0.8747  1.1715
  274MOL0    Cl36900   6.796   9.939   6.197 -0.0801 -0.6763  0.2112
  274MOL0     C36901   7.665   9.400   6.309 -0.6704  0.7472  0.2806
  274MOL0     C36902   7.761   9.461   6.387 -0.6926 -0.1692 -0.0223
  274MOL0     O36903   7.722   9.655   6.702 -0.2772  0.5607  0.3185
  274MOL0     C36904   8.050   9.766   6.620  0.2477 -0.5424 -0.2500
  274MOL0     C36905   8.161   9.844   6.673 -0.1401 -0.0056  0.5440
  274MOL0     N36906   8.743   9.921   7.125 -0.4439 -0.0730 -0.0097
  274MOL0     N36907   8.834   9.906   7.225  0.1637 -0.0413  0.3232
  274MOL0     C36908   9.377   9.966   8.134 -0.4943  0.2257  0.2367
  274MOL0     C36909   9.512   9.952   8.155 -0.2141  0.6006  0.2054
  274MOL0     C36910   9.921   9.770   8.098  0.4505  0.1635  0.2018
  274MOL0     C36911  10.003   9.825   7.996  0.8553 -0.1026 -0.1508
  274MOL0     C36912  10.133   9.787   7.975 -0.6258  0.0077 -0.3003
  274MOL0     C36913  10.189   9.681   8.053  0.0434 -1.5326  0.1252
  274MOL0     O36914  10.314   9.643   8.010  1.1290  0.5842 -0.2705
  274MOL0     C36915  10.392   9.545   8.078 -0.4616 -0.1576 -0.0798
  274MOL0     C36916  10.529   9.574   8.025 -0.0559  0.3155  0.0644
  274MOL0     C36917  10.593   9.693   8.105  0.5985  0.4687 -0.2819
  274MOL0     C36918  10.734   9.740   8.055 -0.6815 -0.0556  0.0330
  274MOL0     C36919  10.789   9.829   8.156  0.7449  0.3140 -0.4207
  274MOL0     C36920  10.819   9.916   8.238  0.5478  0.6542 -0.8448
  274MOL0     C36921  10.114   9.629   8.163 -1.9376 -0.0842 -0.3866
  274MOL0     C36922   9.983   9.672   8.182  0.0629 -0.2469  0.0182
  274MOL0     H36923   9.609   9.960   7.834 -1.4836  0.3230 -0.4006
  274MOL0     H36924   9.354   9.970   7.791  1.4383 -0.2221 -1.6816
  274MOL0     H36925   9.144   9.944   7.812  3.6546  1.7799  1.5251
  274MOL0     H36926   9.119   9.817   7.933  1.5280 -0.1664  1.3910
  274MOL0     H36927   8.924   9.914   7.828  1.4904 -1.5640  0.1727
  274MOL0     H36928   8.911   9.933   8.000 -1.8069  0.9732 -2.0224
  274MOL0     H36929   8.953  10.142   8.002  0.3200 -2.4747  0.6536
  274MOL0     H36930   9.015  10.162   7.834 -1.8712 -0.8406 -3.1711
  274MOL0     H36931   8.743  10.053   7.834  2.6984 -2.0179 -2.0057
  274MOL0     H36932   8.769  10.215   7.910  1.5466 -0.0919  0.2076
  274MOL0     H36933   8.715  10.232   7.679  0.5170  2.7539  0.1731
  274MOL0     H36934   8.877  10.292   7.709  0.2062 -1.0243 -0.1431
  274MOL0     H36935   8.950  10.048   7.636 -0.7642  0.2628  0.8062
  274MOL0     H36936   8.785  10.022   7.585  1.3201 -1.9684 -0.4421
  274MOL0     H36937   8.808  10.212   7.423 -1.9134 -2.4674  0.0456
  274MOL0     H36938   8.984  10.238   7.485  0.1507  0.0316  0.3798
  274MOL0     H36939   9.000   9.982   7.422  0.6142 -0.2764 -1.4868
  274MOL0     H36940   9.055  10.115   7.327  1.7911 -0.9377  3.5027
  274MOL0     H36941   8.818  10.234   7.199 -1.2502 -0.4038  0.6266
  274MOL0     H36942   8.617  10.243   7.017 -1.9571  0.6133 -2.6855
  274MOL0     H36943   8.682  10.130   6.902  2.5081  1.2260  1.5535
  274MOL0     H36944   8.459  10.053   7.105  4.2979 -1.1318  1.0698
  274MOL0     H36945   8.503   9.977   6.954 -1.8344  0.2198 -3.3712
  274MOL0     H36946   8.415  10.180   6.829  1.7022 -3.8876 -0.4444
  274MOL0     H36947   8.379  10.259   6.989 -1.6852  0.7598  0.5797
  274MOL0     H36948   8.160  10.171   6.880 -1.0379 -1.7234 -1.4124
  274MOL0     H36949   8.214  10.064   7.005 -2.6009 -1.0535 -2.2201
  274MOL0     H36950   8.009   9.995   6.944  2.9088  0.5111  0.1770
  274MOL0     H36951   7.760   9.756   6.947 -1.6754  0.6492 -0.3216
  274MOL0     H36952   7.803   9.919   6.963 -1.9129 -0.9095 -0.1157
  274MOL0     H36953   7.712   9.867   6.821 -0.9190 -0.0182  1.3957
  274MOL0     H36954   7.570   9.743   6.450  1.3169  1.8487 -1.2919
  274MOL0     H36955   7.419   9.634   6.313 -0.3733  0.6340 -0.1967
  274MOL0     H36956   7.326   9.231   6.222 -0.6611 -0.2671  1.1733
  274MOL0     H36957   7.430   9.244   6.360 -0.6203  0.1277  1.3127
  274MOL0     H36958   7.204   9.283   6.416 -1.1164 -0.0599 -0.9959
  274MOL0     H36959   7.294   9.422   6.461  0.2009  0.6551 -0.5869
  274MOL0     H36960   7.056   9.365   6.300  0.5109 -0.4083  3.1976
  274MOL0     H36961   7.151   9.480   6.203  1.8497  1.3341  0.7776
  274MOL0     H36962   7.090   9.507   6.499 -0.7434 -0.8005 -0.7391
  274MOL0     H36963   7.159   9.623   6.383 -0.7251  1.3477 -3.4964
  274MOL0     H36964   6.882   9.527   6.412  0.4115  0.5390  0.4225
  274MOL0     H36965   6.932   9.588   6.251 -1.5267  0.3849 -0.3728
  274MOL0     H36966   6.793   9.750   6.402 -0.1947  0.1175 -3.8551
  274MOL0     H36967   6.926   9.736   6.530 -1.3047 -2.9064 -0.0383
  274MOL0     H36968   7.085   9.842   6.385  0.5199 -0.8640 -1.0027
  274MOL0     H36969   6.956   9.944   6.430  1.3791 -0.4682  0.9964
  274MOL0     H36970   7.001   9.808   6.179  5.0741  2.4028  1.5914
  274MOL0     H36971   7.032   9.981   6.200  1.2010 -0.1844  0.5430
  274MOL0     H36972   7.687   9.304   6.263  0.7377  0.4831  1.4199
  274MOL0     H36973   7.848   9.397   6.401 -0.5676  0.2604  1.3155
  274MOL0     H36974   8.067   9.700   6.535  2.3539  2.1308 -2.0598
  274MOL0     H36975   8.255   9.845   6.619 -1.0375  0.8485 -1.0870
  274MOL0     H36976   9.324   9.976   8.229 -1.7411 -4.0798  0.2028
  274MOL0     H36977   9.550   9.950   8.257 -1.0167  2.2931  0.5854
  274MOL0     H36978   9.953   9.897   7.931  0.6642  0.6884  0.8480
  274MOL0     H36979  10.176   9.836   7.889  0.7456 -1.1077 -0.2760
  274MOL0     H36980  10.390   9.548   8.188  0.2538 -0.5833 -0.0498
  274MOL0     H36981  10.365   9.446   8.041  1.6462 -0.5175 -0.7419
  274MOL0     H36982  10.530   9.585   7.916  1.8576 -1.4769 -0.1497
  274MOL0     H36983  10.596   9.494   8.056  2.4258  2.8849  1.7429
  274MOL0     H36984  10.601   9.678   8.213 -1.3352 -0.2191 -0.1843
  274MOL0     H36985  10.522   9.775   8.089  0.0897  0.8735  3.3020
  274MOL0     H36986  10.721   9.784   7.955 -0.0346  0.2468  0.0702
  274MOL0     H36987  10.794   9.649   8.058  0.2597  0.5582  0.8962
  274MOL0     H36988  10.852   9.999   8.297  1.1995 -0.1357 -0.0856
  274MOL0     H36989  10.156   9.544   8.217 -0.8727  0.6312 -0.0665
  274MOL0     H36990   9.930   9.624   8.264  0.1992 -1.1684 -0.4089
  275MOL0     O36991   1.985   6.343   4.241  0.7351 -0.3979  0.0508
  275MOL0     C36992   1.948   6.417   4.153  0.4663  1.0784  0.7346
  275MOL0     O36993   1.971   6.546   4.145  0.5922  0.5978 -0.4976
  275MOL0     C36994   2.007   6.620   4.257  0.1046  0.0130 -0.3198
  275MOL0     C36995   1.926   6.612   4.376 -0.2757  0.2515 -1.1042
  275MOL0     C36996   1.982   6.678   4.494  0.1197 -0.6374 -0.9011
  275MOL0     C36997   2.092   6.761   4.486  0.0113 -0.5806 -0.3943
  275MOL0     O36998   2.130   6.827   4.601  0.2058 -1.2523  0.6449
  275MOL0     C36999   2.030   6.909   4.666 -0.5929 -0.6222 -0.8912
  275MOL0     C37000   2.027   7.056   4.624 -0.0131  0.2812 -0.2402
  275MOL0     C37001   2.147   7.135   4.674 -0.0906 -0.1457 -0.3825
  275MOL0     C37002   2.146   7.287   4.638 -0.5404  0.0349  0.4179
  275MOL0     C37003   2.282   7.345   4.667  0.2119 -0.1317  1.0140
  275MOL0     C37004   2.319   7.371   4.811  0.0413  0.7608  0.5953
  275MOL0     C37005   2.449   7.448   4.834  0.0550  0.1840 -0.3638
  275MOL0     C37006   2.470   7.582   4.760 -0.1626  0.1738  0.4259
  275MOL0     N37007   2.353   7.666   4.761  1.1506 -0.6741 -0.1584
  275MOL0     C37008   2.284   7.713   4.657  0.5270  0.0173 -0.2640
  275MOL0     C37009   2.167   7.771   4.697 -0.5005 -0.8847 -0.0428
  275MOL0     C37010   2.074   7.836   4.604 -0.4239 -1.0255 -0.2725
  275MOL0     C37011   1.941   7.860   4.672 -0.0902  0.1189  0.5756
  275MOL0     C37012   1.855   7.740   4.662 -0.2215  0.5467 -0.6349
  275MOL0     C37013   1.721   7.768   4.717  1.3450 -0.8962  0.5750
  275MOL0     O37014   1.635   7.669   4.663 -0.5251  0.5060  0.4352
  275MOL0     C37015   1.501   7.683   4.687 -0.5115 -0.6328 -0.5618
  275MOL0     C37016   1.435   7.772   4.776 -0.2353  1.0039 -0.6359
  275MOL0     C37017   1.302   7.783   4.807  0.7110  0.3646  0.6722
  275MOL0     C37018   1.246   7.891   4.911  0.3676  0.6327  0.4406
  275MOL0     C37019   1.222   7.687   4.742  0.3992  0.0951 -0.3133
  275MOL0     C37020   1.076   7.675   4.751  0.2664  0.8769  0.5200
  275MOL0     O37021   1.025   7.547   4.724  0.0677  0.5431 -0.5138
  275MOL0     C37022   0.890   7.532   4.730 -0.0298  0.4911  0.1911
  275MOL0     C37023   0.831   7.456   4.827  0.4648  0.4913  0.3904
  275MOL0     C37024   0.700   7.418   4.819 -0.0209  0.5271 -0.5088
  275MOL0     C37025   0.621   7.473   4.720  0.3931  0.0669  0.4884
  275MOL0     O37026   0.486   7.442   4.727  0.2083  0.4478  0.3388
  275MOL0     C37027   0.393   7.535   4.671  0.7763  0.3270 -0.0127
  275MOL0     C37028   0.249   7.522   4.728 -0.3813  0.1937 -0.3626
  275MOL0     C37029   0.239   7.590   4.873  0.1433 -0.3212  0.1963
  275MOL0     C37030   0.104   7.555   4.938  0.4943  0.6095  0.4238
  275MOL0     C37031   0.083   7.655   5.046  0.5810 -0.0662 -0.5327
  275MOL0     C37032  -0.053   7.638   5.120 -1.1161 -0.1606  0.3068
  275MOL0     C37033  -0.077   7.763   5.210 -0.3702  0.0089  0.7007
  275MOL0     C37034  -0.169   7.864   5.142  0.8451 -1.1116  0.5863
  275MOL0    Cl37035  -0.325   7.783   5.156 -0.1270 -0.2666  0.3939
  275MOL0     C37036   0.681   7.561   4.628  0.5141 -0.1530  0.3039
  275MOL0     C37037   0.815   7.593   4.632  0.6976 -0.1898 -0.2438
  275MOL0     O37038   1.002   7.768   4.778  0.0288 -0.3779 -0.5116
  275MOL0     C37039   1.284   7.590   4.656 -0.0168 -1.2966 -0.0794
  275MOL0     C37040   1.420   7.584   4.634  0.3987  0.1267 -0.5737
  275MOL0     N37041   2.164   7.759   4.838 -0.3129 -0.3408  1.2939
  275MOL0     N37042   2.282   7.707   4.867 -0.2417 -0.6717  0.2737
  275MOL0     C37043   2.166   6.766   4.367  0.0915 -0.1842 -0.2760
  275MOL0     C37044   2.119   6.702   4.257 -0.6074 -0.4404  0.4355
  275MOL0     C37045   1.881   6.349   4.035  0.3223 -0.0220  0.5648
  275MOL0     C37046   1.837   6.432   3.922 -0.0951 -0.1028  0.3612
  275MOL0     C37047   1.769   6.378   3.813 -0.0197 -0.3950  0.0379
  275MOL0     C37048   1.746   6.238   3.805  0.4440  0.7440  0.3688
  275MOL0     O37049   1.680   6.183   3.696  0.3026  0.0015 -0.7031
  275MOL0     C37050   1.766   6.134   3.587  0.4715  0.2915  0.3275
  275MOL0     C37051   1.704   6.181   3.455 -0.3911  0.0018  0.1484
  275MOL0     C37052   1.802   6.181   3.337 -0.3935  0.9688 -0.0352
  275MOL0     C37053   1.868   6.031   3.319  0.4574 -0.4576 -0.2774
  275MOL0     C37054   1.771   5.926   3.287 -0.4203 -0.3074 -0.3062
  275MOL0     C37055   1.681   5.846   3.273 -0.3584 -0.7510 -0.0774
  275MOL0     C37056   1.794   6.160   3.907  0.5859 -0.3893 -0.2798
  275MOL0     C37057   1.863   6.207   4.017  0.0865  0.6123 -0.3114
  275MOL0     H37058   1.840   6.549   4.399  0.5264  0.0743  1.8279
  275MOL0     H37059   1.927   6.672   4.587 -2.8644 -0.3759 -2.5455
  275MOL0     H37060   1.930   6.865   4.680  0.8200 -3.4627  1.4901
  275MOL0     H37061   2.066   6.909   4.769  0.7540 -0.5383 -1.3420
  275MOL0     H37062   2.006   7.070   4.517  4.5055  2.9691 -1.0484
  275MOL0     H37063   1.945   7.099   4.682  0.0112  1.0243 -0.7397
  275MOL0     H37064   2.138   7.123   4.782  0.7934  1.0395 -0.1632
  275MOL0     H37065   2.239   7.089   4.636 -0.0946  0.7203 -1.4904
  275MOL0     H37066   2.110   7.302   4.536  0.0523  2.3827  0.5058
  275MOL0     H37067   2.080   7.338   4.709 -1.0522 -1.1186  0.8012
  275MOL0     H37068   2.365   7.282   4.635 -2.9117 -2.3178 -3.9319
  275MOL0     H37069   2.286   7.435   4.606 -1.9082 -0.1640  0.7430
  275MOL0     H37070   2.242   7.434   4.857  2.8768  4.5974  0.5932
  275MOL0     H37071   2.330   7.278   4.867  0.8912  1.4540  1.6199
  275MOL0     H37072   2.465   7.472   4.939 -2.0553 -0.0759  0.0666
  275MOL0     H37073   2.526   7.388   4.786 -1.3966 -0.0560 -2.5890
  275MOL0     H37074   2.494   7.557   4.656  3.0019  4.1525 -0.0328
  275MOL0     H37075   2.550   7.640   4.808 -0.3909 -0.7353  1.9494
  275MOL0     H37076   2.304   7.706   4.550  0.5961  0.1922 -0.2628
  275MOL0     H37077   2.110   7.938   4.586  1.2016 -1.2232  1.5110
  275MOL0     H37078   2.063   7.781   4.510 -0.1801  0.4966 -1.2342
  275MOL0     H37079   1.887   7.935   4.615  1.4039  1.0991  0.3883
  275MOL0     H37080   1.957   7.888   4.776  0.0023 -1.6597  1.0701
  275MOL0     H37081   1.892   7.666   4.733  0.9015  0.0867 -1.6563
  275MOL0     H37082   1.852   7.706   4.558  3.7810  1.0263 -1.0561
  275MOL0     H37083   1.682   7.863   4.678 -0.3575 -0.2782  3.4489
  275MOL0     H37084   1.718   7.793   4.824  0.4450 -4.1973  1.4287
  275MOL0     H37085   1.491   7.837   4.842 -0.4353 -1.1611  1.8097
  275MOL0     H37086   1.234   7.860   5.015 -2.3096  1.9878  0.6281
  275MOL0     H37087   1.300   7.984   4.891  3.4505 -1.2470 -0.8213
  275MOL0     H37088   1.145   7.918   4.880  0.1752 -1.1303 -0.6323
  275MOL0     H37089   0.899   7.420   4.904  1.3258  2.5579  0.6631
  275MOL0     H37090   0.660   7.356   4.899  0.7622  0.9637  0.2363
  275MOL0     H37091   0.412   7.633   4.715 -1.3022  0.4042  0.8331
  275MOL0     H37092   0.393   7.545   4.562 -0.8576  3.0268  0.1275
  275MOL0     H37093   0.172   7.569   4.667 -1.8078  1.8386  2.5347
  275MOL0     H37094   0.215   7.419   4.745  2.9119 -0.4786  3.9550
  275MOL0     H37095   0.259   7.696   4.858  0.0734 -0.5929 -2.1872
  275MOL0     H37096   0.319   7.550   4.936 -0.4985 -1.7767  0.1188
  275MOL0     H37097   0.027   7.551   4.860 -1.3916 -1.4937  2.2367
  275MOL0     H37098   0.099   7.454   4.980 -2.5019 -0.6564 -2.4772
  275MOL0     H37099   0.078   7.752   4.995 -3.4440  0.1012 -0.1624
  275MOL0     H37100   0.164   7.637   5.118  3.5738 -0.3489 -3.7011
  275MOL0     H37101  -0.128   7.625   5.042 -1.3340  0.9251  0.3315
  275MOL0     H37102  -0.050   7.541   5.171 -2.2615 -2.2163 -3.1925
  275MOL0     H37103   0.018   7.811   5.237  0.1187 -1.7275  2.2253
  275MOL0     H37104  -0.123   7.737   5.306 -1.8283 -0.7964 -0.1886
  275MOL0     H37105  -0.148   7.880   5.036 -3.7806  1.8086 -0.1831
  275MOL0     H37106  -0.170   7.964   5.187 -1.4177  0.0667 -1.7846
  275MOL0     H37107   0.623   7.605   4.547 -2.8714 -1.7283  1.6847
  275MOL0     H37108   0.851   7.661   4.555  1.0703  1.4396  1.2962
  275MOL0     H37109   1.223   7.513   4.611 -0.7317 -0.8131  0.0397
  275MOL0     H37110   1.469   7.500   4.587 -0.7370 -0.3341 -0.9598
  275MOL0     H37111   2.256   6.825   4.353 -1.1596  1.8916  0.0672
  275MOL0     H37112   2.179   6.715   4.167 -0.0764 -2.0237  0.5412
  275MOL0     H37113   1.859   6.538   3.928  0.2417 -0.2278  2.2433
  275MOL0     H37114   1.733   6.435   3.728  1.6389 -3.4348 -2.9323
  275MOL0     H37115   1.871   6.161   3.593  1.7249 -3.0108 -2.8697
  275MOL0     H37116   1.770   6.024   3.582 -1.7029  0.1938 -2.3928
  275MOL0     H37117   1.681   6.285   3.480 -3.0903 -0.2429 -1.0009
  275MOL0     H37118   1.610   6.134   3.426 -1.7365  2.9016 -0.4731
  275MOL0     H37119   1.884   6.249   3.362  0.0797 -0.5422  3.0205
  275MOL0     H37120   1.762   6.206   3.238 -0.3329 -1.2774 -0.7005
  275MOL0     H37121   1.927   5.994   3.403  1.0159 -2.0074 -1.3093
  275MOL0     H37122   1.943   6.051   3.242  1.3771  0.7061  0.8726
  275MOL0     H37123   1.608   5.776   3.237 -0.1917 -0.2224 -1.5363
  275MOL0     H37124   1.789   6.056   3.874 -1.2474 -0.7407  0.9553
  275MOL0     H37125   1.914   6.139   4.085 -0.4813 -0.8591 -1.3052
  276MOL0     O37126   1.792   8.642   2.030  1.2522 -0.0213 -0.2457
  276MOL0     C37127   1.749   8.645   2.146  0.3019  0.2285  0.1025
  276MOL0     O37128   1.613   8.646   2.178  0.0791 -0.1022 -0.4864
  276MOL0     C37129   1.526   8.647   2.069 -0.1063  0.1671  0.4176
  276MOL0     C37130   1.443   8.533   2.037  0.2111 -0.5421 -1.1840
  276MOL0     C37131   1.364   8.525   1.924 -0.1928 -0.1565  0.6228
  276MOL0     C37132   1.347   8.633   1.836 -0.7512 -0.6180  0.0921
  276MOL0     O37133   1.270   8.610   1.725 -0.7592 -0.0092 -0.2253
  276MOL0     C37134   1.239   8.706   1.626 -0.0142  0.2084  0.4251
  276MOL0     C37135   1.130   8.806   1.660  0.1842 -0.3809 -0.5481
  276MOL0     C37136   0.994   8.727   1.693 -0.5160 -0.4798 -0.1949
  276MOL0     C37137   0.879   8.827   1.655  0.3130 -0.0927 -0.5680
  276MOL0     C37138   0.740   8.761   1.681  0.2844 -0.1956 -0.0933
  276MOL0     C37139   0.698   8.736   1.829  0.5807 -0.1230 -0.0577
  276MOL0     C37140   0.543   8.703   1.840  0.7082 -0.5571 -0.0134
  276MOL0     C37141   0.501   8.701   1.990 -0.4604 -0.1986  0.1065
  276MOL0     N37142   0.355   8.669   2.015 -0.5014  0.2023  0.2321
  276MOL0     C37143   0.285   8.559   1.985 -0.3110 -1.1748 -0.4159
  276MOL0     C37144   0.156   8.582   2.026  0.3155 -0.0562 -0.3004
  276MOL0     C37145   0.030   8.489   2.011 -0.2032  0.0261  0.4817
  276MOL0     C37146  -0.093   8.567   1.974 -0.1689 -0.0564  0.4937
  276MOL0     C37147  -0.087   8.610   1.827 -0.6258  0.3556 -0.6325
  276MOL0     C37148  -0.175   8.730   1.798  0.2884 -0.0486  0.0127
  276MOL0     O37149  -0.202   8.746   1.652 -0.1775 -0.4198  0.5919
  276MOL0     C37150  -0.295   8.842   1.617 -0.4471 -0.3023 -0.5957
  276MOL0     C37151  -0.361   8.823   1.501 -0.2046 -0.0114 -0.4324
  276MOL0     C37152  -0.471   8.887   1.461  0.6762 -0.2424  0.0917
  276MOL0     C37153  -0.537   8.855   1.326 -0.3340 -0.3590  0.3230
  276MOL0     C37154  -0.515   8.993   1.549 -0.0569 -0.1619  0.1976
  276MOL0     C37155  -0.624   9.072   1.504 -0.9913 -0.0680 -0.6456
  276MOL0     O37156  -0.623   9.125   1.380 -0.7071 -0.0647 -0.8375
  276MOL0     C37157  -0.706   9.224   1.352  0.5333 -0.2251 -0.1684
  276MOL0     C37158  -0.675   9.362   1.374 -0.1047  1.0268 -0.6452
  276MOL0     C37159  -0.759   9.474   1.345  0.0093  0.1748  0.8834
  276MOL0     C37160  -0.887   9.445   1.301 -0.2551 -0.4204 -0.0084
  276MOL0     O37161  -0.973   9.556   1.283  0.1675  0.1366 -0.4030
  276MOL0     C37162  -1.102   9.561   1.357  0.4021  0.0912 -0.3261
  276MOL0     C37163  -1.153   9.707   1.357  0.9796  0.6605  0.2397
  276MOL0     C37164  -1.305   9.718   1.371 -0.0259 -0.2085  0.6545
  276MOL0     C37165  -1.344   9.863   1.355 -0.0646  0.6182  0.6409
  276MOL0     C37166  -1.497   9.865   1.380 -0.1345 -0.4345 -0.9815
  276MOL0     C37167  -1.556   9.996   1.345 -0.2524 -0.3175 -0.0938
  276MOL0     C37168  -1.703   9.982   1.375  0.3484  0.9126 -0.2520
  276MOL0     C37169  -1.791   9.945   1.263  0.2729  0.0919  0.1645
  276MOL0    Cl37170  -1.963   9.930   1.319 -0.4984  0.0879 -0.0846
  276MOL0     C37171  -0.920   9.311   1.272  0.6738  1.2095  0.3833
  276MOL0     C37172  -0.833   9.199   1.297 -0.4574 -0.2891  0.1964
  276MOL0     O37173  -0.714   9.091   1.581 -0.4582  0.2974  0.3927
  276MOL0     C37174  -0.450   9.018   1.678  0.2330 -0.3262 -0.5465
  276MOL0     C37175  -0.337   8.943   1.714 -0.3958 -0.2921 -0.1527
  276MOL0     N37176   0.155   8.704   2.087 -0.5733  0.7302 -0.0384
  276MOL0     N37177   0.275   8.759   2.066  0.2096  0.3577 -0.5305
  276MOL0     C37178   1.438   8.747   1.863 -0.0952  0.2764  0.7122
  276MOL0     C37179   1.520   8.752   1.977  0.4054 -1.0312  0.4257
  276MOL0     C37180   1.842   8.631   2.257 -1.4266  1.0498 -0.0042
  276MOL0     C37181   1.983   8.598   2.237 -0.5370 -0.0635  0.2230
  276MOL0     C37182   2.060   8.570   2.350 -0.0291  0.9009 -1.6106
  276MOL0     C37183   2.006   8.584   2.484  0.0369  0.3205  0.4852
  276MOL0     O37184   2.061   8.520   2.599 -0.5075 -1.1124  0.2226
  276MOL0     C37185   2.172   8.436   2.580 -0.1132  0.5380 -0.0851
  276MOL0     C37186   2.288   8.506   2.660 -0.4441 -0.3027 -1.3546
  276MOL0     C37187   2.428   8.446   2.642 -1.1215  0.0315 -0.2390
  276MOL0     C37188   2.518   8.497   2.756 -0.5952  0.5697 -0.5749
  276MOL0     C37189   2.648   8.420   2.763  0.3275  0.3832  0.1099
  276MOL0     C37190   2.737   8.338   2.771 -0.1606 -0.4903  0.7485
  276MOL0     C37191   1.881   8.621   2.500  0.5919  0.3617  0.1294
  276MOL0     C37192   1.798   8.646   2.393 -0.2449 -0.8487  0.2485
  276MOL0     H37193   1.452   8.442   2.095  0.1512 -2.5258 -4.0604
  276MOL0     H37194   1.305   8.438   1.896 -2.0971  1.3544 -0.2923
  276MOL0     H37195   1.335   8.753   1.605 -0.0615  1.0224  1.8626
  276MOL0     H37196   1.219   8.659   1.530  1.9082 -0.7966  0.4660
  276MOL0     H37197   1.155   8.864   1.749  2.2010  0.0817 -1.3499
  276MOL0     H37198   1.113   8.865   1.569 -0.5243 -1.8718 -1.4249
  276MOL0     H37199   0.982   8.637   1.632 -0.8319 -1.8769  1.8269
  276MOL0     H37200   0.994   8.707   1.801  0.1771  0.2457 -0.0501
  276MOL0     H37201   0.882   8.913   1.723 -0.7391  1.7524 -2.7114
  276MOL0     H37202   0.878   8.868   1.553  2.9701 -1.4577 -1.2276
  276MOL0     H37203   0.654   8.811   1.637  0.3519 -0.5891 -0.6935
  276MOL0     H37204   0.745   8.662   1.635  0.9451 -1.3619  2.3048
  276MOL0     H37205   0.753   8.656   1.878 -0.9307 -0.2016  1.5949
  276MOL0     H37206   0.705   8.832   1.880  0.7241  0.5433 -1.2886
  276MOL0     H37207   0.480   8.775   1.789  2.0704  0.4639 -0.3264
  276MOL0     H37208   0.531   8.602   1.799  1.7668 -0.2851 -1.0644
  276MOL0     H37209   0.532   8.795   2.036 -2.1227  1.1379 -1.3379
  276MOL0     H37210   0.548   8.616   2.041 -1.0333 -0.3413  0.4048
  276MOL0     H37211   0.325   8.482   1.920  3.3158 -0.0459  0.2826
  276MOL0     H37212   0.050   8.416   1.932  0.1128 -0.9140  1.4005
  276MOL0     H37213   0.020   8.427   2.101  1.1671 -2.4867 -0.9648
  276MOL0     H37214  -0.106   8.658   2.035  2.3479  0.6499  0.0751
  276MOL0     H37215  -0.186   8.512   1.989 -0.5670  0.4275 -0.1421
  276MOL0     H37216  -0.138   8.529   1.773  1.4238 -1.0338 -0.5950
  276MOL0     H37217   0.014   8.625   1.789  0.0222 -1.2876  0.3313
  276MOL0     H37218  -0.124   8.818   1.838 -0.2153 -0.6826  2.1856
  276MOL0     H37219  -0.273   8.722   1.847  0.2042  4.4041  0.9830
  276MOL0     H37220  -0.325   8.742   1.439  1.4079  0.3767 -0.0577
  276MOL0     H37221  -0.513   8.753   1.293  2.3208 -0.0251  1.0123
  276MOL0     H37222  -0.644   8.880   1.326  0.1106  1.9725 -2.0208
  276MOL0     H37223  -0.505   8.913   1.239 -1.9824  1.8967  1.1178
  276MOL0     H37224  -0.578   9.399   1.406 -0.7928  3.8311 -1.4788
  276MOL0     H37225  -0.726   9.576   1.356 -0.8454  0.5445  0.1714
  276MOL0     H37226  -1.183   9.503   1.312 -0.0141 -1.6522  2.4293
  276MOL0     H37227  -1.092   9.523   1.459  1.5346  2.2405  0.4329
  276MOL0     H37228  -1.120   9.764   1.445 -1.2460  0.7335  1.0788
  276MOL0     H37229  -1.116   9.766   1.272  1.0632  1.4387  0.7997
  276MOL0     H37230  -1.340   9.687   1.470  0.7553 -1.1408  0.6563
  276MOL0     H37231  -1.354   9.660   1.293  1.6205 -0.1369 -0.4987
  276MOL0     H37232  -1.299   9.918   1.438 -0.6903  2.1375  0.0134
  276MOL0     H37233  -1.323   9.900   1.254 -3.4361  1.4671  0.1273
  276MOL0     H37234  -1.529   9.835   1.481 -0.3930  1.8357 -0.3475
  276MOL0     H37235  -1.541   9.804   1.300 -2.1710  1.2728 -1.2375
  276MOL0     H37236  -1.519  10.078   1.408 -1.0366 -0.3124  0.3699
  276MOL0     H37237  -1.540  10.023   1.241 -1.1375  2.6797  0.4692
  276MOL0     H37238  -1.734  10.084   1.399  3.4760  1.8095  0.4723
  276MOL0     H37239  -1.721   9.923   1.466  2.4861  1.5631  0.6600
  276MOL0     H37240  -1.768   9.847   1.221 -1.1162 -0.2229  0.0984
  276MOL0     H37241  -1.787  10.021   1.185  0.1950 -0.5775 -0.4991
  276MOL0     H37242  -1.011   9.278   1.224  0.7880 -0.2893  1.1189
  276MOL0     H37243  -0.859   9.098   1.266 -0.1416 -0.5640  0.8203
  276MOL0     H37244  -0.496   9.084   1.751  0.0652 -0.3895 -0.5952
  276MOL0     H37245  -0.294   8.960   1.812  0.6059 -0.8155 -0.4885
  276MOL0     H37246   1.438   8.816   1.779  1.1321 -2.6024 -1.8849
  276MOL0     H37247   1.586   8.836   1.993  0.3260 -0.8308 -0.2478
  276MOL0     H37248   2.027   8.604   2.139 -0.9131 -0.7221  0.0085
  276MOL0     H37249   2.164   8.544   2.332  0.1449 -2.5698  2.7527
  276MOL0     H37250   2.149   8.334   2.611  0.9168 -0.8564 -3.4309
  276MOL0     H37251   2.212   8.434   2.478 -0.8216 -0.7454 -0.3569
  276MOL0     H37252   2.270   8.479   2.764  3.2932 -2.0820 -0.9943
  276MOL0     H37253   2.279   8.615   2.662 -3.4629 -0.4747 -1.1911
  276MOL0     H37254   2.467   8.473   2.544 -0.4892  2.5693  0.6261
  276MOL0     H37255   2.432   8.337   2.650  1.7966  0.0898  0.1887
  276MOL0     H37256   2.471   8.482   2.854 -0.8773  1.2565 -0.5987
  276MOL0     H37257   2.547   8.601   2.738  0.7549  0.2977 -0.1330
  276MOL0     H37258   2.810   8.259   2.765 -0.2270 -0.5294  0.4375
  276MOL0     H37259   1.834   8.619   2.598 -1.6856  3.7178 -0.7106
  276MOL0     H37260   1.691   8.663   2.404  0.1245  0.2740  2.6039
  277MOL0     O37261   2.857   3.735  10.617 -0.3402 -0.4448  0.2738
  277MOL0     C37262   2.847   3.613  10.598 -0.8466  0.9876 -0.1568
  277MOL0     O37263   2.735   3.547  10.576 -0.2855 -0.1168 -0.3165
  277MOL0     C37264   2.615   3.616  10.542  0.4869  1.6358 -0.5815
  277MOL0     C37265   2.549   3.557  10.433 -1.0701  0.0301  0.3022
  277MOL0     C37266   2.426   3.612  10.386 -1.2539  0.3621  0.5052
  277MOL0     C37267   2.369   3.721  10.457 -0.5526  0.0107  0.0186
  277MOL0     O37268   2.242   3.749  10.420  0.3286  0.3598 -0.3112
  277MOL0     C37269   2.157   3.810  10.518  0.2110  0.1168 -0.4117
  277MOL0     C37270   2.013   3.793  10.480  0.5338  0.5778 -0.0516
  277MOL0     C37271   1.920   3.871  10.574 -0.8608 -0.0295 -0.0582
  277MOL0     C37272   1.773   3.845  10.533  0.4390  0.8261  0.2080
  277MOL0     C37273   1.722   3.712  10.580 -0.0344  0.3017 -0.5563
  277MOL0     C37274   1.577   3.697  10.541 -0.1117  0.5018 -0.5442
  277MOL0     C37275   1.527   3.557  10.571 -0.0049 -0.6212 -0.6048
  277MOL0     C37276   1.372   3.532  10.552 -0.5761  0.6199  1.4056
  277MOL0     N37277   1.327   3.536  10.412  0.5590 -0.0998 -0.3986
  277MOL0     C37278   1.309   3.424  10.339 -0.0268  0.5263  0.4092
  277MOL0     C37279   1.263   3.473  10.218  0.0325  1.3390  0.2534
  277MOL0     C37280   1.239   3.378  10.099  0.9451 -0.4596 -0.3027
  277MOL0     C37281   1.161   3.458   9.992  0.0995 -0.3780 -0.4164
  277MOL0     C37282   1.148   3.375   9.862 -0.6615 -0.7850  0.0804
  277MOL0     C37283   1.066   3.246   9.861 -0.2463  0.3184  0.1010
  277MOL0     O37284   0.930   3.288   9.859 -0.6223 -0.5627  0.4043
  277MOL0     C37285   0.839   3.188   9.828  0.6525  1.1736  0.7517
  277MOL0     C37286   0.853   3.058   9.876  0.1990  0.0062 -0.0607
  277MOL0     C37287   0.750   2.951   9.851 -0.3825 -0.6448  0.1084
  277MOL0     C37288   0.775   2.817   9.909  0.1144 -0.8018  0.0979
  277MOL0     C37289   0.643   2.986   9.762 -0.4191  0.6356  0.7467
  277MOL0     C37290   0.536   2.882   9.722 -0.4119  1.1629 -0.2682
  277MOL0     O37291   0.424   2.935   9.659  0.3488  0.2335 -0.1556
  277MOL0     C37292   0.328   2.845   9.618  0.0697  0.6694  0.3880
  277MOL0     C37293   0.345   2.769   9.502  0.8737 -0.1816  0.0528
  277MOL0     C37294   0.256   2.674   9.466  0.5406  0.2431 -1.2179
  277MOL0     C37295   0.126   2.673   9.535 -1.0075  0.5242  0.6848
  277MOL0     O37296   0.041   2.577   9.488  0.2693 -0.5755  0.1462
  277MOL0     C37297  -0.099   2.597   9.513 -0.2313  0.1798  0.8388
  277MOL0     C37298  -0.163   2.486   9.604 -0.3491 -0.2705  0.7022
  277MOL0     C37299  -0.305   2.525   9.652 -1.0807  0.3269 -0.2701
  277MOL0     C37300  -0.351   2.455   9.773 -0.1027 -0.4408  0.3236
  277MOL0     C37301  -0.290   2.509   9.906  0.0117  0.1992 -0.9462
  277MOL0     C37302  -0.335   2.661   9.921  0.0366  0.9776  0.6578
  277MOL0     C37303  -0.325   2.704  10.070  0.0451  0.8068  0.1658
  277MOL0     C37304  -0.178   2.737  10.101 -0.5123  0.1066  0.2157
  277MOL0    Cl37305  -0.100   2.872  10.004 -0.0791 -0.2949 -0.1981
  277MOL0     C37306   0.102   2.749   9.650  0.3794 -1.5003 -0.1880
  277MOL0     C37307   0.210   2.827   9.692  0.2870 -0.7043  0.6414
  277MOL0     O37308   0.551   2.761   9.754  0.3565 -0.4734  0.6827
  277MOL0     C37309   0.631   3.112   9.712  0.4307  1.4881  0.2674
  277MOL0     C37310   0.725   3.212   9.738 -0.0794 -0.0453 -0.0363
  277MOL0     N37311   1.250   3.609  10.231 -0.3322  0.9472 -0.9358
  277MOL0     N37312   1.287   3.652  10.345 -0.5183  0.3638 -1.0121
  277MOL0     C37313   2.435   3.780  10.570  0.5884  0.1470  0.0423
  277MOL0     C37314   2.556   3.723  10.613 -0.4798 -0.3736  1.3259
  277MOL0     C37315   2.971   3.538  10.584 -0.4809  0.7406 -0.4423
  277MOL0     C37316   3.085   3.584  10.645 -0.6158 -0.3415 -0.1312
  277MOL0     C37317   3.203   3.525  10.628 -0.1152 -0.3980 -0.2919
  277MOL0     C37318   3.217   3.405  10.560 -0.2276 -0.3935  0.2665
  277MOL0     O37319   3.325   3.318  10.553 -0.4398 -0.2981  0.3250
  277MOL0     C37320   3.442   3.366  10.628  0.9150 -0.5723  0.3241
  277MOL0     C37321   3.543   3.249  10.625  0.6506  0.2733  0.2574
  277MOL0     C37322   3.670   3.281  10.703 -0.1708  0.3531  0.8114
  277MOL0     C37323   3.774   3.179  10.684  0.4135 -0.0611  0.1518
  277MOL0     C37324   3.817   3.151  10.548  0.3782  0.1707 -0.0671
  277MOL0     C37325   3.850   3.113  10.433 -0.3154  0.0909  0.5194
  277MOL0     C37326   3.106   3.359  10.492 -0.0344  0.1913 -0.0663
  277MOL0     C37327   2.988   3.432  10.494 -0.0626 -0.2074 -1.0484
  277MOL0     H37328   2.587   3.475  10.372  0.0890  1.6284 -1.2439
  277MOL0     H37329   2.377   3.579  10.295  0.7173  2.0522 -1.2891
  277MOL0     H37330   2.183   3.792  10.623  0.0423 -2.2798 -0.7249
  277MOL0     H37331   2.185   3.914  10.503 -0.8319  0.2483 -1.6160
  277MOL0     H37332   2.009   3.834  10.379 -0.2814  2.8164  0.8085
  277MOL0     H37333   1.993   3.686  10.475 -1.1512  0.7563  1.4845
  277MOL0     H37334   1.930   3.851  10.681 -3.0564  1.4392  0.4794
  277MOL0     H37335   1.943   3.977  10.560 -1.8357 -0.1956 -4.6075
  277MOL0     H37336   1.705   3.923  10.568 -1.1663 -0.1809 -0.5274
  277MOL0     H37337   1.764   3.835  10.425 -1.2668 -0.3225  0.4076
  277MOL0     H37338   1.778   3.629  10.535 -0.2132  1.0361 -2.2070
  277MOL0     H37339   1.716   3.704  10.689 -2.9697 -2.1637 -0.7660
  277MOL0     H37340   1.526   3.770  10.606  0.7155  0.7475 -0.1489
  277MOL0     H37341   1.560   3.726  10.437  2.0561  0.0617 -1.0726
  277MOL0     H37342   1.582   3.486  10.508 -0.3672  1.1902 -3.0944
  277MOL0     H37343   1.553   3.545  10.677  2.0132  0.6846 -0.9009
  277MOL0     H37344   1.323   3.611  10.610 -1.3046 -1.9513  4.6476
  277MOL0     H37345   1.346   3.433  10.593  0.9757 -0.6806 -0.5888
  277MOL0     H37346   1.327   3.321  10.369  2.4509  0.9366  0.5378
  277MOL0     H37347   1.338   3.344  10.067  1.3708  0.5499 -0.1031
  277MOL0     H37348   1.167   3.300  10.127 -1.2520  1.3426 -0.5611
  277MOL0     H37349   1.198   3.560   9.980 -0.8583  0.7048  3.9265
  277MOL0     H37350   1.066   3.488  10.038  1.1741 -1.1539  2.5057
  277MOL0     H37351   1.254   3.352   9.845 -0.4881 -0.4837  0.7181
  277MOL0     H37352   1.122   3.444   9.781 -0.4122 -0.4248  0.3078
  277MOL0     H37353   1.079   3.177   9.945 -1.1944  0.3264  0.2608
  277MOL0     H37354   1.102   3.184   9.778 -1.1465  0.7832 -0.6462
  277MOL0     H37355   0.943   3.034   9.932  0.8174  3.4308  0.6243
  277MOL0     H37356   0.865   2.828   9.970 -1.9142  4.2271  2.8171
  277MOL0     H37357   0.697   2.797   9.984  0.1874 -1.1407  0.0835
  277MOL0     H37358   0.782   2.736   9.837  1.9643 -2.0187  1.5714
  277MOL0     H37359   0.438   2.782   9.448 -0.5651  1.3123 -2.2371
  277MOL0     H37360   0.270   2.615   9.377  1.2973  2.1575 -2.4211
  277MOL0     H37361  -0.120   2.704   9.524 -2.6449 -0.0132 -1.0096
  277MOL0     H37362  -0.152   2.563   9.423 -0.4122  1.4834  0.4378
  277MOL0     H37363  -0.161   2.394   9.546  0.8881  0.7231 -0.9228
  277MOL0     H37364  -0.109   2.465   9.697 -0.0702 -1.9683  0.1828
  277MOL0     H37365  -0.357   2.491   9.562 -2.5081 -0.3458  0.7737
  277MOL0     H37366  -0.308   2.634   9.666 -1.6305  0.7605 -3.1492
  277MOL0     H37367  -0.456   2.481   9.785 -0.6643 -1.6991 -1.4777
  277MOL0     H37368  -0.337   2.347   9.763 -0.9984 -0.6335  1.0323
  277MOL0     H37369  -0.183   2.493   9.918 -0.4260 -3.4132 -0.9775
  277MOL0     H37370  -0.342   2.458   9.988  0.8866  0.6616 -0.0812
  277MOL0     H37371  -0.276   2.721   9.850  2.0594 -1.1805  0.3913
  277MOL0     H37372  -0.440   2.674   9.895 -0.1427 -1.9380 -0.4533
  277MOL0     H37373  -0.354   2.624  10.138 -0.9100  0.5618 -0.5134
  277MOL0     H37374  -0.401   2.779  10.095 -0.8232 -0.6909  2.3103
  277MOL0     H37375  -0.121   2.645  10.083  2.3906  1.8829 -0.2326
  277MOL0     H37376  -0.176   2.760  10.208 -0.6354  2.5018 -0.2530
  277MOL0     H37377   0.005   2.749   9.699  0.9429 -0.5284  0.9682
  277MOL0     H37378   0.198   2.883   9.783 -1.0665  0.7881 -0.4131
  277MOL0     H37379   0.548   3.132   9.644 -3.9535 -2.0722  3.8892
  277MOL0     H37380   0.724   3.311   9.694 -0.4544 -0.6019 -1.3078
  277MOL0     H37381   2.389   3.862  10.625 -2.7519 -1.5186 -0.0288
  277MOL0     H37382   2.619   3.756  10.696  1.7586 -1.0177 -0.0369
  277MOL0     H37383   3.083   3.678  10.699  0.3470 -0.3423 -0.0730
  277MOL0     H37384   3.294   3.568  10.671 -0.3194 -0.4239  0.1711
  277MOL0     H37385   3.489   3.443  10.566  0.5367 -2.2120 -2.1363
  277MOL0     H37386   3.423   3.389  10.733  0.6161  2.1453 -0.2433
  277MOL0     H37387   3.565   3.222  10.521 -0.8268 -1.6876  0.4040
  277MOL0     H37388   3.476   3.175  10.669 -0.2872  1.4113  0.8217
  277MOL0     H37389   3.648   3.299  10.809 -1.8279 -3.0537  1.1551
  277MOL0     H37390   3.705   3.380  10.671  0.8737 -0.1157  0.4499
  277MOL0     H37391   3.748   3.084  10.733 -0.2964 -1.5497 -2.8805
  277MOL0     H37392   3.866   3.224  10.722 -0.1301 -0.7756  2.4762
  277MOL0     H37393   3.855   3.070  10.335  1.9469  0.6823  0.3088
  277MOL0     H37394   3.115   3.273  10.427 -2.5260 -1.2836  1.3988
  277MOL0     H37395   2.905   3.387  10.440  1.3388 -3.9271 -0.4450
  278MOL0     O37396   0.398   7.857   2.250  0.7449 -0.1358  0.3486
  278MOL0     C37397   0.365   7.890   2.363 -0.0536 -0.2888 -0.1029
  278MOL0     O37398   0.446   7.951   2.453 -0.5988  0.0384 -0.0416
  278MOL0     C37399   0.578   7.983   2.416 -0.3524  1.4995  0.5450
  278MOL0     C37400   0.678   7.885   2.430  0.3301  0.9064 -0.3352
  278MOL0     C37401   0.812   7.918   2.386  0.3171 -0.3436 -0.5677
  278MOL0     C37402   0.846   8.040   2.319 -0.3950  0.2819  0.4462
  278MOL0     O37403   0.973   8.072   2.274 -0.0199 -0.0887 -0.0897
  278MOL0     C37404   1.078   8.067   2.376  0.1837 -0.4115 -0.1288
  278MOL0     C37405   1.161   8.197   2.359  0.0086  0.3385 -0.5648
  278MOL0     C37406   1.083   8.327   2.382  0.0235  0.1577 -0.2667
  278MOL0     C37407   1.134   8.447   2.305  0.2035 -0.6780  0.4406
  278MOL0     C37408   1.110   8.434   2.156 -0.6827 -0.4120 -0.3262
  278MOL0     C37409   0.958   8.422   2.114  0.8490  0.2562 -0.0109
  278MOL0     C37410   0.953   8.427   1.958  0.7007 -0.3154 -0.1001
  278MOL0     C37411   0.916   8.298   1.893  1.1819  0.7656  0.5015
  278MOL0     N37412   0.768   8.284   1.906  0.2966  0.7057  0.8265
  278MOL0     C37413   0.708   8.187   1.984  0.1720  0.7008  0.7746
  278MOL0     C37414   0.577   8.233   1.980  0.0400  0.6289 -0.3923
  278MOL0     C37415   0.464   8.147   2.031 -0.1210 -0.5460 -0.1555
  278MOL0     C37416   0.342   8.140   1.945 -0.2010  0.7076  0.1872
  278MOL0     C37417   0.246   8.036   2.007  0.7135  0.1423  1.2486
  278MOL0     C37418   0.120   8.023   1.913  0.1692  0.1326 -0.2782
  278MOL0     O37419   0.045   8.146   1.898 -0.4471  0.3510 -0.2752
  278MOL0     C37420  -0.076   8.139   1.834  0.5363  0.9853 -1.6466
  278MOL0     C37421  -0.121   8.250   1.762  0.2385  0.6313 -0.4808
  278MOL0     C37422  -0.256   8.274   1.710 -0.2492 -0.0706  0.2362
  278MOL0     C37423  -0.291   8.391   1.622  0.0298 -0.4812 -0.2978
  278MOL0     C37424  -0.350   8.174   1.746 -0.4922 -0.1989  0.0515
  278MOL0     C37425  -0.493   8.188   1.706 -0.2293  0.1717 -1.4180
  278MOL0     O37426  -0.546   8.092   1.641 -0.8068 -0.0522  0.4421
  278MOL0     C37427  -0.679   8.092   1.596  0.2529 -0.3530 -0.4365
  278MOL0     C37428  -0.790   8.178   1.642  1.2049  0.1317 -0.3498
  278MOL0     C37429  -0.925   8.157   1.607 -0.4314  0.1774 -0.2328
  278MOL0     C37430  -0.955   8.063   1.502 -0.0666 -1.1869 -0.1936
  278MOL0     O37431  -1.087   8.036   1.468  0.0832  0.5820 -0.3404
  278MOL0     C37432  -1.199   8.074   1.544 -0.2141  0.0868  0.3237
  278MOL0     C37433  -1.203   7.998   1.677  0.7037  0.9196  1.3283
  278MOL0     C37434  -1.225   7.843   1.650  0.0835  0.1990 -0.5894
  278MOL0     C37435  -1.370   7.822   1.594 -0.3184 -0.2262  0.0383
  278MOL0     C37436  -1.413   7.678   1.617  0.3970  0.5291 -0.5421
  278MOL0     C37437  -1.568   7.656   1.595 -0.1928 -0.0794 -0.0358
  278MOL0     C37438  -1.591   7.617   1.444 -0.9740 -0.7256 -1.0799
  278MOL0     C37439  -1.738   7.586   1.416  0.6360  0.5707  0.4149
  278MOL0    Cl37440  -1.760   7.547   1.238 -0.3702 -0.3854 -0.0810
  278MOL0     C37441  -0.846   7.992   1.447  0.5913  0.3985 -0.0933
  278MOL0     C37442  -0.710   8.009   1.489 -0.1548  0.3632 -0.5385
  278MOL0     O37443  -0.547   8.298   1.733  0.1257 -1.1080 -0.1753
  278MOL0     C37444  -0.309   8.049   1.805 -0.6863 -0.0691 -0.1474
  278MOL0     C37445  -0.175   8.032   1.843  0.5036  0.4313  0.0406
  278MOL0     N37446   0.565   8.336   1.891  0.3264  0.4374 -0.0058
  278MOL0     N37447   0.682   8.367   1.846 -0.5999 -0.4280 -0.5332
  278MOL0     C37448   0.738   8.134   2.311 -1.4245 -1.4216  0.4128
  278MOL0     C37449   0.608   8.106   2.356 -0.2367  0.8200  0.8730
  278MOL0     C37450   0.225   7.862   2.396  0.6442 -0.1577 -0.2095
  278MOL0     C37451   0.174   7.899   2.517 -0.1553  0.7126 -0.3533
  278MOL0     C37452   0.038   7.885   2.541  0.0933  0.2111 -0.1679
  278MOL0     C37453  -0.047   7.836   2.441 -0.5707  0.2243 -0.1551
  278MOL0     O37454  -0.179   7.804   2.471  0.4886  0.4229 -0.1700
  278MOL0     C37455  -0.272   7.906   2.451 -0.1236 -0.4834  0.3683
  278MOL0     C37456  -0.417   7.863   2.479  0.0168  0.2492 -0.4598
  278MOL0     C37457  -0.450   7.717   2.439 -0.2494  0.4483  1.0222
  278MOL0     C37458  -0.460   7.704   2.282  1.0184 -0.0473 -0.9221
  278MOL0     C37459  -0.579   7.766   2.221 -0.5718  0.1923  0.7487
  278MOL0     C37460  -0.679   7.796   2.158 -0.4383  0.1368 -0.5946
  278MOL0     C37461   0.006   7.789   2.321  0.7932  0.2846 -0.0609
  278MOL0     C37462   0.143   7.798   2.299  0.2933 -0.5153  0.8104
  278MOL0     H37463   0.656   7.792   2.481  1.9509 -0.3365 -1.8297
  278MOL0     H37464   0.885   7.844   2.418 -0.0744 -1.3407 -1.9161
  278MOL0     H37465   1.037   8.052   2.477  0.5107  3.0248  0.6194
  278MOL0     H37466   1.140   7.980   2.352 -0.5317 -1.0752  0.3732
  278MOL0     H37467   1.249   8.194   2.425  0.6623 -1.7599 -1.4397
  278MOL0     H37468   1.211   8.195   2.262  0.0475 -1.2195 -0.5422
  278MOL0     H37469   0.976   8.309   2.368  0.1297 -3.6670  2.4503
  278MOL0     H37470   1.083   8.348   2.489 -1.7349  0.6142 -0.3285
  278MOL0     H37471   1.080   8.535   2.340  4.0305  1.7615  0.8244
  278MOL0     H37472   1.242   8.458   2.316  0.0306  3.8830 -0.7159
  278MOL0     H37473   1.132   8.528   2.106 -2.6571  0.6284  0.6247
  278MOL0     H37474   1.162   8.350   2.109  0.2076  0.4298 -0.8738
  278MOL0     H37475   0.903   8.336   2.151 -1.7279  1.0634 -1.7049
  278MOL0     H37476   0.916   8.512   2.160  0.2979 -0.5747  1.1667
  278MOL0     H37477   0.886   8.510   1.934  1.2395  0.9157  2.3562
  278MOL0     H37478   1.054   8.453   1.924  3.2128 -2.8463  4.4640
  278MOL0     H37479   0.966   8.213   1.942 -0.4049  0.4955  1.7639
  278MOL0     H37480   0.942   8.307   1.788 -0.2914  1.7902  0.1983
  278MOL0     H37481   0.750   8.099   2.031 -0.6685 -0.6349 -0.8690
  278MOL0     H37482   0.495   8.044   2.048  0.2519 -0.7064 -1.6576
  278MOL0     H37483   0.446   8.197   2.127  5.0409 -0.5621  1.1481
  278MOL0     H37484   0.388   8.110   1.850  1.2685  1.4302  0.6249
  278MOL0     H37485   0.287   8.234   1.939 -0.2875  0.5780 -1.7651
  278MOL0     H37486   0.215   8.061   2.109 -1.1978  1.2028  0.4485
  278MOL0     H37487   0.295   7.939   2.025  1.7207  0.8636  2.6412
  278MOL0     H37488   0.053   7.953   1.964 -0.6795  1.1174 -0.0080
  278MOL0     H37489   0.152   7.975   1.820  2.1487 -2.4667  1.5891
  278MOL0     H37490  -0.049   8.331   1.758  0.2836  0.8380  2.3503
  278MOL0     H37491  -0.205   8.436   1.571 -0.6852  2.2085  0.7052
  278MOL0     H37492  -0.344   8.332   1.547  2.2182 -2.5640 -0.3301
  278MOL0     H37493  -0.350   8.468   1.672 -1.8106 -2.5655  0.9223
  278MOL0     H37494  -0.765   8.253   1.717  0.1549 -0.0281  0.1807
  278MOL0     H37495  -0.991   8.222   1.664  1.1478  1.4308  0.2473
  278MOL0     H37496  -1.198   8.182   1.561 -0.2845  0.4564 -1.7324
  278MOL0     H37497  -1.288   8.053   1.483  0.0050 -1.6439  0.5479
  278MOL0     H37498  -1.109   8.008   1.732  0.0316 -1.6740  3.1693
  278MOL0     H37499  -1.284   8.036   1.740 -0.5111 -1.3510  1.2427
  278MOL0     H37500  -1.218   7.786   1.744 -0.3742 -1.1365 -1.3396
  278MOL0     H37501  -1.151   7.801   1.583  0.2648  1.1709 -1.0117
  278MOL0     H37502  -1.436   7.888   1.652  1.3170  4.6598 -3.0690
  278MOL0     H37503  -1.379   7.845   1.488 -2.3643  2.2668  0.6715
  278MOL0     H37504  -1.394   7.664   1.724 -0.7551  0.7003 -0.3062
  278MOL0     H37505  -1.357   7.601   1.563 -0.7032 -0.9587  0.3527
  278MOL0     H37506  -1.603   7.579   1.665  1.6048 -2.9028 -2.0163
  278MOL0     H37507  -1.625   7.748   1.613  0.3768  0.3648 -0.4487
  278MOL0     H37508  -1.532   7.529   1.420 -2.1568 -2.4300  1.7848
  278MOL0     H37509  -1.557   7.702   1.384  2.3358 -0.1560  1.3125
  278MOL0     H37510  -1.806   7.669   1.436 -0.7863  0.1554 -2.2668
  278MOL0     H37511  -1.780   7.514   1.487 -2.8468  2.5916  0.6282
  278MOL0     H37512  -0.876   7.916   1.375 -0.6288  2.0423 -1.3815
  278MOL0     H37513  -0.626   7.949   1.456  1.0965  0.5615  2.0244
  278MOL0     H37514  -0.378   7.968   1.823  0.3588 -0.8234  0.5882
  278MOL0     H37515  -0.158   7.934   1.887  1.0766  0.3866 -0.2702
  278MOL0     H37516   0.760   8.231   2.267  2.9539 -1.5123  1.9270
  278MOL0     H37517   0.526   8.177   2.350  0.5023  1.6269 -0.1117
  278MOL0     H37518   0.232   7.949   2.595  0.1363 -0.3734  0.1459
  278MOL0     H37519  -0.014   7.926   2.627 -0.4146  1.1295 -0.8850
  278MOL0     H37520  -0.252   7.989   2.518 -0.1023 -1.1694  1.2247
  278MOL0     H37521  -0.265   7.947   2.350 -0.4163 -0.8926  0.1786
  278MOL0     H37522  -0.487   7.925   2.422 -2.0834 -1.8156 -0.2759
  278MOL0     H37523  -0.430   7.875   2.587  1.4618  1.1494 -0.3588
  278MOL0     H37524  -0.541   7.682   2.487 -0.3521 -0.9330 -0.1213
  278MOL0     H37525  -0.378   7.642   2.472 -0.7496  0.8601  3.1680
  278MOL0     H37526  -0.459   7.598   2.256  0.5381 -0.5688  0.9934
  278MOL0     H37527  -0.372   7.750   2.236 -0.4277  2.0102 -1.7943
  278MOL0     H37528  -0.772   7.818   2.111 -1.8264  0.5824  2.1832
  278MOL0     H37529  -0.053   7.751   2.238  2.1782  1.1396 -1.4982
  278MOL0     H37530   0.167   7.763   2.199 -3.0603 -0.4263 -0.1482
  279MOL0     O37531   0.356   6.406   8.808 -0.2898 -0.5641 -0.0490
  279MOL0     C37532   0.283   6.349   8.891 -0.2657 -0.4421  0.0878
  279MOL0     O37533   0.160   6.400   8.931  0.6952 -0.4260  0.0528
  279MOL0     C37534   0.116   6.522   8.880  0.4855 -0.0424  0.4404
  279MOL0     C37535   0.183   6.628   8.825 -0.3028 -1.1288  0.0797
  279MOL0     C37536   0.110   6.734   8.774  0.0597  0.1460  0.0378
  279MOL0     C37537  -0.030   6.746   8.786 -0.5523 -0.4273 -0.3681
  279MOL0     O37538  -0.093   6.856   8.741  0.2615  0.3212 -0.8578
  279MOL0     C37539  -0.022   6.977   8.767 -0.7184  0.0884 -0.4102
  279MOL0     C37540  -0.111   7.086   8.810  0.2829  0.0839  0.1850
  279MOL0     C37541  -0.020   7.208   8.841 -0.5078 -0.0459 -0.7704
  279MOL0     C37542   0.050   7.204   8.973  0.3153 -0.3360 -0.0864
  279MOL0     C37543   0.135   7.325   9.018  0.4202 -0.5375  0.6975
  279MOL0     C37544   0.165   7.294   9.165  0.2490 -0.1017  0.3078
  279MOL0     C37545   0.276   7.390   9.216  0.1138  0.0764  0.2081
  279MOL0     C37546   0.325   7.368   9.368  0.6598  0.6724  0.2337
  279MOL0     N37547   0.448   7.436   9.402  0.6036  0.3436  0.1923
  279MOL0     C37548   0.455   7.572   9.424 -0.4382 -0.1529 -0.2230
  279MOL0     C37549   0.587   7.594   9.435 -0.7396 -0.6414  0.1589
  279MOL0     C37550   0.657   7.727   9.460 -0.0873 -0.5909  0.2864
  279MOL0     C37551   0.782   7.702   9.546 -0.8197  0.5139  0.3306
  279MOL0     C37552   0.836   7.837   9.587  0.6961  0.1944  0.3508
  279MOL0     C37553   0.975   7.830   9.644  0.2249  0.3864 -0.4835
  279MOL0     O37554   0.998   7.964   9.682  0.0024  0.8758  0.4750
  279MOL0     C37555   1.124   8.010   9.707 -0.7100 -0.4597  0.6540
  279MOL0     C37556   1.236   7.932   9.737 -0.6116 -0.2136  0.1569
  279MOL0     C37557   1.363   7.994   9.735  0.5773  1.3892  0.3512
  279MOL0     C37558   1.480   7.900   9.750 -0.2614  0.8653  0.1296
  279MOL0     C37559   1.388   8.135   9.715 -0.6621 -0.3996 -0.2014
  279MOL0     C37560   1.523   8.198   9.708  0.1232  0.3529 -0.8284
  279MOL0     O37561   1.518   8.328   9.704  0.3807 -0.1620  0.1091
  279MOL0     C37562   1.636   8.386   9.701 -0.7369 -0.1953 -0.1392
  279MOL0     C37563   1.678   8.469   9.595 -0.4895  0.2013 -0.2837
  279MOL0     C37564   1.799   8.539   9.598 -0.4639  0.0076  0.1802
  279MOL0     C37565   1.880   8.534   9.705  1.3870 -0.3448 -1.0276
  279MOL0     O37566   2.008   8.594   9.688  0.4182 -0.2917  0.6153
  279MOL0     C37567   2.120   8.534   9.739  0.7383 -0.2244 -0.1716
  279MOL0     C37568   2.244   8.557   9.653  0.1725  0.6087  1.1217
  279MOL0     C37569   2.376   8.502   9.708  1.0583 -0.1990 -0.6384
  279MOL0     C37570   2.488   8.574   9.633 -0.0107  0.1997  0.0345
  279MOL0     C37571   2.615   8.486   9.621  0.2047 -0.8702 -0.4818
  279MOL0     C37572   2.699   8.533   9.506 -0.4128  0.1344 -0.0581
  279MOL0     C37573   2.838   8.481   9.507 -0.1997 -0.7053 -0.4776
  279MOL0     C37574   2.847   8.341   9.460 -1.3257 -0.4590 -0.1602
  279MOL0    Cl37575   2.820   8.214   9.580  0.2397  0.0953 -0.8808
  279MOL0     C37576   1.841   8.450   9.813 -0.2226 -0.4179  0.9392
  279MOL0     C37577   1.723   8.379   9.817  0.2823 -1.0049  0.0006
  279MOL0     O37578   1.623   8.133   9.718 -0.2354  0.5899 -0.7697
  279MOL0     C37579   1.271   8.204   9.692  0.3521 -0.2838 -0.5133
  279MOL0     C37580   1.139   8.152   9.695  0.6732 -0.0798 -0.5162
  279MOL0     N37581   0.655   7.478   9.412 -0.3617 -0.1514 -0.0173
  279MOL0     N37582   0.571   7.380   9.397  0.0049 -0.2755  0.3790
  279MOL0     C37583  -0.095   6.638   8.846  0.2990 -0.3872 -0.2694
  279MOL0     C37584  -0.031   6.531   8.884  0.0664 -0.2952 -0.4385
  279MOL0     C37585   0.350   6.224   8.941  0.1315  0.0144 -0.6915
  279MOL0     C37586   0.487   6.196   8.924 -0.0213  0.5080  0.1694
  279MOL0     C37587   0.541   6.078   8.967  0.7036 -0.4435  0.3002
  279MOL0     C37588   0.455   5.980   9.011 -0.1437  0.3945  0.5774
  279MOL0     O37589   0.496   5.848   9.038 -0.3750  0.3069 -0.1270
  279MOL0     C37590   0.608   5.831   9.125  0.9397 -0.0933 -0.6799
  279MOL0     C37591   0.628   5.688   9.174  0.1251 -0.7630 -0.9998
  279MOL0     C37592   0.617   5.577   9.067  0.7926 -0.4280  0.0225
  279MOL0     C37593   0.578   5.440   9.135 -0.4351  0.6833  0.9520
  279MOL0     C37594   0.584   5.335   9.034  0.5476  0.5153  0.1373
  279MOL0     C37595   0.579   5.248   8.952  0.1114 -0.3067  0.5516
  279MOL0     C37596   0.316   6.002   9.042 -1.3379 -0.1312 -0.3739
  279MOL0     C37597   0.262   6.127   9.006  0.5022  0.8532  1.1454
  279MOL0     H37598   0.289   6.619   8.802  0.4692  4.5533 -0.0188
  279MOL0     H37599   0.165   6.810   8.719  0.7104 -1.4168 -1.5913
  279MOL0     H37600   0.054   6.966   8.844  0.1732  5.8088 -0.0358
  279MOL0     H37601   0.036   7.006   8.679 -2.3143  2.0845 -0.8882
  279MOL0     H37602  -0.179   7.114   8.729 -0.7264 -0.8385  0.6818
  279MOL0     H37603  -0.176   7.061   8.895 -0.0321  0.6313  0.1086
  279MOL0     H37604   0.058   7.228   8.767  1.7131 -0.3272  1.3478
  279MOL0     H37605  -0.090   7.291   8.845 -2.0518 -0.9220 -4.5425
  279MOL0     H37606  -0.025   7.168   9.044 -2.3137 -2.0810 -3.4624
  279MOL0     H37607   0.131   7.133   8.955 -1.8877 -2.5899 -1.7291
  279MOL0     H37608   0.231   7.344   8.968  0.8659 -0.3514  1.6056
  279MOL0     H37609   0.076   7.417   9.019 -0.1289 -0.8793  2.2512
  279MOL0     H37610   0.069   7.298   9.218  0.4971  1.7587  0.6866
  279MOL0     H37611   0.206   7.192   9.167 -2.4802 -1.2946  1.0646
  279MOL0     H37612   0.360   7.376   9.147  0.5696  0.4437  0.6794
  279MOL0     H37613   0.236   7.491   9.207 -2.2516 -0.3445  3.9833
  279MOL0     H37614   0.344   7.261   9.383  0.8130 -0.1236 -4.2147
  279MOL0     H37615   0.243   7.399   9.433 -0.7415  2.7036 -2.3264
  279MOL0     H37616   0.377   7.645   9.439  0.3954  0.6534  0.2665
  279MOL0     H37617   0.680   7.763   9.360  0.6986  0.6154  0.8739
  279MOL0     H37618   0.589   7.804   9.500 -0.2180  0.3080 -1.5418
  279MOL0     H37619   0.858   7.646   9.490 -0.2557  2.8959 -1.4162
  279MOL0     H37620   0.758   7.642   9.635  0.2856  2.5446  2.0842
  279MOL0     H37621   0.768   7.880   9.661  0.9320  1.6989 -0.2626
  279MOL0     H37622   0.839   7.901   9.498  4.8973 -0.9347 -0.5583
  279MOL0     H37623   1.051   7.795   9.573 -0.3897 -0.2625 -0.8350
  279MOL0     H37624   0.979   7.774   9.737 -1.0578 -0.7279 -1.0635
  279MOL0     H37625   1.226   7.827   9.762 -0.2848  0.1488  1.9547
  279MOL0     H37626   1.448   7.797   9.768  1.9129  0.1167  0.0488
  279MOL0     H37627   1.552   7.900   9.668 -1.2578 -1.5429 -0.8297
  279MOL0     H37628   1.532   7.907   9.846 -0.2518 -1.6112  0.3676
  279MOL0     H37629   1.629   8.480   9.499  1.7934 -0.4580 -1.6068
  279MOL0     H37630   1.827   8.587   9.505 -2.4370 -2.3889 -1.7954
  279MOL0     H37631   2.129   8.575   9.841 -0.2417  0.4074 -0.3202
  279MOL0     H37632   2.091   8.429   9.743 -1.7087  0.3603 -0.4196
  279MOL0     H37633   2.219   8.525   9.552 -1.2963 -1.3191  2.0172
  279MOL0     H37634   2.242   8.666   9.641 -0.1903  0.3123 -2.6081
  279MOL0     H37635   2.376   8.395   9.684 -0.0944  0.0517 -1.8797
  279MOL0     H37636   2.396   8.514   9.814 -3.5975  0.4015  0.3711
  279MOL0     H37637   2.464   8.601   9.530  2.0556 -1.9863 -1.1328
  279MOL0     H37638   2.508   8.667   9.686  2.6193  0.5371 -1.3629
  279MOL0     H37639   2.593   8.379   9.611  1.7193 -1.7048  3.3719
  279MOL0     H37640   2.674   8.499   9.712 -2.4058 -2.6531  1.6162
  279MOL0     H37641   2.646   8.514   9.412 -0.4757  1.1064 -0.2352
  279MOL0     H37642   2.691   8.642   9.517 -2.0426  0.0233  0.1553
  279MOL0     H37643   2.878   8.475   9.608 -0.7914 -3.5146 -0.3305
  279MOL0     H37644   2.893   8.550   9.442 -2.5392 -1.8189 -3.9771
  279MOL0     H37645   2.950   8.328   9.428 -1.2408 -1.1754  0.3647
  279MOL0     H37646   2.792   8.317   9.368 -3.3762  0.5190  0.7473
  279MOL0     H37647   1.902   8.445   9.903  0.0321  2.3513  0.9959
  279MOL0     H37648   1.691   8.313   9.897  1.5291 -0.6701  0.8196
  279MOL0     H37649   1.287   8.310   9.676  0.6754 -0.5440 -2.0721
  279MOL0     H37650   1.042   8.194   9.673 -0.5739 -2.0202  0.9188
  279MOL0     H37651  -0.202   6.654   8.839  0.1405 -2.1738 -3.3591
  279MOL0     H37652  -0.080   6.442   8.921  0.9708 -1.2555 -1.4711
  279MOL0     H37653   0.548   6.267   8.870 -0.4287  2.1730  1.7933
  279MOL0     H37654   0.646   6.054   8.953  1.1703  0.2158  2.3128
  279MOL0     H37655   0.697   5.849   9.065  2.0291 -0.4638  0.7597
  279MOL0     H37656   0.591   5.887   9.218  0.4422 -2.3350  0.6660
  279MOL0     H37657   0.541   5.679   9.239  0.1107  1.1833 -0.6685
  279MOL0     H37658   0.717   5.691   9.238  1.0627  3.4211 -2.1631
  279MOL0     H37659   0.714   5.564   9.018  2.4586  1.2040  2.5911
  279MOL0     H37660   0.549   5.601   8.986  1.8143 -2.4630 -1.5099
  279MOL0     H37661   0.472   5.442   9.164 -2.1824 -0.6453 -4.1981
  279MOL0     H37662   0.642   5.424   9.223  0.2104 -0.2202  0.3374
  279MOL0     H37663   0.576   5.174   8.875  0.1086  1.3066 -1.0489
  279MOL0     H37664   0.259   5.917   9.080 -2.3968 -0.3674 -2.3571
  279MOL0     H37665   0.157   6.153   9.018  0.5457  2.7554 -1.8614
  280MOL0     O37666   4.214   5.311   8.241  0.9378  0.4528 -0.0826
  280MOL0     C37667   4.319   5.361   8.208 -0.2965 -0.3319  0.6576
  280MOL0     O37668   4.337   5.437   8.095  0.2339  0.9940  0.5563
  280MOL0     C37669   4.246   5.401   7.996  0.2171  0.2731 -0.3640
  280MOL0     C37670   4.126   5.461   7.971 -0.2646 -0.0786 -1.0861
  280MOL0     C37671   4.048   5.427   7.858  0.4952 -0.6865 -0.6157
  280MOL0     C37672   4.083   5.316   7.771  0.3233 -0.1841  0.4642
  280MOL0     O37673   4.004   5.281   7.663  0.5087 -0.3430  0.0731
  280MOL0     C37674   3.937   5.389   7.600  0.5381 -0.2833  0.3297
  280MOL0     C37675   3.936   5.350   7.456 -0.1352 -0.4437  0.2719
  280MOL0     C37676   3.867   5.459   7.364  0.1594 -0.6954  0.5578
  280MOL0     C37677   3.761   5.399   7.279  0.0842 -0.8329  0.5208
  280MOL0     C37678   3.671   5.499   7.208  1.2099 -0.1673 -0.0447
  280MOL0     C37679   3.539   5.438   7.159 -0.0032 -0.3243  0.1137
  280MOL0     C37680   3.537   5.350   7.029  0.2787  0.3500 -1.4240
  280MOL0     C37681   3.395   5.339   6.968 -0.5019  0.2301  0.3104
  280MOL0     N37682   3.369   5.451   6.875 -1.1530  0.8633  0.0773
  280MOL0     C37683   3.400   5.444   6.742  1.0153 -0.0908  0.4186
  280MOL0     C37684   3.311   5.528   6.690 -0.4618 -0.5318  0.3977
  280MOL0     C37685   3.289   5.539   6.542  0.0572 -0.7465 -0.3197
  280MOL0     C37686   3.141   5.583   6.496 -0.9000  0.8136  0.4707
  280MOL0     C37687   3.126   5.588   6.343 -0.3278 -0.5900 -0.0768
  280MOL0     C37688   3.003   5.654   6.287  0.5356  0.1071 -0.8469
  280MOL0     O37689   2.983   5.638   6.144  0.4014 -0.1082  0.2480
  280MOL0     C37690   2.855   5.635   6.091 -0.8411  0.0598  0.2633
  280MOL0     C37691   2.827   5.608   5.962  0.2407 -0.4188  0.1678
  280MOL0     C37692   2.702   5.627   5.896  0.2830 -0.7925 -0.9142
  280MOL0     C37693   2.690   5.597   5.758  0.7434 -0.3673 -0.3002
  280MOL0     C37694   2.595   5.657   5.987  0.1442 -0.3373  0.5306
  280MOL0     C37695   2.451   5.668   5.945 -0.2422 -0.1923  0.4103
  280MOL0     O37696   2.359   5.699   6.050  0.0598 -0.1468 -0.1164
  280MOL0     C37697   2.231   5.719   6.001 -0.3150  0.5840 -1.1575
  280MOL0     C37698   2.192   5.841   5.952  0.6299 -0.4554  0.1237
  280MOL0     C37699   2.075   5.847   5.879 -0.1731 -1.1272 -0.0294
  280MOL0     C37700   1.978   5.749   5.886  0.2799 -0.2349  0.1432
  280MOL0     O37701   1.851   5.759   5.839 -0.2215  0.4741  0.0051
  280MOL0     C37702   1.787   5.882   5.814  0.3634 -0.7572 -0.2920
  280MOL0     C37703   1.634   5.874   5.823 -0.7027  0.5994  0.1458
  280MOL0     C37704   1.579   5.846   5.965 -0.9815 -0.4422  1.1191
  280MOL0     C37705   1.569   5.701   6.009  1.0198  0.4746  0.2217
  280MOL0     C37706   1.469   5.699   6.141 -0.7470 -0.0893 -0.0090
  280MOL0     C37707   1.429   5.559   6.174  0.4434 -0.3153  0.1100
  280MOL0     C37708   1.532   5.482   6.256 -0.2224  0.3937 -0.7300
  280MOL0     C37709   1.541   5.514   6.404 -0.1502 -0.0807  0.0215
  280MOL0    Cl37710   1.374   5.482   6.474  0.2005  0.1701  0.2757
  280MOL0     C37711   2.013   5.630   5.949 -0.1352 -0.1743  0.2755
  280MOL0     C37712   2.141   5.608   6.008  0.9013  0.4177 -0.0198
  280MOL0     O37713   2.418   5.644   5.832  0.1143  0.5285 -0.2991
  280MOL0     C37714   2.623   5.671   6.128  0.7598 -0.1042  0.1614
  280MOL0     C37715   2.749   5.661   6.180  0.2411  0.3085 -0.1461
  280MOL0     N37716   3.259   5.609   6.790  0.0304 -0.0216 -0.4153
  280MOL0     N37717   3.300   5.566   6.904  0.0925 -0.1395  0.1199
  280MOL0     C37718   4.202   5.272   7.796 -0.4668  0.7202 -0.0307
  280MOL0     C37719   4.289   5.307   7.899  0.2115 -0.9458 -0.5957
  280MOL0     C37720   4.438   5.344   8.294 -1.2621 -0.1351 -0.1583
  280MOL0     C37721   4.558   5.418   8.272  0.5905  0.1579  0.1331
  280MOL0     C37722   4.661   5.408   8.366  0.6587  0.3287 -0.0107
  280MOL0     C37723   4.657   5.325   8.476  1.3029 -0.0378 -0.4055
  280MOL0     O37724   4.771   5.312   8.551 -1.1332 -0.7426 -0.5356
  280MOL0     C37725   4.806   5.193   8.624  0.2286  0.6851 -0.0578
  280MOL0     C37726   4.745   5.195   8.766  0.5491 -0.1151  0.0051
  280MOL0     C37727   4.797   5.326   8.838  0.4060  0.3604  0.0661
  280MOL0     C37728   4.731   5.329   8.975 -1.0671 -0.8249 -0.5665
  280MOL0     C37729   4.781   5.442   9.051 -0.4424  0.6959 -0.3248
  280MOL0     C37730   4.812   5.534   9.122  0.1036 -0.4001  1.3333
  280MOL0     C37731   4.546   5.249   8.493  0.1156 -0.1230  0.1523
  280MOL0     C37732   4.437   5.265   8.411  1.2192  0.1314  0.5453
  280MOL0     H37733   4.091   5.540   8.037 -1.1432 -1.1593 -0.2110
  280MOL0     H37734   3.957   5.482   7.835  1.8983  1.3425 -1.6894
  280MOL0     H37735   3.832   5.403   7.629  0.1378  1.1658 -1.5782
  280MOL0     H37736   3.991   5.484   7.609 -0.5230  0.6688 -2.2386
  280MOL0     H37737   4.039   5.340   7.418 -0.6877 -1.8700 -0.9765
  280MOL0     H37738   3.879   5.257   7.444 -1.2947  0.5692 -3.2862
  280MOL0     H37739   3.822   5.535   7.428  1.2814 -0.8211  1.5301
  280MOL0     H37740   3.935   5.511   7.296 -1.0320 -0.0426 -0.1628
  280MOL0     H37741   3.785   5.333   7.195 -2.2177 -1.0470 -0.0436
  280MOL0     H37742   3.696   5.338   7.342 -1.2789  0.5072  0.4744
  280MOL0     H37743   3.645   5.584   7.271  2.1866 -0.1983  0.4239
  280MOL0     H37744   3.712   5.533   7.113 -2.4641 -5.4148 -4.0959
  280MOL0     H37745   3.499   5.374   7.239  0.2649  0.4722  0.8941
  280MOL0     H37746   3.470   5.522   7.148  0.2257 -0.0925  0.4200
  280MOL0     H37747   3.606   5.401   6.960  1.6466  1.7788  0.8529
  280MOL0     H37748   3.572   5.249   7.053 -1.8769 -0.1329 -0.0600
  280MOL0     H37749   3.317   5.336   7.044  1.1385  2.3603  2.2270
  280MOL0     H37750   3.384   5.248   6.908 -0.4097  0.7720 -0.5538
  280MOL0     H37751   3.468   5.378   6.689  0.8832  0.3998 -0.3732
  280MOL0     H37752   3.358   5.617   6.508 -0.3871 -0.8355 -1.4629
  280MOL0     H37753   3.306   5.444   6.492 -2.6441 -0.2534 -2.3987
  280MOL0     H37754   3.115   5.672   6.554  1.9589  1.4295  0.9585
  280MOL0     H37755   3.070   5.504   6.524  1.7971 -1.7970  0.5148
  280MOL0     H37756   3.125   5.487   6.300 -1.3522 -0.3109 -0.7482
  280MOL0     H37757   3.205   5.643   6.292 -0.3604  0.1981  0.7171
  280MOL0     H37758   2.996   5.761   6.310 -3.3913 -0.3368  0.7934
  280MOL0     H37759   2.923   5.607   6.345  2.4312 -0.5362  1.3926
  280MOL0     H37760   2.912   5.575   5.903  0.6103 -0.0920  0.5104
  280MOL0     H37761   2.631   5.508   5.731 -3.1438  1.7645  0.4352
  280MOL0     H37762   2.642   5.685   5.714 -0.9215  0.5453  3.0278
  280MOL0     H37763   2.787   5.583   5.709 -0.1872  1.9750 -3.1426
  280MOL0     H37764   2.264   5.922   5.950  2.6128 -2.1319  0.4765
  280MOL0     H37765   2.059   5.942   5.830 -2.4996 -0.1917  2.3012
  280MOL0     H37766   1.822   5.953   5.889 -0.7684  2.0263 -2.2364
  280MOL0     H37767   1.789   5.934   5.718 -3.3616  1.4772  0.6310
  280MOL0     H37768   1.599   5.971   5.787 -1.8311 -0.3678 -1.4973
  280MOL0     H37769   1.600   5.792   5.759 -0.9100  2.0901 -1.7494
  280MOL0     H37770   1.477   5.886   5.963 -2.0250 -2.9864 -0.1730
  280MOL0     H37771   1.639   5.906   6.034  1.4480 -0.2795 -0.9686
  280MOL0     H37772   1.530   5.641   5.926 -1.1208  3.2309 -0.9004
  280MOL0     H37773   1.669   5.661   6.028  2.4257  3.3641 -0.6548
  280MOL0     H37774   1.377   5.757   6.137 -0.5023  0.2403 -1.0865
  280MOL0     H37775   1.530   5.736   6.224 -1.6054  0.5694  0.3505
  280MOL0     H37776   1.324   5.552   6.204 -0.4633  1.8477 -2.2000
  280MOL0     H37777   1.422   5.513   6.075 -1.0968  2.4004 -1.1376
  280MOL0     H37778   1.633   5.502   6.220  0.8373 -1.9331  0.7151
  280MOL0     H37779   1.507   5.375   6.252  3.3503 -0.5953 -0.1439
  280MOL0     H37780   1.582   5.613   6.425  0.2632  0.0608 -1.3232
  280MOL0     H37781   1.607   5.443   6.453 -0.7204  0.3981  1.5406
  280MOL0     H37782   1.932   5.561   5.970 -0.1275  0.3589  2.3281
  280MOL0     H37783   2.163   5.512   6.053 -3.0031  0.7445  3.1223
  280MOL0     H37784   2.537   5.698   6.190 -0.1577 -2.0474 -0.1929
  280MOL0     H37785   2.757   5.667   6.289 -1.8952  3.0870 -0.0286
  280MOL0     H37786   4.239   5.189   7.736  0.3214  0.7093  0.4460
  280MOL0     H37787   4.385   5.259   7.908  1.4054  0.1239 -5.0422
  280MOL0     H37788   4.583   5.481   8.187  1.2367  0.8326  0.8049
  280MOL0     H37789   4.754   5.460   8.347  0.7779  0.3770  0.6890
  280MOL0     H37790   4.767   5.106   8.569  1.1560 -0.9275  1.6927
  280MOL0     H37791   4.915   5.182   8.626  0.1646 -0.4074 -0.9412
  280MOL0     H37792   4.761   5.100   8.818 -0.2511 -0.2871 -0.0397
  280MOL0     H37793   4.637   5.201   8.747  0.1104 -2.2935  1.4531
  280MOL0     H37794   4.754   5.411   8.784 -1.1629 -2.4755 -3.6151
  280MOL0     H37795   4.906   5.329   8.844  0.6093  0.2276 -2.5996
  280MOL0     H37796   4.749   5.232   9.023  0.2648 -0.3253 -0.0153
  280MOL0     H37797   4.623   5.342   8.962 -0.9860  1.8164  0.8709
  280MOL0     H37798   4.857   5.608   9.186 -1.8953  2.2625 -0.1583
  280MOL0     H37799   4.535   5.176   8.572  1.1485 -1.4230 -0.8640
  280MOL0     H37800   4.348   5.210   8.440  2.5734 -1.4041  1.9588
  281MOL0     O37801   9.843  10.071   7.466  0.1289  0.0111 -0.0981
  281MOL0     C37802   9.961  10.093   7.462  0.1097 -0.2054 -1.1787
  281MOL0     O37803  10.026  10.169   7.556  0.0183 -0.2529 -0.5349
  281MOL0     C37804   9.958  10.201   7.666 -0.2735 -0.3346  0.2333
  281MOL0     C37805   9.861  10.308   7.670 -0.5402 -1.0178 -0.5801
  281MOL0     C37806   9.816  10.345   7.795  1.0142 -0.2688 -0.2994
  281MOL0     C37807   9.858  10.277   7.906  0.4831 -0.7263 -0.4119
  281MOL0     O37808   9.799  10.315   8.028 -0.4713 -0.1239  0.0136
  281MOL0     C37809   9.662  10.316   8.037  0.2481  0.3727  0.2315
  281MOL0     C37810   9.629  10.324   8.182  0.0539 -0.7164 -0.2262
  281MOL0     C37811   9.693  10.448   8.256  0.2830  0.0009 -0.1305
  281MOL0     C37812   9.630  10.508   8.378  0.2107  0.4405  0.5179
  281MOL0     C37813   9.503  10.590   8.347 -0.0830 -0.0704  0.1076
  281MOL0     C37814   9.431  10.640   8.467 -0.0464 -0.6979 -0.4128
  281MOL0     C37815   9.316  10.730   8.412 -0.1942 -0.1116  0.2085
  281MOL0     C37816   9.207  10.645   8.339  0.0744  0.8165 -0.2029
  281MOL0     N37817   9.150  10.535   8.426 -0.5833  0.0174  0.1062
  281MOL0     C37818   9.083  10.554   8.545  0.8539  0.3819  0.2173
  281MOL0     C37819   9.082  10.430   8.602  0.0448  0.8071 -0.7717
  281MOL0     C37820   9.002  10.400   8.730  1.0086 -0.4350 -0.4493
  281MOL0     C37821   8.859  10.377   8.688  0.1303  0.0562  0.3708
  281MOL0     C37822   8.777  10.327   8.798  0.4577  1.0441 -0.4566
  281MOL0     C37823   8.620  10.366   8.782  0.1222  0.0431  0.8800
  281MOL0     O37824   8.543  10.282   8.864 -0.0759 -0.1817 -0.4698
  281MOL0     C37825   8.411  10.308   8.878  0.4647  0.5548  0.0841
  281MOL0     C37826   8.368  10.374   8.993 -0.8691 -1.7761  0.3665
  281MOL0     C37827   8.228  10.408   9.021 -0.1850 -0.2365  0.3460
  281MOL0     C37828   8.207  10.483   9.148  0.1517  0.3734  0.0214
  281MOL0     C37829   8.128  10.385   8.916 -0.5411  0.3762  0.6450
  281MOL0     C37830   7.980  10.423   8.914 -0.4728  0.0025 -0.2353
  281MOL0     O37831   7.925  10.455   9.033 -0.2219 -0.4963 -0.1538
  281MOL0     C37832   7.796  10.508   9.051  0.0083  0.0868  0.7977
  281MOL0     C37833   7.674  10.469   8.995 -0.7374  0.5138 -0.1134
  281MOL0     C37834   7.562  10.543   9.014  0.5182 -0.8565  0.5225
  281MOL0     C37835   7.560  10.656   9.093  0.2484  0.2020  0.6593
  281MOL0     O37836   7.443  10.721   9.119 -0.3021 -0.3467  0.1149
  281MOL0     C37837   7.440  10.849   9.176 -0.7989 -0.2863 -0.6894
  281MOL0     C37838   7.295  10.908   9.183  0.0383 -0.7083 -0.2954
  281MOL0     C37839   7.281  11.051   9.256 -0.3617  0.0475 -0.4218
  281MOL0     C37840   7.141  11.077   9.285  0.1290  0.4439 -0.6230
  281MOL0     C37841   7.134  11.195   9.381  0.3380 -0.2988 -0.8122
  281MOL0     C37842   6.995  11.252   9.395 -0.1256  0.5788  0.2558
  281MOL0     C37843   6.985  11.380   9.492  0.2921  0.3013  0.5863
  281MOL0     C37844   6.847  11.452   9.482 -0.3821  0.2226  0.1329
  281MOL0    Cl37845   6.832  11.534   9.325 -0.7265 -0.4654 -0.1293
  281MOL0     C37846   7.675  10.674   9.172 -0.9264  0.4766  0.1130
  281MOL0     C37847   7.797  10.617   9.137 -0.9687  0.6785  0.1709
  281MOL0     O37848   7.926  10.417   8.808 -1.0360  0.4135  0.2178
  281MOL0     C37849   8.171  10.311   8.803  0.1391  0.2241  0.0779
  281MOL0     C37850   8.306  10.274   8.785 -0.5969 -0.1629  0.4978
  281MOL0     N37851   9.140  10.337   8.508 -0.1648 -0.2401  0.0649
  281MOL0     N37852   9.181  10.403   8.408  0.8901  0.5905  0.5118
  281MOL0     C37853   9.968  10.189   7.906  0.1487  0.3641 -0.2420
  281MOL0     C37854  10.016  10.144   7.786  0.0088 -1.5710  1.1613
  281MOL0     C37855  10.032  10.047   7.345 -0.5753 -0.1468 -0.6937
  281MOL0     C37856   9.974   9.980   7.245 -0.2469  0.9805 -0.9613
  281MOL0     C37857  10.046   9.944   7.136  0.1644  0.1388 -0.6045
  281MOL0     C37858  10.179   9.976   7.121 -0.8206 -0.3186  0.3373
  281MOL0     O37859  10.235   9.980   6.993  0.4568 -0.0979 -0.7825
  281MOL0     C37860  10.365   9.914   6.991 -0.0326  0.8469  0.0634
  281MOL0     C37861  10.482   9.999   6.932 -0.0188  0.0467  1.3084
  281MOL0     C37862  10.491  10.138   6.993  0.2371 -0.3740 -0.0586
  281MOL0     C37863  10.608  10.219   6.929  0.1520  0.4490 -0.8260
  281MOL0     C37864  10.623  10.346   6.999  0.1024 -0.0982 -0.7937
  281MOL0     C37865  10.625  10.444   7.066 -0.8128  0.3236 -0.4480
  281MOL0     C37866  10.251  10.027   7.234 -0.0991  0.0055  0.8054
  281MOL0     C37867  10.175  10.060   7.347 -0.1266  0.3157 -0.6575
  281MOL0     H37868   9.831  10.363   7.582 -1.1608  0.5693  0.5863
  281MOL0     H37869   9.745  10.427   7.796  2.8745  1.4024 -0.0365
  281MOL0     H37870   9.612  10.398   7.985  2.2476  0.6841 -1.3492
  281MOL0     H37871   9.625  10.222   7.996  1.9386  0.9467 -3.0410
  281MOL0     H37872   9.521  10.317   8.196  0.4459 -4.9493  2.3553
  281MOL0     H37873   9.669  10.239   8.237 -0.5051  0.0138  1.3836
  281MOL0     H37874   9.794  10.416   8.284  0.3073 -0.8976 -1.1578
  281MOL0     H37875   9.703  10.531   8.185  0.8471  1.5646  1.7173
  281MOL0     H37876   9.604  10.438   8.458 -1.4357  0.2073 -0.1778
  281MOL0     H37877   9.708  10.574   8.416  1.8911  0.6589 -2.9643
  281MOL0     H37878   9.526  10.665   8.271 -2.0974 -1.3155 -1.8569
  281MOL0     H37879   9.437  10.522   8.292  4.6310 -2.4127 -3.4366
  281MOL0     H37880   9.391  10.561   8.532  1.6929  0.1303  1.7872
  281MOL0     H37881   9.502  10.692   8.532  1.3015 -0.4158 -2.0454
  281MOL0     H37882   9.267  10.772   8.500  0.8298 -2.7237  2.1504
  281MOL0     H37883   9.357  10.803   8.342  0.8537 -2.2018 -1.4637
  281MOL0     H37884   9.245  10.588   8.254  2.6951  1.9888  0.0844
  281MOL0     H37885   9.126  10.714   8.315 -1.5781  0.4421  3.5588
  281MOL0     H37886   9.043  10.648   8.582  0.4217 -0.7052  2.7325
  281MOL0     H37887   9.035  10.308   8.778  2.8308 -0.6234 -1.9343
  281MOL0     H37888   9.016  10.486   8.797  0.5632 -1.5725  1.1682
  281MOL0     H37889   8.849  10.310   8.602  0.6729  1.8812 -1.1920
  281MOL0     H37890   8.821  10.476   8.663  0.6964  0.6603  1.8168
  281MOL0     H37891   8.806  10.365   8.896  0.3630  0.8482 -0.3517
  281MOL0     H37892   8.788  10.218   8.799  1.2722  1.1259  0.5926
  281MOL0     H37893   8.592  10.348   8.678  0.4703  3.2477  0.1171
  281MOL0     H37894   8.608  10.472   8.807 -1.4295  0.4563 -1.3104
  281MOL0     H37895   8.453  10.393   9.058  1.1912 -0.2048 -2.5515
  281MOL0     H37896   8.118  10.446   9.201  1.4001 -3.3969 -0.2472
  281MOL0     H37897   8.295  10.489   9.213  0.2382 -1.5848  0.1307
  281MOL0     H37898   8.181  10.585   9.116 -0.3612  0.9483  2.0831
  281MOL0     H37899   7.678  10.375   8.940 -4.1832  0.4298 -0.4343
  281MOL0     H37900   7.470  10.515   8.965 -0.5311 -0.3061  2.1054
  281MOL0     H37901   7.478  10.848   9.278 -1.9635  2.2608 -0.1346
  281MOL0     H37902   7.505  10.908   9.110  0.5492 -0.7526  0.1914
  281MOL0     H37903   7.254  10.912   9.082  1.1661  2.1634 -0.7303
  281MOL0     H37904   7.242  10.824   9.230  1.3728 -1.6582 -0.4212
  281MOL0     H37905   7.317  11.131   9.191 -1.8742  2.3782  1.4287
  281MOL0     H37906   7.341  11.046   9.348 -1.7316  1.8612  0.6363
  281MOL0     H37907   7.080  11.096   9.196 -0.3916 -0.3212 -0.4436
  281MOL0     H37908   7.106  10.997   9.351  0.6926  0.9426  0.2919
  281MOL0     H37909   7.196  11.274   9.338  1.1912 -1.1277 -1.1440
  281MOL0     H37910   7.164  11.152   9.477 -1.4261 -2.4636 -1.1403
  281MOL0     H37911   6.950  11.281   9.300 -1.0889 -0.2764  0.4360
  281MOL0     H37912   6.927  11.175   9.432  0.0316 -0.9968 -2.5362
  281MOL0     H37913   7.073  11.442   9.475  0.3547 -0.4836 -2.5143
  281MOL0     H37914   6.995  11.351   9.597 -0.1001  0.6812  0.7318
  281MOL0     H37915   6.845  11.523   9.564  2.2730  0.7904 -0.2047
  281MOL0     H37916   6.763  11.382   9.494 -0.2622 -0.2994 -1.7201
  281MOL0     H37917   7.679  10.755   9.244 -3.2215 -0.8592  1.8573
  281MOL0     H37918   7.887  10.643   9.192  0.0804 -1.8479 -0.2109
  281MOL0     H37919   8.104  10.296   8.719  2.2617  0.6146 -1.7773
  281MOL0     H37920   8.335  10.221   8.695 -0.7359 -1.1627  1.0261
  281MOL0     H37921  10.016  10.161   7.999  1.9547  4.2096  0.1650
  281MOL0     H37922  10.108  10.087   7.791  0.1882 -1.2982  1.0332
  281MOL0     H37923   9.867   9.962   7.242  0.3426 -3.7012 -0.7381
  281MOL0     H37924   9.995   9.910   7.046  0.2549  0.4624 -0.7811
  281MOL0     H37925  10.393   9.874   7.089  2.3313 -0.4285 -1.0505
  281MOL0     H37926  10.355   9.827   6.926  3.3162 -0.7877  1.5184
  281MOL0     H37927  10.470   9.989   6.824  1.3860 -1.7949  1.2739
  281MOL0     H37928  10.580   9.954   6.948 -0.1314 -1.7187 -2.1503
  281MOL0     H37929  10.516  10.113   7.097  3.6730 -3.7335 -1.4624
  281MOL0     H37930  10.395  10.190   6.992 -0.1497 -0.9706  1.9434
  281MOL0     H37931  10.578  10.235   6.825  2.6415  0.3068 -1.6217
  281MOL0     H37932  10.706  10.170   6.920  0.4663  0.5974  1.2721
  281MOL0     H37933  10.645  10.525   7.133 -0.1227 -1.4234  1.5747
  281MOL0     H37934  10.360  10.035   7.229  0.0378 -1.8782 -3.1984
  281MOL0     H37935  10.233  10.089   7.434 -0.2345  0.0691 -0.5008
  282MOL0     O37936   5.590   4.541   1.119  0.0072 -0.0766 -0.0451
  282MOL0     C37937   5.597   4.523   0.996 -0.7583 -0.3888  0.9335
  282MOL0     O37938   5.509   4.455   0.918  0.1666 -0.8352  0.7260
  282MOL0     C37939   5.403   4.376   0.958  0.2506  0.0728 -0.4902
  282MOL0     C37940   5.346   4.311   0.851  0.1219  0.7200  0.0972
  282MOL0     C37941   5.230   4.234   0.859 -0.1384 -0.6407  0.2345
  282MOL0     C37942   5.169   4.215   0.985 -0.4266 -0.0016  0.2115
  282MOL0     O37943   5.061   4.130   0.989 -0.2190  0.4132  0.1429
  282MOL0     C37944   4.981   4.135   1.109  0.4260  0.3019  0.3583
  282MOL0     C37945   4.883   4.023   1.092 -0.0360 -0.1668  0.5729
  282MOL0     C37946   4.785   4.013   1.210 -0.1645  0.0060 -0.7891
  282MOL0     C37947   4.844   3.990   1.347  0.2010 -0.0657 -0.4680
  282MOL0     C37948   4.736   3.953   1.451  0.3527  0.5485 -0.1230
  282MOL0     C37949   4.784   3.831   1.531  0.0727 -0.1120  0.3752
  282MOL0     C37950   4.669   3.757   1.613 -0.7106 -0.1284  0.1196
  282MOL0     C37951   4.569   3.677   1.527  0.1770 -0.3671  0.0697
  282MOL0     N37952   4.621   3.543   1.493 -0.2682 -0.7992  0.1322
  282MOL0     C37953   4.668   3.442   1.581  0.3998 -0.0864 -0.5213
  282MOL0     C37954   4.729   3.347   1.509  0.3843  0.1892 -0.6587
  282MOL0     C37955   4.790   3.223   1.564  0.1048  0.3769 -0.5349
  282MOL0     C37956   4.761   3.099   1.481 -0.1056  0.6719 -0.0915
  282MOL0     C37957   4.608   3.073   1.480  1.1096 -0.5261  0.5108
  282MOL0     C37958   4.570   2.936   1.447 -0.4618 -0.1005 -0.2647
  282MOL0     O37959   4.528   2.862   1.571 -0.3601  0.2029 -0.0103
  282MOL0     C37960   4.394   2.823   1.582  0.3768 -0.2388  0.1634
  282MOL0     C37961   4.372   2.705   1.645 -0.1967 -0.3998 -0.1267
  282MOL0     C37962   4.232   2.661   1.657 -0.3136 -0.4737 -0.4146
  282MOL0     C37963   4.222   2.529   1.734 -0.0084 -0.7640  0.5624
  282MOL0     C37964   4.127   2.748   1.622  0.3464  1.2137 -0.0093
  282MOL0     C37965   3.986   2.720   1.651  0.4647  0.3699  0.2833
  282MOL0     O37966   3.944   2.581   1.657  0.4826 -0.0218 -0.1166
  282MOL0     C37967   3.824   2.553   1.712  0.1510  0.5761  0.5334
  282MOL0     C37968   3.814   2.514   1.840  0.4775 -0.2167 -0.7065
  282MOL0     C37969   3.684   2.504   1.901 -0.0233 -1.3602 -1.3343
  282MOL0     C37970   3.563   2.528   1.835  0.5660  0.6453  0.8469
  282MOL0     O37971   3.438   2.534   1.884 -0.2853  1.1473 -0.2905
  282MOL0     C37972   3.418   2.491   2.016 -0.7772  0.6714 -0.3378
  282MOL0     C37973   3.265   2.484   2.041  0.4966 -0.4654  0.4486
  282MOL0     C37974   3.237   2.430   2.177  0.1121 -0.6970  0.3898
  282MOL0     C37975   3.221   2.279   2.166  0.4511 -0.1726 -0.0191
  282MOL0     C37976   3.206   2.202   2.301 -0.1845  0.6039  0.1775
  282MOL0     C37977   3.072   2.250   2.374  0.3745 -0.4082 -0.1489
  282MOL0     C37978   3.055   2.175   2.504 -0.1125 -0.0128  0.4483
  282MOL0     C37979   2.930   2.211   2.589  0.4695  0.6200 -0.7095
  282MOL0    Cl37980   2.792   2.170   2.499 -0.1204 -0.2662  0.2883
  282MOL0     C37981   3.584   2.550   1.693  1.0327  0.3593  0.0828
  282MOL0     C37982   3.708   2.567   1.638 -0.0591  0.2267  0.1977
  282MOL0     O37983   3.905   2.816   1.663  0.8265  0.4175 -0.3571
  282MOL0     C37984   4.151   2.858   1.549 -0.0472 -1.0315 -0.2721
  282MOL0     C37985   4.281   2.894   1.534 -0.3619 -0.1218 -0.0601
  282MOL0     N37986   4.708   3.382   1.375 -0.0838 -0.1203 -0.3182
  282MOL0     N37987   4.650   3.493   1.371  0.3251 -0.4505  0.9440
  282MOL0     C37988   5.226   4.279   1.094 -0.1593  0.2869 -0.3342
  282MOL0     C37989   5.338   4.364   1.083 -0.5408  0.0277  0.6116
  282MOL0     C37990   5.716   4.577   0.923 -0.4695 -0.8108  0.2356
  282MOL0     C37991   5.810   4.669   0.979 -0.0219 -0.3075 -0.4103
  282MOL0     C37992   5.912   4.733   0.908 -0.4374 -0.1031  0.1410
  282MOL0     C37993   5.932   4.698   0.774 -0.1849  0.5221  0.5883
  282MOL0     O37994   6.026   4.770   0.699 -0.2632  0.3063 -0.8583
  282MOL0     C37995   6.092   4.882   0.754  1.1319 -0.2727 -0.2298
  282MOL0     C37996   6.210   4.843   0.844 -0.0168 -0.8005  1.0839
  282MOL0     C37997   6.286   4.966   0.891  0.6986 -0.3233  0.1764
  282MOL0     C37998   6.202   5.047   0.988  0.7167  0.3529 -0.2508
  282MOL0     C37999   6.142   4.973   1.096 -0.1879  0.3639 -0.0555
  282MOL0     C38000   6.092   4.898   1.178  0.4111 -0.0659 -1.0159
  282MOL0     C38001   5.846   4.599   0.714 -0.1084 -0.1722 -0.0615
  282MOL0     C38002   5.742   4.545   0.789  0.7832 -0.5064 -0.6496
  282MOL0     H38003   5.397   4.319   0.756 -0.0859  1.1349  0.0171
  282MOL0     H38004   5.195   4.191   0.766  0.4329  2.0964 -1.3497
  282MOL0     H38005   5.045   4.113   1.195 -0.8416  2.5165  1.9905
  282MOL0     H38006   4.935   4.231   1.135 -2.8072 -0.7828 -0.8777
  282MOL0     H38007   4.826   4.046   1.001  0.6753  0.5874  0.3053
  282MOL0     H38008   4.940   3.932   1.074 -1.2281 -0.8728  0.2904
  282MOL0     H38009   4.728   4.106   1.212 -0.5892 -0.2610 -0.1602
  282MOL0     H38010   4.710   3.937   1.186 -2.0239  1.1490  1.0594
  282MOL0     H38011   4.914   3.907   1.337 -1.8550 -1.7702 -1.7771
  282MOL0     H38012   4.899   4.078   1.381  1.0623 -0.7913  0.0369
  282MOL0     H38013   4.712   4.034   1.520 -2.9068 -2.0820  2.1251
  282MOL0     H38014   4.648   3.923   1.393  1.4184  1.1397 -2.1593
  282MOL0     H38015   4.834   3.756   1.470 -1.0072 -1.8723  1.5700
  282MOL0     H38016   4.862   3.861   1.602  1.6275  0.4449 -1.4958
  282MOL0     H38017   4.714   3.702   1.695 -1.1149  1.2757  1.3324
  282MOL0     H38018   4.610   3.832   1.668 -0.1557  0.9645 -0.7201
  282MOL0     H38019   4.546   3.735   1.437  2.2105 -1.2452 -1.0825
  282MOL0     H38020   4.477   3.656   1.581  0.5608 -1.3457  0.3646
  282MOL0     H38021   4.681   3.446   1.689  2.9523  3.7693 -0.7935
  282MOL0     H38022   4.897   3.234   1.581  0.4077 -3.4191  1.0795
  282MOL0     H38023   4.759   3.194   1.665 -0.9754 -3.4154 -1.7636
  282MOL0     H38024   4.814   3.019   1.531 -0.1480  0.1674 -0.8362
  282MOL0     H38025   4.797   3.112   1.378 -2.8643  0.1435 -1.2085
  282MOL0     H38026   4.574   3.134   1.396 -0.6365  0.9180  2.1566
  282MOL0     H38027   4.553   3.107   1.569 -0.6145 -3.1669  0.5564
  282MOL0     H38028   4.659   2.904   1.392 -0.7458  1.6860 -1.8524
  282MOL0     H38029   4.487   2.934   1.376 -2.5812 -3.5567  2.0146
  282MOL0     H38030   4.452   2.640   1.679 -0.8375 -1.2642 -0.2152
  282MOL0     H38031   4.175   2.539   1.832  0.2207 -0.5228  0.6495
  282MOL0     H38032   4.167   2.462   1.667  0.5180 -1.0041  0.3700
  282MOL0     H38033   4.312   2.479   1.772 -0.0619 -0.9654  0.4287
  282MOL0     H38034   3.904   2.491   1.895 -0.6588 -1.2315  0.8103
  282MOL0     H38035   3.675   2.472   2.005 -1.0836  0.2045 -0.9077
  282MOL0     H38036   3.467   2.396   2.039  1.8313  1.9518 -0.2250
  282MOL0     H38037   3.471   2.558   2.083  0.5973 -0.9734  0.2836
  282MOL0     H38038   3.220   2.581   2.021 -1.7101 -1.5025  0.0850
  282MOL0     H38039   3.216   2.414   1.973 -1.1108  0.6570  0.4036
  282MOL0     H38040   3.141   2.477   2.202  0.3953  1.4843 -2.2413
  282MOL0     H38041   3.309   2.452   2.257  1.4616 -0.6912 -0.7948
  282MOL0     H38042   3.128   2.257   2.113  0.0894  2.0211 -0.3708
  282MOL0     H38043   3.304   2.233   2.112  0.2622  0.5763 -0.9748
  282MOL0     H38044   3.292   2.217   2.366  0.6461 -2.2281 -0.1567
  282MOL0     H38045   3.199   2.100   2.262 -0.9650  0.4125  0.7947
  282MOL0     H38046   3.089   2.354   2.403 -0.5356  0.6699 -3.1060
  282MOL0     H38047   2.983   2.233   2.313 -0.4357 -1.7189  1.3382
  282MOL0     H38048   3.145   2.172   2.567  0.0682  1.1080  0.2627
  282MOL0     H38049   3.033   2.072   2.476  0.4724 -0.6399  2.1563
  282MOL0     H38050   2.935   2.317   2.616  2.2100  1.0621 -2.4910
  282MOL0     H38051   2.928   2.146   2.677  1.8263 -0.7024 -1.6069
  282MOL0     H38052   3.501   2.566   1.625 -0.3584 -2.4617  0.9709
  282MOL0     H38053   3.717   2.587   1.532 -3.7940  0.4407 -0.2090
  282MOL0     H38054   4.075   2.924   1.506  0.4652 -2.5410 -3.8589
  282MOL0     H38055   4.290   2.986   1.477 -0.0035  0.3883  0.8078
  282MOL0     H38056   5.175   4.270   1.189  1.8936  0.8040  0.8841
  282MOL0     H38057   5.379   4.420   1.166  2.9643 -1.8118  0.3134
  282MOL0     H38058   5.791   4.707   1.079  0.0129  3.5725 -1.7168
  282MOL0     H38059   5.955   4.814   0.967  3.6648 -1.0056 -1.2856
  282MOL0     H38060   6.121   4.945   0.670  2.0259 -2.4985 -1.6841
  282MOL0     H38061   6.023   4.945   0.811 -0.2644 -2.0592  0.1675
  282MOL0     H38062   6.276   4.765   0.805  1.6325 -0.1111  2.3783
  282MOL0     H38063   6.181   4.782   0.930  0.5091 -1.2175  0.9736
  282MOL0     H38064   6.304   5.037   0.810 -0.9598  3.9811  3.2007
  282MOL0     H38065   6.381   4.929   0.930  1.3504 -0.7861 -1.7292
  282MOL0     H38066   6.117   5.098   0.943 -3.2886 -1.6277  4.1863
  282MOL0     H38067   6.265   5.128   1.028 -0.9003  1.6955 -0.3157
  282MOL0     H38068   6.056   4.826   1.248  1.8162 -3.1031 -3.1606
  282MOL0     H38069   5.856   4.581   0.608  0.7398  2.2827 -0.4557
  282MOL0     H38070   5.682   4.461   0.754 -0.8234 -0.3184  1.4623
  283MOL0     O38071   9.925   4.130   3.418 -0.2619 -0.3974  0.0827
  283MOL0     C38072   9.806   4.113   3.444 -0.5074 -0.0298  0.2422
  283MOL0     O38073   9.712   4.058   3.357  0.1348 -1.0121  0.3430
  283MOL0     C38074   9.754   4.011   3.232 -0.6829  0.7882  0.0860
  283MOL0     C38075   9.659   4.023   3.136  0.6829  0.1746  0.6297
  283MOL0     C38076   9.672   3.982   3.002  0.1675  0.7333 -0.3981
  283MOL0     C38077   9.782   3.905   2.966  0.2266 -0.0583 -0.2489
  283MOL0     O38078   9.814   3.842   2.851  0.3139 -0.6135 -0.0023
  283MOL0     C38079   9.721   3.843   2.742 -0.5519  0.6189 -0.0971
  283MOL0     C38080   9.633   3.714   2.730  0.7635  0.2336  0.1465
  283MOL0     C38081   9.732   3.600   2.687 -0.0267 -0.0126 -0.5492
  283MOL0     C38082   9.655   3.471   2.678 -0.5171 -0.1560  0.6694
  283MOL0     C38083   9.747   3.359   2.626  0.4335 -0.8730 -0.2253
  283MOL0     C38084   9.785   3.369   2.474  0.0190 -0.1283 -0.2223
  283MOL0     C38085   9.938   3.384   2.468  0.0221  0.9202  0.4987
  283MOL0     C38086   9.993   3.422   2.331 -0.4205 -0.0761  0.3251
  283MOL0     N38087  10.136   3.464   2.335  0.6539  0.5055 -0.9230
  283MOL0     C38088  10.225   3.406   2.248 -0.0889 -0.0686 -0.9401
  283MOL0     C38089  10.337   3.484   2.260  0.1880  0.3147  0.0257
  283MOL0     C38090  10.447   3.471   2.149  0.2881 -0.0192  0.2238
  283MOL0     C38091  10.584   3.502   2.218  0.7717 -0.5686  0.3068
  283MOL0     C38092  10.620   3.406   2.329  0.1170  0.5097 -0.5356
  283MOL0     C38093  10.696   3.284   2.284 -0.3991 -0.7398  0.0247
  283MOL0     O38094  10.608   3.181   2.224 -0.6127 -0.3227  0.4936
  283MOL0     C38095  10.520   3.110   2.305 -0.6719  0.3695  0.4316
  283MOL0     C38096  10.420   3.050   2.248  0.0687  0.2860  0.5872
  283MOL0     C38097  10.306   2.989   2.309  0.0507 -0.0669  0.4202
  283MOL0     C38098  10.190   2.962   2.230  0.1316 -0.2584  0.4863
  283MOL0     C38099  10.306   2.981   2.450  0.1415 -0.1141 -1.3710
  283MOL0     C38100  10.197   2.933   2.540  0.3608  0.2831  0.1406
  283MOL0     O38101  10.131   2.824   2.483 -0.5632 -0.0460  0.5023
  283MOL0     C38102  10.008   2.782   2.519 -0.8400 -0.9185 -0.7987
  283MOL0     C38103   9.989   2.678   2.610 -0.4480 -0.9456 -0.3380
  283MOL0     C38104   9.861   2.639   2.646  0.0491 -0.3595  0.4061
  283MOL0     C38105   9.747   2.699   2.583  0.6139  0.4818 -0.3872
  283MOL0     O38106   9.621   2.647   2.601 -0.2047  0.1678 -0.1333
  283MOL0     C38107   9.589   2.566   2.721 -0.1979  0.0015 -0.0989
  283MOL0     C38108   9.448   2.485   2.709  0.2042 -0.1456 -0.7544
  283MOL0     C38109   9.326   2.552   2.651 -0.3575 -0.4885  0.3034
  283MOL0     C38110   9.281   2.661   2.750  0.8637  0.4630  0.0033
  283MOL0     C38111   9.189   2.762   2.674 -0.7388  0.1690  0.8682
  283MOL0     C38112   9.107   2.865   2.752  0.9769  0.8307 -0.0332
  283MOL0     C38113   8.989   2.938   2.693 -1.2125  0.3051 -0.1349
  283MOL0     C38114   8.869   2.854   2.651  0.2376  0.0581 -0.2736
  283MOL0    Cl38115   8.738   2.946   2.579 -0.0942 -0.1301  0.5515
  283MOL0     C38116   9.764   2.801   2.486 -0.0836 -0.9235 -0.2815
  283MOL0     C38117   9.897   2.842   2.450 -0.1073  0.1843 -0.5290
  283MOL0     O38118  10.168   2.988   2.644  0.2760 -0.2548 -0.6409
  283MOL0     C38119  10.417   3.028   2.515 -0.6947 -0.3310 -0.3195
  283MOL0     C38120  10.523   3.096   2.444 -0.0670  0.8489  0.3935
  283MOL0     N38121  10.307   3.590   2.339 -0.2471  0.3307  0.3258
  283MOL0     N38122  10.192   3.574   2.390  0.5110 -0.1462  0.6866
  283MOL0     C38123   9.876   3.885   3.067 -0.5456 -0.1343  0.0103
  283MOL0     C38124   9.869   3.938   3.199 -0.3321  0.4706  0.0684
  283MOL0     C38125   9.745   4.176   3.575  0.4598 -0.4387 -0.5810
  283MOL0     C38126   9.608   4.165   3.606 -0.0598 -1.2336 -0.2484
  283MOL0     C38127   9.548   4.228   3.718  0.4035 -0.4492 -0.3786
  283MOL0     C38128   9.629   4.309   3.807  0.9026 -0.5036 -0.2966
  283MOL0     O38129   9.577   4.387   3.912  0.1904  0.3180  0.0258
  283MOL0     C38130   9.506   4.503   3.872  0.3992 -0.9810 -1.3720
  283MOL0     C38131   9.518   4.611   3.982 -0.8013  0.5425  0.0234
  283MOL0     C38132   9.661   4.674   3.994  0.6337 -0.1544  0.6324
  283MOL0     C38133   9.661   4.774   4.103  1.0574  0.0432 -0.1542
  283MOL0     C38134   9.794   4.834   4.095  0.0270 -0.3197 -1.4260
  283MOL0     C38135   9.910   4.875   4.094 -0.1915 -0.1021 -0.4972
  283MOL0     C38136   9.764   4.326   3.769 -0.9358 -0.2206 -0.1180
  283MOL0     C38137   9.824   4.258   3.659  0.3526  0.1681 -1.2749
  283MOL0     H38138   9.569   4.082   3.148 -0.6235 -1.2963 -1.3006
  283MOL0     H38139   9.600   4.007   2.925 -0.2015 -0.1729 -0.3661
  283MOL0     H38140   9.671   3.940   2.749  0.5801  1.1799  0.7105
  283MOL0     H38141   9.782   3.855   2.651 -0.4449 -0.8352 -0.2416
  283MOL0     H38142   9.599   3.689   2.831  5.6739  1.1803  2.3207
  283MOL0     H38143   9.555   3.728   2.655  1.0489 -2.1013 -0.6684
  283MOL0     H38144   9.770   3.618   2.586 -0.8617  0.0418 -0.8642
  283MOL0     H38145   9.814   3.595   2.759  0.6087 -0.1310 -1.2727
  283MOL0     H38146   9.614   3.429   2.770 -5.7179 -2.2882 -2.2277
  283MOL0     H38147   9.568   3.478   2.612 -1.3431 -1.0618  1.6428
  283MOL0     H38148   9.835   3.358   2.691  0.4872  2.2512 -0.1036
  283MOL0     H38149   9.704   3.258   2.624  1.4587 -1.3407 -2.2166
  283MOL0     H38150   9.756   3.281   2.415 -1.4535 -0.8573  1.5039
  283MOL0     H38151   9.739   3.462   2.439 -0.6517  0.0218  1.0008
  283MOL0     H38152   9.972   3.457   2.542  1.0910  0.8544  0.0894
  283MOL0     H38153   9.974   3.285   2.495 -1.9023  0.3581  1.2051
  283MOL0     H38154   9.947   3.507   2.279  0.7961 -0.2353 -1.0955
  283MOL0     H38155   9.993   3.340   2.257  1.6883 -0.1580  0.3619
  283MOL0     H38156  10.197   3.323   2.183 -0.6472 -2.6641  2.3240
  283MOL0     H38157  10.436   3.374   2.100 -1.2405 -0.8937  2.1233
  283MOL0     H38158  10.430   3.545   2.071 -0.5390 -1.8803 -1.4466
  283MOL0     H38159  10.578   3.603   2.258  0.8711  0.0169 -1.1038
  283MOL0     H38160  10.651   3.509   2.132 -0.3568 -2.6883 -0.8241
  283MOL0     H38161  10.535   3.380   2.393  2.5664 -1.4970  2.1925
  283MOL0     H38162  10.681   3.460   2.402  1.2674  0.5088 -1.4637
  283MOL0     H38163  10.755   3.245   2.367  0.4573  0.1198 -0.1709
  283MOL0     H38164  10.778   3.301   2.214  0.5752  0.7668  1.4380
  283MOL0     H38165  10.432   3.054   2.140  1.0421 -0.4240  0.6589
  283MOL0     H38166  10.113   3.033   2.260 -0.4182 -1.1029  1.1298
  283MOL0     H38167  10.212   2.979   2.124 -2.3735 -0.6441 -0.1639
  283MOL0     H38168  10.150   2.860   2.238 -1.4458  0.2994  0.0921
  283MOL0     H38169  10.066   2.635   2.674  0.3077  0.5478 -0.1945
  283MOL0     H38170   9.840   2.576   2.732 -2.2683  0.5984  0.6418
  283MOL0     H38171   9.666   2.491   2.742  0.5051  1.4236  2.9065
  283MOL0     H38172   9.578   2.637   2.803 -2.3038 -1.5063  1.0328
  283MOL0     H38173   9.469   2.393   2.654 -2.3136 -0.8989 -0.5802
  283MOL0     H38174   9.404   2.448   2.802  0.9689 -1.7668 -1.0108
  283MOL0     H38175   9.242   2.484   2.633  0.4801 -1.6756  0.7517
  283MOL0     H38176   9.348   2.605   2.558 -1.2967  0.9266  0.8569
  283MOL0     H38177   9.219   2.625   2.833 -0.1610  2.5847  0.2368
  283MOL0     H38178   9.366   2.720   2.783  1.2683 -0.4220  0.5788
  283MOL0     H38179   9.119   2.695   2.625 -0.6274 -1.4098  2.7469
  283MOL0     H38180   9.246   2.822   2.603 -2.3557  1.4577  0.5813
  283MOL0     H38181   9.080   2.814   2.845 -0.8605  2.0245  0.1443
  283MOL0     H38182   9.182   2.937   2.785  3.4757 -0.6074 -2.1514
  283MOL0     H38183   9.023   2.998   2.607  0.0754 -1.7989 -1.1642
  283MOL0     H38184   8.954   3.006   2.771 -0.8571  1.0457 -0.6085
  283MOL0     H38185   8.829   2.815   2.745 -2.7365  0.4222 -1.2820
  283MOL0     H38186   8.898   2.771   2.585 -0.8662 -0.7706  0.2418
  283MOL0     H38187   9.685   2.847   2.428  1.5019 -3.0932 -4.6553
  283MOL0     H38188   9.918   2.910   2.368  1.3105 -0.8281 -1.0619
  283MOL0     H38189  10.418   3.012   2.622 -0.6458  1.9618  0.0781
  283MOL0     H38190  10.609   3.122   2.506  0.1446  2.2054 -0.4281
  283MOL0     H38191   9.961   3.823   3.043  0.2848 -0.1180  2.5983
  283MOL0     H38192   9.956   3.908   3.258  0.2764  0.7609 -0.6581
  283MOL0     H38193   9.557   4.102   3.533 -1.3031 -3.2392  2.1932
  283MOL0     H38194   9.442   4.221   3.742  0.4775  2.3400  1.2277
  283MOL0     H38195   9.537   4.545   3.776 -0.5504  0.2951 -1.1303
  283MOL0     H38196   9.400   4.475   3.878  0.0938  0.4429  2.7159
  283MOL0     H38197   9.481   4.587   4.082  1.8457  0.0823  0.9844
  283MOL0     H38198   9.454   4.694   3.951  0.3842  0.8761 -1.6572
  283MOL0     H38199   9.679   4.725   3.899 -1.4828  0.3725  0.4523
  283MOL0     H38200   9.733   4.595   4.016 -1.2865 -2.3542 -0.4797
  283MOL0     H38201   9.644   4.728   4.201 -0.3768 -3.2302 -1.8068
  283MOL0     H38202   9.589   4.853   4.080  1.4070 -0.0899 -1.8133
  283MOL0     H38203  10.008   4.913   4.114 -0.3631  0.5140 -0.8056
  283MOL0     H38204   9.829   4.374   3.841  0.7211 -3.6138  0.8668
  283MOL0     H38205   9.932   4.273   3.658  0.2741  0.8128 -0.7892
  284MOL0     O38206   2.385   7.803   0.170 -0.0243  0.2450 -0.0764
  284MOL0     C38207   2.377   7.782   0.290 -0.2478  0.6206 -0.1813
  284MOL0     O38208   2.282   7.825   0.370  0.8229 -0.7643 -0.3796
  284MOL0     C38209   2.164   7.879   0.306 -0.2852  0.6929 -0.0982
  284MOL0     C38210   2.129   8.009   0.331  0.0020 -0.6835  0.5645
  284MOL0     C38211   2.023   8.070   0.269 -0.6136  0.0716 -0.1556
  284MOL0     C38212   1.939   7.993   0.191  0.1348 -0.5328 -0.3039
  284MOL0     O38213   1.830   8.049   0.128  0.4987 -0.1982 -1.1381
  284MOL0     C38214   1.805   8.190   0.132  0.4021  0.4362 -0.2456
  284MOL0     C38215   1.674   8.219   0.066  0.5317 -0.0238  0.7573
  284MOL0     C38216   1.649   8.370   0.039 -0.8052  0.1639 -0.8869
  284MOL0     C38217   1.503   8.393   0.000  0.0552 -0.7115  0.3461
  284MOL0     C38218   1.460   8.343  -0.138  0.2163  0.0280  0.6879
  284MOL0     C38219   1.309   8.364  -0.160 -0.1129  0.5739  0.4431
  284MOL0     C38220   1.246   8.295  -0.285  0.6384  0.5843  0.7067
  284MOL0     C38221   1.095   8.284  -0.280  0.0808 -0.3698  0.0441
  284MOL0     N38222   1.023   8.230  -0.163  0.2439 -0.0968  0.1453
  284MOL0     C38223   1.041   8.102  -0.125  0.4767 -0.6434  0.2382
  284MOL0     C38224   0.960   8.097  -0.018  0.1250 -0.9628 -0.6299
  284MOL0     C38225   0.952   7.984   0.066  0.0033  0.4149 -0.2226
  284MOL0     C38226   0.979   8.018   0.216 -0.0575  0.5533  0.6029
  284MOL0     C38227   0.987   7.898   0.311  0.5361  0.3874  0.6385
  284MOL0     C38228   0.854   7.819   0.328 -0.4642 -0.3688 -0.7783
  284MOL0     O38229   0.750   7.919   0.349  0.5272 -0.1940 -0.7526
  284MOL0     C38230   0.623   7.875   0.360  0.7280  0.2540 -0.7771
  284MOL0     C38231   0.533   7.975   0.326  0.1851  0.3055  0.1800
  284MOL0     C38232   0.395   7.955   0.354  0.5205  0.0721 -0.2450
  284MOL0     C38233   0.300   8.075   0.346  0.2821 -0.5254  0.4498
  284MOL0     C38234   0.345   7.830   0.379  0.3193  0.2228  1.1230
  284MOL0     C38235   0.196   7.813   0.377  0.4315 -0.2441 -0.2103
  284MOL0     O38236   0.139   7.865   0.255 -0.1520 -0.9054 -0.5081
  284MOL0     C38237   0.007   7.901   0.243  0.5354 -0.2169 -0.4907
  284MOL0     C38238  -0.097   7.819   0.286 -0.3975  0.6851  0.4193
  284MOL0     C38239  -0.231   7.851   0.266 -0.1193 -0.8163 -0.0008
  284MOL0     C38240  -0.270   7.973   0.206 -0.2689  0.0209 -0.2933
  284MOL0     O38241  -0.403   8.009   0.180  0.3634 -0.4868  0.8278
  284MOL0     C38242  -0.509   7.938   0.240 -0.3852  0.1206 -0.4511
  284MOL0     C38243  -0.625   8.037   0.219 -0.1498 -0.0794  0.5572
  284MOL0     C38244  -0.755   7.981   0.265 -0.0131 -0.3295 -0.1800
  284MOL0     C38245  -0.853   7.958   0.156  0.4999 -0.2414 -0.0624
  284MOL0     C38246  -0.975   7.902   0.218  0.8014 -0.1403  0.5776
  284MOL0     C38247  -1.088   7.866   0.116  0.2314  0.5841 -0.4892
  284MOL0     C38248  -1.217   7.831   0.187 -0.2897  0.0018  0.8265
  284MOL0     C38249  -1.344   7.851   0.103 -0.2015 -0.6771  0.2954
  284MOL0    Cl38250  -1.373   7.722  -0.018  0.3530  0.0894  0.2980
  284MOL0     C38251  -0.165   8.053   0.167  0.1941  0.1101  0.2949
  284MOL0     C38252  -0.029   8.022   0.183  0.2092  0.5952 -0.1727
  284MOL0     O38253   0.137   7.752   0.468  0.1353  0.3276 -0.1016
  284MOL0     C38254   0.436   7.725   0.392 -0.5005 -1.0967 -0.1455
  284MOL0     C38255   0.576   7.744   0.383 -0.1024 -1.0488  0.7325
  284MOL0     N38256   0.894   8.215   0.003  0.2041  0.3047  0.3348
  284MOL0     N38257   0.942   8.298  -0.083  0.2013 -0.0774 -0.0930
  284MOL0     C38258   1.960   7.856   0.185  0.1522 -0.0921  0.9700
  284MOL0     C38259   2.073   7.796   0.240  0.1097  0.0780 -0.1700
  284MOL0     C38260   2.482   7.697   0.341 -0.4323  0.2462 -0.3098
  284MOL0     C38261   2.612   7.676   0.278  1.0937  0.0677  0.5651
  284MOL0     C38262   2.710   7.590   0.343 -0.1010 -0.7749 -0.0267
  284MOL0     C38263   2.676   7.523   0.468  0.1686  1.1672  1.0630
  284MOL0     O38264   2.760   7.429   0.530  0.2527  0.0716  0.4919
  284MOL0     C38265   2.865   7.368   0.455  0.3428 -0.4730 -0.3214
  284MOL0     C38266   2.808   7.255   0.368  0.0006 -0.5579 -0.3650
  284MOL0     C38267   2.917   7.154   0.311  0.0810  0.9229  0.7690
  284MOL0     C38268   2.954   7.039   0.413 -1.4549 -0.2940  0.6504
  284MOL0     C38269   3.015   6.914   0.366 -0.4859 -0.3652  0.5500
  284MOL0     C38270   3.063   6.814   0.316  0.1603  0.0764  0.2686
  284MOL0     C38271   2.557   7.562   0.533 -0.1565  0.1652 -0.0225
  284MOL0     C38272   2.471   7.655   0.472  0.5518  0.5171  0.8319
  284MOL0     H38273   2.197   8.063   0.396 -0.8954  2.9585 -1.2947
  284MOL0     H38274   2.003   8.174   0.294  1.5529  0.0723  2.0113
  284MOL0     H38275   1.820   8.233   0.231  0.0553  0.2865 -0.1272
  284MOL0     H38276   1.889   8.235   0.078  0.9666  0.1325  0.3707
  284MOL0     H38277   1.665   8.161  -0.026  2.1803 -2.0307  1.7911
  284MOL0     H38278   1.590   8.193   0.130 -0.9123  0.8877 -0.6849
  284MOL0     H38279   1.665   8.434   0.126 -3.6076  1.2141 -1.0529
  284MOL0     H38280   1.726   8.401  -0.033 -0.2667  0.5291 -0.1599
  284MOL0     H38281   1.442   8.352   0.081 -0.8155  2.7204  1.6211
  284MOL0     H38282   1.479   8.500  -0.003  0.0453 -0.6850  1.0738
  284MOL0     H38283   1.516   8.401  -0.212  1.0634  2.1192  2.8566
  284MOL0     H38284   1.486   8.238  -0.155 -2.6589 -0.8025  0.9776
  284MOL0     H38285   1.251   8.330  -0.073 -1.6629  1.9928  0.0101
  284MOL0     H38286   1.288   8.470  -0.147  2.0125  0.7582  3.6439
  284MOL0     H38287   1.281   8.337  -0.379  1.0051 -3.2634 -1.0725
  284MOL0     H38288   1.278   8.191  -0.299 -1.2704 -0.0151  0.4327
  284MOL0     H38289   1.069   8.230  -0.372  3.0607  2.2619 -2.5696
  284MOL0     H38290   1.054   8.383  -0.297 -0.1250 -0.0162  2.2859
  284MOL0     H38291   1.106   8.038  -0.184 -1.3501 -1.4173 -1.0286
  284MOL0     H38292   0.852   7.942   0.052 -0.6313  1.0804  2.0450
  284MOL0     H38293   1.019   7.904   0.033 -3.4569 -2.9426  0.1797
  284MOL0     H38294   0.900   8.084   0.253 -0.5855  0.3207 -0.0694
  284MOL0     H38295   1.078   8.065   0.219 -0.6804  1.8843  1.4159
  284MOL0     H38296   1.024   7.925   0.410 -0.6433 -1.4939  1.6516
  284MOL0     H38297   1.062   7.830   0.270 -2.2498 -1.1000 -2.4827
  284MOL0     H38298   0.860   7.753   0.416 -0.7448 -2.0077 -1.9331
  284MOL0     H38299   0.837   7.752   0.243  3.4738 -0.2319 -1.8469
  284MOL0     H38300   0.588   8.066   0.304  3.1622 -0.9553  1.8242
  284MOL0     H38301   0.364   8.163   0.352 -1.0359  0.7327 -2.2242
  284MOL0     H38302   0.251   8.075   0.248  2.0223 -4.1767 -0.6118
  284MOL0     H38303   0.222   8.073   0.423  0.9520 -1.8027  1.1277
  284MOL0     H38304  -0.079   7.729   0.344  2.2150  1.4663  0.9210
  284MOL0     H38305  -0.301   7.784   0.313  0.8520 -2.0774 -0.3041
  284MOL0     H38306  -0.535   7.849   0.183 -0.5491  0.2635 -0.6030
  284MOL0     H38307  -0.486   7.925   0.346 -2.0097 -0.8128 -0.1836
  284MOL0     H38308  -0.598   8.127   0.275  0.0513  0.5911 -0.5667
  284MOL0     H38309  -0.650   8.056   0.114 -0.0503 -1.5367  0.2530
  284MOL0     H38310  -0.789   8.057   0.336 -1.0819 -3.1393  2.5703
  284MOL0     H38311  -0.731   7.895   0.329  4.5234  1.0730  0.4047
  284MOL0     H38312  -0.883   8.055   0.116 -4.3619 -1.9573 -1.3079
  284MOL0     H38313  -0.807   7.889   0.085  0.5909 -1.4660  1.1406
  284MOL0     H38314  -1.011   7.970   0.296  1.6544  0.9921 -0.0031
  284MOL0     H38315  -0.940   7.807   0.260 -0.4697 -1.1562 -0.5413
  284MOL0     H38316  -1.108   7.952   0.051 -3.4842 -0.1886 -0.5930
  284MOL0     H38317  -1.065   7.775   0.060 -0.0684 -1.8011  2.9754
  284MOL0     H38318  -1.214   7.893   0.277  1.7764 -2.4267  2.5607
  284MOL0     H38319  -1.207   7.725   0.213 -4.1018 -0.9325 -0.7677
  284MOL0     H38320  -1.344   7.948   0.051  1.0920  0.0292  1.5356
  284MOL0     H38321  -1.428   7.848   0.173 -0.0814  1.0894  0.5605
  284MOL0     H38322  -0.181   8.145   0.111 -0.0861 -0.2877 -0.2792
  284MOL0     H38323   0.045   8.090   0.142 -1.6024  2.7963 -0.0120
  284MOL0     H38324   0.398   7.627   0.418 -0.3937 -0.6376  1.8933
  284MOL0     H38325   0.651   7.665   0.387  1.8694  0.6691 -0.2522
  284MOL0     H38326   1.887   7.806   0.122  1.5116  1.0823 -1.6783
  284MOL0     H38327   2.103   7.692   0.232  0.2376  0.1716 -1.0150
  284MOL0     H38328   2.629   7.714   0.178 -4.0543 -0.5015 -0.8329
  284MOL0     H38329   2.807   7.584   0.295  0.3133 -2.1139  0.9244
  284MOL0     H38330   2.910   7.442   0.389  1.3387  0.6733  1.5951
  284MOL0     H38331   2.944   7.326   0.518  0.9811 -0.4821 -1.1155
  284MOL0     H38332   2.759   7.295   0.279  0.2645 -0.6821 -0.5687
  284MOL0     H38333   2.732   7.204   0.427 -0.8112 -1.3025 -1.9897
  284MOL0     H38334   2.998   7.215   0.270  0.3945 -0.5117 -0.8507
  284MOL0     H38335   2.875   7.113   0.219 -0.4165  2.2792  0.3664
  284MOL0     H38336   2.871   7.029   0.483 -1.0318  1.3049  1.4429
  284MOL0     H38337   3.035   7.073   0.478 -0.4865  0.0101 -0.6753
  284MOL0     H38338   3.113   6.732   0.268  1.3132  2.3019 -2.6519
  284MOL0     H38339   2.532   7.512   0.627 -0.1856  0.4761  0.1371
  284MOL0     H38340   2.382   7.679   0.530 -0.7717 -0.4262 -0.7289
  285MOL0     O38341   2.519   6.674   8.537 -0.1724  0.4476  0.4886
  285MOL0     C38342   2.616   6.619   8.483  0.0110 -0.7442 -1.0075
  285MOL0     O38343   2.612   6.511   8.402 -0.7872  0.5540 -0.0421
  285MOL0     C38344   2.499   6.434   8.384 -0.0142 -0.9716 -1.3165
  285MOL0     C38345   2.420   6.388   8.487 -0.9168  0.1848 -0.1571
  285MOL0     C38346   2.313   6.306   8.473  0.2153 -0.2123  0.4829
  285MOL0     C38347   2.265   6.263   8.342 -0.0946  0.6715  0.8658
  285MOL0     O38348   2.154   6.187   8.313  0.0572 -0.5660  0.1056
  285MOL0     C38349   2.056   6.158   8.418 -0.6839 -0.1603 -0.4733
  285MOL0     C38350   1.943   6.085   8.347 -1.0096 -0.5594  0.6491
  285MOL0     C38351   1.844   6.021   8.436 -0.9561 -0.3042 -0.6845
  285MOL0     C38352   1.728   6.120   8.469  0.1491  0.6949  0.6361
  285MOL0     C38353   1.644   6.064   8.578  0.1673  0.7502 -0.0543
  285MOL0     C38354   1.577   6.173   8.660 -0.2791  0.3190  0.6429
  285MOL0     C38355   1.465   6.111   8.749  0.0477 -0.1937  0.3076
  285MOL0     C38356   1.401   6.196   8.863  1.1459 -0.9360 -0.1167
  285MOL0     N38357   1.499   6.279   8.941 -0.4877  0.0440 -0.5893
  285MOL0     C38358   1.517   6.413   8.931 -0.4057 -0.3125 -0.4646
  285MOL0     C38359   1.636   6.449   8.987  0.6355  0.1646 -0.0347
  285MOL0     C38360   1.699   6.581   8.971  0.1600 -0.4773 -0.3264
  285MOL0     C38361   1.703   6.663   9.100  0.8645  0.0390  0.1995
  285MOL0     C38362   1.564   6.724   9.127  0.3148  0.5937 -0.2002
  285MOL0     C38363   1.534   6.783   9.266 -0.7082  0.5733 -0.3678
  285MOL0     O38364   1.436   6.880   9.257 -0.4969  0.3497 -0.5139
  285MOL0     C38365   1.373   6.893   9.375  0.5802 -0.1880 -0.8169
  285MOL0     C38366   1.430   6.898   9.505 -0.7851 -0.2272  0.2834
  285MOL0     C38367   1.353   6.927   9.620  0.7321  0.6486 -0.5203
  285MOL0     C38368   1.416   6.946   9.753  0.3120  0.1848 -0.1642
  285MOL0     C38369   1.214   6.943   9.609  1.1873  0.5808 -0.4498
  285MOL0     C38370   1.116   6.960   9.722  0.8909 -0.7687 -0.1255
  285MOL0     O38371   0.983   6.927   9.701  0.4511 -0.2246  0.1743
  285MOL0     C38372   0.895   6.994   9.784  0.0728  0.0505  0.4274
  285MOL0     C38373   0.802   7.082   9.736 -0.3889 -0.4801 -0.5470
  285MOL0     C38374   0.710   7.140   9.826 -0.3305 -0.2203 -0.2700
  285MOL0     C38375   0.721   7.131   9.965  0.4149 -0.1190 -0.0336
  285MOL0     O38376   0.628   7.192  10.051 -0.3897 -0.0786 -0.4188
  285MOL0     C38377   0.688   7.223  10.182  0.7363 -0.2695  0.3058
  285MOL0     C38378   0.616   7.355  10.224 -0.7290  0.2604 -0.8128
  285MOL0     C38379   0.670   7.403  10.355  0.3030  0.8486 -1.2101
  285MOL0     C38380   0.808   7.467  10.352 -0.7548 -0.0788 -0.7817
  285MOL0     C38381   0.840   7.498  10.505 -0.1520  0.0164  0.0985
  285MOL0     C38382   0.959   7.589  10.534 -0.5924  0.0842 -0.1026
  285MOL0     C38383   1.089   7.543  10.459 -1.1976 -0.5989  0.4925
  285MOL0     C38384   1.211   7.624  10.494 -0.1072 -0.0610  0.1727
  285MOL0    Cl38385   1.349   7.590  10.377  0.0431 -0.5875  0.4718
  285MOL0     C38386   0.819   7.036  10.017 -0.8358  0.3632  0.1481
  285MOL0     C38387   0.903   6.964   9.922 -0.1142  0.2759 -0.4697
  285MOL0     O38388   1.152   7.030   9.815  0.8775 -0.1656 -0.1409
  285MOL0     C38389   1.152   6.929   9.489  0.4549  0.0744 -1.1657
  285MOL0     C38390   1.235   6.911   9.374  0.5087  0.8317 -0.4407
  285MOL0     N38391   1.686   6.339   9.047 -0.0827 -0.5612 -0.3165
  285MOL0     N38392   1.614   6.236   9.017 -0.0398  0.0030  0.2202
  285MOL0     C38393   2.339   6.309   8.229  0.3461 -0.2806  0.0252
  285MOL0     C38394   2.444   6.394   8.263  0.2067 -1.0062  0.9782
  285MOL0     C38395   2.751   6.684   8.511  0.8933 -0.0077 -0.9658
  285MOL0     C38396   2.754   6.805   8.579 -0.4515 -0.2908  0.6525
  285MOL0     C38397   2.871   6.862   8.625  0.4583  0.0183  0.1441
  285MOL0     C38398   2.992   6.808   8.592  0.3837 -0.5030 -0.3250
  285MOL0     O38399   3.114   6.850   8.636  0.7044 -0.0451  0.2003
  285MOL0     C38400   3.128   6.994   8.628 -0.1861 -0.0093  0.3808
  285MOL0     C38401   3.273   7.024   8.601 -0.7304  0.4650  0.6629
  285MOL0     C38402   3.314   6.998   8.457  0.7954  0.0591 -0.1541
  285MOL0     C38403   3.468   6.999   8.435  0.4128  0.2549  0.5405
  285MOL0     C38404   3.526   7.126   8.465  0.3194  0.1718 -0.1010
  285MOL0     C38405   3.572   7.232   8.499  0.7527 -1.8537 -0.5601
  285MOL0     C38406   2.990   6.691   8.521  0.5923  1.1100  0.2518
  285MOL0     C38407   2.871   6.624   8.485 -0.1235  0.8082  0.2048
  285MOL0     H38408   2.447   6.420   8.587  1.0350 -0.3261 -0.4789
  285MOL0     H38409   2.262   6.275   8.564 -2.6295  1.1664 -0.5298
  285MOL0     H38410   2.100   6.103   8.502 -1.1331  2.5072  1.6512
  285MOL0     H38411   2.021   6.253   8.459 -1.1669 -0.7054  0.4261
  285MOL0     H38412   1.901   6.152   8.271  2.1416  1.0205  0.1203
  285MOL0     H38413   1.991   6.013   8.279  0.8039  2.3525 -1.4040
  285MOL0     H38414   1.818   5.926   8.389 -0.4844 -0.9842  0.3922
  285MOL0     H38415   1.888   5.986   8.530 -0.4912 -0.4131 -0.9408
  285MOL0     H38416   1.763   6.215   8.511 -3.3983  1.8980  1.1986
  285MOL0     H38417   1.686   6.136   8.369  1.8568 -0.6042 -0.3692
  285MOL0     H38418   1.568   5.995   8.539  0.5695  0.8295 -1.0052
  285MOL0     H38419   1.705   6.006   8.649 -0.3758  0.0400 -0.1572
  285MOL0     H38420   1.652   6.223   8.722  1.1219 -0.1065 -0.6657
  285MOL0     H38421   1.548   6.241   8.580  4.7421  1.1484 -0.8244
  285MOL0     H38422   1.376   6.075   8.696  1.0846  1.0098 -2.4304
  285MOL0     H38423   1.509   6.017   8.783  2.4019 -0.3757 -2.8956
  285MOL0     H38424   1.343   6.135   8.933  0.0431  2.1643  1.9362
  285MOL0     H38425   1.326   6.258   8.814  0.8643 -3.0298 -2.5085
  285MOL0     H38426   1.450   6.475   8.872  0.8023  1.2494 -0.2749
  285MOL0     H38427   1.805   6.559   8.952 -0.5764 -1.9888 -3.2554
  285MOL0     H38428   1.648   6.632   8.889 -2.4171 -1.9239  0.2661
  285MOL0     H38429   1.779   6.741   9.089  0.6782  0.0516 -1.2251
  285MOL0     H38430   1.737   6.599   9.182  1.0246 -0.4644 -0.2566
  285MOL0     H38431   1.486   6.654   9.095  0.6088  0.7459 -1.3167
  285MOL0     H38432   1.560   6.808   9.056 -0.4098  0.6669 -0.0835
  285MOL0     H38433   1.621   6.836   9.305 -0.7296  0.9422 -0.8093
  285MOL0     H38434   1.512   6.703   9.338  0.0884  0.0010 -0.7551
  285MOL0     H38435   1.538   6.892   9.513  0.4086  2.4248 -6.7054
  285MOL0     H38436   1.525   6.934   9.751  0.3345  0.2609  0.5165
  285MOL0     H38437   1.408   7.049   9.788 -0.2344 -0.0015  0.2717
  285MOL0     H38438   1.370   6.876   9.823 -0.9708 -0.8985 -1.9908
  285MOL0     H38439   0.784   7.098   9.630 -1.4170 -0.0538 -0.3150
  285MOL0     H38440   0.628   7.198   9.787 -1.1232  0.9678  2.8800
  285MOL0     H38441   0.673   7.148  10.259  3.9652 -0.5566  0.8118
  285MOL0     H38442   0.793   7.247  10.160  0.5348 -0.7465 -1.2975
  285MOL0     H38443   0.644   7.428  10.147 -1.4027  0.1238 -1.1964
  285MOL0     H38444   0.508   7.340  10.227 -1.2936  3.5555 -0.7991
  285MOL0     H38445   0.669   7.322  10.429 -1.8479  0.7100 -1.3122
  285MOL0     H38446   0.600   7.482  10.384  0.9061  0.6380  1.0568
  285MOL0     H38447   0.878   7.398  10.307 -2.2878 -3.4639  1.5892
  285MOL0     H38448   0.805   7.561  10.296 -0.7299 -0.1247 -0.8604
  285MOL0     H38449   0.850   7.403  10.557  1.6373  1.3190  2.3073
  285MOL0     H38450   0.749   7.545  10.545 -0.4866 -1.4878  1.1771
  285MOL0     H38451   0.945   7.696  10.516 -1.1007  0.1939  0.8959
  285MOL0     H38452   0.972   7.581  10.642 -0.4239 -0.6341 -0.1717
  285MOL0     H38453   1.069   7.554  10.352 -2.7750 -1.2367  0.6860
  285MOL0     H38454   1.110   7.436  10.473  1.5258 -0.4125 -1.5604
  285MOL0     H38455   1.238   7.590  10.594 -0.0485  1.4143  0.6807
  285MOL0     H38456   1.189   7.731  10.500 -1.8304 -0.4614  2.2102
  285MOL0     H38457   0.830   7.008  10.122 -1.7285 -2.0627 -0.3418
  285MOL0     H38458   0.979   6.894   9.956 -1.1000 -0.1677  0.8956
  285MOL0     H38459   1.047   6.930   9.462  0.5690 -0.4478 -1.6563
  285MOL0     H38460   1.193   6.920   9.274  0.9399  2.4082 -0.4965
  285MOL0     H38461   2.320   6.279   8.127 -1.7978 -0.0122  0.3111
  285MOL0     H38462   2.504   6.426   8.179 -0.9458  3.4946  1.6472
  285MOL0     H38463   2.671   6.861   8.621  0.5294  0.9709  0.9874
  285MOL0     H38464   2.869   6.950   8.689  0.8216  0.3226 -0.2583
  285MOL0     H38465   3.064   7.042   8.554 -1.8644 -0.0812  1.7335
  285MOL0     H38466   3.097   7.029   8.727 -1.9442 -3.2181  1.1118
  285MOL0     H38467   3.334   6.956   8.662 -1.0598  2.2232  3.0717
  285MOL0     H38468   3.292   7.128   8.630  2.0090  1.2454 -3.1137
  285MOL0     H38469   3.262   7.053   8.378 -1.1102 -2.3156 -0.6735
  285MOL0     H38470   3.275   6.897   8.442  1.4238 -0.1720 -0.2548
  285MOL0     H38471   3.499   6.964   8.336  0.0439  0.2140  0.4357
  285MOL0     H38472   3.517   6.936   8.510  3.1982  1.3797 -0.2274
  285MOL0     H38473   3.619   7.324   8.530  0.7429 -1.0971 -2.6105
  285MOL0     H38474   3.082   6.633   8.519 -0.3209 -0.5507 -3.4566
  285MOL0     H38475   2.870   6.521   8.450  0.5545  0.6213  0.7058
  286MOL0     O38476   5.248   5.388   3.117  0.3864  0.4661  0.1954
  286MOL0     C38477   5.264   5.509   3.085 -0.0572 -1.0884  0.0575
  286MOL0     O38478   5.199   5.572   2.989 -0.1020  0.5206 -0.1152
  286MOL0     C38479   5.138   5.500   2.893 -0.2074  0.5265 -0.0053
  286MOL0     C38480   5.147   5.549   2.764 -0.4680  0.1060  0.9369
  286MOL0     C38481   5.082   5.495   2.664 -0.1398  0.3002  0.0173
  286MOL0     C38482   4.990   5.393   2.687 -0.3561 -1.0519  1.5821
  286MOL0     O38483   4.928   5.351   2.570 -0.0632 -0.7000 -0.2003
  286MOL0     C38484   4.807   5.278   2.572 -0.9029  0.1669  0.2791
  286MOL0     C38485   4.851   5.150   2.506  0.5435 -0.0293  0.5075
  286MOL0     C38486   4.740   5.065   2.455 -0.7357  0.4016 -0.4612
  286MOL0     C38487   4.716   4.937   2.530  0.6320  0.0667 -0.1986
  286MOL0     C38488   4.584   4.869   2.502  0.5359 -0.1278 -0.9594
  286MOL0     C38489   4.595   4.712   2.505 -0.2617  0.6582 -0.4269
  286MOL0     C38490   4.453   4.654   2.480  0.2525 -0.5639  0.2816
  286MOL0     C38491   4.443   4.522   2.550  0.3756  0.5304 -0.7469
  286MOL0     N38492   4.311   4.457   2.519  0.2138  0.6978 -0.6642
  286MOL0     C38493   4.279   4.433   2.390  0.1944  0.7215  0.7668
  286MOL0     C38494   4.146   4.401   2.398  0.4993  0.1185  0.9723
  286MOL0     C38495   4.061   4.355   2.281  0.3370  0.5635  0.0572
  286MOL0     C38496   3.985   4.466   2.219 -0.1789 -0.2120 -0.4294
  286MOL0     C38497   3.839   4.471   2.279  0.5208 -0.3727 -0.0940
  286MOL0     C38498   3.738   4.570   2.212  0.0547 -0.4145 -1.2527
  286MOL0     O38499   3.718   4.527   2.079  0.1725  0.4644  0.4241
  286MOL0     C38500   3.621   4.593   2.002 -0.2548 -0.9365  0.4405
  286MOL0     C38501   3.633   4.567   1.870  0.5454  0.0935  0.3082
  286MOL0     C38502   3.550   4.633   1.776  0.3317 -0.5343 -0.1347
  286MOL0     C38503   3.575   4.583   1.632 -0.4970 -1.2903 -0.4483
  286MOL0     C38504   3.442   4.719   1.813  0.1507  0.7477  0.5217
  286MOL0     C38505   3.347   4.782   1.717 -0.3515 -0.3040  0.2889
  286MOL0     O38506   3.248   4.865   1.770  0.0537 -0.5692  0.5108
  286MOL0     C38507   3.180   4.948   1.676 -0.1635  0.3377 -0.1376
  286MOL0     C38508   3.249   5.006   1.572  0.1511  0.1930  0.6705
  286MOL0     C38509   3.169   5.072   1.470 -0.0617 -0.2907 -0.6539
  286MOL0     C38510   3.028   5.090   1.481 -0.4805  0.9986 -0.2996
  286MOL0     O38511   2.960   5.131   1.372 -0.5687 -0.7241  0.1242
  286MOL0     C38512   2.970   5.270   1.334 -0.8720  0.9662 -0.8593
  286MOL0     C38513   2.835   5.328   1.302 -1.1598 -0.1311 -0.5829
  286MOL0     C38514   2.773   5.245   1.187  0.2964  0.5753 -0.3653
  286MOL0     C38515   2.656   5.167   1.241 -0.3701 -0.4010  0.1726
  286MOL0     C38516   2.585   5.088   1.128 -0.0796  0.5119 -0.4279
  286MOL0     C38517   2.465   5.157   1.064  0.6271  0.8217 -0.2473
  286MOL0     C38518   2.451   5.126   0.916  0.2627 -0.1471  0.1469
  286MOL0     C38519   2.341   5.210   0.845 -0.5336 -0.4372  0.2124
  286MOL0    Cl38520   2.180   5.159   0.896  0.3704 -0.5825 -0.3549
  286MOL0     C38521   2.964   5.029   1.586 -0.1743 -0.3499 -0.7294
  286MOL0     C38522   3.040   4.963   1.678  0.1994 -0.3725 -0.8391
  286MOL0     O38523   3.358   4.744   1.598  0.6533 -1.3570  0.0698
  286MOL0     C38524   3.430   4.741   1.955  0.1966 -0.6386 -0.0263
  286MOL0     C38525   3.524   4.684   2.046  0.2067 -0.9333 -0.5511
  286MOL0     N38526   4.096   4.422   2.526 -0.8022  0.1505 -0.7910
  286MOL0     N38527   4.198   4.445   2.599  0.9342  0.1505 -0.1219
  286MOL0     C38528   4.969   5.349   2.816  0.8099 -0.8456  0.5273
  286MOL0     C38529   5.048   5.396   2.922 -0.2661  0.2013  0.3536
  286MOL0     C38530   5.358   5.588   3.169  1.0780 -0.5566 -0.0377
  286MOL0     C38531   5.401   5.540   3.290  0.0123  0.3318  0.0555
  286MOL0     C38532   5.485   5.613   3.373  0.1625  0.3108  0.5253
  286MOL0     C38533   5.532   5.740   3.330  0.1061 -0.7576 -0.1458
  286MOL0     O38534   5.620   5.805   3.411  0.3042 -0.5917  0.3845
  286MOL0     C38535   5.641   5.772   3.549  0.2963 -0.1759 -0.2821
  286MOL0     C38536   5.775   5.680   3.569 -0.0069 -0.0818 -0.2131
  286MOL0     C38537   5.778   5.605   3.708 -0.2032 -0.3397  0.7511
  286MOL0     C38538   5.821   5.705   3.819  0.3740 -0.4605  0.2502
  286MOL0     C38539   5.714   5.790   3.877 -0.0381 -0.7809  0.3245
  286MOL0     C38540   5.633   5.863   3.937  0.6118  0.0780 -0.2381
  286MOL0     C38541   5.495   5.783   3.197  0.3669 -0.0520  0.1790
  286MOL0     C38542   5.411   5.706   3.130  0.1139 -0.7205  0.5383
  286MOL0     H38543   5.210   5.636   2.749 -0.1652 -0.3519 -0.6178
  286MOL0     H38544   5.100   5.534   2.565  0.0205  3.7068  1.2780
  286MOL0     H38545   4.762   5.258   2.669 -1.1720  1.7088  0.5123
  286MOL0     H38546   4.728   5.322   2.510  0.1021  1.6952  0.0197
  286MOL0     H38547   4.911   5.178   2.419  0.3672  0.4540  0.5351
  286MOL0     H38548   4.915   5.096   2.576  2.1328  1.2566  0.1068
  286MOL0     H38549   4.655   5.133   2.441  2.3599  4.0182 -4.0326
  286MOL0     H38550   4.766   5.039   2.352  0.8512  1.1676 -0.2844
  286MOL0     H38551   4.799   4.869   2.508  1.6876  1.7164 -1.5476
  286MOL0     H38552   4.722   4.963   2.636 -1.5921  2.3641 -0.5283
  286MOL0     H38553   4.516   4.894   2.584  1.6070 -2.3125  0.7131
  286MOL0     H38554   4.544   4.918   2.412 -0.7392  3.3772  1.2904
  286MOL0     H38555   4.664   4.684   2.424  1.5609  1.4633  0.7689
  286MOL0     H38556   4.626   4.672   2.602  0.9125 -2.5462 -1.9748
  286MOL0     H38557   4.385   4.729   2.522  2.6897  1.7814  0.3383
  286MOL0     H38558   4.445   4.636   2.373 -1.0976 -1.9519  0.5754
  286MOL0     H38559   4.447   4.540   2.658  0.2564  2.3923 -1.0240
  286MOL0     H38560   4.524   4.459   2.513 -0.0203 -2.4784  2.9111
  286MOL0     H38561   4.344   4.428   2.303 -1.0851 -1.5105 -0.1379
  286MOL0     H38562   4.131   4.319   2.204  1.9442 -0.5788  1.9495
  286MOL0     H38563   3.999   4.269   2.306 -0.1173  1.0123  0.4962
  286MOL0     H38564   3.965   4.445   2.114 -2.1436  1.4540 -0.4410
  286MOL0     H38565   4.046   4.556   2.231 -0.4831 -0.1983  1.3605
  286MOL0     H38566   3.859   4.497   2.383  2.0993  0.6826 -0.6141
  286MOL0     H38567   3.803   4.368   2.268  0.7918 -0.5268  0.4199
  286MOL0     H38568   3.779   4.671   2.211 -1.0261  0.0522 -0.9100
  286MOL0     H38569   3.654   4.571   2.283 -0.9450  0.8434 -2.3986
  286MOL0     H38570   3.710   4.501   1.831  1.5475  2.0704 -1.2360
  286MOL0     H38571   3.669   4.526   1.635  0.5937  0.4375  2.2685
  286MOL0     H38572   3.493   4.521   1.595 -0.7539 -0.2965 -1.6319
  286MOL0     H38573   3.592   4.665   1.561 -0.4709 -1.5901 -0.7887
  286MOL0     H38574   3.356   4.992   1.556  0.1727  1.4584 -0.4625
  286MOL0     H38575   3.222   5.116   1.385 -0.1053  0.9579 -0.0563
  286MOL0     H38576   3.018   5.329   1.412  0.9294 -1.2373 -0.1725
  286MOL0     H38577   3.041   5.276   1.251  3.4279  2.7959  2.5751
  286MOL0     H38578   2.778   5.341   1.395  3.5042 -1.9462  3.0069
  286MOL0     H38579   2.847   5.430   1.266  3.2413 -0.1535  0.1946
  286MOL0     H38580   2.850   5.189   1.134  0.7211  0.6195  0.1910
  286MOL0     H38581   2.737   5.312   1.109 -2.6918 -0.1685  0.2593
  286MOL0     H38582   2.683   5.094   1.317  0.4407 -0.9814 -0.6429
  286MOL0     H38583   2.587   5.238   1.288  1.1792  0.0979  1.8185
  286MOL0     H38584   2.546   5.003   1.184 -1.5692 -1.1461 -3.7021
  286MOL0     H38585   2.649   5.032   1.059  2.5085 -1.1987  2.9920
  286MOL0     H38586   2.380   5.118   1.120  1.1302 -0.4635 -0.3360
  286MOL0     H38587   2.473   5.264   1.080  3.6179  0.7054 -0.4131
  286MOL0     H38588   2.436   5.018   0.903  0.2437 -0.5699  3.0501
  286MOL0     H38589   2.547   5.160   0.874  0.0145  0.1903 -0.1545
  286MOL0     H38590   2.376   5.191   0.743  0.8766  1.4518  0.3016
  286MOL0     H38591   2.352   5.313   0.878 -1.0144  0.1291 -1.3372
  286MOL0     H38592   2.857   5.036   1.604 -0.5713  1.7248 -3.2595
  286MOL0     H38593   2.979   4.921   1.758 -0.4488  0.7541 -0.7187
  286MOL0     H38594   3.340   4.793   1.985  0.5378  0.6812 -1.1624
  286MOL0     H38595   3.499   4.687   2.152  6.2565 -0.4338  1.2265
  286MOL0     H38596   4.892   5.275   2.836  0.3732 -0.4168  0.4602
  286MOL0     H38597   5.041   5.367   3.027 -2.2073 -0.0925  0.1693
  286MOL0     H38598   5.362   5.449   3.333  2.1140 -0.1443  1.0572
  286MOL0     H38599   5.526   5.570   3.464  4.3204 -0.2231 -1.3402
  286MOL0     H38600   5.667   5.863   3.605 -0.9102 -1.1715  2.0683
  286MOL0     H38601   5.554   5.731   3.602 -0.3546 -1.0294 -1.9618
  286MOL0     H38602   5.862   5.737   3.536 -0.0984 -1.0364 -2.2375
  286MOL0     H38603   5.777   5.599   3.496 -2.0971  0.3698 -0.8482
  286MOL0     H38604   5.856   5.529   3.698  0.9681  0.8303  0.7567
  286MOL0     H38605   5.684   5.554   3.729 -0.7607 -0.2537 -1.3211
  286MOL0     H38606   5.899   5.768   3.776  1.0377 -2.9545 -2.5379
  286MOL0     H38607   5.851   5.648   3.907  3.0523  2.3355  1.3485
  286MOL0     H38608   5.556   5.923   3.982  2.7509  2.2471  0.7552
  286MOL0     H38609   5.539   5.872   3.153 -0.2231  0.3503  0.3885
  286MOL0     H38610   5.389   5.740   3.029 -0.8837 -3.7957 -0.4071
  287MOL0     O38611  10.054   1.594   5.203  0.3337 -0.1382 -0.3097
  287MOL0     C38612  10.076   1.507   5.122  0.0581  0.6059 -0.6978
  287MOL0     O38613  10.027   1.382   5.135  0.2603 -0.1610 -0.0655
  287MOL0     C38614   9.927   1.363   5.228 -0.0517  0.3700 -0.6563
  287MOL0     C38615   9.791   1.345   5.190  0.0061  0.3867 -0.4888
  287MOL0     C38616   9.696   1.307   5.284 -0.8312 -0.5780 -0.5661
  287MOL0     C38617   9.727   1.290   5.418 -0.9530 -1.5169 -0.2639
  287MOL0     O38618   9.648   1.244   5.513 -0.2462 -0.1880 -0.1011
  287MOL0     C38619   9.588   1.341   5.595 -0.1365 -0.2705 -0.3491
  287MOL0     C38620   9.498   1.446   5.532 -0.5742  0.4973  0.0869
  287MOL0     C38621   9.418   1.508   5.643  0.3602  0.7456 -0.1064
  287MOL0     C38622   9.328   1.618   5.597  1.0738 -0.0911  0.2826
  287MOL0     C38623   9.234   1.653   5.716  0.3341 -1.2308 -1.0682
  287MOL0     C38624   9.144   1.776   5.705 -0.3497  0.0814  0.6329
  287MOL0     C38625   9.019   1.739   5.628 -0.4618  0.0344  0.5420
  287MOL0     C38626   8.982   1.845   5.533 -1.4085 -0.3743  1.0278
  287MOL0     N38627   8.850   1.799   5.473  0.4777 -0.1344 -0.4094
  287MOL0     C38628   8.842   1.698   5.375  0.0968 -0.4054 -0.5165
  287MOL0     C38629   8.713   1.722   5.331 -0.7667 -0.3247 -0.7830
  287MOL0     C38630   8.642   1.653   5.218  0.4194  0.1762  1.0738
  287MOL0     C38631   8.576   1.518   5.270  0.3030 -0.7701  0.0966
  287MOL0     C38632   8.670   1.429   5.348 -0.0191  0.0580  0.2687
  287MOL0     C38633   8.591   1.308   5.392 -0.2356 -0.1968  0.4113
  287MOL0     O38634   8.523   1.231   5.296 -0.0882 -0.0097 -0.3632
  287MOL0     C38635   8.595   1.134   5.229  0.4766 -0.5250  0.2491
  287MOL0     C38636   8.742   1.128   5.221  0.9292 -0.6270  0.2122
  287MOL0     C38637   8.806   1.041   5.135  0.5301  0.1327 -0.2894
  287MOL0     C38638   8.956   1.057   5.147 -0.1785  1.0160  0.3113
  287MOL0     C38639   8.737   0.946   5.062  0.8001  0.1135  0.1259
  287MOL0     C38640   8.806   0.833   4.991  0.1870  0.6815  0.3658
  287MOL0     O38641   8.726   0.741   4.929  0.2082 -0.5405 -0.7658
  287MOL0     C38642   8.785   0.620   4.885 -0.9872  0.1202 -0.4946
  287MOL0     C38643   8.847   0.605   4.760 -0.8743 -0.0172  0.0695
  287MOL0     C38644   8.916   0.493   4.724 -0.4555  0.1578 -0.5361
  287MOL0     C38645   8.920   0.378   4.807 -0.0296 -0.2863 -0.1841
  287MOL0     O38646   8.994   0.254   4.789  0.2839 -0.2312  0.2449
  287MOL0     C38647   8.991   0.191   4.664  0.5093  1.1982  1.2106
  287MOL0     C38648   8.879   0.087   4.665  0.7993  0.0185 -0.3619
  287MOL0     C38649   8.881  -0.029   4.563 -0.1222 -0.1315  0.0228
  287MOL0     C38650   8.789  -0.134   4.606  0.0185 -0.1154  0.7913
  287MOL0     C38651   8.817  -0.267   4.539  0.2115  0.4773 -0.1949
  287MOL0     C38652   8.780  -0.266   4.389 -0.0897 -0.5212  0.0228
  287MOL0     C38653   8.784  -0.410   4.329 -0.3975 -0.3222 -1.1355
  287MOL0     C38654   8.906  -0.501   4.363 -0.4278  0.9074  0.0295
  287MOL0    Cl38655   9.047  -0.445   4.277 -0.2310  0.3276  0.5615
  287MOL0     C38656   8.833   0.383   4.918 -0.9113  0.5122  0.7628
  287MOL0     C38657   8.774   0.501   4.960  0.2147 -0.0065 -0.4985
  287MOL0     O38658   8.925   0.828   4.979  0.6747  0.5136  0.0637
  287MOL0     C38659   8.599   0.956   5.063  0.2239 -0.1928  0.2963
  287MOL0     C38660   8.526   1.042   5.150 -0.5240  0.1134  0.5066
  287MOL0     N38661   8.657   1.830   5.402  0.4272  0.0721  0.1254
  287MOL0     N38662   8.741   1.876   5.490  0.7407  0.3069  0.1498
  287MOL0     C38663   9.858   1.294   5.454 -0.5428  0.4588 -0.6409
  287MOL0     C38664   9.960   1.326   5.363 -0.0292  0.1700 -0.6146
  287MOL0     C38665  10.166   1.548   5.012  0.1038 -0.6952 -0.9934
  287MOL0     C38666  10.192   1.685   4.992  0.2105 -0.0768  0.7508
  287MOL0     C38667  10.264   1.723   4.871 -0.0117  0.0575  0.2612
  287MOL0     C38668  10.318   1.630   4.778 -0.2231 -1.2020 -0.1024
  287MOL0     O38669  10.361   1.682   4.657 -0.2942  0.5233  0.2063
  287MOL0     C38670  10.323   1.592   4.549 -0.0484 -0.0686 -0.0515
  287MOL0     C38671  10.358   1.648   4.415  0.3254  0.1847 -0.2793
  287MOL0     C38672  10.511   1.687   4.408  0.2168 -0.1980  0.1733
  287MOL0     C38673  10.533   1.837   4.437 -0.3951 -0.1533  0.0695
  287MOL0     C38674  10.677   1.848   4.411  1.3336  1.1380  0.3313
  287MOL0     C38675  10.799   1.845   4.395  0.5448  0.1913  0.6208
  287MOL0     C38676  10.290   1.497   4.803  0.7458 -0.0806 -0.0316
  287MOL0     C38677  10.219   1.457   4.919  0.6668  0.4762 -1.1062
  287MOL0     H38678   9.775   1.366   5.085 -0.4715  0.4380 -0.4043
  287MOL0     H38679   9.594   1.287   5.253  0.0572 -3.3528 -2.0456
  287MOL0     H38680   9.527   1.286   5.667 -1.8258  0.0766 -1.4843
  287MOL0     H38681   9.662   1.384   5.663 -0.7978  1.5022 -0.7130
  287MOL0     H38682   9.560   1.517   5.476  0.0954  0.3437  0.6274
  287MOL0     H38683   9.429   1.392   5.467 -0.6103 -3.2385  2.9216
  287MOL0     H38684   9.350   1.430   5.679  0.0282  0.6410 -0.9450
  287MOL0     H38685   9.483   1.552   5.718  1.1967  0.0458 -0.3963
  287MOL0     H38686   9.383   1.703   5.556  2.5825 -2.8462 -4.0865
  287MOL0     H38687   9.281   1.584   5.505  1.0918 -0.4783  0.4115
  287MOL0     H38688   9.165   1.569   5.717  1.0359 -1.8224  0.2913
  287MOL0     H38689   9.279   1.658   5.816 -3.2628  0.3014  0.6596
  287MOL0     H38690   9.125   1.830   5.799  0.5194  0.2522  0.7105
  287MOL0     H38691   9.187   1.857   5.646  0.4308  0.9556  2.3114
  287MOL0     H38692   9.032   1.646   5.571  0.3108  0.6894 -0.3871
  287MOL0     H38693   8.934   1.722   5.695 -1.8238 -0.9162 -1.3489
  287MOL0     H38694   9.048   1.850   5.447 -1.9914 -0.9593  0.5310
  287MOL0     H38695   8.978   1.948   5.569 -0.7370  0.0012  0.0328
  287MOL0     H38696   8.913   1.625   5.338 -0.2567 -1.6308  1.0848
  287MOL0     H38697   8.574   1.732   5.183  1.8166  0.5213 -1.1234
  287MOL0     H38698   8.696   1.632   5.125 -0.9333  1.5367 -0.0765
  287MOL0     H38699   8.533   1.462   5.186  0.4380  0.5794 -0.9137
  287MOL0     H38700   8.485   1.545   5.324  0.5723 -1.7193  1.0618
  287MOL0     H38701   8.694   1.489   5.436  2.8199 -1.7739  0.8949
  287MOL0     H38702   8.758   1.413   5.284 -1.1978 -0.1988 -1.3534
  287MOL0     H38703   8.515   1.354   5.455 -1.0502  1.3970 -1.6361
  287MOL0     H38704   8.650   1.243   5.458  2.5635  1.4184 -0.3458
  287MOL0     H38705   8.803   1.196   5.279 -0.1679  2.3134 -1.8805
  287MOL0     H38706   9.003   0.968   5.190 -2.9023 -2.2439 -2.7816
  287MOL0     H38707   9.004   1.076   5.050 -1.2133  3.8288  0.2480
  287MOL0     H38708   8.988   1.128   5.223  1.8906 -1.7547  2.1955
  287MOL0     H38709   8.844   0.698   4.705 -0.7187  0.7515  1.3129
  287MOL0     H38710   8.959   0.482   4.626  1.2476  0.1588  0.1739
  287MOL0     H38711   8.974   0.242   4.568 -1.5243 -2.4712 -0.6439
  287MOL0     H38712   9.088   0.141   4.656 -0.4336 -0.3850 -3.1124
  287MOL0     H38713   8.883   0.049   4.768  1.6956 -0.9120 -0.7246
  287MOL0     H38714   8.783   0.137   4.648  0.6922 -0.4484 -1.1608
  287MOL0     H38715   8.981  -0.074   4.573  1.3363  1.9976 -3.1297
  287MOL0     H38716   8.865   0.003   4.460  0.3433 -1.7307 -0.5782
  287MOL0     H38717   8.801  -0.145   4.714  2.8209  0.0232  0.5665
  287MOL0     H38718   8.689  -0.098   4.581  0.3194 -0.9354 -1.9585
  287MOL0     H38719   8.762  -0.351   4.583  1.7245 -0.4865 -0.0606
  287MOL0     H38720   8.923  -0.283   4.559  0.7610  2.5203 -1.2392
  287MOL0     H38721   8.680  -0.223   4.377 -1.2319 -1.5485  4.2482
  287MOL0     H38722   8.841  -0.196   4.332 -0.9625 -1.5450 -2.3120
  287MOL0     H38723   8.778  -0.394   4.221 -2.9222 -0.4728 -1.0904
  287MOL0     H38724   8.694  -0.468   4.354 -1.7125  1.2355 -2.0201
  287MOL0     H38725   8.882  -0.598   4.320 -1.1147  0.8451  0.5425
  287MOL0     H38726   8.940  -0.527   4.464 -0.0108  2.1369  0.2274
  287MOL0     H38727   8.815   0.302   4.987 -0.7384  1.0734  1.4818
  287MOL0     H38728   8.728   0.519   5.057  3.0107  1.4663  0.6606
  287MOL0     H38729   8.550   0.876   5.009 -1.3197 -1.2836  3.1502
  287MOL0     H38730   8.418   1.042   5.151 -0.5948  0.9734 -2.0040
  287MOL0     H38731   9.885   1.270   5.556 -0.7675 -0.9511 -0.8897
  287MOL0     H38732  10.059   1.329   5.406  0.9298  1.0099 -2.7370
  287MOL0     H38733  10.148   1.763   5.053 -2.6043 -1.6476  0.9258
  287MOL0     H38734  10.279   1.824   4.834 -2.9455 -0.3359 -2.3442
  287MOL0     H38735  10.366   1.492   4.558  0.6922  0.3961  2.6023
  287MOL0     H38736  10.215   1.574   4.551  0.5176 -5.2972 -1.8047
  287MOL0     H38737  10.301   1.740   4.398  1.4168  1.6678  3.2606
  287MOL0     H38738  10.332   1.575   4.337  0.9622 -1.2141  0.7627
  287MOL0     H38739  10.538   1.677   4.302 -1.2519  0.3134 -0.2807
  287MOL0     H38740  10.568   1.616   4.468 -1.7038 -1.0885  1.0521
  287MOL0     H38741  10.522   1.880   4.538  0.8267  0.0447  0.1398
  287MOL0     H38742  10.474   1.898   4.368 -0.9151  0.0080  0.6440
  287MOL0     H38743  10.905   1.835   4.391  0.5978  1.0961 -1.9647
  287MOL0     H38744  10.319   1.407   4.749 -1.4490 -2.6164  2.6692
  287MOL0     H38745  10.201   1.354   4.947 -0.5088  0.4119 -2.0258
  288MOL0     O38746   9.907   3.384  11.233  0.7988 -0.1586 -0.7172
  288MOL0     C38747   9.970   3.364  11.337 -0.3620 -1.5020  0.2866
  288MOL0     O38748   9.928   3.299  11.446  0.3828 -0.2399 -1.1317
  288MOL0     C38749   9.811   3.223  11.448 -0.0105 -0.9143  0.3278
  288MOL0     C38750   9.814   3.087  11.482  0.0856  0.6997  0.0585
  288MOL0     C38751   9.691   3.014  11.498 -0.1648  0.4582 -0.3473
  288MOL0     C38752   9.568   3.081  11.481 -0.4545  0.3574  0.4165
  288MOL0     O38753   9.450   3.019  11.482 -0.3623  0.2525 -0.8221
  288MOL0     C38754   9.451   2.881  11.456  0.2532 -0.9004  0.9353
  288MOL0     C38755   9.323   2.856  11.374 -0.0389  0.5392 -0.3260
  288MOL0     C38756   9.185   2.857  11.445  0.4986  0.3767 -0.3476
  288MOL0     C38757   9.147   2.719  11.510 -0.1002 -0.0925  0.7139
  288MOL0     C38758   8.995   2.744  11.539  0.1781  0.4316 -0.2903
  288MOL0     C38759   8.923   2.622  11.592 -0.3168  0.2960  0.8768
  288MOL0     C38760   8.795   2.660  11.665 -0.2114  0.0504 -0.5938
  288MOL0     C38761   8.676   2.676  11.569  0.4669 -0.7756 -0.2898
  288MOL0     N38762   8.583   2.566  11.567  0.2948 -0.1159  0.2416
  288MOL0     C38763   8.608   2.434  11.593 -0.0990  0.3055  0.7134
  288MOL0     C38764   8.493   2.368  11.612 -0.1840  0.5706 -0.1892
  288MOL0     C38765   8.476   2.222  11.650 -0.4600 -0.3415 -0.2628
  288MOL0     C38766   8.530   2.129  11.542  0.3580 -0.9477  1.2143
  288MOL0     C38767   8.532   1.984  11.590  0.6132  1.5447  0.3400
  288MOL0     C38768   8.657   1.960  11.678 -1.0252  0.3669 -0.3192
  288MOL0     O38769   8.673   2.042  11.798  0.2766 -0.5783 -0.1330
  288MOL0     C38770   8.772   1.999  11.883  0.0009 -0.1489  0.0438
  288MOL0     C38771   8.869   1.895  11.861 -0.4582  0.4910 -0.1283
  288MOL0     C38772   8.986   1.882  11.942 -0.9825 -0.2650  0.5882
  288MOL0     C38773   9.073   1.760  11.912  0.1767 -0.5912 -0.5746
  288MOL0     C38774   9.011   1.964  12.057  0.0631  0.2380  1.2681
  288MOL0     C38775   9.137   1.954  12.130  1.4306 -0.5090  0.7408
  288MOL0     O38776   9.250   1.946  12.052  0.4987  0.4332 -0.3894
  288MOL0     C38777   9.367   1.932  12.120  0.4259  0.5944  0.4099
  288MOL0     C38778   9.427   1.809  12.142  0.2028  0.6475  0.1549
  288MOL0     C38779   9.551   1.814  12.215 -0.6595  0.0402  0.8010
  288MOL0     C38780   9.609   1.928  12.260 -0.6477  0.5989  0.0465
  288MOL0     O38781   9.727   1.911  12.337 -0.0940  0.4775  0.0954
  288MOL0     C38782   9.809   2.026  12.358 -0.1427 -0.6007 -0.1591
  288MOL0     C38783   9.943   1.988  12.418 -0.4305  0.2085  0.5192
  288MOL0     C38784  10.040   2.101  12.405 -1.2443  0.1545  0.0699
  288MOL0     C38785  10.175   2.059  12.466 -0.3689  0.9673  0.5908
  288MOL0     C38786  10.276   2.170  12.471 -0.0519  0.1375  0.0853
  288MOL0     C38787  10.413   2.119  12.503  0.1356 -0.9773 -0.2469
  288MOL0     C38788  10.520   2.225  12.468 -0.1040 -0.0873  0.3933
  288MOL0     C38789  10.664   2.168  12.489  0.1515  0.1344 -0.2868
  288MOL0    Cl38790  10.793   2.293  12.467 -0.4181 -0.2720 -0.1173
  288MOL0     C38791   9.547   2.050  12.237 -0.4976 -0.8434 -0.3377
  288MOL0     C38792   9.426   2.054  12.164 -0.3472 -0.0043 -0.2265
  288MOL0     O38793   9.129   1.990  12.252 -0.2992  0.3380  0.6707
  288MOL0     C38794   8.904   2.045  12.094  0.3877 -0.2778  0.5973
  288MOL0     C38795   8.793   2.075  12.007  0.6624 -0.2179 -0.1271
  288MOL0     N38796   8.401   2.460  11.577  0.4739 -0.9253 -0.2083
  288MOL0     N38797   8.450   2.579  11.551  0.2936 -0.2952  0.0290
  288MOL0     C38798   9.566   3.216  11.452  0.3002 -0.1884  0.7449
  288MOL0     C38799   9.691   3.285  11.444 -0.4109  0.1547  0.3344
  288MOL0     C38800  10.102   3.422  11.340 -0.3830  0.1993  1.2262
  288MOL0     C38801  10.187   3.428  11.223  0.0405 -1.8178  0.2827
  288MOL0     C38802  10.315   3.497  11.235  0.6399 -0.5756 -0.1191
  288MOL0     C38803  10.366   3.540  11.354  0.4357  0.0145 -0.1588
  288MOL0     O38804  10.479   3.613  11.376  0.7820 -0.4358 -0.1384
  288MOL0     C38805  10.555   3.672  11.265  0.5585 -0.7009 -0.3045
  288MOL0     C38806  10.658   3.575  11.209 -0.1685  0.0970 -0.1190
  288MOL0     C38807  10.779   3.563  11.303 -1.1273  0.1493 -0.1403
  288MOL0     C38808  10.886   3.466  11.243  0.0915 -0.0808 -0.3054
  288MOL0     C38809  11.012   3.462  11.338 -1.1527 -0.1676  0.7574
  288MOL0     C38810  11.113   3.466  11.412  0.5441 -1.1705  0.4266
  288MOL0     C38811  10.288   3.514  11.472 -0.3081  0.1110 -0.5449
  288MOL0     C38812  10.165   3.459  11.460  0.2575  0.5286  0.5572
  288MOL0     H38813   9.910   3.037  11.490 -0.5961 -0.6168  0.4137
  288MOL0     H38814   9.686   2.908  11.522 -0.2483  0.1375 -1.7225
  288MOL0     H38815   9.539   2.850  11.398  1.0175 -2.5799  2.8614
  288MOL0     H38816   9.453   2.814  11.542 -1.1732 -1.5596  0.4913
  288MOL0     H38817   9.318   2.931  11.296  0.9826  2.7829  1.6488
  288MOL0     H38818   9.334   2.757  11.328  0.7529  0.7165 -0.5296
  288MOL0     H38819   9.186   2.940  11.516 -0.8394  0.0645  0.0576
  288MOL0     H38820   9.115   2.886  11.366  1.3358 -0.2878 -1.3577
  288MOL0     H38821   9.160   2.641  11.435  0.2535 -1.8441  2.5182
  288MOL0     H38822   9.212   2.698  11.595 -1.0694 -0.7292  1.3081
  288MOL0     H38823   8.982   2.833  11.601 -2.6886 -0.7409  0.9449
  288MOL0     H38824   8.950   2.777  11.445  2.6089  0.9199 -1.3558
  288MOL0     H38825   8.896   2.552  11.512 -2.7415  1.7001  0.3539
  288MOL0     H38826   8.991   2.574  11.663  2.4434  1.4054 -0.8444
  288MOL0     H38827   8.771   2.593  11.748  0.6897  2.3747  1.6534
  288MOL0     H38828   8.804   2.751  11.724 -0.6161 -1.3023  1.6839
  288MOL0     H38829   8.711   2.705  11.469 -1.8282  0.9949 -0.6520
  288MOL0     H38830   8.611   2.762  11.588 -4.9237 -3.7023 -3.1958
  288MOL0     H38831   8.707   2.394  11.617  0.4873  1.6758  0.6833
  288MOL0     H38832   8.533   2.213  11.743  1.0080  0.6750 -1.0129
  288MOL0     H38833   8.370   2.198  11.655 -0.0337 -2.2933  0.0856
  288MOL0     H38834   8.631   2.162  11.518  0.3153  1.5706  3.9302
  288MOL0     H38835   8.476   2.140  11.447 -0.7490  3.1885  2.1142
  288MOL0     H38836   8.543   1.922  11.501  1.1131  0.6480  1.0120
  288MOL0     H38837   8.444   1.960  11.651  2.6747  0.7955  3.2251
  288MOL0     H38838   8.742   1.981  11.613 -1.7876  1.7115 -0.9193
  288MOL0     H38839   8.649   1.859  11.720  1.5607  0.0649 -0.3950
  288MOL0     H38840   8.860   1.823  11.780 -0.4633 -2.8508  2.6279
  288MOL0     H38841   9.088   1.702  12.004 -3.5477 -2.8980 -1.1985
  288MOL0     H38842   9.022   1.689  11.846 -1.8811  0.3658 -0.0933
  288MOL0     H38843   9.175   1.783  11.880  0.6770 -0.6395  0.9083
  288MOL0     H38844   9.386   1.718  12.100  1.6105  0.4117 -0.7721
  288MOL0     H38845   9.596   1.721  12.249  1.3424  0.9203  0.6761
  288MOL0     H38846   9.838   2.065  12.259  0.1364  1.2015  0.5898
  288MOL0     H38847   9.752   2.105  12.408 -1.1332 -1.4460  0.0807
  288MOL0     H38848   9.929   1.961  12.523  1.0371 -1.3411  0.3720
  288MOL0     H38849   9.973   1.895  12.367 -2.1759 -1.2721  2.0762
  288MOL0     H38850   9.994   2.176  12.470  3.6804  1.2806  2.7876
  288MOL0     H38851  10.044   2.140  12.303  0.6591  2.1288  0.8251
  288MOL0     H38852  10.177   2.022  12.569  2.0747 -1.9168 -0.3378
  288MOL0     H38853  10.213   1.977  12.404 -0.4090  0.0691  1.7145
  288MOL0     H38854  10.240   2.241  12.546 -0.0310 -4.2312  4.7937
  288MOL0     H38855  10.263   2.205  12.368 -2.3184 -1.0492 -0.0877
  288MOL0     H38856  10.408   2.104  12.612 -1.4638  0.7944 -0.0231
  288MOL0     H38857  10.435   2.031  12.442  2.2747 -0.0702 -0.8660
  288MOL0     H38858  10.505   2.317  12.524  2.2828  0.3485  0.4200
  288MOL0     H38859  10.522   2.239  12.359 -1.5643 -3.3744 -0.2017
  288MOL0     H38860  10.675   2.087  12.417 -0.8308  1.7838 -2.4080
  288MOL0     H38861  10.663   2.129  12.591 -1.3606  0.6572 -0.0657
  288MOL0     H38862   9.583   2.149  12.260 -1.5040 -0.3958 -0.6262
  288MOL0     H38863   9.370   2.146  12.156 -2.4682 -1.0407  1.5280
  288MOL0     H38864   8.913   2.099  12.188  3.3892 -0.4545  0.5250
  288MOL0     H38865   8.728   2.158  12.031  1.9446  1.0905 -1.0536
  288MOL0     H38866   9.479   3.278  11.430  0.0324 -1.4464 -2.2496
  288MOL0     H38867   9.700   3.390  11.417 -2.6225 -0.5241 -3.8424
  288MOL0     H38868  10.146   3.406  11.125 -0.5237  3.7176 -1.0408
  288MOL0     H38869  10.371   3.505  11.142  0.1446 -1.4203 -0.5016
  288MOL0     H38870  10.487   3.692  11.182 -1.3892  0.3034  1.4489
  288MOL0     H38871  10.591   3.774  11.283 -0.5532  0.2785 -3.0879
  288MOL0     H38872  10.706   3.610  11.117  0.2035  1.6332  0.6197
  288MOL0     H38873  10.611   3.479  11.188  1.3759 -1.0414  1.2955
  288MOL0     H38874  10.741   3.539  11.403 -1.4162 -1.2498 -0.5602
  288MOL0     H38875  10.826   3.661  11.303 -1.1891  0.1994 -1.4258
  288MOL0     H38876  10.917   3.508  11.147 -1.2372  0.0298 -0.7029
  288MOL0     H38877  10.841   3.367  11.233 -1.8287  0.8828 -1.6972
  288MOL0     H38878  11.196   3.487  11.476  0.6564 -2.1957  0.6425
  288MOL0     H38879  10.306   3.547  11.573 -0.7379  0.2930 -0.5271
  288MOL0     H38880  10.109   3.446  11.552 -0.9819  0.4826 -0.1742
  289MOL0     O38881   7.401   5.427  10.379 -0.2406  0.4855 -0.5941
  289MOL0     C38882   7.437   5.341  10.299 -0.0063  0.9005 -0.0287
  289MOL0     O38883   7.356   5.255  10.228 -0.2667  0.1559 -0.6153
  289MOL0     C38884   7.222   5.288  10.226  0.1692 -0.9062 -0.3743
  289MOL0     C38885   7.165   5.340  10.116 -0.0374  0.3119 -0.0903
  289MOL0     C38886   7.048   5.417  10.131  0.7385 -0.7479  0.0300
  289MOL0     C38887   6.969   5.418  10.247 -0.7085  0.4429 -0.7233
  289MOL0     O38888   6.849   5.468  10.258 -0.1362 -1.1027  0.1359
  289MOL0     C38889   6.800   5.552  10.151  1.0703  0.1520 -0.7194
  289MOL0     C38890   6.665   5.610  10.180 -0.3691 -0.2486  0.3488
  289MOL0     C38891   6.577   5.598  10.052  0.0050  0.5741  0.9227
  289MOL0     C38892   6.445   5.666  10.083 -0.8362 -0.2579  0.0635
  289MOL0     C38893   6.334   5.641   9.983 -0.6499  0.0373  0.3151
  289MOL0     C38894   6.325   5.502   9.924 -0.3120 -0.1159  0.1398
  289MOL0     C38895   6.189   5.484   9.851 -0.2651  0.1216  0.5992
  289MOL0     C38896   6.130   5.608   9.770 -0.9026 -0.2144 -0.3757
  289MOL0     N38897   6.019   5.568   9.687  0.0869  0.2307 -0.1084
  289MOL0     C38898   5.889   5.607   9.707 -0.6467 -0.1075 -0.0368
  289MOL0     C38899   5.828   5.560   9.595 -0.6024  0.7720 -0.5863
  289MOL0     C38900   5.692   5.580   9.544  0.8991 -0.1409 -0.5552
  289MOL0     C38901   5.674   5.715   9.466  0.7646 -0.6619  0.6329
  289MOL0     C38902   5.643   5.673   9.317 -0.5248 -0.0133  0.1876
  289MOL0     C38903   5.615   5.801   9.228  0.2060  0.0543  0.0484
  289MOL0     O38904   5.495   5.875   9.276  0.7778 -0.8305  0.0226
  289MOL0     C38905   5.417   5.934   9.183 -0.0434 -0.0995  0.3773
  289MOL0     C38906   5.407   6.066   9.165  0.2866  0.1147  0.2521
  289MOL0     C38907   5.317   6.129   9.068 -0.1797 -0.6855 -0.1983
  289MOL0     C38908   5.339   6.287   9.065  0.1404 -0.1421  0.4946
  289MOL0     C38909   5.234   6.044   8.989  0.4848 -0.6416  0.5372
  289MOL0     C38910   5.145   6.095   8.881 -0.6206 -0.6425 -0.1567
  289MOL0     O38911   5.065   6.010   8.817  0.0628 -1.0875  0.0060
  289MOL0     C38912   4.965   6.070   8.738  1.0678  1.5355 -1.3613
  289MOL0     C38913   4.836   6.083   8.791  0.5025 -0.5058  0.0943
  289MOL0     C38914   4.736   6.153   8.721 -0.4334  0.7483 -0.0389
  289MOL0     C38915   4.759   6.207   8.594 -0.2126 -0.8272 -0.4877
  289MOL0     O38916   4.676   6.281   8.515 -0.1347 -0.8347 -0.4092
  289MOL0     C38917   4.536   6.255   8.529  0.6172  0.2518 -0.0540
  289MOL0     C38918   4.444   6.311   8.423 -0.0068 -0.1493  0.6569
  289MOL0     C38919   4.464   6.458   8.425  1.6461  0.1657  0.6305
  289MOL0     C38920   4.364   6.524   8.331  1.0622 -0.7127  0.7597
  289MOL0     C38921   4.389   6.670   8.301  0.1077 -0.0254  0.1098
  289MOL0     C38922   4.312   6.725   8.177 -0.4436  0.9954  0.2680
  289MOL0     C38923   4.335   6.876   8.157  0.2331  0.6005 -1.2404
  289MOL0     C38924   4.245   6.915   8.040  0.2509 -0.5673  0.5363
  289MOL0    Cl38925   4.314   6.850   7.897  0.0691  0.0066  0.1016
  289MOL0     C38926   4.888   6.191   8.544 -0.0817 -0.9521 -0.3501
  289MOL0     C38927   4.986   6.121   8.614  0.6090 -0.2231  0.4045
  289MOL0     O38928   5.152   6.212   8.853 -0.8233 -0.1643  0.2497
  289MOL0     C38929   5.235   5.909   9.012  0.1448 -0.1337 -0.1062
  289MOL0     C38930   5.334   5.864   9.097  0.6229 -0.1529  0.6676
  289MOL0     N38931   5.919   5.483   9.523 -0.2447 -0.1829  0.5717
  289MOL0     N38932   6.040   5.493   9.578  0.0214  0.5771  0.0950
  289MOL0     C38933   7.021   5.338  10.350 -0.1232  0.0034 -0.0495
  289MOL0     C38934   7.147   5.275  10.351  1.0881 -1.2845 -0.0857
  289MOL0     C38935   7.581   5.296  10.310 -0.0254 -0.2438  0.8463
  289MOL0     C38936   7.665   5.333  10.416 -0.0267  0.2165 -0.6574
  289MOL0     C38937   7.798   5.300  10.418  0.3599  0.5551 -0.0653
  289MOL0     C38938   7.858   5.218  10.321  0.1844 -0.8038  0.4268
  289MOL0     O38939   7.995   5.177  10.307 -0.3385  0.4785  0.0497
  289MOL0     C38940   8.089   5.206  10.419 -0.6916 -0.2981  0.0548
  289MOL0     C38941   8.139   5.352  10.397 -0.9306 -0.0737  0.0727
  289MOL0     C38942   8.235   5.397  10.516  0.3976  0.0871 -0.2043
  289MOL0     C38943   8.373   5.317  10.491  0.2554 -1.0324  0.1033
  289MOL0     C38944   8.439   5.329  10.358 -0.5279 -0.0217 -0.5085
  289MOL0     C38945   8.498   5.324  10.251 -0.5940 -0.1688 -0.1242
  289MOL0     C38946   7.774   5.180  10.217 -0.5990 -0.2365 -1.6151
  289MOL0     C38947   7.648   5.225  10.206  0.3547  0.6098 -0.0217
  289MOL0     H38948   7.216   5.323  10.022  0.3823 -0.6979  0.2961
  289MOL0     H38949   7.020   5.481  10.048 -0.6994 -0.7337  0.4944
  289MOL0     H38950   6.878   5.624  10.121  0.1123  1.3229 -0.4999
  289MOL0     H38951   6.780   5.476  10.075  3.2663 -2.1770  0.8889
  289MOL0     H38952   6.619   5.550  10.260 -1.7498  1.8816  1.2400
  289MOL0     H38953   6.684   5.712  10.214 -0.5560 -0.8055  2.2809
  289MOL0     H38954   6.621   5.648   9.966  0.3461 -0.1474  0.6724
  289MOL0     H38955   6.557   5.494  10.025  0.9442  0.7636 -0.5963
  289MOL0     H38956   6.421   5.634  10.185 -0.0483 -0.4937  0.1826
  289MOL0     H38957   6.471   5.771  10.096 -2.5547  0.5483 -2.1972
  289MOL0     H38958   6.242   5.670  10.035 -0.5259 -1.4304  1.4237
  289MOL0     H38959   6.361   5.700   9.895  2.6497 -2.4329 -0.5466
  289MOL0     H38960   6.411   5.499   9.856  0.0743  1.4348  0.5207
  289MOL0     H38961   6.333   5.417   9.993  2.5585 -0.2382 -0.2028
  289MOL0     H38962   6.197   5.402   9.779 -0.8799  0.6023 -0.0364
  289MOL0     H38963   6.121   5.453   9.932 -0.5768  1.5502  0.9230
  289MOL0     H38964   6.206   5.641   9.699  0.1361  2.8800  1.9643
  289MOL0     H38965   6.091   5.679   9.844  0.2109 -0.6865  0.7058
  289MOL0     H38966   5.850   5.678   9.779 -0.0921 -1.8240  2.0380
  289MOL0     H38967   5.674   5.491   9.484  0.9824  0.6993 -1.8744
  289MOL0     H38968   5.621   5.579   9.628 -0.4041 -0.7346 -1.6249
  289MOL0     H38969   5.768   5.771   9.467  0.4133 -0.0723  1.2357
  289MOL0     H38970   5.604   5.786   9.511 -1.9019 -1.3047 -2.1053
  289MOL0     H38971   5.559   5.603   9.316 -0.1375 -0.5114  1.0856
  289MOL0     H38972   5.735   5.633   9.273 -0.6649  0.1335 -0.2363
  289MOL0     H38973   5.598   5.764   9.127 -3.3821 -1.3508  1.0171
  289MOL0     H38974   5.705   5.863   9.235  0.7443 -0.5635 -1.1661
  289MOL0     H38975   5.464   6.135   9.226 -2.5278  2.2365  0.6943
  289MOL0     H38976   5.256   6.342   9.110 -0.5382  0.2991 -1.2067
  289MOL0     H38977   5.431   6.320   9.114  1.5003 -0.7873 -1.4882
  289MOL0     H38978   5.352   6.331   8.966  2.9934  1.5592  1.4977
  289MOL0     H38979   4.811   6.052   8.892  1.4324  1.1678  0.8784
  289MOL0     H38980   4.641   6.159   8.772 -0.3757 -0.6290  0.2860
  289MOL0     H38981   4.509   6.149   8.526 -1.8054  0.8418 -2.3016
  289MOL0     H38982   4.505   6.284   8.630 -0.4334  1.9285 -0.8133
  289MOL0     H38983   4.474   6.274   8.325 -0.9462  0.9391 -0.0582
  289MOL0     H38984   4.344   6.279   8.453 -1.0166  1.4061 -0.8956
  289MOL0     H38985   4.564   6.484   8.390  1.2014  1.7729  0.4743
  289MOL0     H38986   4.454   6.500   8.526  1.5972  1.3009  0.1626
  289MOL0     H38987   4.347   6.472   8.236 -0.4375  1.3968 -0.2030
  289MOL0     H38988   4.260   6.519   8.365  1.2469  3.2071  2.4896
  289MOL0     H38989   4.494   6.694   8.282  0.3548 -0.1401  1.2416
  289MOL0     H38990   4.353   6.716   8.394 -0.1533  0.2638 -0.1336
  289MOL0     H38991   4.335   6.672   8.084 -0.7533  1.7560 -0.2570
  289MOL0     H38992   4.206   6.716   8.204 -0.6195  0.5057 -0.5520
  289MOL0     H38993   4.439   6.900   8.134 -0.0479  1.7722 -1.3582
  289MOL0     H38994   4.298   6.925   8.247  1.9404  0.2783 -0.3335
  289MOL0     H38995   4.220   7.021   8.027 -1.5271 -1.2864 -3.8732
  289MOL0     H38996   4.154   6.854   8.052  0.4563 -0.4474  3.2473
  289MOL0     H38997   4.912   6.230   8.446 -1.3468  0.4626 -0.1275
  289MOL0     H38998   5.084   6.105   8.569  0.5457  0.7131 -0.1006
  289MOL0     H38999   5.164   5.844   8.963 -2.2453  0.7607  1.9569
  289MOL0     H39000   5.322   5.757   9.110  0.0667 -0.0298  1.1816
  289MOL0     H39001   6.967   5.344  10.444 -1.8406 -3.2348 -0.6456
  289MOL0     H39002   7.198   5.237  10.439 -1.8298 -2.9059  1.0047
  289MOL0     H39003   7.623   5.398  10.492  1.0956  1.4606 -1.0539
  289MOL0     H39004   7.863   5.343  10.494  0.3038 -2.0609  1.6065
  289MOL0     H39005   8.048   5.195  10.520  1.0917  3.7429  1.4471
  289MOL0     H39006   8.173   5.137  10.415 -0.9229 -0.7174  1.6212
  289MOL0     H39007   8.064   5.432  10.390 -0.2134  0.5001 -1.9544
  289MOL0     H39008   8.182   5.344  10.297 -0.2102 -0.2337  0.3922
  289MOL0     H39009   8.167   5.366  10.596 -1.7437  3.6559 -0.4263
  289MOL0     H39010   8.243   5.505  10.534  2.7846 -0.3656  2.0731
  289MOL0     H39011   8.351   5.210  10.498  0.3901 -0.9912  1.3203
  289MOL0     H39012   8.440   5.330  10.576  0.4686 -2.3144  0.1563
  289MOL0     H39013   8.571   5.307  10.175 -1.8125  0.5800 -1.4996
  289MOL0     H39014   7.803   5.102  10.147 -1.0281 -0.9885 -0.9764
  289MOL0     H39015   7.592   5.224  10.113  0.9945  1.8100 -0.4397
  290MOL0     O39016   8.122   7.288   1.091 -0.3092  0.2510  0.2937
  290MOL0     C39017   8.076   7.402   1.100 -0.8650 -0.5640  0.3145
  290MOL0     O39018   8.141   7.516   1.062  0.2519  0.1327 -0.5439
  290MOL0     C39019   8.268   7.527   1.005 -1.0614  0.0239  0.2567
  290MOL0     C39020   8.337   7.651   1.006  0.6703  0.3890  0.5446
  290MOL0     C39021   8.480   7.672   0.967  0.8489 -0.3012 -0.7688
  290MOL0     C39022   8.549   7.560   0.920 -0.2597  0.8318 -0.0124
  290MOL0     O39023   8.680   7.592   0.890  0.3586  0.3223  0.8053
  290MOL0     C39024   8.779   7.492   0.885  0.3023  0.8215 -0.6443
  290MOL0     C39025   8.914   7.549   0.895  0.2226 -0.8676  0.1521
  290MOL0     C39026   9.028   7.448   0.876 -0.0661 -0.5435  0.0801
  290MOL0     C39027   9.167   7.511   0.900  0.5908 -0.3543 -0.0852
  290MOL0     C39028   9.282   7.426   0.857  0.4678 -1.0714  0.8023
  290MOL0     C39029   9.421   7.485   0.895 -0.0284  1.1547  0.8460
  290MOL0     C39030   9.456   7.612   0.808  0.5732  0.7909 -0.2135
  290MOL0     C39031   9.580   7.677   0.866  0.0496 -0.1665  0.4914
  290MOL0     N39032   9.614   7.788   0.772 -0.0236 -0.5295 -1.0154
  290MOL0     C39033   9.703   7.775   0.668 -0.0452 -0.4045 -0.0217
  290MOL0     C39034   9.696   7.898   0.612 -0.6780  0.7594 -0.3243
  290MOL0     C39035   9.744   7.937   0.479  0.6989 -0.4976  1.4247
  290MOL0     C39036   9.894   7.985   0.474  0.1782 -0.6220  0.4324
  290MOL0     C39037   9.932   8.102   0.553  0.2858  0.2748 -0.2821
  290MOL0     C39038  10.077   8.136   0.546  0.3356  0.5638  0.1777
  290MOL0     O39039  10.172   8.028   0.579  0.4015 -0.3757  0.9077
  290MOL0     C39040  10.303   8.065   0.583 -0.2061  0.0986 -0.0415
  290MOL0     C39041  10.346   8.203   0.557 -0.9612  0.5618  0.3967
  290MOL0     C39042  10.486   8.233   0.553 -0.7951  0.0091 -0.6241
  290MOL0     C39043  10.513   8.378   0.501 -0.2715  0.4267 -0.2685
  290MOL0     C39044  10.579   8.133   0.587 -0.1106 -0.7991 -0.9364
  290MOL0     C39045  10.728   8.156   0.579 -0.5819 -0.5722 -0.2573
  290MOL0     O39046  10.792   8.072   0.661  0.1023  0.5332 -0.8637
  290MOL0     C39047  10.927   8.087   0.676  0.4856  0.5546  0.9991
  290MOL0     C39048  11.021   8.012   0.600 -0.5429  0.6891 -0.3692
  290MOL0     C39049  11.163   8.022   0.631  0.0554  0.3835  0.4146
  290MOL0     C39050  11.210   8.118   0.727  0.5058 -0.1242 -0.3179
  290MOL0     O39051  11.336   8.136   0.769 -0.3624  0.4624  0.0569
  290MOL0     C39052  11.439   8.070   0.688 -0.4575 -0.1846 -0.7023
  290MOL0     C39053  11.572   8.122   0.741  0.4050  0.2963 -0.5603
  290MOL0     C39054  11.692   8.033   0.704  0.0382  0.3142  0.3120
  290MOL0     C39055  11.820   8.120   0.697  0.2263 -0.6482 -0.8544
  290MOL0     C39056  11.946   8.050   0.690 -0.7869 -0.5114 -0.6770
  290MOL0     C39057  12.060   8.154   0.682  0.9484  0.1374 -0.2611
  290MOL0     C39058  12.194   8.080   0.663  0.2816 -0.1049  0.5109
  290MOL0     C39059  12.294   8.178   0.613  1.3019  0.6515 -0.8111
  290MOL0    Cl39060  12.456   8.101   0.588  0.2617  0.2109 -0.5523
  290MOL0     C39061  11.112   8.187   0.795 -0.3874  0.0189  0.6712
  290MOL0     C39062  10.973   8.177   0.767 -0.0167  0.1096 -0.2034
  290MOL0     O39063  10.776   8.243   0.513 -0.3271 -0.3926 -0.1469
  290MOL0     C39064  10.533   8.002   0.619 -0.0961 -0.4198 -0.0868
  290MOL0     C39065  10.398   7.965   0.611  0.4375 -0.1420 -0.0934
  290MOL0     N39066   9.633   7.983   0.701 -0.3490 -0.5922  0.9874
  290MOL0     N39067   9.588   7.920   0.802  0.1747 -0.8869  0.1134
  290MOL0     C39068   8.483   7.431   0.907 -0.0374  0.2590 -0.0990
  290MOL0     C39069   8.348   7.415   0.950 -0.1967 -0.0952  0.6770
  290MOL0     C39070   7.941   7.409   1.147  0.1360  0.6222 -0.7624
  290MOL0     C39071   7.886   7.514   1.210 -0.5924 -1.2372  0.0142
  290MOL0     C39072   7.757   7.519   1.255  0.0724 -0.8994 -0.1916
  290MOL0     C39073   7.677   7.414   1.231 -0.0260 -0.0874  0.7068
  290MOL0     O39074   7.555   7.420   1.298  0.7330 -0.0228 -0.5528
  290MOL0     C39075   7.481   7.300   1.337  0.1422  0.1414 -0.8410
  290MOL0     C39076   7.403   7.336   1.467  1.5302 -0.3838  0.2361
  290MOL0     C39077   7.290   7.233   1.485  0.3520 -0.3817 -0.9137
  290MOL0     C39078   7.338   7.116   1.568  0.1030 -0.0166 -0.1580
  290MOL0     C39079   7.230   7.027   1.609 -0.6568 -0.5753 -0.3801
  290MOL0     C39080   7.141   6.965   1.663 -0.1657  0.8541 -0.1723
  290MOL0     C39081   7.729   7.298   1.178  0.4821  0.5439  0.1818
  290MOL0     C39082   7.859   7.296   1.139  0.0086  0.6879 -0.1052
  290MOL0     H39083   8.285   7.738   1.045  4.5909  3.0919  0.3426
  290MOL0     H39084   8.528   7.768   0.981 -1.0142  0.3323  2.1893
  290MOL0     H39085   8.770   7.425   0.971  3.0546  1.0268 -0.0900
  290MOL0     H39086   8.774   7.430   0.796  1.8983 -0.9788  0.4524
  290MOL0     H39087   8.916   7.629   0.821  1.1284  2.3703  3.4089
  290MOL0     H39088   8.924   7.601   0.990  0.0083  0.7997 -0.7111
  290MOL0     H39089   9.010   7.359   0.937 -2.0674 -0.1699  0.0982
  290MOL0     H39090   9.028   7.402   0.776  1.7212  0.0654 -0.2261
  290MOL0     H39091   9.147   7.606   0.850 -3.5787  0.3240  2.3823
  290MOL0     H39092   9.192   7.529   1.005  0.3473 -2.1857  0.3031
  290MOL0     H39093   9.273   7.323   0.892  0.7748 -0.5728  2.4294
  290MOL0     H39094   9.279   7.416   0.748 -0.1319  1.3973  0.5205
  290MOL0     H39095   9.429   7.517   0.999 -0.8684  3.1803  0.3377
  290MOL0     H39096   9.497   7.411   0.870 -0.5498  1.0278 -0.4674
  290MOL0     H39097   9.476   7.573   0.708 -0.9405  1.2891 -0.7385
  290MOL0     H39098   9.371   7.681   0.803  0.8600  1.1138 -0.7483
  290MOL0     H39099   9.665   7.607   0.869 -1.3324 -1.9962 -0.7516
  290MOL0     H39100   9.571   7.721   0.966  3.2813  1.9850  0.0044
  290MOL0     H39101   9.747   7.689   0.618 -0.4356 -1.0944  0.8118
  290MOL0     H39102   9.734   7.866   0.397  1.6331  0.6129  0.3019
  290MOL0     H39103   9.669   8.012   0.450  1.3521 -0.7920 -1.2518
  290MOL0     H39104   9.915   8.016   0.372  1.7597  2.4144  1.5637
  290MOL0     H39105   9.949   7.897   0.508 -0.4893  0.0890  3.7112
  290MOL0     H39106   9.912   8.067   0.655  1.3139 -0.1363 -0.2118
  290MOL0     H39107   9.857   8.180   0.536 -2.3053 -2.1545 -0.9646
  290MOL0     H39108  10.078   8.220   0.616 -3.6692  0.6515  0.3631
  290MOL0     H39109  10.095   8.178   0.446  0.3088 -1.4107 -0.7143
  290MOL0     H39110  10.277   8.281   0.527 -0.4813  0.5661 -0.7458
  290MOL0     H39111  10.602   8.377   0.436  1.0781 -2.9735  1.3987
  290MOL0     H39112  10.448   8.413   0.420 -1.3336  0.4281  0.5661
  290MOL0     H39113  10.505   8.441   0.590 -0.0700  2.5298 -1.6714
  290MOL0     H39114  10.981   7.948   0.522 -1.1003  0.7026 -0.1004
  290MOL0     H39115  11.235   7.964   0.575 -0.7571  0.6458 -0.9409
  290MOL0     H39116  11.437   7.961   0.700  2.8882 -0.3970 -1.0429
  290MOL0     H39117  11.417   8.080   0.582 -5.7076  1.2926  0.2773
  290MOL0     H39118  11.590   8.220   0.696  1.7241 -0.4135 -1.6556
  290MOL0     H39119  11.573   8.128   0.850  2.6152  1.7472 -0.5841
  290MOL0     H39120  11.687   7.989   0.604 -3.3981  2.6221 -0.6937
  290MOL0     H39121  11.706   7.948   0.773 -2.4173  0.4967  1.1356
  290MOL0     H39122  11.810   8.172   0.601  0.8368  0.1674 -0.4859
  290MOL0     H39123  11.816   8.192   0.779 -1.5476 -0.9162 -0.6772
  290MOL0     H39124  11.961   7.988   0.601  1.9896  0.0566 -0.6942
  290MOL0     H39125  11.956   7.991   0.781  0.0163 -1.2575 -1.2271
  290MOL0     H39126  12.052   8.213   0.590  1.9508  0.2072 -0.3150
  290MOL0     H39127  12.057   8.215   0.772 -1.8320  1.4525 -1.1496
  290MOL0     H39128  12.186   8.007   0.582 -1.5442  1.8039 -1.1506
  290MOL0     H39129  12.228   8.042   0.760  2.1763 -0.0445 -0.0932
  290MOL0     H39130  12.293   8.267   0.677  0.0126  0.2026 -0.1527
  290MOL0     H39131  12.264   8.205   0.511  1.0585 -1.8209 -1.4744
  290MOL0     H39132  11.134   8.262   0.870 -1.3135  1.5321 -0.4974
  290MOL0     H39133  10.908   8.245   0.821  3.4385  2.9183  0.8089
  290MOL0     H39134  10.599   7.921   0.649 -0.4709 -1.8668 -2.7674
  290MOL0     H39135  10.367   7.863   0.627 -0.0470  0.1400  0.8373
  290MOL0     H39136   8.544   7.347   0.874  0.5590  1.5944 -2.6798
  290MOL0     H39137   8.298   7.319   0.950 -2.3670  0.9838  0.0643
  290MOL0     H39138   7.957   7.593   1.232 -2.3236  0.2872  0.3956
  290MOL0     H39139   7.731   7.611   1.306  0.5279  1.0264 -3.1555
  290MOL0     H39140   7.419   7.280   1.249 -0.2607 -1.9359 -0.1466
  290MOL0     H39141   7.545   7.214   1.357 -0.3097 -0.4411 -1.8372
  290MOL0     H39142   7.355   7.434   1.468  2.3608  0.0397  2.1668
  290MOL0     H39143   7.480   7.338   1.545  1.7828 -0.9689  0.0116
  290MOL0     H39144   7.249   7.200   1.390  0.9829 -2.7174 -0.4256
  290MOL0     H39145   7.202   7.282   1.527  0.8276  0.1558 -0.5168
  290MOL0     H39146   7.380   7.159   1.659  0.6449  2.6405 -1.5734
  290MOL0     H39147   7.415   7.059   1.517  0.3288 -0.8879  1.1069
  290MOL0     H39148   7.053   6.920   1.704 -0.3264  0.8795 -0.4896
  290MOL0     H39149   7.672   7.206   1.181 -0.0225  0.8653  1.5296
  290MOL0     H39150   7.908   7.210   1.095  0.6219  1.8766 -1.9004
  291MOL0     O39151   8.951  10.341   9.789 -0.5018  0.0186  0.3662
  291MOL0     C39152   8.987  10.305   9.901  0.4769 -0.2160  0.3011
  291MOL0     O39153   8.917  10.222   9.980 -0.1903  0.4501 -0.1446
  291MOL0     C39154   8.790  10.180   9.949  0.4144 -0.3998 -0.2033
  291MOL0     C39155   8.689  10.259   9.876 -0.5717 -0.5234  0.1088
  291MOL0     C39156   8.551  10.208   9.875  0.3772  0.5393 -0.1232
  291MOL0     C39157   8.515  10.080   9.930 -0.8352  0.1348 -0.7508
  291MOL0     O39158   8.390  10.021   9.915  1.0255 -0.1395 -0.1917
  291MOL0     C39159   8.389   9.903   9.836  0.6179  0.3469 -0.0140
  291MOL0     C39160   8.255   9.877   9.757  0.6183 -0.5904  0.1743
  291MOL0     C39161   8.146   9.831   9.856  0.1053 -0.0009  0.4793
  291MOL0     C39162   8.021   9.790   9.786  0.2416 -0.0151  0.0272
  291MOL0     C39163   7.919   9.718   9.883  0.1036  0.3335  0.0365
  291MOL0     C39164   7.785   9.705   9.819  0.8197 -0.2199  0.2830
  291MOL0     C39165   7.781   9.640   9.684  0.0096 -0.4546  0.5071
  291MOL0     C39166   7.636   9.601   9.647  0.4470 -0.5318  0.2279
  291MOL0     N39167   7.609   9.515   9.529 -0.3945 -0.2974  0.5247
  291MOL0     C39168   7.684   9.530   9.408 -0.3656 -0.4048 -0.2819
  291MOL0     C39169   7.659   9.415   9.343 -0.7027 -0.4899 -0.1204
  291MOL0     C39170   7.719   9.391   9.205  0.3251 -0.2696  0.5530
  291MOL0     C39171   7.750   9.252   9.179 -0.4327  0.4230 -0.0597
  291MOL0     C39172   7.812   9.215   9.049  0.4489  0.2692 -0.2871
  291MOL0     C39173   7.970   9.242   9.039 -0.1953  1.0038 -0.1399
  291MOL0     O39174   8.030   9.117   9.058  0.7281  0.4464  0.3536
  291MOL0     C39175   8.165   9.114   9.063 -0.1980 -0.1923  0.2085
  291MOL0     C39176   8.208   8.984   9.050  0.5295  0.0720  0.0472
  291MOL0     C39177   8.353   8.961   9.063  0.2374 -0.6408 -0.2199
  291MOL0     C39178   8.395   8.814   9.056  0.7999  0.1013 -0.4376
  291MOL0     C39179   8.437   9.068   9.090  0.4167  0.2544  0.4272
  291MOL0     C39180   8.591   9.056   9.106 -0.0742  0.7328 -1.0419
  291MOL0     O39181   8.663   9.173   9.133 -0.4086 -0.3735 -0.0091
  291MOL0     C39182   8.799   9.172   9.147 -0.1453  0.3136 -0.6224
  291MOL0     C39183   8.877   9.222   9.042 -0.5096  0.2050  0.0697
  291MOL0     C39184   9.015   9.209   9.049 -0.0494 -1.3711 -0.6866
  291MOL0     C39185   9.070   9.159   9.166 -1.3030  0.3958  0.0159
  291MOL0     O39186   9.206   9.133   9.188  0.8716 -0.3128  0.0179
  291MOL0     C39187   9.287   9.226   9.125 -0.5307 -0.1926 -0.1339
  291MOL0     C39188   9.438   9.188   9.168  0.4983 -0.2404 -0.6027
  291MOL0     C39189   9.539   9.243   9.074 -0.5274  0.2833 -1.1256
  291MOL0     C39190   9.677   9.204   9.124 -0.2600  0.7256 -0.4398
  291MOL0     C39191   9.793   9.265   9.049 -0.0700  0.0011 -0.0996
  291MOL0     C39192   9.810   9.408   9.093  0.6479 -0.4230  0.0174
  291MOL0     C39193   9.942   9.472   9.025 -0.3247  0.6153  0.0106
  291MOL0     C39194   9.956   9.627   9.073  0.2783 -0.5843 -0.0464
  291MOL0    Cl39195  10.128   9.660   9.090  0.6256  0.0823 -0.3026
  291MOL0     C39196   8.997   9.115   9.269  0.3013  0.1564 -0.2507
  291MOL0     C39197   8.861   9.116   9.262  1.3718  0.2685 -0.1441
  291MOL0     O39198   8.645   8.944   9.101 -0.0151  0.6997 -0.1181
  291MOL0     C39199   8.386   9.199   9.101  0.0103  0.8177  0.3447
  291MOL0     C39200   8.249   9.218   9.105 -0.1480  0.3056  0.2487
  291MOL0     N39201   7.578   9.336   9.416 -0.0998  0.0918 -0.0048
  291MOL0     N39202   7.560   9.389   9.525  0.5296 -0.0420  0.2202
  291MOL0     C39203   8.617  10.013   9.993  0.4467  0.8355  0.2984
  291MOL0     C39204   8.748  10.062  10.001  0.8100  0.9854 -0.2836
  291MOL0     C39205   9.126  10.319   9.924 -0.7724 -0.1264  0.8540
  291MOL0     C39206   9.216  10.390   9.835  0.3952  0.3472  0.2988
  291MOL0     C39207   9.349  10.417   9.861  0.3447 -0.6374  0.8037
  291MOL0     C39208   9.413  10.345   9.962 -0.0113 -0.2987 -0.4977
  291MOL0     O39209   9.550  10.348   9.962  0.1037 -0.3613 -0.3658
  291MOL0     C39210   9.625  10.306  10.080  0.7187  0.0447  1.0126
  291MOL0     C39211   9.772  10.265  10.059  0.8043 -0.1222  0.7446
  291MOL0     C39212   9.760  10.115  10.011 -0.8013  0.2487 -0.6769
  291MOL0     C39213   9.907  10.053  10.000  0.8874 -0.3820 -0.9938
  291MOL0     C39214   9.980   9.989  10.107 -0.3268  0.0098  0.0494
  291MOL0     C39215  10.043   9.935  10.194 -0.7721  0.4751  0.1329
  291MOL0     C39216   9.322  10.282  10.055  0.1956  0.1172  0.2801
  291MOL0     C39217   9.184  10.265  10.034  0.0913 -0.6439 -0.2163
  291MOL0     H39218   8.715  10.354   9.832  1.3740 -0.3175  1.5414
  291MOL0     H39219   8.484  10.266   9.812 -0.9225 -0.4061  0.3587
  291MOL0     H39220   8.461   9.926   9.757 -1.1428 -0.7714 -2.0286
  291MOL0     H39221   8.420   9.819   9.899 -1.5069  0.0739  0.7398
  291MOL0     H39222   8.219   9.971   9.713 -0.9894  0.6128  3.6683
  291MOL0     H39223   8.265   9.812   9.670  0.0655 -1.5578  0.8145
  291MOL0     H39224   8.188   9.752   9.920 -0.2728 -0.7913 -0.2480
  291MOL0     H39225   8.146   9.917   9.925  1.3853  0.2202  0.2358
  291MOL0     H39226   7.981   9.884   9.748  2.9380  1.2359  0.0905
  291MOL0     H39227   8.053   9.733   9.698 -0.2007  0.4866 -0.4641
  291MOL0     H39228   7.951   9.615   9.903  0.9333  0.8130  1.3055
  291MOL0     H39229   7.912   9.783   9.971 -0.1267 -1.6900  1.5801
  291MOL0     H39230   7.721   9.668   9.899 -2.6472  5.7912  0.9038
  291MOL0     H39231   7.736   9.803   9.809 -3.7321 -2.2655  0.1776
  291MOL0     H39232   7.813   9.716   9.613  0.1344 -0.1492  0.8847
  291MOL0     H39233   7.841   9.548   9.676 -0.7117 -0.8946  0.0413
  291MOL0     H39234   7.590   9.698   9.624  2.5069  0.3274 -0.4384
  291MOL0     H39235   7.590   9.558   9.737  2.0124 -0.3377  1.1572
  291MOL0     H39236   7.748   9.616   9.389 -4.5914  2.5542 -2.8443
  291MOL0     H39237   7.642   9.436   9.141  1.0046  1.3912  0.8702
  291MOL0     H39238   7.807   9.451   9.185 -0.0819  0.5073  1.0515
  291MOL0     H39239   7.657   9.195   9.184  0.5666 -1.3144 -0.4418
  291MOL0     H39240   7.808   9.218   9.265 -4.4329  0.2929  2.8680
  291MOL0     H39241   7.758   9.272   8.973 -3.5634 -1.6547  0.8331
  291MOL0     H39242   7.797   9.112   9.015 -2.6103  0.7261 -0.6084
  291MOL0     H39243   7.994   9.315   9.117 -1.9835  0.6989  0.7521
  291MOL0     H39244   7.995   9.278   8.939 -1.0461  0.8395 -0.4225
  291MOL0     H39245   8.141   8.899   9.039  0.5185  0.1018 -0.1133
  291MOL0     H39246   8.305   8.756   9.035  1.0837  0.2064 -2.1146
  291MOL0     H39247   8.454   8.787   8.968  2.0636 -2.1431  0.9876
  291MOL0     H39248   8.452   8.784   9.144 -1.3662 -1.4520  0.5178
  291MOL0     H39249   8.833   9.275   8.958  0.1629 -3.2277 -2.7102
  291MOL0     H39250   9.075   9.242   8.965 -0.9656 -1.3382 -1.3307
  291MOL0     H39251   9.285   9.213   9.016  0.9802 -3.3468  0.1136
  291MOL0     H39252   9.252   9.325   9.157  0.0704 -0.0887  0.2134
  291MOL0     H39253   9.454   9.237   9.265  0.9611 -0.8615 -0.3525
  291MOL0     H39254   9.456   9.080   9.171 -1.1283 -0.5355  1.7634
  291MOL0     H39255   9.519   9.349   9.089 -5.2197 -0.7377  2.0640
  291MOL0     H39256   9.526   9.200   8.974  0.7787 -0.7370 -0.8883
  291MOL0     H39257   9.691   9.237   9.228 -1.6482 -0.5894  0.1912
  291MOL0     H39258   9.688   9.095   9.124 -1.8155  0.5525 -0.8919
  291MOL0     H39259   9.770   9.256   8.943 -1.6042 -3.5990  0.3660
  291MOL0     H39260   9.891   9.217   9.064  1.1463  1.5125 -2.5496
  291MOL0     H39261   9.722   9.470   9.073  0.1105 -0.4610  2.0383
  291MOL0     H39262   9.822   9.411   9.202 -1.9562 -0.5791  0.3681
  291MOL0     H39263   9.945   9.463   8.916  3.5165 -1.2709  0.1117
  291MOL0     H39264  10.025   9.411   9.061  3.1212  3.9935 -1.5492
  291MOL0     H39265   9.908   9.653   9.168  1.1288  1.5863 -0.1772
  291MOL0     H39266   9.910   9.696   9.001 -0.1114 -0.5302  0.2502
  291MOL0     H39267   9.046   9.087   9.362 -1.3440  0.3483  0.7077
  291MOL0     H39268   8.801   9.071   9.340 -0.3260 -0.5304 -1.8370
  291MOL0     H39269   8.461   9.274   9.124  2.7313 -1.4871 -0.4166
  291MOL0     H39270   8.196   9.304   9.143 -2.0844 -0.8446  0.3082
  291MOL0     H39271   8.610   9.912  10.033 -1.6525  1.4051  1.5341
  291MOL0     H39272   8.814   9.992  10.052 -3.8754 -3.1368  0.9320
  291MOL0     H39273   9.172  10.435   9.747 -1.0828 -1.3019  0.1375
  291MOL0     H39274   9.422  10.468   9.798  0.7913 -3.3211 -1.0323
  291MOL0     H39275   9.616  10.380  10.160  0.8218  0.3807  0.7140
  291MOL0     H39276   9.571  10.221  10.123 -2.4855  1.7946  0.7795
  291MOL0     H39277   9.824  10.269  10.154  1.2553 -1.2370  0.5641
  291MOL0     H39278   9.820  10.316   9.975  0.5044 -1.2857 -0.1663
  291MOL0     H39279   9.716  10.127   9.912 -0.6060  0.2529 -0.7638
  291MOL0     H39280   9.704  10.051  10.080  1.0113 -0.3680  0.2925
  291MOL0     H39281   9.960  10.139   9.960  0.6279  0.0833 -0.3517
  291MOL0     H39282   9.916   9.971   9.928  0.6706 -0.0771 -1.3708
  291MOL0     H39283  10.096   9.882  10.271 -1.3173 -1.3519 -0.7083
  291MOL0     H39284   9.358  10.227  10.142 -0.6486 -0.2967  0.3835
  291MOL0     H39285   9.132  10.216  10.116  0.4396  0.0625  0.4460
  292MOL0     O39286  10.547   9.320   4.081 -0.1681 -0.3873  0.1045
  292MOL0     C39287  10.516   9.233   3.999  0.0890 -0.8684 -0.9036
  292MOL0     O39288  10.412   9.236   3.916  0.4994 -0.4872  0.4639
  292MOL0     C39289  10.316   9.330   3.920 -0.5080 -0.4562 -1.4899
  292MOL0     C39290  10.182   9.295   3.935 -0.4977  0.8131  0.2901
  292MOL0     C39291  10.076   9.389   3.927  0.1029  0.5250 -0.3200
  292MOL0     C39292  10.104   9.526   3.895  0.4112  0.2938 -0.9016
  292MOL0     O39293  10.003   9.612   3.858  0.3116 -0.7577 -0.8391
  292MOL0     C39294   9.868   9.555   3.850 -0.7863 -0.0850 -0.1648
  292MOL0     C39295   9.774   9.667   3.813  0.2256  0.7091  0.1688
  292MOL0     C39296   9.650   9.605   3.741  0.1672 -0.0971  0.3334
  292MOL0     C39297   9.540   9.711   3.728  0.3595  0.0504 -0.0969
  292MOL0     C39298   9.416   9.661   3.662 -0.8098  0.0550 -0.3172
  292MOL0     C39299   9.300   9.753   3.672  0.0742 -0.0402  0.3701
  292MOL0     C39300   9.323   9.887   3.596 -0.1342 -0.5883 -0.8106
  292MOL0     C39301   9.213   9.985   3.605  0.5732 -0.6995  0.1402
  292MOL0     N39302   9.078   9.927   3.613  0.2015 -0.8907  0.6130
  292MOL0     C39303   9.001   9.902   3.500  0.1390 -0.3940  0.6085
  292MOL0     C39304   8.886   9.843   3.537  0.1909 -0.3318  0.1827
  292MOL0     C39305   8.773   9.790   3.456 -0.2026  0.4005  0.5293
  292MOL0     C39306   8.652   9.878   3.480  0.3906  0.8359  0.9249
  292MOL0     C39307   8.528   9.819   3.414  1.4674  0.6611 -0.0480
  292MOL0     C39308   8.410   9.909   3.444 -0.1349 -0.4401  1.0457
  292MOL0     O39309   8.292   9.835   3.414 -0.1775  0.7346  0.1291
  292MOL0     C39310   8.175   9.891   3.443  0.1245 -1.0191 -0.6842
  292MOL0     C39311   8.134   9.897   3.583  0.5145 -0.4383 -0.3894
  292MOL0     C39312   8.017   9.963   3.625 -0.0950  0.8758  0.3747
  292MOL0     C39313   7.984   9.973   3.771 -0.5439 -0.3808  0.5511
  292MOL0     C39314   7.944  10.029   3.524  0.3641 -0.2452  0.1995
  292MOL0     C39315   7.820  10.109   3.554  0.0006  0.1887 -0.6159
  292MOL0     O39316   7.776  10.192   3.453  0.3970 -0.2221 -0.9128
  292MOL0     C39317   7.670  10.277   3.466  0.7070  0.5446 -0.1192
  292MOL0     C39318   7.648  10.370   3.568  0.1957  0.4848 -0.8201
  292MOL0     C39319   7.534  10.449   3.578  0.1009  0.1350  0.0368
  292MOL0     C39320   7.429  10.442   3.486  0.9087  0.9000 -1.2083
  292MOL0     O39321   7.308  10.503   3.494 -0.2890 -0.3294  0.1487
  292MOL0     C39322   7.282  10.599   3.597  0.2664  0.7900  0.3064
  292MOL0     C39323   7.149  10.656   3.575  0.1170  0.2827 -0.6499
  292MOL0     C39324   7.028  10.569   3.624  0.4681 -0.2934  0.0905
  292MOL0     C39325   6.988  10.582   3.769 -0.4000 -0.7898  0.6795
  292MOL0     C39326   6.880  10.489   3.821  0.0143  0.3254  0.0826
  292MOL0     C39327   6.837  10.500   3.971  0.7005 -0.2989 -0.2442
  292MOL0     C39328   6.691  10.444   4.001  0.0235  0.1307  0.8151
  292MOL0     C39329   6.677  10.304   3.942  0.3041 -0.5337  0.7167
  292MOL0    Cl39330   6.515  10.239   3.993 -0.1134 -0.3998 -0.3183
  292MOL0     C39331   7.444  10.346   3.383  0.1713  0.0640 -1.1335
  292MOL0     C39332   7.561  10.268   3.372  0.6512 -0.6117  0.3632
  292MOL0     O39333   7.755  10.090   3.657  0.8496 -0.1390 -0.1874
  292MOL0     C39334   7.982  10.013   3.387 -0.6687 -0.1451 -0.3218
  292MOL0     C39335   8.092   9.944   3.347  0.5470  0.2523 -0.5939
  292MOL0     N39336   8.897   9.825   3.665 -0.0825  0.3072  0.0680
  292MOL0     N39337   9.010   9.862   3.714 -0.1148 -0.1266 -0.8592
  292MOL0     C39338  10.239   9.562   3.879  0.2756  0.8637  0.8129
  292MOL0     C39339  10.343   9.467   3.911 -0.0144 -0.4689 -0.1082
  292MOL0     C39340  10.618   9.130   3.977  1.1067  0.3321  0.3953
  292MOL0     C39341  10.714   9.089   4.074 -0.2596  0.5717 -0.4350
  292MOL0     C39342  10.796   8.977   4.056  0.6819  0.3827 -0.1352
  292MOL0     C39343  10.779   8.895   3.936  0.3051  0.2510  0.2697
  292MOL0     O39344  10.864   8.787   3.912  0.2492 -0.1499  0.2259
  292MOL0     C39345  10.978   8.755   3.982 -0.6465 -0.7404  0.5131
  292MOL0     C39346  11.099   8.855   3.948 -1.0078 -0.2775  1.4734
  292MOL0     C39347  11.209   8.840   4.047 -0.4359  0.0613  0.2229
  292MOL0     C39348  11.256   8.974   4.104  0.9906 -0.9178 -0.5316
  292MOL0     C39349  11.348   8.948   4.214  1.1327 -0.6297 -0.1209
  292MOL0     C39350  11.435   8.937   4.292  0.4833  0.1145 -0.7027
  292MOL0     C39351  10.698   8.937   3.840 -0.5791 -0.2812  0.2551
  292MOL0     C39352  10.613   9.046   3.858  0.6352 -0.2042  0.5903
  292MOL0     H39353  10.161   9.191   3.953  2.1463  0.4240  1.5881
  292MOL0     H39354   9.978   9.342   3.930  1.3492 -2.6839 -3.3260
  292MOL0     H39355   9.859   9.481   3.771 -1.4840  0.9280 -1.0697
  292MOL0     H39356   9.831   9.507   3.941  0.2338 -3.2966 -1.3006
  292MOL0     H39357   9.742   9.696   3.913  1.5909 -0.4390  0.9895
  292MOL0     H39358   9.832   9.742   3.758 -0.4241  0.7713 -0.4520
  292MOL0     H39359   9.675   9.563   3.643 -1.6456 -3.4290  1.1496
  292MOL0     H39360   9.611   9.522   3.801  1.9955 -2.0930 -1.1115
  292MOL0     H39361   9.510   9.741   3.829 -0.0290 -0.4386 -0.0689
  292MOL0     H39362   9.587   9.803   3.689  2.1088  0.4047  2.6141
  292MOL0     H39363   9.444   9.639   3.558 -1.9354  0.7878 -0.8008
  292MOL0     H39364   9.374   9.570   3.705 -0.6087  0.3851  0.5908
  292MOL0     H39365   9.213   9.708   3.623 -1.1370 -2.0336  3.9834
  292MOL0     H39366   9.265   9.777   3.773  2.0786  4.2418  0.2927
  292MOL0     H39367   9.416   9.934   3.631  0.0189 -0.8657 -0.8453
  292MOL0     H39368   9.325   9.869   3.488 -0.6022 -0.5364 -0.8261
  292MOL0     H39369   9.212  10.058   3.524  1.3619  0.0285  0.7769
  292MOL0     H39370   9.231  10.040   3.698  2.1898  0.0973 -0.6172
  292MOL0     H39371   9.037   9.921   3.400  1.6736 -3.5762  0.4570
  292MOL0     H39372   8.796   9.802   3.349  1.3818  2.2075  1.0193
  292MOL0     H39373   8.756   9.686   3.484 -3.0493 -0.1484 -2.5779
  292MOL0     H39374   8.665   9.983   3.452  3.1974  0.1220 -0.9785
  292MOL0     H39375   8.639   9.868   3.588 -2.0736 -1.2070  0.5366
  292MOL0     H39376   8.513   9.716   3.446  0.2050 -0.6637 -4.1921
  292MOL0     H39377   8.542   9.804   3.306 -1.4239 -1.4422 -0.2512
  292MOL0     H39378   8.432   9.998   3.385  2.0580 -2.3234 -1.1835
  292MOL0     H39379   8.409   9.939   3.549 -3.4163 -2.5982  1.7995
  292MOL0     H39380   8.196   9.844   3.655  0.1403  0.0791  0.3321
  292MOL0     H39381   7.884   9.933   3.791 -1.8492  1.4360 -1.7506
  292MOL0     H39382   8.062   9.927   3.832 -0.9231  0.0840  1.3966
  292MOL0     H39383   7.981  10.076   3.808 -2.4776  1.1955 -3.3582
  292MOL0     H39384   7.721  10.380   3.647 -0.6749 -5.7848  1.2834
  292MOL0     H39385   7.526  10.510   3.668 -1.5604 -1.9941  1.4464
  292MOL0     H39386   7.281  10.551   3.696  2.4527 -0.6528 -0.2802
  292MOL0     H39387   7.355  10.680   3.594  0.1952  0.8934  1.0901
  292MOL0     H39388   7.141  10.749   3.631 -3.0102 -0.0920 -0.3145
  292MOL0     H39389   7.139  10.681   3.469  0.7181 -1.0406 -1.0439
  292MOL0     H39390   7.057  10.466   3.601 -0.3047 -0.1454 -1.7400
  292MOL0     H39391   6.937  10.583   3.566  0.2787  0.0534  0.4653
  292MOL0     H39392   7.081  10.568   3.825  0.1724  2.0488  0.5632
  292MOL0     H39393   6.954  10.685   3.777 -0.5445 -0.6182 -1.4214
  292MOL0     H39394   6.912  10.386   3.805  0.8953  0.0761  2.9939
  292MOL0     H39395   6.797  10.515   3.754 -1.1478  2.6737  2.2461
  292MOL0     H39396   6.912  10.457   4.037 -0.9050  0.0391  1.8984
  292MOL0     H39397   6.830  10.603   4.008  0.6912 -0.6912  0.8624
  292MOL0     H39398   6.628  10.515   3.946  3.3291  1.4974 -1.5109
  292MOL0     H39399   6.668  10.436   4.108 -1.6515 -0.4262  0.4509
  292MOL0     H39400   6.764  10.247   3.975  2.1738  2.3661  1.2168
  292MOL0     H39401   6.691  10.314   3.834  0.8068  2.3322  0.9704
  292MOL0     H39402   7.359  10.328   3.318  0.8636 -3.0357 -1.3148
  292MOL0     H39403   7.566  10.211   3.280  3.9440 -1.5799  1.0175
  292MOL0     H39404   7.926  10.065   3.311 -1.4764  0.3081  0.5731
  292MOL0     H39405   8.127   9.942   3.244  0.1581 -2.3499 -0.7430
  292MOL0     H39406  10.265   9.665   3.856  0.8298  0.4236 -0.6244
  292MOL0     H39407  10.445   9.505   3.916  0.2260 -1.1734  0.5269
  292MOL0     H39408  10.724   9.132   4.173  0.3143 -0.2573 -0.1179
  292MOL0     H39409  10.866   8.949   4.134  1.7617 -1.1149 -1.5796
  292MOL0     H39410  10.965   8.771   4.089  1.3942  2.2702  0.4045
  292MOL0     H39411  10.998   8.650   3.959  3.8479 -0.1886  1.1377
  292MOL0     H39412  11.058   8.955   3.934 -0.0529 -0.2328 -1.8517
  292MOL0     H39413  11.138   8.821   3.852 -1.0635 -1.5967  1.8988
  292MOL0     H39414  11.290   8.796   3.988 -1.4985  0.0906 -1.2976
  292MOL0     H39415  11.180   8.776   4.131  0.9282 -0.9403 -0.0357
  292MOL0     H39416  11.167   9.023   4.146  0.1580 -3.8043  1.3867
  292MOL0     H39417  11.295   9.043   4.028  0.0945  3.6689  2.7270
  292MOL0     H39418  11.511   8.915   4.364 -1.3464 -1.8387  0.7522
  292MOL0     H39419  10.696   8.882   3.746 -1.4605  1.4967 -0.8321
  292MOL0     H39420  10.533   9.052   3.785  0.4984 -1.4819  0.6164
  293MOL0     O39421   3.069   0.376   3.358  0.1159  0.5629 -0.0203
  293MOL0     C39422   3.031   0.393   3.475 -0.2520  0.4255  1.0461
  293MOL0     O39423   3.105   0.455   3.579 -0.9014 -0.0711  0.3076
  293MOL0     C39424   3.219   0.523   3.530  0.0566  0.2855  0.2300
  293MOL0     C39425   3.333   0.468   3.462 -0.0628  0.5198  0.4069
  293MOL0     C39426   3.438   0.555   3.433  0.3761 -0.2118  0.4435
  293MOL0     C39427   3.434   0.689   3.458 -0.7049 -0.1079 -0.1231
  293MOL0     O39428   3.546   0.771   3.438  0.2227 -0.1729  0.1520
  293MOL0     C39429   3.686   0.732   3.442 -0.6073 -0.0132  0.1015
  293MOL0     C39430   3.761   0.786   3.565 -0.1383  0.5001  0.3582
  293MOL0     C39431   3.894   0.725   3.558  0.9947  0.1302  0.7823
  293MOL0     C39432   3.975   0.774   3.427 -0.4104 -0.1324 -0.0233
  293MOL0     C39433   4.124   0.788   3.465  0.0873 -0.0477 -0.8841
  293MOL0     C39434   4.208   0.808   3.331  0.4665 -0.4194  0.2650
  293MOL0     C39435   4.356   0.795   3.347  0.9119 -0.6190 -0.4493
  293MOL0     C39436   4.428   0.884   3.461  1.1728 -0.2264  0.5158
  293MOL0     N39437   4.558   0.823   3.507  0.4770  1.5628  0.1036
  293MOL0     C39438   4.607   0.691   3.506 -0.2330  0.4455  0.0954
  293MOL0     C39439   4.735   0.711   3.551  0.0183 -0.7598  0.4093
  293MOL0     C39440   4.835   0.606   3.542 -0.2818 -0.3349 -0.3642
  293MOL0     C39441   4.957   0.599   3.650 -0.5852 -0.3243  0.4198
  293MOL0     C39442   5.031   0.459   3.633  0.2759  0.4522 -0.0754
  293MOL0     C39443   5.182   0.469   3.662 -0.5489  0.4308 -0.6730
  293MOL0     O39444   5.250   0.536   3.554  0.4572 -0.6143 -0.4716
  293MOL0     C39445   5.381   0.580   3.570 -0.5094  0.8452 -0.2217
  293MOL0     C39446   5.461   0.540   3.681  0.1658 -0.4715  0.8430
  293MOL0     C39447   5.591   0.590   3.696  0.6241 -0.5326 -0.0223
  293MOL0     C39448   5.673   0.542   3.821 -0.1905  0.4201 -0.5599
  293MOL0     C39449   5.643   0.668   3.588 -0.4799 -0.6348  0.0716
  293MOL0     C39450   5.792   0.718   3.581 -0.1754  1.2606 -0.0042
  293MOL0     O39451   5.884   0.692   3.679 -0.0480 -0.0443  0.2160
  293MOL0     C39452   6.020   0.706   3.653 -0.5267  0.1695  0.2410
  293MOL0     C39453   6.076   0.676   3.527 -0.0476  0.0376 -0.1883
  293MOL0     C39454   6.211   0.694   3.495 -0.1593  0.3759  0.0192
  293MOL0     C39455   6.303   0.757   3.587  0.9857 -0.2143  0.5317
  293MOL0     O39456   6.428   0.788   3.553 -0.2909 -0.3464  0.2853
  293MOL0     C39457   6.461   0.778   3.410  1.1509  0.7364 -0.8719
  293MOL0     C39458   6.598   0.842   3.405 -0.4510  0.7328  0.2221
  293MOL0     C39459   6.619   0.981   3.445  0.9044 -0.4124 -0.6998
  293MOL0     C39460   6.515   1.076   3.399  0.1958 -0.6192 -0.4037
  293MOL0     C39461   6.542   1.219   3.451  0.8520  0.7292  0.0909
  293MOL0     C39462   6.431   1.317   3.407  0.1809  0.2229 -0.2471
  293MOL0     C39463   6.305   1.303   3.497 -0.0055 -0.5861 -0.1534
  293MOL0     C39464   6.198   1.403   3.454 -0.0315 -0.2928 -0.0768
  293MOL0    Cl39465   6.142   1.370   3.291 -0.0963  0.6695  0.0677
  293MOL0     C39466   6.249   0.790   3.714  0.0220  0.0904 -0.3177
  293MOL0     C39467   6.109   0.767   3.742 -0.1415  0.6166  1.1255
  293MOL0     O39468   5.821   0.785   3.482  0.0009  0.6308  0.0188
  293MOL0     C39469   5.564   0.705   3.476  0.1066  0.2669 -0.0385
  293MOL0     C39470   5.438   0.654   3.472 -0.1936  0.2371  0.1295
  293MOL0     N39471   4.758   0.848   3.586 -0.5472  0.8047  0.0320
  293MOL0     N39472   4.647   0.908   3.549 -0.6587  0.1241 -1.2632
  293MOL0     C39473   3.313   0.749   3.501 -0.4752 -0.1906 -0.2753
  293MOL0     C39474   3.205   0.658   3.532  0.1819  0.1029 -0.6145
  293MOL0     C39475   2.896   0.342   3.518  0.3783  0.6343 -0.9447
  293MOL0     C39476   2.851   0.369   3.648  0.1792  0.1396 -0.1921
  293MOL0     C39477   2.723   0.342   3.695 -0.1244  0.2253 -0.1297
  293MOL0     C39478   2.628   0.269   3.621  0.2986  0.2674 -1.2970
  293MOL0     O39479   2.502   0.255   3.671 -0.0420  0.0828 -0.3639
  293MOL0     C39480   2.395   0.236   3.582 -0.1838 -0.7785  0.4146
  293MOL0     C39481   2.269   0.237   3.661 -0.3354 -0.0411 -0.4125
  293MOL0     C39482   2.142   0.207   3.575 -0.7503 -0.4497  0.6807
  293MOL0     C39483   2.017   0.214   3.666 -0.0432 -0.0331 -0.2073
  293MOL0     C39484   1.894   0.188   3.585 -0.1408 -0.2307  0.2688
  293MOL0     C39485   1.797   0.178   3.515  0.0601 -0.7599 -0.0647
  293MOL0     C39486   2.671   0.241   3.491  0.3591  0.5190  0.2692
  293MOL0     C39487   2.800   0.265   3.442 -0.1421 -0.4385 -0.0063
  293MOL0     H39488   3.341   0.361   3.446 -1.6649  0.5495 -0.6921
  293MOL0     H39489   3.525   0.506   3.391 -0.5995  0.0909 -2.1151
  293MOL0     H39490   3.697   0.624   3.457 -2.3822  0.0693  2.6400
  293MOL0     H39491   3.740   0.763   3.352 -1.4411  1.0401 -0.0645
  293MOL0     H39492   3.768   0.895   3.567 -1.9523  0.7015  3.8832
  293MOL0     H39493   3.702   0.757   3.653 -3.5736  2.7057 -0.9804
  293MOL0     H39494   3.937   0.779   3.643 -1.2222  2.4425  0.5453
  293MOL0     H39495   3.884   0.617   3.571  0.8681  0.1746  1.0437
  293MOL0     H39496   3.967   0.705   3.342  0.5387 -1.1264  0.6698
  293MOL0     H39497   3.945   0.873   3.393  0.4545 -0.1384 -0.8205
  293MOL0     H39498   4.116   0.881   3.522  1.8741  0.2496 -1.0625
  293MOL0     H39499   4.159   0.708   3.531 -1.9196  0.7431  1.2848
  293MOL0     H39500   4.168   0.739   3.255 -3.3784 -0.0933  1.7502
  293MOL0     H39501   4.188   0.907   3.289  0.3395 -0.3512  0.4899
  293MOL0     H39502   4.371   0.692   3.381  0.4816 -0.4754  0.1996
  293MOL0     H39503   4.401   0.813   3.249  1.2322 -1.3416 -0.4431
  293MOL0     H39504   4.370   0.889   3.554  0.6071 -1.2169  0.2303
  293MOL0     H39505   4.439   0.986   3.423 -3.2905  0.4823  0.5943
  293MOL0     H39506   4.565   0.599   3.467 -0.1406  0.8596 -1.0185
  293MOL0     H39507   4.788   0.507   3.538  0.9753 -0.9569 -0.2937
  293MOL0     H39508   4.873   0.629   3.442 -1.2038  2.0451 -0.2233
  293MOL0     H39509   4.922   0.624   3.750 -1.6692  1.2614 -0.3087
  293MOL0     H39510   5.031   0.675   3.626  1.6428 -3.1517 -2.6581
  293MOL0     H39511   5.026   0.432   3.527  1.2480 -2.4055  0.5361
  293MOL0     H39512   4.983   0.386   3.698 -0.9899  1.0738 -0.2757
  293MOL0     H39513   5.216   0.365   3.658 -2.0862 -0.3413  2.5616
  293MOL0     H39514   5.208   0.486   3.767 -0.3003 -2.5549 -0.1568
  293MOL0     H39515   5.418   0.481   3.762 -1.2999  0.6519  0.9345
  293MOL0     H39516   5.607   0.500   3.898  0.5929 -1.2623 -0.7659
  293MOL0     H39517   5.742   0.466   3.784  0.2617  0.8050 -0.5038
  293MOL0     H39518   5.730   0.628   3.855  0.0619 -0.4663  1.3651
  293MOL0     H39519   6.012   0.623   3.456  1.6481 -1.6377 -0.5535
  293MOL0     H39520   6.243   0.656   3.399 -1.7206  2.0508 -1.2230
  293MOL0     H39521   6.469   0.675   3.374 -1.5876  0.2776 -0.4149
  293MOL0     H39522   6.392   0.833   3.346  2.7444  3.1708 -0.6143
  293MOL0     H39523   6.668   0.785   3.466 -0.4355  1.3742  0.8139
  293MOL0     H39524   6.628   0.833   3.300  0.7258 -2.1940  0.7164
  293MOL0     H39525   6.716   1.021   3.411  1.1454  0.7706  1.2454
  293MOL0     H39526   6.630   0.982   3.554  1.4109 -0.7946 -0.7383
  293MOL0     H39527   6.514   1.069   3.290  1.1300 -1.3309 -0.3809
  293MOL0     H39528   6.417   1.047   3.435 -0.3910  2.4980  0.8519
  293MOL0     H39529   6.632   1.258   3.403  1.0817  0.8860  0.6411
  293MOL0     H39530   6.554   1.216   3.560 -1.9880 -1.5023  0.4731
  293MOL0     H39531   6.470   1.418   3.423  0.7828  0.0405 -0.5339
  293MOL0     H39532   6.407   1.313   3.300 -3.5123  0.5601  0.4356
  293MOL0     H39533   6.330   1.320   3.602  0.5645 -2.7058  0.1011
  293MOL0     H39534   6.269   1.200   3.485  2.9870 -1.5638 -1.8409
  293MOL0     H39535   6.247   1.501   3.452  0.5629 -0.5334  1.2814
  293MOL0     H39536   6.117   1.397   3.528 -1.3169 -1.3995 -1.5127
  293MOL0     H39537   6.308   0.846   3.786 -0.6649 -1.5645  1.6401
  293MOL0     H39538   6.083   0.796   3.843 -1.0999  3.2930  0.1963
  293MOL0     H39539   5.607   0.758   3.392  0.4020 -0.8109 -0.5886
  293MOL0     H39540   5.389   0.679   3.379 -1.5175 -2.6388 -0.0451
  293MOL0     H39541   3.309   0.857   3.509 -1.0915 -0.2648  0.4505
  293MOL0     H39542   3.111   0.700   3.568 -0.3880 -1.3438 -0.3674
  293MOL0     H39543   2.920   0.403   3.725 -0.3264 -0.3067  0.4630
  293MOL0     H39544   2.700   0.380   3.794 -0.6843 -1.8387  0.5856
  293MOL0     H39545   2.388   0.309   3.500  0.3319 -2.2553 -0.9864
  293MOL0     H39546   2.399   0.142   3.527  0.4975 -0.4317 -0.1580
  293MOL0     H39547   2.250   0.331   3.714 -1.6528  0.0637 -1.0515
  293MOL0     H39548   2.277   0.157   3.735 -1.5832 -1.3980 -1.7132
  293MOL0     H39549   2.152   0.108   3.529 -3.1218  1.2841 -4.3143
  293MOL0     H39550   2.132   0.281   3.495 -1.1744 -1.9174 -0.6855
  293MOL0     H39551   2.026   0.318   3.699  1.4023  0.9581 -3.3068
  293MOL0     H39552   2.014   0.145   3.751 -0.7861 -0.7459 -0.7945
  293MOL0     H39553   1.702   0.163   3.467  1.0523  0.3092 -2.4717
  293MOL0     H39554   2.602   0.211   3.413  0.2423  2.2940 -0.3536
  293MOL0     H39555   2.835   0.232   3.345 -0.7513  0.9819 -0.7500
  294MOL0     O39556   0.877   6.001   7.368  0.3486 -0.3194 -0.0290
  294MOL0     C39557   0.897   6.006   7.245  0.0180 -0.5302  0.0486
  294MOL0     O39558   0.977   5.928   7.177 -0.1553 -0.2345 -0.3532
  294MOL0     C39559   1.035   5.816   7.233  0.0611  0.2215  0.0383
  294MOL0     C39560   1.165   5.802   7.202 -0.4660  0.4471  0.7511
  294MOL0     C39561   1.234   5.690   7.238  0.0813 -0.1467  0.2596
  294MOL0     C39562   1.174   5.590   7.312  0.1072 -0.0022 -0.2054
  294MOL0     O39563   1.249   5.483   7.344  0.1378  0.3303 -0.3780
  294MOL0     C39564   1.193   5.353   7.374 -0.5702 -0.0172  1.0388
  294MOL0     C39565   1.306   5.252   7.389 -0.1925  0.5191  0.9538
  294MOL0     C39566   1.275   5.107   7.424 -0.1262 -0.6892 -0.3971
  294MOL0     C39567   1.408   5.020   7.406  1.1236 -0.4835  0.6434
  294MOL0     C39568   1.403   4.893   7.492  1.5410  0.9294  0.1151
  294MOL0     C39569   1.282   4.806   7.465 -0.2666 -1.1888 -0.3448
  294MOL0     C39570   1.293   4.671   7.526  0.2199 -0.0999  0.5416
  294MOL0     C39571   1.165   4.600   7.495 -0.7447 -0.9180  0.2309
  294MOL0     N39572   1.137   4.576   7.348  0.0824 -0.3954 -0.3303
  294MOL0     C39573   1.188   4.478   7.267  0.0414  0.1775 -0.1263
  294MOL0     C39574   1.128   4.502   7.152  0.0388  0.1630  0.3015
  294MOL0     C39575   1.142   4.416   7.027 -0.6252 -0.3737 -0.5258
  294MOL0     C39576   1.027   4.313   7.025  0.2693 -0.1069  0.4781
  294MOL0     C39577   1.028   4.236   6.899  0.2598  0.2468  0.6352
  294MOL0     C39578   0.917   4.133   6.875 -0.6964  0.5410  0.0963
  294MOL0     O39579   0.941   4.017   6.958  0.0298 -0.3950  0.3507
  294MOL0     C39580   0.859   3.913   6.953  0.1866  0.2376  0.1963
  294MOL0     C39581   0.729   3.910   6.911  0.5728 -0.0245  0.0428
  294MOL0     C39582   0.642   3.802   6.928 -0.4383  0.0375  0.7165
  294MOL0     C39583   0.510   3.813   6.866  0.1578  0.0157  1.2123
  294MOL0     C39584   0.693   3.687   6.991  0.4617 -0.7189 -0.0303
  294MOL0     C39585   0.617   3.572   7.033  0.2616 -0.7657  0.7841
  294MOL0     O39586   0.491   3.578   7.071 -0.5607 -0.5707  0.2161
  294MOL0     C39587   0.437   3.452   7.096 -0.1680 -0.4426  0.2535
  294MOL0     C39588   0.413   3.415   7.227 -0.0974 -0.1376 -0.8910
  294MOL0     C39589   0.361   3.288   7.256 -0.0916  0.4232 -0.0165
  294MOL0     C39590   0.327   3.195   7.157 -0.6527 -0.1391 -0.2195
  294MOL0     O39591   0.295   3.063   7.197 -0.4572 -0.3266 -0.3327
  294MOL0     C39592   0.199   2.988   7.123 -0.3346  0.6761  0.2689
  294MOL0     C39593   0.258   2.865   7.045 -0.5035 -0.7624 -0.9212
  294MOL0     C39594   0.311   2.756   7.149 -0.1595  0.7724  0.3956
  294MOL0     C39595   0.456   2.784   7.165  0.4085 -0.3957 -0.2885
  294MOL0     C39596   0.517   2.669   7.239  0.7433 -0.2071  0.3094
  294MOL0     C39597   0.435   2.640   7.373 -0.3054  0.0350 -0.7192
  294MOL0     C39598   0.506   2.533   7.463 -0.9881  0.2254  0.1727
  294MOL0     C39599   0.415   2.491   7.578 -0.4431 -0.2050 -0.6047
  294MOL0    Cl39600   0.473   2.351   7.683  0.0692  0.0205  0.5217
  294MOL0     C39601   0.346   3.227   7.026  0.6177 -0.6797  1.2986
  294MOL0     C39602   0.404   3.360   7.000 -0.4280 -0.0907  0.5378
  294MOL0     O39603   0.684   3.469   7.040  0.4178 -0.5150  0.1026
  294MOL0     C39604   0.832   3.681   7.010 -0.0678 -0.1602  0.1112
  294MOL0     C39605   0.915   3.796   6.996 -0.2367  0.8747 -0.4381
  294MOL0     N39606   1.033   4.603   7.164 -0.7258  0.1257  0.9387
  294MOL0     N39607   1.045   4.653   7.283  0.2070 -0.0231 -0.1735
  294MOL0     C39608   1.039   5.597   7.341  0.6111 -0.1037 -0.1655
  294MOL0     C39609   0.967   5.718   7.306 -0.6996  0.5991 -0.0079
  294MOL0     C39610   0.822   6.098   7.159  0.1701 -0.0044  0.6837
  294MOL0     C39611   0.850   6.111   7.023  0.4997 -0.4322 -0.1056
  294MOL0     C39612   0.779   6.210   6.945 -0.1167 -0.0615 -0.8504
  294MOL0     C39613   0.670   6.286   6.998  0.0927  0.1385  0.3102
  294MOL0     O39614   0.598   6.358   6.911  0.2224 -0.0352 -0.3201
  294MOL0     C39615   0.453   6.327   6.910  0.1278 -0.2303 -0.2926
  294MOL0     C39616   0.392   6.386   6.782  0.7217  0.2519 -0.4553
  294MOL0     C39617   0.370   6.540   6.795 -0.8692 -0.1554 -0.1728
  294MOL0     C39618   0.500   6.624   6.792  0.0364 -0.0023 -0.5514
  294MOL0     C39619   0.472   6.762   6.823  0.2561 -0.3416  0.4190
  294MOL0     C39620   0.438   6.875   6.855  0.8163 -0.1013 -0.4183
  294MOL0     C39621   0.632   6.272   7.131 -0.5224  0.9657  0.1622
  294MOL0     C39622   0.715   6.181   7.206 -0.1201  0.3694 -0.3725
  294MOL0     H39623   1.214   5.887   7.156  0.2607 -0.2196  0.2451
  294MOL0     H39624   1.336   5.695   7.201 -0.4274  1.4958 -1.0225
  294MOL0     H39625   1.134   5.345   7.466 -0.5916 -0.7502  0.9685
  294MOL0     H39626   1.133   5.311   7.293  3.1357 -3.6774 -0.1634
  294MOL0     H39627   1.365   5.268   7.298 -1.1752 -1.6105 -0.1433
  294MOL0     H39628   1.373   5.279   7.471 -0.7738 -1.3602  2.1284
  294MOL0     H39629   1.245   5.102   7.529  2.4178 -1.0370  0.3938
  294MOL0     H39630   1.196   5.071   7.358 -0.4441  2.6820 -2.0694
  294MOL0     H39631   1.412   4.988   7.301 -1.4168 -2.9015  1.1354
  294MOL0     H39632   1.495   5.078   7.438 -0.6740  1.3810  2.5025
  294MOL0     H39633   1.503   4.848   7.481  2.4127  2.3533  1.7055
  294MOL0     H39634   1.401   4.923   7.597 -1.2214  1.5382 -0.0628
  294MOL0     H39635   1.192   4.856   7.502  0.8487  1.4502 -0.9766
  294MOL0     H39636   1.276   4.794   7.357 -0.1216  0.1127 -0.5041
  294MOL0     H39637   1.386   4.631   7.482  2.6774  1.5564  3.8311
  294MOL0     H39638   1.296   4.674   7.635 -0.5580  0.6450  0.5459
  294MOL0     H39639   1.086   4.666   7.531 -2.4662 -2.1456 -1.1626
  294MOL0     H39640   1.152   4.500   7.538 -0.5500 -2.0561 -2.2007
  294MOL0     H39641   1.264   4.401   7.275 -1.5045 -1.4452 -0.4616
  294MOL0     H39642   1.123   4.479   6.940 -1.2424  3.3260  2.0408
  294MOL0     H39643   1.244   4.378   7.022 -0.4604  0.2043 -2.1061
  294MOL0     H39644   0.933   4.361   7.052 -0.9482 -0.5093 -2.7473
  294MOL0     H39645   1.046   4.246   7.109 -1.2949  1.3855  2.1149
  294MOL0     H39646   1.125   4.184   6.897  0.1406  0.0391 -0.2402
  294MOL0     H39647   1.020   4.301   6.812  3.6174 -0.6853 -0.5247
  294MOL0     H39648   0.945   4.111   6.772  1.0399 -1.5641  0.9412
  294MOL0     H39649   0.817   4.177   6.886 -0.5019  1.2684 -0.9209
  294MOL0     H39650   0.687   3.998   6.864  1.6008 -1.0494 -3.1009
  294MOL0     H39651   0.425   3.817   6.936  0.9186 -0.4105  2.1755
  294MOL0     H39652   0.508   3.900   6.799  2.2241 -0.3441  0.6366
  294MOL0     H39653   0.489   3.729   6.799  0.0346  2.4929 -2.1158
  294MOL0     H39654   0.451   3.486   7.299  3.8956 -0.3344 -2.5437
  294MOL0     H39655   0.348   3.266   7.362  1.5549 -0.8719 -0.0399
  294MOL0     H39656   0.125   2.947   7.192 -2.3462  0.6134 -1.8118
  294MOL0     H39657   0.144   3.041   7.046  0.6462  0.9469 -0.2614
  294MOL0     H39658   0.178   2.830   6.979  1.4644 -2.0169 -2.7775
  294MOL0     H39659   0.337   2.882   6.971 -3.1088  0.5079 -3.6242
  294MOL0     H39660   0.318   2.658   7.101  0.6713 -0.5763  3.0681
  294MOL0     H39661   0.256   2.771   7.243 -0.7736 -1.2525  0.4047
  294MOL0     H39662   0.512   2.784   7.071  1.2706  0.4134  0.2064
  294MOL0     H39663   0.475   2.877   7.220  1.5365  0.1084 -1.4833
  294MOL0     H39664   0.618   2.693   7.271  0.0403  0.3950  2.2463
  294MOL0     H39665   0.509   2.582   7.173  0.1081  0.2363 -0.2127
  294MOL0     H39666   0.421   2.731   7.431  0.4732  1.2386 -2.3482
  294MOL0     H39667   0.336   2.601   7.349 -1.1004  0.7105  1.2276
  294MOL0     H39668   0.604   2.575   7.487  0.3220 -0.4641 -3.3561
  294MOL0     H39669   0.523   2.441   7.407 -1.6195 -1.7854  3.0547
  294MOL0     H39670   0.309   2.481   7.551 -1.9436  0.1200  4.0910
  294MOL0     H39671   0.417   2.569   7.656 -2.2530 -0.0431 -0.6582
  294MOL0     H39672   0.323   3.161   6.943  0.6994  1.4018 -0.4639
  294MOL0     H39673   0.437   3.386   6.900 -2.2617  0.9947  0.1628
  294MOL0     H39674   0.882   3.593   7.050 -1.7491 -1.3442 -0.2906
  294MOL0     H39675   1.018   3.793   7.031 -0.8871  0.5799  1.5971
  294MOL0     H39676   0.989   5.513   7.386 -2.2296  0.0866 -2.6797
  294MOL0     H39677   0.859   5.715   7.322 -1.2125  0.6757 -2.9120
  294MOL0     H39678   0.936   6.057   6.986  0.0801 -0.4315 -1.0949
  294MOL0     H39679   0.804   6.230   6.841  2.6535 -0.0375 -0.2603
  294MOL0     H39680   0.445   6.218   6.918  2.0131 -0.2697  2.0029
  294MOL0     H39681   0.400   6.369   6.996 -0.4186  0.7279 -1.0649
  294MOL0     H39682   0.296   6.337   6.766 -0.5804  2.0331  1.3125
  294MOL0     H39683   0.448   6.360   6.692  0.0669  0.8098 -1.0373
  294MOL0     H39684   0.306   6.577   6.876  1.2013  0.9724  1.0391
  294MOL0     H39685   0.307   6.559   6.707  0.3053 -0.8882 -1.2060
  294MOL0     H39686   0.552   6.624   6.695  0.8970 -0.0907 -0.0966
  294MOL0     H39687   0.561   6.585   6.874 -0.7861  0.1785  0.1461
  294MOL0     H39688   0.414   6.962   6.913 -0.3116 -0.6362 -0.0458
  294MOL0     H39689   0.564   6.342   7.177 -0.8291  1.0965 -0.4847
  294MOL0     H39690   0.683   6.165   7.308  1.1520  1.4300  0.2375
  295MOL0     O39691   4.076  10.481   6.312  0.4695  0.3625  1.0230
  295MOL0     C39692   4.164  10.410   6.268  0.9283 -0.1144 -0.9657
  295MOL0     O39693   4.144  10.293   6.188 -0.4513 -0.4734 -0.5082
  295MOL0     C39694   4.021  10.242   6.141  0.8256 -1.2174 -0.9499
  295MOL0     C39695   3.894  10.273   6.198  0.3076 -0.3978  0.2987
  295MOL0     C39696   3.778  10.237   6.129 -0.0642 -0.9931 -0.5633
  295MOL0     C39697   3.782  10.147   6.023 -1.0130 -0.9557 -0.0457
  295MOL0     O39698   3.669  10.100   5.951 -0.7659  0.2716  0.0664
  295MOL0     C39699   3.534  10.138   5.992  0.4833 -0.1229 -0.2385
  295MOL0     C39700   3.446  10.024   5.950  0.2698  0.2012  0.5092
  295MOL0     C39701   3.306  10.024   6.012 -0.4036 -0.0471 -0.0026
  295MOL0     C39702   3.230   9.898   5.959 -0.7061  0.4243 -0.7151
  295MOL0     C39703   3.104   9.886   6.039  0.6026 -0.2826 -0.2606
  295MOL0     C39704   3.034   9.756   6.003 -0.5897  0.0311 -1.0693
  295MOL0     C39705   2.920   9.731   6.099  0.0760 -0.1920  0.1092
  295MOL0     C39706   2.800   9.816   6.074  0.2625  0.4106 -0.7612
  295MOL0     N39707   2.694   9.781   6.172 -0.0949  0.3088 -0.3623
  295MOL0     C39708   2.664   9.845   6.293  0.1769 -0.6693  0.4769
  295MOL0     C39709   2.551   9.785   6.338 -1.2551  0.7263 -0.2005
  295MOL0     C39710   2.478   9.818   6.467 -1.4712 -0.3753 -1.1266
  295MOL0     C39711   2.422   9.678   6.504  0.3302  0.0951 -0.0284
  295MOL0     C39712   2.372   9.678   6.648 -0.7916  0.5533 -0.3137
  295MOL0     C39713   2.316   9.543   6.691  0.4830 -1.0694 -0.4422
  295MOL0     O39714   2.310   9.545   6.842 -0.2275  0.3088  0.0841
  295MOL0     C39715   2.187   9.527   6.892  0.1378  0.6067 -0.9156
  295MOL0     C39716   2.065   9.571   6.849  0.1372  0.3761 -0.6487
  295MOL0     C39717   1.934   9.531   6.890 -0.4249 -0.1978  0.6874
  295MOL0     C39718   1.818   9.612   6.838  0.4597 -0.0796 -0.0969
  295MOL0     C39719   1.927   9.435   6.990 -0.0300 -0.4993  0.2498
  295MOL0     C39720   1.805   9.360   7.036 -0.0869  0.9858 -0.2472
  295MOL0     O39721   1.703   9.358   6.957 -0.4416 -0.1357 -0.1546
  295MOL0     C39722   1.581   9.348   7.021 -0.2367  0.7155 -0.0027
  295MOL0     C39723   1.545   9.402   7.144  0.3887  0.3147 -0.5331
  295MOL0     C39724   1.415   9.393   7.191 -0.2593 -0.1045 -0.6196
  295MOL0     C39725   1.313   9.326   7.122 -0.6266 -0.3010 -0.0983
  295MOL0     O39726   1.180   9.311   7.142 -0.4632  0.2188  0.3905
  295MOL0     C39727   1.126   9.324   7.275  1.6923 -0.3520  0.3950
  295MOL0     C39728   0.966   9.340   7.263 -0.1430 -0.9683  0.1527
  295MOL0     C39729   0.893   9.346   7.397 -0.0695 -0.2607  0.3113
  295MOL0     C39730   0.894   9.206   7.459 -0.6113  0.3507 -0.4197
  295MOL0     C39731   0.879   9.223   7.613  0.2804 -0.1625  0.4997
  295MOL0     C39732   0.818   9.106   7.690 -0.8476  0.6161 -0.2266
  295MOL0     C39733   0.671   9.078   7.660  0.0162 -0.1502 -0.0664
  295MOL0     C39734   0.633   8.951   7.724  0.2481  0.7228 -0.8581
  295MOL0    Cl39735   0.461   8.920   7.698 -0.5508 -0.3547  0.1844
  295MOL0     C39736   1.355   9.261   7.013 -0.2263 -0.4998  0.8250
  295MOL0     C39737   1.485   9.268   6.965  0.3408  0.0722  0.0300
  295MOL0     O39738   1.819   9.284   7.134 -0.6147  0.2730 -0.8066
  295MOL0     C39739   2.052   9.383   7.035 -0.3843  0.1941  0.3587
  295MOL0     C39740   2.177   9.429   6.994  0.5590 -0.8117 -0.5049
  295MOL0     N39741   2.513   9.697   6.241 -0.1452  0.0338  0.3565
  295MOL0     N39742   2.598   9.690   6.146 -0.5862  0.2520 -0.2405
  295MOL0     C39743   3.908  10.104   5.984  0.1129 -0.0435 -0.6982
  295MOL0     C39744   4.024  10.148   6.041 -0.3588  0.9748 -0.4827
  295MOL0     C39745   4.306  10.457   6.279  0.6768 -0.2750  0.4636
  295MOL0     C39746   4.329  10.582   6.345  0.3716  0.5758 -0.1558
  295MOL0     C39747   4.459  10.634   6.359  0.2816  0.3730 -0.3434
  295MOL0     C39748   4.569  10.562   6.315 -0.2747  1.2088 -0.3409
  295MOL0     O39749   4.702  10.591   6.340 -0.7243 -0.7521  0.3994
  295MOL0     C39750   4.728  10.717   6.405 -0.4126  0.2480  0.0886
  295MOL0     C39751   4.873  10.728   6.455  0.0079  0.2491  0.8033
  295MOL0     C39752   4.907  10.611   6.549  1.2199 -0.1811  0.6806
  295MOL0     C39753   5.028  10.621   6.641 -0.0017 -0.0042  0.5105
  295MOL0     C39754   5.166  10.608   6.583 -1.2824  0.2449 -0.4100
  295MOL0     C39755   5.272  10.585   6.527  0.3423  0.1755 -0.1392
  295MOL0     C39756   4.548  10.439   6.253  0.2714  0.5810  0.0970
  295MOL0     C39757   4.422  10.392   6.224 -0.0034  0.4575 -0.1509
  295MOL0     H39758   3.887  10.342   6.281  5.2582  1.1553 -0.2278
  295MOL0     H39759   3.684  10.268   6.174 -0.2238 -0.2843 -1.3731
  295MOL0     H39760   3.526  10.143   6.101 -1.7185  2.3525 -0.4039
  295MOL0     H39761   3.512  10.234   5.945 -1.4243 -0.8570 -0.9544
  295MOL0     H39762   3.443  10.029   5.841 -0.0628  1.7880  0.5699
  295MOL0     H39763   3.496   9.928   5.968  2.7925  1.3175 -0.1203
  295MOL0     H39764   3.313  10.020   6.121  1.3856  2.7234  0.0817
  295MOL0     H39765   3.254  10.115   5.983 -0.9432 -0.1413  0.6494
  295MOL0     H39766   3.205   9.920   5.854 -2.8368  0.3786 -0.2732
  295MOL0     H39767   3.298   9.813   5.964 -1.2739 -0.0932 -1.5749
  295MOL0     H39768   3.131   9.882   6.145  1.0360 -3.5825 -0.4107
  295MOL0     H39769   3.036   9.972   6.034 -0.4738 -1.1436 -0.6689
  295MOL0     H39770   3.005   9.764   5.897 -1.4122  0.1707 -0.8368
  295MOL0     H39771   3.106   9.674   6.012  1.9618  2.1211 -1.2702
  295MOL0     H39772   2.898   9.628   6.071  0.1995  0.2863 -1.8817
  295MOL0     H39773   2.957   9.734   6.202  1.2592 -0.6283 -0.2919
  295MOL0     H39774   2.765   9.797   5.972 -2.0309  2.0415 -0.3657
  295MOL0     H39775   2.828   9.922   6.068  0.7696  0.2035 -3.1853
  295MOL0     H39776   2.712   9.927   6.345  1.3795 -0.1325 -1.4060
  295MOL0     H39777   2.544   9.868   6.539 -4.1937  2.1884 -0.2089
  295MOL0     H39778   2.389   9.882   6.460 -1.8631 -0.6233  0.8479
  295MOL0     H39779   2.497   9.599   6.487 -1.4038 -0.9277 -4.3770
  295MOL0     H39780   2.340   9.654   6.436  0.6509 -1.6142  0.1415
  295MOL0     H39781   2.292   9.751   6.660 -0.0250  1.4624 -0.5697
  295MOL0     H39782   2.453   9.710   6.715  0.2142 -1.2605 -0.6040
  295MOL0     H39783   2.383   9.464   6.658  2.8193 -0.3337  2.1136
  295MOL0     H39784   2.219   9.527   6.643 -2.0179  1.6435  3.0558
  295MOL0     H39785   2.078   9.647   6.773 -1.1016  0.3848 -0.8644
  295MOL0     H39786   1.864   9.693   6.781  3.4550 -1.5575  0.0214
  295MOL0     H39787   1.739   9.562   6.781 -2.5301  0.9738  2.8052
  295MOL0     H39788   1.753   9.663   6.911 -1.3527 -3.5549  0.9379
  295MOL0     H39789   1.622   9.470   7.180  1.5348 -0.7853 -0.8327
  295MOL0     H39790   1.378   9.444   7.280 -2.3240  1.7050 -2.3780
  295MOL0     H39791   1.144   9.231   7.330  0.5010 -0.6527  0.2878
  295MOL0     H39792   1.167   9.413   7.325  1.1784  0.4425 -0.5546
  295MOL0     H39793   0.959   9.437   7.213  0.4103  0.3422  2.4988
  295MOL0     H39794   0.929   9.259   7.199 -0.4282  1.0186 -2.3514
  295MOL0     H39795   0.788   9.373   7.386 -0.7600 -2.7260  0.0716
  295MOL0     H39796   0.950   9.404   7.470 -0.7754 -0.4674  1.0386
  295MOL0     H39797   0.819   9.142   7.411  1.2701 -2.4207  0.0982
  295MOL0     H39798   0.991   9.158   7.442 -0.0853  1.8252 -1.8304
  295MOL0     H39799   0.818   9.312   7.630  0.5862  0.1601 -0.0487
  295MOL0     H39800   0.980   9.245   7.650  0.8079  2.7540 -2.2248
  295MOL0     H39801   0.867   9.015   7.656 -5.4756 -1.3266 -2.6228
  295MOL0     H39802   0.828   9.131   7.796  1.5346 -0.0402 -0.2382
  295MOL0     H39803   0.660   9.067   7.552 -4.0355  0.9452  0.0503
  295MOL0     H39804   0.602   9.161   7.680  0.8655  0.5838 -0.1249
  295MOL0     H39805   0.638   8.958   7.833 -1.7273 -2.5935 -0.3862
  295MOL0     H39806   0.702   8.869   7.699 -0.0975  0.4262 -0.8644
  295MOL0     H39807   1.288   9.204   6.950  0.3736  0.8945 -1.1655
  295MOL0     H39808   1.506   9.210   6.876 -0.3574 -1.0215  0.5543
  295MOL0     H39809   2.066   9.296   7.100  0.6023 -2.2330 -2.8366
  295MOL0     H39810   2.267   9.378   7.030  0.2932  0.7434  2.7116
  295MOL0     H39811   3.924  10.021   5.916  1.0351  0.0171 -0.5638
  295MOL0     H39812   4.115  10.100   6.007 -0.9305  1.4383 -2.8645
  295MOL0     H39813   4.245  10.632   6.393  1.8406  1.8511  1.2006
  295MOL0     H39814   4.474  10.734   6.399 -0.1000  0.8435 -1.3426
  295MOL0     H39815   4.693  10.800   6.344 -1.1018 -1.3302 -1.7344
  295MOL0     H39816   4.669  10.718   6.497 -0.0808  0.6559  0.3045
  295MOL0     H39817   4.883  10.822   6.510 -0.2160  0.6033  0.2511
  295MOL0     H39818   4.940  10.740   6.369 -0.4338  1.3919  0.5980
  295MOL0     H39819   4.935  10.531   6.480 -1.1864 -1.8284  1.5051
  295MOL0     H39820   4.817  10.592   6.608  0.9482  0.3068  0.4291
  295MOL0     H39821   5.015  10.536   6.708 -0.4345  0.7173  1.3653
  295MOL0     H39822   5.023  10.706   6.709 -0.8533 -1.1518  1.9527
  295MOL0     H39823   5.357  10.563   6.466  0.5668 -0.7163  0.4697
  295MOL0     H39824   4.637  10.390   6.215  1.2062  0.8619  1.8194
  295MOL0     H39825   4.408  10.296   6.174 -0.9742  0.7361 -0.4420
  296MOL0     O39826   9.959   7.246   9.900 -0.5224  0.4270 -0.4492
  296MOL0     C39827   9.966   7.235  10.025  0.5878  0.3691 -0.4033
  296MOL0     O39828   9.863   7.258  10.109  0.5627 -0.6928  0.2809
  296MOL0     C39829   9.726   7.287  10.084 -0.8247 -0.4791  0.7709
  296MOL0     C39830   9.660   7.299   9.959  0.1595 -0.6033 -0.1870
  296MOL0     C39831   9.523   7.329   9.938 -0.6311 -0.7623 -0.3880
  296MOL0     C39832   9.449   7.361  10.050  0.5183  0.6432 -0.4223
  296MOL0     O39833   9.316   7.376  10.030  0.4574 -0.3032 -0.4851
  296MOL0     C39834   9.230   7.410  10.143 -0.0678 -0.1030 -0.9098
  296MOL0     C39835   9.087   7.414  10.105  0.0256  0.3871 -0.1273
  296MOL0     C39836   9.035   7.298  10.009 -0.4300  1.0233  0.5452
  296MOL0     C39837   8.894   7.299   9.970  0.3159 -0.1533  0.2421
  296MOL0     C39838   8.848   7.153   9.920 -0.0047  0.2824  0.1429
  296MOL0     C39839   8.812   7.055  10.039 -0.5353  0.4981 -1.3702
  296MOL0     C39840   8.786   6.911   9.991 -0.1664 -1.0063  0.1484
  296MOL0     C39841   8.706   6.827  10.095  0.1404 -0.3825  0.1411
  296MOL0     N39842   8.574   6.796  10.041 -0.4898  0.5038 -0.2391
  296MOL0     C39843   8.497   6.889   9.972  0.1478 -0.0284  1.5394
  296MOL0     C39844   8.402   6.818   9.906  1.2541 -0.0305  1.0093
  296MOL0     C39845   8.273   6.858   9.835  0.3745  0.1066  0.1018
  296MOL0     C39846   8.162   6.843   9.927  0.1628  0.8317 -0.2716
  296MOL0     C39847   8.082   6.713   9.893  0.2194  0.0056 -0.2688
  296MOL0     C39848   8.002   6.733   9.768 -0.2263  0.3764 -0.1371
  296MOL0     O39849   7.928   6.613   9.740 -0.6571  0.2691  0.3692
  296MOL0     C39850   7.791   6.615   9.780 -0.7158  0.6872 -1.1264
  296MOL0     C39851   7.709   6.516   9.724 -0.1197  1.3134  0.3413
  296MOL0     C39852   7.573   6.506   9.769 -1.0734  0.3956  0.5629
  296MOL0     C39853   7.507   6.385   9.704 -0.4702 -0.9401  0.6245
  296MOL0     C39854   7.518   6.599   9.858  0.0807 -0.2797 -0.3549
  296MOL0     C39855   7.379   6.609   9.896  0.3573  0.0826  0.0307
  296MOL0     O39856   7.308   6.494   9.893  0.4097  0.4086  0.4224
  296MOL0     C39857   7.188   6.467   9.958  0.4402 -0.0819  0.5568
  296MOL0     C39858   7.167   6.512  10.087 -0.2322  0.1035 -0.5386
  296MOL0     C39859   7.057   6.464  10.163 -1.0054  0.3911  0.0728
  296MOL0     C39860   6.967   6.368  10.113 -0.3485 -0.6848 -0.1634
  296MOL0     O39861   6.870   6.310  10.188 -0.7723  0.0307  0.0071
  296MOL0     C39862   6.925   6.225  10.288  0.2541  0.0706 -0.4193
  296MOL0     C39863   6.825   6.205  10.401  0.4430  0.7227 -0.2903
  296MOL0     C39864   6.701   6.122  10.362  0.2932 -0.1863 -0.1058
  296MOL0     C39865   6.615   6.199  10.259  0.4361  0.1543  0.4420
  296MOL0     C39866   6.486   6.123  10.223 -0.1115  0.6416  0.1678
  296MOL0     C39867   6.418   6.188  10.102  0.2632 -0.0613 -0.2000
  296MOL0     C39868   6.315   6.089  10.041 -0.4813  0.2602 -0.1489
  296MOL0     C39869   6.225   6.149   9.942  0.9244  0.5527  0.6927
  296MOL0    Cl39870   6.176   6.016   9.848  0.2024  0.1932  0.0266
  296MOL0     C39871   6.991   6.327   9.979 -0.2577  0.0658 -0.3544
  296MOL0     C39872   7.099   6.384   9.897 -0.3371 -0.1158  0.1866
  296MOL0     O39873   7.339   6.723   9.928 -0.0014 -0.2878  0.4681
  296MOL0     C39874   7.609   6.687   9.919 -0.1148  0.5517 -0.3666
  296MOL0     C39875   7.745   6.702   9.881  0.0601  0.2775 -0.3653
  296MOL0     N39876   8.426   6.682   9.922 -0.7202 -0.3365  0.1171
  296MOL0     N39877   8.533   6.672   9.992 -1.0907  0.3042 -0.0380
  296MOL0     C39878   9.509   7.373  10.172 -0.9160  0.2527 -0.4685
  296MOL0     C39879   9.641   7.334  10.191 -0.6301  0.2209  0.5037
  296MOL0     C39880  10.105   7.219  10.083 -0.7389 -0.1409  0.4277
  296MOL0     C39881  10.215   7.186   9.998  0.0129 -0.3520  0.9475
  296MOL0     C39882  10.346   7.172  10.047 -0.0584 -0.2348  0.5560
  296MOL0     C39883  10.379   7.205  10.174 -0.3579 -0.0191  0.7558
  296MOL0     O39884  10.499   7.194  10.243 -0.0148 -0.4494 -0.6095
  296MOL0     C39885  10.622   7.143  10.179  0.0673 -0.1654  0.0148
  296MOL0     C39886  10.719   7.089  10.280 -0.6891 -0.1217 -0.9294
  296MOL0     C39887  10.857   7.067  10.217  0.4715  0.0079 -0.0865
  296MOL0     C39888  10.969   7.046  10.321 -0.1901  0.3273  0.2250
  296MOL0     C39889  11.106   7.051  10.266  0.4966 -0.2956  0.6496
  296MOL0     C39890  11.223   7.037  10.229 -0.2370 -0.3548  0.1157
  296MOL0     C39891  10.278   7.239  10.253  0.6491 -0.0567 -0.3339
  296MOL0     C39892  10.140   7.248  10.215 -0.0173  0.0264  0.4134
  296MOL0     H39893   9.713   7.283   9.866 -1.9592 -1.1327 -1.3506
  296MOL0     H39894   9.481   7.328   9.838 -1.1854 -0.7183 -0.1602
  296MOL0     H39895   9.256   7.348  10.229  0.1466  2.2437  0.7998
  296MOL0     H39896   9.254   7.512  10.173  0.1396  0.4821 -2.8670
  296MOL0     H39897   9.030   7.408  10.198  1.0446 -1.0905  0.4396
  296MOL0     H39898   9.065   7.509  10.054  0.9365  1.5262  1.4846
  296MOL0     H39899   9.094   7.293   9.917 -0.8633  1.6923  0.2213
  296MOL0     H39900   9.058   7.215  10.076 -0.3893  1.1300  0.6631
  296MOL0     H39901   8.827   7.336  10.048 -0.0059  0.2063 -0.1967
  296MOL0     H39902   8.888   7.371   9.888  1.3034  0.7306  0.9155
  296MOL0     H39903   8.767   7.158   9.847 -1.1364 -3.7839  0.8182
  296MOL0     H39904   8.936   7.121   9.865  1.4748  1.1588  1.8934
  296MOL0     H39905   8.888   7.058  10.117 -2.2622 -2.6917  0.6663
  296MOL0     H39906   8.721   7.098  10.082 -0.7854  0.2700 -1.6750
  296MOL0     H39907   8.735   6.918   9.895 -0.0428  0.5012  0.1750
  296MOL0     H39908   8.874   6.853   9.964 -0.2313  0.3510 -3.4584
  296MOL0     H39909   8.679   6.876  10.189 -2.0728 -2.4642  0.7245
  296MOL0     H39910   8.758   6.741  10.138 -3.0583 -1.8800  1.3703
  296MOL0     H39911   8.514   6.996   9.970  1.7924 -0.2669 -0.4209
  296MOL0     H39912   8.273   6.963   9.803  1.9032  0.9172  2.4946
  296MOL0     H39913   8.261   6.804   9.741  3.5918  0.4443 -0.6304
  296MOL0     H39914   8.097   6.931   9.920 -0.1489  0.6039 -0.2585
  296MOL0     H39915   8.199   6.834  10.030  1.2737  1.3797 -0.6096
  296MOL0     H39916   8.014   6.675   9.970 -0.3681 -2.9315 -2.0903
  296MOL0     H39917   8.153   6.630   9.887 -1.5235 -1.6883  1.1352
  296MOL0     H39918   8.061   6.762   9.681 -1.1719  1.3569 -0.4746
  296MOL0     H39919   7.929   6.814   9.780 -1.6071 -0.7094 -0.9457
  296MOL0     H39920   7.756   6.439   9.664  2.3142  1.0011  2.4834
  296MOL0     H39921   7.565   6.342   9.622 -2.4683  0.7702 -1.8823
  296MOL0     H39922   7.487   6.304   9.774 -0.2728  0.0351  1.8526
  296MOL0     H39923   7.418   6.425   9.654  0.6116  2.1082  0.9254
  296MOL0     H39924   7.241   6.574  10.136  1.3437 -2.0982  0.0272
  296MOL0     H39925   7.044   6.489  10.268  0.3026 -0.7832  0.5344
  296MOL0     H39926   6.941   6.127  10.242  1.0303 -0.7310  1.4397
  296MOL0     H39927   7.021   6.260  10.327  0.4655  0.2609 -1.0898
  296MOL0     H39928   6.871   6.136  10.473  1.8368 -0.7207 -2.4172
  296MOL0     H39929   6.796   6.299  10.449 -0.6792  0.6400 -0.7664
  296MOL0     H39930   6.639   6.098  10.448 -1.4587  0.7012 -1.0649
  296MOL0     H39931   6.736   6.029  10.316 -0.7157 -1.4693  1.6222
  296MOL0     H39932   6.583   6.301  10.283  0.3841  0.4484 -0.8051
  296MOL0     H39933   6.673   6.200  10.167  2.2251  1.1914  1.5279
  296MOL0     H39934   6.415   6.109  10.305 -0.1839 -0.0862 -0.0102
  296MOL0     H39935   6.521   6.026  10.184 -2.2671 -0.6219  1.1995
  296MOL0     H39936   6.356   6.274  10.129 -1.6493 -0.7725 -2.0464
  296MOL0     H39937   6.489   6.212  10.022 -0.6506  2.7548 -0.2716
  296MOL0     H39938   6.256   6.060  10.129  2.0887 -0.6831  1.3635
  296MOL0     H39939   6.367   5.998  10.012  1.2676  0.1292  2.9075
  296MOL0     H39940   6.283   6.224   9.887 -0.7430  1.9477  0.7411
  296MOL0     H39941   6.132   6.189   9.984 -0.8704 -1.2854 -1.2623
  296MOL0     H39942   6.935   6.243   9.940 -2.0328 -0.4741  2.9984
  296MOL0     H39943   7.118   6.350   9.795  2.7503  0.5188  0.4397
  296MOL0     H39944   7.570   6.767   9.982 -0.9470 -0.5207  0.5128
  296MOL0     H39945   7.804   6.783   9.922 -2.3258  2.3107 -0.7524
  296MOL0     H39946   9.463   7.422  10.258  0.6340  1.6922 -0.4091
  296MOL0     H39947   9.689   7.345  10.289 -1.1074 -1.1340  0.9096
  296MOL0     H39948  10.210   7.162   9.893  1.7147 -1.9667  1.1807
  296MOL0     H39949  10.420   7.137   9.976  0.9619  0.2405  1.3572
  296MOL0     H39950  10.576   7.065  10.117 -0.6347  0.8626 -0.7949
  296MOL0     H39951  10.660   7.217  10.108 -0.2829  1.8653  1.8438
  296MOL0     H39952  10.682   6.996  10.324 -2.5202 -0.3958 -2.9183
  296MOL0     H39953  10.728   7.164  10.359  0.3435 -2.5634  1.4536
  296MOL0     H39954  10.881   7.161  10.167 -2.4753  1.0626  0.2183
  296MOL0     H39955  10.864   6.986  10.145  3.7793 -0.4026  0.5660
  296MOL0     H39956  10.977   6.940  10.349 -1.6759 -0.2419 -1.3100
  296MOL0     H39957  10.964   7.119  10.403  1.5744  0.8081 -0.0397
  296MOL0     H39958  11.321   7.014  10.192 -0.2069  0.1471 -0.1266
  296MOL0     H39959  10.296   7.267  10.356 -4.0047 -2.1416  1.3095
  296MOL0     H39960  10.072   7.289  10.289 -2.4339 -1.5164 -0.8335
  297MOL0     O39961   3.499   4.630   5.185 -0.7332  0.1556 -0.3247
  297MOL0     C39962   3.584   4.584   5.110 -0.3281  0.5683  0.7637
  297MOL0     O39963   3.560   4.505   4.998  0.1430 -0.8173  0.6428
  297MOL0     C39964   3.436   4.491   4.944 -0.1642 -0.6059  0.6296
  297MOL0     C39965   3.408   4.514   4.805 -0.0779  0.9271  0.1845
  297MOL0     C39966   3.275   4.501   4.767 -0.0358  0.1801 -0.6447
  297MOL0     C39967   3.173   4.467   4.855  0.8367  0.1230 -0.2394
  297MOL0     O39968   3.045   4.480   4.808 -0.9161 -0.1491  0.7927
  297MOL0     C39969   2.940   4.386   4.841  0.4072  0.1635  0.1436
  297MOL0     C39970   2.962   4.243   4.782  0.3758  0.2841 -0.5947
  297MOL0     C39971   2.995   4.252   4.635  0.2539  0.6115  0.5830
  297MOL0     C39972   3.137   4.191   4.606  0.8188  0.1992 -0.4046
  297MOL0     C39973   3.191   4.257   4.478  0.3706  0.0999  0.8639
  297MOL0     C39974   3.337   4.237   4.479 -0.5708  0.3410 -0.9646
  297MOL0     C39975   3.404   4.317   4.365  0.6375  0.8383  0.2086
  297MOL0     C39976   3.555   4.334   4.400  0.8316 -0.5012  0.1270
  297MOL0     N39977   3.625   4.371   4.275 -0.0033 -0.0497  0.1246
  297MOL0     C39978   3.594   4.471   4.184 -0.6108 -1.5099 -0.4309
  297MOL0     C39979   3.670   4.451   4.072  0.3298  0.0494 -0.1766
  297MOL0     C39980   3.658   4.515   3.941  0.9581 -0.4244  0.1873
  297MOL0     C39981   3.768   4.485   3.840  0.3806  0.2848  0.5996
  297MOL0     C39982   3.752   4.348   3.767 -0.4400  0.5551  0.4442
  297MOL0     C39983   3.834   4.320   3.638  0.0153  0.1174  0.1727
  297MOL0     O39984   3.839   4.176   3.617  0.0612 -0.6294 -0.0206
  297MOL0     C39985   3.729   4.116   3.561  0.0646 -0.2703  0.5110
  297MOL0     C39986   3.719   3.975   3.559 -0.5285 -0.2832  0.4171
  297MOL0     C39987   3.613   3.901   3.508  0.1053  0.0999 -0.0801
  297MOL0     C39988   3.617   3.751   3.507  0.0750  0.7771  0.1505
  297MOL0     C39989   3.498   3.979   3.459 -0.1262  0.9271 -0.0931
  297MOL0     C39990   3.376   3.914   3.398 -0.1704  0.2449  0.4632
  297MOL0     O39991   3.314   3.971   3.294 -0.2090  0.1910 -0.6160
  297MOL0     C39992   3.191   3.911   3.258 -0.2442 -0.2017  0.2693
  297MOL0     C39993   3.172   3.893   3.126  0.1053  0.4375  0.7493
  297MOL0     C39994   3.044   3.856   3.075  0.6912  0.0035  0.2682
  297MOL0     C39995   2.937   3.836   3.173  0.0854  0.0084 -0.8886
  297MOL0     O39996   2.806   3.819   3.133 -0.5351 -1.1276  0.6602
  297MOL0     C39997   2.777   3.766   2.998 -1.1830  0.0980 -0.0710
  297MOL0     C39998   2.630   3.732   2.959  0.6219 -0.1594  0.1423
  297MOL0     C39999   2.542   3.688   3.078 -0.3192 -0.0680  0.4011
  297MOL0     C40000   2.399   3.656   3.036 -0.0696 -0.0473  0.0981
  297MOL0     C40001   2.346   3.556   3.159 -0.3842 -0.0721 -0.0826
  297MOL0     C40002   2.223   3.497   3.100 -0.5990  0.1196 -0.6210
  297MOL0     C40003   2.178   3.393   3.201 -0.2477  0.0156 -0.0312
  297MOL0     C40004   2.060   3.313   3.138  0.7303 -0.1788  0.3487
  297MOL0    Cl40005   2.104   3.223   2.978  0.0568  0.4220  0.2700
  297MOL0     C40006   2.958   3.857   3.310 -0.0405 -0.5382  0.5820
  297MOL0     C40007   3.084   3.901   3.351 -1.2576 -0.4182 -1.0976
  297MOL0     O40008   3.334   3.814   3.460 -0.4910  0.1307 -0.1071
  297MOL0     C40009   3.508   4.121   3.463 -0.0901 -0.2747 -0.3519
  297MOL0     C40010   3.621   4.184   3.508  0.1540  0.3100  0.5561
  297MOL0     N40011   3.752   4.349   4.108 -0.3545  0.1250  0.1365
  297MOL0     N40012   3.721   4.297   4.219 -0.1341 -0.3421  0.6448
  297MOL0     C40013   3.201   4.437   4.992 -0.4811 -0.0554 -0.7744
  297MOL0     C40014   3.332   4.465   5.036  1.0006  0.9980  0.1259
  297MOL0     C40015   3.727   4.600   5.156  0.5478  0.3639 -0.7911
  297MOL0     C40016   3.821   4.500   5.133 -0.1103 -0.2348  0.3855
  297MOL0     C40017   3.956   4.509   5.178  0.1667  0.5460 -0.8615
  297MOL0     C40018   3.994   4.624   5.256  0.1728  0.6655  0.4290
  297MOL0     O40019   4.112   4.664   5.293 -0.4398 -0.2306 -0.1151
  297MOL0     C40020   4.225   4.592   5.233 -1.0953 -0.2075  0.2749
  297MOL0     C40021   4.332   4.677   5.193  0.7576  0.0748  0.0835
  297MOL0     C40022   4.456   4.621   5.114 -0.9947  0.4547  0.1539
  297MOL0     C40023   4.548   4.738   5.073  0.3460  0.2681  0.3460
  297MOL0     C40024   4.642   4.770   5.183  0.6753  0.8106 -0.2059
  297MOL0     C40025   4.724   4.776   5.271 -0.0691 -1.3547 -0.3391
  297MOL0     C40026   3.894   4.711   5.299 -0.6485  0.7350 -0.8608
  297MOL0     C40027   3.765   4.704   5.245  0.5703 -0.2088  0.8105
  297MOL0     H40028   3.477   4.542   4.726  0.9649 -0.5773  0.5406
  297MOL0     H40029   3.231   4.523   4.670 -1.7544  1.0107  0.2772
  297MOL0     H40030   2.918   4.388   4.948  2.1480 -0.2034  0.5364
  297MOL0     H40031   2.853   4.423   4.784  1.8268 -1.2292 -3.2258
  297MOL0     H40032   3.040   4.195   4.842 -4.0294 -2.9417  3.2766
  297MOL0     H40033   2.878   4.173   4.793  0.6660  0.1805  1.2241
  297MOL0     H40034   2.923   4.195   4.575 -0.5909  0.4110  1.7587
  297MOL0     H40035   2.975   4.355   4.604 -0.2191  0.4313  0.2723
  297MOL0     H40036   3.202   4.213   4.691  0.9788  2.6676 -1.0861
  297MOL0     H40037   3.127   4.084   4.589 -1.7345  0.2069  0.5830
  297MOL0     H40038   3.145   4.208   4.392 -1.1568  3.3684 -0.3901
  297MOL0     H40039   3.174   4.365   4.480  4.9771  1.0255  2.9203
  297MOL0     H40040   3.376   4.273   4.575  1.5362 -2.5655 -0.5749
  297MOL0     H40041   3.367   4.132   4.477 -0.9946  0.2234 -2.6280
  297MOL0     H40042   3.383   4.258   4.276  0.6304 -0.8361  1.2829
  297MOL0     H40043   3.366   4.419   4.351 -1.6492 -0.0009 -0.1288
  297MOL0     H40044   3.605   4.244   4.436  0.6472 -0.9669 -0.7459
  297MOL0     H40045   3.573   4.400   4.485 -3.0042 -0.5674  1.1561
  297MOL0     H40046   3.514   4.543   4.196  0.2101  0.0093 -3.1759
  297MOL0     H40047   3.561   4.488   3.898  1.2227 -1.3008  0.1286
  297MOL0     H40048   3.642   4.622   3.957 -1.4727 -1.0941  3.2311
  297MOL0     H40049   3.871   4.502   3.872  0.8057 -1.5736  0.3478
  297MOL0     H40050   3.745   4.565   3.768 -3.1854  1.1894  2.5513
  297MOL0     H40051   3.648   4.335   3.736  0.3619 -2.3564 -1.4381
  297MOL0     H40052   3.782   4.271   3.839  0.6136 -0.6343 -1.2122
  297MOL0     H40053   3.937   4.351   3.655 -0.6602  0.8799  3.7584
  297MOL0     H40054   3.784   4.368   3.553 -3.1181 -1.8892  0.7322
  297MOL0     H40055   3.801   3.926   3.610  1.5077  2.5096  0.0742
  297MOL0     H40056   3.566   3.703   3.423  2.4260  0.2145 -1.0228
  297MOL0     H40057   3.722   3.722   3.513 -0.7430 -2.4366  0.9616
  297MOL0     H40058   3.566   3.744   3.604  2.3201  0.7911  1.3938
  297MOL0     H40059   3.255   3.909   3.057 -1.3151 -1.7560 -1.6798
  297MOL0     H40060   3.014   3.854   2.971 -2.3086  0.1772  1.0142
  297MOL0     H40061   2.807   3.833   2.917 -1.1279  0.9117  0.6074
  297MOL0     H40062   2.840   3.677   2.991 -1.9967 -0.5596  0.7244
  297MOL0     H40063   2.595   3.826   2.916  2.0181  0.9191  1.2814
  297MOL0     H40064   2.628   3.650   2.887  3.4380 -2.6039  2.5508
  297MOL0     H40065   2.552   3.765   3.155  1.8832  0.7490 -0.5926
  297MOL0     H40066   2.593   3.601   3.120 -1.8075 -0.4007  1.6064
  297MOL0     H40067   2.338   3.746   3.050 -0.9151 -0.6408  0.2453
  297MOL0     H40068   2.387   3.628   2.931 -2.5913  2.1532 -0.3200
  297MOL0     H40069   2.339   3.612   3.253 -0.9283 -2.8925  1.6760
  297MOL0     H40070   2.417   3.474   3.176  1.4109  1.3992 -0.2660
  297MOL0     H40071   2.152   3.579   3.088 -0.9788 -0.0614  0.3094
  297MOL0     H40072   2.241   3.450   3.003 -2.4467 -3.1821  0.4611
  297MOL0     H40073   2.154   3.432   3.300 -1.1110 -0.1002 -0.1863
  297MOL0     H40074   2.251   3.312   3.213 -0.7072 -0.5692 -1.0364
  297MOL0     H40075   1.985   3.390   3.120  2.4300  1.6597  0.7221
  297MOL0     H40076   2.023   3.241   3.212  0.6684  0.4767  0.9612
  297MOL0     H40077   2.871   3.842   3.374 -0.0290 -2.1829  0.2653
  297MOL0     H40078   3.101   3.933   3.454  1.1132 -1.9581 -0.9351
  297MOL0     H40079   3.440   4.194   3.419  0.3248  1.4423  1.7084
  297MOL0     H40080   3.625   4.292   3.497  1.8172  0.0466 -2.7191
  297MOL0     H40081   3.120   4.396   5.052 -0.0517  0.9055  0.4915
  297MOL0     H40082   3.351   4.450   5.142 -0.6882  1.2888  0.4976
  297MOL0     H40083   3.797   4.408   5.082 -2.7673  0.9981 -0.7683
  297MOL0     H40084   4.026   4.427   5.167 -0.4451 -0.7458  3.1769
  297MOL0     H40085   4.255   4.523   5.312 -1.9790 -1.4397 -0.4338
  297MOL0     H40086   4.194   4.541   5.141 -1.8425  1.5329 -0.4914
  297MOL0     H40087   4.367   4.730   5.282 -4.5612  2.7900  0.9604
  297MOL0     H40088   4.282   4.755   5.135  3.2346  4.1843  2.9183
  297MOL0     H40089   4.410   4.570   5.028 -2.3194  1.0788  0.4682
  297MOL0     H40090   4.505   4.533   5.157 -0.4829  0.3383 -0.6457
  297MOL0     H40091   4.482   4.820   5.044  1.5272  0.2361 -2.8499
  297MOL0     H40092   4.607   4.710   4.985 -0.1612 -2.8753  0.8881
  297MOL0     H40093   4.793   4.784   5.353 -1.4953  0.9188  0.7536
  297MOL0     H40094   3.917   4.809   5.341  1.1098 -0.0192  0.0740
  297MOL0     H40095   3.695   4.785   5.265  0.9099  0.7638 -1.5719
  298MOL0     O40096   3.101   6.403   9.310 -0.2473 -0.5647  0.4073
  298MOL0     C40097   3.196   6.324   9.300  0.8987  0.5529  1.1278
  298MOL0     O40098   3.207   6.197   9.344 -0.0521  0.2476 -0.2490
  298MOL0     C40099   3.087   6.133   9.381 -0.5614 -0.7171  0.4304
  298MOL0     C40100   3.005   6.084   9.279  0.2533 -0.5682 -0.0126
  298MOL0     C40101   2.881   6.027   9.302 -1.0215 -0.4189 -0.2991
  298MOL0     C40102   2.831   6.023   9.436 -0.5141 -0.4581  1.0100
  298MOL0     O40103   2.708   5.961   9.452 -0.1751  0.1348 -0.2927
  298MOL0     C40104   2.674   5.914   9.585  0.6190 -0.4276 -0.1307
  298MOL0     C40105   2.540   5.838   9.577  0.3757 -0.7996 -0.2192
  298MOL0     C40106   2.413   5.915   9.565 -0.1833  0.2275 -0.0828
  298MOL0     C40107   2.295   5.819   9.547  0.0040  0.0912  0.1740
  298MOL0     C40108   2.162   5.890   9.517  0.2232  0.3250  0.4003
  298MOL0     C40109   2.034   5.802   9.503 -0.6686 -0.1794 -1.0434
  298MOL0     C40110   2.036   5.716   9.375  0.7945  0.0551 -0.3133
  298MOL0     C40111   1.963   5.792   9.264 -0.2239  0.1078  0.0226
  298MOL0     N40112   1.822   5.815   9.268  0.4367 -0.4328  0.1823
  298MOL0     C40113   1.749   5.870   9.169 -0.5982 -0.6884  0.3785
  298MOL0     C40114   1.625   5.865   9.212  0.1633  0.5805 -0.2201
  298MOL0     C40115   1.503   5.883   9.131  0.5997 -0.3243 -0.0936
  298MOL0     C40116   1.406   5.981   9.204 -0.1085  0.5439 -0.3288
  298MOL0     C40117   1.317   5.911   9.312  0.6877 -0.3435  1.1864
  298MOL0     C40118   1.226   5.793   9.269  0.2682 -0.1104  0.0425
  298MOL0     O40119   1.162   5.817   9.144  0.4913 -0.2902 -0.2779
  298MOL0     C40120   1.090   5.936   9.128 -0.5536 -0.0584 -0.1661
  298MOL0     C40121   1.087   5.962   8.995 -0.1291 -0.1156  0.1681
  298MOL0     C40122   1.022   6.068   8.939  0.4056 -0.0417  0.2680
  298MOL0     C40123   1.027   6.084   8.788 -0.6293  0.3970 -0.0812
  298MOL0     C40124   0.950   6.156   9.031  0.0373  0.7087 -0.7069
  298MOL0     C40125   0.885   6.276   8.983 -0.6993 -0.2043 -0.8593
  298MOL0     O40126   0.880   6.384   9.074 -0.1907 -0.6765  0.5925
  298MOL0     C40127   0.797   6.490   9.050 -1.2294 -0.5765 -1.0520
  298MOL0     C40128   0.730   6.530   9.164 -0.3760  0.1671 -0.5170
  298MOL0     C40129   0.635   6.626   9.166  0.4361  0.3201  1.3027
  298MOL0     C40130   0.596   6.684   9.041 -0.1510  0.8140 -0.3152
  298MOL0     O40131   0.482   6.762   9.036  0.1088 -0.5950 -0.3236
  298MOL0     C40132   0.402   6.777   9.147 -0.3085  0.5007  0.2234
  298MOL0     C40133   0.280   6.867   9.118 -0.1427  0.2144  0.0932
  298MOL0     C40134   0.167   6.860   9.218 -0.9615 -0.9887  0.6348
  298MOL0     C40135   0.036   6.797   9.167  0.6558 -0.5354 -0.7445
  298MOL0     C40136  -0.058   6.787   9.286  0.2545  0.0748 -0.1723
  298MOL0     C40137  -0.097   6.917   9.367 -0.0030  0.2878 -0.7463
  298MOL0     C40138  -0.139   7.038   9.284 -0.8660  0.1247  0.4629
  298MOL0     C40139  -0.286   7.053   9.250 -0.3893  0.1701  0.1181
  298MOL0    Cl40140  -0.395   7.022   9.390  0.0991 -0.6384  0.2445
  298MOL0     C40141   0.678   6.666   8.928  0.2042  0.2195 -0.1818
  298MOL0     C40142   0.777   6.566   8.935  0.4373 -0.1107  1.5671
  298MOL0     O40143   0.825   6.271   8.877  0.7660  0.8194  0.6594
  298MOL0     C40144   0.971   6.137   9.167 -0.4771  0.1142  0.5793
  298MOL0     C40145   1.029   6.021   9.216 -0.0260  0.5081 -0.1484
  298MOL0     N40146   1.619   5.810   9.342  0.0962  0.7836  0.9956
  298MOL0     N40147   1.740   5.761   9.364 -0.1810  0.2898 -0.0034
  298MOL0     C40148   2.910   6.080   9.538  0.1182 -0.4334 -1.5212
  298MOL0     C40149   3.037   6.134   9.512 -0.5524 -0.7233  0.5327
  298MOL0     C40150   3.318   6.372   9.225  0.3514 -0.4811  0.0130
  298MOL0     C40151   3.388   6.282   9.146  0.6487 -0.2538  0.4540
  298MOL0     C40152   3.500   6.329   9.068 -0.4803  0.5959  0.2113
  298MOL0     C40153   3.544   6.455   9.094  0.1148  0.0774  0.3375
  298MOL0     O40154   3.664   6.482   9.026  0.2338 -0.1435 -0.3632
  298MOL0     C40155   3.732   6.608   9.051  0.2534  0.1902 -0.6173
  298MOL0     C40156   3.870   6.602   8.996  0.2076  0.5207 -0.0728
  298MOL0     C40157   3.883   6.621   8.849 -0.0976  0.6091  0.2193
  298MOL0     C40158   3.842   6.504   8.767  0.2455  0.5887 -0.5005
  298MOL0     C40159   3.899   6.496   8.633 -0.6840 -0.2565 -0.2336
  298MOL0     C40160   3.953   6.471   8.522 -0.2140  0.5081  0.6042
  298MOL0     C40161   3.474   6.556   9.168 -0.1834  0.2691  0.7385
  298MOL0     C40162   3.359   6.509   9.232  0.3202  0.6864  0.0173
  298MOL0     H40163   3.055   6.097   9.183  0.0873  2.0818  0.1889
  298MOL0     H40164   2.820   5.996   9.218  0.7759 -2.0472 -1.0938
  298MOL0     H40165   2.750   5.847   9.626  0.9269 -0.9309 -1.4404
  298MOL0     H40166   2.662   5.998   9.653  0.5359  1.1101 -1.9460
  298MOL0     H40167   2.541   5.768   9.492  0.3662 -0.1976 -0.7232
  298MOL0     H40168   2.522   5.787   9.672  0.6226  0.3718  0.4694
  298MOL0     H40169   2.395   5.963   9.662  0.4437  1.2241 -0.4475
  298MOL0     H40170   2.422   5.996   9.491 -1.3448  0.8864  0.4593
  298MOL0     H40171   2.314   5.752   9.463  2.5208  1.8166 -0.7230
  298MOL0     H40172   2.285   5.750   9.632 -0.1072 -0.0207  0.0690
  298MOL0     H40173   2.137   5.970   9.587 -0.1266  1.8845 -1.4220
  298MOL0     H40174   2.165   5.947   9.424  0.9275  0.6546  0.6176
  298MOL0     H40175   2.023   5.732   9.587 -0.0937 -0.2631 -1.0342
  298MOL0     H40176   1.945   5.864   9.489 -0.7142 -0.6211 -2.9845
  298MOL0     H40177   2.133   5.674   9.351  1.2240  0.8491 -0.0115
  298MOL0     H40178   1.961   5.638   9.392 -1.1522  1.7830 -0.5595
  298MOL0     H40179   1.983   5.742   9.169 -2.8355  3.2105 -2.4356
  298MOL0     H40180   2.002   5.893   9.246 -0.7854 -0.2327 -3.9927
  298MOL0     H40181   1.781   5.882   9.065  0.7151 -0.2585  0.8101
  298MOL0     H40182   1.529   5.913   9.029 -0.6733 -2.4429 -1.1212
  298MOL0     H40183   1.465   5.781   9.117 -0.4699  0.0789 -0.1959
  298MOL0     H40184   1.354   6.051   9.138 -3.0996  0.3322  1.6028
  298MOL0     H40185   1.469   6.046   9.266  0.4295 -1.8540  1.8100
  298MOL0     H40186   1.243   5.984   9.346  0.7441  1.1538 -1.6075
  298MOL0     H40187   1.373   5.875   9.399 -1.3994 -0.9890  2.3178
  298MOL0     H40188   1.151   5.765   9.343 -0.5988 -3.4707 -1.9255
  298MOL0     H40189   1.287   5.704   9.252 -2.5895 -2.1553 -0.0326
  298MOL0     H40190   1.144   5.898   8.928  1.2259  1.2957 -0.0968
  298MOL0     H40191   1.104   6.014   8.754  0.2854  1.8318 -1.1014
  298MOL0     H40192   0.929   6.059   8.748 -0.2475 -3.2104  0.8323
  298MOL0     H40193   1.057   6.186   8.764  1.4485  0.1870  1.2513
  298MOL0     H40194   0.755   6.492   9.263 -0.4108  0.7645 -0.2759
  298MOL0     H40195   0.592   6.658   9.261 -1.9399 -1.5819  0.9577
  298MOL0     H40196   0.373   6.679   9.186 -1.4242  1.7038  2.5977
  298MOL0     H40197   0.456   6.815   9.234 -1.5085 -0.5579  1.4763
  298MOL0     H40198   0.308   6.973   9.118 -0.5024  0.3093  0.3631
  298MOL0     H40199   0.248   6.838   9.017  0.5381  1.3066 -0.4579
  298MOL0     H40200   0.158   6.960   9.261  1.9747  0.0287 -0.8256
  298MOL0     H40201   0.202   6.793   9.298  0.7736  0.1690  0.8934
  298MOL0     H40202  -0.018   6.855   9.093 -0.2248 -0.0438  0.2566
  298MOL0     H40203   0.066   6.699   9.129  0.4307 -2.4227  3.3459
  298MOL0     H40204  -0.015   6.711   9.352 -0.0646 -0.1883 -0.2612
  298MOL0     H40205  -0.151   6.745   9.247 -1.1347  2.4722  0.3825
  298MOL0     H40206  -0.182   6.886   9.429  2.1601 -0.5511  1.9894
  298MOL0     H40207  -0.010   6.946   9.426  0.5176 -1.4212 -0.6122
  298MOL0     H40208  -0.106   7.038   9.180 -3.8009 -0.7303 -0.5864
  298MOL0     H40209  -0.098   7.127   9.331  0.1152 -1.1428  2.1052
  298MOL0     H40210  -0.309   6.971   9.182  0.7421  1.6028 -2.0726
  298MOL0     H40211  -0.317   7.147   9.205 -4.6684 -0.9060  0.3526
  298MOL0     H40212   0.655   6.720   8.836 -2.2059 -0.2458  0.0793
  298MOL0     H40213   0.829   6.535   8.844  0.2171  1.1030  0.9965
  298MOL0     H40214   0.928   6.209   9.235  0.4328  0.7850  0.4535
  298MOL0     H40215   1.039   6.009   9.324  0.6442  0.6706 -0.1843
  298MOL0     H40216   2.870   6.078   9.639  0.6932 -1.7955 -1.3014
  298MOL0     H40217   3.100   6.191   9.580 -3.3167  1.3193  1.5917
  298MOL0     H40218   3.354   6.180   9.129  1.5349 -0.2347 -1.7155
  298MOL0     H40219   3.542   6.263   8.992  1.2305  0.8060  0.9166
  298MOL0     H40220   3.672   6.683   8.999 -0.2171 -0.5712 -1.1910
  298MOL0     H40221   3.743   6.625   9.159 -0.2734 -1.1919 -0.3227
  298MOL0     H40222   3.921   6.512   9.031 -1.0896 -0.9500 -1.7593
  298MOL0     H40223   3.933   6.679   9.042  0.2792  0.6648 -0.4051
  298MOL0     H40224   3.989   6.641   8.832  0.3001 -0.7433  0.9181
  298MOL0     H40225   3.827   6.707   8.811  0.0535  1.9458  2.8198
  298MOL0     H40226   3.733   6.497   8.767  0.2859 -0.1494 -0.0228
  298MOL0     H40227   3.870   6.415   8.824 -2.1187  0.3829  0.4524
  298MOL0     H40228   3.988   6.449   8.424 -2.7700 -0.6349 -0.1298
  298MOL0     H40229   3.525   6.651   9.173 -0.7718  0.7717 -1.6152
  298MOL0     H40230   3.314   6.586   9.293  2.0932  2.3553 -0.6872
  299MOL0     O40231   6.173   2.571   5.755  0.3749  0.5387 -0.5575
  299MOL0     C40232   6.219   2.547   5.643  0.7017  0.3890  1.0819
  299MOL0     O40233   6.143   2.536   5.526  0.4300  0.0945  0.2482
  299MOL0     C40234   6.007   2.497   5.524  0.0182  0.2043 -0.3803
  299MOL0     C40235   5.944   2.408   5.620 -0.3444 -0.6751  0.1274
  299MOL0     C40236   5.813   2.386   5.614  0.2562 -0.0036 -0.9645
  299MOL0     C40237   5.735   2.440   5.514  0.1149 -0.2294  0.4275
  299MOL0     O40238   5.602   2.413   5.529 -0.9783 -0.1079  1.1840
  299MOL0     C40239   5.512   2.485   5.459 -0.2416  0.3204 -0.0359
  299MOL0     C40240   5.502   2.643   5.495 -0.1415  1.3508 -0.4430
  299MOL0     C40241   5.432   2.647   5.630  0.3210 -0.6402  0.2537
  299MOL0     C40242   5.283   2.666   5.633  0.8694  0.2060  0.9136
  299MOL0     C40243   5.205   2.565   5.714  0.5499  0.0050  0.1616
  299MOL0     C40244   5.252   2.581   5.862  0.2895 -0.0713  0.5840
  299MOL0     C40245   5.185   2.488   5.950  0.6984 -0.4635  0.5468
  299MOL0     C40246   5.204   2.511   6.101 -0.0456  0.0505  0.8342
  299MOL0     N40247   5.096   2.493   6.190 -0.4234  0.2727  0.6410
  299MOL0     C40248   5.059   2.371   6.241 -0.1840  0.1635  0.3027
  299MOL0     C40249   5.001   2.409   6.360  0.8259 -0.6222 -0.4801
  299MOL0     C40250   4.923   2.313   6.455 -0.3526 -0.2359 -0.5511
  299MOL0     C40251   4.783   2.256   6.412 -0.2636 -0.3169  0.5462
  299MOL0     C40252   4.802   2.166   6.286  0.0930 -0.7754  0.0909
  299MOL0     C40253   4.677   2.076   6.267  0.2166 -0.4961  0.7017
  299MOL0     O40254   4.564   2.170   6.240 -0.2437  0.9451  0.6147
  299MOL0     C40255   4.441   2.123   6.210 -1.0041  0.0261 -0.4582
  299MOL0     C40256   4.404   1.992   6.221  0.3616 -0.3665  0.2066
  299MOL0     C40257   4.266   1.957   6.211 -0.0847  0.2777 -1.2868
  299MOL0     C40258   4.240   1.808   6.209  0.3275  0.5586 -1.1682
  299MOL0     C40259   4.167   2.051   6.173  0.0022  0.1502  0.6956
  299MOL0     C40260   4.019   2.024   6.136  1.0389  0.1307 -0.4036
  299MOL0     O40261   3.978   1.897   6.140  0.3822 -0.2784  0.2212
  299MOL0     C40262   3.846   1.875   6.126  0.6901  0.2473 -0.5376
  299MOL0     C40263   3.786   1.799   6.230 -0.6542 -0.6950 -0.3402
  299MOL0     C40264   3.649   1.765   6.227  0.5538 -0.3146  0.0161
  299MOL0     C40265   3.577   1.803   6.117  0.0253 -0.6272  0.3531
  299MOL0     O40266   3.446   1.769   6.120  0.1605 -0.0881 -0.1695
  299MOL0     C40267   3.352   1.864   6.140 -0.0602 -0.2722  0.2523
  299MOL0     C40268   3.243   1.869   6.033  0.3409 -1.0327 -0.5996
  299MOL0     C40269   3.151   1.750   6.056  0.5730  0.2449  0.5367
  299MOL0     C40270   3.050   1.747   5.943 -0.7095  0.5172 -0.0402
  299MOL0     C40271   2.980   1.614   5.957 -0.4784  0.7632 -0.5031
  299MOL0     C40272   2.901   1.578   5.832 -0.7710  0.8060 -0.5566
  299MOL0     C40273   2.873   1.429   5.814 -0.2921  0.6784 -0.0968
  299MOL0     C40274   2.801   1.354   5.928 -0.4905  0.1923  0.3359
  299MOL0    Cl40275   2.649   1.428   5.985  0.4305  0.0045  0.1181
  299MOL0     C40276   3.632   1.884   6.016  0.6918 -0.1998 -1.1036
  299MOL0     C40277   3.769   1.911   6.016  0.6316 -0.4597 -0.1579
  299MOL0     O40278   3.940   2.116   6.102 -0.0846 -0.4599  1.8689
  299MOL0     C40279   4.212   2.181   6.147 -1.0096  0.1953  0.5147
  299MOL0     C40280   4.346   2.214   6.166  0.1946  0.5442  0.1796
  299MOL0     N40281   5.001   2.548   6.376  0.2840  0.4235 -0.6020
  299MOL0     N40282   5.072   2.595   6.273  0.0010 -0.3686 -0.1665
  299MOL0     C40283   5.793   2.514   5.413 -0.5062  0.3538 -0.1036
  299MOL0     C40284   5.929   2.541   5.412  0.2760  1.3111 -0.0262
  299MOL0     C40285   6.365   2.531   5.612 -0.6016  0.1326  0.1883
  299MOL0     C40286   6.454   2.550   5.719 -0.5252  0.2104  0.0339
  299MOL0     C40287   6.594   2.525   5.703  0.4659  0.5968 -0.3682
  299MOL0     C40288   6.637   2.471   5.585 -0.0192  0.7101  0.2393
  299MOL0     O40289   6.766   2.435   5.566 -0.1276 -0.0751  0.2578
  299MOL0     C40290   6.854   2.546   5.563 -0.5431 -0.5275 -0.6538
  299MOL0     C40291   7.000   2.504   5.550 -0.7339  0.0384  0.1310
  299MOL0     C40292   7.030   2.455   5.411  0.1074 -0.0675  0.2012
  299MOL0     C40293   7.179   2.431   5.380 -0.6601  0.3832  0.0544
  299MOL0     C40294   7.250   2.556   5.364 -0.5308 -0.5731  0.0570
  299MOL0     C40295   7.316   2.659   5.353  0.7959 -0.5411  0.8547
  299MOL0     C40296   6.547   2.437   5.481 -1.0269  0.1273  0.1270
  299MOL0     C40297   6.415   2.474   5.495 -0.3858  0.4343 -0.1158
  299MOL0     H40298   6.003   2.369   5.702  0.1457  2.4443  1.3946
  299MOL0     H40299   5.764   2.320   5.684  1.9897 -1.3603 -0.9324
  299MOL0     H40300   5.541   2.481   5.354  0.7025 -0.3898  0.2374
  299MOL0     H40301   5.417   2.434   5.478 -0.4992  1.4258  1.8818
  299MOL0     H40302   5.594   2.702   5.494 -0.8067  2.4135 -0.9520
  299MOL0     H40303   5.432   2.685   5.422  0.0987  1.1726 -0.7761
  299MOL0     H40304   5.464   2.561   5.690  0.6548 -0.3837  0.4431
  299MOL0     H40305   5.472   2.732   5.685 -0.2036 -1.9767  2.8670
  299MOL0     H40306   5.274   2.766   5.677  1.5781 -0.4293  2.5659
  299MOL0     H40307   5.237   2.677   5.534 -1.2771 -1.3971  1.6444
  299MOL0     H40308   5.096   2.565   5.707  0.5571 -2.3174 -0.8328
  299MOL0     H40309   5.235   2.464   5.684 -0.7794 -0.1819 -0.6220
  299MOL0     H40310   5.358   2.554   5.864  1.3557  3.6218  0.3946
  299MOL0     H40311   5.243   2.688   5.880  3.5599  0.5106 -0.4057
  299MOL0     H40312   5.081   2.487   5.917  1.1132  2.7831 -1.1848
  299MOL0     H40313   5.208   2.382   5.931 -4.1146 -1.5991 -0.1904
  299MOL0     H40314   5.244   2.613   6.110  3.0180 -0.8465 -0.9575
  299MOL0     H40315   5.283   2.444   6.135  1.6874  1.4019 -0.3348
  299MOL0     H40316   5.056   2.277   6.186 -0.1937 -0.3157  1.1093
  299MOL0     H40317   4.991   2.232   6.482  1.5230  0.8568 -1.7695
  299MOL0     H40318   4.897   2.368   6.546 -2.7134  2.7158 -2.7748
  299MOL0     H40319   4.711   2.334   6.387  2.1929  1.6304 -0.8856
  299MOL0     H40320   4.738   2.189   6.486 -3.8705  2.3688  1.0205
  299MOL0     H40321   4.885   2.098   6.308 -1.0116 -2.0320  0.5198
  299MOL0     H40322   4.807   2.231   6.198 -1.1703  1.5484  1.6233
  299MOL0     H40323   4.658   2.018   6.357  1.2208  1.5702  2.3227
  299MOL0     H40324   4.691   2.007   6.183  1.3558 -0.5138  0.8948
  299MOL0     H40325   4.478   1.913   6.234  2.3790  1.5380  0.8804
  299MOL0     H40326   4.324   1.742   6.230 -0.3592  0.0355  0.1188
  299MOL0     H40327   4.159   1.762   6.268  0.4353  2.3477  0.4526
  299MOL0     H40328   4.212   1.786   6.106  0.2335  0.5049 -1.1320
  299MOL0     H40329   3.851   1.773   6.313 -0.1112 -1.7806 -1.0913
  299MOL0     H40330   3.605   1.707   6.309 -0.0154 -3.9695 -2.6161
  299MOL0     H40331   3.306   1.850   6.239 -1.0473 -0.1455 -0.1765
  299MOL0     H40332   3.390   1.966   6.152  0.3737 -0.2828 -0.9017
  299MOL0     H40333   3.178   1.956   6.048  2.4805  0.6845 -0.6543
  299MOL0     H40334   3.298   1.886   5.940  2.4483  1.8227  1.0099
  299MOL0     H40335   3.103   1.754   6.155  0.5097  0.9769  0.4834
  299MOL0     H40336   3.207   1.657   6.051 -1.3356 -0.9434  0.1066
  299MOL0     H40337   2.982   1.833   5.945 -0.3156  0.9584 -2.4194
  299MOL0     H40338   3.094   1.746   5.842 -0.5556  0.4485  0.0270
  299MOL0     H40339   2.917   1.621   6.046  1.1641  2.7409  0.6212
  299MOL0     H40340   3.051   1.531   5.961 -1.5943 -0.3426 -2.3670
  299MOL0     H40341   2.805   1.630   5.830 -1.0193  0.3722 -0.0100
  299MOL0     H40342   2.957   1.613   5.745 -0.8892 -3.2873 -2.4929
  299MOL0     H40343   2.970   1.381   5.800  0.9152  2.4423  1.8254
  299MOL0     H40344   2.817   1.418   5.720  3.1088  1.5542 -2.4218
  299MOL0     H40345   2.866   1.345   6.016  1.3897 -1.9902 -1.1627
  299MOL0     H40346   2.798   1.251   5.890 -1.1260  0.3057  0.0646
  299MOL0     H40347   3.572   1.916   5.932 -1.0968 -2.1188 -0.6272
  299MOL0     H40348   3.816   1.966   5.935  0.6959 -0.6381 -0.2411
  299MOL0     H40349   4.138   2.247   6.101  1.3453  2.4244 -0.3403
  299MOL0     H40350   4.367   2.320   6.157  0.0342  0.4808 -1.1193
  299MOL0     H40351   5.733   2.541   5.327  1.3879 -1.3785 -2.1193
  299MOL0     H40352   5.977   2.584   5.325 -0.0225  2.3259  0.3035
  299MOL0     H40353   6.419   2.597   5.811  2.5252 -0.2184  1.5335
  299MOL0     H40354   6.666   2.535   5.784  0.1401 -0.2429  0.0325
  299MOL0     H40355   6.816   2.607   5.480 -0.7205  0.9387  0.4519
  299MOL0     H40356   6.848   2.599   5.658 -1.7907 -0.7845 -0.5618
  299MOL0     H40357   7.026   2.423   5.619 -1.9000  0.9163  1.6635
  299MOL0     H40358   7.069   2.588   5.564  0.4683 -1.0943  1.3770
  299MOL0     H40359   6.981   2.523   5.341 -2.0519 -3.0521 -1.4111
  299MOL0     H40360   6.978   2.359   5.403 -0.7087  0.5094 -2.2664
  299MOL0     H40361   7.184   2.380   5.283  0.6951 -0.1256  0.3666
  299MOL0     H40362   7.226   2.364   5.453  1.8744 -2.2845 -3.6345
  299MOL0     H40363   7.376   2.748   5.345 -1.4143  1.0914  1.2710
  299MOL0     H40364   6.581   2.372   5.400 -3.5085  0.6358 -1.4385
  299MOL0     H40365   6.351   2.433   5.417  0.3314 -0.6127 -0.1778
  300MOL0     O40366   7.851   5.276  10.751 -0.1872  0.1214 -0.3402
  300MOL0     C40367   7.815   5.189  10.835  1.0926  0.2758  0.2941
  300MOL0     O40368   7.886   5.125  10.923  0.6156 -0.5182 -0.5389
  300MOL0     C40369   8.021   5.134  10.893  0.2492 -0.2992 -0.9406
  300MOL0     C40370   8.100   5.228  10.955 -0.2046 -0.1038 -0.5746
  300MOL0     C40371   8.239   5.229  10.931 -0.3162  0.4456  0.1392
  300MOL0     C40372   8.303   5.141  10.845  0.4943  1.6282 -0.2123
  300MOL0     O40373   8.427   5.168  10.815 -0.0643  0.2880 -0.0531
  300MOL0     C40374   8.504   5.077  10.737  0.1558  0.3215  0.1158
  300MOL0     C40375   8.638   5.133  10.704 -0.9666 -0.3852  0.5959
  300MOL0     C40376   8.718   5.174  10.828 -0.7499  0.0327  0.2389
  300MOL0     C40377   8.873   5.203  10.802  0.3942 -0.6307  1.5670
  300MOL0     C40378   8.940   5.223  10.934 -0.5359  0.3928 -0.6067
  300MOL0     C40379   9.065   5.304  10.936  0.5031 -0.6378 -0.4683
  300MOL0     C40380   9.140   5.297  11.069 -0.4229  0.2754 -0.7366
  300MOL0     C40381   9.173   5.157  11.115  0.2495  0.5229 -0.4377
  300MOL0     N40382   9.288   5.153  11.214  0.7170  0.9129  0.0542
  300MOL0     C40383   9.368   5.043  11.252  0.1419 -0.3288 -0.7734
  300MOL0     C40384   9.450   5.093  11.353 -0.1554  0.5991 -0.6661
  300MOL0     C40385   9.553   5.014  11.433  0.8156 -0.0127 -0.2347
  300MOL0     C40386   9.651   4.945  11.350 -0.1440  0.2177 -0.5094
  300MOL0     C40387   9.746   4.876  11.444 -0.3464  0.9271  0.2934
  300MOL0     C40388   9.880   4.844  11.384 -0.0230 -1.2282  0.3155
  300MOL0     O40389   9.876   4.768  11.261 -0.4975  0.3399 -0.5206
  300MOL0     C40390   9.991   4.716  11.216  0.4179 -0.3379  0.3853
  300MOL0     C40391   9.987   4.634  11.099 -0.2829 -0.0670  0.1930
  300MOL0     C40392  10.093   4.570  11.048  0.2203 -0.4243  0.1449
  300MOL0     C40393  10.054   4.500  10.915  0.1836 -0.4501  0.9171
  300MOL0     C40394  10.223   4.586  11.108 -0.5453  0.0540  0.8599
  300MOL0     C40395  10.341   4.526  11.035  0.1960 -0.1195 -0.3003
  300MOL0     O40396  10.456   4.543  11.097 -0.2921 -0.9677  0.1694
  300MOL0     C40397  10.570   4.492  11.048 -0.3583  0.3742 -0.3679
  300MOL0     C40398  10.613   4.536  10.918 -0.2050  0.4816  0.0136
  300MOL0     C40399  10.743   4.486  10.864  0.8129 -0.2341  0.6013
  300MOL0     C40400  10.815   4.384  10.936  0.0152 -0.2796  0.1166
  300MOL0     O40401  10.928   4.318  10.895  0.8051 -0.4872 -0.5598
  300MOL0     C40402  11.030   4.413  10.856 -0.4514  0.3371  0.3473
  300MOL0     C40403  11.154   4.330  10.823  0.1589 -0.3142 -0.4633
  300MOL0     C40404  11.279   4.424  10.832  0.3945  0.4827 -0.5512
  300MOL0     C40405  11.412   4.356  10.791  0.2634 -0.0643 -0.1332
  300MOL0     C40406  11.530   4.454  10.799  0.1980 -0.7290  0.5910
  300MOL0     C40407  11.660   4.369  10.780 -0.6805 -0.0858 -0.2695
  300MOL0     C40408  11.774   4.449  10.840  0.1832  0.4584  0.2538
  300MOL0     C40409  11.918   4.400  10.808 -0.1662  0.2178  0.2139
  300MOL0    Cl40410  11.942   4.377  10.637 -0.0077  0.4628  0.2682
  300MOL0     C40411  10.767   4.348  11.060  0.6376 -0.5764 -0.2476
  300MOL0     C40412  10.656   4.406  11.123 -0.0140 -0.5480 -0.3186
  300MOL0     O40413  10.328   4.490  10.917  1.2751 -0.0616 -0.5583
  300MOL0     C40414  10.233   4.671  11.216  0.3079  0.1499 -0.3467
  300MOL0     C40415  10.121   4.739  11.270  0.8770 -1.1909 -0.6983
  300MOL0     N40416   9.415   5.224  11.378  1.4599 -0.5795 -0.0573
  300MOL0     N40417   9.325   5.259  11.300  0.6934 -0.2138  0.1347
  300MOL0     C40418   8.220   5.042  10.784 -0.6523  0.8901  0.0830
  300MOL0     C40419   8.081   5.041  10.807 -0.3870  0.0419  0.3876
  300MOL0     C40420   7.664   5.173  10.825 -0.0072 -0.6104  0.3759
  300MOL0     C40421   7.582   5.261  10.767 -0.5755 -0.1883 -0.2172
  300MOL0     C40422   7.443   5.254  10.769 -0.3273  0.5976 -0.1833
  300MOL0     C40423   7.372   5.148  10.818  0.5266 -0.7833  0.1312
  300MOL0     O40424   7.235   5.131  10.825 -0.8926 -0.1607  0.0052
  300MOL0     C40425   7.138   5.231  10.787  0.1636  0.8785 -0.8600
  300MOL0     C40426   7.015   5.158  10.739  0.6088 -0.3263  0.2477
  300MOL0     C40427   6.964   5.068  10.850  0.8184 -0.9654 -0.0772
  300MOL0     C40428   6.822   5.016  10.823  0.4874  0.4334 -0.1711
  300MOL0     C40429   6.770   4.948  10.937  0.9715  0.4848 -0.6731
  300MOL0     C40430   6.737   4.876  11.029  0.5157  0.7023  0.4434
  300MOL0     C40431   7.456   5.046  10.874 -0.6457 -0.3570  0.0772
  300MOL0     C40432   7.595   5.064  10.885 -0.0458  0.3342  0.3625
  300MOL0     H40433   8.048   5.297  11.021  1.0565  2.5903 -2.1899
  300MOL0     H40434   8.299   5.311  10.968  1.2386 -0.0544 -1.1921
  300MOL0     H40435   8.514   4.983  10.792  0.7839 -1.5032 -2.9064
  300MOL0     H40436   8.453   5.059  10.642 -0.2206  0.2474  0.3314
  300MOL0     H40437   8.694   5.060  10.644 -1.7917 -0.1661 -0.4524
  300MOL0     H40438   8.624   5.218  10.637  0.1097  0.9055  1.9215
  300MOL0     H40439   8.667   5.251  10.887  0.3536 -1.4691  3.4497
  300MOL0     H40440   8.714   5.088  10.896  1.6412 -0.7141 -0.4668
  300MOL0     H40441   8.920   5.131  10.734  0.6787  2.2714 -1.5875
  300MOL0     H40442   8.874   5.293  10.740 -0.4650 -0.7145  1.4205
  300MOL0     H40443   8.871   5.273  11.002  0.0871  0.9978 -0.4072
  300MOL0     H40444   8.964   5.122  10.968  1.0345  0.5095 -1.2698
  300MOL0     H40445   9.128   5.278  10.850 -0.6417 -0.5784 -1.3613
  300MOL0     H40446   9.034   5.407  10.914  0.2473 -0.6742 -0.2790
  300MOL0     H40447   9.231   5.357  11.057 -1.6044  2.4916  0.6717
  300MOL0     H40448   9.093   5.345  11.155 -0.7347 -1.2159 -0.0472
  300MOL0     H40449   9.209   5.110  11.023 -0.6264 -0.0123 -0.5103
  300MOL0     H40450   9.098   5.098  11.167  2.6756 -1.7244  0.7471
  300MOL0     H40451   9.366   4.939  11.221 -1.1601  0.2332 -2.8073
  300MOL0     H40452   9.611   5.083  11.495 -0.2693  1.8156 -1.1694
  300MOL0     H40453   9.496   4.945  11.496  0.1099  1.1817  0.4965
  300MOL0     H40454   9.700   5.030  11.303 -4.3428  2.2421 -1.6970
  300MOL0     H40455   9.605   4.874  11.280  2.2856 -1.3115 -0.6888
  300MOL0     H40456   9.701   4.780  11.472  2.9439 -1.2016 -1.1396
  300MOL0     H40457   9.763   4.938  11.533  0.0002  0.4404  0.5740
  300MOL0     H40458   9.946   4.791  11.454  2.5177  0.7397 -0.4275
  300MOL0     H40459   9.931   4.938  11.361 -0.0057 -1.2040  0.4483
  300MOL0     H40460   9.886   4.630  11.062 -0.4135  0.2960  0.4955
  300MOL0     H40461   9.950   4.520  10.888  0.8983 -0.0260 -1.7873
  300MOL0     H40462  10.118   4.536  10.834 -1.2611 -1.2689 -0.6301
  300MOL0     H40463  10.072   4.392  10.911 -0.1632 -0.4855  0.1627
  300MOL0     H40464  10.530   4.589  10.871 -0.7370  0.7317  1.1964
  300MOL0     H40465  10.774   4.518  10.765  0.1803 -0.9501  0.1593
  300MOL0     H40466  10.988   4.466  10.770 -0.6894 -0.8954 -0.3270
  300MOL0     H40467  11.046   4.489  10.932  0.0463 -0.7266  1.3377
  300MOL0     H40468  11.165   4.248  10.895  2.2959 -1.2486 -1.7557
  300MOL0     H40469  11.147   4.287  10.723 -0.5019  0.9939 -1.0001
  300MOL0     H40470  11.288   4.449  10.938 -0.1979 -0.9519 -0.1380
  300MOL0     H40471  11.260   4.513  10.772 -0.3936  1.2455  0.7931
  300MOL0     H40472  11.424   4.271  10.860 -1.7867  1.3303  2.1039
  300MOL0     H40473  11.403   4.324  10.687 -0.4484  3.0167 -1.1174
  300MOL0     H40474  11.530   4.515  10.890  0.1750  3.9328 -2.2537
  300MOL0     H40475  11.528   4.524  10.716  0.2107  0.8177  1.8545
  300MOL0     H40476  11.664   4.277  10.839 -2.7161  0.6076  1.0490
  300MOL0     H40477  11.673   4.351  10.673  0.8071  0.6300 -0.2366
  300MOL0     H40478  11.757   4.461  10.948  0.8048  2.2339  0.1832
  300MOL0     H40479  11.763   4.545  10.788  0.5915 -0.5903 -1.8589
  300MOL0     H40480  11.934   4.306  10.863 -2.1491 -1.4854 -1.8985
  300MOL0     H40481  11.984   4.481  10.841 -0.7048  0.4309  0.7746
  300MOL0     H40482  10.828   4.283  11.122 -0.2848  1.0130  2.5172
  300MOL0     H40483  10.644   4.378  11.227 -0.5539 -0.6905 -0.4157
  300MOL0     H40484  10.333   4.686  11.253  0.4700 -0.8305 -0.3489
  300MOL0     H40485  10.138   4.804  11.355  0.6276  1.6268 -2.6777
  300MOL0     H40486   8.269   4.962  10.731  2.0268  0.1909  3.2601
  300MOL0     H40487   8.014   4.964  10.769 -1.3561  1.4800 -0.8842
  300MOL0     H40488   7.635   5.340  10.714  0.1664  0.4063  1.3535
  300MOL0     H40489   7.394   5.330  10.709  0.7963  0.1839 -1.6993
  300MOL0     H40490   7.121   5.304  10.867 -0.3882  0.7793 -0.8813
  300MOL0     H40491   7.188   5.276  10.701  1.5767  1.7629  0.3702
  300MOL0     H40492   7.044   5.100  10.651  0.4742  2.5383 -1.8042
  300MOL0     H40493   6.940   5.229  10.705  0.9033 -0.6348 -1.1220
  300MOL0     H40494   6.958   5.120  10.946  0.5907 -1.9219  0.4360
  300MOL0     H40495   7.037   4.987  10.857  3.4154  1.3319  2.4809
  300MOL0     H40496   6.814   4.954  10.733  1.3752 -1.8499  1.2114
  300MOL0     H40497   6.762   5.106  10.808  0.5255  0.1557 -2.1965
  300MOL0     H40498   6.704   4.804  11.102 -1.9493 -0.5972 -1.7621
  300MOL0     H40499   7.397   4.962  10.908 -1.9977 -0.2570 -1.8543
  300MOL0     H40500   7.647   4.987  10.941  1.4995  1.9602  1.2512
  301MOL0     O40501   2.159   4.108   8.883 -0.2351  0.8188 -0.3276
  301MOL0     C40502   2.146   4.224   8.920 -0.2770 -0.4841 -0.5620
  301MOL0     O40503   2.234   4.322   8.904 -0.4591 -0.5602 -0.0189
  301MOL0     C40504   2.339   4.297   8.813 -0.4034  0.3941 -0.9841
  301MOL0     C40505   2.438   4.208   8.844 -0.0275 -0.0244  0.1474
  301MOL0     C40506   2.542   4.162   8.754  0.6861 -0.3386 -0.7430
  301MOL0     C40507   2.546   4.218   8.623 -0.1680  0.2426  0.7288
  301MOL0     O40508   2.639   4.162   8.536 -1.1440  0.1395 -0.2170
  301MOL0     C40509   2.643   4.225   8.409 -0.3908  0.5777 -0.5046
  301MOL0     C40510   2.710   4.146   8.299  0.3684 -0.3450 -0.1301
  301MOL0     C40511   2.692   4.218   8.159 -0.6144  1.0469  0.3003
  301MOL0     C40512   2.800   4.174   8.054  0.0447 -0.0224  0.2611
  301MOL0     C40513   2.821   4.294   7.950 -0.1282 -0.7479 -0.7613
  301MOL0     C40514   2.944   4.377   7.965 -0.5022  0.4632  0.0698
  301MOL0     C40515   2.943   4.518   7.892  1.1575  0.2409  0.3652
  301MOL0     C40516   3.072   4.595   7.901 -0.5521 -0.0901  0.6518
  301MOL0     N40517   3.108   4.690   7.787  0.4141  0.4341  0.4010
  301MOL0     C40518   3.101   4.657   7.652  0.8266 -0.8480  0.4999
  301MOL0     C40519   3.104   4.775   7.582 -0.4732  0.0416  0.7612
  301MOL0     C40520   3.112   4.777   7.429  0.7010 -1.0856 -0.0166
  301MOL0     C40521   2.970   4.760   7.380  0.4364 -0.5529 -0.1601
  301MOL0     C40522   2.967   4.754   7.227  0.5810 -0.4942  0.7670
  301MOL0     C40523   2.843   4.818   7.164 -0.0418 -0.8466 -0.2159
  301MOL0     O40524   2.726   4.738   7.179 -0.3860  0.0625  0.1998
  301MOL0     C40525   2.601   4.784   7.144  0.7825 -0.9124  0.3664
  301MOL0     C40526   2.566   4.923   7.120  0.0315 -0.8318  0.2233
  301MOL0     C40527   2.435   4.963   7.079  0.3043  1.4481 -0.3838
  301MOL0     C40528   2.423   5.106   7.061  0.5621  0.9260  0.6406
  301MOL0     C40529   2.333   4.868   7.060  0.5424  1.0581 -0.4961
  301MOL0     C40530   2.202   4.898   7.009  0.0502  0.0551  1.0183
  301MOL0     O40531   2.120   4.779   6.979  0.2173 -0.1205 -0.8739
  301MOL0     C40532   1.997   4.798   6.918  0.6965  0.6867  0.4568
  301MOL0     C40533   1.961   4.727   6.805 -0.5606  1.1368  0.2880
  301MOL0     C40534   1.844   4.753   6.738  0.5520  0.4630  0.2454
  301MOL0     C40535   1.748   4.845   6.790  0.0354 -0.6766 -0.2770
  301MOL0     O40536   1.628   4.876   6.724  0.6170  0.2367 -0.2527
  301MOL0     C40537   1.631   4.863   6.581 -1.2811  0.6741 -0.1886
  301MOL0     C40538   1.553   4.984   6.522  0.3128 -0.8474  0.3188
  301MOL0     C40539   1.394   4.990   6.528  0.3324 -0.2910  1.1575
  301MOL0     C40540   1.342   5.127   6.483 -0.4719 -0.4040 -1.0883
  301MOL0     C40541   1.188   5.138   6.496 -0.1004 -0.1877 -0.3707
  301MOL0     C40542   1.117   5.052   6.400  1.0747  1.0879  0.0235
  301MOL0     C40543   0.965   5.088   6.418  0.6762  0.1401 -0.3719
  301MOL0     C40544   0.855   5.048   6.319 -0.2602  0.7060  0.3466
  301MOL0    Cl40545   0.873   5.133   6.162  0.2270 -0.0213  0.2093
  301MOL0     C40546   1.773   4.898   6.915 -0.1334  0.2724 -0.2095
  301MOL0     C40547   1.896   4.876   6.978  0.5237 -0.4516 -0.1576
  301MOL0     O40548   2.179   5.011   6.970  0.1433  0.3919 -0.8722
  301MOL0     C40549   2.369   4.734   7.094 -0.3946 -0.6215  0.1215
  301MOL0     C40550   2.496   4.696   7.134 -0.3837  0.5116 -0.1820
  301MOL0     N40551   3.108   4.882   7.677 -0.2443 -0.5816  1.1254
  301MOL0     N40552   3.116   4.820   7.798  0.9998 -0.7182 -0.2507
  301MOL0     C40553   2.446   4.309   8.590 -0.6038  0.6110 -0.6117
  301MOL0     C40554   2.347   4.344   8.681  0.6891 -0.2032 -0.2862
  301MOL0     C40555   2.022   4.264   8.987  0.0375  0.0223 -0.4539
  301MOL0     C40556   2.035   4.362   9.093 -0.9015  0.0836 -0.0276
  301MOL0     C40557   1.918   4.393   9.164 -0.5900 -0.3138  0.0995
  301MOL0     C40558   1.800   4.336   9.131  0.1625 -0.2542  0.3732
  301MOL0     O40559   1.689   4.359   9.208 -0.1402 -0.4499  0.0264
  301MOL0     C40560   1.661   4.490   9.265 -0.4359 -0.5166  0.9977
  301MOL0     C40561   1.580   4.471   9.395 -0.1446 -0.0266  0.1222
  301MOL0     C40562   1.464   4.369   9.388 -0.8884  0.1386  0.3856
  301MOL0     C40563   1.349   4.408   9.300  0.8179 -0.2253  0.3762
  301MOL0     C40564   1.249   4.491   9.370  0.5259  0.2176  0.6344
  301MOL0     C40565   1.177   4.553   9.435  0.5778  0.0294 -0.0044
  301MOL0     C40566   1.788   4.246   9.022 -0.8288 -0.2316  0.5225
  301MOL0     C40567   1.901   4.202   8.958  0.0853  1.2225 -0.7002
  301MOL0     H40568   2.438   4.184   8.950  2.3241  1.6493  0.6259
  301MOL0     H40569   2.607   4.085   8.793  0.7977  0.7162  1.2934
  301MOL0     H40570   2.544   4.237   8.365 -0.4804 -0.2469 -0.5392
  301MOL0     H40571   2.688   4.325   8.413 -1.1255  1.0138 -2.0761
  301MOL0     H40572   2.813   4.143   8.336  0.2819  1.5323  0.4028
  301MOL0     H40573   2.674   4.044   8.302 -3.5338  0.8902  2.6498
  301MOL0     H40574   2.591   4.214   8.118  0.6951 -2.5983 -3.3942
  301MOL0     H40575   2.714   4.322   8.184  4.9488  0.7527 -1.8210
  301MOL0     H40576   2.903   4.150   8.084  0.2616  0.9865  0.3716
  301MOL0     H40577   2.755   4.093   7.997 -1.8573  2.4698 -2.0173
  301MOL0     H40578   2.800   4.261   7.848 -1.0569 -3.6915  0.2679
  301MOL0     H40579   2.745   4.365   7.985  1.7215  0.7533  0.4107
  301MOL0     H40580   2.963   4.383   8.073 -1.2168 -3.4756  0.5812
  301MOL0     H40581   3.026   4.318   7.923 -2.1469 -2.5124  0.7219
  301MOL0     H40582   2.919   4.502   7.787  0.9276  2.1770  0.0993
  301MOL0     H40583   2.869   4.581   7.941  0.7801  0.9723 -1.0983
  301MOL0     H40584   3.152   4.520   7.902 -0.3351  0.1122  2.3058
  301MOL0     H40585   3.087   4.648   7.996  1.1450 -1.1679  1.0379
  301MOL0     H40586   3.096   4.558   7.609  1.5066 -1.2148  1.2280
  301MOL0     H40587   3.154   4.870   7.391 -0.0018 -0.6620  0.2237
  301MOL0     H40588   3.179   4.698   7.395  1.2971 -0.7389  0.3470
  301MOL0     H40589   2.915   4.849   7.412  1.3839  0.6347 -1.7205
  301MOL0     H40590   2.940   4.665   7.427  3.4213 -1.7828 -0.4854
  301MOL0     H40591   2.977   4.650   7.195  0.4040  0.3499 -2.3320
  301MOL0     H40592   3.049   4.818   7.193  1.2452 -1.2062  1.0029
  301MOL0     H40593   2.859   4.816   7.056 -1.7535  3.6747 -0.7566
  301MOL0     H40594   2.835   4.918   7.208 -0.1187 -1.9041  2.3908
  301MOL0     H40595   2.636   5.005   7.132 -2.9782  1.8044  1.2644
  301MOL0     H40596   2.334   5.147   7.108 -0.3104 -2.6770  2.4639
  301MOL0     H40597   2.499   5.168   7.109  1.6148 -1.9252  2.9167
  301MOL0     H40598   2.406   5.121   6.953  3.3190 -1.4168 -0.2529
  301MOL0     H40599   2.031   4.655   6.765 -2.7330 -2.0989  1.8533
  301MOL0     H40600   1.810   4.694   6.653 -0.6791 -1.6821  2.1149
  301MOL0     H40601   1.733   4.880   6.546 -1.6703  1.1371 -1.1405
  301MOL0     H40602   1.601   4.762   6.552  1.2775  0.0918 -1.0830
  301MOL0     H40603   1.586   5.067   6.585  1.8941  0.6041 -2.2715
  301MOL0     H40604   1.580   4.997   6.417  2.7866 -1.7490  0.7704
  301MOL0     H40605   1.339   4.966   6.619  0.8950 -0.6770  1.4056
  301MOL0     H40606   1.360   4.916   6.455  0.5515 -0.3801  1.1438
  301MOL0     H40607   1.398   5.200   6.541 -0.9292  1.7299 -3.1707
  301MOL0     H40608   1.357   5.143   6.376 -1.5665  1.2086 -1.0483
  301MOL0     H40609   1.166   5.245   6.487 -2.4389 -0.6821 -1.2831
  301MOL0     H40610   1.153   5.108   6.595 -1.7808  0.2814 -0.8011
  301MOL0     H40611   1.145   5.067   6.296 -5.1075 -0.1590 -2.2758
  301MOL0     H40612   1.135   4.944   6.413  4.1026  1.2450 -2.1036
  301MOL0     H40613   0.948   5.196   6.428 -1.0170 -0.1160 -0.1812
  301MOL0     H40614   0.934   5.054   6.517 -0.6640  4.6104  1.0011
  301MOL0     H40615   0.756   5.074   6.357 -1.5252  0.3215 -2.4342
  301MOL0     H40616   0.847   4.939   6.310 -0.2100  0.8676 -3.1577
  301MOL0     H40617   1.706   4.965   6.968 -0.5651  1.5243 -2.1931
  301MOL0     H40618   1.915   4.931   7.070  3.2223  0.4438 -1.1593
  301MOL0     H40619   2.285   4.666   7.088 -3.2820  2.4784  2.1823
  301MOL0     H40620   2.511   4.593   7.165  0.5526  0.5799 -0.3803
  301MOL0     H40621   2.440   4.342   8.486  0.7034 -0.1248 -0.9453
  301MOL0     H40622   2.271   4.414   8.648 -0.3106 -0.9032  0.4782
  301MOL0     H40623   2.129   4.406   9.122 -1.3640  0.8043  0.4063
  301MOL0     H40624   1.921   4.463   9.246 -1.3427 -0.1090 -0.0457
  301MOL0     H40625   1.746   4.545   9.305 -0.3461 -1.1550  1.7043
  301MOL0     H40626   1.612   4.558   9.194  0.1125 -2.2473 -1.1807
  301MOL0     H40627   1.533   4.565   9.429 -2.0873 -0.9862  0.2360
  301MOL0     H40628   1.641   4.428   9.475  0.0465  1.0251  0.5627
  301MOL0     H40629   1.428   4.343   9.488 -2.0577  1.3717  0.3122
  301MOL0     H40630   1.509   4.278   9.349 -1.2655 -0.1251  0.5587
  301MOL0     H40631   1.300   4.314   9.272  3.5913 -2.2697  1.8694
  301MOL0     H40632   1.388   4.445   9.204 -1.0643 -2.2935 -1.3062
  301MOL0     H40633   1.105   4.611   9.490 -0.2615  1.7848 -2.7466
  301MOL0     H40634   1.693   4.199   8.997 -0.5780 -0.5703  0.1970
  301MOL0     H40635   1.899   4.119   8.888  1.3475 -1.1077  1.8276
  302MOL0     O40636   3.005   3.918   1.814  0.1302 -0.0212 -0.4821
  302MOL0     C40637   2.900   3.944   1.756  1.1259  0.0969  0.1797
  302MOL0     O40638   2.885   3.947   1.628 -0.4832  0.6921  0.0201
  302MOL0     C40639   2.981   3.901   1.548  0.8950 -0.3111  0.6622
  302MOL0     C40640   3.057   3.996   1.470 -0.0733  0.6647  0.1538
  302MOL0     C40641   3.170   3.959   1.389  0.2064  0.2360 -0.2599
  302MOL0     C40642   3.209   3.825   1.374 -0.0405 -0.6475 -0.7775
  302MOL0     O40643   3.312   3.803   1.284 -0.1831 -0.7883  0.2393
  302MOL0     C40644   3.308   3.668   1.236 -0.4118 -0.5542 -0.0976
  302MOL0     C40645   3.373   3.658   1.098  0.7080 -0.7481 -0.9976
  302MOL0     C40646   3.524   3.699   1.120  0.0047  0.3076 -1.2350
  302MOL0     C40647   3.597   3.645   1.001 -0.7807  0.1648 -0.3752
  302MOL0     C40648   3.750   3.647   1.027  0.3020 -0.9541  0.3938
  302MOL0     C40649   3.816   3.519   0.979 -0.7034  0.2358 -0.3608
  302MOL0     C40650   3.953   3.512   1.041  0.6656  0.2418  0.9239
  302MOL0     C40651   4.022   3.380   1.004 -0.5231  0.7946 -0.0150
  302MOL0     N40652   3.961   3.253   1.047  0.6997  0.4880 -0.3663
  302MOL0     C40653   3.928   3.225   1.179 -0.0048 -0.4536 -0.6447
  302MOL0     C40654   3.866   3.104   1.173 -0.2274 -1.1232 -0.2792
  302MOL0     C40655   3.814   3.020   1.287  0.3012 -0.0632 -0.1156
  302MOL0     C40656   3.724   2.904   1.249 -0.3274  0.0752  0.0582
  302MOL0     C40657   3.660   2.838   1.378  0.1246  0.1815  0.4566
  302MOL0     C40658   3.514   2.878   1.404 -0.5173 -0.2291  0.2487
  302MOL0     O40659   3.470   2.791   1.514 -0.0876  0.6832 -0.1767
  302MOL0     C40660   3.355   2.823   1.580 -0.4449  0.4739  0.0984
  302MOL0     C40661   3.244   2.851   1.515  0.4466 -0.4770  0.1977
  302MOL0     C40662   3.125   2.877   1.583 -0.2820 -0.0505  0.2522
  302MOL0     C40663   2.998   2.874   1.508 -0.2749  0.6588  0.1905
  302MOL0     C40664   3.132   2.894   1.721  0.9820 -1.2683 -1.4259
  302MOL0     C40665   3.012   2.920   1.818  0.7523 -0.2023  1.4194
  302MOL0     O40666   2.889   2.921   1.761 -0.4189  0.0129  0.7958
  302MOL0     C40667   2.783   2.956   1.845  0.7847  0.2000  0.1799
  302MOL0     C40668   2.667   2.882   1.841 -0.3869 -0.5630  0.5928
  302MOL0     C40669   2.546   2.921   1.902  0.0174 -0.0215 -0.4506
  302MOL0     C40670   2.548   3.020   1.995  1.1542 -0.6854 -0.1666
  302MOL0     O40671   2.431   3.065   2.052 -0.0624  0.6509 -0.3877
  302MOL0     C40672   2.305   3.033   1.995  0.1790  0.2921  0.0342
  302MOL0     C40673   2.195   3.089   2.081 -0.7930 -0.3193  0.3557
  302MOL0     C40674   2.051   3.072   2.029 -0.5597  0.3955 -0.1231
  302MOL0     C40675   2.000   3.184   1.935  0.3734  0.8193  0.1003
  302MOL0     C40676   2.092   3.253   1.832 -0.0968  0.0543  0.6974
  302MOL0     C40677   2.007   3.324   1.735  0.2849  0.2104  0.0305
  302MOL0     C40678   2.093   3.395   1.631 -0.2343 -0.2351 -0.5474
  302MOL0     C40679   1.989   3.482   1.541 -0.1415 -1.0778 -0.5106
  302MOL0    Cl40680   1.883   3.590   1.625  0.3629 -0.3975  0.2884
  302MOL0     C40681   2.663   3.093   2.014 -0.0770  0.1293 -0.2708
  302MOL0     C40682   2.777   3.065   1.932  0.3894 -0.5742  0.5342
  302MOL0     O40683   3.030   2.924   1.937  0.3994 -0.4764  0.5274
  302MOL0     C40684   3.252   2.879   1.786 -0.4020 -0.1245 -0.4048
  302MOL0     C40685   3.362   2.822   1.718 -0.5736 -0.8922  0.3857
  302MOL0     N40686   3.846   3.076   1.037 -0.0208 -0.9163 -1.2695
  302MOL0     N40687   3.901   3.161   0.970  0.5450 -0.4211 -1.6084
  302MOL0     C40688   3.128   3.728   1.443 -0.5718  0.5749 -0.2344
  302MOL0     C40689   3.025   3.772   1.537  0.1774 -0.4101 -0.4914
  302MOL0     C40690   2.784   3.985   1.843  0.2990  0.3363 -0.3181
  302MOL0     C40691   2.794   4.039   1.972  0.6158  0.4479 -0.1387
  302MOL0     C40692   2.676   4.067   2.052 -0.4728 -0.0443  0.9485
  302MOL0     C40693   2.549   4.051   1.991  0.7326  0.1220  0.0646
  302MOL0     O40694   2.424   4.073   2.046 -1.1250  0.5730 -0.0974
  302MOL0     C40695   2.413   4.141   2.172  0.3032 -0.5814 -1.0013
  302MOL0     C40696   2.461   4.290   2.174  0.5698  0.3386  0.2449
  302MOL0     C40697   2.351   4.372   2.101  0.1834  0.2306  0.3881
  302MOL0     C40698   2.211   4.385   2.178  0.9635 -0.6517  1.1467
  302MOL0     C40699   2.128   4.495   2.122 -0.9564  0.3964 -0.7300
  302MOL0     C40700   2.067   4.590   2.086  0.2095  0.0753 -0.5594
  302MOL0     C40701   2.546   3.997   1.860 -0.1520 -0.3663 -0.9617
  302MOL0     C40702   2.658   3.966   1.787  0.2176 -1.0699  0.2535
  302MOL0     H40703   3.039   4.101   1.491 -0.0353  1.3111 -2.6359
  302MOL0     H40704   3.216   4.027   1.318  0.3078  0.8391  0.3708
  302MOL0     H40705   3.363   3.599   1.301  0.7112  0.5222  0.1119
  302MOL0     H40706   3.207   3.626   1.226 -1.2679  1.9915 -5.0254
  302MOL0     H40707   3.359   3.556   1.060  1.9343 -0.6534 -1.7503
  302MOL0     H40708   3.321   3.729   1.034  0.6236  1.4934  1.4127
  302MOL0     H40709   3.527   3.808   1.132 -2.6760  0.4337 -1.1493
  302MOL0     H40710   3.557   3.661   1.218 -1.4367 -0.2163 -0.9180
  302MOL0     H40711   3.561   3.541   0.999  1.0083 -0.4712 -2.3847
  302MOL0     H40712   3.561   3.693   0.910 -5.9182 -0.0462  1.2298
  302MOL0     H40713   3.781   3.736   0.971 -3.1231 -0.3195 -0.7041
  302MOL0     H40714   3.771   3.664   1.133  0.5944  1.7432 -0.0342
  302MOL0     H40715   3.753   3.440   1.022 -1.8509  1.2248 -0.1659
  302MOL0     H40716   3.814   3.516   0.870  0.8522 -3.4205 -0.4042
  302MOL0     H40717   4.017   3.593   1.003  0.8103 -0.4288 -0.3027
  302MOL0     H40718   3.951   3.510   1.151  2.3658 -2.5014  0.9960
  302MOL0     H40719   4.126   3.384   1.036 -0.4913  3.0577 -0.2561
  302MOL0     H40720   4.040   3.364   0.897  0.1471 -0.0944  0.2216
  302MOL0     H40721   3.949   3.282   1.269  1.4011 -0.4169 -0.9725
  302MOL0     H40722   3.895   2.987   1.352  1.2729 -0.2779 -1.4047
  302MOL0     H40723   3.752   3.084   1.351 -1.9987 -0.2271 -2.0375
  302MOL0     H40724   3.790   2.837   1.193  1.1295  2.5379 -1.3349
  302MOL0     H40725   3.643   2.930   1.181  0.0001  0.4354 -0.1962
  302MOL0     H40726   3.714   2.854   1.472 -5.1333  1.8678  3.6246
  302MOL0     H40727   3.651   2.730   1.360  2.5784 -0.0174  0.1389
  302MOL0     H40728   3.456   2.863   1.312 -1.3841 -1.9826  1.0373
  302MOL0     H40729   3.509   2.984   1.429  3.0704 -0.1161  1.0725
  302MOL0     H40730   3.244   2.831   1.409  1.7625 -2.5825  0.5315
  302MOL0     H40731   2.921   2.828   1.572  0.9060  0.6770  1.6916
  302MOL0     H40732   2.977   2.978   1.482  0.1855  0.3660 -1.4124
  302MOL0     H40733   3.016   2.819   1.415  0.4287  1.1973  0.0057
  302MOL0     H40734   2.676   2.794   1.779  1.0994 -2.1049  2.8546
  302MOL0     H40735   2.459   2.863   1.876 -1.1318  1.6935 -0.6065
  302MOL0     H40736   2.293   3.069   1.893  2.0357 -0.2588 -0.4085
  302MOL0     H40737   2.298   2.924   2.005 -3.3790  0.2628 -1.2443
  302MOL0     H40738   2.194   3.039   2.178 -1.5345 -0.3498  0.3341
  302MOL0     H40739   2.223   3.194   2.091  0.7746 -0.5282 -1.2109
  302MOL0     H40740   1.976   3.050   2.106 -1.0260  1.8981 -0.1225
  302MOL0     H40741   2.062   2.988   1.959  3.1531 -0.3026  1.0795
  302MOL0     H40742   1.915   3.139   1.884 -0.3362  1.7468  0.4461
  302MOL0     H40743   1.958   3.268   1.991 -2.5027  2.3661 -3.9202
  302MOL0     H40744   2.147   3.173   1.783  0.0911 -2.2325  4.2471
  302MOL0     H40745   2.165   3.310   1.890 -0.0961  2.7631 -1.7762
  302MOL0     H40746   1.947   3.244   1.690  0.4385 -0.3645  0.8202
  302MOL0     H40747   1.943   3.394   1.790  0.6236 -0.0138  0.7249
  302MOL0     H40748   2.142   3.327   1.560 -1.5188 -0.5502 -1.1611
  302MOL0     H40749   2.169   3.458   1.678  1.3556 -2.6780  0.3595
  302MOL0     H40750   1.923   3.409   1.494 -1.9037  1.7907 -2.8412
  302MOL0     H40751   2.055   3.547   1.483 -0.3528  1.1583  1.6131
  302MOL0     H40752   2.665   3.169   2.091  2.2124  1.4945 -1.5526
  302MOL0     H40753   2.857   3.138   1.941  0.7669 -1.0860  1.4876
  302MOL0     H40754   3.262   2.906   1.891 -2.6683  0.4211 -0.2730
  302MOL0     H40755   3.451   2.808   1.779  0.1818 -0.9988 -0.7162
  302MOL0     H40756   3.155   3.623   1.435  3.5625  1.5678 -2.5169
  302MOL0     H40757   2.966   3.706   1.600 -2.2249  2.2571  0.2871
  302MOL0     H40758   2.888   4.044   2.026  0.2923 -0.3423  0.5176
  302MOL0     H40759   2.686   4.095   2.157  0.5019  1.7996  0.4202
  302MOL0     H40760   2.309   4.132   2.204  1.0907 -1.5180  1.4741
  302MOL0     H40761   2.473   4.087   2.245 -1.0075 -0.3016  0.3195
  302MOL0     H40762   2.551   4.305   2.114  0.7321  0.0565  0.4208
  302MOL0     H40763   2.469   4.313   2.281 -2.7616 -0.2997  0.7570
  302MOL0     H40764   2.335   4.332   2.000  1.0284  1.8724 -0.4447
  302MOL0     H40765   2.390   4.473   2.087  0.8832 -0.0179  0.4874
  302MOL0     H40766   2.240   4.393   2.283  2.7764  0.7143  0.6023
  302MOL0     H40767   2.147   4.297   2.169 -1.5253  0.7266  3.8175
  302MOL0     H40768   2.019   4.670   2.034 -0.1769 -0.4303 -0.9915
  302MOL0     H40769   2.452   3.986   1.807 -1.0524  0.4301  0.4092
  302MOL0     H40770   2.647   3.922   1.688 -0.9380 -1.1380  0.3972
  303MOL0     O40771   1.363   8.553   7.071  0.0089  0.0853  0.4468
  303MOL0     C40772   1.401   8.455   7.006 -0.3618 -0.2099 -0.0937
  303MOL0     O40773   1.530   8.420   7.012 -0.6595  0.0715  0.1337
  303MOL0     C40774   1.621   8.472   7.097  0.2601 -0.3663  0.0924
  303MOL0     C40775   1.657   8.392   7.211  0.1717  0.5048 -0.4670
  303MOL0     C40776   1.740   8.438   7.306  0.3762 -0.5444 -0.0153
  303MOL0     C40777   1.807   8.553   7.292  0.4447 -0.2678  0.0238
  303MOL0     O40778   1.901   8.599   7.380  0.2296 -0.6616 -0.0994
  303MOL0     C40779   1.889   8.549   7.511  0.0224  0.4773  0.4499
  303MOL0     C40780   1.983   8.630   7.598  0.4246  0.3535  0.0364
  303MOL0     C40781   2.136   8.640   7.555 -0.0499 -0.4161 -0.3350
  303MOL0     C40782   2.223   8.708   7.667  0.1060 -0.1805  0.6259
  303MOL0     C40783   2.244   8.614   7.791 -0.6114  0.7588  0.0666
  303MOL0     C40784   2.342   8.667   7.888 -1.1051  0.1549 -0.8009
  303MOL0     C40785   2.484   8.624   7.851  0.7629  0.3697 -0.3375
  303MOL0     C40786   2.560   8.713   7.750  0.5508 -1.3476  1.0099
  303MOL0     N40787   2.568   8.860   7.776  1.1558 -0.3142 -0.5799
  303MOL0     C40788   2.648   8.908   7.874 -0.0228  0.6174 -0.0005
  303MOL0     C40789   2.636   9.040   7.864 -0.3720  0.2826  0.5230
  303MOL0     C40790   2.709   9.122   7.966  0.1041  0.2767  0.7227
  303MOL0     C40791   2.680   9.090   8.115  0.7082 -0.0139  0.1876
  303MOL0     C40792   2.537   9.091   8.166 -1.0283 -1.0211 -0.6022
  303MOL0     C40793   2.498   9.240   8.177 -0.2289  0.3172  0.2629
  303MOL0     O40794   2.365   9.257   8.209 -0.2559 -0.3094  0.3277
  303MOL0     C40795   2.274   9.228   8.110 -0.1208  0.2662 -1.7563
  303MOL0     C40796   2.144   9.237   8.158 -0.3651  0.0982 -0.5894
  303MOL0     C40797   2.031   9.221   8.078 -0.1492 -0.5070  0.4666
  303MOL0     C40798   1.899   9.263   8.135 -0.1461 -0.2085 -0.4405
  303MOL0     C40799   2.054   9.170   7.945 -0.2648 -0.3576 -0.5676
  303MOL0     C40800   1.950   9.120   7.858 -0.3271  0.8390 -0.6058
  303MOL0     O40801   1.993   9.054   7.746  0.6171  0.0674 -0.6769
  303MOL0     C40802   1.900   9.022   7.646 -0.0766 -0.0106 -0.8291
  303MOL0     C40803   1.776   8.968   7.664 -0.2373 -0.2628  0.2960
  303MOL0     C40804   1.688   8.927   7.562  0.3934  1.0400 -0.0258
  303MOL0     C40805   1.731   8.944   7.435 -0.1210  1.3676 -0.6142
  303MOL0     O40806   1.668   8.894   7.330  0.5194  0.3812 -0.1291
  303MOL0     C40807   1.585   8.995   7.258 -0.6924  0.1421 -0.1112
  303MOL0     C40808   1.478   8.949   7.163  0.7004  0.5682 -0.5890
  303MOL0     C40809   1.345   8.941   7.243 -0.5027 -0.2164  0.2855
  303MOL0     C40810   1.231   8.898   7.144 -0.4628  0.2757 -0.3942
  303MOL0     C40811   1.098   8.880   7.216  0.4081 -0.2470  0.2526
  303MOL0     C40812   0.982   8.880   7.110 -0.3028 -0.5039  0.0783
  303MOL0     C40813   0.857   8.843   7.185 -0.3389 -0.0357 -0.4403
  303MOL0     C40814   0.743   8.842   7.086  0.1754 -0.7697 -0.2451
  303MOL0    Cl40815   0.579   8.809   7.172  0.4394 -0.0866  0.3113
  303MOL0     C40816   1.860   9.001   7.413  0.2233  0.1610  0.7031
  303MOL0     C40817   1.942   9.043   7.511  0.3574  0.3154  0.2583
  303MOL0     O40818   1.833   9.151   7.876 -0.7179 -0.2537  1.2647
  303MOL0     C40819   2.187   9.155   7.897  0.5415 -0.6782  0.2943
  303MOL0     C40820   2.288   9.191   7.981 -0.1057  0.7274  0.5957
  303MOL0     N40821   2.545   9.073   7.771  0.2638 -0.1238 -0.3471
  303MOL0     N40822   2.503   8.961   7.713 -0.2684 -0.4737 -0.0548
  303MOL0     C40823   1.775   8.634   7.183  0.3185  0.5080  0.8684
  303MOL0     C40824   1.678   8.599   7.081  0.6953  0.3321 -0.6220
  303MOL0     C40825   1.324   8.408   6.889 -0.6141 -0.1889  0.1398
  303MOL0     C40826   1.185   8.449   6.870 -0.1142  0.1267 -0.5762
  303MOL0     C40827   1.117   8.416   6.758  0.4170  0.5575  0.4681
  303MOL0     C40828   1.166   8.318   6.671 -0.3907  0.1984  0.3490
  303MOL0     O40829   1.096   8.269   6.562 -0.0183  0.9047  0.1159
  303MOL0     C40830   0.952   8.278   6.570  0.0388 -0.6781 -0.1813
  303MOL0     C40831   0.884   8.215   6.448 -0.0692  0.0177  0.2518
  303MOL0     C40832   0.923   8.077   6.418 -0.1414 -0.1572 -0.3820
  303MOL0     C40833   0.913   8.045   6.269 -0.1724  0.5965  0.2680
  303MOL0     C40834   0.772   8.050   6.238 -0.4273  0.2032  0.4096
  303MOL0     C40835   0.656   8.066   6.220  0.4493 -0.6336 -0.3826
  303MOL0     C40836   1.294   8.262   6.693 -0.1983 -0.1870 -0.1716
  303MOL0     C40837   1.371   8.308   6.801 -0.4236  0.1949 -1.6132
  303MOL0     H40838   1.618   8.293   7.231  2.8477 -0.6059 -0.2964
  303MOL0     H40839   1.777   8.361   7.372  0.4876  0.9858  1.7764
  303MOL0     H40840   1.790   8.552   7.556  0.2413 -0.0075  0.9704
  303MOL0     H40841   1.928   8.447   7.500  3.3363  1.4936  1.4607
  303MOL0     H40842   1.928   8.721   7.624 -0.3238 -0.6334  2.1130
  303MOL0     H40843   1.990   8.578   7.693  0.0049 -0.2033 -0.2310
  303MOL0     H40844   2.187   8.549   7.521  1.4323  0.5710 -0.8480
  303MOL0     H40845   2.144   8.715   7.476  2.3738 -0.2778 -0.0227
  303MOL0     H40846   2.318   8.720   7.614  0.0402 -2.5347 -0.1243
  303MOL0     H40847   2.175   8.803   7.696 -2.8037 -0.9712 -1.1524
  303MOL0     H40848   2.152   8.589   7.845 -0.6516 -0.7212 -0.6265
  303MOL0     H40849   2.287   8.524   7.746 -0.9767  0.9495 -0.6795
  303MOL0     H40850   2.334   8.776   7.890 -0.9420  0.1589  0.3897
  303MOL0     H40851   2.325   8.617   7.984  2.2598  0.6318  0.1643
  303MOL0     H40852   2.530   8.595   7.946 -0.7931 -1.4845 -0.0913
  303MOL0     H40853   2.494   8.525   7.805 -1.2632 -0.1608  0.2861
  303MOL0     H40854   2.513   8.704   7.652  2.8368 -4.1180  0.0318
  303MOL0     H40855   2.660   8.677   7.726  0.7568  1.0631 -2.6338
  303MOL0     H40856   2.707   8.852   7.945 -0.8333 -0.0495  0.1677
  303MOL0     H40857   2.815   9.114   7.938 -0.8696  0.5364 -3.9750
  303MOL0     H40858   2.680   9.225   7.943 -0.0737 -0.0591 -0.7003
  303MOL0     H40859   2.748   9.156   8.169  1.7705  0.2215 -1.3449
  303MOL0     H40860   2.720   8.991   8.142  0.9884 -0.0559 -0.3552
  303MOL0     H40861   2.535   9.047   8.266  0.3001  2.4723  1.1623
  303MOL0     H40862   2.471   9.036   8.099 -0.8695 -2.5465  0.4462
  303MOL0     H40863   2.522   9.293   8.084 -1.2156  1.6890  0.7513
  303MOL0     H40864   2.569   9.288   8.245 -0.9374  0.6432  0.7878
  303MOL0     H40865   2.133   9.269   8.261  0.2658  0.3097 -0.5876
  303MOL0     H40866   1.918   9.318   8.228 -0.5277  0.0886 -0.5366
  303MOL0     H40867   1.840   9.325   8.068  0.3580  1.7042  0.7985
  303MOL0     H40868   1.839   9.174   8.160 -0.3631 -0.5146 -1.9908
  303MOL0     H40869   1.741   8.952   7.765  4.4254 -0.7655  2.0798
  303MOL0     H40870   1.598   8.866   7.573  1.7276 -1.0629 -0.1780
  303MOL0     H40871   1.540   9.051   7.341 -1.0166 -0.4149  0.0930
  303MOL0     H40872   1.656   9.063   7.210 -2.0490  1.6576 -0.0777
  303MOL0     H40873   1.472   9.005   7.069  0.5606 -1.3616 -1.8084
  303MOL0     H40874   1.499   8.845   7.135  0.7139  0.4063  0.0045
  303MOL0     H40875   1.324   9.040   7.286  1.5813  0.7925 -0.8999
  303MOL0     H40876   1.347   8.871   7.327  1.1674  1.2219  1.5071
  303MOL0     H40877   1.230   8.984   7.076  1.0715  0.3020 -0.4117
  303MOL0     H40878   1.264   8.804   7.098 -1.6595  0.0120 -0.7397
  303MOL0     H40879   1.088   8.964   7.285 -0.4634 -0.0313 -0.1278
  303MOL0     H40880   1.090   8.783   7.265 -3.9459 -0.1217  0.1806
  303MOL0     H40881   0.977   8.987   7.088  0.7504 -0.2542  0.9698
  303MOL0     H40882   0.998   8.830   7.014  1.8876  1.3427 -0.6205
  303MOL0     H40883   0.840   8.914   7.267  1.5182 -0.3365  0.2628
  303MOL0     H40884   0.857   8.738   7.217  1.3856  0.1467  0.3118
  303MOL0     H40885   0.757   8.764   7.011  1.6746 -1.5616  0.8031
  303MOL0     H40886   0.729   8.941   7.041  0.4191 -1.1322 -1.1355
  303MOL0     H40887   1.900   9.002   7.312 -0.0725 -3.6836  0.4260
  303MOL0     H40888   2.045   9.073   7.497  0.9016 -2.0780 -1.3614
  303MOL0     H40889   2.203   9.130   7.792  0.7491  2.3263 -0.4693
  303MOL0     H40890   2.391   9.181   7.950  0.2063  3.9405  0.2983
  303MOL0     H40891   1.813   8.735   7.178 -1.7562  1.4532  2.7583
  303MOL0     H40892   1.659   8.661   6.995  3.4023  1.8407 -0.2367
  303MOL0     H40893   1.138   8.506   6.950  0.6081 -1.9220  1.3942
  303MOL0     H40894   1.016   8.452   6.741  0.2211 -0.9625 -2.1316
  303MOL0     H40895   0.914   8.245   6.668  0.0175  1.2753  0.5045
  303MOL0     H40896   0.924   8.383   6.556 -2.4518 -1.4172 -1.2842
  303MOL0     H40897   0.899   8.281   6.361 -0.3892 -0.3863 -0.1181
  303MOL0     H40898   0.774   8.213   6.452 -0.0699  1.1938  1.6248
  303MOL0     H40899   0.855   8.009   6.470 -1.3245  1.3541  0.1322
  303MOL0     H40900   1.021   8.043   6.453 -0.9679 -2.7605 -0.3685
  303MOL0     H40901   0.959   7.946   6.256  0.3994  0.9451 -0.4077
  303MOL0     H40902   0.960   8.120   6.206 -1.3824  0.7320 -0.5183
  303MOL0     H40903   0.549   8.066   6.222  0.4323 -0.6460 -1.0639
  303MOL0     H40904   1.328   8.181   6.630  0.2374  1.4119 -2.0937
  303MOL0     H40905   1.468   8.262   6.814 -0.4565  0.8284  1.9683
  304MOL0     O40906   4.527   0.417   0.122  0.0051  0.1570 -0.4931
  304MOL0     C40907   4.591   0.308   0.114  0.1724  0.3277 -0.6289
  304MOL0     O40908   4.705   0.287   0.168 -0.3265  0.0557 -0.0476
  304MOL0     C40909   4.764   0.379   0.252 -0.1970  0.1823  0.6771
  304MOL0     C40910   4.788   0.518   0.233 -0.2992  0.2909  0.1094
  304MOL0     C40911   4.850   0.609   0.324  0.3748  0.4113  0.9387
  304MOL0     C40912   4.894   0.543   0.438 -0.2791 -0.3247 -0.8352
  304MOL0     O40913   4.951   0.616   0.542 -0.3360 -0.0950  0.8260
  304MOL0     C40914   5.019   0.745   0.515  0.3396  0.2331  0.3418
  304MOL0     C40915   5.128   0.759   0.617 -0.8743  0.4288  0.2743
  304MOL0     C40916   5.241   0.654   0.605 -0.6170 -0.4857 -0.3845
  304MOL0     C40917   5.353   0.651   0.717  1.4072  0.7473 -0.2689
  304MOL0     C40918   5.414   0.783   0.745  0.0043 -0.5580 -0.5095
  304MOL0     C40919   5.506   0.773   0.875  0.7697 -0.4248 -0.8163
  304MOL0     C40920   5.645   0.716   0.842 -1.3334 -0.3098 -0.3809
  304MOL0     C40921   5.725   0.674   0.968 -0.5589 -0.5118 -0.2403
  304MOL0     N40922   5.742   0.769   1.072 -0.4905 -0.3788 -0.2221
  304MOL0     C40923   5.834   0.869   1.076  0.3805 -0.0626  0.7199
  304MOL0     C40924   5.847   0.907   1.207 -0.1284 -0.7866 -0.0994
  304MOL0     C40925   5.940   1.017   1.250  0.0400 -0.1817  0.1945
  304MOL0     C40926   6.093   0.973   1.243 -0.2821 -0.0747  0.0241
  304MOL0     C40927   6.200   1.077   1.294  0.8262 -0.3918  0.6306
  304MOL0     C40928   6.330   1.010   1.257  0.3954 -0.2895 -0.8491
  304MOL0     O40929   6.429   1.106   1.290 -0.1042  0.3715 -0.3069
  304MOL0     C40930   6.561   1.076   1.260 -0.0300 -0.0911  0.0589
  304MOL0     C40931   6.614   0.962   1.194  0.8831 -0.0812  0.1296
  304MOL0     C40932   6.751   0.953   1.163  0.6750  1.2700  0.4040
  304MOL0     C40933   6.796   0.825   1.082  0.3973  0.0618  0.7160
  304MOL0     C40934   6.847   1.035   1.229  0.9253  0.3453 -0.6409
  304MOL0     C40935   6.995   1.026   1.234 -0.0650  0.3503  0.1794
  304MOL0     O40936   7.058   1.133   1.292  0.0139 -0.0514  0.3700
  304MOL0     C40937   7.194   1.131   1.279  0.3340  1.1544  0.3307
  304MOL0     C40938   7.276   1.058   1.363  0.5683  0.2044 -0.0059
  304MOL0     C40939   7.412   1.091   1.372  0.7858 -0.0057  0.7774
  304MOL0     C40940   7.477   1.163   1.269  0.7606 -0.5637  0.7019
  304MOL0     O40941   7.608   1.186   1.251 -0.4288 -0.0389  0.4903
  304MOL0     C40942   7.704   1.119   1.336 -0.4464 -0.8716  0.4674
  304MOL0     C40943   7.840   1.119   1.255  0.3752 -0.2563  0.0070
  304MOL0     C40944   7.896   1.249   1.206 -0.5181  0.5452  0.3158
  304MOL0     C40945   7.957   1.337   1.317 -0.4725 -0.8826  0.9922
  304MOL0     C40946   7.979   1.487   1.274 -0.5056  0.9597  0.2156
  304MOL0     C40947   8.060   1.487   1.149 -0.5407 -0.2740  0.3493
  304MOL0     C40948   8.207   1.437   1.169 -0.1452 -0.2784 -0.6898
  304MOL0     C40949   8.296   1.458   1.043  0.0462 -0.4728 -0.0838
  304MOL0    Cl40950   8.419   1.333   1.035  0.1440  0.2282  0.0833
  304MOL0     C40951   7.390   1.229   1.177 -0.1600  0.1804  0.2341
  304MOL0     C40952   7.248   1.217   1.176  0.4662  0.2208 -0.1386
  304MOL0     O40953   7.048   0.926   1.188 -0.4712 -0.3969  0.2194
  304MOL0     C40954   6.792   1.151   1.299 -0.5973  0.4509  0.0508
  304MOL0     C40955   6.657   1.158   1.314 -0.0521 -0.0752 -0.5645
  304MOL0     N40956   5.768   0.828   1.287  0.3143  0.8653  0.5723
  304MOL0     N40957   5.703   0.748   1.203 -1.0024  0.5908 -0.2071
  304MOL0     C40958   4.870   0.408   0.471  0.0352 -0.4155 -0.4533
  304MOL0     C40959   4.820   0.328   0.366 -0.4121 -0.3446  0.5974
  304MOL0     C40960   4.526   0.198   0.064 -0.0608  0.8872  0.3926
  304MOL0     C40961   4.550   0.067   0.105 -0.0989  0.2735 -0.0793
  304MOL0     C40962   4.477  -0.045   0.051  0.1202 -0.3737  0.2364
  304MOL0     C40963   4.375  -0.026  -0.032 -0.0396 -0.6112  0.2541
  304MOL0     O40964   4.289  -0.129  -0.082 -0.5024 -0.4421 -0.5354
  304MOL0     C40965   4.317  -0.267  -0.045  0.0115 -0.2393 -0.2053
  304MOL0     C40966   4.274  -0.359  -0.157 -0.2837 -1.2712  0.7848
  304MOL0     C40967   4.292  -0.506  -0.127  0.6743 -0.3795 -0.3872
  304MOL0     C40968   4.195  -0.553  -0.023 -0.4900 -0.7775 -0.1603
  304MOL0     C40969   4.060  -0.558  -0.079  0.5009  0.2592 -0.3707
  304MOL0     C40970   3.948  -0.564  -0.132 -0.6344 -0.0634 -0.3321
  304MOL0     C40971   4.352   0.106  -0.076 -0.0580  0.2291  0.0898
  304MOL0     C40972   4.428   0.214  -0.033  0.1425 -0.0656 -1.1546
  304MOL0     H40973   4.773   0.570   0.139  0.2436 -0.7708 -0.5803
  304MOL0     H40974   4.864   0.709   0.284  1.8041 -1.1925 -3.2035
  304MOL0     H40975   5.055   0.740   0.412 -1.9599  2.1217 -0.6331
  304MOL0     H40976   4.948   0.827   0.531 -0.5961 -1.2035  5.9457
  304MOL0     H40977   5.167   0.861   0.608 -1.0662  0.5428  0.6941
  304MOL0     H40978   5.093   0.762   0.721 -1.0891  1.2851  0.1872
  304MOL0     H40979   5.187   0.559   0.611 -2.2680  0.3774 -1.1090
  304MOL0     H40980   5.296   0.663   0.511  3.0493  1.8519  1.7074
  304MOL0     H40981   5.293   0.610   0.799  1.6503  1.7466  0.4300
  304MOL0     H40982   5.441   0.586   0.704  1.0705 -0.3919  2.3648
  304MOL0     H40983   5.480   0.817   0.665  0.3521 -0.6182 -0.2492
  304MOL0     H40984   5.331   0.854   0.752 -0.5637 -1.2461 -0.0508
  304MOL0     H40985   5.525   0.871   0.920  1.8645 -1.4139  0.9647
  304MOL0     H40986   5.447   0.719   0.949  1.2579  1.3369  0.9301
  304MOL0     H40987   5.628   0.634   0.772 -1.9813  2.5152 -3.8582
  304MOL0     H40988   5.715   0.781   0.788  0.9669 -0.7177  1.9091
  304MOL0     H40989   5.825   0.648   0.930 -0.7661 -0.3216 -0.9330
  304MOL0     H40990   5.677   0.587   1.012 -2.8344  0.0229 -1.5269
  304MOL0     H40991   5.889   0.899   0.987 -1.1761  1.7402  0.2849
  304MOL0     H40992   5.916   1.092   1.174 -1.4182 -3.3026 -2.6651
  304MOL0     H40993   5.910   1.059   1.347 -0.2287 -0.3124  0.1678
  304MOL0     H40994   6.116   0.938   1.142  2.2320  0.7530  0.2317
  304MOL0     H40995   6.109   0.883   1.304  0.9310 -0.2561 -0.5375
  304MOL0     H40996   6.196   1.111   1.397  0.9326  0.2173  0.4352
  304MOL0     H40997   6.191   1.164   1.229  3.0272 -1.4151 -1.1943
  304MOL0     H40998   6.332   0.996   1.149 -4.0085  1.0609 -1.3000
  304MOL0     H40999   6.342   0.917   1.313 -0.7377 -0.4206 -0.7906
  304MOL0     H41000   6.547   0.892   1.146 -0.2451  2.1994 -1.8570
  304MOL0     H41001   6.712   0.764   1.049 -1.1991  0.3685  3.9059
  304MOL0     H41002   6.854   0.849   0.992  0.0503  0.9967  0.7258
  304MOL0     H41003   6.856   0.755   1.141  0.6679 -0.6186 -0.3496
  304MOL0     H41004   7.230   0.995   1.439 -0.1291  0.1518 -0.4587
  304MOL0     H41005   7.471   1.045   1.451  3.6672  1.4905 -0.3563
  304MOL0     H41006   7.703   1.174   1.431 -1.4692  0.8387 -0.4880
  304MOL0     H41007   7.670   1.016   1.346  1.5340 -1.6979 -0.7729
  304MOL0     H41008   7.913   1.042   1.282  1.3276  0.5308 -0.2862
  304MOL0     H41009   7.797   1.095   1.158 -0.4779  0.5392  0.1738
  304MOL0     H41010   7.810   1.302   1.163  0.7984  2.2515 -0.3154
  304MOL0     H41011   7.974   1.227   1.133  1.0241  0.6096  1.8740
  304MOL0     H41012   7.881   1.345   1.396  0.4318 -0.3380  1.8341
  304MOL0     H41013   8.052   1.293   1.350 -0.3422 -1.6697 -0.3683
  304MOL0     H41014   8.043   1.538   1.346  3.3007 -2.0463 -0.7043
  304MOL0     H41015   7.884   1.539   1.262 -0.8427  0.9449  2.4622
  304MOL0     H41016   8.002   1.427   1.078 -0.1819  1.6201 -1.6483
  304MOL0     H41017   8.062   1.588   1.107  1.8089 -1.4817 -2.8941
  304MOL0     H41018   8.193   1.332   1.197  3.9657 -0.5151  1.2057
  304MOL0     H41019   8.249   1.478   1.261 -1.3156 -1.2415  0.2992
  304MOL0     H41020   8.346   1.555   1.040 -1.6430  0.4329 -0.9069
  304MOL0     H41021   8.237   1.449   0.951 -0.2011 -1.0935  0.1279
  304MOL0     H41022   7.431   1.295   1.102 -0.1861  0.0919  0.1403
  304MOL0     H41023   7.183   1.271   1.108 -1.3814 -1.2289  0.3801
  304MOL0     H41024   6.858   1.222   1.349 -0.3933  1.3547 -1.4309
  304MOL0     H41025   6.632   1.250   1.367  0.4458  0.8862 -1.9324
  304MOL0     H41026   4.900   0.374   0.569 -0.9489 -0.2104 -0.0677
  304MOL0     H41027   4.803   0.222   0.386 -1.2705 -0.2609  0.3308
  304MOL0     H41028   4.637   0.038   0.164 -0.5032 -0.2569  0.2687
  304MOL0     H41029   4.515  -0.143   0.080  0.6846  0.3050  1.9015
  304MOL0     H41030   4.424  -0.285  -0.031 -0.1884 -2.6407 -1.1938
  304MOL0     H41031   4.264  -0.287   0.048 -0.2309  4.5168  0.9458
  304MOL0     H41032   4.346  -0.339  -0.237 -1.5983  2.4050  0.3333
  304MOL0     H41033   4.173  -0.346  -0.196  0.0082 -1.3725 -0.0316
  304MOL0     H41034   4.392  -0.514  -0.084 -0.0053  5.0335  3.3088
  304MOL0     H41035   4.291  -0.571  -0.214  0.5579 -1.0506  0.1081
  304MOL0     H41036   4.192  -0.499   0.072 -1.5971 -1.1561  0.0341
  304MOL0     H41037   4.230  -0.653   0.004  3.5401  1.0855  2.3745
  304MOL0     H41038   3.845  -0.563  -0.161 -0.1789  0.9682 -2.0934
  304MOL0     H41039   4.276   0.128  -0.150 -1.8411  3.5687  2.6350
  304MOL0     H41040   4.417   0.312  -0.079 -0.5466  0.2065 -0.4414
  305MOL0     O41041   7.778   9.534   2.157  0.4832  0.0031  0.2413
  305MOL0     C41042   7.864   9.501   2.242  0.4701  0.0751 -1.0553
  305MOL0     O41043   7.835   9.427   2.357 -1.0331  0.4820  0.7178
  305MOL0     C41044   7.712   9.383   2.387 -0.0876  0.7931  0.3161
  305MOL0     C41045   7.605   9.471   2.391 -0.9668  0.0588 -0.5051
  305MOL0     C41046   7.480   9.426   2.442 -0.0246  0.3218  1.0591
  305MOL0     C41047   7.456   9.294   2.462  0.0629  0.1114 -0.0350
  305MOL0     O41048   7.340   9.243   2.506 -0.4143  0.5381  0.1657
  305MOL0     C41049   7.245   9.316   2.582  0.1137  0.2243 -0.2043
  305MOL0     C41050   7.135   9.376   2.488 -0.0852  0.5323  0.3556
  305MOL0     C41051   7.073   9.255   2.401 -0.3644  0.2743  0.3752
  305MOL0     C41052   6.955   9.315   2.319  0.0161 -0.0566  0.2589
  305MOL0     C41053   6.876   9.226   2.232  0.5554  0.5096  0.7171
  305MOL0     C41054   6.838   9.103   2.311  0.5789 -1.2391  0.2774
  305MOL0     C41055   6.730   9.023   2.247  0.4382 -0.0878  0.3785
  305MOL0     C41056   6.591   9.080   2.274 -0.0737  0.9543  0.5444
  305MOL0     N41057   6.477   8.993   2.236  0.6947  0.4943  0.4177
  305MOL0     C41058   6.418   8.988   2.112 -0.4338 -0.5055  0.4358
  305MOL0     C41059   6.328   8.884   2.127  0.1248  0.1295 -0.1371
  305MOL0     C41060   6.245   8.824   2.009  0.5293 -0.1562 -0.6182
  305MOL0     C41061   6.097   8.806   2.031  0.4089 -0.2792 -0.3077
  305MOL0     C41062   6.014   8.926   1.989 -0.0720  0.6468  0.5245
  305MOL0     C41063   5.861   8.885   1.974 -0.3535 -0.2965 -0.7244
  305MOL0     O41064   5.795   9.004   1.926 -0.0417 -0.0525 -0.2824
  305MOL0     C41065   5.675   9.002   1.850 -0.2015  0.0296 -1.4995
  305MOL0     C41066   5.589   8.892   1.851 -0.2332  0.2382  0.0528
  305MOL0     C41067   5.472   8.889   1.779  0.6616 -0.5239  0.5213
  305MOL0     C41068   5.374   8.778   1.795  0.5709  0.7632  0.2433
  305MOL0     C41069   5.444   9.007   1.704  0.0073  0.2973 -0.0673
  305MOL0     C41070   5.326   9.030   1.619 -0.2943  0.9301  0.0110
  305MOL0     O41071   5.277   9.156   1.586  0.5236  0.5450  0.7426
  305MOL0     C41072   5.160   9.151   1.513 -0.9483  0.5651  1.2006
  305MOL0     C41073   5.181   9.178   1.375  0.7306  0.9328  1.6378
  305MOL0     C41074   5.073   9.169   1.285 -1.1233 -0.5166 -0.7713
  305MOL0     C41075   4.950   9.130   1.330  0.6727  0.7794  0.4674
  305MOL0     O41076   4.839   9.116   1.253 -0.4285 -0.0590  0.3576
  305MOL0     C41077   4.822   9.160   1.114 -0.1883  0.2270  0.4420
  305MOL0     C41078   4.876   9.042   1.023 -0.6036  0.0794 -0.4977
  305MOL0     C41079   4.827   8.899   1.050 -0.7741 -0.2155  0.7328
  305MOL0     C41080   4.675   8.896   1.034  0.6130  0.8900  0.0119
  305MOL0     C41081   4.601   8.759   1.059 -0.0254 -0.2023  1.0494
  305MOL0     C41082   4.643   8.698   1.201  0.1319  0.0784  0.4730
  305MOL0     C41083   4.624   8.797   1.322 -0.2511 -0.4129  0.1058
  305MOL0     C41084   4.687   8.739   1.446 -0.4388 -0.0116 -0.1599
  305MOL0    Cl41085   4.868   8.750   1.446 -0.6704 -0.2880 -0.2810
  305MOL0     C41086   4.926   9.111   1.472 -0.4856  0.8631 -0.7051
  305MOL0     C41087   5.030   9.115   1.569  0.1209 -1.0167  0.6742
  305MOL0     O41088   5.285   8.932   1.555 -0.3539  0.2952 -0.4203
  305MOL0     C41089   5.532   9.116   1.699 -0.4895 -0.0471 -0.0282
  305MOL0     C41090   5.651   9.110   1.776  0.6437 -0.1134  0.1694
  305MOL0     N41091   6.328   8.833   2.257  1.3807 -0.0122 -1.0813
  305MOL0     N41092   6.432   8.889   2.316 -0.0521  0.8735 -0.2336
  305MOL0     C41093   7.562   9.198   2.447 -0.0246 -0.8223  0.3382
  305MOL0     C41094   7.689   9.252   2.415  0.0356 -0.1481  0.4028
  305MOL0     C41095   8.012   9.513   2.211  0.6261 -0.0679  0.5558
  305MOL0     C41096   8.053   9.586   2.097 -0.3248 -0.3624  0.8795
  305MOL0     C41097   8.191   9.583   2.054  0.8794  0.5537  0.9527
  305MOL0     C41098   8.290   9.520   2.138  0.8086 -0.3702  0.7275
  305MOL0     O41099   8.423   9.515   2.111 -0.1294 -0.3424  0.5624
  305MOL0     C41100   8.477   9.625   2.029  0.8837 -0.3798 -0.9505
  305MOL0     C41101   8.626   9.629   2.058 -0.3940 -0.1441  0.4735
  305MOL0     C41102   8.664   9.648   2.207 -0.5596 -0.0663 -1.0896
  305MOL0     C41103   8.795   9.720   2.218 -0.2167 -0.1710  0.6503
  305MOL0     C41104   8.896   9.687   2.118 -0.0475  0.1902  0.7596
  305MOL0     C41105   8.973   9.654   2.022 -0.3156  1.7397 -0.2747
  305MOL0     C41106   8.239   9.451   2.250 -0.2949 -0.3202 -0.5043
  305MOL0     C41107   8.107   9.445   2.286 -0.2661  0.4711 -0.6942
  305MOL0     H41108   7.625   9.570   2.353  2.3121 -0.9530 -1.7682
  305MOL0     H41109   7.405   9.505   2.444  0.0102  0.5287 -1.6029
  305MOL0     H41110   7.193   9.260   2.660 -0.3366 -2.8357 -2.5167
  305MOL0     H41111   7.282   9.408   2.627  0.7728 -0.1838  0.1084
  305MOL0     H41112   7.057   9.419   2.550 -1.4763 -2.6487  1.0215
  305MOL0     H41113   7.169   9.452   2.417 -3.7404 -0.3390 -2.6449
  305MOL0     H41114   7.152   9.217   2.335 -0.1980 -1.4006  1.4654
  305MOL0     H41115   7.044   9.172   2.467  1.7776  0.1733  1.2940
  305MOL0     H41116   6.879   9.359   2.384 -0.0519 -2.0362  1.5876
  305MOL0     H41117   6.994   9.400   2.262  2.5941  0.5483  2.7380
  305MOL0     H41118   6.780   9.271   2.205 -1.2238 -4.0541 -1.6738
  305MOL0     H41119   6.927   9.199   2.139 -0.7636 -0.4428  0.2332
  305MOL0     H41120   6.922   9.033   2.314  0.0262 -1.9934 -1.1764
  305MOL0     H41121   6.819   9.132   2.415 -0.3872  0.0456 -0.2355
  305MOL0     H41122   6.733   9.007   2.139 -2.6438  1.2235 -0.0058
  305MOL0     H41123   6.728   8.921   2.287 -0.7568 -1.0102 -1.8262
  305MOL0     H41124   6.589   9.177   2.225 -1.8200  0.6134 -0.1371
  305MOL0     H41125   6.585   9.091   2.383 -0.9132  0.2212  0.5879
  305MOL0     H41126   6.442   9.045   2.022  0.2918  0.4672  1.2310
  305MOL0     H41127   6.282   8.855   1.911  2.6250 -1.7011 -0.3966
  305MOL0     H41128   6.277   8.719   2.009 -3.4202 -1.6309 -4.7256
  305MOL0     H41129   6.084   8.798   2.139 -0.1775 -1.0805 -0.4268
  305MOL0     H41130   6.064   8.714   1.982  0.0720  0.1427 -0.8923
  305MOL0     H41131   6.049   8.965   1.893  0.1581 -0.9698 -0.0966
  305MOL0     H41132   6.028   9.008   2.060 -1.8310  4.2218 -2.8882
  305MOL0     H41133   5.829   8.854   2.073 -0.6173  0.9166 -0.4160
  305MOL0     H41134   5.847   8.796   1.912 -2.3447  0.9817 -2.2238
  305MOL0     H41135   5.613   8.801   1.906 -0.2390  0.1923 -0.0193
  305MOL0     H41136   5.276   8.816   1.824 -0.2522 -0.3636 -0.9505
  305MOL0     H41137   5.353   8.724   1.702  3.1576 -0.0640  0.0684
  305MOL0     H41138   5.401   8.704   1.872 -3.7013 -0.9928  0.3327
  305MOL0     H41139   5.275   9.223   1.344  1.6698 -1.2997  1.0382
  305MOL0     H41140   5.098   9.205   1.186  2.5560  4.9088  1.6967
  305MOL0     H41141   4.716   9.177   1.095 -0.1157 -0.3469 -0.4796
  305MOL0     H41142   4.880   9.250   1.091  1.1060 -0.5269  0.6274
  305MOL0     H41143   4.851   9.078   0.922  0.3893  0.8421 -0.4818
  305MOL0     H41144   4.984   9.040   1.034 -0.8000  0.3770  2.4056
  305MOL0     H41145   4.866   8.862   1.145  0.3564  0.4955  0.5670
  305MOL0     H41146   4.868   8.832   0.974  2.1706 -1.5576  3.3079
  305MOL0     H41147   4.626   8.968   1.099 -0.3434  0.1058  0.1760
  305MOL0     H41148   4.653   8.927   0.931  1.8428  1.5161 -0.0854
  305MOL0     H41149   4.623   8.678   0.990 -0.6057 -2.4283  3.3186
  305MOL0     H41150   4.493   8.772   1.064  0.1611  2.6811 -0.2596
  305MOL0     H41151   4.588   8.607   1.229  1.0814 -0.1003  1.9077
  305MOL0     H41152   4.749   8.676   1.188 -0.1073 -1.5229  0.9439
  305MOL0     H41153   4.518   8.819   1.337  0.1883  2.0560  0.0401
  305MOL0     H41154   4.663   8.898   1.305  0.9743 -0.5273  1.9229
  305MOL0     H41155   4.669   8.632   1.463  1.5157 -0.1189  1.6785
  305MOL0     H41156   4.642   8.799   1.526  2.4116  2.2017 -0.0737
  305MOL0     H41157   4.830   9.068   1.498 -0.2040  0.5420 -0.1621
  305MOL0     H41158   5.019   9.093   1.674  1.1043  1.2157  1.3091
  305MOL0     H41159   5.508   9.209   1.649 -1.5900  0.1893  0.9006
  305MOL0     H41160   5.720   9.194   1.780 -2.3629  2.5929 -0.8165
  305MOL0     H41161   7.539   9.093   2.438  1.0113 -0.9226 -1.9467
  305MOL0     H41162   7.771   9.181   2.408 -0.7844 -1.0270 -0.5763
  305MOL0     H41163   7.972   9.636   2.044  2.1180  1.2580 -1.6401
  305MOL0     H41164   8.221   9.630   1.961  1.3634  0.0698  0.8575
  305MOL0     H41165   8.457   9.616   1.922  1.1360 -1.7928 -0.8963
  305MOL0     H41166   8.443   9.720   2.070  1.3271 -0.4295 -0.4620
  305MOL0     H41167   8.657   9.713   1.996 -1.8062 -0.5108 -0.8029
  305MOL0     H41168   8.673   9.535   2.027  1.0580 -0.3881  3.0964
  305MOL0     H41169   8.659   9.550   2.256 -3.2486 -2.4876 -5.4524
  305MOL0     H41170   8.587   9.711   2.252 -1.5114  0.6616 -3.5642
  305MOL0     H41171   8.844   9.692   2.312 -0.2594 -4.2443 -0.3271
  305MOL0     H41172   8.782   9.828   2.230  2.6515  0.2047  1.2346
  305MOL0     H41173   9.035   9.621   1.941  1.8659  2.2192  1.1035
  305MOL0     H41174   8.312   9.389   2.302  0.2688  0.0599 -0.8263
  305MOL0     H41175   8.092   9.391   2.379  3.0433 -2.3523 -1.5845
  306MOL0     O41176   4.323   1.497   0.146 -0.5368  0.5404 -0.0563
  306MOL0     C41177   4.357   1.413   0.066  0.3529 -1.1923 -0.3988
  306MOL0     O41178   4.271   1.340  -0.003  0.3395 -0.5772  1.0108
  306MOL0     C41179   4.132   1.347  -0.002  0.0641 -0.7300 -0.3073
  306MOL0     C41180   4.062   1.456   0.045  0.0450  1.3818  0.8365
  306MOL0     C41181   3.929   1.456   0.046  0.0383  0.8250  0.4667
  306MOL0     C41182   3.847   1.352  -0.010 -1.1216 -0.4608 -0.4188
  306MOL0     O41183   3.716   1.375   0.001 -0.2714 -1.1431 -0.0589
  306MOL0     C41184   3.636   1.320  -0.103  0.0187 -0.7496 -0.0703
  306MOL0     C41185   3.494   1.364  -0.082  0.1299  0.8426 -0.2336
  306MOL0     C41186   3.420   1.303   0.038 -0.7376  0.3051 -0.8071
  306MOL0     C41187   3.272   1.348   0.027 -0.5182 -0.0633  0.1962
  306MOL0     C41188   3.176   1.260   0.128  0.1379 -1.1988 -0.0203
  306MOL0     C41189   3.037   1.325   0.128  0.3291  0.3494  0.2305
  306MOL0     C41190   2.949   1.250   0.226 -0.0278 -0.0984  0.4067
  306MOL0     C41191   2.808   1.317   0.229  0.4791 -0.0113 -0.4077
  306MOL0     N41192   2.807   1.444   0.313  0.5498  0.2118 -0.2032
  306MOL0     C41193   2.858   1.460   0.443 -1.0141 -0.4607 -0.2860
  306MOL0     C41194   2.865   1.590   0.474 -1.0243  0.5887  0.1580
  306MOL0     C41195   2.935   1.642   0.588 -0.1506  0.0347 -0.0849
  306MOL0     C41196   3.066   1.715   0.545 -0.8990  0.1912  0.0439
  306MOL0     C41197   3.174   1.617   0.492  0.2915  0.7240 -0.0636
  306MOL0     C41198   3.211   1.654   0.342 -0.3335  0.6319  0.9130
  306MOL0     O41199   3.299   1.557   0.290  0.9751  0.6885 -0.1008
  306MOL0     C41200   3.429   1.574   0.328 -0.1334  0.1555  0.3764
  306MOL0     C41201   3.485   1.493   0.425  0.4893  0.3566  0.2311
  306MOL0     C41202   3.614   1.508   0.468 -0.3250 -0.1588 -0.1325
  306MOL0     C41203   3.669   1.411   0.583 -0.0020  0.4108 -0.6600
  306MOL0     C41204   3.702   1.593   0.401 -0.6534  0.1733  0.1873
  306MOL0     C41205   3.851   1.592   0.429  0.4504  0.1421 -0.6474
  306MOL0     O41206   3.908   1.493   0.495  0.7088  0.5303  0.0403
  306MOL0     C41207   4.041   1.517   0.535  0.1408 -0.2580 -0.5472
  306MOL0     C41208   4.150   1.499   0.452  0.5140  0.0085  0.3322
  306MOL0     C41209   4.281   1.501   0.498  0.5854 -0.0061 -0.4087
  306MOL0     C41210   4.305   1.532   0.630 -0.2115 -0.4699 -0.0298
  306MOL0     O41211   4.440   1.533   0.668  0.1285  0.0145  0.0351
  306MOL0     C41212   4.469   1.480   0.803 -0.2577  0.1605  0.1604
  306MOL0     C41213   4.478   1.325   0.797 -0.8232  0.1677 -0.6480
  306MOL0     C41214   4.520   1.268   0.940 -0.0200  0.0292  0.1949
  306MOL0     C41215   4.643   1.324   0.999  0.3773  0.1474 -0.3441
  306MOL0     C41216   4.661   1.271   1.142  0.3685 -0.3598 -0.2957
  306MOL0     C41217   4.576   1.327   1.254 -0.1405  0.0401  0.0285
  306MOL0     C41218   4.575   1.221   1.361  1.1640  0.8705 -0.3860
  306MOL0     C41219   4.517   1.274   1.492 -0.7873  0.8783 -0.4698
  306MOL0    Cl41220   4.343   1.311   1.477 -0.6237  0.0662 -0.4590
  306MOL0     C41221   4.196   1.554   0.719 -0.1771  1.0041  1.1705
  306MOL0     C41222   4.066   1.541   0.666  0.1549  0.0773 -0.7727
  306MOL0     O41223   3.906   1.693   0.381 -0.1371 -0.5273  1.1514
  306MOL0     C41224   3.644   1.678   0.299  0.3541 -0.6997  0.1674
  306MOL0     C41225   3.503   1.667   0.269 -0.8161  0.7209 -0.1065
  306MOL0     N41226   2.804   1.655   0.363  0.7213  0.1662  0.2415
  306MOL0     N41227   2.776   1.567   0.265  0.3809  0.4898  0.2322
  306MOL0     C41228   3.913   1.240  -0.063 -0.5729 -0.1369 -0.9796
  306MOL0     C41229   4.053   1.235  -0.062 -0.0973 -0.5061 -0.6571
  306MOL0     C41230   4.502   1.391   0.041  0.2725 -0.3433  0.5893
  306MOL0     C41231   4.548   1.305  -0.062 -0.2802 -0.3336 -0.4591
  306MOL0     C41232   4.684   1.292  -0.079  0.0453 -0.0217 -0.1774
  306MOL0     C41233   4.778   1.365   0.002 -1.0397  0.8862 -0.3900
  306MOL0     O41234   4.915   1.346  -0.032  0.0774 -0.1495  0.5037
  306MOL0     C41235   5.000   1.451   0.018  0.3977  0.2750 -0.1564
  306MOL0     C41236   5.136   1.459  -0.042 -0.8653  0.5271  0.6012
  306MOL0     C41237   5.228   1.550   0.031 -0.3864  0.9657 -0.8212
  306MOL0     C41238   5.243   1.692  -0.028  0.0496  0.2080 -1.0562
  306MOL0     C41239   5.350   1.757   0.047  0.1086 -0.1891  0.5565
  306MOL0     C41240   5.440   1.807   0.115  0.7425 -0.4456  0.5571
  306MOL0     C41241   4.731   1.443   0.108 -0.2610  0.6484 -0.0872
  306MOL0     C41242   4.591   1.449   0.129 -0.4837 -0.0842 -0.3765
  306MOL0     H41243   4.113   1.540   0.092  0.6378  0.4854  1.8601
  306MOL0     H41244   3.876   1.533   0.101  0.2678  0.0689  1.7866
  306MOL0     H41245   3.676   1.360  -0.196  2.9794  0.8136  1.7174
  306MOL0     H41246   3.639   1.211  -0.089 -3.5741 -0.7788  1.9335
  306MOL0     H41247   3.498   1.473  -0.070  3.0874  0.6913  0.9793
  306MOL0     H41248   3.439   1.337  -0.172  0.7429 -0.5689 -0.2037
  306MOL0     H41249   3.426   1.194   0.035  1.6170  0.3629 -0.0729
  306MOL0     H41250   3.466   1.328   0.135 -0.1659 -5.1162  0.6204
  306MOL0     H41251   3.265   1.452   0.060  1.6355  0.5454 -1.0222
  306MOL0     H41252   3.240   1.345  -0.077 -1.0288 -1.2684  0.3653
  306MOL0     H41253   3.180   1.154   0.101  1.4151 -1.1618 -0.0615
  306MOL0     H41254   3.218   1.273   0.228 -2.6394  1.4074  0.9830
  306MOL0     H41255   3.049   1.428   0.164 -0.7708  0.2508  0.9318
  306MOL0     H41256   2.988   1.330   0.030  0.2475  2.5888  0.3156
  306MOL0     H41257   2.932   1.147   0.194  3.1094 -0.7021  0.2956
  306MOL0     H41258   2.988   1.243   0.329 -1.6138  1.5188  1.1687
  306MOL0     H41259   2.737   1.248   0.277  1.6742 -1.7049 -0.9934
  306MOL0     H41260   2.779   1.333   0.125  2.1441  0.1409 -0.8781
  306MOL0     H41261   2.891   1.372   0.496 -0.8357 -1.6043 -2.2045
  306MOL0     H41262   2.873   1.698   0.658  2.0986  0.1027  1.9914
  306MOL0     H41263   2.963   1.560   0.655 -0.2723 -0.0707 -0.1625
  306MOL0     H41264   3.104   1.748   0.642  0.1030 -3.4543  1.0421
  306MOL0     H41265   3.055   1.793   0.469  2.5305 -3.2094 -4.4703
  306MOL0     H41266   3.142   1.513   0.480 -2.5351  1.4789  0.2654
  306MOL0     H41267   3.261   1.629   0.558 -0.0758  1.1519  0.3439
  306MOL0     H41268   3.249   1.756   0.330 -2.3849  1.2763 -0.7323
  306MOL0     H41269   3.127   1.647   0.272  2.6164  0.8654 -2.9878
  306MOL0     H41270   3.421   1.418   0.470  0.8583  0.5305  1.0685
  306MOL0     H41271   3.747   1.459   0.644 -2.2234  2.0106  1.1423
  306MOL0     H41272   3.585   1.392   0.651 -1.8956  1.2637 -2.6469
  306MOL0     H41273   3.711   1.318   0.545  0.7900  0.3009  0.4125
  306MOL0     H41274   4.140   1.473   0.347 -0.9330 -1.3549  0.7708
  306MOL0     H41275   4.355   1.478   0.422 -0.2392  1.8432 -1.8769
  306MOL0     H41276   4.572   1.514   0.819 -0.5019  1.8641 -1.5686
  306MOL0     H41277   4.411   1.528   0.883 -1.4865 -0.6735 -0.2148
  306MOL0     H41278   4.385   1.282   0.759 -0.1818  1.1256 -3.5787
  306MOL0     H41279   4.561   1.301   0.729  0.9684  1.8020  0.8471
  306MOL0     H41280   4.515   1.159   0.934 -0.9557 -0.3861  4.8897
  306MOL0     H41281   4.448   1.291   1.019  2.7624 -0.9681  3.2325
  306MOL0     H41282   4.737   1.311   0.945 -0.5078 -0.5579 -1.7705
  306MOL0     H41283   4.637   1.433   1.009 -1.5885  0.1128 -0.7190
  306MOL0     H41284   4.765   1.289   1.172  0.1561 -2.0315  1.6700
  306MOL0     H41285   4.654   1.162   1.146  1.8672 -0.4630  2.8085
  306MOL0     H41286   4.619   1.423   1.285  1.4852 -0.9636  1.0521
  306MOL0     H41287   4.474   1.350   1.223  0.2830  2.0901  0.0515
  306MOL0     H41288   4.681   1.196   1.374  1.4650  1.9032 -0.7327
  306MOL0     H41289   4.524   1.129   1.332  0.3308  0.1565  2.9263
  306MOL0     H41290   4.573   1.364   1.518 -0.4796  0.4125  0.5530
  306MOL0     H41291   4.529   1.202   1.573  1.3060 -1.0227 -2.3166
  306MOL0     H41292   4.211   1.585   0.822  0.1705  2.0662  0.8205
  306MOL0     H41293   3.981   1.560   0.731  0.1551  0.3595 -0.8511
  306MOL0     H41294   3.697   1.743   0.231 -2.5556 -0.4312 -2.0523
  306MOL0     H41295   3.470   1.707   0.173  2.4252 -2.5008 -2.8463
  306MOL0     H41296   3.873   1.142  -0.088  0.7571 -1.2554  0.9589
  306MOL0     H41297   4.106   1.149  -0.103  2.6429  1.1999 -1.0093
  306MOL0     H41298   4.488   1.243  -0.127 -2.1930  1.2724 -0.3341
  306MOL0     H41299   4.736   1.236  -0.156  1.6511 -3.3568  3.0111
  306MOL0     H41300   4.954   1.547  -0.008 -1.3222 -0.2897  0.7157
  306MOL0     H41301   5.006   1.421   0.123  0.5776 -1.1591 -0.5593
  306MOL0     H41302   5.147   1.482  -0.148  2.0715 -0.6040  0.5516
  306MOL0     H41303   5.182   1.360  -0.031 -0.8409  0.5561  0.7637
  306MOL0     H41304   5.330   1.511   0.037  0.6382  3.5405 -0.0128
  306MOL0     H41305   5.192   1.553   0.134 -0.0647  0.1559 -0.6831
  306MOL0     H41306   5.144   1.735  -0.011 -0.0781 -0.3976 -0.2018
  306MOL0     H41307   5.263   1.689  -0.136  0.1031  0.6971 -1.0631
  306MOL0     H41308   5.524   1.855   0.163  1.0817  0.4121 -0.8416
  306MOL0     H41309   4.792   1.500   0.177  0.0587  1.0204 -0.6777
  306MOL0     H41310   4.564   1.508   0.216  1.9363  1.5082 -0.6222
  307MOL0     O41311   7.066   4.997   5.297  0.2259  0.6187 -0.2849
  307MOL0     C41312   7.080   5.116   5.319  0.2682  1.1167  0.5088
  307MOL0     O41313   6.999   5.193   5.394  0.1906  0.0596  0.1006
  307MOL0     C41314   6.891   5.133   5.443 -0.7812 -0.2708 -0.6611
  307MOL0     C41315   6.798   5.083   5.355  0.0090  1.0683  0.6223
  307MOL0     C41316   6.673   5.031   5.386  0.0966  0.3990 -0.7414
  307MOL0     C41317   6.637   5.045   5.522  0.5838 -0.6597  0.8226
  307MOL0     O41318   6.513   4.996   5.553 -0.0888 -0.6145  0.0638
  307MOL0     C41319   6.448   5.046   5.664  0.6246  0.2027  0.0670
  307MOL0     C41320   6.305   5.079   5.621 -0.0157 -0.5602 -0.4606
  307MOL0     C41321   6.283   5.221   5.565  0.2199  0.5783  0.1940
  307MOL0     C41322   6.142   5.219   5.513 -0.2806 -0.6865  0.2381
  307MOL0     C41323   6.043   5.239   5.631  0.4516 -0.8246 -0.2930
  307MOL0     C41324   5.901   5.267   5.594  0.5524  0.0430  0.0038
  307MOL0     C41325   5.808   5.269   5.717 -0.7590 -0.2261 -0.0749
  307MOL0     C41326   5.670   5.270   5.669  0.7783  0.0049  0.4122
  307MOL0     N41327   5.569   5.322   5.762 -0.0213  0.1774  0.2600
  307MOL0     C41328   5.562   5.453   5.789  0.5819  0.3717  0.0256
  307MOL0     C41329   5.440   5.472   5.842  0.5023 -0.0400 -0.1435
  307MOL0     C41330   5.375   5.613   5.874  0.5772 -0.3982  0.1927
  307MOL0     C41331   5.230   5.612   5.924  0.6925 -0.0147 -0.0271
  307MOL0     C41332   5.183   5.754   5.956  0.0408 -0.7831  0.0491
  307MOL0     C41333   5.093   5.818   5.853 -0.1962 -0.1551  0.7949
  307MOL0     O41334   4.967   5.748   5.854 -0.2703 -0.0410  0.3433
  307MOL0     C41335   4.881   5.772   5.744 -0.2267 -0.0543  0.3983
  307MOL0     C41336   4.884   5.886   5.667 -0.6596  0.8589 -0.4513
  307MOL0     C41337   4.792   5.913   5.569 -1.0502 -0.1574  0.4389
  307MOL0     C41338   4.810   6.052   5.515 -0.2568 -0.0092  0.5663
  307MOL0     C41339   4.693   5.817   5.524 -0.2220  0.6088 -0.3992
  307MOL0     C41340   4.586   5.827   5.418  0.5245  0.1266  1.3289
  307MOL0     O41341   4.537   5.707   5.370 -0.1580  0.1057 -0.2765
  307MOL0     C41342   4.427   5.712   5.292 -0.0762  0.7150 -0.5714
  307MOL0     C41343   4.432   5.768   5.170 -0.5561 -0.5883 -0.3116
  307MOL0     C41344   4.316   5.799   5.100  0.3327 -0.3897  0.0654
  307MOL0     C41345   4.191   5.756   5.151  0.3843  0.4587  1.1938
  307MOL0     O41346   4.069   5.762   5.087 -0.3697  0.7534 -0.1671
  307MOL0     C41347   4.069   5.845   4.975 -0.0705 -0.0561  0.3878
  307MOL0     C41348   3.927   5.859   4.915  1.3469  0.9059 -0.4017
  307MOL0     C41349   3.813   5.885   5.021  0.5489  0.9090 -0.2665
  307MOL0     C41350   3.683   5.952   4.972 -1.5827 -0.0014 -0.4169
  307MOL0     C41351   3.571   5.974   5.073 -0.4222 -0.0440 -0.4286
  307MOL0     C41352   3.602   6.057   5.194 -0.0683  0.5982 -0.1464
  307MOL0     C41353   3.484   6.097   5.297 -0.5050  0.8441  0.5819
  307MOL0     C41354   3.380   6.185   5.228 -0.4967  0.6491 -0.2019
  307MOL0    Cl41355   3.252   6.238   5.344 -0.0382 -0.1069 -0.0084
  307MOL0     C41356   4.195   5.683   5.270  1.4029 -0.9718  0.9080
  307MOL0     C41357   4.310   5.666   5.341  0.8855  0.1371 -0.2889
  307MOL0     O41358   4.549   5.938   5.374  0.6973  0.0425 -0.0586
  307MOL0     C41359   4.701   5.695   5.599 -0.7122  0.1658  0.3451
  307MOL0     C41360   4.784   5.682   5.709 -0.2160  0.3767  0.1038
  307MOL0     N41361   5.377   5.348   5.843 -0.2662  0.2087  0.3641
  307MOL0     N41362   5.461   5.254   5.802  0.7254  0.1646  0.3548
  307MOL0     C41363   6.723   5.097   5.615  0.4098 -0.1026 -0.1416
  307MOL0     C41364   6.850   5.145   5.575  0.0354 -0.3468  0.2446
  307MOL0     C41365   7.203   5.168   5.259  1.0530 -0.4444  0.5684
  307MOL0     C41366   7.308   5.082   5.243 -0.4842  0.3773  0.1706
  307MOL0     C41367   7.432   5.133   5.205 -0.0256 -0.5566 -0.0866
  307MOL0     C41368   7.449   5.274   5.181  0.3315 -0.5278 -0.5580
  307MOL0     O41369   7.573   5.317   5.145 -0.2795 -0.5931  0.1857
  307MOL0     C41370   7.594   5.452   5.111 -1.0014  0.8477  1.0375
  307MOL0     C41371   7.737   5.473   5.060 -0.2978  0.4183  0.2916
  307MOL0     C41372   7.774   5.408   4.927 -0.1525  0.1115  0.1616
  307MOL0     C41373   7.903   5.462   4.860  0.4475 -0.3057 -0.4486
  307MOL0     C41374   7.911   5.438   4.723  0.2744 -0.7245  0.5845
  307MOL0     C41375   7.902   5.413   4.604  0.0871  0.0766  1.1444
  307MOL0     C41376   7.335   5.357   5.196 -0.4338  0.2516  1.2322
  307MOL0     C41377   7.213   5.305   5.229  0.3568  0.5117  0.2637
  307MOL0     H41378   6.828   5.089   5.251  2.0700 -2.4634  0.8364
  307MOL0     H41379   6.615   4.997   5.301 -2.2536  0.7587  0.6469
  307MOL0     H41380   6.455   4.973   5.744 -0.5841 -0.8177 -0.7342
  307MOL0     H41381   6.498   5.139   5.693  1.7376 -1.1557  2.8078
  307MOL0     H41382   6.268   5.011   5.544 -2.6861  1.4742 -1.1147
  307MOL0     H41383   6.243   5.064   5.710  0.5876 -2.2368 -0.3052
  307MOL0     H41384   6.293   5.305   5.634 -0.1444  1.7354 -1.1283
  307MOL0     H41385   6.356   5.231   5.484  1.3360  2.7745  1.3900
  307MOL0     H41386   6.141   5.309   5.450 -0.3097 -0.5141  0.4820
  307MOL0     H41387   6.121   5.134   5.448  1.4219 -1.8368  1.0977
  307MOL0     H41388   6.050   5.149   5.693 -3.1059  0.2585  2.0282
  307MOL0     H41389   6.083   5.318   5.695 -0.2973 -2.0006  1.7224
  307MOL0     H41390   5.885   5.360   5.539 -2.4162 -0.0674  0.5188
  307MOL0     H41391   5.872   5.185   5.528  2.1112 -0.3085 -0.2701
  307MOL0     H41392   5.818   5.183   5.784 -1.3747 -1.3244 -1.3430
  307MOL0     H41393   5.811   5.359   5.779  0.1272  0.7116 -1.4357
  307MOL0     H41394   5.655   5.165   5.641 -0.8153 -0.3149  2.2756
  307MOL0     H41395   5.664   5.336   5.582 -0.3730  4.0466  3.2549
  307MOL0     H41396   5.632   5.531   5.760  0.1160  1.2054  1.0622
  307MOL0     H41397   5.437   5.651   5.956 -0.3512 -2.1713  1.8115
  307MOL0     H41398   5.383   5.675   5.785 -1.3416  3.8140  2.6604
  307MOL0     H41399   5.222   5.565   6.023  1.2555 -1.3758 -0.6056
  307MOL0     H41400   5.166   5.547   5.864  0.4020  0.8662 -0.6827
  307MOL0     H41401   5.270   5.820   5.966  0.8249 -1.8716  0.6721
  307MOL0     H41402   5.116   5.753   6.043 -0.9002  0.1130 -0.6330
  307MOL0     H41403   5.140   5.794   5.757  1.1130 -3.5313  2.1045
  307MOL0     H41404   5.087   5.925   5.871 -0.4392 -0.1244  0.5308
  307MOL0     H41405   4.959   5.960   5.694  1.6224 -1.2384 -0.7056
  307MOL0     H41406   4.900   6.105   5.548 -0.5066  2.8339 -2.6839
  307MOL0     H41407   4.834   6.040   5.408  2.4369 -2.2445  1.2784
  307MOL0     H41408   4.720   6.112   5.526 -0.4076 -0.3874  1.4212
  307MOL0     H41409   4.527   5.813   5.141 -0.5787  3.1824  4.3146
  307MOL0     H41410   4.321   5.852   5.006  1.3925 -2.1769 -0.9454
  307MOL0     H41411   4.109   5.942   5.006  0.5259 -0.1838  0.0367
  307MOL0     H41412   4.132   5.800   4.897  4.5648  2.0154  2.5605
  307MOL0     H41413   3.926   5.939   4.840 -1.2947  0.7550 -0.6085
  307MOL0     H41414   3.889   5.764   4.878 -0.4093  0.9809  1.0701
  307MOL0     H41415   3.847   5.956   5.097 -0.3113  1.4067 -0.3351
  307MOL0     H41416   3.792   5.790   5.071  1.0357  0.9169 -0.0342
  307MOL0     H41417   3.704   6.044   4.917 -0.8231 -1.5726 -2.9532
  307MOL0     H41418   3.642   5.878   4.902 -1.6210 -1.9336  1.5398
  307MOL0     H41419   3.544   5.877   5.117 -1.8504  1.1149  1.3998
  307MOL0     H41420   3.485   6.012   5.017 -3.2160 -0.2610  3.2770
  307MOL0     H41421   3.676   5.999   5.249  1.8743  1.1448 -2.0547
  307MOL0     H41422   3.647   6.151   5.159  3.9791 -0.9100  0.4450
  307MOL0     H41423   3.522   6.150   5.384  0.4586  1.7169 -0.3344
  307MOL0     H41424   3.440   6.003   5.330  4.7086 -1.4236  2.0585
  307MOL0     H41425   3.326   6.124   5.155 -1.1317 -3.4301  3.2244
  307MOL0     H41426   3.422   6.272   5.177  2.5931  1.3320  3.0872
  307MOL0     H41427   4.098   5.647   5.304  0.8275 -1.2199 -0.8700
  307MOL0     H41428   4.307   5.610   5.434 -1.0164  0.5384 -0.0715
  307MOL0     H41429   4.633   5.616   5.568 -1.3366 -0.1301  2.3453
  307MOL0     H41430   4.792   5.586   5.759 -0.2363  1.1328  1.6360
  307MOL0     H41431   6.699   5.107   5.720 -0.5037  2.6913 -0.5196
  307MOL0     H41432   6.929   5.162   5.648  1.4335  0.3872 -1.3820
  307MOL0     H41433   7.304   4.976   5.267 -1.6091  0.2929 -0.3433
  307MOL0     H41434   7.513   5.062   5.206 -1.6649 -2.5223  1.2863
  307MOL0     H41435   7.520   5.486   5.038  1.5389 -0.3895 -2.3806
  307MOL0     H41436   7.593   5.512   5.202 -1.1321  2.0270  0.2736
  307MOL0     H41437   7.815   5.432   5.125  0.8019  0.1151 -1.1505
  307MOL0     H41438   7.762   5.579   5.059  0.1272  0.3211  0.1327
  307MOL0     H41439   7.695   5.418   4.852  0.5526  0.6140 -0.5407
  307MOL0     H41440   7.776   5.300   4.945 -1.5743 -0.1003 -0.7951
  307MOL0     H41441   7.993   5.426   4.910  0.3915  1.5655  1.1579
  307MOL0     H41442   7.897   5.571   4.875 -1.2863 -0.4988  0.5754
  307MOL0     H41443   7.888   5.398   4.499  2.1192  0.1644  0.8207
  307MOL0     H41444   7.340   5.465   5.185  0.4287  0.0401 -1.3177
  307MOL0     H41445   7.133   5.373   5.255  0.0727 -0.1145  1.0708
  308MOL0     O41446   9.937   1.191   8.508 -0.2794 -0.5438 -0.1800
  308MOL0     C41447   9.928   1.068   8.505 -0.2845 -0.6383  0.0168
  308MOL0     O41448   9.799   1.001   8.519 -0.5841  0.0083  0.2105
  308MOL0     C41449   9.701   1.081   8.565  0.3995  0.3654  0.0432
  308MOL0     C41450   9.650   1.170   8.475  0.0532 -0.9460  0.6683
  308MOL0     C41451   9.555   1.257   8.520  0.3957 -1.0329 -0.0483
  308MOL0     C41452   9.495   1.254   8.645 -0.2048 -0.6770  0.1001
  308MOL0     O41453   9.395   1.344   8.689  0.0328 -0.3060  0.0544
  308MOL0     C41454   9.354   1.453   8.612  0.4705  0.1075 -0.1525
  308MOL0     C41455   9.234   1.509   8.682 -0.1719  0.1507 -0.2002
  308MOL0     C41456   9.174   1.618   8.601  0.5867 -0.3758  0.2716
  308MOL0     C41457   9.049   1.670   8.667 -0.4589  0.0694  0.7705
  308MOL0     C41458   8.964   1.769   8.579 -0.3524 -0.2036 -0.6034
  308MOL0     C41459   8.852   1.855   8.647  0.1516  0.6960 -0.6778
  308MOL0     C41460   8.728   1.765   8.683  0.4017  0.1088  0.0035
  308MOL0     C41461   8.622   1.859   8.749 -1.0820 -0.0128 -0.5635
  308MOL0     N41462   8.503   1.791   8.787  0.2545 -0.9791  0.3272
  308MOL0     C41463   8.427   1.734   8.694  0.5601 -0.0621 -0.1554
  308MOL0     C41464   8.314   1.702   8.753  0.1593  0.1997  0.3310
  308MOL0     C41465   8.197   1.657   8.675  0.4065 -0.6997 -0.2219
  308MOL0     C41466   8.119   1.529   8.721 -0.1218 -0.5390 -0.2990
  308MOL0     C41467   8.070   1.557   8.859  0.5943  0.4197  0.4923
  308MOL0     C41468   7.954   1.473   8.897  0.0477 -0.8646 -0.1428
  308MOL0     O41469   7.833   1.493   8.823  0.2569  0.3935  0.7027
  308MOL0     C41470   7.723   1.545   8.881  0.6603  0.3381  0.3035
  308MOL0     C41471   7.712   1.665   8.957  0.1592 -0.4490  0.3247
  308MOL0     C41472   7.590   1.704   9.014 -0.3589 -0.0922  0.3786
  308MOL0     C41473   7.571   1.844   9.068  0.1378 -0.0911 -0.6572
  308MOL0     C41474   7.478   1.621   9.003  0.6275 -0.3716 -0.6707
  308MOL0     C41475   7.344   1.653   9.065  0.2360 -0.0045  0.3992
  308MOL0     O41476   7.273   1.539   9.097  0.0102  0.5918 -0.2130
  308MOL0     C41477   7.176   1.534   9.201  0.0836  1.0338  0.2030
  308MOL0     C41478   7.141   1.640   9.292 -0.6826  0.0889 -0.8213
  308MOL0     C41479   7.057   1.610   9.401 -0.1783  0.6239  0.0185
  308MOL0     C41480   7.001   1.483   9.422 -0.1025  1.1359 -0.0096
  308MOL0     O41481   6.895   1.476   9.510  0.7901  0.9636  1.0785
  308MOL0     C41482   6.810   1.361   9.509 -0.2035  0.0584 -0.5572
  308MOL0     C41483   6.723   1.359   9.634 -0.6282  0.2329 -0.0353
  308MOL0     C41484   6.615   1.463   9.626  1.2165 -0.3282 -0.4209
  308MOL0     C41485   6.488   1.418   9.549 -0.3943  0.1697  0.3244
  308MOL0     C41486   6.382   1.526   9.574 -0.6204 -0.1588 -0.2246
  308MOL0     C41487   6.244   1.490   9.520  0.5224  0.0282  0.1818
  308MOL0     C41488   6.137   1.598   9.551  0.0127 -0.5946 -0.1221
  308MOL0     C41489   6.046   1.577   9.675 -0.6246 -0.2914 -0.1835
  308MOL0    Cl41490   6.119   1.632   9.824  0.2069 -0.2044  0.3264
  308MOL0     C41491   7.034   1.380   9.328  1.2129 -0.6835  0.0132
  308MOL0     C41492   7.121   1.404   9.229  0.1738  0.2148  0.2179
  308MOL0     O41493   7.302   1.764   9.086  0.6345  0.5533  0.7119
  308MOL0     C41494   7.489   1.510   8.921  0.2794 -0.0385 -0.3144
  308MOL0     C41495   7.610   1.466   8.870  1.2030 -0.6477  0.0140
  308MOL0     N41496   8.321   1.740   8.881  0.6402 -0.1125  0.5288
  308MOL0     N41497   8.431   1.803   8.900  0.0313 -0.1450 -0.2759
  308MOL0     C41498   9.538   1.156   8.731 -0.1958  1.1169 -0.3555
  308MOL0     C41499   9.636   1.060   8.694 -0.7034 -0.1862  0.4812
  308MOL0     C41500  10.054   0.999   8.477 -0.5150  0.3807 -0.5916
  308MOL0     C41501  10.182   1.061   8.497  0.6769  0.3740  0.6653
  308MOL0     C41502  10.293   0.982   8.475  0.1223  0.8682  0.5874
  308MOL0     C41503  10.289   0.853   8.422 -0.1750 -0.1963 -0.3717
  308MOL0     O41504  10.397   0.773   8.403 -0.4653 -0.0417  0.3888
  308MOL0     C41505  10.526   0.830   8.425 -0.0127 -0.0076  0.2773
  308MOL0     C41506  10.616   0.713   8.385 -0.9052  0.5084 -0.0382
  308MOL0     C41507  10.756   0.773   8.355 -0.9438  0.2311  0.1692
  308MOL0     C41508  10.860   0.669   8.295  1.2803 -0.1925 -0.4195
  308MOL0     C41509  10.866   0.537   8.360 -0.4627  1.0228  0.6273
  308MOL0     C41510  10.885   0.438   8.423  0.9539  0.4961  0.1401
  308MOL0     C41511  10.164   0.801   8.396 -1.0865 -0.5717  0.3882
  308MOL0     C41512  10.046   0.867   8.427  0.2925  0.4235 -0.1154
  308MOL0     H41513   9.699   1.162   8.378  1.3498  1.0953  1.1146
  308MOL0     H41514   9.528   1.339   8.455 -0.9819 -0.1329  1.5597
  308MOL0     H41515   9.434   1.527   8.600 -0.3202  0.9507 -0.3270
  308MOL0     H41516   9.320   1.421   8.513 -3.0662 -4.1898  2.0611
  308MOL0     H41517   9.163   1.429   8.702 -0.8196  1.1830  1.9350
  308MOL0     H41518   9.271   1.545   8.778  0.6466 -2.9610  0.7436
  308MOL0     H41519   9.247   1.698   8.588  0.4552 -0.6368 -3.1130
  308MOL0     H41520   9.144   1.590   8.499  0.3600  1.5021 -0.2301
  308MOL0     H41521   8.999   1.584   8.713 -1.6060  1.0453  1.4051
  308MOL0     H41522   9.082   1.729   8.753  0.6885  0.3432  0.1550
  308MOL0     H41523   9.036   1.834   8.528  0.7889  1.1781  2.4949
  308MOL0     H41524   8.918   1.703   8.505 -1.4561 -0.2679  0.1185
  308MOL0     H41525   8.898   1.903   8.733 -0.7461  0.0069  0.2065
  308MOL0     H41526   8.813   1.920   8.568  0.2757  0.0313 -1.3041
  308MOL0     H41527   8.697   1.700   8.600 -0.8615  1.4638 -0.6380
  308MOL0     H41528   8.754   1.697   8.765  1.6317 -0.3177 -0.7153
  308MOL0     H41529   8.599   1.943   8.682  1.0954 -0.7542 -2.3919
  308MOL0     H41530   8.666   1.901   8.839 -2.3282  0.5715 -0.2066
  308MOL0     H41531   8.447   1.723   8.588  0.6108 -0.1220 -0.1401
  308MOL0     H41532   8.130   1.740   8.655  2.7910  1.5211  0.3860
  308MOL0     H41533   8.226   1.646   8.570 -0.9926 -0.4994 -0.6435
  308MOL0     H41534   8.181   1.439   8.721 -0.8682 -1.1172  1.8383
  308MOL0     H41535   8.035   1.513   8.652 -0.8781 -0.9794  0.6950
  308MOL0     H41536   8.023   1.655   8.869 -0.1709 -0.0406  1.7115
  308MOL0     H41537   8.149   1.546   8.934 -0.8432 -0.4050  1.9504
  308MOL0     H41538   7.943   1.493   9.004  3.8745 -1.7928  0.5814
  308MOL0     H41539   7.985   1.369   8.883  0.0587 -1.2024  2.0511
  308MOL0     H41540   7.792   1.738   8.949  0.6921 -1.1745 -1.2805
  308MOL0     H41541   7.660   1.907   9.072 -0.5241  0.8931 -0.8329
  308MOL0     H41542   7.502   1.900   9.003  0.1872 -0.5388 -1.0998
  308MOL0     H41543   7.523   1.860   9.165 -0.6876  0.0604 -1.0831
  308MOL0     H41544   7.167   1.743   9.272 -0.9007  0.9143  2.5256
  308MOL0     H41545   7.020   1.684   9.471  0.7409 -0.2850  1.5208
  308MOL0     H41546   6.739   1.375   9.427 -0.4794  3.7668  0.1502
  308MOL0     H41547   6.869   1.269   9.515 -0.0265  0.1935 -0.1516
  308MOL0     H41548   6.686   1.257   9.648 -1.3810  0.6255  0.9438
  308MOL0     H41549   6.797   1.375   9.714  2.5904  0.3712 -2.8039
  308MOL0     H41550   6.651   1.555   9.580 -0.0831 -1.4933 -4.0907
  308MOL0     H41551   6.581   1.478   9.729  0.6647  1.3719 -0.8269
  308MOL0     H41552   6.500   1.405   9.441 -2.3037 -0.3523  0.1428
  308MOL0     H41553   6.464   1.317   9.584 -0.3019 -1.0336 -2.7329
  308MOL0     H41554   6.415   1.623   9.535  0.7970 -0.7705 -0.5913
  308MOL0     H41555   6.372   1.544   9.682  1.2584  2.6648 -0.4171
  308MOL0     H41556   6.248   1.470   9.412 -2.5741  1.1515 -0.2322
  308MOL0     H41557   6.205   1.397   9.563 -0.2788 -0.4437 -1.4805
  308MOL0     H41558   6.074   1.606   9.462  0.8169  1.5154 -0.5626
  308MOL0     H41559   6.172   1.701   9.555 -3.2907  0.6484  0.3555
  308MOL0     H41560   6.020   1.473   9.697 -1.2516  0.3331  2.4520
  308MOL0     H41561   5.962   1.639   9.642  0.7377  1.1310 -1.1185
  308MOL0     H41562   6.976   1.289   9.343  2.1249 -0.9610  2.2327
  308MOL0     H41563   7.146   1.321   9.163 -0.6018  0.1701 -0.0274
  308MOL0     H41564   7.401   1.453   8.892 -3.8251  3.7562  3.2771
  308MOL0     H41565   7.613   1.371   8.817  2.0231 -0.7725  0.2757
  308MOL0     H41566   9.483   1.138   8.823 -0.0414 -1.0742 -0.6218
  308MOL0     H41567   9.688   0.980   8.746  0.8495  0.4639 -0.0032
  308MOL0     H41568  10.183   1.163   8.535  0.7606  1.2987 -1.6568
  308MOL0     H41569  10.394   1.022   8.486  0.8225 -0.2815 -1.2041
  308MOL0     H41570  10.528   0.911   8.351  1.5342 -1.4361 -1.3356
  308MOL0     H41571  10.559   0.870   8.521  3.4509  1.8834 -1.5104
  308MOL0     H41572  10.581   0.655   8.299  0.6540  1.2462 -1.2174
  308MOL0     H41573  10.622   0.641   8.467  2.2845 -0.1630 -0.7288
  308MOL0     H41574  10.805   0.818   8.442 -1.4727  2.4921 -0.6485
  308MOL0     H41575  10.737   0.852   8.283  2.1893  0.3842 -0.6561
  308MOL0     H41576  10.954   0.723   8.310 -0.8285  2.8803  3.6073
  308MOL0     H41577  10.826   0.648   8.193 -0.1915 -0.0302  0.0106
  308MOL0     H41578  10.917   0.351   8.478  3.9693  1.1733 -0.3430
  308MOL0     H41579  10.139   0.703   8.354 -1.3514 -1.6608  2.9221
  308MOL0     H41580   9.947   0.823   8.416  1.4610 -1.8790 -3.2136
  309MOL0     O41581   5.146   3.465   2.397 -0.0537  1.3662  0.0057
  309MOL0     C41582   5.184   3.491   2.510  0.3232 -0.2346  0.1040
  309MOL0     O41583   5.134   3.431   2.619  0.2815 -0.1386 -0.4143
  309MOL0     C41584   5.023   3.358   2.601  0.4934  1.1281 -0.0672
  309MOL0     C41585   4.905   3.398   2.533  0.3542 -0.1727  0.1772
  309MOL0     C41586   4.802   3.309   2.505  0.1237 -0.7063 -0.1024
  309MOL0     C41587   4.817   3.173   2.548  1.0088 -0.0370 -0.1657
  309MOL0     O41588   4.734   3.067   2.506 -0.2607 -1.0597 -0.6018
  309MOL0     C41589   4.636   3.089   2.403  1.0825  0.3411  0.3760
  309MOL0     C41590   4.506   3.131   2.471  0.3512  0.5565 -0.5340
  309MOL0     C41591   4.451   3.022   2.570 -0.3835  0.8329  0.7111
  309MOL0     C41592   4.310   3.063   2.612  0.1728 -0.6455 -0.4099
  309MOL0     C41593   4.255   2.949   2.709 -0.0039  0.2520 -0.3306
  309MOL0     C41594   4.152   3.011   2.801  0.8235 -0.0270 -0.0900
  309MOL0     C41595   4.221   3.076   2.931 -0.1612 -0.1423  0.1030
  309MOL0     C41596   4.132   3.166   3.013 -0.4245  0.1481 -0.3818
  309MOL0     N41597   4.009   3.098   3.052 -0.4917 -0.0810  0.7058
  309MOL0     C41598   3.994   3.011   3.158  0.5708 -0.2227 -0.6296
  309MOL0     C41599   3.859   2.977   3.170  0.3599  0.6738 -0.4228
  309MOL0     C41600   3.802   2.887   3.270  0.2127  0.6319 -0.1551
  309MOL0     C41601   3.675   2.931   3.334 -0.6764  0.4310 -0.2183
  309MOL0     C41602   3.611   2.821   3.418  0.6380  0.2590 -0.3389
  309MOL0     C41603   3.476   2.863   3.478  0.0149  0.6442  0.3825
  309MOL0     O41604   3.383   2.911   3.373 -0.9146  0.4172 -0.5470
  309MOL0     C41605   3.255   2.920   3.418  0.3974 -0.2739 -0.0989
  309MOL0     C41606   3.171   2.970   3.321 -0.6823 -1.1408  0.6842
  309MOL0     C41607   3.037   2.998   3.348 -0.1571  0.2163  0.0176
  309MOL0     C41608   2.956   3.032   3.229 -0.2479 -0.8208 -0.2838
  309MOL0     C41609   2.982   2.965   3.479  0.0045 -0.3351  0.2168
  309MOL0     C41610   2.848   2.990   3.517  0.7204 -0.2489 -0.4037
  309MOL0     O41611   2.836   2.997   3.659  0.7907 -0.0910 -0.6818
  309MOL0     C41612   2.725   3.016   3.738 -0.6643  0.3401 -0.6951
  309MOL0     C41613   2.631   2.924   3.734  0.4899  0.1491 -0.0381
  309MOL0     C41614   2.511   2.939   3.794  0.0368  0.8768  0.2531
  309MOL0     C41615   2.496   3.039   3.890 -0.1134  0.5892  0.6808
  309MOL0     O41616   2.375   3.044   3.957 -0.4620  0.0293  0.1888
  309MOL0     C41617   2.369   3.111   4.090  0.2137  0.4994 -0.0932
  309MOL0     C41618   2.215   3.107   4.134 -0.3504 -0.0758  1.5579
  309MOL0     C41619   2.122   3.174   4.031  0.3404 -0.7348 -0.0247
  309MOL0     C41620   2.002   3.239   4.097 -0.2298 -0.0634  0.2341
  309MOL0     C41621   1.903   3.324   4.012  0.1258  0.1390  0.7466
  309MOL0     C41622   1.793   3.381   4.103 -0.2382  0.2574  0.5920
  309MOL0     C41623   1.683   3.468   4.019 -0.5181 -0.5168  0.2192
  309MOL0     C41624   1.577   3.382   3.952  0.8093 -0.1099  0.2414
  309MOL0    Cl41625   1.455   3.477   3.856 -0.2242 -0.3260  0.0309
  309MOL0     C41626   2.601   3.134   3.904  0.1305 -0.0740 -0.1500
  309MOL0     C41627   2.707   3.117   3.823 -0.3817 -0.3342  0.3177
  309MOL0     O41628   2.752   3.014   3.439 -0.0840 -0.1527 -0.1064
  309MOL0     C41629   3.067   2.923   3.576  0.0383  0.0586 -0.5247
  309MOL0     C41630   3.205   2.906   3.554 -0.4680  0.4429  0.4831
  309MOL0     N41631   3.797   3.059   3.077 -0.6725  0.5192  0.3289
  309MOL0     N41632   3.883   3.125   3.007 -0.1794  0.0805 -0.2272
  309MOL0     C41633   4.918   3.137   2.641 -0.9375 -0.7053 -1.1680
  309MOL0     C41634   5.014   3.238   2.665  0.4352 -0.4521 -0.6425
  309MOL0     C41635   5.291   3.589   2.522 -0.0300  0.3846  0.7654
  309MOL0     C41636   5.337   3.616   2.657  0.2562  0.2014  0.3179
  309MOL0     C41637   5.432   3.711   2.674 -0.2627  0.2756 -0.2934
  309MOL0     C41638   5.488   3.784   2.558 -0.1866  1.1210  0.8529
  309MOL0     O41639   5.593   3.878   2.574  0.1237  0.3637 -0.3498
  309MOL0     C41640   5.687   3.896   2.467  0.4857  0.1920 -0.0731
  309MOL0     C41641   5.644   4.028   2.398  0.0362 -0.0647  0.2790
  309MOL0     C41642   5.735   4.077   2.279  0.3662  0.7368  0.0211
  309MOL0     C41643   5.684   4.193   2.191 -0.2045  0.9886 -1.1087
  309MOL0     C41644   5.783   4.214   2.086 -0.3517  0.3633  0.6617
  309MOL0     C41645   5.867   4.239   1.999  0.3146 -1.0473 -0.4261
  309MOL0     C41646   5.452   3.744   2.429 -0.3700 -0.4545 -0.2272
  309MOL0     C41647   5.345   3.650   2.413 -0.1408  0.1409  0.3964
  309MOL0     H41648   4.891   3.497   2.492 -1.0120 -0.5616 -0.3390
  309MOL0     H41649   4.719   3.323   2.436  0.8690 -4.1103 -1.8833
  309MOL0     H41650   4.657   3.175   2.339 -0.5898  0.3620 -0.1970
  309MOL0     H41651   4.625   3.004   2.336  1.2047 -1.3737  2.4297
  309MOL0     H41652   4.503   3.229   2.520  2.0075  0.1801  0.3687
  309MOL0     H41653   4.434   3.142   2.389  1.0897 -1.9258 -1.6028
  309MOL0     H41654   4.452   2.921   2.530 -0.5519  1.3252 -0.5862
  309MOL0     H41655   4.512   3.024   2.661  0.1822 -2.0392  0.4764
  309MOL0     H41656   4.300   3.158   2.665 -1.8529 -0.5149 -0.9863
  309MOL0     H41657   4.247   3.076   2.524 -0.5759  0.5970  0.2907
  309MOL0     H41658   4.207   2.874   2.645 -1.6149  0.5435  0.4849
  309MOL0     H41659   4.331   2.893   2.764  0.8023 -0.3963 -2.0364
  309MOL0     H41660   4.098   3.081   2.737 -0.9477 -1.7627 -0.5655
  309MOL0     H41661   4.084   2.933   2.835  1.2040  0.5709  2.2277
  309MOL0     H41662   4.258   2.993   2.991 -0.4081 -0.8960 -0.7702
  309MOL0     H41663   4.317   3.127   2.916 -0.1918  0.0993  0.7304
  309MOL0     H41664   4.113   3.252   2.948  0.3730  0.4847 -0.1816
  309MOL0     H41665   4.190   3.205   3.098 -1.0780 -1.9857  1.1230
  309MOL0     H41666   4.081   2.970   3.209 -0.8932 -0.2406  2.0378
  309MOL0     H41667   3.786   2.789   3.224  1.7156 -0.1893  0.9839
  309MOL0     H41668   3.879   2.860   3.343  0.2081  0.4354 -0.2216
  309MOL0     H41669   3.608   2.949   3.250 -0.1893 -1.6501 -1.1347
  309MOL0     H41670   3.683   3.026   3.388 -2.9012  2.4852 -3.2133
  309MOL0     H41671   3.677   2.781   3.494 -0.2727 -1.9767 -0.6411
  309MOL0     H41672   3.587   2.733   3.357 -0.6676  0.7160 -0.5286
  309MOL0     H41673   3.482   2.946   3.548  1.0262  1.3007 -0.4569
  309MOL0     H41674   3.433   2.774   3.525  1.3995  0.2213  0.8809
  309MOL0     H41675   3.201   2.998   3.221  0.2574  2.1398  1.7632
  309MOL0     H41676   2.945   2.935   3.180  1.4024 -0.4704 -1.4204
  309MOL0     H41677   2.859   3.071   3.260 -0.1865 -1.8578  1.3789
  309MOL0     H41678   3.003   3.087   3.147 -0.2331  1.0873  0.9500
  309MOL0     H41679   2.644   2.838   3.670  0.6315 -0.1097  0.3415
  309MOL0     H41680   2.428   2.871   3.777 -0.2587  0.8199  1.7836
  309MOL0     H41681   2.431   3.054   4.161  0.0988  2.5373  1.7400
  309MOL0     H41682   2.406   3.214   4.089 -3.1185  1.8249 -2.2070
  309MOL0     H41683   2.188   3.001   4.144 -4.0994  0.2961 -1.9008
  309MOL0     H41684   2.209   3.159   4.230 -1.5979  0.5036  1.1960
  309MOL0     H41685   2.088   3.102   3.956  4.2732 -0.3951 -2.4147
  309MOL0     H41686   2.184   3.248   3.980  1.5489 -2.0842 -0.6023
  309MOL0     H41687   1.952   3.155   4.144 -3.0137  1.4176  0.1242
  309MOL0     H41688   2.035   3.306   4.177 -1.9818 -0.1254  1.0434
  309MOL0     H41689   1.849   3.256   3.945  0.9656 -0.7374  0.9311
  309MOL0     H41690   1.950   3.410   3.964 -0.6961  0.2951  0.1910
  309MOL0     H41691   1.737   3.307   4.160 -0.6015  0.1382  0.0911
  309MOL0     H41692   1.840   3.451   4.173 -3.6917  0.5702  2.8230
  309MOL0     H41693   1.728   3.531   3.942 -0.3569  0.2775  0.9519
  309MOL0     H41694   1.628   3.532   4.089 -2.3359 -0.5192 -1.1203
  309MOL0     H41695   1.537   3.328   4.038  0.8856 -2.0104 -0.8458
  309MOL0     H41696   1.614   3.306   3.882 -2.4839 -2.2563  0.5987
  309MOL0     H41697   2.587   3.213   3.978  0.7545  0.9809 -1.1274
  309MOL0     H41698   2.785   3.192   3.831  0.5963 -0.9520 -2.2476
  309MOL0     H41699   3.037   2.897   3.677  2.0010  0.2093  0.1468
  309MOL0     H41700   3.271   2.866   3.630  1.3136 -0.7490 -1.5436
  309MOL0     H41701   4.937   3.042   2.690 -3.4995 -1.7429 -2.0078
  309MOL0     H41702   5.101   3.217   2.725  0.5805  0.8213 -0.3902
  309MOL0     H41703   5.307   3.563   2.746  1.8178  0.9014  1.3073
  309MOL0     H41704   5.475   3.745   2.768  0.8305  0.2368 -0.7562
  309MOL0     H41705   5.784   3.912   2.516 -1.1380  0.9029  3.1507
  309MOL0     H41706   5.691   3.816   2.392  2.3343 -0.3468  0.5308
  309MOL0     H41707   5.655   4.104   2.475  0.9878  0.5945 -0.4832
  309MOL0     H41708   5.540   4.021   2.365  0.8952 -1.3043 -2.5293
  309MOL0     H41709   5.757   3.988   2.219  0.1534 -0.6120  1.8677
  309MOL0     H41710   5.830   4.102   2.327  1.4123 -1.7150 -0.6052
  309MOL0     H41711   5.681   4.289   2.242 -1.2817  1.9539 -2.8810
  309MOL0     H41712   5.584   4.192   2.147 -2.2984  2.6582  3.0915
  309MOL0     H41713   5.926   4.287   1.924 -0.4798 -1.0747 -1.0859
  309MOL0     H41714   5.485   3.788   2.336 -1.7225 -0.2496 -0.6242
  309MOL0     H41715   5.308   3.622   2.315 -2.5651 -2.5978  1.9380
  310MOL0     O41716   1.301   0.559   5.725  0.5971 -0.2974 -0.8417
  310MOL0     C41717   1.357   0.508   5.628  0.7571  0.4169 -0.9757
  310MOL0     O41718   1.282   0.448   5.519  0.0033 -0.1352  0.5228
  310MOL0     C41719   1.138   0.441   5.530  0.4819  0.1716 -0.7331
  310MOL0     C41720   1.056   0.546   5.490  0.4474  0.9331  0.4285
  310MOL0     C41721   0.918   0.508   5.482 -0.6069  0.5505  0.2578
  310MOL0     C41722   0.864   0.397   5.537 -0.3391  0.0385  0.4608
  310MOL0     O41723   0.729   0.375   5.521  0.3408  0.1311 -0.4387
  310MOL0     C41724   0.637   0.477   5.566 -0.3466 -0.7804 -0.5633
  310MOL0     C41725   0.495   0.430   5.542  0.1854 -1.2198  0.0945
  310MOL0     C41726   0.463   0.289   5.573 -0.0537 -0.1481 -0.1785
  310MOL0     C41727   0.317   0.254   5.520 -0.2760 -0.0047  0.2520
  310MOL0     C41728   0.275   0.117   5.556 -0.2172  0.8709 -0.4302
  310MOL0     C41729   0.131   0.096   5.519  0.5953 -0.4134 -0.2816
  310MOL0     C41730   0.086  -0.044   5.562  1.0242  0.5626 -0.0240
  310MOL0     C41731  -0.044  -0.106   5.502  0.8715  0.7302 -0.5364
  310MOL0     N41732  -0.162  -0.018   5.537  0.5065 -0.1505  0.3807
  310MOL0     C41733  -0.213   0.071   5.451 -0.3104 -0.4009  0.7145
  310MOL0     C41734  -0.327   0.108   5.511  1.0110  0.5007 -0.5116
  310MOL0     C41735  -0.426   0.202   5.458  0.3215  0.0040 -0.3597
  310MOL0     C41736  -0.379   0.336   5.410  0.3470 -1.1077  0.0763
  310MOL0     C41737  -0.487   0.447   5.383 -0.1081  0.6628  0.3840
  310MOL0     C41738  -0.555   0.506   5.502 -0.3438  0.4745 -1.0512
  310MOL0     O41739  -0.653   0.596   5.455  0.2137  0.0268  0.6489
  310MOL0     C41740  -0.732   0.663   5.544 -0.0487 -0.3756 -1.1760
  310MOL0     C41741  -0.731   0.655   5.686 -0.1489  0.2093  0.3398
  310MOL0     C41742  -0.825   0.718   5.773 -0.4369 -0.6459 -0.1949
  310MOL0     C41743  -0.817   0.698   5.921 -0.1845  0.6675 -0.1971
  310MOL0     C41744  -0.924   0.808   5.716  0.4326 -0.0415 -0.4002
  310MOL0     C41745  -1.041   0.864   5.792  0.5895 -0.1887  0.1200
  310MOL0     O41746  -1.056   0.844   5.927  0.0640 -0.6070  0.4237
  310MOL0     C41747  -1.128   0.934   5.997  0.4329 -0.4796 -0.3577
  310MOL0     C41748  -1.263   0.934   5.972  0.5708 -0.3905  0.5755
  310MOL0     C41749  -1.344   1.017   6.053  0.4839  0.5185  0.5259
  310MOL0     C41750  -1.286   1.100   6.146  0.9689 -0.2916  0.1319
  310MOL0     O41751  -1.352   1.185   6.234 -0.4042 -0.0640  0.4575
  310MOL0     C41752  -1.491   1.203   6.226 -0.7240  1.8428  0.6637
  310MOL0     C41753  -1.530   1.275   6.358 -1.0144 -0.3471  0.4768
  310MOL0     C41754  -1.508   1.180   6.482 -0.2887  0.9262  0.1618
  310MOL0     C41755  -1.641   1.124   6.534  0.2482  0.4423 -0.1331
  310MOL0     C41756  -1.638   1.079   6.685  0.8725  0.2795 -0.2414
  310MOL0     C41757  -1.780   1.032   6.733  0.5529  0.7712  0.7496
  310MOL0     C41758  -1.797   1.005   6.882 -0.0776 -0.1707 -0.2268
  310MOL0     C41759  -1.800   1.146   6.949 -0.7784 -0.1524 -0.5829
  310MOL0    Cl41760  -1.830   1.117   7.125 -0.1037  0.2847 -0.4952
  310MOL0     C41761  -1.149   1.098   6.164 -0.3208  0.3603 -0.1712
  310MOL0     C41762  -1.067   1.011   6.091  0.0994 -0.1654 -0.1566
  310MOL0     O41763  -1.115   0.930   5.718 -0.2696 -0.2413 -0.8403
  310MOL0     C41764  -0.918   0.825   5.579  0.0457  0.8131  0.2620
  310MOL0     C41765  -0.823   0.764   5.496  0.2528 -0.4222  0.0511
  310MOL0     N41766  -0.346   0.037   5.626 -0.4951  0.5643 -0.0531
  310MOL0     N41767  -0.240  -0.026   5.646 -0.7862 -0.1842 -0.0965
  310MOL0     C41768   0.947   0.294   5.592 -0.1219  0.6183  0.5709
  310MOL0     C41769   1.086   0.319   5.580  0.6477 -0.5164 -0.6948
  310MOL0     C41770   1.508   0.498   5.621 -0.6715 -0.2927 -0.4876
  310MOL0     C41771   1.571   0.473   5.502 -0.1727 -0.1795 -0.3286
  310MOL0     C41772   1.716   0.454   5.507  0.0034  0.3354  0.5242
  310MOL0     C41773   1.788   0.457   5.634 -0.0854 -0.4276  0.1411
  310MOL0     O41774   1.924   0.453   5.653  0.1915  0.2201 -0.2141
  310MOL0     C41775   2.007   0.415   5.540  0.7771 -0.4187 -0.3684
  310MOL0     C41776   2.021   0.263   5.520  0.5758  0.1400  0.1244
  310MOL0     C41777   2.110   0.222   5.411 -0.7063  0.0912  0.2560
  310MOL0     C41778   2.076   0.088   5.359  0.8415  0.3130  0.3948
  310MOL0     C41779   2.168   0.027   5.265  0.1220 -0.1652  0.7414
  310MOL0     C41780   2.252  -0.030   5.191 -0.1241 -0.6734 -0.0827
  310MOL0     C41781   1.717   0.495   5.745 -0.1974  0.1126  0.2288
  310MOL0     C41782   1.584   0.518   5.736  0.8664 -0.2880  0.2949
  310MOL0     H41783   1.099   0.636   5.446  1.7725 -0.8988 -2.3513
  310MOL0     H41784   0.848   0.574   5.430 -0.6599  1.6036  1.6111
  310MOL0     H41785   0.658   0.485   5.673  3.2212 -0.9325 -1.1139
  310MOL0     H41786   0.636   0.573   5.514  0.0639 -0.7476 -0.5164
  310MOL0     H41787   0.432   0.500   5.598  1.4716  1.1540 -1.3101
  310MOL0     H41788   0.488   0.448   5.435 -1.0558  0.2200  0.3829
  310MOL0     H41789   0.539   0.235   5.515  0.2305  1.4672 -1.3929
  310MOL0     H41790   0.463   0.265   5.679  0.0198  0.7895  0.0413
  310MOL0     H41791   0.247   0.324   5.566 -3.0765 -2.5521  0.2191
  310MOL0     H41792   0.319   0.265   5.411  0.5341 -1.1565  0.1369
  310MOL0     H41793   0.342   0.052   5.500 -0.4311  0.3699 -0.1097
  310MOL0     H41794   0.273   0.096   5.664  0.4073  1.8880 -0.2069
  310MOL0     H41795   0.063   0.168   5.566 -0.5842 -0.0530 -2.4004
  310MOL0     H41796   0.109   0.113   5.413 -2.9894 -0.0758  0.3693
  310MOL0     H41797   0.162  -0.121   5.549  0.7758 -0.4794  3.7243
  310MOL0     H41798   0.062  -0.047   5.668  3.0330  1.4954  0.5146
  310MOL0     H41799  -0.069  -0.200   5.551 -0.9480  0.7592 -1.3127
  310MOL0     H41800  -0.023  -0.121   5.396 -1.7512 -0.0380 -1.0273
  310MOL0     H41801  -0.171   0.099   5.355 -0.0542 -3.0753 -0.0120
  310MOL0     H41802  -0.475   0.167   5.366 -1.5375  1.1784  0.1209
  310MOL0     H41803  -0.506   0.218   5.532  2.0042 -0.1427  1.5766
  310MOL0     H41804  -0.317   0.325   5.320  0.7539  3.1804 -0.4002
  310MOL0     H41805  -0.315   0.385   5.484 -0.5635 -0.5744  0.5239
  310MOL0     H41806  -0.563   0.393   5.325  0.8082 -0.0664 -0.1601
  310MOL0     H41807  -0.441   0.523   5.320  0.2588 -1.8488 -2.6183
  310MOL0     H41808  -0.475   0.553   5.560 -1.8319  0.1100  1.4498
  310MOL0     H41809  -0.609   0.436   5.567 -0.3117  2.6986  1.5617
  310MOL0     H41810  -0.657   0.588   5.729  2.1531  1.8305 -0.8657
  310MOL0     H41811  -0.798   0.792   5.973  0.2988  0.5654 -0.1836
  310MOL0     H41812  -0.910   0.658   5.960  0.8063 -2.6030 -0.8846
  310MOL0     H41813  -0.750   0.614   5.937 -1.2090 -0.9045 -3.3310
  310MOL0     H41814  -1.302   0.866   5.897  0.3262  0.4636 -0.1030
  310MOL0     H41815  -1.452   1.030   6.051 -0.2120 -3.0650  3.6114
  310MOL0     H41816  -1.521   1.258   6.136 -2.7177  0.0765  0.1712
  310MOL0     H41817  -1.549   1.110   6.226 -3.5355  3.4073  3.0534
  310MOL0     H41818  -1.464   1.361   6.371 -2.2206  1.0798 -2.0700
  310MOL0     H41819  -1.629   1.322   6.363 -0.6452  0.3533  1.4633
  310MOL0     H41820  -1.459   1.232   6.565  1.5670 -1.3591  0.6039
  310MOL0     H41821  -1.447   1.096   6.447 -2.8568 -0.1241 -2.1606
  310MOL0     H41822  -1.721   1.197   6.517  1.4047  1.6148 -0.7626
  310MOL0     H41823  -1.669   1.043   6.467 -0.2025 -0.5278  1.1880
  310MOL0     H41824  -1.596   1.159   6.747 -1.8245  1.6716 -0.0614
  310MOL0     H41825  -1.564   1.002   6.708  0.9337  0.4817  0.2582
  310MOL0     H41826  -1.860   1.105   6.717 -0.5079 -1.1004 -3.9302
  310MOL0     H41827  -1.808   0.943   6.675 -0.8950  1.8552 -0.2721
  310MOL0     H41828  -1.718   0.938   6.917  0.2778  0.7513  0.7912
  310MOL0     H41829  -1.889   0.951   6.904 -0.3767 -0.9376 -3.0255
  310MOL0     H41830  -1.878   1.214   6.911 -0.5627  0.2892 -0.2487
  310MOL0     H41831  -1.718   1.218   6.938  0.0951 -0.9093  0.8051
  310MOL0     H41832  -1.104   1.158   6.242  3.1317 -1.4122 -0.6024
  310MOL0     H41833  -0.958   1.007   6.089  0.2373  1.7800  1.3816
  310MOL0     H41834  -0.991   0.887   5.527 -0.4766 -2.3095 -3.1274
  310MOL0     H41835  -0.839   0.798   5.394 -4.1863  3.5966  1.6986
  310MOL0     H41836   0.913   0.198   5.629 -1.9457  1.7799  2.1247
  310MOL0     H41837   1.157   0.248   5.621 -0.5444 -1.1768  0.3202
  310MOL0     H41838   1.530   0.464   5.403  1.0734 -1.7715 -0.7369
  310MOL0     H41839   1.776   0.428   5.421  2.8731  0.5655  2.3205
  310MOL0     H41840   1.974   0.460   5.445 -1.3341  1.1981  1.0366
  310MOL0     H41841   2.110   0.448   5.556  1.1554 -2.0968  0.9424
  310MOL0     H41842   1.917   0.243   5.493  0.9911  1.6174 -3.1394
  310MOL0     H41843   2.051   0.235   5.621  1.3544 -0.0118 -0.1422
  310MOL0     H41844   2.205   0.235   5.462 -1.0475  0.2126  0.8735
  310MOL0     H41845   2.107   0.295   5.330 -0.6794 -1.4424 -1.1720
  310MOL0     H41846   1.979   0.114   5.315  1.0802 -0.2645 -0.4704
  310MOL0     H41847   2.057   0.014   5.438  1.1458 -1.5774 -1.2369
  310MOL0     H41848   2.318  -0.099   5.141 -0.5967 -0.9294 -0.3582
  310MOL0     H41849   1.768   0.513   5.839 -0.5357  0.7357  0.2998
  310MOL0     H41850   1.531   0.549   5.825  1.0747  0.2120  0.2506
  311MOL0     O41851   1.202   2.718   0.895 -0.0560  0.2354 -0.2687
  311MOL0     C41852   1.245   2.822   0.946  0.1541 -0.6299  0.7771
  311MOL0     O41853   1.178   2.901   1.045  0.1478 -0.2405 -0.0276
  311MOL0     C41854   1.056   2.848   1.080  0.1792 -0.3034  0.4080
  311MOL0     C41855   0.939   2.865   0.996  0.4469 -0.3345 -0.8647
  311MOL0     C41856   0.825   2.807   1.037 -0.2226 -0.1293  0.7498
  311MOL0     C41857   0.810   2.735   1.162 -0.1343  1.0151  0.0715
  311MOL0     O41858   0.685   2.685   1.208 -0.2262  0.0901 -0.0725
  311MOL0     C41859   0.573   2.692   1.129 -0.0608 -0.1196  0.0406
  311MOL0     C41860   0.479   2.581   1.175 -0.5595 -0.0499  0.3429
  311MOL0     C41861   0.359   2.561   1.084 -0.1940  0.8100  1.1974
  311MOL0     C41862   0.256   2.667   1.111 -0.6225  0.6747 -0.7346
  311MOL0     C41863   0.135   2.636   1.019  0.5392  0.2359  0.7942
  311MOL0     C41864   0.029   2.739   1.030  0.4203  0.4729 -0.2636
  311MOL0     C41865  -0.095   2.683   0.953 -0.0889  0.7549 -0.0996
  311MOL0     C41866  -0.070   2.657   0.804 -0.5065 -1.0798  0.5584
  311MOL0     N41867  -0.204   2.649   0.744  0.7969  0.1827  0.2503
  311MOL0     C41868  -0.279   2.762   0.713 -0.4018  0.5452 -0.0050
  311MOL0     C41869  -0.396   2.711   0.674  0.0560 -0.0888  0.6475
  311MOL0     C41870  -0.510   2.776   0.599 -0.0208 -0.6652  0.4286
  311MOL0     C41871  -0.453   2.832   0.468  0.1879  0.2446  0.0601
  311MOL0     C41872  -0.540   2.931   0.393 -0.1979  0.2174 -0.4720
  311MOL0     C41873  -0.673   2.881   0.350 -1.2787  0.9265 -0.8599
  311MOL0     O41874  -0.763   2.884   0.463  0.1690  0.4197  0.7368
  311MOL0     C41875  -0.896   2.858   0.431 -0.9404  0.9188 -0.2411
  311MOL0     C41876  -0.972   2.933   0.345  0.1609  0.1677  0.4227
  311MOL0     C41877  -1.109   2.924   0.326  0.6819  0.2852 -0.2132
  311MOL0     C41878  -1.178   3.004   0.221 -0.4180 -0.5940  0.7978
  311MOL0     C41879  -1.180   2.825   0.402  0.1798 -0.0052  0.1894
  311MOL0     C41880  -1.332   2.796   0.398 -0.5278  1.0394 -0.0994
  311MOL0     O41881  -1.385   2.739   0.507  0.2098 -0.0218 -0.2542
  311MOL0     C41882  -1.527   2.737   0.512  0.3150  0.5186 -0.1693
  311MOL0     C41883  -1.598   2.831   0.598  0.3180  0.4073 -0.4225
  311MOL0     C41884  -1.735   2.831   0.593  1.2578  0.2174 -0.2469
  311MOL0     C41885  -1.807   2.744   0.500  0.3425  0.7345  0.1367
  311MOL0     O41886  -1.944   2.747   0.477  0.6351 -0.1578 -0.8330
  311MOL0     C41887  -2.018   2.759   0.598  0.6493  0.3658  0.1623
  311MOL0     C41888  -2.151   2.683   0.578 -0.1408 -0.3635  0.5602
  311MOL0     C41889  -2.244   2.707   0.705  0.2697 -0.2246  0.2873
  311MOL0     C41890  -2.379   2.631   0.692  0.0592  0.6644  0.2402
  311MOL0     C41891  -2.452   2.647   0.820  0.2518 -0.6037  0.0707
  311MOL0     C41892  -2.576   2.560   0.840 -0.5016  0.3477  0.6099
  311MOL0     C41893  -2.658   2.588   0.971 -0.2268 -0.4920 -0.2893
  311MOL0     C41894  -2.792   2.523   0.950  0.7134 -0.3583 -0.0609
  311MOL0    Cl41895  -2.871   2.551   1.120  0.3273  0.2581 -0.2402
  311MOL0     C41896  -1.738   2.661   0.410 -0.1025 -0.6883  0.2488
  311MOL0     C41897  -1.597   2.652   0.423 -0.6638 -0.7035  0.2512
  311MOL0     O41898  -1.399   2.860   0.319 -0.1658  0.0410 -0.1719
  311MOL0     C41899  -1.099   2.733   0.482 -0.6670  0.4856  0.9749
  311MOL0     C41900  -0.962   2.756   0.503 -0.0827 -0.1182  0.4234
  311MOL0     N41901  -0.392   2.574   0.701 -0.8363  0.7770  0.9613
  311MOL0     N41902  -0.273   2.540   0.738 -0.3654  0.5157  0.6257
  311MOL0     C41903   0.925   2.725   1.243  0.1300  0.0048  0.5687
  311MOL0     C41904   1.050   2.789   1.199 -0.0743  0.4157 -0.0232
  311MOL0     C41905   1.387   2.875   0.921  0.7629  0.1222  0.4443
  311MOL0     C41906   1.436   2.978   0.999 -0.5521  0.4018 -0.6588
  311MOL0     C41907   1.576   3.022   0.999  0.3464 -0.0708 -1.0021
  311MOL0     C41908   1.657   2.965   0.915  0.4127  0.8993  1.1414
  311MOL0     O41909   1.792   2.995   0.921  0.1766 -0.5383 -0.4599
  311MOL0     C41910   1.892   2.929   0.843 -0.7779  0.3615  0.0126
  311MOL0     C41911   2.025   2.997   0.866 -0.5165  0.4092 -0.1440
  311MOL0     C41912   1.998   3.147   0.863  0.3498  0.5955 -0.0439
  311MOL0     C41913   2.127   3.230   0.887  0.0879  0.6093  0.6917
  311MOL0     C41914   2.214   3.208   0.772 -0.2210  0.6186  0.6861
  311MOL0     C41915   2.279   3.191   0.672  0.3418 -0.6780  0.2634
  311MOL0     C41916   1.606   2.870   0.825 -0.4916  0.3244  0.4071
  311MOL0     C41917   1.478   2.817   0.834 -0.0041 -0.2169  0.7701
  311MOL0     H41918   0.958   2.918   0.903  1.3771  2.1977  0.6729
  311MOL0     H41919   0.756   2.813   0.953 -0.5831 -2.1633  0.8459
  311MOL0     H41920   0.551   2.798   1.143  1.7033  0.4509 -1.1498
  311MOL0     H41921   0.600   2.656   1.029 -0.5914 -1.1683  0.2557
  311MOL0     H41922   0.530   2.484   1.178 -0.4117 -0.2162 -3.3267
  311MOL0     H41923   0.446   2.601   1.277 -0.3174  2.0033  0.0597
  311MOL0     H41924   0.391   2.573   0.980  1.0032  2.5147  1.7140
  311MOL0     H41925   0.324   2.459   1.103  1.5140  0.4629  2.7894
  311MOL0     H41926   0.222   2.671   1.215 -0.3284  0.2205 -0.6182
  311MOL0     H41927   0.317   2.756   1.091  1.0468  0.0101  1.0324
  311MOL0     H41928   0.160   2.627   0.913  2.5550  0.6313  1.1978
  311MOL0     H41929   0.094   2.536   1.035 -0.5656 -0.0078 -2.6864
  311MOL0     H41930  -0.002   2.745   1.135 -2.4095 -3.5809 -0.6067
  311MOL0     H41931   0.073   2.831   0.993  0.3834  0.4611 -0.3372
  311MOL0     H41932  -0.121   2.589   1.003  0.7996 -0.0669 -1.1306
  311MOL0     H41933  -0.174   2.759   0.955  1.9278  3.1025 -2.1192
  311MOL0     H41934  -0.017   2.563   0.787 -0.9085 -1.4313  1.2007
  311MOL0     H41935  -0.012   2.738   0.760  1.3465 -1.6275  1.8665
  311MOL0     H41936  -0.262   2.869   0.711 -1.0061  0.7265  1.9622
  311MOL0     H41937  -0.595   2.713   0.570 -2.0709  2.5063 -0.9668
  311MOL0     H41938  -0.535   2.860   0.664  0.1214  1.0611 -1.6393
  311MOL0     H41939  -0.431   2.739   0.414 -0.0352 -0.3124  0.9044
  311MOL0     H41940  -0.358   2.881   0.494  0.9998 -0.2195 -1.8146
  311MOL0     H41941  -0.477   2.955   0.306  2.1108 -0.1779  1.0175
  311MOL0     H41942  -0.559   3.020   0.453 -2.3745 -1.5113  1.5835
  311MOL0     H41943  -0.654   2.777   0.324 -2.0054 -0.0899  2.2375
  311MOL0     H41944  -0.704   2.946   0.268 -2.2128  1.7677  0.1192
  311MOL0     H41945  -0.917   3.010   0.291  2.8272 -1.2696  0.9643
  311MOL0     H41946  -1.104   3.058   0.162 -0.1697 -1.4616  0.3003
  311MOL0     H41947  -1.254   2.956   0.159 -1.3916  3.1610 -1.2505
  311MOL0     H41948  -1.229   3.084   0.275  1.9557  1.7359 -0.1814
  311MOL0     H41949  -1.549   2.886   0.678  0.1101 -0.6350  0.4502
  311MOL0     H41950  -1.790   2.895   0.661 -0.8877 -1.4981 -0.2489
  311MOL0     H41951  -1.973   2.717   0.689 -0.0204  0.6410  0.6217
  311MOL0     H41952  -2.046   2.863   0.616 -1.4824 -0.5017  2.3025
  311MOL0     H41953  -2.198   2.720   0.487  1.4972 -1.7194 -0.8953
  311MOL0     H41954  -2.133   2.577   0.555  0.4891  0.3456 -2.7014
  311MOL0     H41955  -2.254   2.814   0.727  2.2051 -0.2573  1.5582
  311MOL0     H41956  -2.182   2.664   0.784  0.9454 -2.6959 -1.4833
  311MOL0     H41957  -2.435   2.675   0.609  0.6582  0.4627 -0.2831
  311MOL0     H41958  -2.358   2.525   0.675 -0.9858  0.3594  0.8048
  311MOL0     H41959  -2.474   2.753   0.840  1.4299 -0.4068  0.4149
  311MOL0     H41960  -2.372   2.629   0.892  0.7874 -0.4420 -0.4752
  311MOL0     H41961  -2.643   2.581   0.756 -0.4576  1.1890  0.7748
  311MOL0     H41962  -2.556   2.453   0.826 -3.6697 -0.3739  0.7381
  311MOL0     H41963  -2.688   2.694   0.975  0.6489 -0.2249 -0.4680
  311MOL0     H41964  -2.611   2.559   1.065  0.5924  1.0393 -0.1825
  311MOL0     H41965  -2.790   2.416   0.926 -1.0856 -0.3389 -0.3962
  311MOL0     H41966  -2.852   2.575   0.875  1.1267 -0.1537 -0.2526
  311MOL0     H41967  -1.798   2.605   0.339 -2.6682 -0.6207  2.1921
  311MOL0     H41968  -1.546   2.586   0.353 -0.7010  0.0279 -0.4776
  311MOL0     H41969  -1.154   2.660   0.540 -0.2128 -1.5992 -1.0519
  311MOL0     H41970  -0.909   2.697   0.577 -0.4161  0.5587  1.2151
  311MOL0     H41971   0.921   2.675   1.340 -0.1181  1.1437  1.1681
  311MOL0     H41972   1.136   2.794   1.265  0.1139  3.0903 -0.3796
  311MOL0     H41973   1.373   3.027   1.074 -0.7758  0.9829 -1.2166
  311MOL0     H41974   1.598   3.107   1.062 -0.5045 -0.6751  0.1313
  311MOL0     H41975   1.903   2.824   0.871  2.2390  0.5316 -0.2161
  311MOL0     H41976   1.857   2.942   0.740 -2.3453  3.1156  0.7963
  311MOL0     H41977   2.097   2.951   0.797 -0.0227 -2.7500  2.2320
  311MOL0     H41978   2.062   2.967   0.964 -0.9306  0.2300 -0.0451
  311MOL0     H41979   1.946   3.175   0.956  1.6878  0.4662  0.7733
  311MOL0     H41980   1.939   3.179   0.777  0.4859  2.9018  0.6333
  311MOL0     H41981   2.175   3.190   0.977 -1.1763 -5.3674 -0.8730
  311MOL0     H41982   2.096   3.335   0.893 -3.4873 -0.2076 -0.5918
  311MOL0     H41983   2.325   3.188   0.575 -1.9191 -1.2548 -0.8696
  311MOL0     H41984   1.671   2.816   0.757 -2.1315 -1.6249  0.2981
  311MOL0     H41985   1.447   2.730   0.776  0.4354  0.0335  0.1540
  312MOL0     O41986  10.113   9.214   8.764 -0.3645 -0.4106 -0.1703
  312MOL0     C41987  10.160   9.119   8.707 -0.3674  0.5391  0.0552
  312MOL0     O41988  10.097   9.001   8.661 -0.2689 -1.4434 -0.9044
  312MOL0     C41989   9.968   8.989   8.713 -1.2523 -0.4241  1.0249
  312MOL0     C41990   9.939   8.944   8.842  0.0793 -0.1806  0.1050
  312MOL0     C41991   9.810   8.928   8.892 -0.4115  0.2274  0.1102
  312MOL0     C41992   9.703   8.956   8.800 -0.4264 -0.5511 -0.4709
  312MOL0     O41993   9.572   8.930   8.830 -0.6514 -0.4192  0.4788
  312MOL0     C41994   9.536   8.844   8.944  0.1667 -0.0747  0.2233
  312MOL0     C41995   9.381   8.837   8.940 -0.0073 -1.4314 -0.8416
  312MOL0     C41996   9.329   8.778   9.069 -0.6693  0.7975  0.0726
  312MOL0     C41997   9.173   8.777   9.071 -0.0680  0.2533  0.9440
  312MOL0     C41998   9.134   8.701   9.202  0.0919 -0.1585  0.3442
  312MOL0     C41999   8.984   8.710   9.230 -0.0123 -0.1996  0.0678
  312MOL0     C42000   8.944   8.690   9.381  0.1742 -0.6045 -0.1197
  312MOL0     C42001   8.793   8.728   9.404 -0.6277  0.3010  0.1166
  312MOL0     N42002   8.756   8.720   9.545  0.2389 -0.2392  0.4815
  312MOL0     C42003   8.669   8.632   9.590  0.2906  0.3871 -0.0025
  312MOL0     C42004   8.660   8.661   9.722  0.2148 -0.2064  0.5724
  312MOL0     C42005   8.579   8.575   9.815 -0.4609 -0.3513 -0.7127
  312MOL0     C42006   8.437   8.555   9.771  0.2707 -0.1655 -0.0186
  312MOL0     C42007   8.352   8.687   9.753  0.4269 -0.3941 -0.3470
  312MOL0     C42008   8.200   8.648   9.760  0.0953 -0.4733 -0.6458
  312MOL0     O42009   8.172   8.541   9.673  0.3620 -0.8278 -0.0997
  312MOL0     C42010   8.043   8.499   9.641 -0.8301  0.1436  0.8335
  312MOL0     C42011   8.034   8.370   9.588 -0.3484  0.1000 -0.1580
  312MOL0     C42012   7.914   8.309   9.552 -0.3380  0.2907 -0.2283
  312MOL0     C42013   7.932   8.165   9.506  0.4185  0.8402 -0.9078
  312MOL0     C42014   7.796   8.385   9.575 -0.6835  0.6181  0.6587
  312MOL0     C42015   7.658   8.343   9.534 -0.6012 -0.3602 -0.4933
  312MOL0     O42016   7.557   8.432   9.569  0.7417 -0.0749  0.3618
  312MOL0     C42017   7.426   8.409   9.519 -0.2876  0.4853 -0.7604
  312MOL0     C42018   7.333   8.520   9.517 -0.7571  0.3017  0.0395
  312MOL0     C42019   7.198   8.509   9.498  0.3132  0.2114 -0.5021
  312MOL0     C42020   7.141   8.377   9.482 -0.5322  0.0172 -0.3085
  312MOL0     O42021   7.005   8.352   9.472 -0.7156  0.5574  0.4648
  312MOL0     C42022   6.912   8.464   9.436  0.0227  0.5559  0.1310
  312MOL0     C42023   6.824   8.511   9.557  0.3681  0.7577 -0.8115
  312MOL0     C42024   6.699   8.596   9.513  0.1591  1.1780 -0.1251
  312MOL0     C42025   6.733   8.751   9.524 -0.1774 -0.7475  0.2423
  312MOL0     C42026   6.609   8.833   9.468  1.0214 -0.0409  0.4307
  312MOL0     C42027   6.473   8.770   9.517  0.4895  0.4950 -0.0245
  312MOL0     C42028   6.345   8.847   9.484 -0.0343 -0.2748 -0.3286
  312MOL0     C42029   6.230   8.792   9.562 -0.6464  0.4421 -0.2904
  312MOL0    Cl42030   6.266   8.807   9.742  0.0509 -0.1059  0.5999
  312MOL0     C42031   7.221   8.273   9.470  0.3169 -0.1770  1.0308
  312MOL0     C42032   7.364   8.281   9.488 -0.3227 -1.1697 -0.8901
  312MOL0     O42033   7.644   8.243   9.466 -0.0473  0.3291  0.6140
  312MOL0     C42034   7.808   8.511   9.638 -0.4283 -0.9829  0.6588
  312MOL0     C42035   7.931   8.574   9.665  0.9053  0.8435 -1.0007
  312MOL0     N42036   8.714   8.786   9.743  0.6659 -0.0143 -0.8078
  312MOL0     N42037   8.773   8.819   9.635  0.0915  0.4452 -0.1575
  312MOL0     C42038   9.731   9.006   8.673  0.8798 -0.2418  0.2954
  312MOL0     C42039   9.864   9.025   8.626  0.3657 -0.1841  0.0288
  312MOL0     C42040  10.307   9.131   8.667 -0.4375 -0.8393 -0.5361
  312MOL0     C42041  10.368   9.253   8.654 -0.8028 -0.2887 -0.4990
  312MOL0     C42042  10.501   9.267   8.606  0.4620 -0.2348 -0.5090
  312MOL0     C42043  10.580   9.148   8.584  0.8190  0.2388 -0.8870
  312MOL0     O42044  10.715   9.141   8.550  0.3420 -1.5016 -0.1945
  312MOL0     C42045  10.787   9.262   8.558 -0.0128 -0.4925  0.6710
  312MOL0     C42046  10.937   9.234   8.504  0.4832 -0.9697  0.9025
  312MOL0     C42047  10.999   9.170   8.622 -0.7461  0.2314  0.8952
  312MOL0     C42048  11.146   9.122   8.582  0.0893 -0.6241  0.2108
  312MOL0     C42049  11.154   9.031   8.470  0.3063  0.8226  0.0895
  312MOL0     C42050  11.150   8.953   8.380  0.3154  0.5327 -1.0286
  312MOL0     C42051  10.516   9.028   8.584  0.1136  0.1206 -0.1303
  312MOL0     C42052  10.382   9.022   8.630 -0.3636 -0.5870 -0.1245
  312MOL0     H42053  10.029   8.931   8.902  0.3171 -3.0927 -0.7344
  312MOL0     H42054   9.796   8.899   8.996  2.6641 -1.0806  0.2690
  312MOL0     H42055   9.585   8.746   8.945  2.4605  1.0079 -0.6842
  312MOL0     H42056   9.571   8.879   9.042 -0.3693 -0.0206  0.3985
  312MOL0     H42057   9.351   8.941   8.920  1.9289 -0.7555 -0.4161
  312MOL0     H42058   9.337   8.768   8.867  0.2683 -2.1290 -0.3578
  312MOL0     H42059   9.367   8.676   9.079 -0.2056  0.9318 -0.2981
  312MOL0     H42060   9.363   8.823   9.163  2.0010 -2.3114  0.7572
  312MOL0     H42061   9.130   8.878   9.063  1.2592  1.0092  2.6858
  312MOL0     H42062   9.133   8.713   8.991  3.4751  0.7176 -1.4335
  312MOL0     H42063   9.160   8.596   9.186  0.4275 -0.0651  0.2757
  312MOL0     H42064   9.176   8.753   9.289 -3.7415  2.9389  0.6474
  312MOL0     H42065   8.938   8.800   9.188 -2.2744 -1.6660 -0.8111
  312MOL0     H42066   8.922   8.643   9.170 -0.5917  0.8897 -0.5992
  312MOL0     H42067   8.973   8.590   9.416  1.5163 -0.0445  0.4519
  312MOL0     H42068   9.008   8.761   9.435 -3.2507  2.2726  0.4549
  312MOL0     H42069   8.738   8.656   9.342  0.5099 -0.9340  0.4970
  312MOL0     H42070   8.782   8.825   9.355 -1.1693 -0.2509 -0.9093
  312MOL0     H42071   8.638   8.546   9.531  0.3591  0.5818 -0.3221
  312MOL0     H42072   8.622   8.474   9.818  1.1864  0.3260  1.8784
  312MOL0     H42073   8.589   8.616   9.916 -0.2239 -0.3141 -0.7511
  312MOL0     H42074   8.393   8.489   9.846  0.7795  1.7040  2.0450
  312MOL0     H42075   8.430   8.491   9.682  2.5546 -0.9179  0.2869
  312MOL0     H42076   8.374   8.736   9.658 -0.4213  2.0127  0.6218
  312MOL0     H42077   8.382   8.753   9.835 -0.1101  0.0754 -0.5255
  312MOL0     H42078   8.140   8.733   9.726  1.3292  0.6670 -0.0853
  312MOL0     H42079   8.190   8.628   9.867 -0.1069 -3.0015 -1.0790
  312MOL0     H42080   8.130   8.319   9.590  0.0377  0.8226  0.5805
  312MOL0     H42081   7.911   8.103   9.593 -1.2343  0.7479 -1.3342
  312MOL0     H42082   7.866   8.129   9.426  2.5936 -1.0203 -1.9876
  312MOL0     H42083   8.034   8.153   9.467  1.8092  1.0156  2.3504
  312MOL0     H42084   7.376   8.616   9.546  0.7067 -1.0809  2.8490
  312MOL0     H42085   7.130   8.593   9.491  2.0988  1.6138 -2.6262
  312MOL0     H42086   6.954   8.555   9.393 -0.5874  0.1727 -1.3399
  312MOL0     H42087   6.844   8.409   9.370  0.1424 -1.3896  1.5426
  312MOL0     H42088   6.789   8.418   9.602  1.0073  0.7614 -0.2823
  312MOL0     H42089   6.896   8.563   9.622  0.5705 -0.0326 -0.3939
  312MOL0     H42090   6.620   8.575   9.586  1.2291 -0.8744  0.5223
  312MOL0     H42091   6.661   8.569   9.414 -2.0787 -1.1523  1.2379
  312MOL0     H42092   6.765   8.790   9.621  1.2759 -1.4759  0.0927
  312MOL0     H42093   6.822   8.776   9.465 -1.4158 -0.0566 -1.4246
  312MOL0     H42094   6.626   8.830   9.360 -0.4412 -2.9642  0.1961
  312MOL0     H42095   6.603   8.940   9.490 -4.1352 -0.0382  0.2716
  312MOL0     H42096   6.449   8.671   9.478  1.3059  0.6358 -0.9134
  312MOL0     H42097   6.474   8.762   9.626 -1.9438 -0.4282  0.0065
  312MOL0     H42098   6.318   8.848   9.378 -1.9805  1.4945  0.1152
  312MOL0     H42099   6.360   8.952   9.508  0.1857  0.1966 -2.3697
  312MOL0     H42100   6.210   8.687   9.540 -3.0337  0.6488  0.6014
  312MOL0     H42101   6.136   8.842   9.534 -0.0937  2.3472  1.0836
  312MOL0     H42102   7.175   8.174   9.471  0.9942 -0.5027  0.6550
  312MOL0     H42103   7.409   8.183   9.476 -0.7236 -1.1741 -2.7783
  312MOL0     H42104   7.721   8.562   9.677 -0.4533  0.2662 -0.9030
  312MOL0     H42105   7.923   8.678   9.695 -2.0489  0.7808 -1.3573
  312MOL0     H42106   9.649   9.034   8.608  0.5752  4.2574  2.2968
  312MOL0     H42107   9.877   9.059   8.524  0.1774  1.5145  0.5328
  312MOL0     H42108  10.329   9.350   8.685  1.3883  0.2827  0.6835
  312MOL0     H42109  10.548   9.363   8.587 -0.9593  0.6676  0.3398
  312MOL0     H42110  10.743   9.339   8.493  0.4073 -2.5274 -2.2262
  312MOL0     H42111  10.785   9.291   8.664  0.5983 -0.8902  0.7904
  312MOL0     H42112  10.989   9.327   8.478 -1.2528 -0.1337  0.3072
  312MOL0     H42113  10.933   9.179   8.410 -1.2699  4.7750 -2.8835
  312MOL0     H42114  10.941   9.093   8.672  0.4389 -1.4727 -0.2509
  312MOL0     H42115  10.997   9.250   8.697 -0.1644  3.4242 -2.1893
  312MOL0     H42116  11.193   9.071   8.667  0.0054 -0.4224  0.3781
  312MOL0     H42117  11.203   9.213   8.562  0.4173 -0.9829 -0.5221
  312MOL0     H42118  11.138   8.887   8.297 -1.4903 -0.0873 -0.3360
  312MOL0     H42119  10.572   8.941   8.550  1.0014  1.3119 -1.8067
  312MOL0     H42120  10.346   8.919   8.627  1.9151 -1.4163 -1.2070
  313MOL0     O42121   8.883   4.034   8.607  0.7318 -0.5461  0.4223
  313MOL0     C42122   8.865   4.079   8.490  0.2462 -0.3266 -0.4831
  313MOL0     O42123   8.793   4.018   8.389 -0.4587 -0.9437  0.1885
  313MOL0     C42124   8.713   3.909   8.397 -0.1368  0.4569 -0.1348
  313MOL0     C42125   8.660   3.851   8.288  0.1291 -0.6018  0.5585
  313MOL0     C42126   8.565   3.741   8.290 -0.5620 -0.0462  0.2686
  313MOL0     C42127   8.502   3.705   8.405 -1.2829  1.2076  0.2361
  313MOL0     O42128   8.391   3.620   8.400  0.1802  0.5480  0.5265
  313MOL0     C42129   8.298   3.632   8.507 -0.2549 -0.7530 -0.4158
  313MOL0     C42130   8.172   3.567   8.469  0.3038 -0.0074  0.1980
  313MOL0     C42131   8.066   3.582   8.579  0.9942 -0.5081 -0.5520
  313MOL0     C42132   7.921   3.557   8.524 -0.1681  0.3679 -0.5036
  313MOL0     C42133   7.831   3.492   8.633 -0.6800  0.1609  0.0951
  313MOL0     C42134   7.693   3.470   8.585  0.0999  0.8538 -0.8123
  313MOL0     C42135   7.615   3.408   8.700 -0.6632  0.0727 -0.8559
  313MOL0     C42136   7.547   3.517   8.790 -0.2563  0.4472 -1.0454
  313MOL0     N42137   7.428   3.580   8.724  0.5090  0.7533 -0.3977
  313MOL0     C42138   7.319   3.503   8.676 -0.6108 -0.0080 -0.2018
  313MOL0     C42139   7.238   3.599   8.626 -0.0751  0.2854 -0.0312
  313MOL0     C42140   7.105   3.574   8.548 -0.2962  0.0743 -0.3990
  313MOL0     C42141   7.002   3.511   8.641 -0.0013 -0.7170 -0.5321
  313MOL0     C42142   6.879   3.465   8.576 -0.0432 -0.7173 -0.4222
  313MOL0     C42143   6.775   3.420   8.685  0.6188  0.0416  0.8916
  313MOL0     O42144   6.709   3.537   8.732  0.4220  0.7282  0.5690
  313MOL0     C42145   6.617   3.531   8.836 -0.1664 -0.4536  0.9142
  313MOL0     C42146   6.491   3.462   8.820 -0.4571  0.2475  0.9102
  313MOL0     C42147   6.402   3.426   8.926  0.2338 -0.6028  0.2094
  313MOL0     C42148   6.281   3.348   8.890  0.0253 -0.5704 -0.0976
  313MOL0     C42149   6.419   3.492   9.050  0.9462 -0.3501 -0.0439
  313MOL0     C42150   6.329   3.481   9.170 -0.5251 -0.7908  0.9759
  313MOL0     O42151   6.258   3.588   9.205 -0.2697 -0.1453 -0.0783
  313MOL0     C42152   6.216   3.618   9.327  0.2874  0.0634  0.9532
  313MOL0     C42153   6.279   3.572   9.443 -0.0840  1.4971  0.3845
  313MOL0     C42154   6.222   3.609   9.565 -0.1897  0.8965  0.0453
  313MOL0     C42155   6.102   3.678   9.571 -0.2580  0.1787 -0.2542
  313MOL0     O42156   6.060   3.715   9.697 -0.4578  0.5197  0.3300
  313MOL0     C42157   5.920   3.738   9.720 -0.9020  1.1043 -0.6375
  313MOL0     C42158   5.887   3.754   9.865 -0.8003 -0.7362  0.2772
  313MOL0     C42159   5.744   3.800   9.898 -0.6594 -0.4971  0.4104
  313MOL0     C42160   5.698   3.765  10.034  0.7118 -0.7966  0.0075
  313MOL0     C42161   5.570   3.832  10.089  0.2711  0.5113  1.3984
  313MOL0     C42162   5.451   3.811   9.994  0.3857  0.5469 -0.4345
  313MOL0     C42163   5.323   3.874  10.032  0.8942  0.3944 -0.3584
  313MOL0     C42164   5.207   3.823   9.955 -0.0923  0.4734  0.3995
  313MOL0    Cl42165   5.053   3.894  10.024  0.4934 -0.0225 -0.1137
  313MOL0     C42166   6.036   3.725   9.450 -1.1525 -0.2145  0.2173
  313MOL0     C42167   6.103   3.704   9.332 -0.4407 -0.0072 -0.2811
  313MOL0     O42168   6.312   3.371   9.218  0.0704  0.5174  0.3314
  313MOL0     C42169   6.543   3.560   9.063 -0.1421 -0.6742 -0.1239
  313MOL0     C42170   6.643   3.572   8.961  0.4085 -0.3486 -0.1346
  313MOL0     N42171   7.287   3.723   8.635 -0.3639 -0.1746 -0.7323
  313MOL0     N42172   7.403   3.710   8.695  0.5530  0.4218 -0.1231
  313MOL0     C42173   8.566   3.758   8.515 -0.2250 -0.0599 -0.4079
  313MOL0     C42174   8.664   3.859   8.516  0.0508 -0.0074 -0.1180
  313MOL0     C42175   8.928   4.206   8.457 -0.9918 -0.0746 -1.0549
  313MOL0     C42176   9.040   4.248   8.533  0.3171 -0.1073  0.7426
  313MOL0     C42177   9.113   4.363   8.493  0.2466  0.3307 -0.2235
  313MOL0     C42178   9.072   4.437   8.385  0.7567 -0.3203  0.5155
  313MOL0     O42179   9.135   4.550   8.348 -0.0469 -0.0273  0.7252
  313MOL0     C42180   9.216   4.616   8.444  0.1976  0.4041  0.2867
  313MOL0     C42181   9.239   4.764   8.409 -1.1975  0.3191  0.5750
  313MOL0     C42182   9.376   4.819   8.449  0.1416 -0.6488  0.0731
  313MOL0     C42183   9.370   4.968   8.440 -0.4080 -0.0720  0.6193
  313MOL0     C42184   9.443   5.009   8.320 -0.1836 -0.5123  0.0820
  313MOL0     C42185   9.492   5.067   8.220  0.3864  0.5105  0.5581
  313MOL0     C42186   8.955   4.400   8.312 -0.1314 -0.3933 -0.0067
  313MOL0     C42187   8.890   4.280   8.352  0.0350 -0.2516  0.4907
  313MOL0     H42188   8.703   3.873   8.191  0.5612  2.2196  1.2894
  313MOL0     H42189   8.531   3.691   8.200 -2.5328  0.6454  0.5943
  313MOL0     H42190   8.336   3.576   8.593  2.8311  0.6848 -0.7324
  313MOL0     H42191   8.276   3.736   8.532 -0.0547 -0.6091 -0.8326
  313MOL0     H42192   8.140   3.615   8.376  1.0879 -2.3031 -1.3345
  313MOL0     H42193   8.194   3.462   8.447 -0.1895 -0.2189  0.6749
  313MOL0     H42194   8.090   3.514   8.662  0.1471 -0.4896 -0.2780
  313MOL0     H42195   8.062   3.681   8.625 -3.0046 -0.5862 -0.3680
  313MOL0     H42196   7.879   3.650   8.483 -0.6470 -0.0341 -0.9332
  313MOL0     H42197   7.917   3.493   8.436 -1.9154  1.5324 -1.3229
  313MOL0     H42198   7.871   3.397   8.669  0.2052  0.6656  0.4647
  313MOL0     H42199   7.839   3.560   8.718 -0.4427 -1.4209  1.3973
  313MOL0     H42200   7.646   3.562   8.549  0.5063  1.0267 -0.9014
  313MOL0     H42201   7.688   3.403   8.499 -0.4190 -0.3010  0.0861
  313MOL0     H42202   7.530   3.346   8.668 -1.8653 -0.1188  2.3521
  313MOL0     H42203   7.674   3.349   8.770 -1.8222 -0.6585 -0.4629
  313MOL0     H42204   7.617   3.600   8.806  2.0089 -1.4564 -0.6176
  313MOL0     H42205   7.511   3.476   8.884 -0.0977 -0.1644 -1.2465
  313MOL0     H42206   7.318   3.394   8.682 -0.0247  0.0149  0.3853
  313MOL0     H42207   7.074   3.672   8.511 -1.2951 -0.0495  0.0996
  313MOL0     H42208   7.127   3.507   8.464 -1.9169 -1.2914  0.2172
  313MOL0     H42209   6.975   3.592   8.710  1.9911 -0.3150 -0.1641
  313MOL0     H42210   7.055   3.429   8.690  0.1813 -1.0011 -1.1977
  313MOL0     H42211   6.897   3.373   8.519 -1.3629 -0.2741 -1.6178
  313MOL0     H42212   6.852   3.546   8.508  0.2586  1.1742  1.5963
  313MOL0     H42213   6.810   3.354   8.766  2.4303  1.2027  1.1006
  313MOL0     H42214   6.702   3.354   8.637  0.9628 -0.7123  1.3742
  313MOL0     H42215   6.472   3.431   8.718  0.4615 -1.3128  1.1677
  313MOL0     H42216   6.267   3.281   8.976 -1.9004  2.8001  2.4786
  313MOL0     H42217   6.196   3.418   8.897  0.1562 -0.2922 -1.2493
  313MOL0     H42218   6.288   3.309   8.789 -1.1578  2.4039 -1.4423
  313MOL0     H42219   6.362   3.503   9.429 -0.6909  0.8295  0.0183
  313MOL0     H42220   6.277   3.580   9.654 -0.5893 -0.5251 -0.1381
  313MOL0     H42221   5.901   3.839   9.683 -1.2310  0.9552 -0.8809
  313MOL0     H42222   5.847   3.676   9.668  0.4139 -1.1653  0.0837
  313MOL0     H42223   5.896   3.654   9.907 -0.2200  0.5268  3.5240
  313MOL0     H42224   5.969   3.800   9.922 -1.3510 -0.5076  0.9015
  313MOL0     H42225   5.679   3.772   9.815 -1.0315  0.7490  0.2617
  313MOL0     H42226   5.759   3.909   9.905  1.3378 -0.7950  1.5398
  313MOL0     H42227   5.704   3.656  10.031  0.5610 -0.8982 -5.0187
  313MOL0     H42228   5.779   3.802  10.097  0.2389 -0.4500  0.4197
  313MOL0     H42229   5.580   3.941  10.098  2.3897  0.5560 -0.5375
  313MOL0     H42230   5.556   3.787  10.187  0.8603 -0.4957  1.0272
  313MOL0     H42231   5.459   3.848   9.891 -2.1895  1.9474 -0.2164
  313MOL0     H42232   5.455   3.704   9.970  1.2862  1.0161 -2.6392
  313MOL0     H42233   5.335   3.981  10.011 -0.8960 -0.0039 -4.2248
  313MOL0     H42234   5.293   3.860  10.137 -1.1140 -0.7570 -1.0204
  313MOL0     H42235   5.202   3.715   9.968  0.5840  0.0617 -2.2266
  313MOL0     H42236   5.212   3.852   9.850 -1.1379 -0.5582  0.0495
  313MOL0     H42237   5.947   3.787   9.447 -1.4886 -0.7392 -1.2087
  313MOL0     H42238   6.065   3.744   9.238 -1.0842 -1.1732 -0.5281
  313MOL0     H42239   6.555   3.601   9.163  0.5103  0.4457 -0.6539
  313MOL0     H42240   6.739   3.615   8.989 -0.0216 -0.2730  1.3004
  313MOL0     H42241   8.550   3.726   8.617  0.4183 -0.8073 -0.5311
  313MOL0     H42242   8.701   3.888   8.614  0.2704  0.3985 -0.3198
  313MOL0     H42243   9.067   4.190   8.621 -1.9149 -1.3854  0.6529
  313MOL0     H42244   9.185   4.403   8.564  2.9986  0.3536 -2.8580
  313MOL0     H42245   9.180   4.611   8.547  1.3611  0.4838  0.7156
  313MOL0     H42246   9.318   4.575   8.445  0.9299  2.1319  1.0037
  313MOL0     H42247   9.149   4.812   8.449 -2.2794 -0.2692 -1.0545
  313MOL0     H42248   9.228   4.766   8.300  2.2547  0.3596  0.1356
  313MOL0     H42249   9.462   4.785   8.391  2.0353  2.2496  0.9573
  313MOL0     H42250   9.402   4.785   8.549  0.8520  1.7317  0.7703
  313MOL0     H42251   9.419   5.011   8.528  1.2303 -1.0197  0.2138
  313MOL0     H42252   9.266   5.004   8.440 -0.3304  0.1534  0.6207
  313MOL0     H42253   9.532   5.129   8.142  0.2618 -0.3117 -0.1757
  313MOL0     H42254   8.909   4.464   8.238 -2.5701 -3.4643 -1.3689
  313MOL0     H42255   8.800   4.255   8.297  1.0100  0.0410 -1.3263
  314MOL0     O42256   4.028   8.237   4.379 -0.5150  0.1441  0.3897
  314MOL0     C42257   4.013   8.333   4.304 -0.0602 -0.3214  0.6570
  314MOL0     O42258   3.897   8.369   4.258 -0.0860  0.0649 -0.0506
  314MOL0     C42259   3.774   8.354   4.325 -0.5662 -0.9351 -0.4760
  314MOL0     C42260   3.666   8.382   4.257  1.3467 -0.3450 -0.4875
  314MOL0     C42261   3.533   8.377   4.314 -0.1397 -0.5640 -0.0736
  314MOL0     C42262   3.516   8.334   4.446  0.6837  0.0126 -0.6897
  314MOL0     O42263   3.389   8.323   4.503 -0.4474 -0.2272  0.0859
  314MOL0     C42264   3.280   8.304   4.413  0.0319 -0.1718  0.5003
  314MOL0     C42265   3.165   8.247   4.498 -0.2515 -0.1758 -0.7508
  314MOL0     C42266   3.207   8.129   4.575 -0.2280  0.0178 -0.9221
  314MOL0     C42267   3.088   8.075   4.647 -1.0572  0.6741  1.3009
  314MOL0     C42268   2.959   8.057   4.561  0.0182  0.7025 -0.2144
  314MOL0     C42269   2.970   7.950   4.451 -0.5603  0.0814 -0.3594
  314MOL0     C42270   2.837   7.900   4.397 -1.0259 -0.0204  0.3992
  314MOL0     C42271   2.865   7.830   4.266  0.4387 -0.3547  0.0544
  314MOL0     N42272   2.740   7.807   4.190 -0.5286  0.0271 -0.0242
  314MOL0     C42273   2.691   7.899   4.101  0.7107  0.5837 -0.2065
  314MOL0     C42274   2.587   7.839   4.047 -0.0788 -0.6393 -0.1851
  314MOL0     C42275   2.494   7.906   3.949  0.6600 -0.0294  0.9563
  314MOL0     C42276   2.352   7.868   3.956  0.2014  0.0760  0.1397
  314MOL0     C42277   2.247   7.956   3.876  0.3822  0.4068 -0.0474
  314MOL0     C42278   2.136   7.865   3.825  0.6918  1.0858 -0.1981
  314MOL0     O42279   2.070   7.799   3.935  0.4855 -0.0109 -0.0694
  314MOL0     C42280   1.959   7.734   3.883 -0.0657  0.2319 -0.3901
  314MOL0     C42281   1.963   7.635   3.790 -0.2881  0.3643 -0.0716
  314MOL0     C42282   1.851   7.583   3.726  0.1000  0.3586  0.3975
  314MOL0     C42283   1.862   7.474   3.625 -0.2263 -0.2794 -0.3923
  314MOL0     C42284   1.726   7.635   3.773  0.1790 -0.1164  0.0551
  314MOL0     C42285   1.586   7.600   3.725  0.1122  0.2696 -0.3235
  314MOL0     O42286   1.481   7.696   3.744 -0.3479 -0.6801 -0.7500
  314MOL0     C42287   1.354   7.653   3.722  1.2403 -0.5940  1.1303
  314MOL0     C42288   1.303   7.627   3.591  0.1085 -0.2484 -0.7367
  314MOL0     C42289   1.176   7.577   3.578  1.1663  0.2340  0.1472
  314MOL0     C42290   1.086   7.552   3.679 -0.3975  0.4363  0.1884
  314MOL0     O42291   0.957   7.508   3.650 -0.4747  0.0718 -0.5993
  314MOL0     C42292   0.853   7.533   3.748  0.8392 -0.0606  0.1872
  314MOL0     C42293   0.716   7.508   3.683 -0.1484  0.1707  0.4346
  314MOL0     C42294   0.594   7.506   3.777 -0.3210 -0.0734 -0.2623
  314MOL0     C42295   0.463   7.511   3.709 -0.0785  0.4207  0.2617
  314MOL0     C42296   0.349   7.452   3.793 -0.3872 -0.2865  0.3553
  314MOL0     C42297   0.218   7.442   3.711  0.7318  0.7490  0.6312
  314MOL0     C42298   0.122   7.346   3.782 -0.0369  0.1266  0.0239
  314MOL0     C42299  -0.023   7.341   3.737  0.9372 -0.3882  0.0344
  314MOL0    Cl42300  -0.033   7.350   3.563 -0.2368  0.1262 -0.4639
  314MOL0     C42301   1.132   7.582   3.804  0.2969  0.4658 -0.0493
  314MOL0     C42302   1.264   7.636   3.824  1.1908 -1.5253 -0.9924
  314MOL0     O42303   1.571   7.493   3.673  0.4504  0.3980 -0.1613
  314MOL0     C42304   1.722   7.726   3.877  0.2143 -0.1464  0.2367
  314MOL0     C42305   1.836   7.786   3.926  0.4353  0.9014  0.5777
  314MOL0     N42306   2.574   7.711   4.103  0.1400  0.0355 -0.1361
  314MOL0     N42307   2.673   7.691   4.186  0.4462  0.3971 -0.1468
  314MOL0     C42308   3.631   8.307   4.522  1.1267  0.4623  0.2789
  314MOL0     C42309   3.758   8.305   4.466  0.4136  0.2365  0.6233
  314MOL0     C42310   4.133   8.385   4.228 -0.9838  0.0001  0.5701
  314MOL0     C42311   4.264   8.351   4.255 -0.8309 -0.3702 -0.4372
  314MOL0     C42312   4.364   8.404   4.172  0.3760  0.4788 -0.7563
  314MOL0     C42313   4.336   8.487   4.069  0.0362  0.6607 -0.2960
  314MOL0     O42314   4.429   8.530   3.978  0.8596 -0.4942 -0.3646
  314MOL0     C42315   4.568   8.502   4.001  0.3749  0.2356  1.1500
  314MOL0     C42316   4.629   8.606   3.904  0.0809  0.4394 -0.2939
  314MOL0     C42317   4.779   8.590   3.894  0.0304 -0.7820  0.3930
  314MOL0     C42318   4.846   8.691   3.792 -0.0052  0.0027 -0.6271
  314MOL0     C42319   4.856   8.828   3.845 -0.0532 -0.4711 -0.9698
  314MOL0     C42320   4.858   8.949   3.889 -0.0386  0.2131  0.7346
  314MOL0     C42321   4.205   8.523   4.041 -0.7766  0.5040  0.4166
  314MOL0     C42322   4.103   8.463   4.107 -0.5108  0.6490 -0.9080
  314MOL0     H42323   3.668   8.405   4.150  1.0657  0.1179 -0.3955
  314MOL0     H42324   3.458   8.425   4.252  1.4782  1.8552 -0.2719
  314MOL0     H42325   3.259   8.397   4.359  1.6136 -0.8210 -1.3792
  314MOL0     H42326   3.303   8.224   4.342 -0.2055 -1.6092  1.9872
  314MOL0     H42327   3.140   8.330   4.566  0.8263 -0.6140  0.2128
  314MOL0     H42328   3.086   8.220   4.428 -1.9457 -1.6771  1.6107
  314MOL0     H42329   3.243   8.051   4.507 -0.9541  0.6408 -2.0601
  314MOL0     H42330   3.291   8.159   4.638 -2.1519  3.8669  0.0908
  314MOL0     H42331   3.109   7.979   4.695  0.7613  1.5207  2.2928
  314MOL0     H42332   3.062   8.147   4.726 -0.5228 -0.5369  2.6328
  314MOL0     H42333   2.888   8.012   4.631 -1.6715 -0.6924 -2.6808
  314MOL0     H42334   2.913   8.151   4.529 -0.8022  0.2204 -0.4971
  314MOL0     H42335   3.032   7.986   4.368  0.5739 -2.1269 -0.5353
  314MOL0     H42336   3.031   7.869   4.492 -1.0187  0.5351  1.2957
  314MOL0     H42337   2.783   7.836   4.467 -1.0771 -1.2901 -0.7556
  314MOL0     H42338   2.766   7.982   4.379 -1.0113 -0.3711 -1.4634
  314MOL0     H42339   2.920   7.738   4.288 -2.4435 -1.5996  2.9381
  314MOL0     H42340   2.925   7.894   4.202  0.6564 -0.6112  0.0018
  314MOL0     H42341   2.729   7.998   4.078  1.8828 -0.1647 -1.6687
  314MOL0     H42342   2.503   8.015   3.945  0.0181  0.0085 -1.8318
  314MOL0     H42343   2.527   7.876   3.849  3.2354 -1.6404  2.1922
  314MOL0     H42344   2.333   7.867   4.064  0.0631 -0.7862  0.1112
  314MOL0     H42345   2.347   7.762   3.928  0.8597 -0.2060  1.0501
  314MOL0     H42346   2.297   8.006   3.792 -0.9603  2.2398  0.1708
  314MOL0     H42347   2.200   8.034   3.936  0.2046  0.7142 -0.5732
  314MOL0     H42348   2.180   7.790   3.758  0.4823  0.1481  0.6918
  314MOL0     H42349   2.069   7.925   3.763 -2.7322  0.3012  2.4353
  314MOL0     H42350   2.058   7.589   3.764 -1.0700 -2.5033  1.6955
  314MOL0     H42351   1.968   7.460   3.602  0.0018 -1.2002  1.1045
  314MOL0     H42352   1.822   7.379   3.663 -3.5109  0.9049 -0.5333
  314MOL0     H42353   1.800   7.500   3.538  1.2548 -1.8809 -2.0241
  314MOL0     H42354   1.357   7.644   3.498  0.6586 -2.6821 -0.9244
  314MOL0     H42355   1.149   7.570   3.473  3.6681  2.5999 -0.7831
  314MOL0     H42356   0.868   7.469   3.836  1.3459  1.4259  1.2205
  314MOL0     H42357   0.859   7.639   3.773 -1.3014  0.5129 -1.4519
  314MOL0     H42358   0.690   7.583   3.607 -0.3274  0.8661  1.1704
  314MOL0     H42359   0.719   7.417   3.622 -0.5294 -0.0314  0.7107
  314MOL0     H42360   0.590   7.598   3.835 -0.1664  0.9148 -1.7709
  314MOL0     H42361   0.598   7.416   3.840  0.7216 -1.6240 -2.3972
  314MOL0     H42362   0.436   7.615   3.688 -1.6289 -0.2420 -1.3205
  314MOL0     H42363   0.474   7.456   3.615  2.1933 -1.1126  1.3281
  314MOL0     H42364   0.327   7.498   3.890 -2.0108  0.1831 -0.2018
  314MOL0     H42365   0.368   7.346   3.813 -1.3244 -1.3244 -3.4066
  314MOL0     H42366   0.169   7.539   3.713 -0.3564  0.1978  1.9310
  314MOL0     H42367   0.243   7.398   3.614  0.8861  0.4287  0.8127
  314MOL0     H42368   0.120   7.380   3.886 -2.2524  0.8271 -0.1965
  314MOL0     H42369   0.169   7.248   3.788 -3.1348 -1.5142 -0.5271
  314MOL0     H42370  -0.084   7.427   3.767 -0.9365 -2.4319  2.5348
  314MOL0     H42371  -0.073   7.254   3.780 -2.0544  0.4695 -1.4290
  314MOL0     H42372   1.076   7.559   3.894  2.5317 -0.2795  1.2420
  314MOL0     H42373   1.303   7.654   3.923  0.3382  1.6803 -1.1273
  314MOL0     H42374   1.632   7.761   3.925  0.8520  0.7368  0.8265
  314MOL0     H42375   1.828   7.874   3.989 -1.3371  1.0955  0.1144
  314MOL0     H42376   3.617   8.269   4.623 -0.7257 -0.3817 -0.2561
  314MOL0     H42377   3.841   8.269   4.526  1.5700 -3.8200 -2.9160
  314MOL0     H42378   4.279   8.282   4.338  1.0084  1.9492  1.3122
  314MOL0     H42379   4.469   8.378   4.185  0.8961  1.2391 -3.0194
  314MOL0     H42380   4.602   8.529   4.102  2.6936  0.4906  0.3465
  314MOL0     H42381   4.581   8.399   3.967  1.4086  1.3181 -2.1462
  314MOL0     H42382   4.607   8.708   3.938 -2.3729  0.3921 -1.5279
  314MOL0     H42383   4.582   8.607   3.805  1.5493 -0.9850 -1.0616
  314MOL0     H42384   4.789   8.485   3.865 -3.4360 -1.0027 -0.4054
  314MOL0     H42385   4.822   8.598   3.994  2.2441 -1.9725 -0.3893
  314MOL0     H42386   4.785   8.692   3.700 -4.3357 -0.5583  1.9374
  314MOL0     H42387   4.945   8.668   3.752 -0.4940 -1.6379 -0.9613
  314MOL0     H42388   4.850   9.044   3.939  0.7387  0.3633  0.5952
  314MOL0     H42389   4.204   8.595   3.960  3.0203  1.9985  1.4817
  314MOL0     H42390   4.001   8.486   4.080 -1.1851 -1.4163 -0.2740
  315MOL0     O42391   1.595   9.967   3.193  0.7256 -0.0350 -0.4041
  315MOL0     C42392   1.582  10.019   3.085  0.5307 -1.6323  0.0120
  315MOL0     O42393   1.463  10.048   3.015 -0.7749  0.3452 -0.3024
  315MOL0     C42394   1.341  10.025   3.067 -0.4402  0.4266  0.2186
  315MOL0     C42395   1.313   9.957   3.193 -0.4353  0.4989  0.9541
  315MOL0     C42396   1.177   9.947   3.225 -0.5002  0.0157 -1.6718
  315MOL0     C42397   1.071   9.997   3.162 -0.3329 -0.9995  0.7247
  315MOL0     O42398   0.943  10.009   3.202  0.0830 -0.0217 -0.1654
  315MOL0     C42399   0.903   9.945   3.326 -0.0444 -0.5087 -0.1569
  315MOL0     C42400   0.762  10.010   3.359 -0.8870 -0.4435  0.1136
  315MOL0     C42401   0.680   9.915   3.436  0.6188  0.1012  0.0550
  315MOL0     C42402   0.555   9.984   3.493 -0.0678  0.0520  0.0939
  315MOL0     C42403   0.452  10.025   3.400  0.1502 -0.3218  0.3186
  315MOL0     C42404   0.335  10.113   3.465 -0.5978  0.9899  0.9143
  315MOL0     C42405   0.237  10.035   3.547  0.4912  0.8448  0.6736
  315MOL0     C42406   0.237  10.072   3.694  0.1773 -0.1028 -1.1869
  315MOL0     N42407   0.201  10.216   3.720 -0.3371  0.2147 -0.2177
  315MOL0     C42408   0.155  10.264   3.842  0.2565 -0.3040  1.4091
  315MOL0     C42409   0.113  10.392   3.810  0.1917 -0.5590  0.2671
  315MOL0     C42410   0.056  10.490   3.923 -0.3758 -0.2702 -0.6624
  315MOL0     C42411  -0.061  10.429   4.001  0.3022 -0.3733  0.7155
  315MOL0     C42412  -0.141  10.540   4.071  0.2766 -0.9611  0.8151
  315MOL0     C42413  -0.248  10.474   4.164 -0.6473 -0.2021  0.1468
  315MOL0     O42414  -0.346  10.403   4.084 -0.1034 -0.3431 -0.1443
  315MOL0     C42415  -0.461  10.390   4.159  0.0141  0.3697 -0.4465
  315MOL0     C42416  -0.477  10.268   4.229  0.1735 -0.6169  0.4119
  315MOL0     C42417  -0.593  10.231   4.296 -0.4282  0.4503  0.1090
  315MOL0     C42418  -0.614  10.093   4.331 -0.4974 -0.1583 -0.1509
  315MOL0     C42419  -0.698  10.326   4.309  0.1397  0.1403 -0.4673
  315MOL0     C42420  -0.831  10.302   4.380 -0.6621  0.3298 -0.3457
  315MOL0     O42421  -0.936  10.381   4.349 -0.1010  0.3137 -1.1076
  315MOL0     C42422  -1.050  10.340   4.420 -0.4580  0.6108  0.1097
  315MOL0     C42423  -1.120  10.226   4.390  0.1556 -0.2238  1.0623
  315MOL0     C42424  -1.239  10.193   4.466  0.4626  0.6275  0.0925
  315MOL0     C42425  -1.285  10.282   4.566  0.3398 -0.1514  0.1003
  315MOL0     O42426  -1.397  10.250   4.633 -0.0935 -0.6465  0.3572
  315MOL0     C42427  -1.482  10.353   4.682 -0.3293  0.6666  0.7142
  315MOL0     C42428  -1.608  10.292   4.739  0.8918 -0.9583 -0.3870
  315MOL0     C42429  -1.700  10.216   4.635  0.1124 -1.0649 -0.8054
  315MOL0     C42430  -1.853  10.198   4.672 -0.7850  0.7527 -0.4719
  315MOL0     C42431  -1.936  10.140   4.552 -1.4239 -0.1144  0.2129
  315MOL0     C42432  -2.085  10.182   4.572  0.0955  0.1309 -0.4486
  315MOL0     C42433  -2.176  10.109   4.468  0.1111  0.3293 -0.5006
  315MOL0     C42434  -2.327  10.133   4.484  0.4264  1.4028 -0.5941
  315MOL0    Cl42435  -2.386  10.081   4.644 -0.2577 -0.3412  0.0170
  315MOL0     C42436  -1.212  10.402   4.593 -0.8417 -0.9670  0.9799
  315MOL0     C42437  -1.103  10.429   4.514  0.7257  0.0562  0.0443
  315MOL0     O42438  -0.819  10.229   4.478 -0.6635 -0.0541  0.2754
  315MOL0     C42439  -0.685  10.461   4.250 -0.4892  0.1620 -0.3128
  315MOL0     C42440  -0.564  10.486   4.187  0.0084 -0.4321 -0.0024
  315MOL0     N42441   0.112  10.413   3.673 -0.1980  0.5896  0.0970
  315MOL0     N42442   0.180  10.317   3.623  0.1379 -0.3093  0.0946
  315MOL0     C42443   1.101  10.066   3.046 -0.2350 -0.2864  0.4238
  315MOL0     C42444   1.235  10.075   2.991 -0.6190 -0.3637  0.1981
  315MOL0     C42445   1.708  10.052   3.012 -0.1600 -0.7023  0.6580
  315MOL0     C42446   1.829  10.087   3.076  0.1227  0.2914 -0.7885
  315MOL0     C42447   1.950  10.114   3.005 -0.1069 -0.7172  0.1095
  315MOL0     C42448   1.959  10.094   2.865  0.0162  0.3100  0.2744
  315MOL0     O42449   2.078  10.106   2.794 -0.5158  0.2239 -0.1365
  315MOL0     C42450   2.071  10.133   2.653  0.0304  0.7514 -0.7125
  315MOL0     C42451   2.211  10.173   2.624  0.4294 -0.2469  0.3933
  315MOL0     C42452   2.237  10.325   2.637  0.6009  0.5528  0.4836
  315MOL0     C42453   2.391  10.334   2.624 -0.0566  0.1808  1.3188
  315MOL0     C42454   2.431  10.473   2.601  0.6384 -0.1872  0.1121
  315MOL0     C42455   2.450  10.590   2.594 -0.3921 -0.1780 -0.3939
  315MOL0     C42456   1.835  10.059   2.804 -0.4046  0.0527  0.0210
  315MOL0     C42457   1.715  10.046   2.872 -0.5534  0.3546  0.1137
  315MOL0     H42458   1.390   9.933   3.267 -2.4969 -0.8526  2.7948
  315MOL0     H42459   1.165   9.904   3.324 -2.0282  1.8215 -1.0124
  315MOL0     H42460   0.894   9.837   3.313  3.6951 -1.3381  2.4015
  315MOL0     H42461   0.961   9.967   3.417 -1.8269  0.3873  0.8200
  315MOL0     H42462   0.788  10.099   3.418  0.7329 -1.1324  0.4884
  315MOL0     H42463   0.714  10.033   3.263  0.9175 -0.3132 -0.8131
  315MOL0     H42464   0.656   9.826   3.377 -0.5766 -0.2813  1.0628
  315MOL0     H42465   0.735   9.888   3.527  0.7005  0.0649 -0.0058
  315MOL0     H42466   0.515   9.912   3.565  0.0556 -1.1914 -1.0330
  315MOL0     H42467   0.581  10.070   3.555 -4.0418  0.2446  1.7587
  315MOL0     H42468   0.487  10.080   3.313 -1.2960  2.5301  1.3937
  315MOL0     H42469   0.393   9.942   3.360 -0.8357  0.2527  0.5434
  315MOL0     H42470   0.382  10.200   3.511 -1.9555  2.6270 -0.6746
  315MOL0     H42471   0.276  10.163   3.387 -0.0515  4.3706  2.4916
  315MOL0     H42472   0.137  10.061   3.510 -0.3754 -1.1432  1.4952
  315MOL0     H42473   0.227   9.927   3.532 -0.4651  0.7868  1.5751
  315MOL0     H42474   0.337  10.051   3.732  1.3057  1.4630 -3.0613
  315MOL0     H42475   0.172  10.004   3.749  3.8914 -1.6948  1.6991
  315MOL0     H42476   0.181  10.215   3.935  1.8660  1.7691  2.1384
  315MOL0     H42477   0.136  10.512   3.995 -2.8004 -4.5736  4.0110
  315MOL0     H42478   0.031  10.587   3.879  0.0738  0.7309  1.1398
  315MOL0     H42479  -0.019  10.355   4.070  1.4057  0.0312  0.5085
  315MOL0     H42480  -0.126  10.371   3.935 -0.6135  1.4019 -0.0129
  315MOL0     H42481  -0.188  10.595   3.990 -0.3287 -0.7051  1.3368
  315MOL0     H42482  -0.076  10.608   4.127 -0.6909  1.1094 -0.4633
  315MOL0     H42483  -0.301  10.553   4.219  1.4009 -0.2191  2.2770
  315MOL0     H42484  -0.194  10.406   4.230  0.3391  0.3933 -0.0252
  315MOL0     H42485  -0.392  10.200   4.221  0.5500 -0.1319  0.2436
  315MOL0     H42486  -0.604  10.089   4.440 -1.7674 -0.9265 -0.0408
  315MOL0     H42487  -0.714  10.055   4.309 -0.6388  0.0160  0.1685
  315MOL0     H42488  -0.555  10.023   4.271 -2.1083 -0.9154 -0.9017
  315MOL0     H42489  -1.098  10.160   4.307 -1.0179  0.6566  0.0147
  315MOL0     H42490  -1.286  10.099   4.438  1.1231 -0.1299  1.4307
  315MOL0     H42491  -1.429  10.393   4.769 -2.6446 -1.2294  3.1757
  315MOL0     H42492  -1.495  10.425   4.601  1.0663 -0.1806 -0.3274
  315MOL0     H42493  -1.589  10.225   4.823  1.0914  0.6169  0.8715
  315MOL0     H42494  -1.655  10.380   4.784  1.7941 -0.7172  0.1036
  315MOL0     H42495  -1.652  10.118   4.619 -1.4499 -1.5856 -2.7233
  315MOL0     H42496  -1.687  10.263   4.537  0.4213 -1.3856 -0.9225
  315MOL0     H42497  -1.860  10.140   4.764 -0.0613 -2.5938 -2.3879
  315MOL0     H42498  -1.903  10.293   4.692 -2.4835  0.5293 -3.1311
  315MOL0     H42499  -1.925  10.032   4.536  0.0268  0.1733 -0.9373
  315MOL0     H42500  -1.913  10.186   4.456  0.1562  0.7578  0.9670
  315MOL0     H42501  -2.128  10.161   4.670 -1.2416 -1.0040 -1.2352
  315MOL0     H42502  -2.090  10.292   4.567 -0.8447  0.0566 -1.6969
  315MOL0     H42503  -2.156  10.002   4.474 -3.4017 -0.4842 -1.1783
  315MOL0     H42504  -2.150  10.138   4.366 -0.6958  0.5229 -0.6560
  315MOL0     H42505  -2.378  10.074   4.407 -0.5245  0.7666  0.4934
  315MOL0     H42506  -2.341  10.241   4.479 -0.3642  1.4530  1.6766
  315MOL0     H42507  -1.237  10.474   4.671 -2.3420 -0.8092  0.3890
  315MOL0     H42508  -1.051  10.519   4.546 -1.1819  1.5376 -0.8451
  315MOL0     H42509  -0.764  10.535   4.239  0.4224  1.1914 -0.0253
  315MOL0     H42510  -0.571  10.583   4.140  0.4575 -0.7031 -0.6439
  315MOL0     H42511   1.020  10.104   2.984 -0.2086 -1.2512 -0.2125
  315MOL0     H42512   1.279  10.116   2.901  2.9880  0.4739  2.1196
  315MOL0     H42513   1.833  10.089   3.184 -1.1267 -1.5477 -0.6621
  315MOL0     H42514   2.041  10.157   3.047 -0.3592  0.1519 -0.2270
  315MOL0     H42515   2.040  10.040   2.606  3.1474 -2.1392  2.3961
  315MOL0     H42516   2.010  10.221   2.631  0.8248  1.4310 -0.2685
  315MOL0     H42517   2.231  10.148   2.519  0.7657  0.1703  0.3570
  315MOL0     H42518   2.283  10.116   2.684  0.7137  1.2945  1.5750
  315MOL0     H42519   2.194  10.368   2.728 -1.3074 -0.2093 -0.0177
  315MOL0     H42520   2.184  10.370   2.553 -0.4078 -1.8540 -0.2484
  315MOL0     H42521   2.421  10.278   2.535  2.7624  1.4702  1.3783
  315MOL0     H42522   2.443  10.295   2.711 -0.8989 -1.9205  0.9347
  315MOL0     H42523   2.487  10.691   2.597  0.8515 -0.6372  1.7139
  315MOL0     H42524   1.826  10.043   2.697 -0.3445 -0.4481  0.0924
  315MOL0     H42525   1.622  10.033   2.818 -1.0943 -2.1930  1.5119
  316MOL0     O42526   0.498   1.023   3.107 -0.3598  0.3406  0.2773
  316MOL0     C42527   0.540   0.966   3.205 -0.2352 -0.3866  0.2111
  316MOL0     O42528   0.499   0.835   3.248  0.6854  0.1168  0.6048
  316MOL0     C42529   0.386   0.779   3.197  0.3344  0.3031 -0.3593
  316MOL0     C42530   0.382   0.641   3.220  0.8966 -0.3048  0.6062
  316MOL0     C42531   0.280   0.562   3.168  0.2468  1.1216  0.3723
  316MOL0     C42532   0.170   0.624   3.108 -0.1946 -0.0886  0.5912
  316MOL0     O42533   0.066   0.554   3.051 -0.0207  0.7195  0.2616
  316MOL0     C42534   0.031   0.436   3.117 -0.2033  0.0732 -0.9259
  316MOL0     C42535  -0.081   0.370   3.045 -0.1625 -0.4688 -0.5335
  316MOL0     C42536  -0.137   0.234   3.100  0.0315 -0.2575 -0.2067
  316MOL0     C42537  -0.254   0.251   3.194  0.8708  1.0259 -0.0865
  316MOL0     C42538  -0.277   0.110   3.257  0.8639  1.2210 -0.0562
  316MOL0     C42539  -0.402   0.090   3.338  0.7710 -0.3392 -1.2322
  316MOL0     C42540  -0.402  -0.051   3.392  0.4353  0.8795 -0.5155
  316MOL0     C42541  -0.493  -0.061   3.519  0.1262 -0.2754  0.2728
  316MOL0     N42542  -0.514  -0.211   3.534 -0.0149 -1.2835  0.1767
  316MOL0     C42543  -0.595  -0.283   3.451  0.1236  0.1548 -0.9151
  316MOL0     C42544  -0.615  -0.408   3.508  1.2273  0.4929  0.5470
  316MOL0     C42545  -0.705  -0.521   3.450  0.0726 -0.3830 -0.0743
  316MOL0     C42546  -0.799  -0.594   3.550  0.3287 -0.7862  0.4245
  316MOL0     C42547  -0.906  -0.498   3.610  0.7092 -0.3940 -0.5455
  316MOL0     C42548  -1.021  -0.566   3.678  0.4077  0.8858  0.3878
  316MOL0     O42549  -1.120  -0.468   3.667 -0.2084  0.3741 -0.1350
  316MOL0     C42550  -1.253  -0.500   3.672  0.0141  0.6623 -0.0097
  316MOL0     C42551  -1.338  -0.392   3.694  0.0035  0.2130 -0.9163
  316MOL0     C42552  -1.474  -0.399   3.719  0.5682 -1.0574  0.0193
  316MOL0     C42553  -1.553  -0.266   3.727  0.4485  0.3141  0.1471
  316MOL0     C42554  -1.527  -0.534   3.739 -0.2114 -0.2691 -0.9502
  316MOL0     C42555  -1.676  -0.553   3.786 -0.2084  0.3219  0.1949
  316MOL0     O42556  -1.760  -0.445   3.784  0.2320  0.8806 -0.4313
  316MOL0     C42557  -1.895  -0.456   3.823 -1.2857  0.5728 -0.2414
  316MOL0     C42558  -1.983  -0.415   3.722  0.2520 -0.2614 -0.4965
  316MOL0     C42559  -2.119  -0.432   3.749 -0.3333  0.4239  0.5750
  316MOL0     C42560  -2.163  -0.491   3.869  0.2760  0.6529  0.2714
  316MOL0     O42561  -2.293  -0.515   3.895 -0.5563  0.1939 -0.0298
  316MOL0     C42562  -2.341  -0.641   3.852  0.4981  0.4451  0.2433
  316MOL0     C42563  -2.470  -0.656   3.934  0.8714 -1.2762 -0.0028
  316MOL0     C42564  -2.517  -0.799   3.950  0.2873  0.1357 -0.5972
  316MOL0     C42565  -2.630  -0.813   4.046 -0.1956  0.1750 -1.0200
  316MOL0     C42566  -2.646  -0.956   4.108 -0.5435 -0.6086  0.7627
  316MOL0     C42567  -2.724  -0.923   4.237 -0.4552  0.0525  0.1456
  316MOL0     C42568  -2.757  -1.054   4.312  0.0561  0.0532  0.5345
  316MOL0     C42569  -2.635  -1.116   4.383 -0.6238 -0.4620 -0.5670
  316MOL0    Cl42570  -2.585  -1.011   4.512  0.1769 -0.1926 -0.2955
  316MOL0     C42571  -2.072  -0.538   3.959 -0.2101  0.8768 -0.7837
  316MOL0     C42572  -1.940  -0.519   3.943  0.5249  0.3254 -0.8691
  316MOL0     O42573  -1.707  -0.670   3.830 -0.3720  0.2487 -0.3695
  316MOL0     C42574  -1.445  -0.635   3.711  0.7140  0.8951  0.2654
  316MOL0     C42575  -1.311  -0.628   3.679 -0.5478 -0.6335  0.3133
  316MOL0     N42576  -0.525  -0.413   3.610 -0.2912 -0.2275 -0.2267
  316MOL0     N42577  -0.478  -0.293   3.633  0.7338 -1.0583 -0.6561
  316MOL0     C42578   0.164   0.765   3.091 -1.0995 -0.4787 -0.4391
  316MOL0     C42579   0.268   0.844   3.147 -0.4402  0.4829 -0.6029
  316MOL0     C42580   0.649   1.040   3.268  0.7330 -0.1261 -1.0337
  316MOL0     C42581   0.758   0.968   3.313  0.4770 -0.6052  0.8942
  316MOL0     C42582   0.856   1.026   3.389 -0.1301 -0.6336  0.2577
  316MOL0     C42583   0.849   1.165   3.416 -0.8404 -0.5992 -0.1537
  316MOL0     O42584   0.949   1.232   3.479 -0.1779 -0.0566 -0.5220
  316MOL0     C42585   0.973   1.368   3.441 -0.8306 -0.2312  0.6670
  316MOL0     C42586   1.016   1.376   3.290 -0.0401 -0.3282  1.0543
  316MOL0     C42587   1.145   1.298   3.281  0.0077  0.3780  1.1965
  316MOL0     C42588   1.197   1.273   3.129  0.7392  0.4326 -0.6368
  316MOL0     C42589   1.226   1.386   3.047 -0.8083  0.0715 -0.1118
  316MOL0     C42590   1.244   1.499   3.000 -0.1036 -0.3696 -0.1915
  316MOL0     C42591   0.734   1.237   3.376  1.1509 -0.3487  0.3305
  316MOL0     C42592   0.634   1.178   3.303 -0.2114  0.2149  0.1849
  316MOL0     H42593   0.472   0.600   3.265 -0.3122 -1.4526  2.0822
  316MOL0     H42594   0.296   0.456   3.153 -1.2385  0.8766  0.3803
  316MOL0     H42595   0.108   0.358   3.108 -2.0954 -2.1763  1.0158
  316MOL0     H42596   0.008   0.459   3.221  0.0900 -0.9186 -0.6273
  316MOL0     H42597  -0.167   0.437   3.031  0.1745 -0.2377 -1.5695
  316MOL0     H42598  -0.042   0.354   2.944  0.2993  1.1392 -0.6465
  316MOL0     H42599  -0.175   0.187   3.009 -1.3254 -1.1164  0.7643
  316MOL0     H42600  -0.056   0.176   3.144  1.0731  0.9782 -0.4161
  316MOL0     H42601  -0.246   0.330   3.269  0.0568  1.2932 -0.2615
  316MOL0     H42602  -0.342   0.269   3.131 -0.6616 -4.2789  0.0209
  316MOL0     H42603  -0.279   0.036   3.176 -2.4829 -1.5647  2.2925
  316MOL0     H42604  -0.193   0.096   3.326  0.2631 -3.0929  0.0935
  316MOL0     H42605  -0.414   0.169   3.412 -0.3019  1.0575 -2.8319
  316MOL0     H42606  -0.488   0.107   3.273  0.0400 -2.2893 -0.8342
  316MOL0     H42607  -0.439  -0.122   3.318 -4.7397 -0.1517  2.5358
  316MOL0     H42608  -0.302  -0.076   3.428  0.6958  2.7969  0.2136
  316MOL0     H42609  -0.580  -0.003   3.487  3.1053  2.8072 -3.1286
  316MOL0     H42610  -0.443  -0.017   3.606 -0.7499  1.5868 -0.1354
  316MOL0     H42611  -0.636  -0.229   3.366  0.6620  1.2416 -0.5062
  316MOL0     H42612  -0.762  -0.493   3.361  3.0130  0.4530 -1.8274
  316MOL0     H42613  -0.632  -0.587   3.404  1.1460  1.7234 -1.5515
  316MOL0     H42614  -0.738  -0.635   3.631  2.8891  1.0622 -0.4261
  316MOL0     H42615  -0.848  -0.679   3.503  0.5709  0.7882 -3.0077
  316MOL0     H42616  -0.943  -0.439   3.525  0.0952 -2.3603 -1.6954
  316MOL0     H42617  -0.856  -0.437   3.685 -1.3649  0.3078  0.3628
  316MOL0     H42618  -1.009  -0.597   3.782  0.7581  1.0047  0.3818
  316MOL0     H42619  -1.051  -0.654   3.621 -2.5288 -0.0430  3.0623
  316MOL0     H42620  -1.278  -0.302   3.698  1.0844 -0.4590 -1.6023
  316MOL0     H42621  -1.624  -0.239   3.648  0.6066  2.5249  0.6998
  316MOL0     H42622  -1.608  -0.262   3.821 -1.1174 -0.6425 -0.6696
  316MOL0     H42623  -1.486  -0.180   3.734 -0.7899  1.3767 -0.5564
  316MOL0     H42624  -1.945  -0.371   3.631  3.7102 -3.3795 -0.7486
  316MOL0     H42625  -2.184  -0.403   3.667  0.8583 -0.6233 -0.8037
  316MOL0     H42626  -2.388  -0.640   3.753 -1.3469 -0.8433  1.0403
  316MOL0     H42627  -2.273  -0.724   3.875 -1.8815 -1.3872  1.0574
  316MOL0     H42628  -2.445  -0.622   4.035 -0.8071  4.5935 -1.1981
  316MOL0     H42629  -2.549  -0.586   3.908  1.0294 -0.2350  2.1399
  316MOL0     H42630  -2.434  -0.861   3.985 -1.7688 -2.8210 -0.5087
  316MOL0     H42631  -2.554  -0.829   3.851  4.0469 -3.1613 -1.2350
  316MOL0     H42632  -2.611  -0.739   4.124 -0.1864  1.5624 -2.3070
  316MOL0     H42633  -2.724  -0.794   3.994 -1.3310 -1.9938  0.0905
  316MOL0     H42634  -2.547  -0.999   4.121  0.8304  1.2722 -2.1997
  316MOL0     H42635  -2.693  -1.025   4.037  2.4526  0.2061 -2.2852
  316MOL0     H42636  -2.684  -0.852   4.310 -0.0880 -0.3492  0.3380
  316MOL0     H42637  -2.821  -0.885   4.203  0.4296  0.3667 -2.2057
  316MOL0     H42638  -2.816  -1.126   4.254 -2.8907  2.5255  0.1792
  316MOL0     H42639  -2.827  -1.019   4.389  0.0558  0.8046  0.2083
  316MOL0     H42640  -2.556  -1.129   4.308 -0.4295  1.6283 -0.7822
  316MOL0     H42641  -2.664  -1.210   4.432 -1.4602 -0.0939 -0.3425
  316MOL0     H42642  -2.108  -0.589   4.047 -0.1740 -0.6189 -1.5870
  316MOL0     H42643  -1.869  -0.567   4.010 -0.1759  0.7036  0.1622
  316MOL0     H42644  -1.478  -0.738   3.714  2.1444  0.4372  1.1841
  316MOL0     H42645  -1.244  -0.713   3.675  0.8048  0.3018  1.8656
  316MOL0     H42646   0.077   0.809   3.044 -2.7952 -0.5555  2.3999
  316MOL0     H42647   0.255   0.952   3.147  2.0611  0.8845  1.1902
  316MOL0     H42648   0.767   0.864   3.286 -1.0716 -0.8378  1.1698
  316MOL0     H42649   0.936   0.965   3.431 -3.2344 -2.3813  4.2931
  316MOL0     H42650   0.888   1.433   3.463 -0.0050  0.6008  1.4806
  316MOL0     H42651   1.067   1.404   3.484  0.3519 -1.0307 -1.1326
  316MOL0     H42652   1.040   1.478   3.258 -1.5351 -0.0205  0.8101
  316MOL0     H42653   0.940   1.329   3.227  2.6368 -1.7404 -1.3224
  316MOL0     H42654   1.124   1.203   3.330  5.4914 -1.1259  1.3732
  316MOL0     H42655   1.231   1.332   3.340  1.8596 -1.4520 -0.2914
  316MOL0     H42656   1.128   1.206   3.077  0.5462  0.6462 -0.6602
  316MOL0     H42657   1.290   1.221   3.155  0.4505  1.2812  2.4818
  316MOL0     H42658   1.235   1.599   2.965  4.9056  0.0136 -1.2311
  316MOL0     H42659   0.712   1.338   3.409  1.9887 -0.3101  0.8102
  316MOL0     H42660   0.549   1.221   3.252 -1.4279 -3.9204 -1.7194
  317MOL0     O42661   5.909   8.579   6.343  0.4338  0.1682 -0.6219
  317MOL0     C42662   6.003   8.575   6.261 -0.4725 -0.0121 -0.4628
  317MOL0     O42663   6.052   8.686   6.193  0.4478 -0.0174  0.3105
  317MOL0     C42664   5.982   8.805   6.217  0.7645 -0.5853  0.0712
  317MOL0     C42665   6.035   8.879   6.316 -0.5305  0.9085 -0.4301
  317MOL0     C42666   5.971   8.993   6.369  0.1793  0.0968  1.0671
  317MOL0     C42667   5.863   9.054   6.288  0.4384 -0.4111  0.1014
  317MOL0     O42668   5.801   9.168   6.325 -0.5182  0.1138 -0.4121
  317MOL0     C42669   5.798   9.281   6.232  0.8790 -0.3960  0.6260
  317MOL0     C42670   5.735   9.401   6.305 -0.6794 -0.9560 -0.5358
  317MOL0     C42671   5.586   9.389   6.334  0.6020 -1.2164 -0.2984
  317MOL0     C42672   5.560   9.313   6.465  0.7739 -0.9164  0.3183
  317MOL0     C42673   5.412   9.320   6.504 -0.1344 -0.0444  0.9899
  317MOL0     C42674   5.362   9.230   6.616 -0.3638 -0.3463 -0.3115
  317MOL0     C42675   5.430   9.273   6.749 -0.1666  0.7431  0.5137
  317MOL0     C42676   5.389   9.415   6.793 -0.3513  0.0756 -0.1984
  317MOL0     N42677   5.253   9.445   6.824  0.5330  0.5497 -0.4666
  317MOL0     C42678   5.163   9.356   6.874 -0.8092 -0.8895 -0.3685
  317MOL0     C42679   5.044   9.413   6.865 -0.2458 -0.6413 -0.4399
  317MOL0     C42680   4.909   9.340   6.881 -0.9307 -0.4102  0.5690
  317MOL0     C42681   4.868   9.312   7.028  0.6741  0.2057 -0.2749
  317MOL0     C42682   4.747   9.210   7.050  0.5594 -0.8331  0.3086
  317MOL0     C42683   4.614   9.277   7.016  0.0576  0.7073 -0.4209
  317MOL0     O42684   4.508   9.179   7.033 -0.3906  0.1488  0.1841
  317MOL0     C42685   4.417   9.185   6.926  0.7910  0.5816 -0.3875
  317MOL0     C42686   4.294   9.254   6.917 -0.3483 -0.3207  0.0646
  317MOL0     C42687   4.210   9.251   6.801  0.2487  0.9314 -0.6574
  317MOL0     C42688   4.074   9.310   6.827 -0.6353 -0.5751  0.3367
  317MOL0     C42689   4.247   9.174   6.685  0.3514 -0.3039  0.5435
  317MOL0     C42690   4.159   9.153   6.565  0.4898 -0.2065 -0.5548
  317MOL0     O42691   4.020   9.175   6.579  0.2163  0.9771  1.1413
  317MOL0     C42692   3.924   9.183   6.478  0.7011 -0.5775  0.4456
  317MOL0     C42693   3.827   9.280   6.499 -0.2065 -0.6270  0.5694
  317MOL0     C42694   3.724   9.294   6.405  0.7316  0.6680 -0.4661
  317MOL0     C42695   3.719   9.212   6.290 -0.1601  0.0296  0.7494
  317MOL0     O42696   3.627   9.243   6.198  0.6501 -0.0304  0.1645
  317MOL0     C42697   3.551   9.133   6.143  0.2732 -0.2629  0.6267
  317MOL0     C42698   3.429   9.113   6.239  0.7430 -0.7077  0.2532
  317MOL0     C42699   3.345   9.244   6.264 -0.6901  0.1925  0.8633
  317MOL0     C42700   3.197   9.221   6.283  1.2195  0.1211  0.3799
  317MOL0     C42701   3.124   9.349   6.330  0.3113  0.2974  0.3691
  317MOL0     C42702   2.973   9.318   6.348 -0.7968 -0.1853  0.0432
  317MOL0     C42703   2.886   9.443   6.331  0.0756  0.0765  0.1995
  317MOL0     C42704   2.737   9.428   6.360 -0.2969 -0.9038 -0.6802
  317MOL0    Cl42705   2.702   9.368   6.526 -0.3855 -0.1663  0.0838
  317MOL0     C42706   3.816   9.108   6.272  0.0877  0.1456 -0.0223
  317MOL0     C42707   3.924   9.110   6.359 -0.3716 -0.3591 -0.2344
  317MOL0     O42708   4.209   9.127   6.458 -0.4179  0.0372 -0.1879
  317MOL0     C42709   4.380   9.117   6.693 -0.1232 -0.1398 -0.6847
  317MOL0     C42710   4.459   9.113   6.814 -1.6166 -0.4010  0.7717
  317MOL0     N42711   5.055   9.541   6.817 -0.0047 -0.2212  0.2263
  317MOL0     N42712   5.181   9.557   6.799 -0.2017  0.5806 -0.3528
  317MOL0     C42713   5.816   8.985   6.175 -0.3873 -0.1089  0.5053
  317MOL0     C42714   5.870   8.860   6.146  0.6789  0.3178  0.3410
  317MOL0     C42715   6.073   8.450   6.240  0.3580 -0.6562 -0.1529
  317MOL0     C42716   6.186   8.435   6.150  0.2269 -0.2473  0.8414
  317MOL0     C42717   6.266   8.318   6.157 -0.1879 -0.3964  0.7382
  317MOL0     C42718   6.242   8.213   6.246 -0.0388  0.1491 -0.0110
  317MOL0     O42719   6.336   8.109   6.229  1.3247  0.2064 -0.3297
  317MOL0     C42720   6.350   7.995   6.318  0.0071  0.5770 -0.6584
  317MOL0     C42721   6.388   8.027   6.466 -0.1047  0.2067  0.2695
  317MOL0     C42722   6.516   8.104   6.500  0.4494  0.3672  1.0464
  317MOL0     C42723   6.542   8.082   6.646 -0.1361 -0.9755  0.2689
  317MOL0     C42724   6.679   8.139   6.677  0.6263 -0.3652 -0.1937
  317MOL0     C42725   6.789   8.189   6.682 -0.0206 -0.0314 -0.2237
  317MOL0     C42726   6.128   8.226   6.336 -0.2479  0.0029  0.1092
  317MOL0     C42727   6.038   8.340   6.326  0.0673  0.0312 -0.4408
  317MOL0     H42728   6.115   8.826   6.366  0.4656  1.8463 -0.9978
  317MOL0     H42729   6.004   9.044   6.459  0.0739  1.3358  0.4265
  317MOL0     H42730   5.898   9.299   6.193 -0.0553  1.1743 -1.1841
  317MOL0     H42731   5.725   9.262   6.153  1.3876  0.6709 -0.1185
  317MOL0     H42732   5.786   9.424   6.399 -0.8696 -2.0320 -0.1568
  317MOL0     H42733   5.751   9.488   6.240  2.0485  0.9875  2.4449
  317MOL0     H42734   5.545   9.490   6.346 -1.1924 -1.3986 -3.5899
  317MOL0     H42735   5.525   9.339   6.258  0.0264 -0.4328 -0.3753
  317MOL0     H42736   5.574   9.206   6.443  1.2738 -1.2219  1.9529
  317MOL0     H42737   5.632   9.349   6.539 -0.6630 -0.5482  1.5790
  317MOL0     H42738   5.388   9.425   6.516  0.0506  0.5670 -2.7474
  317MOL0     H42739   5.351   9.294   6.417 -1.9506  0.2752  2.1047
  317MOL0     H42740   5.254   9.237   6.630 -0.3869 -0.1559 -0.5708
  317MOL0     H42741   5.387   9.123   6.607 -4.0627 -1.7305  2.8902
  317MOL0     H42742   5.409   9.200   6.828  0.6991  0.4911  0.5216
  317MOL0     H42743   5.539   9.276   6.748 -0.1733  3.3156 -1.8318
  317MOL0     H42744   5.414   9.495   6.722 -2.9488  0.8726 -0.3307
  317MOL0     H42745   5.448   9.441   6.882 -0.6420  2.0194 -0.5172
  317MOL0     H42746   5.167   9.252   6.904  0.0191 -1.1120 -1.1992
  317MOL0     H42747   4.834   9.403   6.833  0.0943  0.3606 -0.0549
  317MOL0     H42748   4.923   9.240   6.837 -0.0535  0.2043 -0.6068
  317MOL0     H42749   4.837   9.411   7.063 -0.7001  0.2544 -1.5478
  317MOL0     H42750   4.953   9.280   7.088  1.3205 -1.1666 -1.8365
  317MOL0     H42751   4.755   9.176   7.153  3.0967  1.5448  1.0247
  317MOL0     H42752   4.766   9.129   6.979 -2.5079 -1.0944 -0.3679
  317MOL0     H42753   4.634   9.302   6.912  1.9967  2.2876  0.2596
  317MOL0     H42754   4.610   9.369   7.075  1.9812  1.9446 -2.0861
  317MOL0     H42755   4.271   9.312   7.006  1.0850 -1.5648  1.3011
  317MOL0     H42756   3.997   9.233   6.823 -0.4421 -0.7243 -2.4595
  317MOL0     H42757   4.067   9.353   6.927  0.5464  0.8347 -0.1474
  317MOL0     H42758   4.060   9.399   6.764  0.1147 -0.8550 -0.2401
  317MOL0     H42759   3.825   9.349   6.582 -1.6291  0.4222 -0.2822
  317MOL0     H42760   3.649   9.367   6.432 -2.1500 -2.5795  1.0940
  317MOL0     H42761   3.528   9.153   6.038  0.1428  1.5355  0.9793
  317MOL0     H42762   3.607   9.039   6.140  0.6699 -0.0196  0.3778
  317MOL0     H42763   3.359   9.041   6.195 -1.3950  2.3516 -1.8219
  317MOL0     H42764   3.457   9.077   6.338 -1.6525  0.2433  1.3608
  317MOL0     H42765   3.355   9.313   6.180 -3.8406  0.0114  0.2115
  317MOL0     H42766   3.386   9.293   6.353  0.7777  1.2919 -0.3541
  317MOL0     H42767   3.150   9.190   6.189  3.1282 -2.4044  0.1399
  317MOL0     H42768   3.185   9.135   6.349 -1.9711  0.8831  0.9441
  317MOL0     H42769   3.137   9.423   6.250  0.5475  0.3729  0.4773
  317MOL0     H42770   3.157   9.389   6.426 -1.6069  1.8046  0.4475
  317MOL0     H42771   2.946   9.247   6.269 -3.1211  1.4857 -0.7727
  317MOL0     H42772   2.958   9.275   6.447 -1.1094 -0.2841 -0.0461
  317MOL0     H42773   2.893   9.478   6.228 -1.8688 -0.6879 -0.2227
  317MOL0     H42774   2.934   9.510   6.403 -0.4835  0.4051  0.2727
  317MOL0     H42775   2.697   9.363   6.281 -0.0051  0.9270 -2.3839
  317MOL0     H42776   2.688   9.525   6.349 -1.5794 -1.2215  1.5486
  317MOL0     H42777   3.819   9.049   6.181 -0.7350 -2.0021  1.2834
  317MOL0     H42778   4.000   9.035   6.342 -0.5163  0.0970 -3.5071
  317MOL0     H42779   4.412   9.074   6.599  0.7332  0.1473 -0.5308
  317MOL0     H42780   4.561   9.075   6.807 -1.5168  0.1677 -2.4924
  317MOL0     H42781   5.736   9.014   6.108 -1.8263 -2.9260  0.8514
  317MOL0     H42782   5.822   8.801   6.068  1.8047 -1.3925  0.8970
  317MOL0     H42783   6.211   8.513   6.079 -0.0722  0.1043  1.1194
  317MOL0     H42784   6.348   8.311   6.086 -1.5255 -1.6136 -0.7659
  317MOL0     H42785   6.258   7.936   6.326  2.4383 -3.6667 -0.8004
  317MOL0     H42786   6.430   7.930   6.281  2.0334  3.0126 -0.8329
  317MOL0     H42787   6.383   7.943   6.535 -2.3666  0.7473  0.8492
  317MOL0     H42788   6.301   8.076   6.512 -0.8285 -3.3397  3.0886
  317MOL0     H42789   6.511   8.211   6.479 -1.3199  0.0662 -0.3446
  317MOL0     H42790   6.596   8.067   6.435 -0.6022  2.0192 -1.3389
  317MOL0     H42791   6.545   7.979   6.683  0.7402 -0.2291  2.3956
  317MOL0     H42792   6.457   8.122   6.703  0.2710  2.0119 -1.0278
  317MOL0     H42793   6.883   8.236   6.700 -0.0269 -0.2064  0.2846
  317MOL0     H42794   6.112   8.155   6.416 -0.5267  2.1467  2.0516
  317MOL0     H42795   5.945   8.347   6.382 -2.1312  1.4764 -3.9559
  318MOL0     O42796   9.441   4.875   3.114 -0.2456  0.0859  0.6285
  318MOL0     C42797   9.487   4.880   3.002  0.2568  0.0700 -0.3189
  318MOL0     O42798   9.418   4.843   2.884  0.2636 -0.3850  0.0224
  318MOL0     C42799   9.282   4.837   2.909  0.6252  0.3882  0.1495
  318MOL0     C42800   9.218   4.724   2.959  1.0218  0.1320  0.2553
  318MOL0     C42801   9.079   4.720   2.983 -0.2419  0.3764  0.8477
  318MOL0     C42802   9.001   4.830   2.929 -0.4837  0.4937 -0.7144
  318MOL0     O42803   8.870   4.850   2.921 -0.6524 -0.6368  0.3108
  318MOL0     C42804   8.782   4.759   2.969 -0.4695  0.2858 -0.6684
  318MOL0     C42805   8.641   4.826   2.976  0.4805  0.2792  0.8831
  318MOL0     C42806   8.643   4.973   3.011 -0.3218 -0.7204  0.4637
  318MOL0     C42807   8.514   5.039   2.971  0.3519  2.0380 -0.6610
  318MOL0     C42808   8.479   5.173   3.040 -0.1553  0.5846 -0.1170
  318MOL0     C42809   8.371   5.245   2.966  0.2976 -1.0229  0.1085
  318MOL0     C42810   8.311   5.366   3.053 -0.5134  0.2651 -0.0248
  318MOL0     C42811   8.428   5.469   3.083 -0.0374  0.5756 -1.1307
  318MOL0     N42812   8.369   5.589   3.147 -0.1275  0.3702  0.1307
  318MOL0     C42813   8.285   5.588   3.257 -0.8694  0.2435 -0.1579
  318MOL0     C42814   8.264   5.725   3.278 -0.3555  0.1848 -0.4583
  318MOL0     C42815   8.187   5.788   3.391 -0.2635 -0.3188  0.6171
  318MOL0     C42816   8.046   5.816   3.347  0.7201  0.1267 -0.3407
  318MOL0     C42817   8.042   5.898   3.216 -0.3355  0.2838 -0.9594
  318MOL0     C42818   7.905   5.943   3.180  0.7903  0.6642 -0.0401
  318MOL0     O42819   7.848   6.038   3.277  0.4505 -0.0574  0.0948
  318MOL0     C42820   7.714   6.031   3.287  0.3897  1.2778  0.4186
  318MOL0     C42821   7.636   5.995   3.179  0.1550  0.7802  0.5140
  318MOL0     C42822   7.494   6.001   3.187 -0.3638 -0.6986 -0.3182
  318MOL0     C42823   7.421   5.955   3.053 -0.6883  0.5091 -0.2812
  318MOL0     C42824   7.438   6.065   3.298  0.1607  0.0190  0.1565
  318MOL0     C42825   7.291   6.075   3.306 -0.2146 -0.0757 -0.2071
  318MOL0     O42826   7.247   6.116   3.427 -0.8942 -0.3556  0.1151
  318MOL0     C42827   7.109   6.147   3.436  0.0332  0.0937  0.3765
  318MOL0     C42828   7.028   6.049   3.506  0.1001  0.6654 -0.7435
  318MOL0     C42829   6.898   6.080   3.540  0.2082 -0.5566  0.0968
  318MOL0     C42830   6.853   6.204   3.500  0.5766 -0.6129 -0.0247
  318MOL0     O42831   6.729   6.238   3.524 -0.1050  0.2733 -0.5280
  318MOL0     C42832   6.708   6.364   3.598 -0.1176  0.4363 -0.8226
  318MOL0     C42833   6.567   6.421   3.565 -0.2564  0.5066  0.2281
  318MOL0     C42834   6.456   6.335   3.641 -0.8330 -1.0297  0.4499
  318MOL0     C42835   6.322   6.422   3.647  0.2050  0.6347 -1.4498
  318MOL0     C42836   6.219   6.370   3.756  0.0886 -0.3194 -0.4236
  318MOL0     C42837   6.293   6.364   3.887  0.2230  1.1025  0.4187
  318MOL0     C42838   6.205   6.391   4.013 -0.0295 -0.7389 -0.6145
  318MOL0     C42839   6.097   6.285   4.046 -1.3558 -0.5160 -0.4728
  318MOL0    Cl42840   6.151   6.128   4.090  0.2712 -0.3867  0.0201
  318MOL0     C42841   6.930   6.295   3.426 -0.5394 -0.3986  0.2012
  318MOL0     C42842   7.062   6.269   3.393  0.2827  0.7677  0.0001
  318MOL0     O42843   7.223   6.073   3.204 -0.3213 -0.7351 -0.3382
  318MOL0     C42844   7.517   6.092   3.414  0.1589  0.2161  0.2646
  318MOL0     C42845   7.655   6.081   3.399 -0.4507 -0.0651 -0.4485
  318MOL0     N42846   8.337   5.807   3.186 -0.0830 -0.0691 -0.2419
  318MOL0     N42847   8.400   5.719   3.107 -0.8871  0.3652 -0.1204
  318MOL0     C42848   9.069   4.931   2.872  0.0234  0.3315  0.5837
  318MOL0     C42849   9.205   4.948   2.871 -0.0565  0.2637  0.3052
  318MOL0     C42850   9.634   4.920   2.996 -0.7225 -0.8932 -0.1683
  318MOL0     C42851   9.688   4.985   3.104 -0.4981 -0.4053 -0.4902
  318MOL0     C42852   9.818   5.025   3.087 -0.0096  0.0980  0.5366
  318MOL0     C42853   9.896   4.992   2.977 -0.3595 -0.5371 -0.9497
  318MOL0     O42854  10.028   5.034   2.988  0.3407  0.1252 -0.0238
  318MOL0     C42855  10.134   4.968   2.929 -0.4079 -0.5415 -0.8482
  318MOL0     C42856  10.267   4.983   3.013  0.3746  0.2431  0.7335
  318MOL0     C42857  10.262   4.872   3.117  0.5153  0.1531 -0.1050
  318MOL0     C42858  10.328   4.918   3.243  1.3636 -0.0791 -1.1543
  318MOL0     C42859  10.230   4.997   3.319 -0.0326  0.1195  0.6457
  318MOL0     C42860  10.163   5.069   3.383  0.7453 -0.8749  0.6536
  318MOL0     C42861   9.847   4.921   2.874 -0.2383  0.7925 -0.2374
  318MOL0     C42862   9.706   4.886   2.884  0.1553  0.3314  0.4138
  318MOL0     H42863   9.279   4.635   2.971 -0.3543 -0.6262  2.0239
  318MOL0     H42864   9.026   4.636   3.027 -1.2769 -0.0846 -1.1541
  318MOL0     H42865   8.772   4.670   2.906 -1.2412 -0.3288  0.2895
  318MOL0     H42866   8.811   4.726   3.069 -0.1176  1.3780 -0.4008
  318MOL0     H42867   8.588   4.826   2.880 -0.5450  4.4752  1.2766
  318MOL0     H42868   8.585   4.772   3.052 -0.1760 -1.5046 -0.7769
  318MOL0     H42869   8.658   4.985   3.118 -2.4044  1.3226  0.6099
  318MOL0     H42870   8.726   5.035   2.976 -0.6526 -1.5267 -1.9791
  318MOL0     H42871   8.523   5.049   2.862  1.9467  1.8053 -0.5653
  318MOL0     H42872   8.441   4.963   2.999  2.1192 -0.3841 -2.2651
  318MOL0     H42873   8.460   5.157   3.147  0.9457 -2.2261 -0.2775
  318MOL0     H42874   8.569   5.235   3.036 -0.9173  1.8282  1.0407
  318MOL0     H42875   8.400   5.282   2.868 -2.7849  1.0621 -0.1652
  318MOL0     H42876   8.288   5.176   2.950 -0.8447 -0.3222  2.5431
  318MOL0     H42877   8.226   5.420   3.010  0.6270  2.4409  0.3178
  318MOL0     H42878   8.275   5.337   3.152  0.4640 -0.0340  0.2497
  318MOL0     H42879   8.484   5.489   2.992  4.1476  1.6724  1.3946
  318MOL0     H42880   8.494   5.413   3.151 -0.4277  0.3225 -0.9577
  318MOL0     H42881   8.259   5.495   3.307  1.5052 -2.4095 -3.4267
  318MOL0     H42882   8.181   5.719   3.476  4.0910 -2.6382 -0.6745
  318MOL0     H42883   8.228   5.885   3.420  0.8010 -0.5885  0.0403
  318MOL0     H42884   7.998   5.870   3.428  2.1423  1.5667 -0.4110
  318MOL0     H42885   7.995   5.720   3.335 -0.6860  0.4604  2.2611
  318MOL0     H42886   8.087   5.843   3.133  0.6356 -1.5685  0.7071
  318MOL0     H42887   8.102   5.990   3.224 -0.8607  0.7130 -1.8655
  318MOL0     H42888   7.846   5.851   3.176 -0.4291  1.3729  0.9857
  318MOL0     H42889   7.901   5.989   3.081  1.0087 -1.3025 -1.0169
  318MOL0     H42890   7.685   5.970   3.086 -2.5452 -3.4056 -0.0360
  318MOL0     H42891   7.493   5.909   2.985  0.9419 -0.7831  2.1276
  318MOL0     H42892   7.342   5.888   3.089 -0.6303 -0.0361 -1.1403
  318MOL0     H42893   7.366   6.044   3.024 -3.9856  0.8791  5.4920
  318MOL0     H42894   7.069   5.958   3.547 -1.5785  0.5242  0.7429
  318MOL0     H42895   6.834   6.018   3.601 -0.7030 -0.2845 -0.5653
  318MOL0     H42896   6.720   6.352   3.706  2.3676 -3.7952 -1.3434
  318MOL0     H42897   6.797   6.426   3.586  3.6064 -3.9696  1.0829
  318MOL0     H42898   6.548   6.522   3.603  0.0184  1.4151 -1.9011
  318MOL0     H42899   6.557   6.422   3.456 -0.4683  1.1692  0.2484
  318MOL0     H42900   6.505   6.313   3.736 -0.2686  2.3759  1.0686
  318MOL0     H42901   6.430   6.244   3.587  0.5704 -0.0075 -2.1287
  318MOL0     H42902   6.339   6.524   3.685 -1.6665  0.6656 -0.5466
  318MOL0     H42903   6.269   6.439   3.553  0.3752  2.2920 -1.2887
  318MOL0     H42904   6.185   6.271   3.725  0.1781 -0.0137 -1.5343
  318MOL0     H42905   6.136   6.439   3.770  1.4276  0.8178  2.9510
  318MOL0     H42906   6.349   6.271   3.901  1.3451  1.9759  2.0562
  318MOL0     H42907   6.365   6.446   3.891  1.2411  0.2068  1.2322
  318MOL0     H42908   6.147   6.480   3.985 -0.8996 -1.1347 -0.0995
  318MOL0     H42909   6.258   6.419   4.104 -0.1921  1.1520 -1.0630
  318MOL0     H42910   6.035   6.285   3.956  0.2562 -2.1001 -1.6333
  318MOL0     H42911   6.026   6.325   4.119 -0.2003  2.4127 -0.7964
  318MOL0     H42912   6.890   6.390   3.390 -0.4305  1.0726  3.5144
  318MOL0     H42913   7.123   6.341   3.341  2.9413 -2.1805 -1.3188
  318MOL0     H42914   7.469   6.121   3.507  2.4038 -3.1641  2.6837
  318MOL0     H42915   7.720   6.094   3.485  1.7447 -1.0138 -1.8673
  318MOL0     H42916   9.014   5.018   2.837 -1.2761 -0.2056  1.2235
  318MOL0     H42917   9.247   5.034   2.818  0.3946 -1.8015 -2.9882
  318MOL0     H42918   9.634   5.010   3.194  4.7229  0.3694  2.8384
  318MOL0     H42919   9.854   5.089   3.167 -0.5497 -0.0694  0.9220
  318MOL0     H42920  10.109   4.862   2.916  0.7523 -0.9295 -0.0322
  318MOL0     H42921  10.140   5.016   2.831  0.7089  3.9067  1.1450
  318MOL0     H42922  10.270   5.083   3.056 -1.5948  1.2980 -1.3995
  318MOL0     H42923  10.353   4.952   2.952 -0.8476 -2.6221  0.2882
  318MOL0     H42924  10.311   4.783   3.078 -0.3417 -0.1571 -0.5067
  318MOL0     H42925  10.160   4.841   3.144 -0.0779  0.5293 -1.7887
  318MOL0     H42926  10.428   4.963   3.234  1.4876  0.5454  2.0275
  318MOL0     H42927  10.353   4.825   3.294 -3.7913 -1.4064 -0.4802
  318MOL0     H42928  10.100   5.153   3.403 -1.4618 -2.0956 -0.7519
  318MOL0     H42929   9.914   4.908   2.790 -0.5550 -0.0066 -0.3738
  318MOL0     H42930   9.659   4.840   2.798  0.6693  0.4612  0.0566
  319MOL0     O42931   7.737   8.187   2.880 -0.4957 -0.9099 -0.0886
  319MOL0     C42932   7.821   8.151   2.965  0.3747 -0.2794 -0.5861
  319MOL0     O42933   7.784   8.114   3.093  0.2737 -0.2969 -0.4064
  319MOL0     C42934   7.652   8.108   3.135 -0.8675 -0.2812  0.2524
  319MOL0     C42935   7.566   8.217   3.119  1.1662  0.2382  0.5346
  319MOL0     C42936   7.435   8.211   3.167 -0.4657  1.0210 -1.4806
  319MOL0     C42937   7.392   8.096   3.230  0.1721  0.0169 -1.8480
  319MOL0     O42938   7.260   8.078   3.269 -0.1507  0.4632  0.4702
  319MOL0     C42939   7.170   8.188   3.285 -0.5347 -0.5955  0.3799
  319MOL0     C42940   7.038   8.150   3.348  0.0912 -0.4122 -0.0331
  319MOL0     C42941   6.952   8.278   3.351  0.0734  1.4442  0.6634
  319MOL0     C42942   6.807   8.236   3.393  0.3093 -0.1268  0.1950
  319MOL0     C42943   6.716   8.355   3.416 -0.0986 -0.3883  0.2077
  319MOL0     C42944   6.582   8.309   3.486 -0.2997  0.2850  0.0656
  319MOL0     C42945   6.503   8.191   3.415  0.6977 -0.7920  0.2198
  319MOL0     C42946   6.458   8.234   3.271 -0.4335  0.2865  0.3109
  319MOL0     N42947   6.339   8.327   3.279  0.1257  0.0348  0.3083
  319MOL0     C42948   6.215   8.280   3.315  0.3500 -0.2063 -1.3445
  319MOL0     C42949   6.138   8.384   3.315  0.2556  0.0934  0.0531
  319MOL0     C42950   5.991   8.387   3.319  0.8672 -0.0035 -0.7042
  319MOL0     C42951   5.922   8.407   3.186  0.4063 -0.3310 -0.3482
  319MOL0     C42952   5.951   8.529   3.093 -0.1246  0.5338  0.0941
  319MOL0     C42953   5.839   8.560   2.990 -0.1059  0.2424 -0.9294
  319MOL0     O42954   5.810   8.446   2.914  0.8430  0.0270 -0.1383
  319MOL0     C42955   5.688   8.449   2.859 -0.2167 -0.1534  0.3325
  319MOL0     C42956   5.599   8.345   2.885 -0.4722  0.5814 -0.0159
  319MOL0     C42957   5.471   8.351   2.847 -0.0826  0.1443  0.5258
  319MOL0     C42958   5.375   8.250   2.904  0.9582 -0.0668  0.5147
  319MOL0     C42959   5.422   8.453   2.762 -0.7796  0.5100 -0.6269
  319MOL0     C42960   5.281   8.474   2.716 -0.6038 -0.3336 -1.3081
  319MOL0     O42961   5.245   8.601   2.672  0.5085 -0.3574 -0.0685
  319MOL0     C42962   5.113   8.634   2.640 -0.3816  0.3767  0.6468
  319MOL0     C42963   5.108   8.762   2.582 -0.4150 -0.0096  1.0888
  319MOL0     C42964   4.994   8.806   2.508  0.4699 -0.0052 -0.2832
  319MOL0     C42965   4.877   8.725   2.511 -0.9648  0.0367 -0.2910
  319MOL0     O42966   4.764   8.747   2.442  0.4285 -0.7494  0.4361
  319MOL0     C42967   4.763   8.846   2.340 -0.5543 -0.0520 -0.3812
  319MOL0     C42968   4.625   8.824   2.261 -0.3515  0.2126 -0.8374
  319MOL0     C42969   4.541   8.950   2.267  0.1654  0.0292 -0.4071
  319MOL0     C42970   4.592   9.068   2.179  0.7413 -0.3738 -0.4339
  319MOL0     C42971   4.530   9.210   2.224 -0.0201 -0.9883  0.2817
  319MOL0     C42972   4.381   9.208   2.229 -0.0129 -1.1202  0.7178
  319MOL0     C42973   4.332   9.352   2.244  0.8124  1.0410  0.3945
  319MOL0     C42974   4.181   9.357   2.211 -0.2777  0.4300 -0.3599
  319MOL0    Cl42975   4.124   9.516   2.290 -0.1290 -0.0567 -0.3579
  319MOL0     C42976   4.876   8.606   2.579 -0.4229  0.6720 -0.2256
  319MOL0     C42977   4.996   8.555   2.634  0.3605 -0.1561  0.2269
  319MOL0     O42978   5.212   8.374   2.722  0.2225 -0.3491  0.1391
  319MOL0     C42979   5.511   8.561   2.728 -0.0564  0.8334  0.0899
  319MOL0     C42980   5.641   8.562   2.788  0.1686  0.1420 -0.2152
  319MOL0     N42981   6.210   8.500   3.286 -0.2843  0.1667  0.3377
  319MOL0     N42982   6.332   8.464   3.259  0.6301  0.3511 -0.5598
  319MOL0     C42983   7.476   7.983   3.250 -0.1013  0.1389 -0.2372
  319MOL0     C42984   7.611   7.991   3.202 -0.6650  0.0371 -0.4188
  319MOL0     C42985   7.965   8.155   2.940 -0.5149 -0.0323 -0.2810
  319MOL0     C42986   8.019   8.201   2.819  0.4996  0.1737  0.8002
  319MOL0     C42987   8.160   8.204   2.798  0.1868  0.3229 -1.0641
  319MOL0     C42988   8.247   8.155   2.905  0.4707 -0.6274  0.8904
  319MOL0     O42989   8.385   8.180   2.902 -0.0721 -0.1033 -0.3035
  319MOL0     C42990   8.438   8.246   2.789 -0.2360  0.1317  0.1749
  319MOL0     C42991   8.592   8.207   2.784 -0.4084 -0.5129  0.2169
  319MOL0     C42992   8.655   8.268   2.665  0.0126  0.0805  0.3760
  319MOL0     C42993   8.809   8.238   2.674  0.0038  0.0610  0.3093
  319MOL0     C42994   8.882   8.303   2.574 -0.0483 -0.3415  0.2267
  319MOL0     C42995   8.918   8.358   2.468 -0.2894  0.2621  0.0670
  319MOL0     C42996   8.192   8.106   3.022 -0.3358  0.3270 -0.5074
  319MOL0     C42997   8.055   8.090   3.035 -0.5494 -0.2738  0.7990
  319MOL0     H42998   7.590   8.308   3.066 -2.9965  1.9177  1.1205
  319MOL0     H42999   7.372   8.294   3.138  1.3496  2.2592 -1.9891
  319MOL0     H43000   7.224   8.260   3.348 -1.7040 -0.2474  1.0172
  319MOL0     H43001   7.151   8.241   3.191 -0.7008 -0.3045  0.5754
  319MOL0     H43002   6.996   8.070   3.287 -0.0718  2.0804 -3.5148
  319MOL0     H43003   7.032   8.113   3.451 -0.2992 -2.8888 -0.8721
  319MOL0     H43004   6.985   8.347   3.430  0.9614 -0.2641  1.8602
  319MOL0     H43005   6.948   8.322   3.251  0.8362  3.8601  1.6131
  319MOL0     H43006   6.757   8.169   3.323 -3.7217  2.3225  0.4035
  319MOL0     H43007   6.813   8.178   3.486 -2.7895  0.9388  1.1647
  319MOL0     H43008   6.768   8.436   3.468 -2.9693  2.1740 -0.5641
  319MOL0     H43009   6.684   8.394   3.319 -0.4927 -2.6038 -0.6218
  319MOL0     H43010   6.601   8.285   3.591 -0.8569  2.9409  0.8490
  319MOL0     H43011   6.520   8.399   3.489  2.6171  2.4684 -0.8354
  319MOL0     H43012   6.578   8.112   3.422  1.5291  0.1192  3.0152
  319MOL0     H43013   6.409   8.182   3.471 -1.8608  1.8596 -3.2177
  319MOL0     H43014   6.428   8.137   3.231 -0.6691  0.6044 -0.2813
  319MOL0     H43015   6.536   8.273   3.205  0.1045 -0.4301  0.5050
  319MOL0     H43016   6.176   8.180   3.331 -0.7832  0.2809 -0.8829
  319MOL0     H43017   5.953   8.298   3.369 -0.5523  1.1840  0.4309
  319MOL0     H43018   5.954   8.463   3.389 -1.2200 -0.4787 -1.2011
  319MOL0     H43019   5.813   8.413   3.194  0.2468  1.7927 -2.7691
  319MOL0     H43020   5.943   8.316   3.129 -1.7574 -0.1060 -1.6013
  319MOL0     H43021   6.040   8.507   3.034 -1.7027 -0.4787 -2.0408
  319MOL0     H43022   5.968   8.619   3.154 -1.3391  0.5938  0.3711
  319MOL0     H43023   5.869   8.648   2.932 -1.2479  1.4667  0.2532
  319MOL0     H43024   5.760   8.587   3.061  1.4625  1.9306  0.2435
  319MOL0     H43025   5.644   8.267   2.945  1.3703  1.9421  0.4489
  319MOL0     H43026   5.292   8.310   2.941  1.0889 -0.0726  0.8203
  319MOL0     H43027   5.329   8.183   2.831 -0.2895 -0.4330  1.6005
  319MOL0     H43028   5.421   8.194   2.986 -0.8291 -0.4508  1.2896
  319MOL0     H43029   5.195   8.826   2.576  0.0258 -0.7272 -2.4710
  319MOL0     H43030   5.001   8.900   2.456 -1.8185 -1.4765 -3.5718
  319MOL0     H43031   4.782   8.946   2.381  0.1951 -0.9645  1.6649
  319MOL0     H43032   4.841   8.819   2.269 -0.1465 -1.3906  0.5257
  319MOL0     H43033   4.664   8.808   2.160  0.4296 -0.3145 -0.4656
  319MOL0     H43034   4.583   8.729   2.298 -1.1996 -0.1187 -2.5530
  319MOL0     H43035   4.516   8.979   2.369  1.1726  1.0399 -0.4279
  319MOL0     H43036   4.449   8.922   2.215  0.0788  2.4663 -1.6811
  319MOL0     H43037   4.701   9.061   2.181  0.6630 -3.0062 -1.3059
  319MOL0     H43038   4.566   9.056   2.073  0.7582  0.7766 -0.5847
  319MOL0     H43039   4.563   9.292   2.160  2.8559 -0.4731  2.2533
  319MOL0     H43040   4.564   9.223   2.327  1.2523  1.1829 -0.3651
  319MOL0     H43041   4.343   9.166   2.136  2.9862 -1.2964 -0.5402
  319MOL0     H43042   4.343   9.149   2.313 -1.8593 -1.5112 -0.3586
  319MOL0     H43043   4.386   9.422   2.180  1.5575  1.7142  1.6979
  319MOL0     H43044   4.362   9.387   2.344  1.8625  4.1945 -0.8797
  319MOL0     H43045   4.125   9.270   2.246  1.2436 -0.5899 -0.3927
  319MOL0     H43046   4.163   9.362   2.104 -0.7088 -2.1835 -0.4667
  319MOL0     H43047   4.796   8.533   2.567 -0.4197  0.7128 -0.4920
  319MOL0     H43048   5.010   8.454   2.671  0.6921  0.0303  0.6105
  319MOL0     H43049   5.497   8.637   2.653  1.0037  1.1721  0.2103
  319MOL0     H43050   5.710   8.634   2.745 -1.0823  1.1518 -0.6111
  319MOL0     H43051   7.444   7.885   3.282  1.0108  0.0437  0.6331
  319MOL0     H43052   7.680   7.908   3.207 -0.2956  0.4029  1.1976
  319MOL0     H43053   7.951   8.236   2.742 -0.7908 -0.8833  1.4270
  319MOL0     H43054   8.193   8.236   2.700  0.6933  0.2061 -0.9332
  319MOL0     H43055   8.388   8.203   2.702 -0.7240  1.1721 -0.0822
  319MOL0     H43056   8.421   8.354   2.784  0.9803  0.3146 -0.3728
  319MOL0     H43057   8.596   8.098   2.773  0.1087 -0.7696  2.4375
  319MOL0     H43058   8.634   8.241   2.879  3.5824  1.6940 -2.0743
  319MOL0     H43059   8.637   8.376   2.657 -2.2766 -0.4177 -3.2180
  319MOL0     H43060   8.610   8.231   2.573 -0.7230 -0.2329  0.8510
  319MOL0     H43061   8.821   8.130   2.659 -1.0768 -0.1727  1.0200
  319MOL0     H43062   8.845   8.254   2.776 -1.7915 -3.6998  1.7187
  319MOL0     H43063   8.931   8.410   2.375 -1.1735  1.2622  0.4816
  319MOL0     H43064   8.261   8.065   3.095 -0.1685 -1.2746 -1.5159
  319MOL0     H43065   8.008   8.028   3.111  0.6569 -0.9698  1.0187
  320MOL0     O43066   8.181   8.536   7.038 -0.0156 -0.1775 -0.4802
  320MOL0     C43067   8.147   8.420   7.015  0.6242 -0.4401  0.2828
  320MOL0     O43068   8.237   8.314   6.986  0.8304  0.4858  0.5950
  320MOL0     C43069   8.367   8.320   7.028  0.0282  0.1291 -0.0841
  320MOL0     C43070   8.456   8.425   6.996 -0.1013  0.6226 -0.7866
  320MOL0     C43071   8.592   8.418   7.021 -0.0422  0.2923 -0.3185
  320MOL0     C43072   8.653   8.315   7.095 -0.4206 -0.1450 -0.3992
  320MOL0     O43073   8.776   8.313   7.155  0.4642  0.4608  0.7530
  320MOL0     C43074   8.860   8.425   7.139  0.1018  0.5376 -0.2146
  320MOL0     C43075   8.928   8.424   6.998 -0.0303 -0.1149 -1.4063
  320MOL0     C43076   9.034   8.323   7.006  0.0769  0.4911 -0.2475
  320MOL0     C43077   9.132   8.355   6.893  0.2628 -0.5591 -0.3699
  320MOL0     C43078   9.267   8.281   6.915 -0.6755  0.2916  0.6726
  320MOL0     C43079   9.344   8.303   6.786  0.1112  0.2881  0.2388
  320MOL0     C43080   9.480   8.234   6.788 -0.8160 -0.1439 -0.3286
  320MOL0     C43081   9.572   8.260   6.669  0.3686 -0.6715 -0.3153
  320MOL0     N43082   9.590   8.403   6.633 -0.8542  0.7698  0.2908
  320MOL0     C43083   9.529   8.465   6.521 -0.8130 -0.8369  0.0208
  320MOL0     C43084   9.587   8.589   6.514 -0.4163  0.1460 -0.4621
  320MOL0     C43085   9.552   8.711   6.421 -0.0764  0.3374  0.3577
  320MOL0     C43086   9.528   8.671   6.273  0.0608  0.3079 -1.0337
  320MOL0     C43087   9.399   8.605   6.234  0.5688 -0.5264 -0.5591
  320MOL0     C43088   9.277   8.692   6.231  0.1206  0.0595 -0.0521
  320MOL0     O43089   9.172   8.611   6.186  0.3088  0.4041 -0.6429
  320MOL0     C43090   9.050   8.670   6.185  1.1424 -0.0009  1.0663
  320MOL0     C43091   9.020   8.793   6.116 -0.2939 -0.6652  0.0768
  320MOL0     C43092   8.890   8.844   6.117 -0.6631 -0.0370  0.2611
  320MOL0     C43093   8.875   8.970   6.035 -0.6190 -0.6432  0.1050
  320MOL0     C43094   8.784   8.766   6.175  0.5595 -0.4764  0.8450
  320MOL0     C43095   8.638   8.806   6.167 -0.9048  0.0403  0.0395
  320MOL0     O43096   8.549   8.698   6.186 -0.6501  0.2191 -0.1908
  320MOL0     C43097   8.420   8.744   6.192 -0.4478  0.3389  0.2013
  320MOL0     C43098   8.375   8.833   6.291 -0.2431  0.3673 -0.7882
  320MOL0     C43099   8.239   8.868   6.296  0.5135  0.0683 -0.0134
  320MOL0     C43100   8.149   8.821   6.198  0.1800  1.0196 -0.4696
  320MOL0     O43101   8.019   8.859   6.194  0.6600 -0.4150 -0.1088
  320MOL0     C43102   7.940   8.805   6.297 -0.3907 -0.0544 -0.1611
  320MOL0     C43103   7.804   8.871   6.291 -0.4894 -0.0294 -0.0221
  320MOL0     C43104   7.724   8.843   6.165  0.5532  0.4563 -0.4861
  320MOL0     C43105   7.684   8.701   6.139  0.4930  0.6728 -0.0395
  320MOL0     C43106   7.637   8.672   5.986 -0.1462 -0.8466 -0.7067
  320MOL0     C43107   7.514   8.736   5.930 -0.9979 -0.4758 -0.1840
  320MOL0     C43108   7.386   8.659   5.973  0.0683  0.3319  0.4157
  320MOL0     C43109   7.253   8.703   5.905 -1.2647  1.0042  0.2248
  320MOL0    Cl43110   7.224   8.624   5.742  0.0468  0.3009 -0.5961
  320MOL0     C43111   8.192   8.736   6.094 -0.1977 -0.2335  0.0798
  320MOL0     C43112   8.329   8.696   6.089  0.4729  0.3196  0.9549
  320MOL0     O43113   8.608   8.912   6.109 -0.1829 -0.4869 -0.3784
  320MOL0     C43114   8.815   8.641   6.233 -0.9918  0.5680 -0.2615
  320MOL0     C43115   8.949   8.591   6.231  0.9663  0.5147 -0.5783
  320MOL0     N43116   9.678   8.601   6.621 -0.3055  0.8660 -0.6624
  320MOL0     N43117   9.676   8.488   6.692  0.3983 -0.9887  0.3503
  320MOL0     C43118   8.561   8.212   7.125 -0.2943 -0.1377  0.1099
  320MOL0     C43119   8.423   8.212   7.093  0.6810 -0.4057 -0.4441
  320MOL0     C43120   8.001   8.409   7.008 -0.5389 -0.0371 -0.4752
  320MOL0     C43121   7.935   8.304   6.949 -0.1845  1.0008 -0.5639
  320MOL0     C43122   7.798   8.284   6.952  0.7917 -0.9970  0.0668
  320MOL0     C43123   7.715   8.389   7.007  0.0592  0.2414  0.9616
  320MOL0     O43124   7.580   8.393   7.003 -0.2069  0.6928  0.3949
  320MOL0     C43125   7.512   8.294   6.925  0.1071  0.0938  0.3197
  320MOL0     C43126   7.364   8.312   6.949 -0.8805 -0.9957  0.0460
  320MOL0     C43127   7.258   8.222   6.870 -0.3141  0.4883  0.2777
  320MOL0     C43128   7.122   8.223   6.946  0.6904 -0.2937 -0.1122
  320MOL0     C43129   7.131   8.149   7.075  0.4722  0.8174  0.1311
  320MOL0     C43130   7.148   8.095   7.184  0.1710  0.0128  0.0228
  320MOL0     C43131   7.778   8.499   7.062 -0.1597  0.1089  0.0486
  320MOL0     C43132   7.920   8.511   7.060  0.0952 -0.6990 -0.2855
  320MOL0     H43133   8.431   8.511   6.934 -0.8950 -0.1123 -1.5052
  320MOL0     H43134   8.650   8.506   6.994  0.4553 -0.6161 -2.4394
  320MOL0     H43135   8.810   8.519   7.162 -0.0248  0.4021  0.0637
  320MOL0     H43136   8.939   8.416   7.215 -0.8658  1.9802  1.0171
  320MOL0     H43137   8.851   8.397   6.925 -3.2473 -0.0849  1.7182
  320MOL0     H43138   8.979   8.519   6.982 -0.2857  1.1439  3.7111
  320MOL0     H43139   9.089   8.335   7.100  2.9396 -1.4123 -1.5200
  320MOL0     H43140   8.997   8.220   6.999 -1.7736  1.1320 -0.2244
  320MOL0     H43141   9.092   8.319   6.798  2.8341 -1.7901 -1.0636
  320MOL0     H43142   9.151   8.461   6.876 -0.9053 -0.2233  0.2866
  320MOL0     H43143   9.324   8.323   6.999 -1.5014 -0.0364  1.4088
  320MOL0     H43144   9.246   8.178   6.943 -2.4779  0.7738  1.2316
  320MOL0     H43145   9.282   8.273   6.700 -1.7886  1.8849  0.9864
  320MOL0     H43146   9.361   8.410   6.769 -0.8379  0.5786  1.0659
  320MOL0     H43147   9.526   8.267   6.881  0.8246 -1.6708 -0.5477
  320MOL0     H43148   9.471   8.126   6.801 -1.2164  0.0503  1.2310
  320MOL0     H43149   9.525   8.214   6.581 -1.6090  1.6836 -0.6024
  320MOL0     H43150   9.671   8.219   6.689  0.6890 -0.2582 -1.0462
  320MOL0     H43151   9.461   8.411   6.455 -2.0472 -0.2931  0.8197
  320MOL0     H43152   9.463   8.763   6.457  0.3202 -0.3420  2.4976
  320MOL0     H43153   9.640   8.777   6.420  1.7134 -1.9343 -0.8597
  320MOL0     H43154   9.601   8.594   6.244 -2.0687 -1.6728 -1.4398
  320MOL0     H43155   9.545   8.763   6.217  0.5889  0.3528 -0.8071
  320MOL0     H43156   9.386   8.518   6.299 -2.3832  0.5850  0.4638
  320MOL0     H43157   9.407   8.576   6.129  0.3992  1.4327 -1.1397
  320MOL0     H43158   9.310   8.780   6.175  1.7255 -1.0273 -0.9111
  320MOL0     H43159   9.257   8.728   6.332  1.8263  2.0495 -0.3662
  320MOL0     H43160   9.101   8.852   6.075 -3.0966  4.2784  0.8398
  320MOL0     H43161   8.824   9.050   6.090  2.3719  1.0526  0.6841
  320MOL0     H43162   8.970   9.022   6.016 -0.9716  0.4478  1.1596
  320MOL0     H43163   8.836   8.953   5.934 -0.2763 -1.0642  0.0404
  320MOL0     H43164   8.443   8.878   6.362  0.5253 -3.0694  0.8550
  320MOL0     H43165   8.219   8.949   6.365  1.7171  3.2891 -3.2007
  320MOL0     H43166   7.931   8.696   6.300 -1.2281  0.0178  0.2273
  320MOL0     H43167   7.993   8.836   6.388  0.6881 -1.4055 -0.3107
  320MOL0     H43168   7.748   8.845   6.381  2.4804  0.7102  2.1928
  320MOL0     H43169   7.809   8.980   6.294 -1.7544  0.1475 -2.3187
  320MOL0     H43170   7.792   8.868   6.083 -0.3250  1.0645 -1.0468
  320MOL0     H43171   7.636   8.906   6.149 -1.1105 -2.2813 -3.6507
  320MOL0     H43172   7.767   8.634   6.163  0.8760  0.6761 -1.2753
  320MOL0     H43173   7.594   8.681   6.198  1.8519  0.0830  1.9119
  320MOL0     H43174   7.627   8.563   5.977 -1.1958 -0.8008 -0.2218
  320MOL0     H43175   7.715   8.701   5.916  0.7455 -0.4132  0.4245
  320MOL0     H43176   7.509   8.838   5.969 -2.9267 -0.9769  1.0573
  320MOL0     H43177   7.527   8.735   5.821 -4.2351  1.9014 -0.7397
  320MOL0     H43178   7.363   8.684   6.076  1.1665  1.5435  0.3986
  320MOL0     H43179   7.407   8.551   5.969  3.0473  0.8307  0.5931
  320MOL0     H43180   7.242   8.811   5.894  0.2090  1.4177  2.2403
  320MOL0     H43181   7.174   8.677   5.975  0.4337  2.9484  3.0943
  320MOL0     H43182   8.132   8.723   6.005 -1.9518  0.6296  1.0923
  320MOL0     H43183   8.364   8.633   6.008  0.0882 -0.1132  1.1221
  320MOL0     H43184   8.751   8.569   6.281  0.4836  0.7572  2.1430
  320MOL0     H43185   8.978   8.499   6.279  0.9498  1.4844  1.4045
  320MOL0     H43186   8.594   8.127   7.184  0.3699  1.2695  1.8670
  320MOL0     H43187   8.359   8.131   7.126 -0.9702  1.8680  2.4786
  320MOL0     H43188   7.999   8.223   6.915  0.0864  1.7603 -1.9546
  320MOL0     H43189   7.758   8.194   6.908 -0.8349 -0.2522 -0.0465
  320MOL0     H43190   7.549   8.309   6.824  3.6207 -4.2550  0.6578
  320MOL0     H43191   7.528   8.192   6.963  0.4022  0.8460  2.3634
  320MOL0     H43192   7.359   8.418   6.923  4.7407 -0.2382  0.7151
  320MOL0     H43193   7.361   8.309   7.058  1.3361  1.3808  0.2789
  320MOL0     H43194   7.297   8.121   6.854 -1.4649  0.2449 -1.3118
  320MOL0     H43195   7.245   8.260   6.768 -2.7512 -1.6667 -0.3121
  320MOL0     H43196   7.043   8.171   6.890 -2.4571  0.2452  3.4273
  320MOL0     H43197   7.078   8.321   6.969  1.0090  0.2303 -1.6043
  320MOL0     H43198   7.151   8.040   7.277 -2.7525 -2.5519 -1.1948
  320MOL0     H43199   7.705   8.575   7.086 -1.3414 -2.0555  4.2997
  320MOL0     H43200   7.952   8.605   7.105 -1.9795 -0.5210  0.9700
  321MOL0     O43201   4.609  11.138  10.432 -0.2644  0.4159 -0.1267
  321MOL0     C43202   4.722  11.103  10.393 -0.5054  0.5456 -0.5317
  321MOL0     O43203   4.752  11.048  10.270  0.1049 -0.6813 -1.4096
  321MOL0     C43204   4.675  11.024  10.161  0.2317  0.5782  0.3103
  321MOL0     C43205   4.546  10.992  10.167  0.8861 -0.6887  0.5891
  321MOL0     C43206   4.464  10.967  10.058  0.6727  0.2508 -0.1683
  321MOL0     C43207   4.512  10.962   9.929 -0.0074  0.5960  0.6037
  321MOL0     O43208   4.446  10.943   9.809 -0.1129  0.3818 -0.1878
  321MOL0     C43209   4.305  10.970   9.808  0.3554  0.2329 -0.4421
  321MOL0     C43210   4.242  10.912   9.681  0.1756  0.2523 -0.6571
  321MOL0     C43211   4.200  10.762   9.693  1.0038 -0.2527 -0.7801
  321MOL0     C43212   4.093  10.735   9.588 -0.3202  0.1804  0.5422
  321MOL0     C43213   4.030  10.597   9.583  0.1648 -0.0360  0.3200
  321MOL0     C43214   3.905  10.590   9.495 -0.7028  0.0896  0.4540
  321MOL0     C43215   3.942  10.572   9.347 -0.4687  0.0032  0.2903
  321MOL0     C43216   3.822  10.558   9.257  0.2549 -0.2159  0.3868
  321MOL0     N43217   3.757  10.429   9.286 -0.0096 -0.4327  0.7485
  321MOL0     C43218   3.646  10.430   9.363 -0.6886 -0.2609 -0.3648
  321MOL0     C43219   3.611  10.298   9.370  0.1435 -0.6067  0.1986
  321MOL0     C43220   3.484  10.241   9.434 -0.1231  0.5866 -0.2737
  321MOL0     C43221   3.360  10.305   9.376  0.3291  0.3453 -0.2971
  321MOL0     C43222   3.247  10.312   9.478 -0.4874  0.1558 -0.9680
  321MOL0     C43223   3.132  10.400   9.427 -0.9362 -1.0840 -0.2850
  321MOL0     O43224   3.169  10.538   9.457 -0.2779 -0.3616 -0.8829
  321MOL0     C43225   3.072  10.624   9.409 -0.0127 -0.7022 -0.0802
  321MOL0     C43226   2.965  10.655   9.487 -0.2024  1.2485  0.0821
  321MOL0     C43227   2.880  10.750   9.442  0.0014 -0.6185  0.5565
  321MOL0     C43228   2.771  10.790   9.538 -0.0193 -0.1429  0.0891
  321MOL0     C43229   2.898  10.810   9.322 -0.2719  0.9032 -0.3005
  321MOL0     C43230   2.816  10.926   9.277  0.6431 -0.2986  0.2144
  321MOL0     O43231   2.829  10.968   9.140 -0.5292 -0.7521 -0.8312
  321MOL0     C43232   2.737  11.060   9.106 -0.4391 -0.0322 -0.0045
  321MOL0     C43233   2.759  11.199   9.088  0.6586  0.5430 -0.1765
  321MOL0     C43234   2.651  11.278   9.039 -0.7958 -0.6270 -0.8697
  321MOL0     C43235   2.529  11.229   9.010  1.4496 -0.4776  0.3593
  321MOL0     O43236   2.431  11.316   8.961  0.1425 -0.1372 -0.0620
  321MOL0     C43237   2.312  11.269   8.898 -0.5210  0.1065  0.1965
  321MOL0     C43238   2.212  11.392   8.890 -0.1490  0.9184  0.4224
  321MOL0     C43239   2.072  11.327   8.859  0.1507 -0.1482 -0.0661
  321MOL0     C43240   2.050  11.286   8.708 -0.5371  0.1721 -0.5870
  321MOL0     C43241   1.901  11.224   8.677  0.4146  0.1316  0.6346
  321MOL0     C43242   1.875  11.075   8.718 -0.1088 -0.0079  0.4890
  321MOL0     C43243   1.734  11.042   8.659  0.1771 -0.8867  0.1906
  321MOL0     C43244   1.716  11.021   8.507 -0.7174 -0.3881 -0.7953
  321MOL0    Cl43245   1.591  10.900   8.482 -0.5121  0.2908 -0.0106
  321MOL0     C43246   2.501  11.094   9.040 -0.8908 -0.0748  0.5189
  321MOL0     C43247   2.607  11.011   9.081  0.4363 -0.5277 -0.8844
  321MOL0     O43248   2.750  10.982   9.362  0.4575  1.0670  0.0531
  321MOL0     C43249   3.001  10.768   9.240 -0.0337 -0.9723  1.2079
  321MOL0     C43250   3.081  10.675   9.280 -0.2745  0.0778 -1.4131
  321MOL0     N43251   3.701  10.223   9.296 -0.2882 -0.1797 -0.9248
  321MOL0     N43252   3.788  10.306   9.243 -0.2999 -0.2552  0.0297
  321MOL0     C43253   4.655  10.977   9.922  0.3402 -0.0794  0.3309
  321MOL0     C43254   4.741  11.008  10.034 -0.1800 -1.1018 -0.1562
  321MOL0     C43255   4.836  11.098  10.494  0.6632  0.0789  0.2760
  321MOL0     C43256   4.976  11.092  10.464  0.4400  0.5138 -1.0687
  321MOL0     C43257   5.072  11.097  10.568 -0.6833  0.0834 -0.0778
  321MOL0     C43258   5.024  11.105  10.703 -1.2406  0.5573  0.5309
  321MOL0     O43259   5.122  11.105  10.802 -1.0382  0.2885  0.3221
  321MOL0     C43260   5.085  11.110  10.931  0.1683 -0.0757 -0.0335
  321MOL0     C43261   5.214  11.098  11.021 -0.2389  0.0391  0.3710
  321MOL0     C43262   5.190  11.191  11.143  0.1642  1.4878  0.0358
  321MOL0     C43263   5.287  11.156  11.259 -0.1524 -0.8654  0.0225
  321MOL0     C43264   5.312  11.272  11.340 -0.8450 -0.1851 -0.1515
  321MOL0     C43265   5.327  11.382  11.388  0.3862  0.2162 -0.1813
  321MOL0     C43266   4.892  11.123  10.722  0.0599 -0.4309 -0.2573
  321MOL0     C43267   4.797  11.122  10.621  0.4840 -0.2063 -0.3098
  321MOL0     H43268   4.512  11.002  10.270  0.2132 -1.1535  0.4145
  321MOL0     H43269   4.359  10.953  10.080  0.5648  0.5927 -0.4642
  321MOL0     H43270   4.255  10.919   9.891 -0.1544  0.8754 -0.3513
  321MOL0     H43271   4.281  11.077   9.813  0.9936  0.3270  1.4205
  321MOL0     H43272   4.143  10.956   9.664 -1.2067 -2.9892 -1.8462
  321MOL0     H43273   4.294  10.940   9.589  0.3263  0.7044 -0.4410
  321MOL0     H43274   4.287  10.698   9.677 -0.2029 -1.6475 -1.9790
  321MOL0     H43275   4.162  10.730   9.791 -0.8292  1.7742 -0.7405
  321MOL0     H43276   4.019  10.815   9.601  1.3383  1.5115  2.5324
  321MOL0     H43277   4.146  10.741   9.493 -2.5727  1.8469 -0.6827
  321MOL0     H43278   4.110  10.526   9.561  1.4806  0.8212  2.1013
  321MOL0     H43279   4.008  10.583   9.690 -0.7366  3.1279  0.6399
  321MOL0     H43280   3.847  10.504   9.529 -0.2637 -0.2296  0.4019
  321MOL0     H43281   3.845  10.682   9.504  0.8144  1.3614 -1.4982
  321MOL0     H43282   4.012  10.647   9.309  0.8924 -0.9254  0.8510
  321MOL0     H43283   3.993  10.476   9.330 -0.0843  0.3529 -0.6460
  321MOL0     H43284   3.850  10.591   9.157 -2.0956 -1.7049 -0.8692
  321MOL0     H43285   3.745  10.632   9.280 -1.5293 -1.6902 -0.4847
  321MOL0     H43286   3.601  10.515   9.413 -1.8840 -2.0488  1.7745
  321MOL0     H43287   3.485  10.132   9.420 -0.6889  0.4880  0.4417
  321MOL0     H43288   3.500  10.268   9.538 -1.5012 -2.0704  0.7135
  321MOL0     H43289   3.325  10.251   9.287  4.6691 -1.6827 -1.0560
  321MOL0     H43290   3.387  10.408   9.351 -0.2200  0.6771  0.4328
  321MOL0     H43291   3.269  10.358   9.575 -1.7480 -0.3286 -0.4335
  321MOL0     H43292   3.214  10.209   9.495  1.0344 -0.0442  1.1516
  321MOL0     H43293   3.038  10.376   9.477  0.3621 -1.5865  2.0421
  321MOL0     H43294   3.135  10.385   9.318 -1.4600  0.6472 -0.5702
  321MOL0     H43295   2.957  10.607   9.584 -2.8262 -3.0439 -1.9756
  321MOL0     H43296   2.672  10.810   9.496  0.2079 -0.1918 -0.4760
  321MOL0     H43297   2.749  10.709   9.608 -4.5885  1.4506  0.8475
  321MOL0     H43298   2.805  10.879   9.591  0.9094  0.3964 -1.3458
  321MOL0     H43299   2.856  11.245   9.107  1.9341 -2.8060  2.4513
  321MOL0     H43300   2.672  11.383   9.024 -3.5119  0.2116  0.5401
  321MOL0     H43301   2.337  11.232   8.798  0.9274  2.7629 -0.5365
  321MOL0     H43302   2.277  11.178   8.947  1.5964 -1.2951 -0.7221
  321MOL0     H43303   2.211  11.442   8.987 -1.7811  0.5251  0.6309
  321MOL0     H43304   2.231  11.471   8.817  2.0965  0.3401  0.3069
  321MOL0     H43305   1.987  11.393   8.880 -0.9708 -1.0418 -1.6033
  321MOL0     H43306   2.053  11.236   8.916 -2.1742 -0.7385 -1.6549
  321MOL0     H43307   2.055  11.372   8.640  2.2305 -0.0455 -0.7723
  321MOL0     H43308   2.125  11.219   8.665  1.8192  0.5212  2.6655
  321MOL0     H43309   1.877  11.242   8.572 -1.0344  1.2047  1.1081
  321MOL0     H43310   1.826  11.282   8.733 -1.5236 -1.4385 -0.2015
  321MOL0     H43311   1.951  11.009   8.677  0.0515 -0.1939  1.0715
  321MOL0     H43312   1.876  11.062   8.827  0.3580  0.1697  0.5090
  321MOL0     H43313   1.651  11.106   8.688 -0.3656  0.8893 -4.3415
  321MOL0     H43314   1.705  10.945   8.702  0.9515 -0.3075  2.0959
  321MOL0     H43315   1.803  10.968   8.466  0.3653  1.6350 -1.2178
  321MOL0     H43316   1.701  11.113   8.451  0.5638 -0.6218 -1.5640
  321MOL0     H43317   2.404  11.048   9.026 -2.4830  2.2084  2.9051
  321MOL0     H43318   2.587  10.904   9.083  0.4254 -0.5989  2.4957
  321MOL0     H43319   3.016  10.814   9.142 -1.2634 -0.0800  1.4053
  321MOL0     H43320   3.175  10.651   9.232  1.1097 -1.5449  1.8523
  321MOL0     H43321   4.698  10.968   9.823 -0.6898 -0.8802 -0.0657
  321MOL0     H43322   4.846  11.032  10.023 -0.5284 -0.3384 -2.0940
  321MOL0     H43323   4.990  11.089  10.356  0.3161  0.3395 -1.0809
  321MOL0     H43324   5.180  11.100  10.556 -0.9158  0.0758 -2.6600
  321MOL0     H43325   5.044  11.211  10.938  2.4115  0.9369 -0.4563
  321MOL0     H43326   5.007  11.036  10.949  1.0311 -0.9510  0.1747
  321MOL0     H43327   5.295  11.131  10.956 -1.4200 -0.2487 -1.3191
  321MOL0     H43328   5.249  10.997  11.046  0.8227  0.1910 -0.4241
  321MOL0     H43329   5.086  11.182  11.175 -0.1163 -0.3569 -1.2397
  321MOL0     H43330   5.204  11.298  11.121  0.7739  1.2084 -0.9714
  321MOL0     H43331   5.378  11.113  11.217 -0.2067 -0.6430 -0.3363
  321MOL0     H43332   5.226  11.090  11.322 -2.1007  0.3933 -0.4553
  321MOL0     H43333   5.341  11.475  11.438 -4.6967  2.8158 -2.8959
  321MOL0     H43334   4.862  11.131  10.826 -0.9010 -0.2597 -0.5353
  321MOL0     H43335   4.696  11.120  10.661  1.5071  1.2889  2.6659
  322MOL0     O43336   8.664   1.501   7.089 -0.0510  0.4863  0.5702
  322MOL0     C43337   8.606   1.566   7.178  0.6564  1.1695  0.0036
  322MOL0     O43338   8.655   1.590   7.301 -0.2904 -0.9327  0.2108
  322MOL0     C43339   8.781   1.528   7.326  0.0488 -0.8002 -0.0084
  322MOL0     C43340   8.880   1.623   7.338  0.7428 -0.6179 -0.4455
  322MOL0     C43341   9.013   1.579   7.367  0.7585  1.0693 -0.4028
  322MOL0     C43342   9.036   1.445   7.407 -1.0435 -0.9768 -0.3371
  322MOL0     O43343   9.172   1.413   7.444 -0.4242 -0.3032  0.0229
  322MOL0     C43344   9.198   1.273   7.465  0.0148 -0.1349  0.0111
  322MOL0     C43345   9.350   1.249   7.470 -0.3536  0.6550  0.3498
  322MOL0     C43346   9.389   1.096   7.489  0.1799 -0.3704  0.6917
  322MOL0     C43347   9.543   1.081   7.486  0.2719  0.4779 -0.5626
  322MOL0     C43348   9.569   0.932   7.538 -0.3364 -0.0792 -0.0103
  322MOL0     C43349   9.724   0.894   7.513  0.2250 -0.1585  0.0768
  322MOL0     C43350   9.753   0.805   7.393 -0.2132  0.5399  0.3467
  322MOL0     C43351   9.736   0.873   7.258 -0.6001  0.5617  0.2395
  322MOL0     N43352   9.824   0.830   7.145 -0.5374  0.4913 -0.3637
  322MOL0     C43353   9.872   0.706   7.119 -0.1763 -0.6187  0.0547
  322MOL0     C43354   9.966   0.727   7.031 -0.8633 -0.3266  0.3914
  322MOL0     C43355  10.080   0.630   7.000 -0.4430  0.5524 -0.4684
  322MOL0     C43356  10.109   0.593   6.847 -0.5160 -0.4600  0.5266
  322MOL0     C43357  10.238   0.517   6.823  0.0551 -0.2595  0.2144
  322MOL0     C43358  10.364   0.609   6.824  0.1269 -1.4400  0.1140
  322MOL0     O43359  10.476   0.565   6.743 -0.0724 -0.4082  0.5671
  322MOL0     C43360  10.596   0.636   6.728 -0.3589  0.4026 -0.6231
  322MOL0     C43361  10.677   0.581   6.635  0.1107 -0.2133  0.4981
  322MOL0     C43362  10.808   0.615   6.620 -0.0505 -0.4748  0.8004
  322MOL0     C43363  10.886   0.539   6.507 -0.6990 -0.4956  0.5097
  322MOL0     C43364  10.858   0.725   6.698  0.4548 -0.6367 -0.2613
  322MOL0     C43365  10.991   0.780   6.688 -0.5547  0.7887 -0.9847
  322MOL0     O43366  11.077   0.728   6.589 -0.6103  0.9066 -0.6133
  322MOL0     C43367  11.194   0.804   6.551  0.4216  0.0311 -0.0980
  322MOL0     C43368  11.312   0.801   6.630  0.0329 -1.0034  1.4987
  322MOL0     C43369  11.430   0.862   6.573  0.1222 -0.4379 -0.5571
  322MOL0     C43370  11.436   0.921   6.446 -0.1948 -0.2905 -0.2864
  322MOL0     O43371  11.549   0.971   6.381  0.2590 -0.5996  0.0748
  322MOL0     C43372  11.676   0.941   6.442 -0.2429  0.3257 -0.5767
  322MOL0     C43373  11.786   1.012   6.356  0.3209  0.2217 -0.6548
  322MOL0     C43374  11.798   1.163   6.394  0.7258 -0.5119 -0.6053
  322MOL0     C43375  11.925   1.230   6.336 -0.9917  0.1713  0.5260
  322MOL0     C43376  11.935   1.377   6.385  0.0013 -0.5611 -0.4575
  322MOL0     C43377  12.069   1.446   6.344 -0.4644 -0.8037  0.6493
  322MOL0     C43378  12.073   1.587   6.414 -0.1353  0.5779  0.5251
  322MOL0     C43379  12.193   1.676   6.377 -0.2885 -0.0311 -1.4024
  322MOL0    Cl43380  12.194   1.815   6.498  0.1147  0.0046 -0.5122
  322MOL0     C43381  11.316   0.926   6.380  1.5331  0.8355  0.0401
  322MOL0     C43382  11.188   0.875   6.432 -0.9210 -0.4817  0.0860
  322MOL0     O43383  11.016   0.885   6.750 -0.0864 -0.2798  0.0639
  322MOL0     C43384  10.769   0.789   6.787  0.3417 -0.1335  0.2433
  322MOL0     C43385  10.641   0.739   6.812 -0.0625  0.3505 -0.3676
  322MOL0     N43386   9.973   0.858   6.979  0.0723  0.6099  0.3186
  322MOL0     N43387   9.885   0.912   7.059 -0.6688 -0.2370 -0.6686
  322MOL0     C43388   8.933   1.360   7.407  0.6533  0.2934  0.2302
  322MOL0     C43389   8.802   1.394   7.361  0.6443 -0.4756 -0.4503
  322MOL0     C43390   8.462   1.607   7.154 -1.0109  0.2492  0.9540
  322MOL0     C43391   8.365   1.626   7.263  0.1989  0.2721  0.2975
  322MOL0     C43392   8.235   1.663   7.227 -1.1686  0.1730  0.0759
  322MOL0     C43393   8.197   1.666   7.091  0.4243  0.0983 -0.0991
  322MOL0     O43394   8.073   1.713   7.046 -0.3784  0.2609  0.3356
  322MOL0     C43395   7.958   1.689   7.130  0.2266 -0.7843 -0.0948
  322MOL0     C43396   7.825   1.686   7.049 -0.0099 -0.1674 -0.6306
  322MOL0     C43397   7.837   1.604   6.922 -0.0743 -0.4798 -1.7428
  322MOL0     C43398   7.852   1.454   6.938  0.3049  0.1672 -0.4957
  322MOL0     C43399   7.729   1.397   6.993  0.0816  1.5195  0.2434
  322MOL0     C43400   7.631   1.357   7.054  0.3242 -0.7850 -0.3476
  322MOL0     C43401   8.288   1.641   6.986  0.2276 -0.5839  0.3846
  322MOL0     C43402   8.418   1.619   7.019 -0.2071  0.1700 -1.2512
  322MOL0     H43403   8.852   1.725   7.316  1.1119 -0.1773  0.9878
  322MOL0     H43404   9.098   1.646   7.358  0.4129  2.0009  2.4276
  322MOL0     H43405   9.168   1.231   7.562  0.7422 -1.1640 -0.1917
  322MOL0     H43406   9.158   1.213   7.383 -2.4303  2.0957 -0.5556
  322MOL0     H43407   9.394   1.275   7.373  3.6990  1.4348  2.1701
  322MOL0     H43408   9.395   1.321   7.539  1.5158 -0.9670  0.9539
  322MOL0     H43409   9.356   1.064   7.588 -1.4263 -3.1970 -0.6294
  322MOL0     H43410   9.335   1.033   7.417  0.7939 -2.7318  2.1725
  322MOL0     H43411   9.585   1.101   7.387  1.2304  2.5645  0.2083
  322MOL0     H43412   9.591   1.149   7.556  1.6901 -0.0163 -1.0177
  322MOL0     H43413   9.544   0.932   7.645  0.5276  1.1095  0.2079
  322MOL0     H43414   9.505   0.852   7.499  0.6118 -2.2933  2.6180
  322MOL0     H43415   9.790   0.981   7.507  0.4247 -0.4034 -2.6926
  322MOL0     H43416   9.761   0.840   7.601  1.5899  0.1442 -0.2847
  322MOL0     H43417   9.858   0.779   7.409  0.0294  0.7666 -0.8123
  322MOL0     H43418   9.689   0.717   7.406 -0.9107  1.1919  1.5687
  322MOL0     H43419   9.751   0.978   7.284 -3.2833  0.5113  2.4879
  322MOL0     H43420   9.633   0.852   7.228 -1.1145  0.9001  1.6991
  322MOL0     H43421   9.849   0.612   7.168 -0.5615  0.6777  2.5052
  322MOL0     H43422  10.176   0.668   7.035  0.1218 -0.4122 -0.9295
  322MOL0     H43423  10.065   0.535   7.052 -1.0915  1.3117  0.7757
  322MOL0     H43424  10.094   0.670   6.771  1.7946 -0.5029 -0.0451
  322MOL0     H43425  10.030   0.519   6.828  0.1456 -0.8142 -0.9276
  322MOL0     H43426  10.243   0.461   6.729 -0.0960  1.4603 -0.8594
  322MOL0     H43427  10.254   0.441   6.901  0.8239  0.7381  1.0645
  322MOL0     H43428  10.406   0.623   6.924 -0.1118 -0.8903  0.1438
  322MOL0     H43429  10.343   0.714   6.801  2.1997 -0.3351  2.7074
  322MOL0     H43430  10.642   0.495   6.579 -0.7708 -1.2235  2.5217
  322MOL0     H43431  10.982   0.498   6.538  0.2498  0.6391 -0.8302
  322MOL0     H43432  10.828   0.455   6.467 -1.7851  0.2351  0.5172
  322MOL0     H43433  10.907   0.604   6.422 -0.1430 -1.5833 -0.2042
  322MOL0     H43434  11.313   0.761   6.731  0.5717 -3.0251  0.7334
  322MOL0     H43435  11.520   0.854   6.633  0.7828 -3.0509 -1.7453
  322MOL0     H43436  11.681   0.957   6.550 -0.0880  0.6526 -0.6287
  322MOL0     H43437  11.699   0.838   6.414  0.3020  0.3748 -0.3211
  322MOL0     H43438  11.886   0.969   6.372 -0.5874 -0.6406  4.5232
  322MOL0     H43439  11.759   1.014   6.250 -1.6394 -1.1346 -0.2390
  322MOL0     H43440  11.794   1.167   6.503  2.1144  0.9244 -0.5760
  322MOL0     H43441  11.709   1.220   6.365  1.8811  1.9414  0.3679
  322MOL0     H43442  12.011   1.182   6.384  0.7284  3.2563  0.8536
  322MOL0     H43443  11.925   1.226   6.227 -1.2959 -0.8875  0.5589
  322MOL0     H43444  11.932   1.373   6.494  0.2768 -1.0892 -0.4669
  322MOL0     H43445  11.848   1.424   6.337  0.8035 -2.3356 -4.0081
  322MOL0     H43446  12.154   1.383   6.375 -0.5040 -0.7024  0.9685
  322MOL0     H43447  12.079   1.465   6.237  2.0199 -3.5139  0.2428
  322MOL0     H43448  12.077   1.551   6.517 -2.1034  0.1749  0.5065
  322MOL0     H43449  11.975   1.632   6.396 -1.2077 -1.2809  1.4208
  322MOL0     H43450  12.178   1.733   6.284 -0.1298  0.6566 -1.0116
  322MOL0     H43451  12.287   1.621   6.368 -1.1892 -1.8104 -0.5107
  322MOL0     H43452  11.303   0.959   6.277 -0.6962  2.0968  0.6506
  322MOL0     H43453  11.097   0.869   6.373 -1.4037 -1.0338  0.8685
  322MOL0     H43454  10.800   0.877   6.843 -2.1893  0.4840  0.8309
  322MOL0     H43455  10.583   0.792   6.887  0.7140 -0.4143  0.8219
  322MOL0     H43456   8.948   1.258   7.442  0.8881 -1.5765 -4.5244
  322MOL0     H43457   8.724   1.319   7.353  0.4267 -0.4449  1.0575
  322MOL0     H43458   8.393   1.637   7.367 -0.4872  3.3694  0.2488
  322MOL0     H43459   8.172   1.686   7.311 -1.0399  2.4871 -0.3962
  322MOL0     H43460   7.964   1.592   7.180 -1.3872 -0.5243  0.6480
  322MOL0     H43461   7.957   1.772   7.202 -3.9257 -0.7784  0.0699
  322MOL0     H43462   7.807   1.785   7.007  2.0390 -0.2247 -1.7804
  322MOL0     H43463   7.738   1.655   7.108  0.2895 -0.3922 -0.3009
  322MOL0     H43464   7.925   1.640   6.868 -0.6949  2.2025 -1.1166
  322MOL0     H43465   7.747   1.622   6.862  0.6836  1.0042 -2.4837
  322MOL0     H43466   7.943   1.428   6.993  1.0124  2.6481 -0.3511
  322MOL0     H43467   7.862   1.402   6.842 -0.3017  1.2143 -1.1444
  322MOL0     H43468   7.544   1.327   7.109  0.7021 -3.7041 -1.1462
  322MOL0     H43469   8.237   1.645   6.890 -1.2871 -1.9036  1.0716
  322MOL0     H43470   8.498   1.611   6.947  2.4990  0.2500  1.5593
  323MOL0     O43471   7.675   2.416   2.956  0.0220  0.8944 -0.0739
  323MOL0     C43472   7.757   2.468   2.877 -0.0782  0.2416 -0.4569
  323MOL0     O43473   7.723   2.545   2.778  0.1012  0.2560 -0.0460
  323MOL0     C43474   7.602   2.608   2.768  0.2259 -0.6286 -0.4447
  323MOL0     C43475   7.518   2.638   2.880 -0.9159  0.1838 -0.2395
  323MOL0     C43476   7.397   2.710   2.864  0.3529  0.7516 -0.2301
  323MOL0     C43477   7.358   2.761   2.738 -0.1972 -0.0539  0.2090
  323MOL0     O43478   7.235   2.825   2.724 -0.5127 -0.5238  0.4591
  323MOL0     C43479   7.151   2.770   2.616 -0.2015  0.4063 -0.1137
  323MOL0     C43480   7.007   2.768   2.665  0.4303 -0.2298  0.3780
  323MOL0     C43481   6.903   2.821   2.572 -0.4142  1.0143 -0.0499
  323MOL0     C43482   6.767   2.816   2.642  0.2774 -0.1718 -0.1683
  323MOL0     C43483   6.658   2.878   2.556 -0.3505 -0.5753 -0.3129
  323MOL0     C43484   6.524   2.874   2.633 -0.7221  0.3995  0.1666
  323MOL0     C43485   6.404   2.913   2.548  0.2567  0.3821 -0.0593
  323MOL0     C43486   6.281   2.902   2.631 -0.5148  0.7681  0.2781
  323MOL0     N43487   6.150   2.912   2.560 -0.2255 -1.2386 -0.4013
  323MOL0     C43488   6.031   2.881   2.621  0.0290  0.4451  0.2934
  323MOL0     C43489   5.941   2.882   2.520 -0.1642 -0.6020 -1.0543
  323MOL0     C43490   5.793   2.852   2.529  0.4179  1.0216 -0.2514
  323MOL0     C43491   5.763   2.765   2.407  0.2125  0.2881 -0.5807
  323MOL0     C43492   5.609   2.734   2.405 -0.5406 -0.1224 -0.1720
  323MOL0     C43493   5.550   2.644   2.293 -0.2897 -0.3706  0.1849
  323MOL0     O43494   5.430   2.591   2.349 -0.7202  0.0548 -0.5135
  323MOL0     C43495   5.349   2.506   2.277  0.1343 -0.3688  0.6286
  323MOL0     C43496   5.218   2.481   2.314 -0.4074  0.3560 -0.6767
  323MOL0     C43497   5.132   2.416   2.223  0.4449  0.6754  0.3880
  323MOL0     C43498   4.993   2.393   2.276 -0.1219 -0.1712  0.2448
  323MOL0     C43499   5.180   2.376   2.101  0.3414 -0.3850 -0.5243
  323MOL0     C43500   5.094   2.326   1.994 -0.1159 -0.0198 -0.6357
  323MOL0     O43501   5.160   2.242   1.901 -0.0721 -0.7547 -0.0868
  323MOL0     C43502   5.094   2.219   1.778  0.5004 -0.3533  0.3411
  323MOL0     C43503   5.145   2.250   1.653  0.1098 -0.0641  0.1134
  323MOL0     C43504   5.084   2.199   1.539 -0.3316 -0.3459 -0.5764
  323MOL0     C43505   4.978   2.108   1.547 -0.3606  0.6056 -0.9635
  323MOL0     O43506   4.922   2.043   1.447  0.0930 -0.4284  0.0289
  323MOL0     C43507   4.974   2.042   1.313 -0.5058  0.1894 -0.4760
  323MOL0     C43508   4.871   2.128   1.242  0.1845  0.0183  0.5073
  323MOL0     C43509   4.915   2.139   1.096  0.6300  0.1489 -0.2966
  323MOL0     C43510   4.840   2.250   1.021  1.1282  0.6387 -0.1984
  323MOL0     C43511   4.686   2.214   1.001 -0.3429  0.4307 -0.0328
  323MOL0     C43512   4.622   2.317   0.914  0.5360 -0.4596 -0.2043
  323MOL0     C43513   4.479   2.280   0.888  0.8138 -0.4422  1.0570
  323MOL0     C43514   4.415   2.361   0.768  0.2947  0.3380 -0.2351
  323MOL0    Cl43515   4.387   2.528   0.810  0.5900  0.4802  0.0355
  323MOL0     C43516   4.914   2.077   1.675 -1.0279 -0.8337 -0.2611
  323MOL0     C43517   4.977   2.141   1.782 -0.4726 -0.1404 -0.1830
  323MOL0     O43518   4.986   2.368   1.983 -0.4105  0.3053 -0.2216
  323MOL0     C43519   5.323   2.383   2.071 -0.2840  0.6992 -0.1277
  323MOL0     C43520   5.404   2.458   2.153 -0.7078 -0.0278 -0.0385
  323MOL0     N43521   6.010   2.924   2.409  0.1789  0.3446  0.7046
  323MOL0     N43522   6.135   2.945   2.433 -0.8148 -0.3064  0.0748
  323MOL0     C43523   7.449   2.738   2.630 -0.0167  0.4651  0.2657
  323MOL0     C43524   7.561   2.662   2.644  0.5062  0.0721 -0.2430
  323MOL0     C43525   7.897   2.436   2.887  0.8003 -0.5390 -0.8715
  323MOL0     C43526   7.981   2.458   2.780 -0.2251  0.6472 -0.4705
  323MOL0     C43527   8.119   2.427   2.784 -0.4993 -0.2883  0.4232
  323MOL0     C43528   8.177   2.360   2.891 -0.6712 -0.0924  0.0801
  323MOL0     O43529   8.309   2.317   2.909  0.0416  0.1175  0.1747
  323MOL0     C43530   8.401   2.349   2.801 -0.5593 -0.4751 -0.0723
  323MOL0     C43531   8.550   2.334   2.839 -0.7274  0.4358  0.1573
  323MOL0     C43532   8.645   2.327   2.712  0.5506 -0.5737  0.5543
  323MOL0     C43533   8.781   2.261   2.727 -0.8589  0.4845  0.3650
  323MOL0     C43534   8.883   2.342   2.786  0.4949  0.6036  0.0740
  323MOL0     C43535   8.962   2.420   2.832  0.4225  0.7315 -1.2462
  323MOL0     C43536   8.088   2.339   2.999 -0.1995 -0.5721 -0.2148
  323MOL0     C43537   7.952   2.374   2.996 -0.0943  0.4784  0.0110
  323MOL0     H43538   7.540   2.606   2.981 -1.2293  1.7471  0.3400
  323MOL0     H43539   7.350   2.740   2.957  0.5946  0.5245 -0.0333
  323MOL0     H43540   7.149   2.840   2.531 -2.0942  0.3201 -0.1947
  323MOL0     H43541   7.181   2.669   2.588  1.7421  0.5121  1.3741
  323MOL0     H43542   6.967   2.669   2.688 -3.7070  1.1328 -0.1882
  323MOL0     H43543   7.001   2.831   2.755  1.1413 -0.0377  0.3003
  323MOL0     H43544   6.933   2.916   2.527  4.0313 -0.7333 -1.3551
  323MOL0     H43545   6.902   2.745   2.493  0.0175 -0.6580  1.4897
  323MOL0     H43546   6.749   2.718   2.686 -1.1927 -0.9735 -2.3971
  323MOL0     H43547   6.763   2.880   2.730 -3.8528 -0.6939  0.2050
  323MOL0     H43548   6.678   2.982   2.529 -1.6213 -0.1802  0.1625
  323MOL0     H43549   6.645   2.816   2.467 -0.4140 -3.2247  1.4378
  323MOL0     H43550   6.506   2.770   2.662 -1.2751  0.0255 -1.4219
  323MOL0     H43551   6.531   2.932   2.726 -1.4343 -1.2647  1.3146
  323MOL0     H43552   6.411   3.018   2.518 -1.5328  0.6088  0.2217
  323MOL0     H43553   6.394   2.850   2.459 -0.6014 -0.0337  0.3169
  323MOL0     H43554   6.292   2.977   2.710 -0.9403  1.9854 -0.7921
  323MOL0     H43555   6.283   2.802   2.675  1.3238  0.2417 -0.8715
  323MOL0     H43556   6.025   2.864   2.728  2.5307 -0.5280  0.3498
  323MOL0     H43557   5.749   2.794   2.611 -0.8434  1.2323 -0.7495
  323MOL0     H43558   5.742   2.949   2.530 -1.4299  0.0935  1.0691
  323MOL0     H43559   5.816   2.669   2.405  0.9661  0.6917 -2.9179
  323MOL0     H43560   5.805   2.820   2.322  0.8640  0.8514  0.0962
  323MOL0     H43561   5.554   2.828   2.392 -2.2988 -1.4425 -3.6473
  323MOL0     H43562   5.592   2.680   2.499  2.4935 -0.7998  0.0907
  323MOL0     H43563   5.617   2.559   2.277 -0.8929 -0.7503 -0.3952
  323MOL0     H43564   5.528   2.708   2.207 -0.0255  3.0880  2.4755
  323MOL0     H43565   5.176   2.523   2.405  2.8424  1.3875  0.4939
  323MOL0     H43566   5.001   2.356   2.379 -0.4838  0.1755  0.3984
  323MOL0     H43567   4.944   2.490   2.282 -0.3993 -0.3053  0.1676
  323MOL0     H43568   4.932   2.321   2.220  0.9167 -0.4952 -0.5017
  323MOL0     H43569   5.233   2.314   1.652  1.0771 -1.2288  2.5698
  323MOL0     H43570   5.137   2.218   1.446 -0.1184 -2.1674 -0.8667
  323MOL0     H43571   5.079   2.074   1.308  0.5782 -2.8946  0.1814
  323MOL0     H43572   4.976   1.940   1.272 -2.9659  1.0442 -3.0299
  323MOL0     H43573   4.768   2.094   1.256  0.3500  0.0021  1.7626
  323MOL0     H43574   4.873   2.228   1.286 -1.7810  0.2457  0.1621
  323MOL0     H43575   4.912   2.043   1.043  1.1675 -0.1045  0.1270
  323MOL0     H43576   5.018   2.174   1.096  0.8528 -0.4742 -1.0810
  323MOL0     H43577   4.846   2.343   1.078  2.1498 -0.1627  1.0370
  323MOL0     H43578   4.878   2.257   0.918 -0.9317 -1.5095 -1.1867
  323MOL0     H43579   4.639   2.219   1.099 -1.1358  2.8408 -0.4717
  323MOL0     H43580   4.673   2.112   0.963  0.8337 -0.8616  2.7293
  323MOL0     H43581   4.626   2.415   0.963  0.7399 -1.9415  2.9672
  323MOL0     H43582   4.673   2.309   0.818  1.9838 -1.8678  0.6310
  323MOL0     H43583   4.425   2.304   0.980 -0.3445 -1.1555  0.5768
  323MOL0     H43584   4.458   2.174   0.869 -0.4706  0.0479 -0.4624
  323MOL0     H43585   4.317   2.319   0.745  0.3501  0.8988 -1.5797
  323MOL0     H43586   4.473   2.361   0.675 -2.0390  1.0595 -1.7709
  323MOL0     H43587   4.822   2.021   1.680 -1.5982 -0.0808 -1.8310
  323MOL0     H43588   4.938   2.113   1.879  2.7459 -1.2637  0.9300
  323MOL0     H43589   5.353   2.341   1.976 -0.5156 -1.6746  0.7798
  323MOL0     H43590   5.507   2.463   2.120 -0.6604  1.0381  0.2344
  323MOL0     H43591   7.427   2.775   2.531  0.2922  3.5751  1.2443
  323MOL0     H43592   7.610   2.648   2.548 -4.5206  0.8694 -3.3038
  323MOL0     H43593   7.942   2.522   2.702 -2.4235 -0.2211 -0.1321
  323MOL0     H43594   8.169   2.469   2.697 -2.6756  1.1524 -0.2240
  323MOL0     H43595   8.375   2.286   2.716 -3.1251 -0.3206  0.5040
  323MOL0     H43596   8.395   2.456   2.777  0.9286 -0.6805 -1.5288
  323MOL0     H43597   8.550   2.236   2.888 -3.6916 -1.0244 -2.3496
  323MOL0     H43598   8.584   2.415   2.904 -0.9296 -1.9094  3.4546
  323MOL0     H43599   8.655   2.432   2.682 -1.3089 -0.2878  0.8211
  323MOL0     H43600   8.605   2.279   2.623 -0.1687 -1.9712  1.5900
  323MOL0     H43601   8.810   2.236   2.625 -1.7868  1.8936 -0.2656
  323MOL0     H43602   8.771   2.163   2.775 -2.5658 -0.7412 -2.2273
  323MOL0     H43603   9.031   2.482   2.884  0.0110  1.0149 -1.0289
  323MOL0     H43604   8.125   2.298   3.092  1.4294 -0.2166 -0.6700
  323MOL0     H43605   7.882   2.343   3.072  0.4282  0.3630  0.4535
  324MOL0     O43606  10.714   5.411   8.104  1.2078 -0.5387  0.0139
  324MOL0     C43607  10.746   5.495   8.026  0.2234  0.5139 -0.4161
  324MOL0     O43608  10.662   5.583   7.971 -0.3048  0.2600  0.9005
  324MOL0     C43609  10.539   5.600   8.017 -0.2609  0.0038 -0.2513
  324MOL0     C43610  10.432   5.627   7.933 -0.4300  0.0786  0.5472
  324MOL0     C43611  10.322   5.689   7.982 -0.0049  1.1056 -0.7137
  324MOL0     C43612  10.298   5.713   8.118 -1.0473 -0.6981  0.1613
  324MOL0     O43613  10.187   5.780   8.155 -0.1927 -0.6227 -0.1361
  324MOL0     C43614  10.152   5.794   8.289 -0.1383  0.5428  0.1446
  324MOL0     C43615  10.001   5.847   8.294 -0.8470  0.4192 -0.2251
  324MOL0     C43616   9.898   5.744   8.247 -0.8565  0.4652 -0.4439
  324MOL0     C43617   9.755   5.790   8.254 -0.0188 -0.1229  0.5063
  324MOL0     C43618   9.651   5.698   8.196  0.1701 -0.5528 -0.0012
  324MOL0     C43619   9.512   5.767   8.217 -0.3594  0.2395 -0.6867
  324MOL0     C43620   9.411   5.679   8.157 -0.6106 -0.8902 -1.1433
  324MOL0     C43621   9.277   5.739   8.158 -0.1912  0.2331 -0.3554
  324MOL0     N43622   9.191   5.676   8.255  0.0918 -0.5424  0.2834
  324MOL0     C43623   9.137   5.553   8.253 -0.4696 -0.8450  0.9131
  324MOL0     C43624   9.099   5.522   8.379  0.2847  0.1517 -1.0796
  324MOL0     C43625   9.042   5.395   8.427 -0.3910 -0.9675  0.1511
  324MOL0     C43626   8.901   5.377   8.373 -0.1686 -0.5953  0.2653
  324MOL0     C43627   8.790   5.473   8.418 -0.2790 -0.0802  0.2988
  324MOL0     C43628   8.650   5.436   8.357  0.8231  1.1861 -0.2731
  324MOL0     O43629   8.633   5.446   8.216 -0.6562  0.4611 -0.0309
  324MOL0     C43630   8.527   5.398   8.146  0.2611  0.7161 -0.7286
  324MOL0     C43631   8.417   5.334   8.207 -0.1044  1.0589  0.1195
  324MOL0     C43632   8.311   5.289   8.125 -0.1878  0.2544 -0.0165
  324MOL0     C43633   8.194   5.216   8.194  0.1468 -0.4065 -0.3053
  324MOL0     C43634   8.312   5.312   7.985 -0.3196  0.3784  0.6876
  324MOL0     C43635   8.208   5.282   7.894  0.2792 -0.2403 -0.1710
  324MOL0     O43636   8.151   5.159   7.888 -0.2208  0.5995 -0.1002
  324MOL0     C43637   8.037   5.131   7.813 -0.4118 -0.1476 -0.3146
  324MOL0     C43638   7.958   5.216   7.733  0.3616 -0.3440  0.5993
  324MOL0     C43639   7.848   5.171   7.671 -0.3147 -0.0320 -0.2873
  324MOL0     C43640   7.802   5.034   7.677 -0.4792  0.1231  0.3560
  324MOL0     O43641   7.706   4.973   7.605  0.8240  0.3960  0.6068
  324MOL0     C43642   7.584   5.043   7.607  0.0488 -0.7557  0.4402
  324MOL0     C43643   7.456   4.953   7.612 -0.0254 -0.1888 -0.7611
  324MOL0     C43644   7.379   4.956   7.480  0.1098 -0.4422 -0.8010
  324MOL0     C43645   7.310   4.825   7.444  0.5411  0.3399  0.1538
  324MOL0     C43646   7.188   4.844   7.347  0.0470 -0.6036 -0.9028
  324MOL0     C43647   7.176   4.721   7.242 -0.3525 -0.4657 -0.7961
  324MOL0     C43648   7.038   4.742   7.167  0.3913 -0.0655  0.3559
  324MOL0     C43649   7.029   4.635   7.051  0.3019 -0.6801 -0.3090
  324MOL0    Cl43650   7.146   4.678   6.926  0.2444  0.0136  0.3453
  324MOL0     C43651   7.876   4.952   7.762  0.6937 -0.1713 -0.3625
  324MOL0     C43652   7.988   5.000   7.831  0.4695 -0.3258  0.9093
  324MOL0     O43653   8.166   5.384   7.832  0.8352  0.2644 -0.0476
  324MOL0     C43654   8.434   5.368   7.931 -0.2254 -0.4907 -0.3202
  324MOL0     C43655   8.531   5.417   8.010 -0.7288  0.0187 -0.4963
  324MOL0     N43656   9.119   5.635   8.457 -0.3656 -0.5968 -0.0586
  324MOL0     N43657   9.167   5.730   8.380 -0.0655  0.2131  0.9106
  324MOL0     C43658  10.404   5.693   8.204  0.4926  0.8851 -0.1896
  324MOL0     C43659  10.525   5.630   8.155 -0.3297  0.2988 -0.1719
  324MOL0     C43660  10.890   5.483   7.993  1.2930  0.4774 -0.9686
  324MOL0     C43661  10.934   5.574   7.899 -1.0093  0.0437  0.2366
  324MOL0     C43662  11.074   5.569   7.870 -0.6048 -0.1925 -0.2729
  324MOL0     C43663  11.171   5.487   7.922 -0.5784  0.4234 -0.0682
  324MOL0     O43664  11.301   5.496   7.880 -0.4020 -0.4987  0.3326
  324MOL0     C43665  11.382   5.379   7.912 -0.6096  0.3911  1.1661
  324MOL0     C43666  11.529   5.389   7.851  1.1897  0.6050  0.0033
  324MOL0     C43667  11.547   5.427   7.698 -0.3271 -0.1454  0.5261
  324MOL0     C43668  11.533   5.579   7.667  0.7947  0.0907  1.1403
  324MOL0     C43669  11.633   5.655   7.735  0.2308  0.6224  0.2344
  324MOL0     C43670  11.710   5.700   7.812  0.1017  0.5729  0.5706
  324MOL0     C43671  11.120   5.398   8.011 -0.9782 -0.3323  0.1374
  324MOL0     C43672  10.981   5.394   8.048 -0.1841 -0.2464 -0.3032
  324MOL0     H43673  10.451   5.627   7.826 -1.6333 -0.0664  0.3267
  324MOL0     H43674  10.249   5.704   7.904 -2.6366 -3.6561  0.3861
  324MOL0     H43675  10.164   5.699   8.342  2.5233  0.8239  0.1721
  324MOL0     H43676  10.225   5.865   8.330  0.4880 -1.2110  2.2636
  324MOL0     H43677   9.978   5.878   8.396 -0.9372  5.3660 -1.5248
  324MOL0     H43678   9.988   5.942   8.243 -1.5326  2.6987  3.8077
  324MOL0     H43679   9.911   5.705   8.146 -2.3671 -1.7051  0.1249
  324MOL0     H43680   9.907   5.657   8.312  1.5687  0.6667 -0.4179
  324MOL0     H43681   9.727   5.815   8.356 -1.9727 -2.6036  0.6973
  324MOL0     H43682   9.757   5.877   8.187 -0.2007 -2.3982 -2.6864
  324MOL0     H43683   9.667   5.682   8.089 -2.9317 -0.8967 -0.4993
  324MOL0     H43684   9.663   5.612   8.263 -0.3514  1.2457  2.5651
  324MOL0     H43685   9.482   5.791   8.320  0.3352  1.5381 -0.7635
  324MOL0     H43686   9.517   5.863   8.165  0.0247  0.9704  0.6524
  324MOL0     H43687   9.438   5.678   8.051 -2.5865 -2.9182 -1.6892
  324MOL0     H43688   9.413   5.582   8.208  3.4064  0.1627  1.2336
  324MOL0     H43689   9.241   5.726   8.055 -0.8573 -1.4938  0.0660
  324MOL0     H43690   9.277   5.845   8.185 -1.1221 -0.3980  2.5262
  324MOL0     H43691   9.171   5.479   8.181  1.2360  0.7445 -0.0122
  324MOL0     H43692   9.093   5.307   8.386 -1.2190 -2.0350  1.3408
  324MOL0     H43693   9.045   5.392   8.536  1.1377 -0.4070  0.1406
  324MOL0     H43694   8.872   5.275   8.402  0.4029 -2.2085 -4.1682
  324MOL0     H43695   8.905   5.385   8.265 -0.5324 -4.0929 -0.1364
  324MOL0     H43696   8.820   5.573   8.387  4.7619 -1.5652 -0.4439
  324MOL0     H43697   8.781   5.484   8.527 -3.1298  2.3399 -0.0651
  324MOL0     H43698   8.574   5.501   8.399  0.0363 -2.2517  4.3968
  324MOL0     H43699   8.623   5.338   8.397 -0.8194  2.4669  1.9745
  324MOL0     H43700   8.413   5.321   8.315  0.8025  0.6519  0.1196
  324MOL0     H43701   8.192   5.108   8.177 -0.1684 -1.0440  3.0795
  324MOL0     H43702   8.197   5.239   8.301 -2.1913 -1.3746  0.0337
  324MOL0     H43703   8.094   5.255   8.172  0.2245  0.0768  0.1704
  324MOL0     H43704   7.997   5.314   7.704  1.3346 -0.4646  1.4641
  324MOL0     H43705   7.804   5.241   7.600 -0.6921 -0.4153 -0.4363
  324MOL0     H43706   7.575   5.111   7.692  1.8083 -0.2564  0.2643
  324MOL0     H43707   7.592   5.107   7.519  4.0524 -0.4679  0.8314
  324MOL0     H43708   7.474   4.847   7.634 -1.5626 -0.7569 -2.0883
  324MOL0     H43709   7.400   4.985   7.700  0.2914 -2.1418  0.2111
  324MOL0     H43710   7.444   4.980   7.396  0.3986 -1.2363 -0.8039
  324MOL0     H43711   7.304   5.036   7.487 -0.3358 -0.9609  0.7052
  324MOL0     H43712   7.387   4.762   7.399  2.4800  2.0172  0.9406
  324MOL0     H43713   7.285   4.775   7.538  1.4148  1.7481  1.1832
  324MOL0     H43714   7.213   4.926   7.279 -0.0927  0.3417  0.1659
  324MOL0     H43715   7.094   4.866   7.398  0.3363 -1.2211 -0.0877
  324MOL0     H43716   7.258   4.723   7.169 -1.7351  1.9539 -2.4301
  324MOL0     H43717   7.178   4.629   7.301 -2.9110 -1.1840 -1.6884
  324MOL0     H43718   7.039   4.842   7.122  2.8045  1.1162  2.7409
  324MOL0     H43719   6.955   4.728   7.236 -3.6546 -3.7038 -4.5367
  324MOL0     H43720   6.930   4.615   7.010  0.0232 -2.1439  0.9601
  324MOL0     H43721   7.059   4.534   7.079  0.6596 -0.7160 -0.8054
  324MOL0     H43722   7.848   4.850   7.788  1.7397  0.2276  2.7192
  324MOL0     H43723   8.053   4.929   7.881  3.0500 -0.7438 -2.6099
  324MOL0     H43724   8.436   5.403   7.829 -3.4568  3.8890  0.8167
  324MOL0     H43725   8.617   5.470   7.970  0.1666  0.1683  1.5099
  324MOL0     H43726  10.400   5.743   8.300  0.1428  1.5214 -0.5342
  324MOL0     H43727  10.601   5.617   8.231  1.3978  0.8210 -1.7476
  324MOL0     H43728  10.877   5.648   7.843 -0.7653  0.0773  0.0294
  324MOL0     H43729  11.117   5.647   7.809 -4.0118  1.0575 -1.3488
  324MOL0     H43730  11.403   5.371   8.020 -0.2796  1.3347  1.1850
  324MOL0     H43731  11.340   5.285   7.877  2.1676  0.1107 -1.8615
  324MOL0     H43732  11.563   5.285   7.854 -0.2587  0.1290  0.7142
  324MOL0     H43733  11.589   5.449   7.920 -2.2155  2.6425  1.4227
  324MOL0     H43734  11.467   5.379   7.642 -1.2042  3.0518 -1.1782
  324MOL0     H43735  11.643   5.391   7.658  3.2728  4.7171  3.6331
  324MOL0     H43736  11.434   5.608   7.703 -1.1467 -3.5359 -0.6648
  324MOL0     H43737  11.533   5.600   7.559 -2.0817 -0.4485  0.9467
  324MOL0     H43738  11.780   5.750   7.876  0.0282  2.1891 -0.5456
  324MOL0     H43739  11.185   5.332   8.069  1.1447  0.6499 -0.9954
  324MOL0     H43740  10.935   5.319   8.112  0.7500 -1.0289 -0.5238
  325MOL0     O43741  11.295   1.447   6.595  0.0740  0.2834  0.0457
  325MOL0     C43742  11.333   1.436   6.482  0.3870 -0.3611 -0.1581
  325MOL0     O43743  11.447   1.496   6.425 -0.0538 -0.1081  0.0762
  325MOL0     C43744  11.520   1.575   6.517 -0.1867 -0.3427  0.8177
  325MOL0     C43745  11.605   1.520   6.620  0.5919  0.1729  0.3879
  325MOL0     C43746  11.683   1.605   6.700 -0.8361  0.5536  0.8632
  325MOL0     C43747  11.675   1.738   6.685 -0.9121 -0.2383 -0.1443
  325MOL0     O43748  11.764   1.813   6.761  0.5353  1.0329  0.4199
  325MOL0     C43749  11.740   1.950   6.797 -0.1975  0.2229  0.2052
  325MOL0     C43750  11.838   1.979   6.913  0.7108 -0.1306  0.1174
  325MOL0     C43751  11.815   1.910   7.053  0.4691  0.0530  0.2525
  325MOL0     C43752  11.665   1.887   7.071  0.8676 -0.1405 -0.5210
  325MOL0     C43753  11.641   1.819   7.208  0.3625  0.5632  0.6161
  325MOL0     C43754  11.492   1.805   7.227 -0.2737 -0.2824 -0.2289
  325MOL0     C43755  11.448   1.707   7.337  0.3533 -0.4560  0.5460
  325MOL0     C43756  11.290   1.680   7.333 -0.8751 -0.3750  0.3307
  325MOL0     N43757  11.252   1.616   7.463 -0.2632 -0.3361  0.1835
  325MOL0     C43758  11.260   1.481   7.514  0.0190 -0.6268  0.1220
  325MOL0     C43759  11.208   1.479   7.636  0.2883  0.3610 -0.4903
  325MOL0     C43760  11.194   1.362   7.728 -0.2341 -0.1368 -0.2621
  325MOL0     C43761  11.051   1.311   7.730 -0.6937  0.7119  0.4159
  325MOL0     C43762  11.053   1.164   7.787  1.1599  0.1303  0.2629
  325MOL0     C43763  11.079   1.166   7.940  0.2677  0.5153  0.0724
  325MOL0     O43764  11.045   1.042   8.009 -0.0629  0.2089 -1.1623
  325MOL0     C43765  10.917   1.021   8.030  0.4640 -0.0723  0.9795
  325MOL0     C43766  10.868   0.897   7.981  0.2640 -1.2412 -0.3896
  325MOL0     C43767  10.729   0.871   7.974 -0.3934 -0.6953 -0.8755
  325MOL0     C43768  10.700   0.736   7.923 -0.3218 -0.1837  0.2042
  325MOL0     C43769  10.640   0.969   8.025  1.0412  1.1984  0.5814
  325MOL0     C43770  10.488   0.952   8.013 -0.3344 -0.0290  1.0160
  325MOL0     O43771  10.405   1.017   8.100  0.2007 -0.5740  0.2153
  325MOL0     C43772  10.277   1.027   8.061 -0.2057 -0.4781  0.0828
  325MOL0     C43773  10.183   0.924   8.034 -0.9114 -0.2099 -0.2603
  325MOL0     C43774  10.053   0.943   7.987  0.7013 -0.1809 -0.3623
  325MOL0     C43775  10.000   1.070   7.975 -0.0897  0.0537 -0.1178
  325MOL0     O43776   9.874   1.081   7.919 -0.6935 -0.2103 -0.4297
  325MOL0     C43777   9.799   1.203   7.945  0.8914 -0.4455 -0.3360
  325MOL0     C43778   9.653   1.179   7.891 -0.9613  0.2172 -0.5052
  325MOL0     C43779   9.566   1.292   7.948  0.1543 -0.5306 -0.3904
  325MOL0     C43780   9.418   1.263   7.928  0.7938 -0.6897  0.0639
  325MOL0     C43781   9.334   1.394   7.938  0.2753 -0.5574 -0.3212
  325MOL0     C43782   9.353   1.485   7.815  0.2490  0.4549  0.3307
  325MOL0     C43783   9.248   1.600   7.814  0.1600 -0.3495 -0.0660
  325MOL0     C43784   9.199   1.662   7.692  0.9585 -0.4705 -0.0138
  325MOL0    Cl43785   9.084   1.791   7.740  0.5022  0.0673  0.3226
  325MOL0     C43786  10.090   1.177   8.001  0.1991 -0.0102  0.2533
  325MOL0     C43787  10.224   1.155   8.038  0.2151  0.2310 -0.5897
  325MOL0     O43788  10.448   0.867   7.930  0.2449  0.0784 -0.6923
  325MOL0     C43789  10.684   1.100   8.067 -0.2499  0.0073 -0.0344
  325MOL0     C43790  10.820   1.123   8.071 -0.0158  0.7547 -0.3547
  325MOL0     N43791  11.199   1.613   7.670 -0.1164 -0.1266 -0.5265
  325MOL0     N43792  11.207   1.696   7.565 -0.7362 -0.2171 -0.2757
  325MOL0     C43793  11.590   1.797   6.594  0.5292 -0.1041  0.7227
  325MOL0     C43794  11.519   1.719   6.501  0.1394  0.3681 -0.5330
  325MOL0     C43795  11.263   1.358   6.384  0.4929 -0.2538  0.0509
  325MOL0     C43796  11.274   1.395   6.250 -0.1564 -0.7128  1.6874
  325MOL0     C43797  11.192   1.331   6.155  0.2543  0.6945 -0.5109
  325MOL0     C43798  11.107   1.226   6.183 -0.0490  0.1564  0.7063
  325MOL0     O43799  11.015   1.177   6.090 -0.9749 -0.0080  0.0006
  325MOL0     C43800  11.048   1.184   5.947 -0.1218  0.2212  0.0024
  325MOL0     C43801  10.967   1.078   5.883  1.0729 -0.2623  1.2630
  325MOL0     C43802  11.010   1.048   5.731  0.1539 -0.0720 -1.1078
  325MOL0     C43803  10.897   0.963   5.662 -0.8695  0.7190 -0.2497
  325MOL0     C43804  10.777   1.043   5.623 -0.5320  0.3778 -0.0206
  325MOL0     C43805  10.685   1.102   5.571 -0.3094  0.3200 -0.6424
  325MOL0     C43806  11.095   1.188   6.316  0.3813  0.7184  0.3567
  325MOL0     C43807  11.171   1.252   6.419  0.7255 -0.2867  1.2703
  325MOL0     H43808  11.612   1.413   6.640 -1.7051 -0.2176 -0.5481
  325MOL0     H43809  11.750   1.563   6.774 -1.6673 -0.4853  1.0430
  325MOL0     H43810  11.766   2.021   6.718  3.7488 -0.7239  0.4144
  325MOL0     H43811  11.638   1.978   6.822 -0.8788  0.6042 -2.6915
  325MOL0     H43812  11.939   1.959   6.874  0.7694  1.5754 -0.7141
  325MOL0     H43813  11.851   2.087   6.929 -0.0275  0.0549 -0.4828
  325MOL0     H43814  11.863   1.811   7.057 -1.7363 -1.0938 -0.1696
  325MOL0     H43815  11.869   1.959   7.134  1.2707  1.0551 -0.8557
  325MOL0     H43816  11.604   1.975   7.052  0.5246 -0.5098 -1.1463
  325MOL0     H43817  11.632   1.818   6.993  0.9672 -0.8091  0.0122
  325MOL0     H43818  11.689   1.721   7.202 -1.1944 -0.1783 -0.2308
  325MOL0     H43819  11.685   1.874   7.291  1.5058 -0.7658  0.9253
  325MOL0     H43820  11.473   1.907   7.262  3.2344  0.2621  0.4598
  325MOL0     H43821  11.435   1.780   7.136 -0.5060  0.1249 -0.1950
  325MOL0     H43822  11.496   1.609   7.328 -2.9450 -2.3001  1.3494
  325MOL0     H43823  11.468   1.749   7.436 -4.0159  0.4221  1.2654
  325MOL0     H43824  11.260   1.611   7.254 -2.7689 -0.3791  0.9933
  325MOL0     H43825  11.235   1.774   7.331 -0.6079 -0.0976  2.8642
  325MOL0     H43826  11.312   1.396   7.470  2.7801  0.3969  1.2023
  325MOL0     H43827  11.254   1.277   7.694 -0.2019 -0.0562 -0.4059
  325MOL0     H43828  11.232   1.382   7.829  0.5686 -1.1895 -0.3350
  325MOL0     H43829  11.012   1.322   7.628  2.3911 -0.4350 -1.0312
  325MOL0     H43830  10.979   1.367   7.791 -1.6088  0.3343 -0.2888
  325MOL0     H43831  11.113   1.081   7.750 -0.8119 -1.4405  0.3809
  325MOL0     H43832  10.947   1.135   7.787  0.7422  1.5413 -0.6495
  325MOL0     H43833  11.031   1.252   7.988  1.4869 -0.7550  3.9724
  325MOL0     H43834  11.187   1.178   7.953  0.4508  1.7741 -2.1137
  325MOL0     H43835  10.942   0.836   7.929  1.4123 -1.1218  1.0384
  325MOL0     H43836  10.777   0.660   7.942  1.6998  1.4572 -0.9253
  325MOL0     H43837  10.611   0.688   7.965 -1.1389  1.5347  0.4833
  325MOL0     H43838  10.684   0.742   7.816  4.7287 -1.0565 -0.8610
  325MOL0     H43839  10.225   0.826   8.053  1.4207  1.0358  1.5272
  325MOL0     H43840   9.986   0.859   7.974 -2.1911  1.6021  1.7516
  325MOL0     H43841   9.792   1.226   8.052  0.9603  0.8466 -0.6031
  325MOL0     H43842   9.844   1.288   7.893 -0.6355  0.0346 -0.9133
  325MOL0     H43843   9.646   1.185   7.782  4.3587 -1.0745 -1.1743
  325MOL0     H43844   9.622   1.080   7.925 -1.6864 -0.5587 -3.1525
  325MOL0     H43845   9.598   1.391   7.914 -1.5616  0.6065  1.1288
  325MOL0     H43846   9.568   1.292   8.057  0.3728 -1.5368 -0.3775
  325MOL0     H43847   9.394   1.214   7.833  0.2292  4.0808 -2.5674
  325MOL0     H43848   9.387   1.191   8.005  3.6910 -0.8833  1.1488
  325MOL0     H43849   9.367   1.448   8.027  0.1111 -0.2980 -0.4189
  325MOL0     H43850   9.230   1.365   7.952 -0.3203  1.1721 -0.9258
  325MOL0     H43851   9.450   1.534   7.805 -0.9511  2.5204 -2.9215
  325MOL0     H43852   9.351   1.430   7.720 -1.3077  2.3148 -0.8050
  325MOL0     H43853   9.303   1.680   7.865  1.9824 -1.0569 -0.8063
  325MOL0     H43854   9.162   1.565   7.872 -0.2372  0.4275 -0.1791
  325MOL0     H43855   9.139   1.588   7.639 -2.4899  0.8631  1.7148
  325MOL0     H43856   9.280   1.708   7.635  2.0855  1.0836  2.6261
  325MOL0     H43857  10.063   1.282   7.997  0.3412  0.0267  0.2572
  325MOL0     H43858  10.282   1.244   8.062  0.8213  0.2028 -1.8772
  325MOL0     H43859  10.603   1.165   8.099  0.0530 -0.8787  2.7864
  325MOL0     H43860  10.856   1.220   8.102 -1.7233  1.4717 -0.5102
  325MOL0     H43861  11.576   1.904   6.580 -2.4014 -0.5308 -0.4270
  325MOL0     H43862  11.458   1.762   6.422  0.4953  0.6814 -0.6412
  325MOL0     H43863  11.343   1.474   6.222  0.5567 -1.2662  1.8643
  325MOL0     H43864  11.190   1.367   6.053  2.3356 -1.9223 -1.6032
  325MOL0     H43865  11.019   1.281   5.905  1.7642  1.4129  1.3031
  325MOL0     H43866  11.154   1.170   5.927 -0.4470  0.8411 -2.5586
  325MOL0     H43867  10.868   1.124   5.875  1.3149 -0.0712 -3.1454
  325MOL0     H43868  10.981   0.988   5.944 -0.5112 -2.9506 -2.0127
  325MOL0     H43869  11.105   0.995   5.741 -0.6834 -1.4871 -0.3621
  325MOL0     H43870  11.019   1.142   5.676 -3.0607  1.7555  1.1251
  325MOL0     H43871  10.861   0.883   5.728 -3.4230  1.7563 -0.2462
  325MOL0     H43872  10.943   0.920   5.573  2.3031  0.8450  1.2098
  325MOL0     H43873  10.615   1.154   5.508 -1.6142 -0.5877  0.0115
  325MOL0     H43874  11.024   1.108   6.336 -1.4666  0.7277 -4.6367
  325MOL0     H43875  11.170   1.218   6.522 -1.4452 -0.7633  1.1473
  326MOL0     O43876   0.954   1.389  11.122  0.1136  0.8180 -0.2639
  326MOL0     C43877   1.051   1.449  11.135  0.3540 -0.8351 -0.3327
  326MOL0     O43878   1.059   1.563  11.210 -0.3635  0.2291  0.5157
  326MOL0     C43879   0.941   1.594  11.279  0.0709 -0.2650  0.4072
  326MOL0     C43880   0.900   1.512  11.383 -0.8805 -0.3934  0.4265
  326MOL0     C43881   0.776   1.535  11.445  0.8483 -0.2407 -0.5888
  326MOL0     C43882   0.689   1.649  11.413 -0.1934 -0.7476  0.4125
  326MOL0     O43883   0.580   1.672  11.492  0.3884  0.2105 -0.1140
  326MOL0     C43884   0.496   1.779  11.480 -0.3611  0.3729 -0.5638
  326MOL0     C43885   0.358   1.734  11.512  0.1156  0.2634  0.1471
  326MOL0     C43886   0.275   1.698  11.388  1.3965 -0.3191  0.8848
  326MOL0     C43887   0.160   1.606  11.431  0.1783  0.6156  0.1145
  326MOL0     C43888   0.052   1.583  11.319 -0.1395 -0.3034 -0.8456
  326MOL0     C43889  -0.043   1.469  11.357  0.5614  0.8710  0.9754
  326MOL0     C43890  -0.130   1.423  11.227 -0.3244 -0.6352  0.1052
  326MOL0     C43891  -0.191   1.282  11.250  0.4761 -1.1687  0.3675
  326MOL0     N43892  -0.252   1.243  11.382 -0.5241 -0.1296 -0.9859
  326MOL0     C43893  -0.358   1.304  11.443 -1.1158 -0.8468 -0.3396
  326MOL0     C43894  -0.347   1.253  11.568  0.2016 -0.0937 -0.3478
  326MOL0     C43895  -0.436   1.315  11.681 -0.5582  0.2072  0.1273
  326MOL0     C43896  -0.542   1.212  11.719  0.2063 -0.1743 -0.3145
  326MOL0     C43897  -0.651   1.200  11.618 -0.2074 -0.1641  0.4890
  326MOL0     C43898  -0.780   1.126  11.658  0.0834  0.0436 -0.2946
  326MOL0     O43899  -0.877   1.206  11.722  0.2616 -0.3628  0.1028
  326MOL0     C43900  -0.983   1.152  11.785 -0.2298  0.9354 -0.0405
  326MOL0     C43901  -1.084   1.241  11.833 -0.6467  0.3641  0.5682
  326MOL0     C43902  -1.187   1.187  11.902  0.3385  0.2388 -0.4355
  326MOL0     C43903  -1.291   1.288  11.943  0.2200  0.2223  0.1814
  326MOL0     C43904  -1.200   1.044  11.935  0.4351 -0.4877  0.1961
  326MOL0     C43905  -1.319   0.983  12.003  0.9657 -0.1366 -0.2567
  326MOL0     O43906  -1.392   1.070  12.081 -0.1941 -0.2259  0.1355
  326MOL0     C43907  -1.519   1.055  12.118 -0.9298 -0.0240  0.1140
  326MOL0     C43908  -1.605   0.950  12.098  0.2565 -0.2952 -0.3104
  326MOL0     C43909  -1.736   0.974  12.123  0.7474  0.4871 -0.4391
  326MOL0     C43910  -1.788   1.105  12.147 -0.1872 -0.9026  0.0030
  326MOL0     O43911  -1.925   1.122  12.139  0.3225  0.2675 -0.2877
  326MOL0     C43912  -1.995   1.230  12.203 -0.3485 -0.2771  0.3003
  326MOL0     C43913  -2.027   1.334  12.096  0.1139 -0.5131 -0.4880
  326MOL0     C43914  -2.109   1.267  11.986  0.0095  0.5573  0.4018
  326MOL0     C43915  -2.151   1.371  11.873  0.3556 -0.3116 -0.6600
  326MOL0     C43916  -2.217   1.325  11.749 -0.5709 -0.1436  0.3379
  326MOL0     C43917  -2.209   1.417  11.625  0.6315 -0.0323  0.2424
  326MOL0     C43918  -2.299   1.353  11.517  0.6350  0.5179  0.2070
  326MOL0     C43919  -2.269   1.422  11.383  0.0361  0.8599  0.0431
  326MOL0    Cl43920  -2.109   1.362  11.314  0.2319  0.1404 -0.5816
  326MOL0     C43921  -1.698   1.201  12.187  0.1730  0.0461 -0.0132
  326MOL0     C43922  -1.565   1.169  12.184  0.2274 -0.2409 -0.3069
  326MOL0     O43923  -1.355   0.864  11.986  0.2408 -0.2075  0.5592
  326MOL0     C43924  -1.106   0.962  11.870 -0.0728  0.6722 -0.1889
  326MOL0     C43925  -1.005   1.015  11.789 -0.1610  0.4607  0.4693
  326MOL0     N43926  -0.242   1.157  11.586  0.7249  0.0171  0.0730
  326MOL0     N43927  -0.193   1.150  11.467 -0.8565 -0.0673 -0.3216
  326MOL0     C43928   0.730   1.729  11.302 -0.9008  0.0033 -0.1696
  326MOL0     C43929   0.856   1.702  11.245 -0.1975 -0.0366  0.6675
  326MOL0     C43930   1.172   1.400  11.070 -0.7855  0.0932 -0.1550
  326MOL0     C43931   1.176   1.344  10.937  0.4136  0.6381 -0.0413
  326MOL0     C43932   1.289   1.297  10.882 -0.9960 -0.2885  0.7562
  326MOL0     C43933   1.415   1.306  10.956 -0.0466  0.2682 -0.0155
  326MOL0     O43934   1.532   1.261  10.893 -0.1567 -0.8104  0.2804
  326MOL0     C43935   1.664   1.279  10.950  0.8395  0.1270  0.5781
  326MOL0     C43936   1.694   1.170  11.061 -0.5259 -0.4323  0.2552
  326MOL0     C43937   1.820   1.213  11.141  0.1353  0.0338  0.1637
  326MOL0     C43938   1.813   1.323  11.236  0.4362 -0.2284  0.3688
  326MOL0     C43939   1.948   1.337  11.299  0.9392  1.1868 -0.0185
  326MOL0     C43940   2.064   1.339  11.336  0.4895  0.4711 -0.0455
  326MOL0     C43941   1.418   1.353  11.092  0.7608  1.1179  1.0237
  326MOL0     C43942   1.296   1.403  11.139  0.1585  0.5246  0.4879
  326MOL0     H43943   0.964   1.432  11.419 -0.9002  0.7157  3.1662
  326MOL0     H43944   0.754   1.465  11.525  2.6565  0.9537  1.0128
  326MOL0     H43945   0.531   1.853  11.552 -1.7056  0.8141 -0.3340
  326MOL0     H43946   0.499   1.828  11.382  0.8858  1.7063  0.0981
  326MOL0     H43947   0.364   1.657  11.589  0.6776  0.2900  0.1334
  326MOL0     H43948   0.323   1.823  11.565  2.8108 -0.5144  3.5501
  326MOL0     H43949   0.238   1.790  11.342  0.1953  1.3850  4.8475
  326MOL0     H43950   0.329   1.638  11.315  2.1613 -2.4412  3.0576
  326MOL0     H43951   0.195   1.507  11.462 -1.0202 -0.5519 -1.9950
  326MOL0     H43952   0.108   1.654  11.514 -0.6750 -0.6954  0.3646
  326MOL0     H43953  -0.008   1.674  11.315 -0.0065  0.0269  2.0514
  326MOL0     H43954   0.096   1.557  11.223  0.6263 -1.3405 -0.2423
  326MOL0     H43955   0.013   1.382  11.393  0.0249 -0.2534 -0.8330
  326MOL0     H43956  -0.110   1.509  11.434  0.0983 -0.0014  1.0325
  326MOL0     H43957  -0.216   1.486  11.202 -0.4283 -1.4502 -1.7196
  326MOL0     H43958  -0.066   1.418  11.139 -0.4981 -0.7587 -0.0133
  326MOL0     H43959  -0.113   1.208  11.229  0.9395 -0.9274  1.1683
  326MOL0     H43960  -0.271   1.279  11.177  2.5514  0.7602 -2.1793
  326MOL0     H43961  -0.427   1.379  11.407 -0.9846 -0.3573  0.3999
  326MOL0     H43962  -0.379   1.338  11.771  1.3089  2.5359 -1.4865
  326MOL0     H43963  -0.479   1.412  11.653  0.1519  0.8779  1.2985
  326MOL0     H43964  -0.597   1.245  11.808 -1.4329 -3.3344 -0.0015
  326MOL0     H43965  -0.502   1.112  11.740 -0.7510 -0.0567  2.5399
  326MOL0     H43966  -0.610   1.152  11.529 -2.7913  1.8247 -1.9653
  326MOL0     H43967  -0.678   1.303  11.594 -0.6559 -0.4954 -0.4745
  326MOL0     H43968  -0.754   1.045  11.727  2.7560  0.0840 -1.1295
  326MOL0     H43969  -0.837   1.084  11.574  0.4088  0.8056 -0.9086
  326MOL0     H43970  -1.069   1.344  11.805  0.1844 -0.0701 -0.6546
  326MOL0     H43971  -1.296   1.295  12.052 -1.8767 -0.4005  0.1698
  326MOL0     H43972  -1.258   1.386  11.907  0.2882  0.8738  1.9167
  326MOL0     H43973  -1.388   1.270  11.897  0.9418  0.7201 -1.6139
  326MOL0     H43974  -1.586   0.851  12.058  0.8494  0.0107 -0.7998
  326MOL0     H43975  -1.807   0.892  12.121 -1.8097  2.4113  2.2995
  326MOL0     H43976  -2.086   1.183  12.242  0.3817  0.9048  3.8102
  326MOL0     H43977  -1.945   1.279  12.287 -2.3519  0.4663  1.1191
  326MOL0     H43978  -2.080   1.415  12.147 -0.8181 -1.5495  0.2313
  326MOL0     H43979  -1.946   1.386  12.045 -2.7196  2.8097 -2.0618
  326MOL0     H43980  -2.200   1.219  12.025 -1.0585  1.2515 -1.1307
  326MOL0     H43981  -2.058   1.192  11.924 -1.5105  0.2419 -0.5357
  326MOL0     H43982  -2.205   1.452  11.924  1.4436  0.0975 -0.1283
  326MOL0     H43983  -2.060   1.418  11.835 -0.9481  0.3247 -3.1844
  326MOL0     H43984  -2.319   1.291  11.766 -0.6408 -0.3857 -0.5412
  326MOL0     H43985  -2.161   1.236  11.719  1.1928  0.6013  1.2939
  326MOL0     H43986  -2.260   1.511  11.649 -1.2949 -0.6109 -1.3400
  326MOL0     H43987  -2.104   1.422  11.593  0.9576 -1.5833  0.9896
  326MOL0     H43988  -2.407   1.358  11.530  0.5634  2.0804 -0.6662
  326MOL0     H43989  -2.268   1.248  11.514 -0.7576  0.1014 -0.2383
  326MOL0     H43990  -2.265   1.529  11.405  1.0327  0.3415  2.8176
  326MOL0     H43991  -2.345   1.399  11.308 -1.2243  1.2008  1.1750
  326MOL0     H43992  -1.737   1.295  12.226 -0.3520  0.1157 -0.6779
  326MOL0     H43993  -1.496   1.247  12.212  1.8433  0.2394 -4.7813
  326MOL0     H43994  -1.116   0.854  11.877  0.5535  0.5617 -0.8735
  326MOL0     H43995  -0.928   0.949  11.750  0.3047  1.2756 -0.0174
  326MOL0     H43996   0.662   1.805  11.267  0.6099  0.8101 -1.5066
  326MOL0     H43997   0.892   1.758  11.159 -1.8143 -1.2167 -0.8367
  326MOL0     H43998   1.083   1.341  10.881 -0.3524 -1.0940  1.2249
  326MOL0     H43999   1.285   1.247  10.787 -0.3326  1.8549 -0.4704
  326MOL0     H44000   1.736   1.277  10.869  0.8188  0.6667  0.5386
  326MOL0     H44001   1.669   1.384  10.982 -1.4105  0.4380  0.1310
  326MOL0     H44002   1.725   1.080  11.007 -1.5978 -0.6734  0.0182
  326MOL0     H44003   1.612   1.153  11.131 -1.2072 -1.1479 -0.6916
  326MOL0     H44004   1.899   1.226  11.067 -1.0851 -2.9714 -1.8862
  326MOL0     H44005   1.855   1.126  11.197  0.9143  0.4049  0.2586
  326MOL0     H44006   1.738   1.303  11.314  0.5110  2.6897  1.3106
  326MOL0     H44007   1.788   1.418  11.188  0.2911 -1.1497 -1.4661
  326MOL0     H44008   2.168   1.333  11.360  0.1705  0.4803  1.4229
  326MOL0     H44009   1.514   1.360  11.142  1.4506 -0.7565  0.0578
  326MOL0     H44010   1.291   1.423  11.246 -1.9205 -1.5634  0.8473
  327MOL0     O44011   2.271   5.026   0.273 -0.5711  0.5369  0.6173
  327MOL0     C44012   2.285   4.925   0.213 -0.4935 -0.4024  0.3759
  327MOL0     O44013   2.361   4.819   0.241 -0.1772 -0.6571  0.8063
  327MOL0     C44014   2.441   4.838   0.348  0.6262 -0.4862  0.0997
  327MOL0     C44015   2.573   4.850   0.322  0.5180  0.5077 -0.1075
  327MOL0     C44016   2.667   4.889   0.418 -0.2834 -0.7738  0.0180
  327MOL0     C44017   2.623   4.909   0.552 -0.0115  0.5136  0.5042
  327MOL0     O44018   2.704   4.949   0.653 -0.2368 -0.1324  0.2147
  327MOL0     C44019   2.848   4.951   0.641  0.0111  0.0626  1.0854
  327MOL0     C44020   2.915   5.050   0.736 -0.2248 -0.4115 -0.6744
  327MOL0     C44021   2.863   5.022   0.875  0.0016  0.2405 -0.0348
  327MOL0     C44022   2.968   4.936   0.954 -0.3062 -0.6142  0.0843
  327MOL0     C44023   2.922   4.893   1.093 -0.3670  0.0545 -0.4197
  327MOL0     C44024   3.027   4.826   1.183 -0.5817 -0.0546 -0.0664
  327MOL0     C44025   3.087   4.694   1.119  0.2961 -0.4427  0.2068
  327MOL0     C44026   2.990   4.567   1.135  0.0219 -0.5506 -0.4750
  327MOL0     N44027   2.889   4.552   1.031 -0.6541 -0.7578  0.0150
  327MOL0     C44028   2.920   4.572   0.899  0.6110  0.2254 -0.0871
  327MOL0     C44029   2.800   4.536   0.840  0.2571 -0.0258 -0.1669
  327MOL0     C44030   2.780   4.530   0.691 -0.8987  0.3886 -0.4618
  327MOL0     C44031   2.631   4.516   0.647 -0.3225 -0.3671  0.5819
  327MOL0     C44032   2.605   4.509   0.508  0.3500 -0.3245 -0.1551
  327MOL0     C44033   2.459   4.494   0.479 -0.1791  0.1545 -0.3603
  327MOL0     O44034   2.450   4.464   0.336  0.9710  0.1701  0.2040
  327MOL0     C44035   2.328   4.460   0.267 -0.5118  0.0186 -0.1203
  327MOL0     C44036   2.327   4.398   0.134  0.1999 -0.3868  0.3125
  327MOL0     C44037   2.207   4.397   0.061 -0.4309 -0.5896  0.7704
  327MOL0     C44038   2.195   4.323  -0.078  0.0018 -0.3357 -1.3697
  327MOL0     C44039   2.093   4.465   0.119 -0.5883  0.1648  0.2150
  327MOL0     C44040   1.958   4.440   0.066  0.0637  0.1283  0.3133
  327MOL0     O44041   1.913   4.313   0.083 -0.3197  0.4521  0.3042
  327MOL0     C44042   1.789   4.285   0.038 -0.4049 -0.6383 -0.6949
  327MOL0     C44043   1.714   4.208   0.128  0.2032  0.4046  0.3818
  327MOL0     C44044   1.584   4.167   0.084 -0.5733  0.0118 -0.5752
  327MOL0     C44045   1.534   4.212  -0.041  0.4025  0.8288  0.1186
  327MOL0     O44046   1.411   4.168  -0.081  0.1885  0.2863  0.4312
  327MOL0     C44047   1.428   4.065  -0.182 -0.2034 -0.0260  0.1794
  327MOL0     C44048   1.445   3.930  -0.116  0.1380 -0.0597 -0.8637
  327MOL0     C44049   1.317   3.863  -0.064 -0.7942  0.4226  0.4977
  327MOL0     C44050   1.264   3.779  -0.181  0.0885  0.1815  0.3449
  327MOL0     C44051   1.116   3.748  -0.183 -0.4275  0.0236  0.8207
  327MOL0     C44052   1.074   3.659  -0.071  0.8685 -1.1950 -0.6125
  327MOL0     C44053   0.921   3.634  -0.071 -0.6889 -0.4122  0.4763
  327MOL0     C44054   0.841   3.762  -0.040 -1.4660 -0.3759 -0.1545
  327MOL0    Cl44055   0.890   3.814   0.133  0.1461 -0.0793  0.3514
  327MOL0     C44056   1.617   4.288  -0.129 -0.3865  0.6361  0.2247
  327MOL0     C44057   1.750   4.313  -0.094 -0.2863 -0.2865 -0.6847
  327MOL0     O44058   1.898   4.528   0.012  1.2362 -1.0637  0.4141
  327MOL0     C44059   2.106   4.532   0.240 -0.2635  0.0120  0.2009
  327MOL0     C44060   2.218   4.522   0.316  0.0508 -0.4531 -1.2433
  327MOL0     N44061   2.706   4.509   0.933  0.4440 -0.3181  0.3859
  327MOL0     N44062   2.764   4.506   1.050  0.0150 -0.0660  0.3471
  327MOL0     C44063   2.487   4.888   0.590 -0.0914 -0.0553 -0.3216
  327MOL0     C44064   2.396   4.847   0.487 -0.0500 -0.9613  0.8713
  327MOL0     C44065   2.182   4.899   0.111 -0.8489 -0.3372 -0.2716
  327MOL0     C44066   2.072   4.994   0.092 -0.5398 -0.7685  0.0660
  327MOL0     C44067   1.985   4.989  -0.018  0.3690 -1.0909  0.3915
  327MOL0     C44068   2.000   4.890  -0.119 -0.7531 -0.6267  0.3922
  327MOL0     O44069   1.917   4.890  -0.231  0.5153  0.1538 -0.1755
  327MOL0     C44070   1.928   4.800  -0.348  0.1170  0.3271  0.2000
  327MOL0     C44071   1.815   4.705  -0.322  0.2630  0.1437 -0.0220
  327MOL0     C44072   1.785   4.610  -0.433 -0.2789  0.6092 -0.2548
  327MOL0     C44073   1.892   4.515  -0.489  0.2524  0.1088 -0.2616
  327MOL0     C44074   1.985   4.593  -0.578 -0.4279 -0.6599 -0.0723
  327MOL0     C44075   2.068   4.641  -0.651 -0.3963 -0.7806  0.0737
  327MOL0     C44076   2.107   4.796  -0.094  0.8130  0.5152 -0.1384
  327MOL0     C44077   2.190   4.797   0.016 -0.4755 -0.5364 -0.2858
  327MOL0     H44078   2.590   4.845   0.214 -2.9364 -0.7543 -0.7422
  327MOL0     H44079   2.769   4.902   0.383 -0.7668  2.9549 -0.4716
  327MOL0     H44080   2.890   4.852   0.659  0.2544 -0.5404 -2.1876
  327MOL0     H44081   2.878   4.977   0.538 -1.0122  1.7221  1.1711
  327MOL0     H44082   3.022   5.033   0.721  0.8731  3.3118  1.7564
  327MOL0     H44083   2.894   5.149   0.696 -0.3395  0.1990  0.8075
  327MOL0     H44084   2.852   5.117   0.928 -0.1016  0.1323  0.1353
  327MOL0     H44085   2.773   4.961   0.888 -1.3308  2.0969 -0.0283
  327MOL0     H44086   2.992   4.843   0.902 -0.5990 -0.8645  0.3919
  327MOL0     H44087   3.064   4.987   0.963 -1.0122  1.2146 -1.7643
  327MOL0     H44088   2.893   4.985   1.145 -2.4891 -0.4839 -0.5388
  327MOL0     H44089   2.828   4.837   1.085 -0.6306 -0.1462  2.7964
  327MOL0     H44090   3.100   4.903   1.211 -2.8678  1.3425  2.5723
  327MOL0     H44091   2.984   4.805   1.281  3.7897  1.2149  2.3760
  327MOL0     H44092   3.129   4.707   1.019 -0.8679  4.3077  0.0846
  327MOL0     H44093   3.170   4.667   1.185  1.0780  1.0076 -0.1365
  327MOL0     H44094   2.939   4.579   1.231 -0.9058 -3.2558 -0.5571
  327MOL0     H44095   3.048   4.475   1.145 -1.0885 -1.4851 -2.0656
  327MOL0     H44096   3.017   4.603   0.861  1.1376 -0.7403  0.4267
  327MOL0     H44097   2.833   4.615   0.648  0.9042  0.1151  1.0689
  327MOL0     H44098   2.838   4.442   0.660 -1.0171 -0.2878  1.1340
  327MOL0     H44099   2.570   4.593   0.696 -0.9656 -0.1090 -0.6017
  327MOL0     H44100   2.584   4.423   0.681 -1.1056 -1.0805 -2.2104
  327MOL0     H44101   2.661   4.420   0.479 -1.1611 -1.4645  0.3334
  327MOL0     H44102   2.638   4.601   0.458 -0.0835 -1.0703 -1.9178
  327MOL0     H44103   2.401   4.579   0.518 -0.8218 -0.8048  0.8447
  327MOL0     H44104   2.419   4.410   0.536  1.2272 -0.5228 -0.3317
  327MOL0     H44105   2.416   4.353   0.091  0.5395  1.0763 -0.5748
  327MOL0     H44106   2.125   4.239  -0.083  0.1074 -0.5519  0.2146
  327MOL0     H44107   2.146   4.394  -0.146 -2.1229  0.4860  0.8761
  327MOL0     H44108   2.289   4.280  -0.113 -0.0740 -1.2470 -0.4855
  327MOL0     H44109   1.754   4.173   0.223  2.9366 -0.1602 -0.8832
  327MOL0     H44110   1.526   4.093   0.138  0.3518 -1.5602 -1.6437
  327MOL0     H44111   1.340   4.072  -0.247  1.1684  1.8504 -1.5752
  327MOL0     H44112   1.511   4.086  -0.249  1.0525 -0.5904  1.4988
  327MOL0     H44113   1.511   3.866  -0.175  1.3148 -2.7898  2.9719
  327MOL0     H44114   1.515   3.930  -0.032  0.9617 -2.7845 -1.4282
  327MOL0     H44115   1.248   3.944  -0.038 -1.3117 -0.2609  1.2778
  327MOL0     H44116   1.342   3.798   0.020  0.5803 -0.6582 -0.6843
  327MOL0     H44117   1.272   3.839  -0.272  1.8561  0.0621  0.3874
  327MOL0     H44118   1.318   3.685  -0.198 -0.2711  0.0948 -0.3627
  327MOL0     H44119   1.103   3.704  -0.282  2.7355  0.1749  0.2495
  327MOL0     H44120   1.063   3.844  -0.183  0.4410  0.7397 -4.0797
  327MOL0     H44121   1.137   3.570  -0.071  1.8913 -0.5316  1.3645
  327MOL0     H44122   1.090   3.717   0.021 -1.2599  0.6150 -1.2845
  327MOL0     H44123   0.894   3.543  -0.017  0.2745 -2.5843 -2.4606
  327MOL0     H44124   0.887   3.599  -0.169 -1.6391  0.9840  0.2808
  327MOL0     H44125   0.737   3.732  -0.054 -0.4928 -2.7750 -3.4326
  327MOL0     H44126   0.868   3.840  -0.112  0.6572 -0.9685 -0.0737
  327MOL0     H44127   1.584   4.317  -0.228  3.5552 -0.0254 -1.4469
  327MOL0     H44128   1.798   4.364  -0.176  0.0668  1.5076  0.5747
  327MOL0     H44129   2.024   4.591   0.280 -0.7789 -0.6049  0.0676
  327MOL0     H44130   2.218   4.568   0.414  3.0793 -2.7962  0.0352
  327MOL0     H44131   2.453   4.886   0.693  1.7511  3.7556  0.5208
  327MOL0     H44132   2.292   4.826   0.511  0.0548  1.3816  4.0915
  327MOL0     H44133   2.050   5.085   0.147  0.4625 -0.4455 -0.0555
  327MOL0     H44134   1.916   5.069  -0.040  2.0368  0.4915  0.7383
  327MOL0     H44135   1.920   4.854  -0.443 -0.9657 -0.4557 -0.1677
  327MOL0     H44136   2.027   4.753  -0.348  0.6696  1.2637 -2.4002
  327MOL0     H44137   1.730   4.774  -0.309  0.0221  0.2509 -1.8622
  327MOL0     H44138   1.832   4.644  -0.233  1.2433  2.4522  1.4671
  327MOL0     H44139   1.739   4.668  -0.513  0.4180 -1.8923 -2.6368
  327MOL0     H44140   1.696   4.554  -0.403 -0.0917  0.0622 -0.6958
  327MOL0     H44141   1.839   4.436  -0.543 -2.0597  2.3497 -1.4361
  327MOL0     H44142   1.949   4.465  -0.410 -0.0345 -2.3382 -1.5011
  327MOL0     H44143   2.149   4.686  -0.705  2.4167 -1.5803  3.2992
  327MOL0     H44144   2.135   4.723  -0.169  2.6477 -0.1705  1.1437
  327MOL0     H44145   2.263   4.722   0.044 -1.2209 -0.9672  0.5577
  328MOL0     O44146   8.932   3.802   4.501  0.8080  0.2317 -0.0796
  328MOL0     C44147   8.963   3.687   4.474  0.5784 -0.1982  0.1541
  328MOL0     O44148   8.875   3.582   4.449 -0.6894 -0.6533 -0.4290
  328MOL0     C44149   8.741   3.592   4.483 -0.1367 -0.1238  0.6523
  328MOL0     C44150   8.682   3.501   4.571 -0.5597 -0.0690 -0.2154
  328MOL0     C44151   8.545   3.500   4.595  0.0473  0.3905  0.0631
  328MOL0     C44152   8.464   3.575   4.513 -0.0202 -0.8628 -0.6134
  328MOL0     O44153   8.332   3.566   4.532  0.3985  0.0569  0.1503
  328MOL0     C44154   8.242   3.675   4.488 -0.4226 -0.0915  0.7734
  328MOL0     C44155   8.107   3.651   4.547 -0.4596  0.8563 -0.1176
  328MOL0     C44156   7.997   3.725   4.478 -0.5771  0.0159 -0.1026
  328MOL0     C44157   7.862   3.711   4.549  0.1193  0.3270  0.7828
  328MOL0     C44158   7.758   3.820   4.516  0.7082 -0.1509  0.1470
  328MOL0     C44159   7.641   3.808   4.619  0.2028  0.0153 -0.2272
  328MOL0     C44160   7.545   3.938   4.622 -0.5090 -0.0584 -0.5597
  328MOL0     C44161   7.414   3.923   4.707 -0.1492 -0.5832 -0.0148
  328MOL0     N44162   7.325   3.813   4.676 -0.4849  0.5194 -0.0000
  328MOL0     C44163   7.319   3.693   4.735  1.0610 -0.9934 -1.5059
  328MOL0     C44164   7.224   3.618   4.667 -0.5636 -0.3146  0.8141
  328MOL0     C44165   7.164   3.482   4.690 -0.3359 -0.2683 -0.4846
  328MOL0     C44166   7.204   3.416   4.820  0.5756 -0.3754 -0.2830
  328MOL0     C44167   7.147   3.274   4.817 -0.7445 -0.0107  0.7997
  328MOL0     C44168   7.005   3.254   4.773 -0.6590  1.0221 -0.3719
  328MOL0     O44169   6.962   3.128   4.795  0.3784  0.4648  0.2697
  328MOL0     C44170   6.838   3.090   4.755  0.6474 -0.6417 -0.9649
  328MOL0     C44171   6.743   3.063   4.856 -0.1201  0.0341  0.1985
  328MOL0     C44172   6.617   3.029   4.823  0.8731 -0.1452  0.7236
  328MOL0     C44173   6.529   2.976   4.932 -0.5785 -0.5034  0.1588
  328MOL0     C44174   6.581   3.025   4.686 -0.4581 -0.5981  0.1954
  328MOL0     C44175   6.452   2.992   4.629 -0.2414 -0.5916 -0.0183
  328MOL0     O44176   6.366   2.909   4.697  0.1874  0.0874  0.5612
  328MOL0     C44177   6.233   2.910   4.656  0.0980  0.7760 -1.0557
  328MOL0     C44178   6.151   3.015   4.692 -0.8890 -0.1845  0.0492
  328MOL0     C44179   6.012   3.003   4.656  0.2004 -0.2936 -0.7000
  328MOL0     C44180   5.962   2.886   4.596  0.2643 -0.6884 -0.1392
  328MOL0     O44181   5.834   2.860   4.553  0.7019 -0.2648 -0.5148
  328MOL0     C44182   5.734   2.969   4.560 -1.0110 -0.3120 -0.2681
  328MOL0     C44183   5.611   2.949   4.470 -0.1472  0.2045  0.0522
  328MOL0     C44184   5.542   2.818   4.511  0.5290 -0.2146 -0.4429
  328MOL0     C44185   5.417   2.802   4.415 -0.1552  0.2406 -0.2032
  328MOL0     C44186   5.321   2.688   4.465  0.6311 -0.2473 -0.8940
  328MOL0     C44187   5.184   2.678   4.390 -0.4438  1.0955 -0.2050
  328MOL0     C44188   5.102   2.557   4.434  0.7321 -0.4525 -0.4386
  328MOL0     C44189   4.953   2.577   4.407 -1.0396 -0.1063  0.7891
  328MOL0    Cl44190   4.848   2.434   4.432  0.1595 -0.1641  0.2085
  328MOL0     C44191   6.047   2.774   4.576  0.1510  0.4387 -0.6786
  328MOL0     C44192   6.182   2.795   4.599  0.8008  0.2970  0.5362
  328MOL0     O44193   6.416   3.060   4.534 -0.2061  0.4083 -0.2555
  328MOL0     C44194   6.672   3.045   4.585  0.3656  0.6100 -0.0325
  328MOL0     C44195   6.804   3.084   4.619 -1.0547  0.5550 -0.6271
  328MOL0     N44196   7.191   3.692   4.561  0.8109  0.5973 -0.8869
  328MOL0     N44197   7.253   3.806   4.564  0.5203 -0.6820  0.5071
  328MOL0     C44198   8.523   3.658   4.423  0.0905  0.2324  0.4512
  328MOL0     C44199   8.659   3.681   4.415 -0.6954 -0.6403 -0.3923
  328MOL0     C44200   9.111   3.674   4.465 -0.9872  0.5415  0.7394
  328MOL0     C44201   9.204   3.777   4.490 -0.1928 -1.3089  0.1595
  328MOL0     C44202   9.338   3.769   4.455  0.2909 -0.2767 -0.0181
  328MOL0     C44203   9.393   3.662   4.401  0.6394 -0.6821 -0.1449
  328MOL0     O44204   9.526   3.654   4.368 -0.5315  0.9587 -0.6170
  328MOL0     C44205   9.609   3.604   4.474 -1.0018  0.3462 -0.2260
  328MOL0     C44206   9.701   3.495   4.419 -0.5996 -0.8399 -0.0346
  328MOL0     C44207   9.814   3.560   4.332 -0.8226  0.2445 -0.3958
  328MOL0     C44208   9.899   3.439   4.266 -0.8601  0.7015 -0.3847
  328MOL0     C44209   9.976   3.367   4.372  0.6157 -0.4876  0.1260
  328MOL0     C44210  10.033   3.310   4.461  0.5643  0.1530  0.1437
  328MOL0     C44211   9.308   3.552   4.383  0.7874  0.0062 -0.3241
  328MOL0     C44212   9.167   3.554   4.414 -0.0490 -0.6876 -0.6145
  328MOL0     H44213   8.746   3.432   4.625  0.0578  0.9229  0.3332
  328MOL0     H44214   8.499   3.423   4.656 -1.0650  2.4857  2.0361
  328MOL0     H44215   8.293   3.767   4.522 -0.2496 -0.7311  2.3506
  328MOL0     H44216   8.236   3.676   4.379  1.2723  1.1017  0.6375
  328MOL0     H44217   8.073   3.547   4.548 -1.4718  1.0525  3.7772
  328MOL0     H44218   8.110   3.677   4.654 -0.5060 -0.6975  0.2883
  328MOL0     H44219   8.021   3.831   4.464 -1.8542  0.4166  0.5542
  328MOL0     H44220   7.984   3.692   4.375 -2.8346  3.8009 -1.2405
  328MOL0     H44221   7.816   3.612   4.537 -3.8744  1.9991  0.8194
  328MOL0     H44222   7.886   3.722   4.655  0.4143  0.2623  0.7246
  328MOL0     H44223   7.803   3.920   4.521  0.1447  0.0575  1.6632
  328MOL0     H44224   7.723   3.808   4.413  0.3836  1.1280  0.0904
  328MOL0     H44225   7.591   3.712   4.603  0.3234 -0.0792 -0.0362
  328MOL0     H44226   7.680   3.789   4.719  1.2785  0.0589 -0.6205
  328MOL0     H44227   7.588   4.031   4.660 -1.7915  0.0719  0.6692
  328MOL0     H44228   7.515   3.950   4.517 -0.2467 -0.8873 -0.7400
  328MOL0     H44229   7.355   4.014   4.694  1.0123 -0.0502 -2.1119
  328MOL0     H44230   7.444   3.912   4.811 -1.7729 -0.7966  0.4459
  328MOL0     H44231   7.366   3.661   4.828 -0.8234  0.3473 -0.0064
  328MOL0     H44232   7.058   3.499   4.673 -0.1484  0.5520 -0.8944
  328MOL0     H44233   7.190   3.419   4.605  1.6588 -0.7061  0.3792
  328MOL0     H44234   7.155   3.466   4.905  4.4757  1.7533  0.9871
  328MOL0     H44235   7.311   3.394   4.823  0.7484  0.4493 -0.1081
  328MOL0     H44236   7.154   3.226   4.915 -1.3625  0.4093  1.0560
  328MOL0     H44237   7.210   3.221   4.745  0.6872 -1.2448  2.8369
  328MOL0     H44238   6.986   3.275   4.668 -0.9741 -0.0168 -0.5371
  328MOL0     H44239   6.949   3.333   4.824 -2.6765 -1.2619  1.2394
  328MOL0     H44240   6.777   3.067   4.959 -0.0714 -2.3704  0.3294
  328MOL0     H44241   6.479   2.879   4.916  0.4521 -0.8533 -1.0538
  328MOL0     H44242   6.586   2.965   5.024 -1.0465  1.2549  0.6878
  328MOL0     H44243   6.458   3.057   4.953  0.6180  0.3519  0.9989
  328MOL0     H44244   6.193   3.095   4.752  0.5298 -3.2101  3.4599
  328MOL0     H44245   5.935   3.077   4.674  1.1627  1.5588 -3.5171
  328MOL0     H44246   5.699   2.961   4.663  0.4401  0.0046  0.2776
  328MOL0     H44247   5.779   3.065   4.534 -3.3464  1.0493  0.4248
  328MOL0     H44248   5.549   3.038   4.483 -2.7513 -1.1126 -2.2031
  328MOL0     H44249   5.639   2.946   4.364  3.1577 -1.1011  0.8528
  328MOL0     H44250   5.504   2.830   4.613  0.0108  1.9464 -0.8300
  328MOL0     H44251   5.612   2.736   4.497  0.1662 -0.5209 -0.4869
  328MOL0     H44252   5.367   2.899   4.403  0.5973  0.6042 -0.4695
  328MOL0     H44253   5.447   2.772   4.314 -0.4140  0.4156 -0.3347
  328MOL0     H44254   5.301   2.710   4.570 -0.4072  2.2325 -1.5241
  328MOL0     H44255   5.366   2.589   4.463  3.3722  0.9169 -1.6154
  328MOL0     H44256   5.118   2.765   4.392 -1.7806  0.1023  0.0176
  328MOL0     H44257   5.210   2.670   4.284 -0.8403 -0.3612 -0.2149
  328MOL0     H44258   5.110   2.518   4.535 -0.1511  1.0168  0.2292
  328MOL0     H44259   5.128   2.476   4.365  1.4206  1.2662 -2.2862
  328MOL0     H44260   4.934   2.610   4.305  1.7740 -0.3508  0.1161
  328MOL0     H44261   4.921   2.646   4.486 -3.1083  3.6088 -2.9249
  328MOL0     H44262   6.004   2.681   4.541 -0.3507 -0.5634  2.3474
  328MOL0     H44263   6.252   2.718   4.569 -0.1816 -0.7406  0.8670
  328MOL0     H44264   6.644   3.039   4.480 -2.6343  2.7081  0.5350
  328MOL0     H44265   6.879   3.110   4.545  0.8060 -0.5748  0.7564
  328MOL0     H44266   8.455   3.710   4.356 -1.6024  0.8052  2.4991
  328MOL0     H44267   8.703   3.741   4.335  1.2336 -0.8619  0.4371
  328MOL0     H44268   9.167   3.861   4.549 -1.1628 -0.8641 -1.0323
  328MOL0     H44269   9.399   3.859   4.451  0.1643 -0.2427 -2.6048
  328MOL0     H44270   9.675   3.686   4.503  1.7430 -1.0705 -2.0492
  328MOL0     H44271   9.546   3.579   4.561 -1.4465 -1.1905 -0.9536
  328MOL0     H44272   9.641   3.426   4.359 -3.6472  2.5261 -1.2337
  328MOL0     H44273   9.742   3.444   4.506 -0.7521 -0.5831  0.1899
  328MOL0     H44274   9.874   3.625   4.397  0.3847 -1.3738  0.1800
  328MOL0     H44275   9.768   3.627   4.259 -1.0448  1.2841  0.6690
  328MOL0     H44276   9.970   3.467   4.188  0.4041  3.0491  1.4861
  328MOL0     H44277   9.827   3.365   4.228 -2.8055  3.3471 -2.1634
  328MOL0     H44278  10.087   3.268   4.544  1.6491 -0.2240 -0.7388
  328MOL0     H44279   9.334   3.453   4.346 -1.5517  0.0612 -2.3374
  328MOL0     H44280   9.102   3.468   4.402 -1.9097  0.5082  0.3032
  329MOL0     O44281  10.000   0.628   5.211  0.7783  0.4477  0.1089
  329MOL0     C44282   9.947   0.676   5.110  0.4486 -0.0412 -0.3952
  329MOL0     O44283   9.995   0.783   5.038  0.0593 -0.0016 -0.3530
  329MOL0     C44284  10.106   0.848   5.091  0.6032  0.0751 -0.2672
  329MOL0     C44285  10.231   0.801   5.110 -0.4749  0.6110 -0.8998
  329MOL0     C44286  10.329   0.886   5.161 -0.1964 -0.5379  0.0767
  329MOL0     C44287  10.306   1.014   5.188  0.4111  0.6562  1.4310
  329MOL0     O44288  10.412   1.089   5.225  0.1161  0.3429  0.3266
  329MOL0     C44289  10.398   1.230   5.199  0.8600  0.4124  0.1148
  329MOL0     C44290  10.538   1.282   5.222  0.8003  0.1150 -0.0926
  329MOL0     C44291  10.553   1.433   5.176  0.1795  0.6071  0.0717
  329MOL0     C44292  10.457   1.529   5.237 -0.2501 -0.1570  0.3023
  329MOL0     C44293  10.484   1.682   5.222 -0.2985  0.9503 -0.4493
  329MOL0     C44294  10.380   1.767   5.297 -0.1205  0.7292  0.5577
  329MOL0     C44295  10.419   1.911   5.277 -0.4479  0.9570  0.2277
  329MOL0     C44296  10.322   2.005   5.341  0.6090  0.1841 -0.1728
  329MOL0     N44297  10.202   2.005   5.273 -0.5591  0.4117  0.1671
  329MOL0     C44298  10.089   1.966   5.333 -0.3759 -0.0762  0.9394
  329MOL0     C44299   9.988   2.019   5.251 -0.5906 -0.2059  0.4424
  329MOL0     C44300   9.854   2.044   5.302 -0.3649 -1.0484  0.3767
  329MOL0     C44301   9.758   1.935   5.252  0.0116  0.9571 -0.1382
  329MOL0     C44302   9.776   1.799   5.309 -0.1884  0.0979 -0.1509
  329MOL0     C44303   9.646   1.713   5.287  0.4292 -0.3053  0.1342
  329MOL0     O44304   9.624   1.709   5.140 -0.6243  0.0334  0.4841
  329MOL0     C44305   9.535   1.615   5.094  0.6797 -0.2842  0.3088
  329MOL0     C44306   9.443   1.547   5.175  0.8235  0.3235 -0.9320
  329MOL0     C44307   9.340   1.464   5.126 -0.1554  0.2930 -1.0222
  329MOL0     C44308   9.224   1.417   5.213  0.4693 -0.3786  0.6445
  329MOL0     C44309   9.348   1.433   4.985 -0.7766  0.2236 -0.8610
  329MOL0     C44310   9.248   1.344   4.921 -0.2646 -0.6275  0.7649
  329MOL0     O44311   9.206   1.375   4.792  0.2891 -0.0526  0.8379
  329MOL0     C44312   9.143   1.281   4.709  0.3274  0.6062  0.6852
  329MOL0     C44313   9.049   1.176   4.743 -0.7424  0.8819 -1.0726
  329MOL0     C44314   8.999   1.093   4.640 -0.0303 -0.0304 -0.5148
  329MOL0     C44315   9.043   1.109   4.502  0.8410  0.4747 -0.0413
  329MOL0     O44316   9.014   1.033   4.388  0.4651 -0.0524 -0.1452
  329MOL0     C44317   8.950   0.908   4.406 -0.1746 -0.3637  0.2426
  329MOL0     C44318   8.951   0.833   4.278  0.0571  0.0371  0.5279
  329MOL0     C44319   9.093   0.766   4.254 -0.9440  0.0762  0.3503
  329MOL0     C44320   9.093   0.655   4.152  1.0160  0.3886 -0.4939
  329MOL0     C44321   9.212   0.570   4.112 -1.2562  0.4505 -0.7534
  329MOL0     C44322   9.347   0.641   4.086  0.0433  0.1298 -0.1844
  329MOL0     C44323   9.368   0.718   3.955  0.9848 -0.2937 -0.6618
  329MOL0     C44324   9.341   0.867   3.964  0.5559 -0.2637 -0.6312
  329MOL0    Cl44325   9.341   0.944   3.798 -0.6379 -0.1399 -0.5065
  329MOL0     C44326   9.130   1.211   4.479 -0.6939  0.2406  0.6405
  329MOL0     C44327   9.191   1.295   4.577  0.4244  0.1067  0.6474
  329MOL0     O44328   9.220   1.237   4.984 -0.4193  0.3190 -0.1367
  329MOL0     C44329   9.446   1.496   4.906 -0.5341 -0.3673 -0.2371
  329MOL0     C44330   9.534   1.583   4.956 -0.0018  0.6828 -0.4815
  329MOL0     N44331  10.045   2.057   5.132 -0.2909 -0.7411  0.3476
  329MOL0     N44332  10.175   2.055   5.150 -0.0542 -0.0213 -1.1653
  329MOL0     C44333  10.174   1.067   5.190 -0.1262 -0.0505 -0.3129
  329MOL0     C44334  10.078   0.989   5.129  0.4444  0.0146 -0.3894
  329MOL0     C44335   9.823   0.607   5.059 -0.3693 -0.8284  0.0096
  329MOL0     C44336   9.763   0.622   4.932 -0.6158 -0.2727 -0.4558
  329MOL0     C44337   9.650   0.556   4.892 -0.3504 -0.3415 -0.2591
  329MOL0     C44338   9.584   0.468   4.985 -0.4319 -0.8000  0.4309
  329MOL0     O44339   9.478   0.385   4.961  0.6844 -0.4196 -0.8694
  329MOL0     C44340   9.377   0.425   4.870 -0.5512 -0.4742 -0.1507
  329MOL0     C44341   9.410   0.348   4.734 -0.7766 -0.3568  0.3049
  329MOL0     C44342   9.316   0.401   4.618  0.1258 -0.0428 -0.5410
  329MOL0     C44343   9.343   0.343   4.478  0.4852 -0.2537 -0.2042
  329MOL0     C44344   9.327   0.198   4.480 -0.3271  0.2831  0.0032
  329MOL0     C44345   9.301   0.078   4.475 -0.1342  0.6667  0.0476
  329MOL0     C44346   9.639   0.448   5.114 -1.1662 -0.2202 -0.6449
  329MOL0     C44347   9.759   0.515   5.149  0.2961 -0.5064 -0.3718
  329MOL0     H44348  10.271   0.705   5.080  0.7961 -0.6280  3.9208
  329MOL0     H44349  10.436   0.865   5.160  0.3193  1.4398  2.6123
  329MOL0     H44350  10.361   1.248   5.097 -0.2519 -0.8218  0.2700
  329MOL0     H44351  10.327   1.286   5.262  0.1686 -1.2906  0.9093
  329MOL0     H44352  10.575   1.281   5.325  2.7713  1.3999 -0.7353
  329MOL0     H44353  10.609   1.212   5.176  1.0423  1.2404 -1.5018
  329MOL0     H44354  10.656   1.459   5.201  0.0979 -0.2998  1.4988
  329MOL0     H44355  10.544   1.444   5.067 -0.4679 -4.1756 -0.5903
  329MOL0     H44356  10.358   1.502   5.200  0.8238 -1.2449 -1.9436
  329MOL0     H44357  10.447   1.510   5.345 -1.3566  0.8111  0.3871
  329MOL0     H44358  10.578   1.699   5.276 -0.7627 -0.9626  1.0732
  329MOL0     H44359  10.480   1.708   5.116 -2.6370  1.8014 -0.2098
  329MOL0     H44360  10.280   1.745   5.260  0.9064  0.3322 -2.2508
  329MOL0     H44361  10.385   1.742   5.403 -0.8978 -0.2847  0.3694
  329MOL0     H44362  10.520   1.920   5.318  1.2189  0.5388 -3.3752
  329MOL0     H44363  10.425   1.936   5.170  2.5330 -1.3239 -0.2676
  329MOL0     H44364  10.377   2.099   5.344  0.1257  0.6455 -3.0977
  329MOL0     H44365  10.309   1.969   5.444  0.9688  2.1247  0.5941
  329MOL0     H44366  10.098   1.916   5.429  0.0286  1.5612  1.7989
  329MOL0     H44367   9.852   2.052   5.411 -0.0013 -3.3589  0.6188
  329MOL0     H44368   9.824   2.139   5.257 -1.4980 -2.1049 -1.2008
  329MOL0     H44369   9.780   1.908   5.148 -1.1574  0.8053 -0.3549
  329MOL0     H44370   9.656   1.969   5.269 -0.2020 -0.9763  3.4474
  329MOL0     H44371   9.787   1.808   5.417  3.1647 -0.7757 -0.3216
  329MOL0     H44372   9.869   1.749   5.283 -1.1463 -0.4795 -2.8171
  329MOL0     H44373   9.560   1.743   5.347 -0.0549  0.4579 -0.9192
  329MOL0     H44374   9.677   1.616   5.327 -1.2522  0.2571  3.0793
  329MOL0     H44375   9.431   1.555   5.282 -3.0462 -0.4357 -1.1602
  329MOL0     H44376   9.240   1.434   5.320  1.7730 -0.7123  0.5231
  329MOL0     H44377   9.125   1.449   5.180  1.3248 -0.5236 -2.3216
  329MOL0     H44378   9.205   1.310   5.199 -1.7782  0.2468 -1.6446
  329MOL0     H44379   9.026   1.148   4.846  3.2933  0.8614 -0.0111
  329MOL0     H44380   8.930   1.016   4.675  2.7747 -2.0696  0.9894
  329MOL0     H44381   9.000   0.844   4.479 -0.9975 -2.3798 -0.8754
  329MOL0     H44382   8.847   0.928   4.437 -0.3438  2.8705 -1.8813
  329MOL0     H44383   8.887   0.746   4.290  0.1493 -0.3165 -1.2696
  329MOL0     H44384   8.907   0.888   4.194  0.0642 -2.7941 -1.4572
  329MOL0     H44385   9.146   0.730   4.343 -0.6352 -1.7860 -0.5343
  329MOL0     H44386   9.157   0.849   4.225 -0.4388 -0.5294 -0.3161
  329MOL0     H44387   9.016   0.583   4.183  1.4986  0.0205 -0.1190
  329MOL0     H44388   9.047   0.699   4.063  0.3903 -2.4623 -1.7009
  329MOL0     H44389   9.195   0.514   4.019  1.4237 -0.5381 -0.7539
  329MOL0     H44390   9.230   0.489   4.183 -2.4154  1.0453  0.2361
  329MOL0     H44391   9.376   0.702   4.172  2.9148 -1.1902 -0.1116
  329MOL0     H44392   9.426   0.566   4.082  0.2630  0.3841 -0.8519
  329MOL0     H44393   9.295   0.676   3.886 -1.8590 -1.7807  2.8993
  329MOL0     H44394   9.468   0.700   3.914  1.2611  1.2151 -0.7075
  329MOL0     H44395   9.423   0.910   4.022 -0.0403 -2.1663  1.7789
  329MOL0     H44396   9.248   0.891   4.016  1.4299 -0.1563  0.9376
  329MOL0     H44397   9.162   1.221   4.376 -0.2742  0.6224  0.8022
  329MOL0     H44398   9.249   1.384   4.554 -0.2204  0.4587  0.3546
  329MOL0     H44399   9.444   1.475   4.800 -1.8302 -0.1788 -0.2566
  329MOL0     H44400   9.603   1.632   4.888  2.5786 -2.1877 -0.1599
  329MOL0     H44401  10.149   1.170   5.215 -1.6051 -0.3939 -0.2638
  329MOL0     H44402   9.974   1.020   5.124 -0.0288 -1.1755  1.1585
  329MOL0     H44403   9.793   0.696   4.860  0.6637  0.2331  0.5531
  329MOL0     H44404   9.623   0.569   4.787  1.6526 -0.0648 -0.7932
  329MOL0     H44405   9.285   0.391   4.920 -1.8819 -0.1625 -2.2850
  329MOL0     H44406   9.370   0.532   4.849 -0.2515 -0.7354 -1.6859
  329MOL0     H44407   9.400   0.241   4.755 -0.3443 -0.2401  1.1720
  329MOL0     H44408   9.514   0.357   4.701 -1.6163 -0.6721 -2.7880
  329MOL0     H44409   9.326   0.510   4.619  1.6172 -0.1261  2.4181
  329MOL0     H44410   9.209   0.381   4.631 -0.9943  5.0557  0.3296
  329MOL0     H44411   9.436   0.357   4.421  1.3351  0.8460  1.3449
  329MOL0     H44412   9.274   0.378   4.400 -1.3382 -3.6247 -0.2508
  329MOL0     H44413   9.277  -0.026   4.482 -2.4423  1.2322  1.7258
  329MOL0     H44414   9.585   0.385   5.184  0.1123 -1.4905 -0.7625
  329MOL0     H44415   9.794   0.498   5.251 -0.1712  1.6276  0.2039
  330MOL0     O44416   6.544  10.714   1.261 -0.0039 -0.1495  0.3488
  330MOL0     C44417   6.539  10.794   1.165  0.0235 -0.0520 -0.4141
  330MOL0     O44418   6.429  10.881   1.148  0.3818 -0.1045  0.1085
  330MOL0     C44419   6.322  10.868   1.220 -0.2833 -0.1120 -0.4065
  330MOL0     C44420   6.195  10.829   1.183  0.3330 -0.1915  0.6166
  330MOL0     C44421   6.085  10.815   1.269  0.2255 -1.0852 -0.6579
  330MOL0     C44422   6.099  10.875   1.392 -0.5617 -0.0756 -0.4820
  330MOL0     O44423   5.987  10.858   1.467 -0.1555  0.8945 -0.0752
  330MOL0     C44424   5.993  10.874   1.610 -0.1439  0.1934 -0.5323
  330MOL0     C44425   5.957  11.023   1.651 -0.3747  0.5640  0.4070
  330MOL0     C44426   5.807  11.056   1.626 -0.3098  0.5097  0.1585
  330MOL0     C44427   5.781  11.194   1.670 -0.2463  0.3859 -0.0154
  330MOL0     C44428   5.670  11.276   1.601  0.5090 -0.5978 -0.3579
  330MOL0     C44429   5.531  11.215   1.654  0.1513 -0.6431  0.9373
  330MOL0     C44430   5.409  11.294   1.600  0.2032 -0.3061  0.0890
  330MOL0     C44431   5.273  11.219   1.617  1.3307  0.7020 -0.5128
  330MOL0     N44432   5.251  11.113   1.517 -0.0361  0.1954  0.3222
  330MOL0     C44433   5.162  11.011   1.543 -0.0522  0.7689 -0.2183
  330MOL0     C44434   5.166  10.933   1.431  0.0691 -0.4403  0.1926
  330MOL0     C44435   5.090  10.816   1.382 -0.5569 -0.0990  0.0946
  330MOL0     C44436   4.957  10.864   1.318 -0.5134 -0.5010  0.2084
  330MOL0     C44437   4.894  10.756   1.234 -0.3538 -0.1888 -0.3987
  330MOL0     C44438   4.982  10.671   1.140  1.0827  0.3307  0.0643
  330MOL0     O44439   5.042  10.773   1.053 -0.6161  0.9263  0.1759
  330MOL0     C44440   5.152  10.725   0.990 -0.5746  0.3524  0.0507
  330MOL0     C44441   5.163  10.609   0.907  0.3450 -0.6628  0.3016
  330MOL0     C44442   5.281  10.571   0.843 -1.0474 -0.0113 -0.1601
  330MOL0     C44443   5.279  10.451   0.751  0.2201 -0.2547  0.0276
  330MOL0     C44444   5.405  10.643   0.865 -0.1159 -0.2604 -0.3181
  330MOL0     C44445   5.542  10.615   0.801  0.8934  0.0082  0.7706
  330MOL0     O44446   5.631  10.720   0.795 -0.5333  0.4501  0.2282
  330MOL0     C44447   5.733  10.705   0.706  0.7600 -0.1983  0.0256
  330MOL0     C44448   5.731  10.632   0.593  0.0652  0.5227 -0.8368
  330MOL0     C44449   5.841  10.617   0.507 -0.4098 -0.1653  0.3553
  330MOL0     C44450   5.962  10.688   0.538 -0.3151 -0.1660  0.7266
  330MOL0     O44451   6.066  10.680   0.440  0.5133 -0.4539  0.5380
  330MOL0     C44452   6.180  10.762   0.451  0.9316  0.5467  0.4076
  330MOL0     C44453   6.285  10.720   0.337 -0.2368 -0.7098  0.0816
  330MOL0     C44454   6.331  10.578   0.344 -0.1535 -0.5077  0.5626
  330MOL0     C44455   6.469  10.556   0.283  0.0605 -0.7755 -0.0032
  330MOL0     C44456   6.528  10.418   0.311 -0.4262 -0.0509 -0.0215
  330MOL0     C44457   6.655  10.393   0.230  0.7410 -0.2733 -0.3765
  330MOL0     C44458   6.678  10.240   0.237  0.3929  0.2420  0.2517
  330MOL0     C44459   6.789  10.211   0.146  0.2317  0.8291 -0.1010
  330MOL0    Cl44460   6.935  10.291   0.202  0.6272 -0.0293  0.0528
  330MOL0     C44461   5.967  10.771   0.649 -0.2909 -0.6257 -0.5079
  330MOL0     C44462   5.858  10.772   0.736 -0.4175  0.2985 -0.0663
  330MOL0     O44463   5.566  10.495   0.765 -0.2094 -0.0812 -0.4865
  330MOL0     C44464   5.396  10.760   0.948 -0.1107  1.2747  0.4048
  330MOL0     C44465   5.277  10.798   1.013 -0.3535  0.6451  0.4105
  330MOL0     N44466   5.267  10.979   1.354 -0.1951 -0.4171  0.2399
  330MOL0     N44467   5.309  11.088   1.398  0.3926 -0.2011  0.5306
  330MOL0     C44468   6.224  10.925   1.431  0.7876  0.0817 -0.5522
  330MOL0     C44469   6.333  10.916   1.350  0.6124 -0.4168  0.9985
  330MOL0     C44470   6.662  10.801   1.094  0.2322  0.7431  0.7342
  330MOL0     C44471   6.771  10.708   1.120 -1.0988  0.8388  0.3983
  330MOL0     C44472   6.889  10.708   1.033 -0.1711  0.7221  0.7582
  330MOL0     C44473   6.890  10.795   0.926  0.1281  0.5026  0.4582
  330MOL0     O44474   6.979  10.787   0.831  0.5285  0.2090 -0.9766
  330MOL0     C44475   7.092  10.875   0.859  0.1407  0.6141 -0.6379
  330MOL0     C44476   7.217  10.825   0.793 -0.6273  0.5389 -0.8801
  330MOL0     C44477   7.352  10.885   0.843  0.0436  0.1089  0.7332
  330MOL0     C44478   7.479  10.826   0.770 -0.1506  0.2100 -0.0246
  330MOL0     C44479   7.604  10.881   0.829  0.2787  1.2872  1.0892
  330MOL0     C44480   7.700  10.919   0.896  0.1998 -0.3481  0.8624
  330MOL0     C44481   6.789  10.887   0.908 -0.3282  0.0851 -0.7696
  330MOL0     C44482   6.675  10.891   0.982 -0.4963  0.9576  0.0838
  330MOL0     H44483   6.191  10.802   1.078 -0.9415  1.2488  0.2627
  330MOL0     H44484   5.993  10.762   1.245 -2.2021  2.5430 -0.3319
  330MOL0     H44485   5.913  10.809   1.647 -1.4642  0.4432 -2.7803
  330MOL0     H44486   6.089  10.840   1.649 -0.5497  1.5754  1.9532
  330MOL0     H44487   5.988  11.029   1.756 -0.2774  2.5020  0.3108
  330MOL0     H44488   6.014  11.091   1.587 -0.1301  0.2606  0.2983
  330MOL0     H44489   5.763  11.031   1.529 -3.3432  1.8516  1.0810
  330MOL0     H44490   5.754  10.996   1.701  1.9995  0.2810  1.7396
  330MOL0     H44491   5.767  11.190   1.778 -0.7416  1.4391 -0.0300
  330MOL0     H44492   5.870  11.255   1.650 -0.4518  0.0226 -2.3736
  330MOL0     H44493   5.671  11.381   1.629  0.9763 -0.8703  0.7293
  330MOL0     H44494   5.684  11.269   1.493 -3.4940  0.7864 -1.1154
  330MOL0     H44495   5.530  11.112   1.615 -0.7278  0.3554 -1.9576
  330MOL0     H44496   5.533  11.224   1.763  1.1794 -2.7057  1.1445
  330MOL0     H44497   5.409  11.390   1.652  0.2949 -0.5053  0.4590
  330MOL0     H44498   5.408  11.319   1.493  2.4253  1.9094  0.5073
  330MOL0     H44499   5.186  11.280   1.587 -2.2957 -3.2903  0.8239
  330MOL0     H44500   5.249  11.191   1.720  2.8021 -1.7493 -0.7766
  330MOL0     H44501   5.109  10.982   1.633  1.2130  0.3867  0.4384
  330MOL0     H44502   5.154  10.754   1.318 -0.3267  1.1785 -0.9346
  330MOL0     H44503   5.071  10.758   1.473 -0.0973 -1.0771 -0.4125
  330MOL0     H44504   4.968  10.952   1.255 -0.6528 -0.5454  0.1226
  330MOL0     H44505   4.894  10.899   1.400  1.3428 -1.8829  2.3782
  330MOL0     H44506   4.812  10.806   1.181 -2.5007 -0.8196  2.1412
  330MOL0     H44507   4.847  10.684   1.300  3.0872 -0.7451  1.6954
  330MOL0     H44508   4.913  10.609   1.083 -0.0891  0.1251  1.6463
  330MOL0     H44509   5.051  10.608   1.197  1.1441  1.2486  1.0313
  330MOL0     H44510   5.073  10.549   0.901 -0.0008 -0.4129  2.4509
  330MOL0     H44511   5.327  10.474   0.655  2.5525  0.3237  1.2496
  330MOL0     H44512   5.329  10.368   0.801  1.7159  0.9088  0.5488
  330MOL0     H44513   5.179  10.414   0.727  0.9000 -2.4232  0.3583
  330MOL0     H44514   5.638  10.583   0.566  1.1335 -0.8917 -2.1644
  330MOL0     H44515   5.823  10.549   0.425 -0.5406  1.8732 -1.3826
  330MOL0     H44516   6.144  10.865   0.438  0.4570  0.2210 -1.1490
  330MOL0     H44517   6.215  10.742   0.552 -0.9323  2.3665  1.5019
  330MOL0     H44518   6.238  10.730   0.239 -1.8990  1.4598  1.0310
  330MOL0     H44519   6.375  10.780   0.355  0.1151 -1.4354  0.8088
  330MOL0     H44520   6.261  10.515   0.289 -0.3842  0.5150 -0.3645
  330MOL0     H44521   6.335  10.549   0.449 -2.0172  1.8437  1.3760
  330MOL0     H44522   6.447  10.570   0.177 -1.7289 -1.8442  0.1824
  330MOL0     H44523   6.536  10.631   0.325  0.7110 -2.0443  1.3164
  330MOL0     H44524   6.465  10.335   0.278 -1.9192  0.4202  1.5339
  330MOL0     H44525   6.547  10.408   0.418  0.4950  0.7497 -0.0927
  330MOL0     H44526   6.627  10.429   0.130  0.1327  1.0858  0.2565
  330MOL0     H44527   6.744  10.452   0.253  0.4833 -0.3584  0.8770
  330MOL0     H44528   6.596  10.170   0.218 -0.2434  0.8956  0.5261
  330MOL0     H44529   6.714  10.208   0.336 -0.7660  4.2255  2.1951
  330MOL0     H44530   6.769  10.224   0.039 -3.4743  0.7867  0.4416
  330MOL0     H44531   6.816  10.106   0.156  1.2946  1.2391  2.0721
  330MOL0     H44532   6.053  10.834   0.672 -0.3865  1.7645 -5.3846
  330MOL0     H44533   5.868  10.832   0.826 -1.6768  2.0886 -1.0480
  330MOL0     H44534   5.484  10.819   0.969  1.2552 -0.7020  0.4514
  330MOL0     H44535   5.287  10.880   1.085  1.5359 -0.6268  1.6761
  330MOL0     H44536   6.239  10.955   1.534 -0.3580 -1.2864  0.0409
  330MOL0     H44537   6.427  10.964   1.377 -0.4502  2.5326 -0.1838
  330MOL0     H44538   6.765  10.650   1.212  0.3805  1.2492  0.7831
  330MOL0     H44539   6.981  10.654   1.055 -0.2652  0.5841  0.8081
  330MOL0     H44540   7.076  10.981   0.839 -0.8153  0.2747 -1.8953
  330MOL0     H44541   7.104  10.872   0.967  1.0059  2.4927 -0.6498
  330MOL0     H44542   7.187  10.862   0.694 -1.2760  1.6870 -0.2811
  330MOL0     H44543   7.224  10.716   0.786 -0.4318  0.2561  2.2887
  330MOL0     H44544   7.369  10.877   0.950 -0.4125 -1.7590  0.7040
  330MOL0     H44545   7.350  10.994   0.839 -0.4120  0.1567  1.8454
  330MOL0     H44546   7.492  10.868   0.669  2.0762 -0.8832 -0.2536
  330MOL0     H44547   7.480  10.717   0.758  2.7704  0.3361 -2.2761
  330MOL0     H44548   7.787  10.933   0.958  0.7689 -0.6589  0.1443
  330MOL0     H44549   6.805  10.952   0.823  0.7510  0.3485 -0.3832
  330MOL0     H44550   6.594  10.957   0.953 -0.5781 -0.6798 -4.0768
  331MOL0     O44551   1.419   4.629   4.176  0.2068  0.3123  0.5482
  331MOL0     C44552   1.391   4.749   4.158  0.5032  0.2751 -0.3568
  331MOL0     O44553   1.470   4.852   4.152 -0.2175 -0.7796  0.6115
  331MOL0     C44554   1.604   4.836   4.160 -0.6103 -0.1665  0.4852
  331MOL0     C44555   1.687   4.820   4.046  0.0015 -0.2405  0.4247
  331MOL0     C44556   1.816   4.798   4.055 -0.0729 -0.5882  0.6733
  331MOL0     C44557   1.884   4.810   4.179  0.5156  0.1007  0.3577
  331MOL0     O44558   2.013   4.774   4.179 -0.5115 -0.0653 -0.1463
  331MOL0     C44559   2.086   4.761   4.299  0.9022 -0.1116 -0.5054
  331MOL0     C44560   2.227   4.699   4.280  0.1870 -0.5520 -0.8299
  331MOL0     C44561   2.326   4.793   4.210 -0.1410  0.4824 -0.3948
  331MOL0     C44562   2.465   4.727   4.173 -1.2300 -0.5477 -0.3798
  331MOL0     C44563   2.577   4.825   4.142  0.0898  0.9164 -0.7614
  331MOL0     C44564   2.557   4.877   3.996 -0.1299  0.1052  0.5445
  331MOL0     C44565   2.672   4.963   3.945  0.4990  0.3519  0.7765
  331MOL0     C44566   2.803   4.888   3.921  0.5423  0.2737 -0.3611
  331MOL0     N44567   2.791   4.772   3.834 -1.0964  1.1064 -0.2062
  331MOL0     C44568   2.739   4.767   3.711  0.0945 -0.5386  0.2580
  331MOL0     C44569   2.752   4.642   3.660 -0.8109 -0.1276 -0.7963
  331MOL0     C44570   2.717   4.590   3.527 -1.0422  0.1223 -0.2066
  331MOL0     C44571   2.566   4.542   3.525 -0.1327 -0.4830  0.1495
  331MOL0     C44572   2.486   4.665   3.481  0.3829  0.9667 -1.0384
  331MOL0     C44573   2.340   4.625   3.474 -0.2523  0.0521  0.3966
  331MOL0     O44574   2.307   4.539   3.362  0.6010 -0.5230  0.3218
  331MOL0     C44575   2.183   4.487   3.360 -1.0106  0.3294  0.5256
  331MOL0     C44576   2.103   4.517   3.247 -0.4459  0.6578 -0.1207
  331MOL0     C44577   1.978   4.456   3.225  0.1693 -0.3934  0.1336
  331MOL0     C44578   1.904   4.513   3.106  0.2634  0.0002 -0.1971
  331MOL0     C44579   1.927   4.370   3.327 -1.4686  0.1262  0.3215
  331MOL0     C44580   1.788   4.318   3.328  0.0420 -0.0627 -0.3393
  331MOL0     O44581   1.750   4.235   3.425  0.3811  0.0987 -0.4103
  331MOL0     C44582   1.621   4.218   3.450  0.2007  0.3501  0.0654
  331MOL0     C44583   1.570   4.089   3.458  0.2369  0.3936 -0.0158
  331MOL0     C44584   1.441   4.066   3.491 -0.4519 -0.5666 -0.1652
  331MOL0     C44585   1.354   4.173   3.515 -0.5937  0.4468  0.2612
  331MOL0     O44586   1.220   4.149   3.529 -0.1526  0.7795  0.2561
  331MOL0     C44587   1.169   4.079   3.650 -0.1846 -0.6966 -0.1548
  331MOL0     C44588   1.016   4.058   3.628  0.1627  0.7678 -0.3910
  331MOL0     C44589   0.985   3.950   3.531  0.2060 -0.4046  0.5647
  331MOL0     C44590   0.840   3.943   3.501 -0.3999  0.1449 -0.1844
  331MOL0     C44591   0.755   3.886   3.613 -0.5174  0.8119  0.8902
  331MOL0     C44592   0.761   3.737   3.637  0.3238  0.6385  0.3533
  331MOL0     C44593   0.640   3.696   3.728 -0.5491  0.5479  0.0672
  331MOL0     C44594   0.617   3.542   3.742  0.0250  0.5080  0.2922
  331MOL0    Cl44595   0.575   3.441   3.591 -0.1316 -0.2388  0.3423
  331MOL0     C44596   1.413   4.301   3.529 -0.4324  0.1434  0.3911
  331MOL0     C44597   1.538   4.326   3.480  0.2483 -0.5765  0.0404
  331MOL0     O44598   1.707   4.367   3.246 -0.0823  0.5730  0.2650
  331MOL0     C44599   2.007   4.347   3.441 -0.4127 -0.2453 -0.3236
  331MOL0     C44600   2.132   4.400   3.453  0.3800  0.0247  0.5575
  331MOL0     N44601   2.808   4.569   3.768 -0.1617 -0.3890 -0.2630
  331MOL0     N44602   2.833   4.649   3.869 -0.0720  0.0403  0.6715
  331MOL0     C44603   1.811   4.826   4.296  0.1349  0.6673  0.2629
  331MOL0     C44604   1.675   4.857   4.276  0.6132  0.2867  1.3011
  331MOL0     C44605   1.252   4.794   4.144  0.7324 -0.0214 -0.5670
  331MOL0     C44606   1.226   4.905   4.065  0.8287  0.3663  0.2811
  331MOL0     C44607   1.090   4.960   4.055  0.3489 -1.0127  0.3099
  331MOL0     C44608   0.989   4.891   4.118 -0.7295 -0.7074  0.5167
  331MOL0     O44609   0.869   4.942   4.140 -0.2458 -0.1379  0.0818
  331MOL0     C44610   0.807   5.013   4.031  0.0063 -0.1773 -0.6478
  331MOL0     C44611   0.658   4.981   4.023  0.5435 -0.3051 -1.0429
  331MOL0     C44612   0.600   5.019   4.160 -0.8835  0.4058  0.2772
  331MOL0     C44613   0.440   4.984   4.158 -0.5005 -1.5330  0.0098
  331MOL0     C44614   0.420   4.841   4.121 -0.0379  0.4743  0.1128
  331MOL0     C44615   0.398   4.721   4.105  0.6067  0.0013  0.3086
  331MOL0     C44616   1.016   4.779   4.197 -0.5851 -0.6448  0.6574
  331MOL0     C44617   1.146   4.735   4.209  0.7214  0.1367 -0.0252
  331MOL0     H44618   1.636   4.813   3.951  2.0210  1.2182 -0.8452
  331MOL0     H44619   1.877   4.798   3.966  0.6988 -0.6600  1.1874
  331MOL0     H44620   2.094   4.857   4.350 -1.5702 -0.5033  0.7549
  331MOL0     H44621   2.031   4.692   4.363 -0.1680  1.5988  0.4734
  331MOL0     H44622   2.277   4.660   4.370  0.5117 -1.8404 -1.5518
  331MOL0     H44623   2.213   4.607   4.224 -2.4516 -2.4600  2.5544
  331MOL0     H44624   2.279   4.831   4.119 -0.7800  2.1900  0.6034
  331MOL0     H44625   2.334   4.879   4.277 -4.6931 -0.3902  1.6554
  331MOL0     H44626   2.488   4.667   4.262 -0.2352 -2.2691 -1.7489
  331MOL0     H44627   2.447   4.652   4.096 -1.8972  0.6027 -1.3931
  331MOL0     H44628   2.562   4.901   4.219 -0.4423  0.8026 -0.7501
  331MOL0     H44629   2.676   4.779   4.152 -0.3800 -0.1198 -0.7402
  331MOL0     H44630   2.557   4.792   3.928  1.2984 -0.3360  1.0654
  331MOL0     H44631   2.464   4.933   3.987 -1.2160 -1.1173  2.9916
  331MOL0     H44632   2.637   5.025   3.862  0.4607  1.9121  1.9124
  331MOL0     H44633   2.694   5.039   4.021  1.5909 -0.9304  1.7694
  331MOL0     H44634   2.835   4.845   4.016 -2.1069 -2.2103 -0.4629
  331MOL0     H44635   2.875   4.958   3.879 -1.4235  2.7642  0.1985
  331MOL0     H44636   2.697   4.852   3.658  4.3673  1.7825  0.1623
  331MOL0     H44637   2.717   4.667   3.450 -4.4398 -2.3526 -3.0074
  331MOL0     H44638   2.785   4.505   3.511 -2.4106 -2.9599  6.6189
  331MOL0     H44639   2.531   4.503   3.621  0.1772 -1.1997 -0.0188
  331MOL0     H44640   2.551   4.458   3.457  1.0294  0.5139 -1.4026
  331MOL0     H44641   2.512   4.704   3.382 -2.0751 -0.5481 -2.3706
  331MOL0     H44642   2.503   4.734   3.565  0.4366 -3.6645  3.2268
  331MOL0     H44643   2.283   4.718   3.461 -0.2666  0.2557  1.8222
  331MOL0     H44644   2.324   4.569   3.566  2.5319  1.5721  1.9498
  331MOL0     H44645   2.133   4.593   3.176 -2.7657 -0.4946 -2.4942
  331MOL0     H44646   1.959   4.578   3.037  1.0577  0.1140  0.5403
  331MOL0     H44647   1.851   4.445   3.038 -1.7267  0.0136  1.2555
  331MOL0     H44648   1.825   4.578   3.145 -0.5036 -1.4738  0.8015
  331MOL0     H44649   1.636   4.008   3.430 -1.0046 -0.5846 -0.2107
  331MOL0     H44650   1.410   3.962   3.491 -1.2540 -0.3599 -2.0945
  331MOL0     H44651   1.220   3.983   3.665  0.9916 -0.2518 -1.1367
  331MOL0     H44652   1.194   4.154   3.725  2.0400  1.1058 -2.5097
  331MOL0     H44653   0.970   4.024   3.721 -1.6657  0.9377 -1.1769
  331MOL0     H44654   0.972   4.155   3.603 -2.0494 -0.1338 -0.2150
  331MOL0     H44655   1.015   3.858   3.581 -1.1792 -0.1104  2.0502
  331MOL0     H44656   1.039   3.958   3.436 -0.7277  1.7410  0.1431
  331MOL0     H44657   0.803   4.043   3.476 -0.4720 -0.5747 -3.4145
  331MOL0     H44658   0.835   3.889   3.406 -0.9004  0.0671 -0.1186
  331MOL0     H44659   0.652   3.923   3.604 -0.1693  2.0297  1.6720
  331MOL0     H44660   0.789   3.939   3.702 -1.1329  0.9064  1.0771
  331MOL0     H44661   0.757   3.678   3.544 -1.7092 -0.0836  0.8389
  331MOL0     H44662   0.851   3.715   3.695 -0.0920  2.9903  2.0040
  331MOL0     H44663   0.544   3.736   3.695 -1.2593  2.1847  3.7191
  331MOL0     H44664   0.664   3.729   3.829 -1.3795  0.8646  0.1709
  331MOL0     H44665   0.535   3.523   3.812  0.6487 -1.0010  0.6728
  331MOL0     H44666   0.705   3.496   3.788  1.2792  1.6453 -0.8881
  331MOL0     H44667   1.355   4.382   3.571  0.3718 -0.4245  2.7644
  331MOL0     H44668   1.579   4.426   3.479  4.5279 -2.1109 -2.0058
  331MOL0     H44669   1.986   4.290   3.531  1.6771 -1.8745 -0.7878
  331MOL0     H44670   2.175   4.372   3.549 -0.4189 -0.0455  0.9045
  331MOL0     H44671   1.847   4.832   4.398  0.0696 -0.8668  0.4040
  331MOL0     H44672   1.617   4.897   4.359 -1.2964  1.9023 -0.6698
  331MOL0     H44673   1.305   4.959   4.014  0.8539  0.8453  0.8159
  331MOL0     H44674   1.059   5.041   3.989 -3.9872 -1.1630  1.8415
  331MOL0     H44675   0.798   5.118   4.058  1.3162 -0.2626  0.1974
  331MOL0     H44676   0.858   5.007   3.935  3.9544  0.5638  1.1966
  331MOL0     H44677   0.649   4.874   4.002 -0.6676 -1.3371  3.6078
  331MOL0     H44678   0.609   5.038   3.943 -0.9283 -0.2199 -0.1201
  331MOL0     H44679   0.600   5.128   4.169 -1.5822  0.3896  0.5602
  331MOL0     H44680   0.654   4.977   4.245  0.9815 -2.4335 -2.1461
  331MOL0     H44681   0.376   5.048   4.097 -1.2301  0.6251  2.8441
  331MOL0     H44682   0.420   5.007   4.263  0.3377  0.5555 -0.2339
  331MOL0     H44683   0.379   4.616   4.091  1.0733  0.0838 -1.0498
  331MOL0     H44684   0.939   4.727   4.253  0.3250  1.4188  4.1528
  331MOL0     H44685   1.162   4.651   4.275 -4.2876 -0.4604  0.8022
  332MOL0     O44686   0.618   9.442   0.302  0.0314 -0.3658 -0.3697
  332MOL0     C44687   0.636   9.387   0.412 -0.4505 -0.0628 -0.0391
  332MOL0     O44688   0.542   9.317   0.481  0.0455 -0.0177  0.2713
  332MOL0     C44689   0.419   9.300   0.413 -0.0348  0.0620 -0.7588
  332MOL0     C44690   0.307   9.373   0.450  0.2203 -0.5471  0.1316
  332MOL0     C44691   0.180   9.341   0.387 -0.3413 -0.4190  0.1420
  332MOL0     C44692   0.168   9.254   0.285 -0.0728 -0.3594 -0.0432
  332MOL0     O44693   0.043   9.241   0.223  0.6013 -0.9703  0.1066
  332MOL0     C44694   0.050   9.208   0.083 -0.6501 -0.1943  0.0389
  332MOL0     C44695  -0.087   9.204   0.007 -0.2169 -0.6635 -0.1174
  332MOL0     C44696  -0.166   9.338   0.025  0.7619  0.3183  0.2446
  332MOL0     C44697  -0.200   9.396   0.171 -0.3128 -0.4091 -0.0008
  332MOL0     C44698  -0.320   9.495   0.168 -0.0180  0.6807  1.3483
  332MOL0     C44699  -0.378   9.512   0.295 -0.9026  1.0554 -0.5299
  332MOL0     C44700  -0.286   9.590   0.396 -0.9945 -0.0198 -0.1195
  332MOL0     C44701  -0.306   9.739   0.389 -0.0943  0.0783 -0.8140
  332MOL0     N44702  -0.449   9.767   0.430 -0.3816  0.2908  0.1605
  332MOL0     C44703  -0.499   9.753   0.558  0.0578 -1.3698 -1.3874
  332MOL0     C44704  -0.634   9.757   0.545  0.2556  0.2259  0.7855
  332MOL0     C44705  -0.722   9.742   0.658  0.9376 -0.5928  0.6424
  332MOL0     C44706  -0.731   9.895   0.709  0.3553  0.4393  0.0679
  332MOL0     C44707  -0.837   9.979   0.641 -0.1067  0.7965  0.2940
  332MOL0     C44708  -0.981   9.934   0.642  0.7802  0.3723 -0.1920
  332MOL0     O44709  -1.024   9.916   0.506 -0.5925 -0.2936  0.8259
  332MOL0     C44710  -1.158   9.901   0.490  0.6129  0.0637 -0.6856
  332MOL0     C44711  -1.256   9.894   0.595 -0.3149 -0.0512 -0.1894
  332MOL0     C44712  -1.389   9.874   0.573 -0.3737 -0.8440  1.3807
  332MOL0     C44713  -1.481   9.865   0.686  0.1528 -0.1549  0.1123
  332MOL0     C44714  -1.438   9.871   0.438  0.5165 -0.1066 -0.4342
  332MOL0     C44715  -1.574   9.843   0.401 -0.5996 -0.3487 -0.3464
  332MOL0     O44716  -1.614   9.725   0.444  0.8291  0.5335  0.6838
  332MOL0     C44717  -1.746   9.702   0.429 -0.4148 -0.4682  0.8297
  332MOL0     C44718  -1.840   9.766   0.512  0.4658  0.1848  0.6260
  332MOL0     C44719  -1.979   9.734   0.500 -0.5990  0.2053 -0.7945
  332MOL0     C44720  -2.031   9.648   0.397 -0.2839  0.6852 -0.1620
  332MOL0     O44721  -2.161   9.621   0.370  0.7262 -0.0273  0.4655
  332MOL0     C44722  -2.244   9.632   0.482  0.7068 -0.7951  0.3846
  332MOL0     C44723  -2.363   9.545   0.444  0.0684  0.6416 -0.7842
  332MOL0     C44724  -2.470   9.625   0.376  0.3747  0.3791  0.4323
  332MOL0     C44725  -2.565   9.527   0.305  0.4176 -0.1110  0.8760
  332MOL0     C44726  -2.694   9.599   0.275 -0.3311  0.4926  0.3574
  332MOL0     C44727  -2.789   9.527   0.170  0.1904 -0.3446  0.1243
  332MOL0     C44728  -2.928   9.579   0.157 -0.3096  0.8566 -0.1768
  332MOL0     C44729  -3.012   9.542   0.273 -0.0382 -0.0222  0.5034
  332MOL0    Cl44730  -3.053   9.369   0.282 -0.6866  0.0748 -0.5074
  332MOL0     C44731  -1.937   9.586   0.314 -0.9475 -0.0798  0.0354
  332MOL0     C44732  -1.794   9.620   0.326  0.5751 -0.1719  0.3113
  332MOL0     O44733  -1.621   9.914   0.317  0.8535 -0.1291  0.1179
  332MOL0     C44734  -1.343   9.893   0.333  0.8728 -0.1543 -0.0831
  332MOL0     C44735  -1.206   9.917   0.356 -0.3832 -0.8416  0.0340
  332MOL0     N44736  -0.666   9.772   0.413 -0.1321  0.1119  0.4961
  332MOL0     N44737  -0.557   9.784   0.346  0.8538  0.3865  0.2116
  332MOL0     C44738   0.287   9.186   0.243  0.5497 -0.2794  0.1827
  332MOL0     C44739   0.404   9.202   0.316 -0.4504 -0.3345 -0.8792
  332MOL0     C44740   0.768   9.413   0.479  1.0871 -0.3375  0.2711
  332MOL0     C44741   0.871   9.484   0.413  1.0229 -0.9333  0.2674
  332MOL0     C44742   0.987   9.528   0.477 -0.9013 -0.6733 -0.0257
  332MOL0     C44743   1.017   9.466   0.600 -0.1522 -0.2430 -0.0023
  332MOL0     O44744   1.130   9.475   0.675 -0.3329  0.0263  0.3496
  332MOL0     C44745   1.199   9.602   0.674 -1.0878 -0.6097 -0.0620
  332MOL0     C44746   1.325   9.591   0.756  0.6955 -0.3989 -0.0613
  332MOL0     C44747   1.286   9.564   0.900  0.7409 -0.9316 -0.0375
  332MOL0     C44748   1.400   9.550   0.999  0.0765 -0.2259  0.3445
  332MOL0     C44749   1.495   9.665   0.994 -0.5911  0.3040 -0.1470
  332MOL0     C44750   1.584   9.759   0.996 -0.5334  0.2534  0.6376
  332MOL0     C44751   0.920   9.382   0.662 -0.5291  0.0340 -0.1849
  332MOL0     C44752   0.796   9.361   0.604  0.6770  0.9640 -0.3509
  332MOL0     H44753   0.309   9.464   0.508 -0.7310  0.7771 -1.7873
  332MOL0     H44754   0.089   9.387   0.424  0.4357  0.7082  0.7297
  332MOL0     H44755   0.111   9.288   0.039  1.3137 -1.2296  0.7606
  332MOL0     H44756   0.091   9.109   0.060  1.3778 -0.3586  3.6029
  332MOL0     H44757  -0.072   9.164  -0.093 -0.3500  1.9531 -1.2601
  332MOL0     H44758  -0.150   9.131   0.058 -2.5986  1.3638  0.0534
  332MOL0     H44759  -0.117   9.421  -0.028 -0.1929  1.2391  0.7648
  332MOL0     H44760  -0.256   9.307  -0.029  1.9685 -2.5455 -0.2751
  332MOL0     H44761  -0.223   9.323   0.249  0.8165  1.8808  2.6120
  332MOL0     H44762  -0.106   9.438   0.207  1.5940 -2.9038 -1.7115
  332MOL0     H44763  -0.283   9.590   0.128 -1.6317  0.9118  0.3182
  332MOL0     H44764  -0.393   9.459   0.095 -0.2542  2.2692  0.7794
  332MOL0     H44765  -0.475   9.563   0.286 -1.7225 -0.4864 -0.6613
  332MOL0     H44766  -0.412   9.412   0.323 -0.9240  0.8873 -1.1562
  332MOL0     H44767  -0.303   9.548   0.496  1.2765 -1.9695 -0.4411
  332MOL0     H44768  -0.179   9.571   0.382 -1.1321  0.0422 -1.3237
  332MOL0     H44769  -0.296   9.777   0.286  2.0911 -0.5045 -0.8791
  332MOL0     H44770  -0.234   9.786   0.457  0.1790 -3.6778  1.7844
  332MOL0     H44771  -0.443   9.736   0.649  2.1994  2.4388 -1.7630
  332MOL0     H44772  -0.817   9.691   0.639  0.1892  0.9657  0.1001
  332MOL0     H44773  -0.670   9.695   0.742 -1.5947  0.1362  2.7501
  332MOL0     H44774  -0.637   9.950   0.696 -0.0918  1.5537  1.3475
  332MOL0     H44775  -0.753   9.882   0.816 -1.0388  2.1876  0.0448
  332MOL0     H44776  -0.808   9.974   0.535 -0.1286  0.0463  0.3233
  332MOL0     H44777  -0.830  10.076   0.691 -0.4735 -0.3977  2.8041
  332MOL0     H44778  -1.038  10.013   0.690 -2.3491  1.2449 -4.6938
  332MOL0     H44779  -0.988   9.841   0.699  1.4929  1.2236  1.3339
  332MOL0     H44780  -1.230   9.887   0.700 -1.7994 -0.5845  0.1762
  332MOL0     H44781  -1.554   9.947   0.677  0.2971 -0.1122 -0.6481
  332MOL0     H44782  -1.535   9.771   0.676  0.4474 -0.2434 -0.6497
  332MOL0     H44783  -1.437   9.858   0.786 -1.6304  2.9176  1.2627
  332MOL0     H44784  -1.791   9.838   0.578 -0.1250  1.8696 -0.7024
  332MOL0     H44785  -2.044   9.774   0.577  0.9397 -1.0587  1.2825
  332MOL0     H44786  -2.203   9.592   0.575  2.8248 -0.7202 -0.4706
  332MOL0     H44787  -2.263   9.735   0.513  2.9009 -0.6454  1.4046
  332MOL0     H44788  -2.341   9.460   0.378 -2.5031 -0.7225 -0.0239
  332MOL0     H44789  -2.394   9.498   0.539  1.2430 -0.8516 -1.0910
  332MOL0     H44790  -2.430   9.679   0.289  0.2501 -1.5579 -0.8826
  332MOL0     H44791  -2.522   9.680   0.455  1.9172  1.5414  0.6880
  332MOL0     H44792  -2.521   9.507   0.207  1.9585  3.9188  0.5545
  332MOL0     H44793  -2.581   9.435   0.362 -3.7335 -0.8027 -1.0680
  332MOL0     H44794  -2.674   9.700   0.238 -0.0475  0.5514  0.6569
  332MOL0     H44795  -2.743   9.602   0.373 -1.3958 -3.4601  0.0787
  332MOL0     H44796  -2.739   9.528   0.072  1.0436  0.3839  0.5539
  332MOL0     H44797  -2.789   9.421   0.197 -1.9703 -0.4325 -0.0867
  332MOL0     H44798  -2.974   9.517   0.079 -0.1674 -2.1215  1.9306
  332MOL0     H44799  -2.927   9.686   0.135  2.3751  0.9617  0.1319
  332MOL0     H44800  -3.098   9.608   0.262 -0.1956 -0.2472  0.3733
  332MOL0     H44801  -2.965   9.572   0.367  1.8266  0.7514 -0.6193
  332MOL0     H44802  -1.977   9.530   0.230  0.3891  0.5176 -1.0482
  332MOL0     H44803  -1.727   9.572   0.256  0.5452 -1.5574  1.2022
  332MOL0     H44804  -1.380   9.906   0.232  2.1337  0.7965 -0.4606
  332MOL0     H44805  -1.137   9.923   0.273  0.0370 -2.7737  0.1883
  332MOL0     H44806   0.276   9.110   0.166 -1.4495  0.0470  0.0946
  332MOL0     H44807   0.496   9.145   0.302  0.3310  1.0511 -1.5885
  332MOL0     H44808   0.848   9.522   0.314  3.5567 -1.0900 -0.4407
  332MOL0     H44809   1.054   9.598   0.430 -2.3740  0.7334 -0.1135
  332MOL0     H44810   1.212   9.643   0.574  1.2886 -0.2397  0.3473
  332MOL0     H44811   1.136   9.674   0.727 -0.9400 -0.3177 -0.2810
  332MOL0     H44812   1.368   9.691   0.749 -0.7454  0.6420  3.4549
  332MOL0     H44813   1.384   9.508   0.717 -1.4343 -3.3520  2.4736
  332MOL0     H44814   1.226   9.474   0.910  0.6809 -1.1122 -1.7994
  332MOL0     H44815   1.224   9.646   0.937  2.8123  0.9422 -0.4466
  332MOL0     H44816   1.449   9.454   0.985 -2.1575 -1.6362  1.5685
  332MOL0     H44817   1.362   9.542   1.101 -0.1301  0.2851  0.3129
  332MOL0     H44818   1.656   9.839   0.997 -2.2403  1.8750 -0.0017
  332MOL0     H44819   0.940   9.344   0.762  1.2063  1.0413 -0.1098
  332MOL0     H44820   0.738   9.290   0.661  1.8716 -2.5906 -3.1853
  333MOL0     O44821   2.563   8.420   7.546 -0.0699 -0.6756  0.5293
  333MOL0     C44822   2.558   8.411   7.426 -0.9588  0.8517 -0.8846
  333MOL0     O44823   2.465   8.341   7.350 -0.3808  0.6700 -0.6897
  333MOL0     C44824   2.356   8.270   7.408 -0.7629 -0.6017  0.4418
  333MOL0     C44825   2.303   8.286   7.542  0.7742 -0.3924  1.2481
  333MOL0     C44826   2.185   8.224   7.579 -0.2233  0.4303  0.8063
  333MOL0     C44827   2.101   8.153   7.495 -1.1432  0.1017  1.3755
  333MOL0     O44828   1.975   8.105   7.524  0.4490  0.0496 -0.1933
  333MOL0     C44829   1.902   8.164   7.623  1.2326 -0.0389 -0.6399
  333MOL0     C44830   1.771   8.081   7.642 -0.7353  0.0966 -0.3176
  333MOL0     C44831   1.689   8.057   7.511  0.9076 -0.8506  0.3221
  333MOL0     C44832   1.544   8.005   7.539 -0.0113  0.0485 -0.1581
  333MOL0     C44833   1.466   7.935   7.427  0.2582  0.2090 -0.2551
  333MOL0     C44834   1.431   8.045   7.313 -0.6899  0.6800 -0.3782
  333MOL0     C44835   1.355   7.981   7.199  1.1976  0.2183 -0.4994
  333MOL0     C44836   1.425   7.878   7.109 -0.5246  0.6617  0.0986
  333MOL0     N44837   1.556   7.928   7.056  0.5452 -0.6869 -0.0430
  333MOL0     C44838   1.563   8.011   6.949 -0.5943 -0.5747 -0.1597
  333MOL0     C44839   1.694   8.034   6.943 -0.5770  0.1871  0.4013
  333MOL0     C44840   1.776   8.118   6.845 -0.2787  0.0936 -1.2685
  333MOL0     C44841   1.836   8.251   6.912 -0.0768 -0.8711  0.0857
  333MOL0     C44842   1.956   8.222   6.992 -0.2606 -0.1523  0.1576
  333MOL0     C44843   2.025   8.343   7.053 -0.1437 -0.5907  0.0698
  333MOL0     O44844   2.137   8.368   6.964  0.4714 -0.3150 -0.4968
  333MOL0     C44845   2.229   8.464   7.000 -0.7600 -0.1751  0.8583
  333MOL0     C44846   2.329   8.476   6.906  0.6421 -0.2915 -0.4239
  333MOL0     C44847   2.438   8.555   6.929  0.9588 -0.7697 -0.0452
  333MOL0     C44848   2.545   8.547   6.825  1.0492  0.5435  0.3308
  333MOL0     C44849   2.441   8.630   7.054 -0.2120  0.6170 -0.8811
  333MOL0     C44850   2.550   8.724   7.093 -0.5176 -0.8177 -0.5658
  333MOL0     O44851   2.572   8.752   7.227  0.1204  0.1819  0.3828
  333MOL0     C44852   2.663   8.842   7.276  0.4384  0.8404 -0.5330
  333MOL0     C44853   2.637   8.885   7.410  0.0125 -0.7542  0.4365
  333MOL0     C44854   2.732   8.982   7.460 -0.5777  0.8178 -0.1500
  333MOL0     C44855   2.842   9.025   7.392 -0.2153 -0.0657  0.2451
  333MOL0     O44856   2.944   9.101   7.444  0.1427 -0.4482  0.1983
  333MOL0     C44857   2.920   9.151   7.575  0.3751  0.6152  0.0186
  333MOL0     C44858   3.049   9.211   7.623 -0.0521 -0.9676 -1.0182
  333MOL0     C44859   3.049   9.253   7.768  0.0232 -0.2296 -0.3733
  333MOL0     C44860   2.950   9.369   7.791  0.5250  0.2067  0.6795
  333MOL0     C44861   2.935   9.418   7.937  0.4752 -0.5710 -0.3492
  333MOL0     C44862   2.813   9.512   7.948  0.6485 -0.8218 -0.9328
  333MOL0     C44863   2.801   9.571   8.093  0.0541  0.6247 -0.4431
  333MOL0     C44864   2.702   9.685   8.096  0.6342 -0.5392  0.3099
  333MOL0    Cl44865   2.697   9.757   8.261 -0.2148  0.1271  0.1774
  333MOL0     C44866   2.866   8.976   7.261 -0.2201  0.0965  0.0070
  333MOL0     C44867   2.781   8.883   7.206  0.1983  0.8671  0.9545
  333MOL0     O44868   2.611   8.780   6.997 -0.1440 -0.4388 -0.2893
  333MOL0     C44869   2.339   8.597   7.148  0.3034  0.4146 -0.3470
  333MOL0     C44870   2.223   8.529   7.123 -0.3613 -0.2566  0.8215
  333MOL0     N44871   1.755   7.967   7.043  0.2211  0.5018  0.3036
  333MOL0     N44872   1.669   7.902   7.117 -1.0748 -0.5284  0.2336
  333MOL0     C44873   2.156   8.133   7.367 -1.0302  0.4170 -0.3127
  333MOL0     C44874   2.277   8.192   7.322  0.1792 -0.7833  0.5159
  333MOL0     C44875   2.677   8.460   7.349 -0.2535 -0.3577  0.7311
  333MOL0     C44876   2.684   8.431   7.207 -0.1520  0.3005 -0.6735
  333MOL0     C44877   2.784   8.485   7.128 -0.8949 -0.0349 -0.6052
  333MOL0     C44878   2.893   8.546   7.195  0.5755  0.1981  0.3459
  333MOL0     O44879   3.016   8.572   7.147  0.2606  0.3762  0.5289
  333MOL0     C44880   3.041   8.529   7.012  1.0238  0.0309  0.3203
  333MOL0     C44881   3.177   8.575   6.963 -0.1391  0.7618 -0.1883
  333MOL0     C44882   3.287   8.520   7.048  0.1045 -0.3382  0.1040
  333MOL0     C44883   3.415   8.571   7.002 -0.0040  0.0384 -0.4368
  333MOL0     C44884   3.509   8.560   7.114  0.2141 -0.1730 -0.5895
  333MOL0     C44885   3.576   8.564   7.214  0.0057  0.7092  0.2846
  333MOL0     C44886   2.894   8.566   7.333  0.3831 -0.1461  0.8837
  333MOL0     C44887   2.780   8.537   7.410 -0.3430  0.3850 -0.3748
  333MOL0     H44888   2.360   8.347   7.610  1.2693  4.5264 -2.9207
  333MOL0     H44889   2.138   8.239   7.676  1.4854  3.7673  1.2650
  333MOL0     H44890   1.955   8.163   7.719  1.8758 -1.7991 -0.9694
  333MOL0     H44891   1.876   8.265   7.589 -0.8075 -0.4756 -0.5037
  333MOL0     H44892   1.783   7.984   7.691 -2.0311  0.7874  1.4799
  333MOL0     H44893   1.711   8.133   7.717  0.8842  0.5192  0.7405
  333MOL0     H44894   1.680   8.154   7.460  0.0387 -0.9083  0.3516
  333MOL0     H44895   1.730   7.990   7.435 -0.8047 -1.4302 -0.1534
  333MOL0     H44896   1.556   7.943   7.628  1.0556  1.5967  0.8331
  333MOL0     H44897   1.483   8.089   7.575 -0.8984 -0.6127 -0.0664
  333MOL0     H44898   1.530   7.863   7.375 -0.1558  1.4047 -2.4916
  333MOL0     H44899   1.391   7.871   7.474  1.1550  1.0049  2.4677
  333MOL0     H44900   1.372   8.126   7.355 -1.2188 -0.6234  1.4987
  333MOL0     H44901   1.524   8.091   7.278 -0.3249  0.2107 -0.0471
  333MOL0     H44902   1.275   7.929   7.253  2.1066  0.8777  1.6011
  333MOL0     H44903   1.320   8.059   7.131  1.3856 -0.1933 -1.0737
  333MOL0     H44904   1.359   7.852   7.026  2.2048  1.0921 -2.4060
  333MOL0     H44905   1.435   7.788   7.171 -1.6089  1.0396  0.8378
  333MOL0     H44906   1.477   8.041   6.890  0.4250 -2.0093 -2.4922
  333MOL0     H44907   1.854   8.064   6.790 -0.9852  0.3742 -2.5787
  333MOL0     H44908   1.707   8.158   6.771 -2.0105  1.4045  0.9116
  333MOL0     H44909   1.757   8.278   6.982 -1.8376 -1.9134 -1.4033
  333MOL0     H44910   1.848   8.333   6.840  0.6147  0.5132  1.7147
  333MOL0     H44911   2.024   8.167   6.926  3.0959  2.1275  1.4835
  333MOL0     H44912   1.924   8.155   7.073  1.4775  2.6091  3.3813
  333MOL0     H44913   2.059   8.306   7.150  0.2015  2.8404  1.3869
  333MOL0     H44914   1.950   8.422   7.058  0.5854 -0.0000  3.4361
  333MOL0     H44915   2.325   8.420   6.813  1.7955  0.3005 -0.8607
  333MOL0     H44916   2.519   8.490   6.736 -2.2749  0.5636  1.1691
  333MOL0     H44917   2.562   8.648   6.788  1.4530  0.4390  0.2239
  333MOL0     H44918   2.637   8.520   6.879 -0.6708  0.7893  3.6924
  333MOL0     H44919   2.555   8.838   7.464 -0.9585  1.0624  0.6143
  333MOL0     H44920   2.710   9.006   7.563 -0.0170 -1.2673  0.5156
  333MOL0     H44921   2.833   9.218   7.570 -0.0924  0.3202  2.6668
  333MOL0     H44922   2.893   9.076   7.650  3.3166 -1.9594 -1.2600
  333MOL0     H44923   3.130   9.138   7.615 -1.0303 -2.7400  2.7875
  333MOL0     H44924   3.063   9.298   7.558 -4.5296 -0.5849 -1.8149
  333MOL0     H44925   3.144   9.296   7.801  0.2316 -2.3061  2.0697
  333MOL0     H44926   3.036   9.168   7.836  0.5596  0.6154  0.8325
  333MOL0     H44927   2.962   9.458   7.729 -0.5831  0.0219  0.1605
  333MOL0     H44928   2.852   9.338   7.752  0.6675  0.3103  0.2344
  333MOL0     H44929   3.012   9.487   7.972  0.5954  0.2876 -2.1832
  333MOL0     H44930   2.921   9.337   8.008  3.0353 -1.1143 -0.3816
  333MOL0     H44931   2.807   9.599   7.881 -1.2504  0.3092  0.5926
  333MOL0     H44932   2.730   9.444   7.926  1.4778 -2.0531 -0.3354
  333MOL0     H44933   2.895   9.615   8.127 -0.9682  1.0010  2.1620
  333MOL0     H44934   2.778   9.487   8.160  1.9762 -0.5530 -1.1866
  333MOL0     H44935   2.599   9.649   8.085  0.6211 -0.4852  0.2589
  333MOL0     H44936   2.721   9.764   8.022  0.6680  0.2791  1.1728
  333MOL0     H44937   2.951   9.000   7.198 -2.4731 -1.2581 -3.9089
  333MOL0     H44938   2.813   8.848   7.108  0.5817 -2.9297  2.2367
  333MOL0     H44939   2.349   8.625   7.252  0.3916  0.9144 -0.4823
  333MOL0     H44940   2.147   8.516   7.200 -2.9268 -2.2983 -1.7895
  333MOL0     H44941   2.101   8.077   7.292  1.7982 -2.2147 -0.6487
  333MOL0     H44942   2.294   8.166   7.218 -2.0472 -2.5291  0.5302
  333MOL0     H44943   2.601   8.378   7.160 -3.0468  2.1312  2.0066
  333MOL0     H44944   2.786   8.456   7.023  2.8613 -3.0153  0.0748
  333MOL0     H44945   3.025   8.422   6.996  3.8968 -0.5654  0.8990
  333MOL0     H44946   2.962   8.581   6.955  1.1501  0.3172  0.4058
  333MOL0     H44947   3.181   8.684   6.972  0.1575  0.6826  0.7582
  333MOL0     H44948   3.201   8.546   6.861  2.3969  0.2389  0.4786
  333MOL0     H44949   3.279   8.411   7.055 -0.3447 -0.3301 -0.2286
  333MOL0     H44950   3.273   8.555   7.150 -1.4605 -1.1879  0.2040
  333MOL0     H44951   3.423   8.676   6.972  0.4418 -0.2057 -1.2054
  333MOL0     H44952   3.447   8.505   6.921 -1.2909  0.2977 -1.1909
  333MOL0     H44953   3.634   8.572   7.304  0.9683 -3.7912  0.3125
  333MOL0     H44954   2.986   8.610   7.371 -1.1144  1.7417  2.5433
  333MOL0     H44955   2.780   8.552   7.518  0.3295  1.4066 -0.5007
  334MOL0     O44956   1.177   4.128   6.644 -0.2433  0.1927  0.8800
  334MOL0     C44957   1.277   4.119   6.575 -1.2698  0.3293  0.4902
  334MOL0     O44958   1.279   4.100   6.442  0.2196 -0.8401  0.2051
  334MOL0     C44959   1.156   4.097   6.373 -0.1275 -0.1062  0.9745
  334MOL0     C44960   1.155   4.165   6.251  0.2270 -0.0171  0.2010
  334MOL0     C44961   1.040   4.166   6.170  0.0210 -0.2598 -0.6563
  334MOL0     C44962   0.931   4.090   6.198 -0.1775 -0.4291 -0.0763
  334MOL0     O44963   0.833   4.080   6.103  0.7884  0.8789  1.0866
  334MOL0     C44964   0.733   3.982   6.093 -0.6300  0.0621 -0.5944
  334MOL0     C44965   0.596   4.046   6.094 -0.5078  0.4315 -1.2431
  334MOL0     C44966   0.498   3.962   6.173 -0.1828 -0.2124  0.4111
  334MOL0     C44967   0.358   4.028   6.145 -1.0648 -0.4674 -1.4109
  334MOL0     C44968   0.233   3.948   6.187 -0.7820 -0.1741 -0.3669
  334MOL0     C44969   0.112   4.041   6.167  0.3229  0.1535  0.1400
  334MOL0     C44970  -0.019   3.961   6.147  0.5311 -0.5683 -0.3470
  334MOL0     C44971  -0.086   3.918   6.281 -0.9042 -0.4790 -0.5111
  334MOL0     N44972  -0.179   3.803   6.274  0.0374 -0.8975  0.0667
  334MOL0     C44973  -0.146   3.677   6.314 -0.1752  0.0366 -0.2086
  334MOL0     C44974  -0.256   3.607   6.272 -0.7890 -0.3537  0.6374
  334MOL0     C44975  -0.295   3.468   6.311  0.2534  0.5569 -1.2326
  334MOL0     C44976  -0.334   3.451   6.460 -0.8129 -0.3910 -0.0486
  334MOL0     C44977  -0.426   3.330   6.482 -0.6210 -1.0149  0.0255
  334MOL0     C44978  -0.575   3.347   6.449  0.3247  0.6159 -0.1695
  334MOL0     O44979  -0.642   3.441   6.533  0.8388  0.0956 -0.1496
  334MOL0     C44980  -0.773   3.470   6.508  0.5599 -0.2120 -0.3070
  334MOL0     C44981  -0.836   3.481   6.385 -0.5317  0.5111 -0.2770
  334MOL0     C44982  -0.964   3.528   6.365  0.4903  0.2412  0.1410
  334MOL0     C44983  -1.017   3.547   6.229 -0.4331  0.4931  0.4753
  334MOL0     C44984  -1.026   3.584   6.491 -1.2995 -0.8870  0.2823
  334MOL0     C44985  -1.163   3.631   6.489 -0.3207  0.0133  0.1613
  334MOL0     O44986  -1.252   3.565   6.410 -0.2523  0.1181  0.2371
  334MOL0     C44987  -1.384   3.579   6.423  0.0727  0.1224  0.0775
  334MOL0     C44988  -1.460   3.464   6.409  1.1393  0.3205  0.1284
  334MOL0     C44989  -1.599   3.457   6.400  0.3872 -0.6034 -0.0918
  334MOL0     C44990  -1.676   3.576   6.397 -0.0963 -0.1719  0.0685
  334MOL0     O44991  -1.808   3.580   6.381  0.1941 -0.2815  0.2062
  334MOL0     C44992  -1.885   3.629   6.495  0.7867 -0.1479  0.4367
  334MOL0     C44993  -1.989   3.740   6.461  0.8673 -0.0069  0.2093
  334MOL0     C44994  -1.994   3.833   6.580 -0.2906  0.7904 -0.0963
  334MOL0     C44995  -2.028   3.971   6.528 -0.5856  0.1841 -0.2145
  334MOL0     C44996  -2.085   4.061   6.636  0.8323 -0.6078  0.6486
  334MOL0     C44997  -2.234   4.043   6.637 -0.8396 -0.0517  0.3217
  334MOL0     C44998  -2.319   4.161   6.600 -0.9469 -0.0665  0.5133
  334MOL0     C44999  -2.331   4.208   6.454 -0.1728  0.2264  0.3127
  334MOL0    Cl45000  -2.406   4.378   6.455  0.0074 -0.1753  0.6091
  334MOL0     C45001  -1.602   3.698   6.412  0.1183 -0.7146  0.1862
  334MOL0     C45002  -1.459   3.698   6.422 -0.3208 -0.8080 -0.2867
  334MOL0     O45003  -1.193   3.716   6.573 -1.0086 -0.3525  0.2032
  334MOL0     C45004  -0.961   3.579   6.614  0.1602  0.0435 -0.5408
  334MOL0     C45005  -0.836   3.512   6.625  0.9862 -0.0192 -0.4000
  334MOL0     N45006  -0.344   3.689   6.204 -0.7246 -0.5344  0.0670
  334MOL0     N45007  -0.306   3.810   6.214  0.3895  0.0341 -0.0651
  334MOL0     C45008   0.936   4.022   6.324  0.3474 -0.4216  0.0842
  334MOL0     C45009   1.046   4.025   6.411  0.1680  0.1106  0.4428
  334MOL0     C45010   1.405   4.132   6.638  0.1075 -0.1180 -0.8728
  334MOL0     C45011   1.418   4.196   6.765 -0.6350  0.4669 -1.2943
  334MOL0     C45012   1.545   4.209   6.828  0.3055 -0.1420 -0.1339
  334MOL0     C45013   1.659   4.159   6.765 -0.0635 -0.0605 -0.6755
  334MOL0     O45014   1.782   4.163   6.825  0.4776  0.2684 -0.5970
  334MOL0     C45015   1.816   4.249   6.925  1.1957 -0.6450 -0.6348
  334MOL0     C45016   1.945   4.211   6.998  0.0464  0.0274  0.2527
  334MOL0     C45017   1.982   4.313   7.116  0.5641 -0.7496  0.3687
  334MOL0     C45018   2.121   4.290   7.174  1.3578  0.1274 -0.2758
  334MOL0     C45019   2.160   4.397   7.269  0.3236  0.1723  0.1280
  334MOL0     C45020   2.195   4.493   7.334  0.2581 -0.3949 -0.2736
  334MOL0     C45021   1.655   4.098   6.637 -0.1751 -1.2775  0.4001
  334MOL0     C45022   1.526   4.082   6.576  0.1182  0.0581 -0.1154
  334MOL0     H45023   1.238   4.226   6.217  0.9126  0.2713  2.2761
  334MOL0     H45024   1.049   4.211   6.071 -0.0475  0.4203 -0.3614
  334MOL0     H45025   0.746   3.923   6.002  2.3348  0.5091 -0.5494
  334MOL0     H45026   0.748   3.909   6.173  2.7552  0.4824 -0.7063
  334MOL0     H45027   0.592   4.147   6.136 -4.0759 -0.2541  0.3850
  334MOL0     H45028   0.577   4.048   5.986  2.7820 -1.5499 -2.0215
  334MOL0     H45029   0.496   3.859   6.137 -0.8413 -0.9347  2.3822
  334MOL0     H45030   0.515   3.958   6.281 -1.7889  0.0562  0.6996
  334MOL0     H45031   0.361   4.128   6.190 -1.2256 -0.1697 -2.0575
  334MOL0     H45032   0.342   4.047   6.038 -1.9218  0.5810 -1.1195
  334MOL0     H45033   0.231   3.853   6.134 -1.2357  0.4773 -1.5557
  334MOL0     H45034   0.243   3.916   6.291  1.1658  1.4753  0.0191
  334MOL0     H45035   0.112   4.109   6.253 -1.2011  1.7427 -1.0286
  334MOL0     H45036   0.133   4.104   6.080  5.1964 -1.4366 -0.1037
  334MOL0     H45037  -0.081   4.038   6.100  0.6875  1.1570  2.0642
  334MOL0     H45038   0.008   3.879   6.081 -0.5484 -0.6970 -0.6382
  334MOL0     H45039  -0.121   4.007   6.334  1.4701 -0.7598  1.6927
  334MOL0     H45040   0.002   3.886   6.337 -2.8679 -4.3871  0.6817
  334MOL0     H45041  -0.069   3.642   6.382  1.6521  0.6529 -1.8724
  334MOL0     H45042  -0.382   3.441   6.251  0.8619  1.2518 -2.4456
  334MOL0     H45043  -0.219   3.393   6.288 -2.0028 -1.9653 -0.9796
  334MOL0     H45044  -0.395   3.533   6.500  0.1025 -0.1547  0.9207
  334MOL0     H45045  -0.242   3.439   6.518 -0.2428  0.0114 -0.8413
  334MOL0     H45046  -0.421   3.307   6.588 -0.4226 -0.0205  0.2440
  334MOL0     H45047  -0.393   3.245   6.423  0.0592  1.0455 -2.7741
  334MOL0     H45048  -0.614   3.249   6.476  2.4286 -0.3272 -0.3520
  334MOL0     H45049  -0.593   3.352   6.341 -4.6082 -1.8420  0.2609
  334MOL0     H45050  -0.773   3.476   6.297 -1.9302  2.9595 -1.5118
  334MOL0     H45051  -1.070   3.642   6.216 -1.8356 -0.1963  0.9546
  334MOL0     H45052  -0.930   3.551   6.163  0.0440  3.6575  1.1385
  334MOL0     H45053  -1.086   3.462   6.218 -0.2203 -0.0412  2.7701
  334MOL0     H45054  -1.400   3.374   6.414  0.7519  0.1270  3.1868
  334MOL0     H45055  -1.653   3.366   6.379  1.6498 -1.6484  0.9874
  334MOL0     H45056  -1.937   3.547   6.545  0.1062  2.0224  3.6184
  334MOL0     H45057  -1.817   3.660   6.574 -0.0173 -0.6315  1.3273
  334MOL0     H45058  -1.964   3.801   6.373 -1.6525  3.0391  1.4159
  334MOL0     H45059  -2.080   3.683   6.441  1.3601 -1.3725  1.6988
  334MOL0     H45060  -1.907   3.849   6.644 -0.5809  0.7731  0.3031
  334MOL0     H45061  -2.074   3.800   6.647 -0.4595  0.2258 -0.5704
  334MOL0     H45062  -1.929   4.014   6.511 -1.3039  1.2633 -1.8933
  334MOL0     H45063  -2.093   3.968   6.441 -2.1728  1.2816  0.8869
  334MOL0     H45064  -2.067   4.166   6.613 -0.7481 -0.2582  0.8464
  334MOL0     H45065  -2.052   4.026   6.734  1.9089 -1.5042 -0.0033
  334MOL0     H45066  -2.269   3.955   6.583 -2.9175  0.9100  0.0273
  334MOL0     H45067  -2.257   4.033   6.743 -0.6166  0.7441  0.4598
  334MOL0     H45068  -2.286   4.244   6.663 -1.8398 -0.5593  1.6766
  334MOL0     H45069  -2.417   4.128   6.634 -1.2357 -1.2170 -1.3227
  334MOL0     H45070  -2.397   4.146   6.392  1.0573 -1.6912  0.8368
  334MOL0     H45071  -2.237   4.217   6.399 -0.6791  0.3983 -0.5413
  334MOL0     H45072  -1.655   3.792   6.424  0.2562 -0.6592  0.3761
  334MOL0     H45073  -1.405   3.791   6.436 -3.7586  1.8006 -2.6379
  334MOL0     H45074  -1.009   3.613   6.706  4.0324  2.3637  0.8423
  334MOL0     H45075  -0.781   3.494   6.717  0.7990 -0.0307 -0.2883
  334MOL0     H45076   0.857   3.953   6.351  1.0590 -1.0061  0.7242
  334MOL0     H45077   1.052   3.959   6.497  3.2638 -1.8614 -1.1392
  334MOL0     H45078   1.328   4.237   6.809 -1.8602 -1.6034 -1.7482
  334MOL0     H45079   1.560   4.262   6.922  0.8855 -0.6619  0.0747
  334MOL0     H45080   1.824   4.343   6.869 -1.8706  0.4519  0.5278
  334MOL0     H45081   1.739   4.263   7.001  1.5508 -1.2272 -0.1615
  334MOL0     H45082   2.024   4.210   6.922 -0.1085 -3.9976 -0.0359
  334MOL0     H45083   1.919   4.112   7.035  0.6007 -1.3173 -2.6798
  334MOL0     H45084   1.913   4.304   7.200  3.0845  1.9928  2.9870
  334MOL0     H45085   1.959   4.416   7.089  2.7142  0.3042  2.2245
  334MOL0     H45086   2.194   4.283   7.093  0.7066  0.1746 -0.8703
  334MOL0     H45087   2.129   4.192   7.222 -0.4122  0.3933  0.6296
  334MOL0     H45088   2.241   4.573   7.388  1.7201 -2.4293  1.6566
  334MOL0     H45089   1.755   4.086   6.597 -0.6649  1.6677 -2.0929
  334MOL0     H45090   1.529   4.029   6.481  2.1316 -1.7617  0.8828
  335MOL0     O45091   5.463   6.818   1.207 -0.5052  0.4336  0.3528
  335MOL0     C45092   5.494   6.861   1.099 -0.3737  0.2053 -0.4314
  335MOL0     O45093   5.410   6.881   0.999  0.3178 -0.5381  0.1831
  335MOL0     C45094   5.274   6.866   1.023  0.9049 -0.2702  0.0029
  335MOL0     C45095   5.199   6.757   0.975  0.3824  1.3007  0.8164
  335MOL0     C45096   5.061   6.746   0.982  0.4259  0.1412  1.1037
  335MOL0     C45097   4.988   6.849   1.043 -0.6158  0.0533  0.2018
  335MOL0     O45098   4.856   6.825   1.058  0.0420  0.2614 -0.3475
  335MOL0     C45099   4.761   6.929   1.089 -0.0752  0.2031 -0.5393
  335MOL0     C45100   4.746   7.034   0.982  0.0339 -0.0739 -0.1449
  335MOL0     C45101   4.651   7.148   1.012 -0.7363  0.3862  0.5207
  335MOL0     C45102   4.552   7.124   1.123 -0.2443 -0.9263  0.4150
  335MOL0     C45103   4.476   7.246   1.164 -0.5190  0.0622 -0.1437
  335MOL0     C45104   4.376   7.310   1.065 -0.0218 -0.3108  0.4771
  335MOL0     C45105   4.275   7.418   1.112 -1.2448  0.4642 -0.0580
  335MOL0     C45106   4.176   7.459   1.006 -0.0125 -0.6120  0.3250
  335MOL0     N45107   4.060   7.534   1.060  0.1738  1.0608 -0.4843
  335MOL0     C45108   4.009   7.645   0.998 -0.9669 -0.3754  0.4592
  335MOL0     C45109   3.891   7.665   1.059 -0.2541  1.0679 -0.7677
  335MOL0     C45110   3.790   7.777   1.039 -0.5925  0.3101 -0.3758
  335MOL0     C45111   3.665   7.730   0.962  0.3648  0.3348  1.1661
  335MOL0     C45112   3.544   7.822   0.982 -0.9927  0.8204 -0.0662
  335MOL0     C45113   3.436   7.787   0.886  0.5635 -0.5077  0.1606
  335MOL0     O45114   3.329   7.883   0.915 -0.5289  0.0619 -0.0604
  335MOL0     C45115   3.199   7.875   0.863 -0.7100 -0.3693  0.1919
  335MOL0     C45116   3.161   7.785   0.767 -0.3379  0.8313 -0.6464
  335MOL0     C45117   3.029   7.773   0.724  0.1292  0.1351 -1.1342
  335MOL0     C45118   2.998   7.683   0.607  0.0277  0.4291 -0.8303
  335MOL0     C45119   2.933   7.846   0.803  1.0003 -0.3046 -0.5119
  335MOL0     C45120   2.791   7.847   0.771 -1.0243 -0.1933 -0.0555
  335MOL0     O45121   2.724   7.963   0.811 -0.1281  0.1139  0.1740
  335MOL0     C45122   2.595   7.960   0.780 -0.3995 -0.3838 -0.2544
  335MOL0     C45123   2.554   7.987   0.650 -0.6116 -0.1456 -0.4246
  335MOL0     C45124   2.420   7.989   0.613  0.2027  0.0403  0.0334
  335MOL0     C45125   2.327   7.973   0.711  0.5889  0.0674  0.8590
  335MOL0     O45126   2.197   7.988   0.669 -0.1325 -0.2914 -0.0047
  335MOL0     C45127   2.097   7.920   0.759 -0.6419  0.3772  0.1577
  335MOL0     C45128   1.957   7.956   0.698 -0.0743  0.7503  0.3212
  335MOL0     C45129   1.840   7.916   0.793 -0.5023 -0.3261  0.1990
  335MOL0     C45130   1.712   7.985   0.744  0.5904 -0.5574  0.0946
  335MOL0     C45131   1.647   7.939   0.618 -0.9346  0.4510 -0.2260
  335MOL0     C45132   1.531   8.026   0.588  0.5661 -0.7404  0.0665
  335MOL0     C45133   1.435   7.997   0.473 -0.3021 -0.0558  0.3508
  335MOL0     C45134   1.521   7.970   0.341  0.1839 -0.3841  0.5064
  335MOL0    Cl45135   1.412   7.949   0.195  0.3141 -0.3574  0.2624
  335MOL0     C45136   2.366   7.946   0.848 -0.4062  0.3409  0.0935
  335MOL0     C45137   2.499   7.934   0.880  0.1829  0.5140 -0.5005
  335MOL0     O45138   2.751   7.758   0.700 -0.0435 -0.1088  0.7791
  335MOL0     C45139   2.976   7.944   0.896  0.8516 -0.1144 -0.3452
  335MOL0     C45140   3.112   7.954   0.923 -0.2612  0.3399 -0.6052
  335MOL0     N45141   3.879   7.562   1.167 -0.6807 -0.4416  0.2761
  335MOL0     N45142   3.979   7.494   1.158 -0.1910  1.2862 -0.8404
  335MOL0     C45143   5.059   6.959   1.098 -0.0953 -0.3224 -0.0338
  335MOL0     C45144   5.196   6.969   1.084 -0.3942 -0.3353  0.0457
  335MOL0     C45145   5.645   6.862   1.061 -0.6297  0.2680 -0.2849
  335MOL0     C45146   5.749   6.849   1.156 -0.3618  0.9389 -0.1097
  335MOL0     C45147   5.884   6.857   1.120 -0.7424 -0.1040 -1.4447
  335MOL0     C45148   5.923   6.871   0.988 -1.0398  0.6580  0.4794
  335MOL0     O45149   6.057   6.875   0.953  0.9890 -0.4816  0.1552
  335MOL0     C45150   6.143   6.989   0.989  0.1800  0.7220 -0.4344
  335MOL0     C45151   6.227   6.961   1.108 -0.3336  1.1152  0.4148
  335MOL0     C45152   6.343   7.066   1.127  1.3738  0.3242 -0.2700
  335MOL0     C45153   6.267   7.195   1.185  0.3903  0.8703  0.7238
  335MOL0     C45154   6.362   7.294   1.227 -0.8720  0.7437  0.5670
  335MOL0     C45155   6.454   7.368   1.259 -0.3667  0.7106 -0.6045
  335MOL0     C45156   5.817   6.867   0.894 -0.4363  0.0881 -0.1977
  335MOL0     C45157   5.686   6.862   0.933 -0.4279 -0.2889  0.1605
  335MOL0     H45158   5.244   6.684   0.909  0.5531 -1.5928  3.9033
  335MOL0     H45159   5.009   6.661   0.938  1.7732  0.5305 -1.4477
  335MOL0     H45160   4.666   6.882   1.114  0.6214 -0.0798  1.8902
  335MOL0     H45161   4.781   6.976   1.186  0.3660 -1.7327  0.3485
  335MOL0     H45162   4.843   7.071   0.949  0.0641 -1.8176 -2.2500
  335MOL0     H45163   4.710   6.983   0.893 -2.1130  1.0134  0.0448
  335MOL0     H45164   4.711   7.234   1.041  0.7973  0.2573 -1.9696
  335MOL0     H45165   4.591   7.151   0.920  0.8057  0.7476 -0.5004
  335MOL0     H45166   4.484   7.042   1.098 -1.1688 -0.0549  0.0089
  335MOL0     H45167   4.606   7.082   1.209 -1.0576  0.0367  1.4145
  335MOL0     H45168   4.419   7.222   1.254 -0.9395 -0.8264 -0.6210
  335MOL0     H45169   4.551   7.321   1.187  2.9317 -3.4411  1.1238
  335MOL0     H45170   4.439   7.350   0.985  2.3848  1.5012  3.1017
  335MOL0     H45171   4.325   7.223   1.023 -1.2211 -1.3557  3.8240
  335MOL0     H45172   4.210   7.366   1.183 -2.6115  1.3716 -0.5818
  335MOL0     H45173   4.330   7.495   1.166 -1.1350 -0.9573  1.9570
  335MOL0     H45174   4.131   7.379   0.947 -1.8310  2.0816 -2.2449
  335MOL0     H45175   4.231   7.525   0.937 -3.1566 -1.3260 -3.1934
  335MOL0     H45176   4.050   7.695   0.912  0.4504 -1.7168  0.3021
  335MOL0     H45177   3.764   7.823   1.134  0.9479  2.6233 -0.9930
  335MOL0     H45178   3.853   7.851   0.989  0.3011 -1.3065 -1.7402
  335MOL0     H45179   3.633   7.628   0.986 -3.9841  0.4820 -2.6826
  335MOL0     H45180   3.693   7.739   0.856 -0.9333  2.4386  0.9577
  335MOL0     H45181   3.578   7.926   0.980  1.4858  0.0612 -0.2609
  335MOL0     H45182   3.511   7.791   1.081  3.4680 -4.3371  0.2686
  335MOL0     H45183   3.397   7.685   0.891 -0.0932 -0.2501  4.4129
  335MOL0     H45184   3.471   7.811   0.785 -1.7194  0.7877 -0.3745
  335MOL0     H45185   3.231   7.715   0.723 -1.8875 -1.8492  0.8723
  335MOL0     H45186   3.084   7.632   0.563 -1.3494 -1.3748 -1.5736
  335MOL0     H45187   2.928   7.604   0.636 -1.5603  1.6055 -1.3364
  335MOL0     H45188   2.956   7.743   0.526 -1.5687 -0.9007 -1.0457
  335MOL0     H45189   2.614   8.019   0.565 -0.6815  1.3964  0.0769
  335MOL0     H45190   2.389   8.012   0.512  1.5952  0.3515 -0.3453
  335MOL0     H45191   2.113   7.812   0.763 -0.2550  0.4288  0.0641
  335MOL0     H45192   2.111   7.963   0.859 -1.3509  1.1097 -0.0543
  335MOL0     H45193   1.941   8.064   0.684 -0.7645  0.4505 -1.4869
  335MOL0     H45194   1.943   7.905   0.603 -2.5228 -0.4716  1.2445
  335MOL0     H45195   1.853   7.942   0.899 -0.4464 -2.1608  0.6796
  335MOL0     H45196   1.828   7.807   0.800 -2.0876 -0.1215  1.2281
  335MOL0     H45197   1.639   7.978   0.825 -1.6523  0.5238 -1.7361
  335MOL0     H45198   1.741   8.089   0.726  1.0675 -0.7873 -0.5059
  335MOL0     H45199   1.621   7.833   0.630 -4.3357  1.4218  3.0816
  335MOL0     H45200   1.718   7.948   0.535 -0.7746  0.9243 -0.0409
  335MOL0     H45201   1.455   8.036   0.667 -0.9021  1.9419 -1.5157
  335MOL0     H45202   1.575   8.126   0.577  2.1537 -1.1002  2.3353
  335MOL0     H45203   1.395   8.096   0.450 -0.8742 -0.1371  0.9462
  335MOL0     H45204   1.364   7.914   0.483  0.7805 -0.9659  0.7481
  335MOL0     H45205   1.570   7.873   0.355 -2.2784 -1.8884 -0.5945
  335MOL0     H45206   1.592   8.053   0.329 -0.9863  1.0965  3.0164
  335MOL0     H45207   2.300   7.919   0.930  0.5909  0.6911  1.0334
  335MOL0     H45208   2.537   7.900   0.976  2.4421  2.5095 -0.5903
  335MOL0     H45209   2.916   8.003   0.966 -1.0970 -3.6015  1.1820
  335MOL0     H45210   3.139   8.022   1.003 -2.0759  0.9118 -0.4371
  335MOL0     H45211   4.996   7.035   1.143 -2.0909 -0.5700 -2.1911
  335MOL0     H45212   5.251   7.055   1.121  1.1071 -0.3420 -1.9554
  335MOL0     H45213   5.721   6.861   1.261  0.2855 -2.8280  0.6269
  335MOL0     H45214   5.956   6.881   1.198  0.5527 -0.6862 -2.4231
  335MOL0     H45215   6.207   7.015   0.904 -0.9067  1.2439 -1.1176
  335MOL0     H45216   6.067   7.060   1.023  1.4841  1.3606  1.2616
  335MOL0     H45217   6.268   6.862   1.085 -1.3365  1.3144 -2.6498
  335MOL0     H45218   6.152   6.962   1.187 -1.8043  0.7646 -0.9489
  335MOL0     H45219   6.391   7.089   1.032 -0.6553 -2.2579 -2.0383
  335MOL0     H45220   6.409   7.030   1.206 -1.6735  1.0692  2.8801
  335MOL0     H45221   6.199   7.167   1.267 -0.8268 -0.5489 -0.6995
  335MOL0     H45222   6.202   7.238   1.108  0.0202  0.0018  0.5393
  335MOL0     H45223   6.527   7.427   1.312  0.9730  0.0040 -1.6141
  335MOL0     H45224   5.839   6.860   0.788  0.7605  1.8275 -0.1170
  335MOL0     H45225   5.610   6.871   0.856 -1.1415 -0.6659  0.8105
  336MOL0     O45226   0.975   7.292   1.692  0.1776  0.1556 -1.1091
  336MOL0     C45227   1.083   7.239   1.701  0.1471  0.3493 -0.4180
  336MOL0     O45228   1.125   7.125   1.634 -1.0352 -0.2702 -0.5097
  336MOL0     C45229   1.053   7.087   1.524 -0.2010  0.6855 -0.1940
  336MOL0     C45230   1.096   7.104   1.396 -0.7936  0.3518  0.2651
  336MOL0     C45231   1.035   7.042   1.285  0.2437 -0.0991 -0.3011
  336MOL0     C45232   0.922   6.958   1.304  0.7006  0.3211  0.5096
  336MOL0     O45233   0.860   6.905   1.192 -0.0255  0.1337  0.5389
  336MOL0     C45234   0.810   6.771   1.206  0.9298 -0.1194  0.5967
  336MOL0     C45235   0.661   6.769   1.254  0.6882 -0.1799 -0.6252
  336MOL0     C45236   0.578   6.649   1.203 -0.5408 -0.2134 -0.6548
  336MOL0     C45237   0.441   6.708   1.195  0.0920 -0.1370  0.7236
  336MOL0     C45238   0.341   6.602   1.147 -0.6704  0.1462 -0.1485
  336MOL0     C45239   0.201   6.662   1.143 -0.5493  0.2594 -0.6787
  336MOL0     C45240   0.098   6.561   1.102  0.3952  0.5431  0.0745
  336MOL0     C45241   0.054   6.483   1.221 -0.9070 -0.6545  0.4203
  336MOL0     N45242  -0.043   6.391   1.173 -0.3093 -0.5051  0.1859
  336MOL0     C45243  -0.160   6.431   1.131  1.1737 -0.1661  0.5592
  336MOL0     C45244  -0.224   6.322   1.082 -0.7123  1.0313 -1.2824
  336MOL0     C45245  -0.350   6.321   0.995  1.0735  0.0160  0.5134
  336MOL0     C45246  -0.482   6.257   1.059 -0.1114 -0.3145  0.7163
  336MOL0     C45247  -0.603   6.249   0.968 -0.0190 -0.1568  0.1706
  336MOL0     C45248  -0.693   6.377   0.978 -0.3254 -0.2558 -0.5729
  336MOL0     O45249  -0.757   6.384   1.105  0.7329  0.1302 -0.6013
  336MOL0     C45250  -0.889   6.434   1.109  0.3912  1.0498  0.6723
  336MOL0     C45251  -0.923   6.565   1.132  0.0576 -0.3773 -0.5351
  336MOL0     C45252  -1.062   6.608   1.120 -0.1398  0.0038 -0.2132
  336MOL0     C45253  -1.093   6.755   1.100  1.4925  0.0400  0.5530
  336MOL0     C45254  -1.163   6.506   1.099 -0.1464 -0.1715  0.9520
  336MOL0     C45255  -1.313   6.530   1.092  0.7102 -0.2242 -0.6022
  336MOL0     O45256  -1.398   6.419   1.076 -0.1089 -0.1430  0.7830
  336MOL0     C45257  -1.531   6.440   1.096  0.3642 -0.9441  0.0433
  336MOL0     C45258  -1.612   6.408   0.994  0.0105 -0.0920 -0.2686
  336MOL0     C45259  -1.751   6.435   0.996 -0.7440  0.2351 -0.0171
  336MOL0     C45260  -1.808   6.491   1.110 -0.0782  0.3694 -0.1275
  336MOL0     O45261  -1.942   6.525   1.103  0.2354  0.1373 -0.2919
  336MOL0     C45262  -2.034   6.449   1.178 -0.0224  0.3342  0.3617
  336MOL0     C45263  -2.171   6.455   1.092 -0.4404  0.3834  0.3831
  336MOL0     C45264  -2.294   6.395   1.175 -0.7228  1.4377  0.4775
  336MOL0     C45265  -2.423   6.447   1.101  0.3000  0.3879 -0.2593
  336MOL0     C45266  -2.559   6.394   1.150  0.2465  0.4512  0.2551
  336MOL0     C45267  -2.683   6.427   1.066 -0.9868 -0.0749 -0.2810
  336MOL0     C45268  -2.808   6.360   1.137  0.4140  0.2338  0.4916
  336MOL0     C45269  -2.925   6.419   1.065 -0.3426  0.3428 -1.1815
  336MOL0    Cl45270  -2.932   6.353   0.900 -0.0788  0.2413  0.2033
  336MOL0     C45271  -1.730   6.525   1.220  0.2993 -0.0537 -0.6676
  336MOL0     C45272  -1.589   6.487   1.215 -0.7308  1.6665 -0.1560
  336MOL0     O45273  -1.347   6.648   1.083  0.3049 -0.2534 -0.7054
  336MOL0     C45274  -1.121   6.371   1.072 -0.3546  0.6231 -0.7252
  336MOL0     C45275  -0.981   6.341   1.076  0.3418  0.0531  0.1815
  336MOL0     N45276  -0.143   6.212   1.119  1.6667 -0.4054  0.0152
  336MOL0     N45277  -0.035   6.261   1.170 -0.6827  1.1840 -1.1396
  336MOL0     C45278   0.880   6.942   1.437 -0.1803 -0.5724  0.3192
  336MOL0     C45279   0.944   7.004   1.544  0.2554 -0.3789 -0.4061
  336MOL0     C45280   1.171   7.291   1.799 -0.1109 -0.4421 -0.7169
  336MOL0     C45281   1.310   7.270   1.790 -0.0660 -0.0310  0.0920
  336MOL0     C45282   1.404   7.316   1.887  0.1733  0.0648  0.8824
  336MOL0     C45283   1.356   7.403   1.989 -0.1129 -0.2757 -0.1792
  336MOL0     O45284   1.435   7.468   2.086  0.9766 -0.2633 -0.2658
  336MOL0     C45285   1.558   7.408   2.116  0.4529 -0.2806  0.9050
  336MOL0     C45286   1.642   7.488   2.217 -0.2457 -0.2792  0.8656
  336MOL0     C45287   1.574   7.616   2.244  0.4554  0.2262  0.3280
  336MOL0     C45288   1.647   7.707   2.340 -0.0145 -0.1084  0.3883
  336MOL0     C45289   1.563   7.821   2.379 -0.9839  0.0833  0.2324
  336MOL0     C45290   1.505   7.917   2.418  0.0816 -0.8148  0.2254
  336MOL0     C45291   1.221   7.418   2.003  0.3925 -0.0637  0.1733
  336MOL0     C45292   1.136   7.364   1.909  0.3024 -0.5918  0.5795
  336MOL0     H45293   1.177   7.175   1.387 -0.5933  0.5268  2.6517
  336MOL0     H45294   1.079   7.074   1.191  2.7749  3.0808  1.7267
  336MOL0     H45295   0.801   6.735   1.103 -0.9276 -0.0327  0.6804
  336MOL0     H45296   0.864   6.698   1.266  0.3288 -2.4513 -1.5261
  336MOL0     H45297   0.662   6.757   1.362 -0.0540  5.4360  0.3010
  336MOL0     H45298   0.624   6.870   1.234  2.9751  0.3659 -2.6605
  336MOL0     H45299   0.608   6.615   1.103  0.1588 -1.2417 -0.1177
  336MOL0     H45300   0.589   6.565   1.272 -0.5093 -2.5997 -3.3588
  336MOL0     H45301   0.403   6.755   1.286  0.7432 -0.9111  1.4161
  336MOL0     H45302   0.440   6.787   1.119 -1.4845  0.5404  1.4081
  336MOL0     H45303   0.370   6.557   1.051  1.6812  0.8578  0.1777
  336MOL0     H45304   0.350   6.525   1.224  0.0178 -2.7885 -2.9441
  336MOL0     H45305   0.181   6.705   1.241  0.7583 -1.9633  0.6440
  336MOL0     H45306   0.198   6.750   1.077  1.5391  0.6493 -0.3041
  336MOL0     H45307   0.022   6.602   1.035  2.4260  1.5732 -1.7151
  336MOL0     H45308   0.147   6.490   1.035 -2.7092 -0.8847 -0.8370
  336MOL0     H45309   0.017   6.554   1.296  3.0120  0.3514  1.6235
  336MOL0     H45310   0.142   6.433   1.260 -0.1173 -0.3987 -0.9701
  336MOL0     H45311  -0.192   6.535   1.122 -1.2104 -0.9138 -0.1948
  336MOL0     H45312  -0.385   6.418   0.958 -1.0175 -0.5670  0.8042
  336MOL0     H45313  -0.324   6.269   0.902 -2.1392 -1.9012  0.5196
  336MOL0     H45314  -0.503   6.329   1.139  0.5590  2.7502 -1.6602
  336MOL0     H45315  -0.450   6.160   1.099 -0.9482 -1.3536 -1.0398
  336MOL0     H45316  -0.666   6.163   0.995  0.2877 -0.7398 -0.9125
  336MOL0     H45317  -0.568   6.233   0.865 -0.6914 -1.3635  0.1185
  336MOL0     H45318  -0.766   6.381   0.896 -1.2522 -0.8227  0.2144
  336MOL0     H45319  -0.636   6.470   0.975 -2.2707  1.0575  0.8574
  336MOL0     H45320  -0.842   6.637   1.128 -0.2219 -0.0636 -0.6226
  336MOL0     H45321  -1.160   6.797   1.176  0.7973 -0.6667  0.3462
  336MOL0     H45322  -0.999   6.809   1.103  1.4912  0.0498  0.4163
  336MOL0     H45323  -1.144   6.777   1.006 -0.1485  0.1083  1.4220
  336MOL0     H45324  -1.571   6.367   0.902  0.2496  0.1114 -0.2533
  336MOL0     H45325  -1.818   6.410   0.914  0.4640 -0.5919 -0.7801
  336MOL0     H45326  -2.002   6.345   1.185 -0.3381  0.3615  3.1496
  336MOL0     H45327  -2.046   6.488   1.280 -1.3844 -2.7949  1.4925
  336MOL0     H45328  -2.182   6.561   1.071  0.5295  0.5951  0.8683
  336MOL0     H45329  -2.173   6.410   0.992  2.0901  1.8314 -0.4152
  336MOL0     H45330  -2.279   6.433   1.276  3.4116 -0.4804  0.7806
  336MOL0     H45331  -2.294   6.285   1.171  0.3342  1.4573 -0.2245
  336MOL0     H45332  -2.431   6.555   1.114 -1.6028  0.1744  0.7822
  336MOL0     H45333  -2.405   6.431   0.994 -3.0292 -2.3590 -0.5986
  336MOL0     H45334  -2.573   6.446   1.245  1.2623  0.1578  0.5770
  336MOL0     H45335  -2.541   6.288   1.170 -1.0231  0.0249 -0.7133
  336MOL0     H45336  -2.681   6.536   1.063  2.8131  0.0752  1.4839
  336MOL0     H45337  -2.663   6.381   0.969  2.2893 -0.9194  0.6546
  336MOL0     H45338  -2.803   6.378   1.245  0.1675 -1.8354  0.8740
  336MOL0     H45339  -2.805   6.252   1.121  2.9098  0.1349  1.1107
  336MOL0     H45340  -2.916   6.528   1.062 -1.2571  0.5394  1.1437
  336MOL0     H45341  -3.016   6.383   1.115 -1.2024 -0.7358 -3.3988
  336MOL0     H45342  -1.780   6.553   1.313 -1.0988  0.0835 -1.4278
  336MOL0     H45343  -1.531   6.487   1.307 -0.7599 -1.6953 -0.0336
  336MOL0     H45344  -1.186   6.286   1.054 -2.1282  1.3174  1.7626
  336MOL0     H45345  -0.948   6.239   1.059  2.4974  0.8775 -0.8535
  336MOL0     H45346   0.792   6.883   1.458  0.5802 -0.9442  2.6729
  336MOL0     H45347   0.913   6.982   1.646  0.0168 -0.2144 -0.4428
  336MOL0     H45348   1.346   7.213   1.706 -2.1779 -0.2026 -0.7614
  336MOL0     H45349   1.511   7.307   1.869  0.1384 -0.9495  1.1106
  336MOL0     H45350   1.553   7.305   2.152  1.1757 -1.1592 -1.2843
  336MOL0     H45351   1.612   7.401   2.020  1.0729 -3.7589  1.3667
  336MOL0     H45352   1.732   7.515   2.161 -1.1472 -2.3481 -1.8067
  336MOL0     H45353   1.664   7.428   2.306  0.5712  0.0135  0.8650
  336MOL0     H45354   1.472   7.606   2.282 -0.6040 -1.6499 -2.6988
  336MOL0     H45355   1.567   7.679   2.156  4.0705 -0.8215 -0.8724
  336MOL0     H45356   1.738   7.742   2.290  1.9783 -0.9175  3.1865
  336MOL0     H45357   1.678   7.645   2.425 -0.2066 -0.2116  0.3841
  336MOL0     H45358   1.465   8.005   2.465 -0.9611 -1.1905  0.0682
  336MOL0     H45359   1.200   7.489   2.082  3.1013  0.4080  0.5721
  336MOL0     H45360   1.029   7.383   1.914 -0.1435 -1.5241 -2.7061
  337MOL0     O45361   6.762   8.248  11.329 -0.1633 -0.1455 -0.3403
  337MOL0     C45362   6.745   8.348  11.259  0.9283  0.1330 -0.1748
  337MOL0     O45363   6.657   8.356  11.157  0.0311  0.2303 -0.7148
  337MOL0     C45364   6.568   8.257  11.115  0.1403  0.4760 -0.2449
  337MOL0     C45365   6.554   8.235  10.983  0.3425  1.2202 -0.5356
  337MOL0     C45366   6.454   8.156  10.923 -0.1687 -0.1925  0.1053
  337MOL0     C45367   6.363   8.082  11.009  0.0221 -0.4853  0.1240
  337MOL0     O45368   6.254   8.017  10.963  0.3630  0.0442 -0.3310
  337MOL0     C45369   6.206   8.021  10.831 -0.6346 -0.9710 -0.2389
  337MOL0     C45370   6.078   7.944  10.818  0.3420 -0.8154  0.2283
  337MOL0     C45371   6.100   7.796  10.822 -0.6337  0.5228  0.3137
  337MOL0     C45372   5.963   7.731  10.816 -0.1057 -0.4658  0.6198
  337MOL0     C45373   5.974   7.587  10.862  0.5854  0.7833  0.2707
  337MOL0     C45374   5.835   7.517  10.859  0.2575 -0.6427  0.1702
  337MOL0     C45375   5.829   7.397  10.954 -0.3213  0.3887  0.6740
  337MOL0     C45376   5.697   7.317  10.945 -0.1345  0.2351 -0.4760
  337MOL0     N45377   5.569   7.401  10.933 -0.1451  0.5645 -0.2151
  337MOL0     C45378   5.464   7.354  10.858  0.4184  0.2567 -0.2062
  337MOL0     C45379   5.354   7.436  10.890  0.3075  0.1660  0.8084
  337MOL0     C45380   5.222   7.408  10.834  0.0757 -0.1285 -0.3064
  337MOL0     C45381   5.120   7.352  10.930 -0.3417 -0.4892  0.7604
  337MOL0     C45382   4.985   7.364  10.869 -0.0249  0.1183  0.6976
  337MOL0     C45383   4.874   7.314  10.964 -0.2790  0.4933  0.1808
  337MOL0     O45384   4.745   7.315  10.891  1.0593 -0.7929 -0.0661
  337MOL0     C45385   4.625   7.295  10.963 -0.5158 -0.1388  0.0066
  337MOL0     C45386   4.607   7.300  11.106 -0.0545  0.1454  0.4772
  337MOL0     C45387   4.477   7.271  11.164  0.1589 -0.8471 -0.3784
  337MOL0     C45388   4.477   7.292  11.314 -0.8207  0.1299 -0.8806
  337MOL0     C45389   4.366   7.221  11.085 -0.0634 -0.1994  0.4774
  337MOL0     C45390   4.238   7.186  11.137  1.3523 -0.3441  0.3732
  337MOL0     O45391   4.143   7.187  11.036 -0.1826  0.2473 -0.0685
  337MOL0     C45392   4.028   7.117  11.059 -0.4527  0.0304 -0.2244
  337MOL0     C45393   4.007   7.006  10.986 -1.1180  0.0430 -0.3591
  337MOL0     C45394   3.894   6.926  10.996  0.3190 -0.2797 -0.7341
  337MOL0     C45395   3.796   6.967  11.090 -0.2303  0.0019  0.3117
  337MOL0     O45396   3.682   6.896  11.125 -0.2751  0.3583  0.2134
  337MOL0     C45397   3.649   6.793  11.029 -0.0785 -0.6193  0.3716
  337MOL0     C45398   3.507   6.761  11.049 -0.8957 -0.0337  0.6471
  337MOL0     C45399   3.469   6.678  11.174 -0.3158  0.4467 -0.0470
  337MOL0     C45400   3.336   6.609  11.181 -0.5612  0.7390  0.0694
  337MOL0     C45401   3.219   6.702  11.152 -0.0856  0.1695  0.4170
  337MOL0     C45402   3.133   6.734  11.275  0.7447  0.4842 -0.1426
  337MOL0     C45403   3.008   6.807  11.226 -0.2271 -0.1537  0.0911
  337MOL0     C45404   2.955   6.867  11.343 -0.0061 -0.2213  0.4648
  337MOL0    Cl45405   2.811   6.974  11.330  0.3863 -0.1105  0.0751
  337MOL0     C45406   3.820   7.084  11.168 -0.1924 -1.2218  0.3320
  337MOL0     C45407   3.928   7.168  11.144  0.3134 -0.5995 -0.1337
  337MOL0     O45408   4.220   7.149  11.247 -0.6287  0.8112 -0.6352
  337MOL0     C45409   4.382   7.238  10.945 -0.7808  0.9598 -0.0747
  337MOL0     C45410   4.511   7.275  10.889 -1.0526 -0.7626 -0.0721
  337MOL0     N45411   5.397   7.531  10.979  1.2420  0.7187  0.2053
  337MOL0     N45412   5.520   7.506  11.005 -0.1238 -0.0205  0.1556
  337MOL0     C45413   6.374   8.114  11.146  0.3702 -0.1045 -0.3925
  337MOL0     C45414   6.475   8.200  11.197 -0.3221 -0.1017  0.3885
  337MOL0     C45415   6.829   8.463  11.293  0.3737 -1.0207  0.6176
  337MOL0     C45416   6.841   8.568  11.199  0.5932  0.1761  0.4634
  337MOL0     C45417   6.932   8.673  11.220  0.1028  0.7081 -0.3347
  337MOL0     C45418   6.996   8.688  11.341  0.1506  0.3459  0.4207
  337MOL0     O45419   7.090   8.790  11.346  0.3446  0.3148  0.1535
  337MOL0     C45420   7.179   8.803  11.457  0.0468  0.1148  0.3089
  337MOL0     C45421   7.248   8.925  11.421  0.6139 -0.1084  0.9235
  337MOL0     C45422   7.377   8.953  11.502 -0.2123  0.4050 -0.4323
  337MOL0     C45423   7.355   8.947  11.657 -0.4313 -0.0355 -0.4412
  337MOL0     C45424   7.479   8.976  11.733 -0.5770  0.4026 -0.1917
  337MOL0     C45425   7.580   9.000  11.803  0.5228 -0.7416  0.8940
  337MOL0     C45426   6.978   8.588  11.434 -0.0441 -0.1419  0.4812
  337MOL0     C45427   6.901   8.474  11.412  0.8223 -0.0165 -0.7885
  337MOL0     H45428   6.630   8.292  10.929  3.9874 -1.0103  1.7736
  337MOL0     H45429   6.447   8.149  10.815  3.0541  2.9902 -0.4811
  337MOL0     H45430   6.183   8.124  10.802  0.3521 -0.5685  0.3392
  337MOL0     H45431   6.283   7.980  10.764 -2.7500  0.3407 -3.7219
  337MOL0     H45432   6.016   7.985  10.898  2.3741  1.9470  0.4971
  337MOL0     H45433   6.041   7.966  10.717  2.1354  0.7583 -0.1343
  337MOL0     H45434   6.158   7.767  10.734  0.0094 -1.2923  1.2756
  337MOL0     H45435   6.155   7.768  10.913 -2.0872 -0.7457  0.8376
  337MOL0     H45436   5.891   7.779  10.882 -0.7879  0.4155 -0.7172
  337MOL0     H45437   5.927   7.740  10.713  0.7747  1.9332  0.4732
  337MOL0     H45438   6.047   7.539  10.795 -0.2023 -0.6797  0.4029
  337MOL0     H45439   6.012   7.603  10.963  1.6075 -2.2365  0.4651
  337MOL0     H45440   5.759   7.592  10.883  1.0549 -0.4648  2.3530
  337MOL0     H45441   5.809   7.492  10.755  1.9784  1.5179 -0.8690
  337MOL0     H45442   5.909   7.323  10.944 -0.5504  0.3478 -1.1804
  337MOL0     H45443   5.836   7.446  11.052 -3.0619  1.4116  0.4282
  337MOL0     H45444   5.684   7.266  11.041  1.9429 -1.5454 -1.0673
  337MOL0     H45445   5.693   7.241  10.867 -4.0997  0.7708 -1.0289
  337MOL0     H45446   5.456   7.263  10.799  0.9353  0.3476 -0.4193
  337MOL0     H45447   5.190   7.507  10.800 -1.7294  0.1981  2.0907
  337MOL0     H45448   5.220   7.343  10.746 -0.7082  0.1850 -0.5314
  337MOL0     H45449   5.122   7.404  11.027  1.4907  0.5215  0.2172
  337MOL0     H45450   5.142   7.247  10.950  1.7690 -0.0330  1.0328
  337MOL0     H45451   4.989   7.304  10.778 -4.0111  0.7719 -0.0795
  337MOL0     H45452   4.958   7.463  10.833  3.1518  0.5759 -0.7552
  337MOL0     H45453   4.867   7.377  11.053  2.3925  0.4915  0.4597
  337MOL0     H45454   4.906   7.215  10.997  1.3926  1.1643  0.6764
  337MOL0     H45455   4.685   7.356  11.158 -1.2647  1.1184  1.3134
  337MOL0     H45456   4.446   7.393  11.342 -0.9808  0.0342 -0.7098
  337MOL0     H45457   4.410   7.221  11.364  0.4640 -0.1083  0.5765
  337MOL0     H45458   4.572   7.274  11.365  1.5057  2.9764 -3.8246
  337MOL0     H45459   4.085   6.978  10.916 -0.6177  3.3916 -1.3117
  337MOL0     H45460   3.887   6.835  10.937 -1.5853  1.3571 -3.2338
  337MOL0     H45461   3.651   6.850  10.935  0.3147  5.6284  3.6349
  337MOL0     H45462   3.718   6.709  11.028  2.5474  1.4069 -0.1405
  337MOL0     H45463   3.448   6.853  11.054  0.5898  0.9258  1.3114
  337MOL0     H45464   3.483   6.712  10.955  0.8088  1.3901 -0.5910
  337MOL0     H45465   3.484   6.742  11.262  3.5555 -2.0266  1.3546
  337MOL0     H45466   3.544   6.599  11.178  1.0606  1.6586 -0.8627
  337MOL0     H45467   3.323   6.537  11.100 -3.7377  0.7346  0.4650
  337MOL0     H45468   3.334   6.570  11.283 -1.7743  2.1444  0.6169
  337MOL0     H45469   3.160   6.655  11.074  1.1348  1.8885 -1.6574
  337MOL0     H45470   3.256   6.796  11.109  4.0371 -1.6114 -0.4159
  337MOL0     H45471   3.109   6.636  11.319 -0.6394  1.6163  1.7856
  337MOL0     H45472   3.197   6.789  11.344 -0.6779  0.1977  1.4874
  337MOL0     H45473   2.939   6.737  11.178  0.7029 -0.9814 -0.0616
  337MOL0     H45474   3.027   6.884  11.149 -2.1972 -1.7591 -2.1457
  337MOL0     H45475   3.028   6.936  11.387  0.5462 -0.0119 -0.7428
  337MOL0     H45476   2.922   6.800  11.424 -2.0363  2.9219  2.4425
  337MOL0     H45477   3.743   7.110  11.240  1.7025  1.1297  1.6598
  337MOL0     H45478   3.943   7.257  11.204  0.4138 -3.8087  5.2163
  337MOL0     H45479   4.305   7.221  10.871 -0.6646 -1.3901  0.2748
  337MOL0     H45480   4.516   7.278  10.780 -1.9974  1.3731 -0.1185
  337MOL0     H45481   6.304   8.063  11.212  0.7297 -1.3529 -0.9282
  337MOL0     H45482   6.483   8.222  11.303 -0.1562 -0.7956  0.5268
  337MOL0     H45483   6.781   8.568  11.109 -0.3187 -0.6939  1.0499
  337MOL0     H45484   6.955   8.747  11.144  2.1616  1.5628  1.0366
  337MOL0     H45485   7.122   8.808  11.550  1.0649  1.5036  0.8992
  337MOL0     H45486   7.253   8.722  11.459  0.6693  0.6686  2.1313
  337MOL0     H45487   7.176   9.004  11.443  1.4228  0.5162  1.4313
  337MOL0     H45488   7.273   8.932  11.315 -4.0471  0.9916 -0.3100
  337MOL0     H45489   7.408   9.054  11.473  1.1056  0.2740  0.4716
  337MOL0     H45490   7.451   8.877  11.474  0.6685  1.6885 -1.7550
  337MOL0     H45491   7.321   8.844  11.665  1.6833 -1.0586 -3.0410
  337MOL0     H45492   7.282   9.023  11.689  0.5676  0.6986  0.1558
  337MOL0     H45493   7.670   9.028  11.854  0.6860  0.4164  0.0151
  337MOL0     H45494   7.030   8.604  11.528  0.6776  1.5573 -0.1654
  337MOL0     H45495   6.891   8.405  11.495 -4.4724  2.8206  1.4356
  338MOL0     O45496   8.413   3.754  10.293  0.4086 -0.2197 -0.2602
  338MOL0     C45497   8.429   3.874  10.315 -0.4534 -0.8482 -0.5286
  338MOL0     O45498   8.345   3.955  10.385 -0.0699 -0.0121  0.4802
  338MOL0     C45499   8.215   3.896  10.407 -0.4579 -0.1006 -0.1813
  338MOL0     C45500   8.137   3.830  10.317 -0.2769 -0.2547  0.3902
  338MOL0     C45501   8.000   3.788  10.344 -0.5242  0.7864 -0.7306
  338MOL0     C45502   7.941   3.820  10.464 -0.1664 -0.4073  0.1021
  338MOL0     O45503   7.811   3.794  10.496 -0.2608  0.7042 -0.3961
  338MOL0     C45504   7.710   3.789  10.396 -0.2767 -0.1634  0.3790
  338MOL0     C45505   7.573   3.752  10.459 -0.8072 -0.0172  0.0908
  338MOL0     C45506   7.478   3.713  10.353  0.1547  0.3742 -0.0105
  338MOL0     C45507   7.332   3.716  10.401 -0.2746  0.1770  0.7430
  338MOL0     C45508   7.235   3.693  10.292 -0.0138  0.5911 -0.2407
  338MOL0     C45509   7.088   3.706  10.354  0.3195  0.7275 -0.2069
  338MOL0     C45510   6.972   3.671  10.256 -0.3519 -0.7323 -0.4885
  338MOL0     C45511   6.839   3.682  10.331 -0.3946  0.0471  0.4760
  338MOL0     N45512   6.726   3.617  10.263 -0.3745  0.4085 -0.2552
  338MOL0     C45513   6.715   3.621  10.126 -0.2061 -0.6018  0.2919
  338MOL0     C45514   6.593   3.571  10.101  0.1118 -0.3008 -0.4268
  338MOL0     C45515   6.524   3.549   9.966  0.4154 -0.2483 -0.6210
  338MOL0     C45516   6.603   3.586   9.839  0.2544  0.6190  0.3085
  338MOL0     C45517   6.592   3.723   9.802  0.4523 -1.2288  0.4083
  338MOL0     C45518   6.713   3.791   9.737  0.7210  0.1664  0.1320
  338MOL0     O45519   6.813   3.827   9.838  0.1068 -0.1846 -0.1341
  338MOL0     C45520   6.782   3.925   9.922 -0.0814  0.4408  0.7684
  338MOL0     C45521   6.875   3.940  10.018 -0.4064  0.0860 -0.5104
  338MOL0     C45522   6.853   4.035  10.123 -0.6066  0.7194  0.0133
  338MOL0     C45523   6.955   4.043  10.232  0.1842  0.2086  0.6088
  338MOL0     C45524   6.739   4.118  10.135  0.7035  0.0690  0.2825
  338MOL0     C45525   6.713   4.223  10.238 -0.0670 -0.4802 -0.3856
  338MOL0     O45526   6.615   4.317  10.200  0.5119 -0.0447  1.2489
  338MOL0     C45527   6.597   4.413  10.294  0.1285  0.8456 -1.1069
  338MOL0     C45528   6.689   4.517  10.309  0.9687 -0.6120 -0.0399
  338MOL0     C45529   6.672   4.616  10.399  1.1083 -0.3396  0.4156
  338MOL0     C45530   6.562   4.617  10.491 -0.6418 -0.0993  0.4840
  338MOL0     O45531   6.545   4.721  10.583  0.1978  0.7330 -0.0266
  338MOL0     C45532   6.557   4.672  10.716 -0.7070 -0.7110  0.1602
  338MOL0     C45533   6.459   4.753  10.795  0.5547  0.4254 -0.3250
  338MOL0     C45534   6.314   4.700  10.764 -0.4982  0.6959 -0.9227
  338MOL0     C45535   6.213   4.730  10.882  0.5162 -0.1744  0.3041
  338MOL0     C45536   6.067   4.689  10.856 -0.4784  0.5382  0.2718
  338MOL0     C45537   5.985   4.738  10.969  0.2065 -0.0498 -0.4579
  338MOL0     C45538   5.839   4.698  10.958  0.2239 -0.0401 -0.0564
  338MOL0     C45539   5.821   4.546  10.942  0.3199  0.2450  0.7639
  338MOL0    Cl45540   5.884   4.452  11.077 -0.2097  0.1108  0.0533
  338MOL0     C45541   6.465   4.514  10.470 -0.7943  0.8035  0.3853
  338MOL0     C45542   6.483   4.417  10.375  0.0611 -0.3316  0.1172
  338MOL0     O45543   6.770   4.218  10.353 -0.3136  0.0438 -0.1708
  338MOL0     C45544   6.656   4.111  10.018  0.0175 -0.2065  0.1119
  338MOL0     C45545   6.679   4.017   9.916  0.6118  0.9273  0.4677
  338MOL0     N45546   6.530   3.554  10.226  0.8635 -0.8682  0.3162
  338MOL0     N45547   6.609   3.579  10.317 -0.9837 -0.2435 -0.7113
  338MOL0     C45548   8.023   3.899  10.552 -0.2542 -0.4498  0.6563
  338MOL0     C45549   8.156   3.940  10.528 -0.8647  0.4346  0.2787
  338MOL0     C45550   8.563   3.923  10.267 -0.1238 -0.5264  0.7040
  338MOL0     C45551   8.611   4.051  10.308 -0.6594 -0.5143 -0.0030
  338MOL0     C45552   8.745   4.085  10.273  1.2236 -0.2669 -0.3236
  338MOL0     C45553   8.827   4.009  10.191 -0.7983  0.8367  0.0714
  338MOL0     O45554   8.957   4.057  10.158 -0.0049 -0.2132  0.1590
  338MOL0     C45555   9.024   4.154  10.241 -0.4094  0.1525  0.3726
  338MOL0     C45556   9.066   4.098  10.375 -0.1651  0.4655  0.8565
  338MOL0     C45557   9.217   4.122  10.409 -0.3188 -0.1086 -0.3785
  338MOL0     C45558   9.242   4.077  10.556  0.2989 -0.1986 -0.3271
  338MOL0     C45559   9.237   3.928  10.572 -0.5610 -0.4531 -0.0772
  338MOL0     C45560   9.238   3.814  10.568  0.5114  0.2945  0.7268
  338MOL0     C45561   8.771   3.897  10.129  0.9115 -0.9588  0.3998
  338MOL0     C45562   8.642   3.847  10.170 -0.1906  0.6412  0.4555
  338MOL0     H45563   8.166   3.809  10.215  0.7762  1.0571  0.3979
  338MOL0     H45564   7.960   3.714  10.276 -0.2259  0.4615 -0.5606
  338MOL0     H45565   7.683   3.885  10.352  1.7762  0.4811  0.4414
  338MOL0     H45566   7.744   3.726  10.314  0.6544 -0.0733  0.6877
  338MOL0     H45567   7.580   3.665  10.526 -0.8798 -1.6129 -1.8708
  338MOL0     H45568   7.537   3.843  10.508 -1.4248  2.0562 -3.8128
  338MOL0     H45569   7.497   3.782  10.270  2.5633  1.0548  1.0107
  338MOL0     H45570   7.499   3.611  10.321  3.9573  1.3575 -1.1881
  338MOL0     H45571   7.325   3.638  10.477 -0.4499 -1.0643 -0.4981
  338MOL0     H45572   7.314   3.821  10.428  0.0828  0.6808 -0.8812
  338MOL0     H45573   7.253   3.777  10.225 -0.9656  0.0785 -1.1792
  338MOL0     H45574   7.241   3.610  10.220 -4.2381 -0.0411 -0.1572
  338MOL0     H45575   7.085   3.628  10.430 -0.8148  0.7177 -0.2426
  338MOL0     H45576   7.070   3.803  10.401  0.0071  0.2817  0.6174
  338MOL0     H45577   6.968   3.738  10.170  0.4636 -0.3321 -0.2253
  338MOL0     H45578   6.987   3.566  10.231 -0.8045 -0.7908 -0.5135
  338MOL0     H45579   6.821   3.789  10.336 -0.1668  0.0735  0.7601
  338MOL0     H45580   6.835   3.642  10.433 -0.3207 -2.2063 -0.3376
  338MOL0     H45581   6.792   3.660  10.061  1.5326 -1.7846  1.5547
  338MOL0     H45582   6.505   3.442   9.964  2.0497 -0.6944  2.6017
  338MOL0     H45583   6.425   3.594   9.973  0.3122 -0.4028 -1.0256
  338MOL0     H45584   6.568   3.527   9.754  1.3133 -0.5425  0.6366
  338MOL0     H45585   6.709   3.564   9.848  0.5351  1.3527 -1.0213
  338MOL0     H45586   6.567   3.781   9.891  0.7076  0.9360 -0.8675
  338MOL0     H45587   6.502   3.742   9.743 -0.5075 -2.1499  1.5334
  338MOL0     H45588   6.685   3.882   9.684 -1.2082 -0.6687 -0.3840
  338MOL0     H45589   6.770   3.727   9.670  1.5167  2.6254 -1.6738
  338MOL0     H45590   6.964   3.880  10.011 -0.1897  0.1621  1.1490
  338MOL0     H45591   6.979   4.148  10.248 -2.0595  0.6575  1.4648
  338MOL0     H45592   6.923   3.999  10.327 -0.0107  4.3468  2.7069
  338MOL0     H45593   7.045   3.992  10.199  1.2487  0.8286  2.4540
  338MOL0     H45594   6.779   4.520  10.248  0.2831  0.7421 -1.0381
  338MOL0     H45595   6.746   4.693  10.418 -1.5438  2.0576  1.7696
  338MOL0     H45596   6.550   4.563  10.719  0.8880 -0.9079 -1.4289
  338MOL0     H45597   6.656   4.705  10.749 -1.1050  1.2854 -0.4988
  338MOL0     H45598   6.484   4.769  10.900  0.0437  3.8944 -0.6139
  338MOL0     H45599   6.472   4.853  10.751  1.7309  0.1923 -0.5361
  338MOL0     H45600   6.316   4.596  10.731 -2.5213  1.7289 -4.7976
  338MOL0     H45601   6.280   4.758  10.678 -0.1844  1.3567 -0.6062
  338MOL0     H45602   6.253   4.680  10.971  3.4427  0.4668 -0.5411
  338MOL0     H45603   6.207   4.837  10.900 -0.0118  0.4280 -2.8188
  338MOL0     H45604   6.066   4.581  10.841  2.1110  0.0443  2.7765
  338MOL0     H45605   6.030   4.741  10.767  2.2313  2.8847  0.3971
  338MOL0     H45606   6.027   4.694  11.061 -0.8572 -0.3027 -0.0782
  338MOL0     H45607   5.991   4.847  10.976 -0.7901  0.1100 -1.8511
  338MOL0     H45608   5.794   4.747  10.872 -0.7220 -2.1034 -0.7897
  338MOL0     H45609   5.789   4.736  11.048  0.0438 -1.2520  0.3723
  338MOL0     H45610   5.851   4.504  10.845 -1.8596 -1.4053  0.7336
  338MOL0     H45611   5.715   4.523  10.934  0.6005 -0.9792  0.2893
  338MOL0     H45612   6.369   4.512  10.521 -1.6202  0.3672 -1.1315
  338MOL0     H45613   6.410   4.337  10.373 -1.0215  0.6002 -2.7759
  338MOL0     H45614   6.581   4.188  10.009  1.7671  1.6494  0.5985
  338MOL0     H45615   6.619   4.010   9.825 -1.8319  1.7066  1.9255
  338MOL0     H45616   7.978   3.944  10.640  0.8267  0.2528  0.8662
  338MOL0     H45617   8.205   4.015  10.589 -0.0894  0.1308  0.0425
  338MOL0     H45618   8.557   4.115  10.377  0.9177 -1.5066  2.2824
  338MOL0     H45619   8.789   4.172  10.322  2.4858 -0.7798 -0.5094
  338MOL0     H45620   9.114   4.179  10.184 -2.0218  2.2231 -1.4526
  338MOL0     H45621   8.973   4.250  10.245 -0.7520  0.0999 -1.6280
  338MOL0     H45622   9.043   3.991  10.381 -1.0256  0.5146 -1.0457
  338MOL0     H45623   9.001   4.127  10.458 -0.1144 -2.0106  1.8791
  338MOL0     H45624   9.237   4.229  10.393  0.7838 -0.1213  0.8013
  338MOL0     H45625   9.278   4.061  10.342  0.3596 -0.2687  0.3753
  338MOL0     H45626   9.168   4.117  10.625  2.0075  1.5883  0.5706
  338MOL0     H45627   9.340   4.119  10.580 -0.1332  0.9143 -0.4682
  338MOL0     H45628   9.250   3.708  10.564  1.8391  0.4520 -2.1866
  338MOL0     H45629   8.838   3.843  10.064  0.9600  0.5107 -0.8433
  338MOL0     H45630   8.601   3.749  10.148 -1.6950  0.7325  2.4743
  339MOL0     O45631   5.034   7.990   6.925  0.7094  0.3385  0.6027
  339MOL0     C45632   5.015   8.081   7.004 -0.0797  0.6353 -0.4013
  339MOL0     O45633   4.890   8.108   7.053 -0.1495  0.4688 -0.7127
  339MOL0     C45634   4.790   8.013   7.057  0.0768  0.1918  0.1354
  339MOL0     C45635   4.717   8.006   6.937  0.0173  0.7644  0.3530
  339MOL0     C45636   4.617   7.908   6.942  0.4024  0.3042 -0.0349
  339MOL0     C45637   4.582   7.822   7.044 -1.1730  0.3604 -0.4225
  339MOL0     O45638   4.473   7.749   7.057 -0.0309  0.0886  0.3656
  339MOL0     C45639   4.460   7.647   6.956 -0.0590  0.1773 -0.3490
  339MOL0     C45640   4.340   7.553   6.979 -0.4712  0.6723  0.2152
  339MOL0     C45641   4.211   7.629   7.000  0.2217  0.1345  0.3019
  339MOL0     C45642   4.097   7.534   7.042  0.5759 -0.1188  0.3467
  339MOL0     C45643   3.955   7.583   7.027  0.3163 -1.2989  0.0018
  339MOL0     C45644   3.931   7.627   6.872 -0.2615  0.6894  0.3485
  339MOL0     C45645   3.788   7.633   6.830  0.3518 -0.8283  0.5943
  339MOL0     C45646   3.700   7.743   6.899  0.0335  0.1107  0.0371
  339MOL0     N45647   3.654   7.698   7.031  0.2365 -0.0506 -0.0293
  339MOL0     C45648   3.597   7.575   7.067 -0.3839 -0.0262 -0.6178
  339MOL0     C45649   3.581   7.589   7.197  0.5513 -0.1311  0.1367
  339MOL0     C45650   3.523   7.492   7.297  0.1232  0.0407  0.4210
  339MOL0     C45651   3.638   7.392   7.321  0.0775 -0.2730 -0.4768
  339MOL0     C45652   3.602   7.281   7.416  0.9978 -0.4090  1.0921
  339MOL0     C45653   3.696   7.165   7.450 -0.1298 -1.2052 -1.1862
  339MOL0     O45654   3.744   7.083   7.343  0.7185  0.2972 -0.4943
  339MOL0     C45655   3.646   6.986   7.315 -0.6724  0.0941  0.2795
  339MOL0     C45656   3.646   6.865   7.386  0.0982  0.3313  0.5820
  339MOL0     C45657   3.549   6.767   7.369  0.4774  0.6633 -0.2876
  339MOL0     C45658   3.565   6.633   7.451  0.0051 -0.3285 -0.0164
  339MOL0     C45659   3.438   6.792   7.285  1.1310 -0.1222 -0.0571
  339MOL0     C45660   3.326   6.701   7.270  0.4444 -0.3175  0.9785
  339MOL0     O45661   3.255   6.719   7.161  0.0464 -0.0770  0.2375
  339MOL0     C45662   3.149   6.631   7.133  0.3120  0.8213  0.3056
  339MOL0     C45663   3.174   6.498   7.137 -0.6653 -0.0630  0.0930
  339MOL0     C45664   3.067   6.415   7.133 -0.6622  0.1260  0.3974
  339MOL0     C45665   2.935   6.461   7.099  0.5509 -0.0543  0.3198
  339MOL0     O45666   2.823   6.385   7.080 -0.7165  0.5788  0.2744
  339MOL0     C45667   2.835   6.239   7.072  1.0642  0.6439  0.2736
  339MOL0     C45668   2.695   6.179   7.032  1.0183 -0.2775 -0.5939
  339MOL0     C45669   2.720   6.038   7.006  0.0607  0.4481  0.9623
  339MOL0     C45670   2.584   5.965   6.989 -0.7273  0.4776 -0.0752
  339MOL0     C45671   2.605   5.817   7.013 -1.0946  0.1249 -0.8978
  339MOL0     C45672   2.472   5.750   7.002  0.8496 -0.0713 -0.3559
  339MOL0     C45673   2.405   5.745   6.861 -0.2858 -0.7163 -0.4348
  339MOL0     C45674   2.286   5.653   6.850 -0.0962 -0.1744 -0.0021
  339MOL0    Cl45675   2.165   5.671   6.973 -0.3955  0.9540 -0.0715
  339MOL0     C45676   2.919   6.598   7.060  0.1434 -0.6524  0.2680
  339MOL0     C45677   3.025   6.685   7.086  0.0328  0.6286  0.0437
  339MOL0     O45678   3.297   6.635   7.375 -0.4007 -0.2385  0.0956
  339MOL0     C45679   3.440   6.906   7.209 -0.1374 -0.0806 -0.1796
  339MOL0     C45680   3.542   7.003   7.222 -0.4135  0.6740 -0.4117
  339MOL0     N45681   3.643   7.705   7.244 -0.2636 -0.1305  0.0522
  339MOL0     N45682   3.678   7.769   7.141 -0.6470 -0.0511  0.7573
  339MOL0     C45683   4.650   7.843   7.163 -0.8790 -0.4740 -0.3281
  339MOL0     C45684   4.750   7.938   7.166 -0.3605 -0.0379  0.8205
  339MOL0     C45685   5.136   8.165   7.042 -0.0890 -0.1439  0.5246
  339MOL0     C45686   5.263   8.119   7.015 -1.3227 -0.3082 -0.1094
  339MOL0     C45687   5.369   8.201   7.056 -0.2165 -0.4360 -0.2406
  339MOL0     C45688   5.355   8.324   7.115 -0.4292  0.0234  0.1493
  339MOL0     O45689   5.469   8.401   7.119  0.0025 -0.3837  0.0568
  339MOL0     C45690   5.476   8.515   7.208 -0.9874  0.0368 -0.2063
  339MOL0     C45691   5.444   8.645   7.140 -0.3142 -0.1066  0.1075
  339MOL0     C45692   5.447   8.777   7.218 -0.1854 -0.0826  0.4649
  339MOL0     C45693   5.593   8.839   7.221 -0.3248 -0.1567 -0.2384
  339MOL0     C45694   5.653   8.792   7.343  0.8071 -0.1752  0.0999
  339MOL0     C45695   5.689   8.751   7.454  0.5505  0.0856  0.1644
  339MOL0     C45696   5.219   8.367   7.144 -0.1632  0.7552 -0.3242
  339MOL0     C45697   5.118   8.284   7.110  0.2042 -0.5172 -0.3783
  339MOL0     H45698   4.738   8.069   6.851  2.7445  2.1855  1.9093
  339MOL0     H45699   4.570   7.881   6.848 -2.2589 -1.9524  1.7652
  339MOL0     H45700   4.440   7.699   6.862  0.1717 -1.8079 -1.5607
  339MOL0     H45701   4.551   7.588   6.949 -0.0608 -0.3789  2.9930
  339MOL0     H45702   4.327   7.498   6.885  0.6549  0.8975 -0.0757
  339MOL0     H45703   4.350   7.485   7.065 -4.0674  1.4078  1.4028
  339MOL0     H45704   4.228   7.705   7.076 -2.1618  1.1384 -0.0862
  339MOL0     H45705   4.184   7.675   6.904  1.8926 -0.1110 -0.3275
  339MOL0     H45706   4.110   7.446   6.977  2.9142  0.1417  0.3745
  339MOL0     H45707   4.100   7.496   7.145 -2.4718 -2.6490 -0.3176
  339MOL0     H45708   3.890   7.499   7.052 -0.3468 -0.1082  2.5511
  339MOL0     H45709   3.927   7.653   7.106 -3.1338 -0.7059 -1.5595
  339MOL0     H45710   3.974   7.725   6.851 -0.6805  0.7377 -0.2958
  339MOL0     H45711   3.990   7.554   6.815 -0.0204 -1.5037  3.1951
  339MOL0     H45712   3.781   7.654   6.723 -1.0767 -0.4755  0.7487
  339MOL0     H45713   3.744   7.537   6.858 -0.2585 -0.9579 -0.7570
  339MOL0     H45714   3.612   7.744   6.834 -0.3170 -0.8847  0.4777
  339MOL0     H45715   3.746   7.842   6.899 -2.4687  1.3361 -0.2421
  339MOL0     H45716   3.556   7.492   7.011  0.7453 -0.7409 -0.4162
  339MOL0     H45717   3.502   7.550   7.387 -0.1998  1.3917 -0.5015
  339MOL0     H45718   3.424   7.468   7.256 -0.9776  4.4592  0.0403
  339MOL0     H45719   3.731   7.445   7.344  0.6767 -0.9655 -1.2203
  339MOL0     H45720   3.658   7.353   7.220 -1.5808 -1.8196 -0.2573
  339MOL0     H45721   3.512   7.233   7.377  2.1161 -1.0084 -0.8664
  339MOL0     H45722   3.569   7.325   7.511  3.6050  1.7690  1.1219
  339MOL0     H45723   3.641   7.109   7.526 -0.8412 -0.4809 -1.1503
  339MOL0     H45724   3.784   7.205   7.500 -1.0240  1.3664 -1.4967
  339MOL0     H45725   3.735   6.849   7.446  1.7797  2.8185 -1.0372
  339MOL0     H45726   3.669   6.604   7.468 -0.2145 -2.7203 -2.1476
  339MOL0     H45727   3.522   6.640   7.551 -0.1302 -0.1921 -0.0838
  339MOL0     H45728   3.524   6.539   7.412  2.8856 -2.1716  1.0183
  339MOL0     H45729   3.272   6.457   7.157 -0.7438 -1.7179 -2.4530
  339MOL0     H45730   3.075   6.308   7.147 -0.0992 -0.2629 -2.3942
  339MOL0     H45731   2.911   6.217   6.997  2.2034  2.8252  0.7230
  339MOL0     H45732   2.869   6.199   7.168 -2.2679 -1.4287  0.7969
  339MOL0     H45733   2.621   6.202   7.109  2.2154  2.5301 -0.1612
  339MOL0     H45734   2.663   6.231   6.941  3.4353 -0.7581 -1.8073
  339MOL0     H45735   2.771   5.994   7.092  2.4197 -2.1521 -1.5708
  339MOL0     H45736   2.789   6.026   6.922  1.7492  3.7557  1.7129
  339MOL0     H45737   2.514   6.005   7.063 -0.7608  1.7147 -0.7638
  339MOL0     H45738   2.545   5.991   6.891 -2.7256 -0.9380  0.3003
  339MOL0     H45739   2.636   5.797   7.116 -0.0751  3.4843 -0.4237
  339MOL0     H45740   2.672   5.769   6.941 -1.2491 -0.9550 -0.3318
  339MOL0     H45741   2.495   5.650   7.040  1.8598  0.8154  1.5295
  339MOL0     H45742   2.398   5.790   7.073  2.3706 -1.5304  2.1893
  339MOL0     H45743   2.485   5.710   6.794 -0.6771 -0.5508 -1.0002
  339MOL0     H45744   2.379   5.838   6.810  3.4064  0.1275 -1.0669
  339MOL0     H45745   2.318   5.548   6.855  2.4991  0.5717  1.5800
  339MOL0     H45746   2.241   5.675   6.753  1.5396 -2.6019 -1.4245
  339MOL0     H45747   2.827   6.625   7.008  0.9924 -1.4237 -1.7172
  339MOL0     H45748   3.007   6.791   7.077  2.8500  1.0373 -2.4035
  339MOL0     H45749   3.363   6.933   7.137  0.1973  0.4312 -0.3475
  339MOL0     H45750   3.543   7.099   7.170  2.7202 -0.1389 -2.1103
  339MOL0     H45751   4.629   7.796   7.259  4.2403 -2.9414 -0.0512
  339MOL0     H45752   4.794   7.962   7.262  1.2746 -4.3831  1.3703
  339MOL0     H45753   5.290   8.029   6.960 -0.3136 -1.0112  1.4578
  339MOL0     H45754   5.474   8.186   7.035  0.2653  0.0498  1.6500
  339MOL0     H45755   5.408   8.494   7.291  0.7615 -1.8715  0.8651
  339MOL0     H45756   5.577   8.520   7.250 -0.9524  1.1849 -0.4093
  339MOL0     H45757   5.341   8.632   7.107 -0.0296  0.7107 -1.1624
  339MOL0     H45758   5.504   8.657   7.050 -2.7432 -1.1628 -1.7432
  339MOL0     H45759   5.390   8.773   7.311 -2.9902 -2.9130 -1.1638
  339MOL0     H45760   5.393   8.856   7.165  2.7390  2.7980  1.4715
  339MOL0     H45761   5.577   8.947   7.227  1.8397  0.2128 -0.3239
  339MOL0     H45762   5.654   8.824   7.132 -0.8786  1.7505 -1.0054
  339MOL0     H45763   5.713   8.700   7.545 -0.3192  0.6641  0.7322
  339MOL0     H45764   5.195   8.464   7.188 -1.1540  1.2333 -1.8561
  339MOL0     H45765   5.021   8.319   7.141 -0.8231 -1.5068 -2.2849
  340MOL0     O45766   8.982   1.735   4.484  0.3655  0.5192  0.2096
  340MOL0     C45767   9.009   1.838   4.543  0.9590 -0.1036  0.5741
  340MOL0     O45768   8.936   1.951   4.541  0.6828  0.9629  1.0319
  340MOL0     C45769   8.826   1.949   4.465  0.4611  0.0617  1.4575
  340MOL0     C45770   8.829   2.019   4.341  0.1806 -0.0651 -0.4362
  340MOL0     C45771   8.719   2.007   4.256  0.8960  0.7147  0.1780
  340MOL0     C45772   8.604   1.929   4.281  0.7534  0.2514 -0.3455
  340MOL0     O45773   8.510   1.926   4.177 -0.1503  0.3899 -0.7520
  340MOL0     C45774   8.431   1.813   4.156  0.2509 -0.5322 -0.2969
  340MOL0     C45775   8.340   1.851   4.039 -0.2187 -0.1293 -0.3666
  340MOL0     C45776   8.240   1.744   4.009 -0.4759 -0.7431 -0.2209
  340MOL0     C45777   8.139   1.776   3.897 -0.4629  0.1396  0.9667
  340MOL0     C45778   8.052   1.893   3.939 -1.3150 -0.4420 -0.6997
  340MOL0     C45779   7.923   1.895   3.852 -0.4464  0.9366  0.9232
  340MOL0     C45780   7.823   2.006   3.888 -0.4385  1.1331 -0.6678
  340MOL0     C45781   7.696   2.012   3.811 -0.5717  0.0816  0.4744
  340MOL0     N45782   7.587   2.091   3.872  0.1282  0.3822 -0.2738
  340MOL0     C45783   7.496   2.050   3.972  0.1437  0.5691  0.4345
  340MOL0     C45784   7.411   2.156   3.974 -0.0917  0.7640 -1.0557
  340MOL0     C45785   7.304   2.162   4.080  0.3795  0.2879  0.4548
  340MOL0     C45786   7.193   2.057   4.052 -0.2394 -0.2711 -0.1534
  340MOL0     C45787   7.075   2.104   3.965  0.4489 -0.5438 -0.0679
  340MOL0     C45788   7.132   2.113   3.817  0.5905  0.2669  0.6484
  340MOL0     O45789   7.034   2.145   3.708  0.2025  0.3694  0.2805
  340MOL0     C45790   6.908   2.097   3.718  0.2605 -0.2648 -0.9705
  340MOL0     C45791   6.890   1.968   3.677  1.1777  0.8121 -0.1827
  340MOL0     C45792   6.769   1.903   3.704 -0.2915  0.0972 -0.4984
  340MOL0     C45793   6.777   1.758   3.673  0.1479 -0.0883 -0.2707
  340MOL0     C45794   6.648   1.980   3.743 -0.5040 -0.0675 -0.3031
  340MOL0     C45795   6.514   1.925   3.760 -0.1005 -0.4300  0.6126
  340MOL0     O45796   6.504   1.792   3.733 -0.5011 -0.3875 -0.0413
  340MOL0     C45797   6.370   1.756   3.735  0.8669  0.4672 -0.3854
  340MOL0     C45798   6.281   1.773   3.632  0.5288  0.2918  0.3970
  340MOL0     C45799   6.155   1.706   3.636  0.2005  0.4456 -0.5134
  340MOL0     C45800   6.122   1.622   3.745 -0.1427  0.4595  0.0755
  340MOL0     O45801   6.006   1.552   3.743 -0.0477  0.0854  0.3906
  340MOL0     C45802   5.978   1.458   3.846 -0.2195  0.1664 -0.5418
  340MOL0     C45803   5.840   1.390   3.812 -0.0406  0.1675  0.2035
  340MOL0     C45804   5.836   1.331   3.674 -0.0929  0.9411 -0.1370
  340MOL0     C45805   5.897   1.196   3.668 -0.3311  0.1735 -0.6523
  340MOL0     C45806   5.901   1.135   3.512 -0.0075  0.7275 -1.3529
  340MOL0     C45807   5.760   1.131   3.439  0.1921  0.2180  0.9689
  340MOL0     C45808   5.761   1.069   3.295  0.5282 -0.7348 -0.6222
  340MOL0     C45809   5.633   1.112   3.219 -0.5702 -0.2393 -0.7495
  340MOL0    Cl45810   5.474   1.054   3.282 -0.0316 -0.1156  0.0974
  340MOL0     C45811   6.216   1.601   3.843 -0.4842  0.5535 -0.4612
  340MOL0     C45812   6.331   1.677   3.844 -0.5558  1.2770 -0.0501
  340MOL0     O45813   6.429   2.004   3.810 -0.7137  0.6425  0.0837
  340MOL0     C45814   6.667   2.119   3.774  0.0546 -0.3393 -0.2218
  340MOL0     C45815   6.800   2.173   3.772 -0.2907 -0.2527  0.4493
  340MOL0     N45816   7.457   2.261   3.896 -0.6187 -0.0411  0.0501
  340MOL0     N45817   7.556   2.217   3.830 -0.4365 -0.7763 -0.6689
  340MOL0     C45818   8.608   1.858   4.405  0.1184 -1.0063 -0.3792
  340MOL0     C45819   8.714   1.874   4.500  0.5403 -0.1943  0.4548
  340MOL0     C45820   9.132   1.842   4.629 -0.9331 -0.3444  0.9719
  340MOL0     C45821   9.245   1.755   4.627 -0.0400 -0.5030 -0.1071
  340MOL0     C45822   9.362   1.769   4.696 -0.5272  0.0919 -0.2217
  340MOL0     C45823   9.366   1.871   4.784  0.8384 -0.4650 -0.9978
  340MOL0     O45824   9.484   1.886   4.853  0.4112 -0.0578 -0.3130
  340MOL0     C45825   9.521   2.007   4.913 -0.1001  0.0997  0.0879
  340MOL0     C45826   9.670   1.990   4.942 -0.3667 -0.0564  0.4858
  340MOL0     C45827   9.764   1.991   4.810  0.6862 -0.5172 -0.3373
  340MOL0     C45828   9.886   1.906   4.841 -0.0507  0.3195  0.0937
  340MOL0     C45829   9.978   1.917   4.726 -0.2776 -0.1760 -0.5723
  340MOL0     C45830  10.039   1.932   4.625 -0.5807  0.2463 -0.1616
  340MOL0     C45831   9.258   1.958   4.806  0.8353  0.4522 -1.0118
  340MOL0     C45832   9.143   1.945   4.731 -0.1304  0.4105  0.2408
  340MOL0     H45833   8.912   2.075   4.299 -0.0875 -1.2157 -2.6366
  340MOL0     H45834   8.714   2.065   4.164 -2.4316 -0.0203 -0.2149
  340MOL0     H45835   8.505   1.738   4.128 -0.3217 -0.0904 -3.3178
  340MOL0     H45836   8.386   1.795   4.254 -0.5357 -0.5422 -0.6530
  340MOL0     H45837   8.289   1.943   4.069  0.5825 -0.2543  1.5264
  340MOL0     H45838   8.397   1.886   3.952  0.3515  0.6771  0.3097
  340MOL0     H45839   8.289   1.649   3.986  1.9386 -0.5369  3.2309
  340MOL0     H45840   8.191   1.731   4.106  2.5648  0.8328  1.7026
  340MOL0     H45841   8.193   1.800   3.805 -2.2200 -0.7519 -0.3675
  340MOL0     H45842   8.076   1.693   3.864 -0.6855  1.0663 -1.1209
  340MOL0     H45843   8.038   1.880   4.047  0.9213  4.0573  0.3631
  340MOL0     H45844   8.097   1.992   3.935 -0.3394 -0.7184  1.5694
  340MOL0     H45845   7.953   1.910   3.748 -2.2274 -2.0081 -0.1523
  340MOL0     H45846   7.881   1.794   3.862 -0.9615  1.0254 -0.2004
  340MOL0     H45847   7.806   1.978   3.992  3.8269 -0.0031 -0.1099
  340MOL0     H45848   7.869   2.104   3.874 -1.0136  1.2828 -1.5837
  340MOL0     H45849   7.658   1.910   3.804 -2.0867  0.5962  0.7209
  340MOL0     H45850   7.717   2.062   3.716  1.2040  1.0486  1.3081
  340MOL0     H45851   7.486   1.964   4.037  1.5472  1.9495  2.6263
  340MOL0     H45852   7.348   2.155   4.179  1.6134  0.5547 -0.0563
  340MOL0     H45853   7.253   2.259   4.090  0.1569  0.0445  1.8934
  340MOL0     H45854   7.148   2.030   4.149  0.1508  2.4916  0.9068
  340MOL0     H45855   7.246   1.974   4.005  0.4890  0.9736 -1.6108
  340MOL0     H45856   7.044   2.204   3.998 -1.7134 -1.4328  0.7834
  340MOL0     H45857   6.991   2.035   3.974  0.9537 -0.9484  2.2856
  340MOL0     H45858   7.176   2.019   3.781  0.3453  0.8760 -1.4076
  340MOL0     H45859   7.219   2.179   3.819 -0.2736  1.4194  1.6074
  340MOL0     H45860   6.975   1.918   3.631  1.2211  0.0270  0.7083
  340MOL0     H45861   6.738   1.690   3.748  0.3135  1.9755  1.8183
  340MOL0     H45862   6.719   1.739   3.583  0.7340 -0.6350 -0.5387
  340MOL0     H45863   6.878   1.722   3.653  0.3210 -0.4468  1.1166
  340MOL0     H45864   6.313   1.840   3.552 -1.9152  1.7510  0.5627
  340MOL0     H45865   6.073   1.709   3.565 -0.1128  0.7510 -0.1423
  340MOL0     H45866   6.047   1.373   3.836 -2.9563 -2.0772 -2.1014
  340MOL0     H45867   5.969   1.510   3.942 -2.5289  1.5928 -1.4615
  340MOL0     H45868   5.810   1.314   3.885 -5.7347 -1.3964 -3.1556
  340MOL0     H45869   5.764   1.468   3.803  1.1959  1.2648 -1.3083
  340MOL0     H45870   5.882   1.399   3.602  3.4669 -1.0383  0.0348
  340MOL0     H45871   5.733   1.307   3.647  0.8456 -3.0342 -0.8227
  340MOL0     H45872   5.999   1.215   3.703 -0.9639 -0.6089  1.8367
  340MOL0     H45873   5.834   1.136   3.734  0.5926  2.7422  2.8337
  340MOL0     H45874   5.946   1.036   3.499  2.1868  1.2824  1.1470
  340MOL0     H45875   5.972   1.200   3.460  2.7759 -2.9361 -2.5994
  340MOL0     H45876   5.696   1.070   3.504  0.2662 -3.2494 -1.8684
  340MOL0     H45877   5.728   1.235   3.436  0.4190  0.2882  1.0593
  340MOL0     H45878   5.752   0.960   3.292  0.4000 -0.7113 -1.6056
  340MOL0     H45879   5.849   1.110   3.244 -1.3425  3.3566 -0.9505
  340MOL0     H45880   5.651   1.061   3.124  3.1020 -1.6577  0.5104
  340MOL0     H45881   5.633   1.220   3.204 -1.2221 -0.2614 -0.9058
  340MOL0     H45882   6.191   1.527   3.918  1.4910 -0.8773 -1.1336
  340MOL0     H45883   6.411   1.658   3.914 -0.9744 -1.2405 -0.1702
  340MOL0     H45884   6.584   2.177   3.812  0.2205 -1.7155  2.5107
  340MOL0     H45885   6.820   2.277   3.798  1.0920 -0.5596  0.6562
  340MOL0     H45886   8.521   1.805   4.444 -1.8535  0.4188 -2.5366
  340MOL0     H45887   8.731   1.830   4.598  1.2424 -0.2631  0.3098
  340MOL0     H45888   9.238   1.663   4.570  1.9469 -0.5219 -0.4065
  340MOL0     H45889   9.439   1.694   4.688 -3.0909 -2.8411  0.5244
  340MOL0     H45890   9.511   2.077   4.829 -0.8298 -0.7092 -0.5204
  340MOL0     H45891   9.466   2.039   5.001  0.9621 -0.7716  1.0942
  340MOL0     H45892   9.677   1.886   4.977  0.9239 -0.9687 -2.1405
  340MOL0     H45893   9.703   2.063   5.015  0.0661 -0.1563  0.3937
  340MOL0     H45894   9.787   2.095   4.784  2.5366  0.0430  2.8650
  340MOL0     H45895   9.704   1.935   4.739 -1.0701 -0.9591  1.3892
  340MOL0     H45896   9.858   1.801   4.828 -0.4760  0.4222  0.1666
  340MOL0     H45897   9.925   1.919   4.942  1.1991 -2.9948  0.1483
  340MOL0     H45898  10.078   1.938   4.525 -2.1143 -0.8954 -0.8794
  340MOL0     H45899   9.262   2.036   4.881 -0.0491 -0.1166 -0.3492
  340MOL0     H45900   9.060   2.013   4.748  0.8694  2.2832 -1.8376
  341MOL0     O45901   9.723   6.938   4.604 -0.4626  0.5534  0.1221
  341MOL0     C45902   9.721   6.906   4.725 -0.0556  0.0899 -0.7293
  341MOL0     O45903   9.607   6.883   4.794 -0.3766 -0.4723  0.2690
  341MOL0     C45904   9.496   6.850   4.731  0.3991 -0.9600  1.0237
  341MOL0     C45905   9.432   6.726   4.759  0.4924 -0.8170 -0.5729
  341MOL0     C45906   9.309   6.704   4.698 -0.0068  0.3117 -0.5780
  341MOL0     C45907   9.244   6.797   4.611 -0.4857  1.1869 -0.4313
  341MOL0     O45908   9.119   6.768   4.563  0.0505  0.4692  0.3104
  341MOL0     C45909   9.120   6.655   4.465 -0.5598 -0.7054  0.1724
  341MOL0     C45910   8.978   6.630   4.427 -0.1107  0.7612 -0.3519
  341MOL0     C45911   8.978   6.492   4.348 -0.4159  0.6450 -0.6338
  341MOL0     C45912   8.842   6.450   4.296  0.3411 -0.0139  0.3282
  341MOL0     C45913   8.724   6.429   4.392  0.1669 -0.4379  0.5620
  341MOL0     C45914   8.602   6.385   4.317 -0.7239 -0.0698 -1.6410
  341MOL0     C45915   8.496   6.325   4.404 -0.1133  0.7757  0.3283
  341MOL0     C45916   8.354   6.352   4.347  0.9991 -0.5232  0.2424
  341MOL0     N45917   8.243   6.338   4.448  0.0241 -0.1566  0.3327
  341MOL0     C45918   8.138   6.420   4.465  0.1337 -0.1946  0.2999
  341MOL0     C45919   8.045   6.340   4.517  0.2794  0.5412 -0.2184
  341MOL0     C45920   7.905   6.376   4.573 -1.1095  0.6215  0.5029
  341MOL0     C45921   7.811   6.262   4.596 -0.2959  0.5360 -0.3314
  341MOL0     C45922   7.688   6.314   4.675  1.2877  0.0115  0.5882
  341MOL0     C45923   7.576   6.205   4.670  0.2935  0.1209  0.1004
  341MOL0     O45924   7.460   6.232   4.753  0.0482 -0.6322 -0.2171
  341MOL0     C45925   7.368   6.133   4.774 -0.0978 -0.4595 -0.0887
  341MOL0     C45926   7.359   6.015   4.686  0.6873 -1.1536  0.2218
  341MOL0     C45927   7.270   5.915   4.709 -0.2584 -0.7099 -0.3152
  341MOL0     C45928   7.279   5.795   4.617  0.4602 -0.0864  0.1250
  341MOL0     C45929   7.180   5.926   4.822 -0.9813  0.2168  0.5122
  341MOL0     C45930   7.079   5.827   4.861  0.8194  0.2449  0.2810
  341MOL0     O45931   7.049   5.810   4.992  0.6583  0.4420 -0.2570
  341MOL0     C45932   6.934   5.735   5.024 -0.6132 -0.1140  0.4235
  341MOL0     C45933   6.812   5.804   5.044 -0.2492  0.0201 -0.3693
  341MOL0     C45934   6.698   5.728   5.077 -0.4607  0.3399  0.0980
  341MOL0     C45935   6.696   5.588   5.088 -0.4137 -0.3020  0.2124
  341MOL0     O45936   6.569   5.531   5.104 -0.3419 -0.2319  0.1724
  341MOL0     C45937   6.560   5.387   5.144 -0.3544  0.0946  0.1485
  341MOL0     C45938   6.454   5.379   5.255  0.4957 -0.6532 -0.0897
  341MOL0     C45939   6.320   5.360   5.196 -0.5383  0.2015 -0.5400
  341MOL0     C45940   6.278   5.462   5.094  0.0764  0.2638 -0.1809
  341MOL0     C45941   6.131   5.447   5.059 -0.3366  0.0571 -0.1246
  341MOL0     C45942   6.099   5.311   5.000  0.2333  0.5708  0.4219
  341MOL0     C45943   5.953   5.303   4.943 -0.9168 -0.0982 -0.0503
  341MOL0     C45944   5.834   5.338   5.037 -0.3054  0.7798 -0.1662
  341MOL0    Cl45945   5.812   5.209   5.155  0.1669  0.5461 -0.2817
  341MOL0     C45946   6.822   5.529   5.073  0.1155  0.6448  0.8209
  341MOL0     C45947   6.937   5.596   5.035 -0.2063  0.0207  0.2558
  341MOL0     O45948   7.026   5.767   4.768 -0.0286  0.3219  0.1418
  341MOL0     C45949   7.198   6.039   4.912 -0.4268 -0.2901  0.0542
  341MOL0     C45950   7.293   6.135   4.892  0.0356 -0.3999 -0.9911
  341MOL0     N45951   8.097   6.219   4.536  0.3461 -0.0288 -0.3514
  341MOL0     N45952   8.224   6.211   4.501  1.1990 -0.7118 -0.2971
  341MOL0     C45953   9.311   6.921   4.590 -0.2633 -0.0370 -0.1853
  341MOL0     C45954   9.430   6.945   4.648 -0.4686 -0.7733 -0.5241
  341MOL0     C45955   9.836   6.916   4.808  0.3482 -0.6176  0.7313
  341MOL0     C45956   9.955   6.961   4.749 -0.9481 -0.3225 -0.7760
  341MOL0     C45957  10.070   6.992   4.837 -0.0023  0.3677  0.7649
  341MOL0     C45958  10.060   6.969   4.981  0.2562  0.5254 -0.5486
  341MOL0     O45959  10.153   7.000   5.082  0.5705 -0.4734  0.3035
  341MOL0     C45960  10.248   7.100   5.045  0.4361 -0.1208 -0.6738
  341MOL0     C45961  10.365   7.095   5.147  0.5890  0.0785  0.0963
  341MOL0     C45962  10.457   7.214   5.171  0.0169 -0.0611 -0.4247
  341MOL0     C45963  10.561   7.185   5.281  0.1166 -1.5433 -0.8368
  341MOL0     C45964  10.646   7.064   5.248  0.4636 -0.7471  0.8258
  341MOL0     C45965  10.727   6.981   5.217 -0.1368  1.0468 -0.3709
  341MOL0     C45966   9.939   6.919   5.025  0.0816 -0.1435 -0.5337
  341MOL0     C45967   9.835   6.892   4.945 -0.3079  0.3348 -0.0959
  341MOL0     H45968   9.480   6.653   4.823 -0.3073  0.6739  1.8321
  341MOL0     H45969   9.255   6.611   4.715 -1.5354  1.4610  1.0228
  341MOL0     H45970   9.180   6.679   4.377 -0.5974  1.6368  0.7090
  341MOL0     H45971   9.161   6.566   4.513 -0.8948 -0.5604  0.7336
  341MOL0     H45972   8.914   6.621   4.515 -0.7220 -1.0476 -0.9285
  341MOL0     H45973   8.943   6.710   4.361 -1.3401  1.7876  1.4679
  341MOL0     H45974   9.054   6.493   4.269 -2.0798  2.8380 -2.3580
  341MOL0     H45975   9.008   6.409   4.413 -2.5881  1.6704  1.8390
  341MOL0     H45976   8.816   6.521   4.216  0.0399  1.1867  1.4545
  341MOL0     H45977   8.855   6.358   4.239 -1.3620  0.0183 -0.1771
  341MOL0     H45978   8.751   6.365   4.476  3.9462 -0.6171 -0.5925
  341MOL0     H45979   8.695   6.518   4.448  1.1177  0.6596 -0.6176
  341MOL0     H45980   8.557   6.466   4.258  0.2421 -0.3794 -2.8647
  341MOL0     H45981   8.627   6.316   4.235 -1.1420 -1.2117 -0.8334
  341MOL0     H45982   8.503   6.216   4.413  0.6169  0.6440 -1.4292
  341MOL0     H45983   8.494   6.373   4.502 -0.5664  2.1332 -0.3178
  341MOL0     H45984   8.339   6.294   4.255  0.4423  0.7099 -0.4723
  341MOL0     H45985   8.339   6.454   4.311  0.2715  0.1275  2.2435
  341MOL0     H45986   8.136   6.523   4.431 -0.3962 -0.9048 -2.0241
  341MOL0     H45987   7.916   6.427   4.669 -3.4436 -0.7990  1.5993
  341MOL0     H45988   7.852   6.442   4.503  0.6175 -1.9266 -3.6273
  341MOL0     H45989   7.862   6.187   4.658  1.3273  0.5984 -1.5300
  341MOL0     H45990   7.785   6.208   4.505 -1.1150 -1.1855  0.8636
  341MOL0     H45991   7.640   6.396   4.621 -2.4158 -0.5739  2.6489
  341MOL0     H45992   7.709   6.345   4.778 -3.8958 -0.1733  1.9386
  341MOL0     H45993   7.621   6.115   4.712  0.2822  0.2887  0.4704
  341MOL0     H45994   7.551   6.194   4.564 -0.6281 -0.8072  0.4024
  341MOL0     H45995   7.413   6.021   4.592  1.6222  2.0029  0.8447
  341MOL0     H45996   7.247   5.808   4.514  0.0341  1.0866  0.3870
  341MOL0     H45997   7.384   5.764   4.616  0.7570  0.5151  2.8606
  341MOL0     H45998   7.220   5.711   4.656  0.1150 -0.1221 -0.4622
  341MOL0     H45999   6.796   5.912   5.043 -2.4502 -0.2352 -2.8388
  341MOL0     H46000   6.609   5.789   5.092 -1.3465 -0.9719  0.3669
  341MOL0     H46001   6.542   5.325   5.056 -1.1541  1.0379 -0.3721
  341MOL0     H46002   6.647   5.357   5.203 -1.8949 -1.7394  1.6090
  341MOL0     H46003   6.469   5.290   5.317 -3.7220 -0.4693  1.5067
  341MOL0     H46004   6.467   5.469   5.315  2.4308  1.0309 -2.7978
  341MOL0     H46005   6.239   5.355   5.270 -2.0564 -2.2869 -2.2618
  341MOL0     H46006   6.329   5.265   5.144  1.1067 -0.6078  1.1123
  341MOL0     H46007   6.287   5.565   5.131  3.2445 -0.0831  0.3085
  341MOL0     H46008   6.340   5.450   5.005 -0.6408  1.1118 -0.8137
  341MOL0     H46009   6.110   5.532   4.994 -0.1714 -1.7316 -2.6570
  341MOL0     H46010   6.062   5.443   5.143  1.2959 -2.6460  1.2623
  341MOL0     H46011   6.177   5.303   4.923 -3.8657  2.6120 -4.4883
  341MOL0     H46012   6.107   5.234   5.077 -0.6935  1.6317  1.6000
  341MOL0     H46013   5.944   5.199   4.910 -2.9538  0.1816 -0.4885
  341MOL0     H46014   5.933   5.366   4.856 -0.8827 -0.5119 -0.3635
  341MOL0     H46015   5.745   5.339   4.974 -1.5839  1.7901  1.5820
  341MOL0     H46016   5.850   5.436   5.082 -0.5271  1.6672 -1.9168
  341MOL0     H46017   6.852   5.425   5.087 -0.6547  0.1800 -0.7265
  341MOL0     H46018   7.031   5.543   5.020  1.9795  3.8756 -1.2285
  341MOL0     H46019   7.144   6.054   5.005 -3.0649  1.4927 -1.6425
  341MOL0     H46020   7.308   6.207   4.972  0.2751 -0.4577 -0.9831
  341MOL0     H46021   9.273   6.991   4.515 -1.5007 -0.7848 -0.2887
  341MOL0     H46022   9.469   7.042   4.617 -1.1802 -1.6995 -5.0668
  341MOL0     H46023   9.973   6.980   4.644  3.0545  2.2593  0.1245
  341MOL0     H46024  10.161   7.032   4.792 -0.0497  2.5048  2.3771
  341MOL0     H46025  10.279   7.089   4.941 -0.4443  0.5726 -1.0206
  341MOL0     H46026  10.200   7.198   5.045  0.5352 -0.0656 -0.1090
  341MOL0     H46027  10.426   7.010   5.114 -2.1749 -0.9001 -3.0880
  341MOL0     H46028  10.334   7.072   5.250  1.7699 -0.9934  0.2423
  341MOL0     H46029  10.393   7.296   5.203 -1.4542 -1.7797  1.2752
  341MOL0     H46030  10.517   7.239   5.083  2.1264  0.5313  1.1070
  341MOL0     H46031  10.501   7.172   5.371  1.7179 -0.8406  0.3793
  341MOL0     H46032  10.626   7.272   5.294 -1.8128 -0.1785  0.0935
  341MOL0     H46033  10.806   6.916   5.185  2.3273  1.8949  3.3831
  341MOL0     H46034   9.922   6.905   5.131 -1.4395 -1.9367 -0.9584
  341MOL0     H46035   9.747   6.848   4.991 -0.6665  3.8745  3.1088
  342MOL0     O46036  10.363   7.136   4.160 -0.3430  0.0349 -0.2683
  342MOL0     C46037  10.429   7.044   4.126 -0.8638 -0.8547  0.0745
  342MOL0     O46038  10.386   6.936   4.048  0.2084  0.2082 -0.3711
  342MOL0     C46039  10.261   6.934   3.993 -0.0786 -0.5120 -0.1863
  342MOL0     C46040  10.213   6.813   3.965 -0.3388  0.5581  0.2220
  342MOL0     C46041  10.093   6.793   3.891  0.2546 -0.5581  0.1209
  342MOL0     C46042  10.024   6.906   3.846  0.3495 -0.0321 -0.3138
  342MOL0     O46043   9.902   6.894   3.775  0.3742 -0.0360 -0.2398
  342MOL0     C46044   9.786   6.984   3.800  0.6030 -0.4863  0.5058
  342MOL0     C46045   9.688   6.967   3.688  0.3731 -1.2089  0.2375
  342MOL0     C46046   9.550   7.035   3.718 -0.0919 -0.2712  0.1604
  342MOL0     C46047   9.433   6.986   3.628  0.1161 -0.5354 -0.0814
  342MOL0     C46048   9.305   7.063   3.652  0.2783  0.0593  0.0205
  342MOL0     C46049   9.206   7.002   3.547 -0.3669 -0.7660 -0.8172
  342MOL0     C46050   9.159   6.856   3.590  0.0632 -0.2005  0.6741
  342MOL0     C46051   9.093   6.788   3.477  0.6627  0.0922 -0.9031
  342MOL0     N46052   9.042   6.658   3.523 -0.6526 -0.4939  0.4889
  342MOL0     C46053   9.095   6.535   3.479  0.0089 -0.9249 -0.6137
  342MOL0     C46054   9.007   6.445   3.523  0.2891 -0.4050  0.0378
  342MOL0     C46055   9.005   6.301   3.496  0.4622 -0.4662  0.4251
  342MOL0     C46056   8.899   6.267   3.389  0.8894 -0.2293 -0.7450
  342MOL0     C46057   8.924   6.330   3.253 -0.4826 -0.6764  0.2437
  342MOL0     C46058   8.799   6.344   3.159 -0.5748 -0.6368 -0.1014
  342MOL0     O46059   8.736   6.222   3.143 -0.1580  0.7533 -0.2740
  342MOL0     C46060   8.606   6.235   3.096  0.2997 -0.1535  0.5657
  342MOL0     C46061   8.532   6.345   3.064  0.1448  0.4167  0.4452
  342MOL0     C46062   8.391   6.336   3.022 -0.3116 -0.0440  0.2547
  342MOL0     C46063   8.331   6.472   2.990 -0.0697 -0.6111  0.5655
  342MOL0     C46064   8.319   6.214   3.010 -0.1924  0.4656  0.6226
  342MOL0     C46065   8.170   6.206   2.955 -0.0654 -0.6193  0.2144
  342MOL0     O46066   8.101   6.312   2.903 -0.5965 -0.1567 -0.2075
  342MOL0     C46067   7.975   6.299   2.860  0.5036 -0.0779  0.1441
  342MOL0     C46068   7.869   6.251   2.949  0.3396 -0.0571 -0.2730
  342MOL0     C46069   7.738   6.245   2.903 -0.0020 -0.1005 -0.0599
  342MOL0     C46070   7.704   6.300   2.780  0.3692  0.9393 -0.2746
  342MOL0     O46071   7.572   6.276   2.743 -0.6288 -0.9544 -0.6684
  342MOL0     C46072   7.565   6.211   2.613  0.2435  1.2566 -0.2745
  342MOL0     C46073   7.423   6.209   2.563 -0.2481 -0.0872 -0.1157
  342MOL0     C46074   7.335   6.122   2.657  0.3343 -0.3608 -0.4953
  342MOL0     C46075   7.191   6.127   2.634 -0.1781  0.4511  0.5894
  342MOL0     C46076   7.116   6.052   2.745 -0.5843  0.6055  0.3452
  342MOL0     C46077   6.965   6.035   2.742 -0.0047 -0.6779 -0.0420
  342MOL0     C46078   6.921   6.166   2.802  0.0258 -0.5458  0.7207
  342MOL0     C46079   6.774   6.153   2.836 -0.0019 -0.5366 -0.1780
  342MOL0    Cl46080   6.660   6.154   2.697  0.1206  0.1987 -0.6541
  342MOL0     C46081   7.803   6.369   2.706 -0.6310  0.5281  0.0235
  342MOL0     C46082   7.941   6.363   2.745 -0.3011 -0.2842  0.0792
  342MOL0     O46083   8.118   6.098   2.964 -0.1087 -0.4865  0.0478
  342MOL0     C46084   8.402   6.104   3.048 -0.0120 -0.1074 -0.5690
  342MOL0     C46085   8.532   6.115   3.096 -0.2067  0.3654  0.9074
  342MOL0     N46086   8.907   6.503   3.597 -0.8222  0.0485  0.6620
  342MOL0     N46087   8.935   6.635   3.605  0.0566  0.8596  0.3272
  342MOL0     C46088  10.073   7.029   3.875 -1.1529  0.8943 -1.5195
  342MOL0     C46089  10.186   7.050   3.957  0.4435  0.9415 -0.5342
  342MOL0     C46090  10.584   7.053   4.144 -0.0825 -0.6564 -0.4565
  342MOL0     C46091  10.671   6.961   4.097  0.5811  0.5344 -0.3678
  342MOL0     C46092  10.807   6.962   4.121 -0.8851  0.4960  0.5792
  342MOL0     C46093  10.865   7.071   4.195  0.2315 -0.3514  0.5099
  342MOL0     O46094  10.995   7.083   4.227  0.5472 -0.3582 -0.2423
  342MOL0     C46095  11.077   6.970   4.252  0.2448 -0.6919 -0.5418
  342MOL0     C46096  11.055   6.897   4.392  0.1607 -0.7839  0.1218
  342MOL0     C46097  11.156   6.797   4.432 -0.6234  0.1232  0.2081
  342MOL0     C46098  11.121   6.655   4.403 -1.0399  0.0363  0.4155
  342MOL0     C46099  11.007   6.609   4.474  0.6386  0.3001 -1.0897
  342MOL0     C46100  10.907   6.576   4.533 -0.0484 -0.0990 -0.9573
  342MOL0     C46101  10.775   7.164   4.248 -0.3188  0.3983 -0.0979
  342MOL0     C46102  10.636   7.156   4.226  0.5927  0.7732 -0.7987
  342MOL0     H46103  10.264   6.725   4.003 -1.3802  0.6709  2.0095
  342MOL0     H46104  10.065   6.690   3.870 -0.1632 -0.4577  0.1836
  342MOL0     H46105   9.737   6.955   3.894 -2.1578  2.0505 -0.0055
  342MOL0     H46106   9.797   7.093   3.801 -2.6244  0.0221 -2.0249
  342MOL0     H46107   9.725   7.014   3.596 -0.9074  2.2464  1.3112
  342MOL0     H46108   9.682   6.858   3.682  3.1676 -1.3944 -0.7049
  342MOL0     H46109   9.533   7.009   3.822  2.0486 -0.3898  0.5315
  342MOL0     H46110   9.557   7.144   3.710  1.6905 -0.4003 -0.5987
  342MOL0     H46111   9.456   6.994   3.521 -1.1198 -1.0765 -0.4068
  342MOL0     H46112   9.430   6.878   3.643  0.5807 -0.3429  1.4965
  342MOL0     H46113   9.270   7.044   3.754  1.5878  0.4313  0.5587
  342MOL0     H46114   9.313   7.171   3.639 -1.7417  0.6508  2.8318
  342MOL0     H46115   9.124   7.074   3.545 -0.5096 -0.5506  3.6146
  342MOL0     H46116   9.255   6.994   3.449  0.8884 -2.7347 -0.0931
  342MOL0     H46117   9.231   6.800   3.652  0.5319  1.0041  1.2518
  342MOL0     H46118   9.086   6.874   3.669 -0.5378  3.1718 -0.4949
  342MOL0     H46119   9.159   6.768   3.392  2.9352 -0.7082  0.9472
  342MOL0     H46120   9.018   6.852   3.429 -0.4396 -1.4615 -1.3451
  342MOL0     H46121   9.172   6.519   3.405 -0.6052  0.4046 -1.5854
  342MOL0     H46122   9.102   6.256   3.473  0.3047 -3.2760  4.2462
  342MOL0     H46123   8.982   6.260   3.595  0.5180 -3.5772 -0.7609
  342MOL0     H46124   8.798   6.288   3.425  0.9964 -1.3710  0.3096
  342MOL0     H46125   8.905   6.158   3.377  0.2483 -0.2535 -0.8699
  342MOL0     H46126   8.985   6.256   3.201  0.1225  1.5896 -2.4969
  342MOL0     H46127   8.969   6.430   3.255  1.5249 -1.5220  0.3165
  342MOL0     H46128   8.844   6.385   3.068  0.7147  0.1872  0.8668
  342MOL0     H46129   8.734   6.416   3.211 -0.5274 -0.5369 -0.1809
  342MOL0     H46130   8.575   6.444   3.071 -0.6114  0.6706  1.8163
  342MOL0     H46131   8.250   6.503   3.056 -1.0849 -0.6197 -0.6297
  342MOL0     H46132   8.404   6.552   2.975  0.2521 -0.8895  0.6216
  342MOL0     H46133   8.289   6.472   2.889 -0.2754  2.0031  0.5821
  342MOL0     H46134   7.890   6.209   3.048  5.8242 -0.9298 -1.4955
  342MOL0     H46135   7.667   6.191   2.965  0.9022 -2.8225 -1.2218
  342MOL0     H46136   7.634   6.258   2.543  2.8377 -1.1449  0.4810
  342MOL0     H46137   7.589   6.104   2.618 -1.8181  0.4939 -3.5380
  342MOL0     H46138   7.380   6.310   2.557 -1.3815 -0.6093 -1.0244
  342MOL0     H46139   7.415   6.176   2.459 -1.4776 -1.7885  0.4863
  342MOL0     H46140   7.349   6.148   2.763 -2.7020 -1.4395  0.2937
  342MOL0     H46141   7.377   6.022   2.655  2.2555  0.4246 -1.6662
  342MOL0     H46142   7.161   6.232   2.633  2.1146  1.1496  0.1546
  342MOL0     H46143   7.174   6.098   2.530  1.7414  3.7706 -0.8281
  342MOL0     H46144   7.147   6.080   2.846 -1.8888 -3.3662  2.0659
  342MOL0     H46145   7.150   5.949   2.733 -0.5409  0.7015 -0.4249
  342MOL0     H46146   6.936   6.017   2.638  1.6550  0.6095 -0.7706
  342MOL0     H46147   6.939   5.954   2.811  1.5261 -0.9295  0.2889
  342MOL0     H46148   6.933   6.252   2.736  0.9027 -1.5319 -0.4456
  342MOL0     H46149   6.969   6.193   2.897  0.1001  0.0701  0.5131
  342MOL0     H46150   6.742   6.231   2.905  1.8304 -0.1960  0.3371
  342MOL0     H46151   6.766   6.060   2.894  1.1793 -0.7712 -0.3610
  342MOL0     H46152   7.777   6.417   2.613  1.2446  1.3360 -0.1365
  342MOL0     H46153   8.028   6.398   2.690  1.0704  0.7180  2.7131
  342MOL0     H46154   8.361   6.004   3.045 -1.5509  0.3329  2.3610
  342MOL0     H46155   8.583   6.026   3.132  0.4245  0.6219  0.6624
  342MOL0     H46156  10.019   7.119   3.848 -0.1642  1.7739 -0.6860
  342MOL0     H46157  10.221   7.151   3.975 -1.4361  1.4946  0.2267
  342MOL0     H46158  10.637   6.898   4.015 -0.3077 -1.3097  1.3087
  342MOL0     H46159  10.876   6.885   4.087 -1.2141  0.2906  0.3618
  342MOL0     H46160  11.070   6.896   4.171  0.0365 -1.1010 -0.1551
  342MOL0     H46161  11.178   7.011   4.260 -0.3938  1.0079 -0.8653
  342MOL0     H46162  10.951   6.864   4.404 -1.8907  5.0215  2.1610
  342MOL0     H46163  11.055   6.977   4.468 -1.3967  0.9244 -1.5518
  342MOL0     H46164  11.184   6.799   4.538  1.4272  0.5337 -0.3014
  342MOL0     H46165  11.252   6.816   4.384  0.6658 -2.1977  1.6646
  342MOL0     H46166  11.207   6.592   4.427 -0.0933  0.2222 -2.2601
  342MOL0     H46167  11.095   6.638   4.298 -2.4875 -0.9265  0.8908
  342MOL0     H46168  10.813   6.568   4.584  0.9825 -1.2199  0.8593
  342MOL0     H46169  10.822   7.237   4.312  4.0717 -2.9228  0.9311
  342MOL0     H46170  10.563   7.220   4.275 -0.2633 -0.7028 -0.1092
  343MOL0     O46171   2.030   1.155   2.710  0.1644  0.0274  0.4433
  343MOL0     C46172   2.035   1.063   2.790 -0.4591 -0.3444 -0.1260
  343MOL0     O46173   1.935   1.033   2.886 -0.0766 -0.2622  0.2329
  343MOL0     C46174   1.802   1.051   2.851  0.8946 -0.6149  0.0412
  343MOL0     C46175   1.719   0.944   2.810  0.7772  0.6213  0.6080
  343MOL0     C46176   1.579   0.957   2.789 -0.2028  0.2488  0.2716
  343MOL0     C46177   1.514   1.076   2.818 -0.3953  0.4006 -0.5573
  343MOL0     O46178   1.384   1.091   2.787 -0.0201 -0.1406  0.1619
  343MOL0     C46179   1.343   1.196   2.702  0.6325 -0.3269  0.2572
  343MOL0     C46180   1.193   1.185   2.679 -0.4352 -0.9639 -0.2274
  343MOL0     C46181   1.144   1.297   2.591 -0.0650  0.6056  0.8571
  343MOL0     C46182   1.134   1.271   2.435 -0.4410  0.3162  0.8182
  343MOL0     C46183   1.137   1.393   2.350 -0.2221 -0.7815 -0.3923
  343MOL0     C46184   1.104   1.369   2.200 -0.3809  0.7982 -0.1519
  343MOL0     C46185   1.137   1.484   2.108 -0.1845  0.1324 -0.3033
  343MOL0     C46186   1.103   1.458   1.961 -0.3461  0.4851 -0.2686
  343MOL0     N46187   1.208   1.388   1.898 -0.8259  1.2217  0.0636
  343MOL0     C46188   1.343   1.422   1.895  0.0834  0.5417  0.0935
  343MOL0     C46189   1.395   1.310   1.838 -0.0833  0.8013  0.0177
  343MOL0     C46190   1.535   1.272   1.809 -0.4112  0.2970 -0.0325
  343MOL0     C46191   1.592   1.340   1.681 -0.3175 -0.4714 -0.9108
  343MOL0     C46192   1.518   1.314   1.552 -0.7982  0.8914  0.3471
  343MOL0     C46193   1.584   1.405   1.441 -1.3573 -0.1076 -0.1171
  343MOL0     O46194   1.720   1.346   1.418  0.4040 -0.4627 -0.1720
  343MOL0     C46195   1.814   1.431   1.369  1.1097 -0.2697 -0.6249
  343MOL0     C46196   1.904   1.493   1.450 -1.0219 -0.7615 -0.0516
  343MOL0     C46197   2.015   1.572   1.403  0.3967  0.0512  0.4538
  343MOL0     C46198   2.113   1.624   1.503 -0.1702  0.2254  1.1210
  343MOL0     C46199   2.027   1.592   1.261  0.3773 -0.6450 -0.4559
  343MOL0     C46200   2.132   1.669   1.186 -0.2760 -0.1763  0.6268
  343MOL0     O46201   2.170   1.625   1.061  0.2475 -0.0068  0.4833
  343MOL0     C46202   2.259   1.706   1.000 -0.5037  0.3771 -0.1997
  343MOL0     C46203   2.234   1.757   0.869 -0.2572 -0.3362  0.8253
  343MOL0     C46204   2.325   1.821   0.788 -0.9261  0.7099 -0.1801
  343MOL0     C46205   2.454   1.846   0.841 -0.7037 -0.4458  0.0332
  343MOL0     O46206   2.530   1.927   0.758  0.5642 -0.3694  0.0350
  343MOL0     C46207   2.641   1.868   0.685 -1.1325  0.1802 -0.2013
  343MOL0     C46208   2.741   1.968   0.654  1.1789 -0.0208  0.3932
  343MOL0     C46209   2.794   2.018   0.787  0.2428 -1.0064 -0.0566
  343MOL0     C46210   2.920   2.087   0.777  0.0901  0.7054 -0.3964
  343MOL0     C46211   2.965   2.167   0.905 -0.3188 -0.2371 -0.3776
  343MOL0     C46212   2.990   2.070   1.024  0.5441  0.3857  0.0023
  343MOL0     C46213   3.063   2.137   1.143 -0.0172  0.3245  0.3552
  343MOL0     C46214   2.967   2.175   1.254  0.1903  0.1594  0.1370
  343MOL0    Cl46215   2.910   2.035   1.351 -0.1591 -0.3923  0.1090
  343MOL0     C46216   2.487   1.795   0.966  0.0975  0.0188 -0.7429
  343MOL0     C46217   2.397   1.723   1.048  0.9992 -0.2258  0.2394
  343MOL0     O46218   2.177   1.769   1.238  0.0013  0.0813  0.1672
  343MOL0     C46219   1.937   1.528   1.179  0.3961  0.2830  0.7658
  343MOL0     C46220   1.837   1.449   1.235  0.7251 -0.0902  0.0116
  343MOL0     N46221   1.295   1.226   1.792  0.0708  0.2533 -0.2221
  343MOL0     N46222   1.183   1.274   1.832  0.4173  0.3735  0.5845
  343MOL0     C46223   1.595   1.184   2.860  0.2556 -0.3649  1.0407
  343MOL0     C46224   1.736   1.172   2.871 -0.6121 -0.9559  0.0984
  343MOL0     C46225   2.168   1.000   2.815  0.8598 -0.4729  0.2448
  343MOL0     C46226   2.189   0.905   2.920 -0.2546  1.2979  0.6480
  343MOL0     C46227   2.319   0.850   2.937  0.0869  0.2998 -0.4835
  343MOL0     C46228   2.428   0.882   2.854 -1.0240  0.5933 -0.0797
  343MOL0     O46229   2.553   0.832   2.889 -0.1938 -0.2046  0.4925
  343MOL0     C46230   2.672   0.901   2.847  0.8863 -0.3525  0.3413
  343MOL0     C46231   2.679   1.034   2.921 -0.0450  0.1576  0.0303
  343MOL0     C46232   2.821   1.087   2.938 -0.5920 -0.4614 -0.4176
  343MOL0     C46233   2.875   1.135   2.800  0.3848  0.0296 -0.5107
  343MOL0     C46234   2.783   1.235   2.734 -0.5205 -0.3897  0.9481
  343MOL0     C46235   2.701   1.311   2.682  0.9611 -0.0939 -0.4749
  343MOL0     C46236   2.402   0.959   2.735 -0.2115  0.8582 -0.2942
  343MOL0     C46237   2.274   1.018   2.721  0.4524 -0.8166 -0.5916
  343MOL0     H46238   1.750   0.840   2.808  1.0997  0.7296 -0.4615
  343MOL0     H46239   1.518   0.878   2.747 -1.6560 -0.4075  3.3294
  343MOL0     H46240   1.361   1.301   2.729  2.3502 -0.3600 -0.6339
  343MOL0     H46241   1.398   1.179   2.609 -0.5150 -0.2256 -0.4567
  343MOL0     H46242   1.171   1.086   2.637 -1.4435 -0.9616  0.2634
  343MOL0     H46243   1.133   1.183   2.770 -0.2594 -1.8849 -0.1235
  343MOL0     H46244   1.045   1.327   2.628 -1.7844 -0.7208 -2.2669
  343MOL0     H46245   1.208   1.384   2.609 -1.9170  1.4321  4.5011
  343MOL0     H46246   1.208   1.198   2.401 -1.1813  0.2729 -0.8191
  343MOL0     H46247   1.036   1.231   2.406  0.4532 -0.5526 -1.2001
  343MOL0     H46248   1.055   1.448   2.398 -0.8218 -0.5096 -1.7021
  343MOL0     H46249   1.231   1.448   2.357 -0.7930  0.4192 -1.6384
  343MOL0     H46250   1.144   1.272   2.168 -0.7666 -0.4250  2.7163
  343MOL0     H46251   0.997   1.348   2.192 -0.1738  0.1336 -1.4169
  343MOL0     H46252   1.075   1.561   2.155  0.3972  0.9064 -0.7888
  343MOL0     H46253   1.242   1.514   2.115 -0.5106  1.1961  0.2622
  343MOL0     H46254   1.101   1.543   1.893  1.4278 -0.4851 -1.6090
  343MOL0     H46255   1.010   1.403   1.940  0.9621 -1.9738  0.0046
  343MOL0     H46256   1.395   1.505   1.941 -0.2375 -0.8157  3.2299
  343MOL0     H46257   1.601   1.305   1.890 -1.0895  0.0591  0.6220
  343MOL0     H46258   1.549   1.163   1.804 -1.8012  0.1095 -0.0716
  343MOL0     H46259   1.699   1.320   1.674  0.4569  2.9004 -0.5727
  343MOL0     H46260   1.603   1.447   1.700  0.2872 -0.5182 -0.9907
  343MOL0     H46261   1.416   1.350   1.562 -0.4236  1.6938  1.5922
  343MOL0     H46262   1.519   1.211   1.517 -0.1462  0.7967  0.6264
  343MOL0     H46263   1.599   1.504   1.487 -0.5663 -0.2935  0.0371
  343MOL0     H46264   1.534   1.421   1.344  0.1699 -1.1101 -1.1009
  343MOL0     H46265   1.907   1.462   1.554 -1.9026  0.3648  0.3307
  343MOL0     H46266   2.215   1.608   1.469  0.3324  1.8590  1.7679
  343MOL0     H46267   2.100   1.731   1.521 -2.6214  0.1090  0.4948
  343MOL0     H46268   2.096   1.561   1.591 -1.7720 -2.0520 -0.6796
  343MOL0     H46269   2.138   1.742   0.821 -0.7892  3.5965  0.3204
  343MOL0     H46270   2.286   1.863   0.696  0.6015  0.8757 -0.7825
  343MOL0     H46271   2.690   1.784   0.735 -2.8260 -1.7702 -1.5978
  343MOL0     H46272   2.597   1.833   0.591  0.4556 -1.3616 -0.4247
  343MOL0     H46273   2.822   1.921   0.599  1.3990 -1.3960  1.8003
  343MOL0     H46274   2.681   2.041   0.599 -0.4590 -1.3903  0.2885
  343MOL0     H46275   2.823   1.934   0.852 -1.8165 -0.7044  1.3702
  343MOL0     H46276   2.723   2.084   0.837  0.8088 -0.8230  0.5172
  343MOL0     H46277   2.993   2.015   0.738 -0.2804  1.9587 -3.6577
  343MOL0     H46278   2.917   2.167   0.703  0.7717  1.7102  0.6237
  343MOL0     H46279   2.892   2.244   0.934 -1.3785 -2.2149  2.5566
  343MOL0     H46280   3.061   2.214   0.882  0.6411 -1.9208  0.0570
  343MOL0     H46281   2.894   2.031   1.057 -0.6101  3.3084  0.4502
  343MOL0     H46282   3.048   1.986   0.984 -2.3620 -1.7397 -0.0381
  343MOL0     H46283   3.114   2.224   1.101 -1.0667  0.2654 -1.1085
  343MOL0     H46284   3.130   2.066   1.193 -1.0999 -0.8880  0.1239
  343MOL0     H46285   2.875   2.222   1.218 -1.1937 -0.3144  2.7493
  343MOL0     H46286   3.022   2.241   1.322 -0.1039  0.2596  0.2799
  343MOL0     H46287   2.588   1.819   0.998  0.4457 -0.5631 -1.3716
  343MOL0     H46288   2.420   1.688   1.148 -2.9245 -1.3524  0.9343
  343MOL0     H46289   1.943   1.534   1.071 -0.8590  2.4776  0.7745
  343MOL0     H46290   1.774   1.395   1.167  2.8718 -3.6451  0.6032
  343MOL0     H46291   1.552   1.282   2.880  3.0353  1.2616 -0.3841
  343MOL0     H46292   1.785   1.262   2.907  0.9880 -3.6299  5.5999
  343MOL0     H46293   2.107   0.877   2.985  1.2725 -2.6440  1.1495
  343MOL0     H46294   2.326   0.781   3.021 -2.9044  0.4852  0.0342
  343MOL0     H46295   2.751   0.829   2.870  0.3463 -0.8779  0.6093
  343MOL0     H46296   2.662   0.903   2.738  0.7868 -2.6927  0.2520
  343MOL0     H46297   2.647   1.011   3.023  1.7355  0.8314  0.7780
  343MOL0     H46298   2.617   1.112   2.877  1.0378  0.1807 -1.5189
  343MOL0     H46299   2.888   1.007   2.970  0.7853  1.0769  0.7070
  343MOL0     H46300   2.824   1.175   3.003 -1.4169 -0.8541  0.1645
  343MOL0     H46301   2.889   1.058   2.724 -3.8953 -1.4383 -0.0727
  343MOL0     H46302   2.971   1.182   2.823  1.6137 -2.3694 -0.4596
  343MOL0     H46303   2.633   1.383   2.642  0.1918 -1.0740 -0.9708
  343MOL0     H46304   2.477   1.001   2.669 -0.7809  2.7616  0.2014
  343MOL0     H46305   2.251   1.056   2.622 -1.5950 -1.8518 -0.5758
  344MOL0     O46306   4.988  10.754   8.976  0.2535 -0.3919  0.9241
  344MOL0     C46307   5.040  10.736   8.864  0.0822 -0.0967 -0.3786
  344MOL0     O46308   5.153  10.664   8.844 -0.0317 -0.1112 -0.4358
  344MOL0     C46309   5.235  10.640   8.955  0.6696 -0.5516  0.4496
  344MOL0     C46310   5.222  10.507   8.998  0.0712  0.6363  0.0223
  344MOL0     C46311   5.291  10.466   9.116 -0.0660 -0.2591  0.3151
  344MOL0     C46312   5.372  10.555   9.186 -0.8839  0.1928  0.4395
  344MOL0     O46313   5.450  10.501   9.282 -0.0899  0.3131  0.1266
  344MOL0     C46314   5.588  10.532   9.284  0.8731  0.3925 -0.0138
  344MOL0     C46315   5.649  10.448   9.168 -0.5701  0.2378  0.5982
  344MOL0     C46316   5.807  10.441   9.188 -0.4697 -0.2296  0.1790
  344MOL0     C46317   5.878  10.322   9.110  0.4861 -0.0104 -0.1783
  344MOL0     C46318   5.890  10.370   8.967  0.1971 -0.1403 -0.4260
  344MOL0     C46319   5.937  10.262   8.876  0.2227  0.8675 -1.4180
  344MOL0     C46320   5.945  10.311   8.735 -0.3524 -0.2204  0.6946
  344MOL0     C46321   6.006  10.221   8.632 -0.1083 -0.4487  0.2808
  344MOL0     N46322   5.954  10.085   8.640 -0.4367 -1.0334 -0.2912
  344MOL0     C46323   5.863  10.026   8.555  0.1458  0.1961 -0.3469
  344MOL0     C46324   5.869   9.896   8.576  0.0654 -0.3686  0.0365
  344MOL0     C46325   5.787   9.796   8.515  0.5751  0.3432 -0.1548
  344MOL0     C46326   5.778   9.816   8.366  0.3437  0.7302  0.1077
  344MOL0     C46327   5.696   9.714   8.286 -0.2786 -0.8449 -0.1692
  344MOL0     C46328   5.742   9.568   8.289  0.5523 -0.1287 -0.3614
  344MOL0     O46329   5.848   9.546   8.205 -0.5888 -0.0323  0.4193
  344MOL0     C46330   5.890   9.413   8.186  0.1346  0.0939  0.5920
  344MOL0     C46331   5.882   9.316   8.277  0.3726  0.1642  0.2550
  344MOL0     C46332   5.941   9.192   8.254  0.1214 -1.0171  0.1003
  344MOL0     C46333   5.909   9.083   8.358  0.2098 -0.7807  0.2414
  344MOL0     C46334   6.006   9.162   8.135  0.4437 -0.5955 -0.0910
  344MOL0     C46335   6.050   9.019   8.102  0.5525  0.2448  0.6125
  344MOL0     O46336   6.087   8.938   8.200  0.3566 -0.0755 -0.7315
  344MOL0     C46337   6.107   8.809   8.169  0.1252  0.3145 -1.1087
  344MOL0     C46338   6.208   8.758   8.082  0.2483 -1.0469 -0.3689
  344MOL0     C46339   6.226   8.621   8.056  0.0810 -0.2194 -0.1708
  344MOL0     C46340   6.142   8.528   8.114 -0.3863 -0.7947  0.2044
  344MOL0     O46341   6.182   8.403   8.082  0.7283  0.1311 -0.4095
  344MOL0     C46342   6.091   8.298   8.113  0.5023 -0.3433 -0.1319
  344MOL0     C46343   6.113   8.252   8.256 -0.0162  1.2511  0.5697
  344MOL0     C46344   6.186   8.121   8.267 -0.5387  0.0824 -2.5039
  344MOL0     C46345   6.104   7.993   8.249 -0.9049  0.0323  0.6812
  344MOL0     C46346   6.207   7.868   8.247  0.5288 -0.6202  0.0309
  344MOL0     C46347   6.306   7.850   8.360  0.2126 -0.9545  0.1377
  344MOL0     C46348   6.400   7.730   8.339  0.3462 -0.6543  0.1105
  344MOL0     C46349   6.545   7.737   8.394 -0.0448 -1.2023 -0.8896
  344MOL0    Cl46350   6.625   7.579   8.390  0.3131  0.1762  0.0999
  344MOL0     C46351   6.042   8.571   8.200  0.8276  0.8407  0.4443
  344MOL0     C46352   6.024   8.705   8.227  0.7027 -0.0702  0.3740
  344MOL0     O46353   6.066   8.999   7.984 -0.4409 -0.2814 -0.0517
  344MOL0     C46354   6.011   9.266   8.038 -0.2920 -0.6192 -0.2918
  344MOL0     C46355   5.953   9.390   8.073 -0.3304 -0.1099 -0.5143
  344MOL0     N46356   5.966   9.868   8.665 -0.5721 -0.2003 -0.6787
  344MOL0     N46357   6.026   9.978   8.696 -0.4187  0.6359  0.1380
  344MOL0     C46358   5.384  10.684   9.136 -0.3019 -0.0159 -0.1424
  344MOL0     C46359   5.309  10.733   9.023 -0.5480  0.2221 -0.6738
  344MOL0     C46360   4.957  10.765   8.750 -0.0420 -0.3899 -0.0182
  344MOL0     C46361   4.964  10.701   8.628 -0.1152  0.0963 -0.5198
  344MOL0     C46362   4.871  10.738   8.529 -0.8656 -0.1578 -0.3549
  344MOL0     C46363   4.758  10.817   8.554  0.6468 -0.4830 -0.4358
  344MOL0     O46364   4.679  10.834   8.447 -0.9149  0.6748 -0.1844
  344MOL0     C46365   4.546  10.891   8.454 -0.1038 -0.3598 -0.7545
  344MOL0     C46366   4.450  10.778   8.494  0.7581 -0.3097 -0.2816
  344MOL0     C46367   4.319  10.827   8.564  0.0372  0.1667 -0.0132
  344MOL0     C46368   4.323  10.907   8.695 -0.1595  0.8937  0.5308
  344MOL0     C46369   4.402  10.841   8.798 -0.5467  0.9459 -0.5381
  344MOL0     C46370   4.462  10.779   8.884 -0.7938  0.4299  0.9683
  344MOL0     C46371   4.749  10.885   8.677 -0.3814  0.2290  0.4586
  344MOL0     C46372   4.851  10.861   8.768  0.3191 -0.4337  0.3465
  344MOL0     H46373   5.170  10.432   8.938  2.5305  0.7135 -2.4231
  344MOL0     H46374   5.299  10.366   9.158  1.5613  1.2760  4.2198
  344MOL0     H46375   5.622  10.635   9.270  0.7778  0.7822  2.2299
  344MOL0     H46376   5.625  10.511   9.385  1.3159  0.7633 -0.0940
  344MOL0     H46377   5.609  10.346   9.167  1.0983 -0.4578  1.2015
  344MOL0     H46378   5.623  10.498   9.074  2.6165 -2.1710 -1.8315
  344MOL0     H46379   5.852  10.536   9.157 -3.2613  1.4990  1.0596
  344MOL0     H46380   5.829  10.422   9.294 -0.3522 -0.7916  0.0601
  344MOL0     H46381   5.975  10.292   9.150  0.3425 -0.4574 -0.1638
  344MOL0     H46382   5.824  10.227   9.116  0.2465  0.1129 -0.3780
  344MOL0     H46383   5.788  10.401   8.942 -1.6382 -0.6952  5.1196
  344MOL0     H46384   5.967  10.449   8.962  1.5347 -1.0783  2.8941
  344MOL0     H46385   6.033  10.221   8.907  0.4039 -1.3928 -4.4827
  344MOL0     H46386   5.860  10.188   8.901  2.1981 -0.2925  1.9514
  344MOL0     H46387   5.848  10.352   8.707 -0.1221  1.7473  2.5587
  344MOL0     H46388   6.006  10.401   8.742  1.0548 -1.0366 -0.4022
  344MOL0     H46389   6.114  10.222   8.648  0.1603  0.9290 -1.3431
  344MOL0     H46390   5.996  10.256   8.529 -0.6806 -1.1726  0.0821
  344MOL0     H46391   5.795  10.080   8.490  0.8978 -1.6535 -2.8327
  344MOL0     H46392   5.822   9.694   8.531 -0.0922  0.3821  1.8363
  344MOL0     H46393   5.687   9.798   8.560  1.4155  2.5454  1.8315
  344MOL0     H46394   5.879   9.827   8.326 -0.1403  2.5436 -0.7261
  344MOL0     H46395   5.729   9.912   8.350  0.0893  0.7280  0.8669
  344MOL0     H46396   5.709   9.744   8.181  3.8124 -3.1838 -0.5801
  344MOL0     H46397   5.590   9.723   8.309 -0.1097  2.4186 -0.2883
  344MOL0     H46398   5.662   9.500   8.258  0.9459 -0.4511 -0.6872
  344MOL0     H46399   5.765   9.530   8.389 -1.3236 -1.7247 -0.4691
  344MOL0     H46400   5.835   9.335   8.373 -1.2695 -1.4616 -0.1758
  344MOL0     H46401   5.827   9.111   8.424 -1.8356 -2.4175 -1.4640
  344MOL0     H46402   5.867   8.996   8.307  0.4993  0.8973 -3.0667
  344MOL0     H46403   5.997   9.056   8.418  0.6039 -0.0549  0.0026
  344MOL0     H46404   6.275   8.832   8.039  0.1512 -1.3602 -1.0826
  344MOL0     H46405   6.314   8.589   8.001  0.2638  2.7378 -1.8016
  344MOL0     H46406   5.984   8.320   8.099 -0.0115 -3.1622 -1.3374
  344MOL0     H46407   6.116   8.216   8.045  0.0550  0.4784 -1.3253
  344MOL0     H46408   6.169   8.333   8.304  1.3267  2.6031 -2.9406
  344MOL0     H46409   6.025   8.243   8.320 -0.0626  1.9681  0.6092
  344MOL0     H46410   6.240   8.127   8.362 -1.2676 -0.4773 -2.0439
  344MOL0     H46411   6.264   8.123   8.191  1.6185  1.2760 -0.3813
  344MOL0     H46412   6.025   7.975   8.322 -0.9953  1.8517  1.0726
  344MOL0     H46413   6.067   7.996   8.146  0.7154 -0.2950  0.0592
  344MOL0     H46414   6.265   7.872   8.154  0.4813 -0.9964 -0.0177
  344MOL0     H46415   6.161   7.769   8.253  0.7789 -0.7606 -0.2933
  344MOL0     H46416   6.366   7.938   8.386  1.4593 -1.6278 -0.3524
  344MOL0     H46417   6.252   7.833   8.453  0.4003 -1.1409  0.2155
  344MOL0     H46418   6.416   7.712   8.232 -1.2745 -2.9036  0.1817
  344MOL0     H46419   6.353   7.640   8.379 -1.9270  1.0543  1.5330
  344MOL0     H46420   6.546   7.752   8.502  3.2116 -2.1739 -0.6911
  344MOL0     H46421   6.613   7.808   8.346  2.2009 -2.5154  0.1884
  344MOL0     H46422   5.970   8.503   8.243 -1.8529  3.0613 -0.2175
  344MOL0     H46423   5.934   8.740   8.277 -0.1143 -0.3540 -0.8509
  344MOL0     H46424   6.058   9.253   7.941 -1.7526 -1.7384 -0.8908
  344MOL0     H46425   5.967   9.465   7.995  1.6111  0.0118 -0.0940
  344MOL0     H46426   5.452  10.753   9.185 -1.9751  2.3157 -0.9395
  344MOL0     H46427   5.322  10.836   8.990 -2.7921  1.4728  1.9472
  344MOL0     H46428   5.045  10.630   8.618 -2.5578 -3.0660  0.3225
  344MOL0     H46429   4.883  10.696   8.429  1.0762 -0.9496  0.1680
  344MOL0     H46430   4.530  10.980   8.516  1.9524  1.0444 -2.0903
  344MOL0     H46431   4.519  10.925   8.353 -1.1254 -3.5364 -1.6597
  344MOL0     H46432   4.498  10.713   8.567 -0.5584 -1.8289 -0.7025
  344MOL0     H46433   4.433  10.717   8.405 -1.5165 -0.3792  0.1272
  344MOL0     H46434   4.261  10.734   8.575  0.1194  0.2739  1.6614
  344MOL0     H46435   4.255  10.891   8.503 -0.3656  1.8011  2.0315
  344MOL0     H46436   4.223  10.922   8.736 -0.9402 -1.0934 -0.5204
  344MOL0     H46437   4.362  11.006   8.671  2.0075  0.6302  2.5175
  344MOL0     H46438   4.534  10.732   8.948 -0.2074  1.8626  1.3860
  344MOL0     H46439   4.674  10.962   8.691  1.3639  2.3108 -0.9320
  344MOL0     H46440   4.844  10.927   8.854  0.0359  1.1463 -0.8425
  345MOL0     O46441   8.235   6.488   0.451  0.7984 -0.3210  0.1502
  345MOL0     C46442   8.335   6.435   0.496  1.1104  0.0188  0.1132
  345MOL0     O46443   8.337   6.313   0.557  0.2143  0.5977 -0.6873
  345MOL0     C46444   8.231   6.232   0.591  0.1596 -0.2202 -0.7050
  345MOL0     C46445   8.133   6.208   0.498  0.1592 -0.3455 -0.5357
  345MOL0     C46446   8.020   6.130   0.530  0.1171  0.0426 -0.2125
  345MOL0     C46447   8.020   6.052   0.652  0.5253 -0.1453  1.0078
  345MOL0     O46448   7.914   5.987   0.691  0.1382  0.6253  0.1183
  345MOL0     C46449   7.817   5.934   0.599  0.4415  0.1349 -0.3852
  345MOL0     C46450   7.741   5.815   0.663 -0.1747  0.2153 -0.0072
  345MOL0     C46451   7.637   5.773   0.572  1.0039 -0.2808  0.9231
  345MOL0     C46452   7.521   5.690   0.641 -0.1123  0.2151 -0.1594
  345MOL0     C46453   7.412   5.778   0.701  0.6481 -0.4395 -0.6152
  345MOL0     C46454   7.310   5.702   0.787 -0.2929 -0.1291 -0.5675
  345MOL0     C46455   7.226   5.599   0.714 -0.0807  0.8185  0.1118
  345MOL0     C46456   7.148   5.515   0.820 -0.0302 -0.9911  0.9024
  345MOL0     N46457   7.002   5.562   0.840 -1.2819  0.9906 -0.5558
  345MOL0     C46458   6.962   5.656   0.927  0.5015  0.4078 -0.4891
  345MOL0     C46459   6.829   5.667   0.907  0.2599  0.4318 -0.1581
  345MOL0     C46460   6.736   5.738   1.003  0.3688  0.6268 -0.0961
  345MOL0     C46461   6.639   5.639   1.076 -0.5172  0.4732  0.7883
  345MOL0     C46462   6.498   5.683   1.048 -0.0634  0.5827  0.1717
  345MOL0     C46463   6.440   5.597   0.936 -0.2121  0.4986 -0.2144
  345MOL0     O46464   6.388   5.482   1.007 -0.3407 -0.1698  0.1349
  345MOL0     C46465   6.262   5.487   1.064 -0.3293  0.1368  0.0992
  345MOL0     C46466   6.238   5.381   1.154 -0.0246 -0.9677  0.2953
  345MOL0     C46467   6.121   5.361   1.215  0.0823  0.0766 -0.2229
  345MOL0     C46468   6.117   5.253   1.306 -0.1653 -0.1225 -0.0230
  345MOL0     C46469   6.008   5.444   1.177  0.0630 -0.0043  0.1290
  345MOL0     C46470   5.871   5.439   1.236  0.8510  0.7952 -1.3005
  345MOL0     O46471   5.774   5.525   1.189  0.2350  0.2850 -0.5462
  345MOL0     C46472   5.639   5.503   1.193  0.7261 -0.6651 -0.5170
  345MOL0     C46473   5.550   5.616   1.194 -0.5484  0.9970  0.6989
  345MOL0     C46474   5.413   5.590   1.215 -0.7660 -0.4841  0.3578
  345MOL0     C46475   5.361   5.460   1.209  0.1473  0.2202  0.1015
  345MOL0     O46476   5.231   5.423   1.210  0.5522 -0.1990 -0.0579
  345MOL0     C46477   5.129   5.532   1.216 -0.0082  0.7033  0.0160
  345MOL0     C46478   4.989   5.492   1.248  0.0243 -0.6327 -0.5483
  345MOL0     C46479   4.898   5.621   1.260  0.8486  0.0828  0.6102
  345MOL0     C46480   4.746   5.583   1.244 -0.6190 -0.5608  0.4303
  345MOL0     C46481   4.661   5.695   1.299  1.1617 -0.5076  0.4998
  345MOL0     C46482   4.508   5.662   1.278 -0.5772 -0.3896 -0.0635
  345MOL0     C46483   4.428   5.795   1.300  0.3606  1.1319 -0.3663
  345MOL0     C46484   4.434   5.879   1.433 -1.0708  0.6655 -0.3734
  345MOL0    Cl46485   4.415   5.783   1.574 -0.1718 -0.0990  0.5519
  345MOL0     C46486   5.440   5.353   1.204 -1.0134 -0.2389 -0.1828
  345MOL0     C46487   5.586   5.372   1.187  0.1657 -0.0406  0.3834
  345MOL0     O46488   5.855   5.365   1.330  0.2346  0.7128 -0.1416
  345MOL0     C46489   6.029   5.555   1.098 -0.5257 -0.7106 -0.9659
  345MOL0     C46490   6.156   5.577   1.046 -0.0636 -0.0875 -0.8771
  345MOL0     N46491   6.797   5.574   0.804 -0.0822 -1.0357 -0.8711
  345MOL0     N46492   6.907   5.516   0.761  0.1384 -0.3113  0.8010
  345MOL0     C46493   8.136   6.057   0.732  0.7040 -0.1906  0.8079
  345MOL0     C46494   8.240   6.155   0.709 -0.6053 -0.1491  0.0411
  345MOL0     C46495   8.460   6.503   0.477 -0.7210 -0.0862  0.7245
  345MOL0     C46496   8.526   6.506   0.350 -0.8849  0.9524  0.1901
  345MOL0     C46497   8.651   6.564   0.345 -0.5470 -0.3838 -0.3053
  345MOL0     C46498   8.727   6.615   0.455  0.3731 -0.2451 -0.1194
  345MOL0     O46499   8.855   6.660   0.425  0.1217  0.2902 -0.3549
  345MOL0     C46500   8.922   6.740   0.526  0.5404 -0.9780  0.1917
  345MOL0     C46501   8.981   6.663   0.647 -0.3509 -0.5204 -0.5387
  345MOL0     C46502   9.095   6.566   0.599  0.8708  0.3557  0.5856
  345MOL0     C46503   9.172   6.469   0.698 -0.6468 -0.3832  0.5232
  345MOL0     C46504   9.286   6.552   0.754  0.2784  0.5078 -0.5595
  345MOL0     C46505   9.398   6.597   0.785 -0.2470 -0.2156  0.6645
  345MOL0     C46506   8.652   6.623   0.569 -0.3508  0.9347 -0.1069
  345MOL0     C46507   8.525   6.560   0.587  0.4237 -0.0967 -0.0164
  345MOL0     H46508   8.152   6.271   0.413  1.4417 -0.7511 -0.5725
  345MOL0     H46509   7.942   6.120   0.455 -2.6542  1.3748  2.2506
  345MOL0     H46510   7.747   6.017   0.587 -1.1985 -1.4580 -2.6353
  345MOL0     H46511   7.868   5.895   0.511  0.6318  0.2839 -0.3445
  345MOL0     H46512   7.810   5.735   0.693  1.2758  1.2500 -0.5059
  345MOL0     H46513   7.698   5.855   0.755 -0.5408  2.6250 -1.1486
  345MOL0     H46514   7.597   5.855   0.513 -0.7631 -1.0021  1.0400
  345MOL0     H46515   7.667   5.706   0.491  0.2146 -0.7204  0.9832
  345MOL0     H46516   7.473   5.624   0.567 -1.6252  3.3594 -2.2027
  345MOL0     H46517   7.560   5.622   0.717 -2.0405  1.0144  1.6298
  345MOL0     H46518   7.461   5.856   0.759 -0.1027 -0.4888  0.1083
  345MOL0     H46519   7.364   5.832   0.619  0.4017  1.9866  1.0338
  345MOL0     H46520   7.363   5.653   0.870 -0.4978  1.5639  0.6197
  345MOL0     H46521   7.233   5.762   0.837 -0.5635 -2.6612  2.3385
  345MOL0     H46522   7.162   5.639   0.635  1.1071  0.0063 -1.3302
  345MOL0     H46523   7.291   5.529   0.660 -0.7512  0.8079 -0.6949
  345MOL0     H46524   7.202   5.504   0.914 -2.4798 -0.9153  2.3959
  345MOL0     H46525   7.144   5.417   0.772  0.5442 -0.1262 -1.0221
  345MOL0     H46526   7.014   5.711   1.004  1.2474 -1.4393  0.3962
  345MOL0     H46527   6.796   5.778   1.086 -0.4545  0.9667  0.3411
  345MOL0     H46528   6.686   5.811   0.939 -0.4842 -0.7447 -1.0601
  345MOL0     H46529   6.648   5.638   1.185  0.5252  1.0855  0.7111
  345MOL0     H46530   6.662   5.537   1.044 -1.5717  1.4467 -3.8094
  345MOL0     H46531   6.496   5.791   1.036  2.2638  0.8532  1.5400
  345MOL0     H46532   6.442   5.667   1.140  0.7920  1.8374  0.9337
  345MOL0     H46533   6.517   5.577   0.860  0.0104 -0.1302  0.1682
  345MOL0     H46534   6.354   5.653   0.896 -3.8670 -3.7520  0.8874
  345MOL0     H46535   6.321   5.314   1.174 -0.6515 -2.1648 -0.9280
  345MOL0     H46536   6.091   5.291   1.405 -4.4039  0.0623 -1.0427
  345MOL0     H46537   6.038   5.182   1.282 -0.2732  0.1517 -0.4889
  345MOL0     H46538   6.211   5.196   1.306 -0.4966 -0.7240 -1.9326
  345MOL0     H46539   5.583   5.718   1.210 -0.2186  1.1524 -0.8834
  345MOL0     H46540   5.347   5.676   1.208 -1.4072 -1.1220 -4.4443
  345MOL0     H46541   5.160   5.610   1.286 -0.8282  1.4613 -0.4470
  345MOL0     H46542   5.137   5.582   1.119  0.7360  0.7550  0.0959
  345MOL0     H46543   4.959   5.418   1.172 -2.6849  0.2882 -0.4524
  345MOL0     H46544   4.993   5.450   1.349  0.8335  1.3111  0.2771
  345MOL0     H46545   4.918   5.687   1.176  0.6220 -2.1543 -1.3144
  345MOL0     H46546   4.912   5.686   1.347 -1.3631 -0.9703  1.8727
  345MOL0     H46547   4.719   5.571   1.139 -0.1611 -1.9993  0.4538
  345MOL0     H46548   4.734   5.491   1.303  1.7936 -0.7189  0.7922
  345MOL0     H46549   4.689   5.775   1.229 -0.4326 -0.9128 -0.6543
  345MOL0     H46550   4.676   5.719   1.404 -3.7615 -0.4464  1.4140
  345MOL0     H46551   4.490   5.629   1.176 -3.2552 -0.3728  0.3353
  345MOL0     H46552   4.468   5.585   1.345  0.4997 -0.5795  0.3961
  345MOL0     H46553   4.326   5.760   1.286  0.8461 -1.1238  1.1933
  345MOL0     H46554   4.441   5.869   1.221 -2.8528  2.0623 -0.1554
  345MOL0     H46555   4.354   5.953   1.440 -0.1354  1.7790 -1.0462
  345MOL0     H46556   4.528   5.935   1.435  0.9280 -2.1170  5.0454
  345MOL0     H46557   5.400   5.253   1.194  0.4196 -0.7885 -0.6849
  345MOL0     H46558   5.645   5.281   1.189 -0.5567 -0.5284 -0.1364
  345MOL0     H46559   5.948   5.620   1.068 -2.8274 -1.4773  2.9789
  345MOL0     H46560   6.171   5.664   0.982 -0.8446 -0.2062 -1.2320
  345MOL0     H46561   8.141   6.006   0.828 -2.4554  0.4028  1.3991
  345MOL0     H46562   8.320   6.164   0.782 -1.3265 -2.0106  1.1332
  345MOL0     H46563   8.504   6.456   0.256 -1.9450 -0.9343  1.3639
  345MOL0     H46564   8.696   6.544   0.248  1.3394 -2.1531  0.8324
  345MOL0     H46565   9.007   6.789   0.478  1.7596 -1.7757  1.4516
  345MOL0     H46566   8.853   6.817   0.561  0.0316 -1.9623  1.4355
  345MOL0     H46567   8.906   6.601   0.696 -1.6007  0.8176 -0.6866
  345MOL0     H46568   9.014   6.743   0.713 -1.8043 -0.8321  0.6222
  345MOL0     H46569   9.168   6.614   0.532  2.3539 -3.4201 -0.7652
  345MOL0     H46570   9.042   6.500   0.530 -1.0989  1.5689  0.8559
  345MOL0     H46571   9.198   6.384   0.635 -1.2379 -0.3853  0.2722
  345MOL0     H46572   9.124   6.426   0.787  1.0228 -0.5004  1.3978
  345MOL0     H46573   9.485   6.648   0.822 -1.4509  3.6588 -1.2918
  345MOL0     H46574   8.705   6.679   0.645  0.1481  0.5309 -0.1541
  345MOL0     H46575   8.480   6.567   0.685 -0.9700 -2.1030 -0.4627
  346MOL0     O46576   0.626   6.824   5.888 -0.2005 -0.7358 -0.4143
  346MOL0     C46577   0.672   6.931   5.837  0.7991 -0.0761  0.6076
  346MOL0     O46578   0.656   6.972   5.706  0.3166 -0.7171 -0.3949
  346MOL0     C46579   0.586   6.890   5.620  0.3822 -1.6590 -0.2857
  346MOL0     C46580   0.463   6.828   5.647  0.2321 -0.9853 -0.0802
  346MOL0     C46581   0.411   6.744   5.547  0.4079  0.3328 -0.0857
  346MOL0     C46582   0.458   6.733   5.420 -0.5726 -0.3547 -0.5586
  346MOL0     O46583   0.410   6.654   5.314 -0.0326 -0.6130  0.0520
  346MOL0     C46584   0.276   6.655   5.288 -0.5169 -0.1115  0.0531
  346MOL0     C46585   0.246   6.582   5.155  0.0388  0.1380 -1.1944
  346MOL0     C46586   0.112   6.623   5.099  0.1947 -0.3070 -0.5974
  346MOL0     C46587   0.067   6.562   4.967 -0.4847 -0.1613 -0.3204
  346MOL0     C46588  -0.083   6.579   4.929  0.1492  0.4438 -0.4201
  346MOL0     C46589  -0.184   6.506   5.027 -0.5113 -0.1807  0.5669
  346MOL0     C46590  -0.329   6.514   4.981  0.1407  0.0020 -0.3705
  346MOL0     C46591  -0.377   6.611   4.876  0.0497  0.1560  0.0418
  346MOL0     N46592  -0.524   6.600   4.863 -0.6272  0.2694  0.0676
  346MOL0     C46593  -0.613   6.692   4.911 -1.0789 -0.3919  0.2913
  346MOL0     C46594  -0.732   6.648   4.886  0.5527  0.3471 -0.2700
  346MOL0     C46595  -0.859   6.712   4.926  0.1210 -0.4768  0.7562
  346MOL0     C46596  -0.979   6.627   4.894  0.3839  0.3937 -0.5187
  346MOL0     C46597  -1.117   6.677   4.939  0.4729  0.6587  0.3650
  346MOL0     C46598  -1.215   6.565   4.952  0.3606 -0.0898 -0.0818
  346MOL0     O46599  -1.336   6.622   4.999 -0.0464  0.1317  0.6134
  346MOL0     C46600  -1.449   6.555   4.948  0.3185 -0.4705 -0.3171
  346MOL0     C46601  -1.502   6.450   5.024  0.9389  0.5586 -0.8170
  346MOL0     C46602  -1.624   6.390   4.988 -0.1126 -0.9723 -0.0061
  346MOL0     C46603  -1.689   6.291   5.089 -0.1165  0.4812  0.1684
  346MOL0     C46604  -1.684   6.423   4.867  0.2581 -0.2421  0.8897
  346MOL0     C46605  -1.798   6.344   4.813  0.2202 -0.8280 -0.2347
  346MOL0     O46606  -1.917   6.334   4.884 -1.2799  0.8864 -0.0463
  346MOL0     C46607  -2.033   6.285   4.822 -0.2674 -0.7570 -0.4029
  346MOL0     C46608  -2.145   6.367   4.845 -0.0381  0.2360  0.6687
  346MOL0     C46609  -2.264   6.322   4.795 -0.1587 -0.1940 -0.1553
  346MOL0     C46610  -2.288   6.198   4.734 -0.1761 -0.0148 -0.3526
  346MOL0     O46611  -2.419   6.183   4.692 -0.9728 -0.4342 -0.1243
  346MOL0     C46612  -2.447   6.054   4.623 -0.3381  0.4861  0.8128
  346MOL0     C46613  -2.597   6.040   4.587  0.6428  0.2132  1.0401
  346MOL0     C46614  -2.677   6.010   4.709  0.2359  0.4694  0.2639
  346MOL0     C46615  -2.819   5.960   4.672 -0.0994  0.4030  0.8822
  346MOL0     C46616  -2.860   5.849   4.760  0.1973 -0.0282 -0.7250
  346MOL0     C46617  -2.986   5.787   4.708 -0.0097 -0.1472  0.1936
  346MOL0     C46618  -3.033   5.676   4.803 -0.5577 -0.4137 -1.2026
  346MOL0     C46619  -3.171   5.617   4.777  0.1699 -0.6986 -0.2267
  346MOL0    Cl46620  -3.200   5.601   4.605  0.0358 -0.3196  0.7201
  346MOL0     C46621  -2.175   6.122   4.696  0.4960 -0.3208 -0.1977
  346MOL0     C46622  -2.050   6.168   4.742 -0.4523 -0.1921 -0.6286
  346MOL0     O46623  -1.788   6.314   4.700 -0.2101  0.2579 -0.5102
  346MOL0     C46624  -1.641   6.535   4.791  0.5408  0.0394 -0.2993
  346MOL0     C46625  -1.524   6.596   4.832  0.0683 -0.4770 -0.3384
  346MOL0     N46626  -0.725   6.523   4.827  0.7515 -0.5665  0.9057
  346MOL0     N46627  -0.603   6.494   4.820 -0.1131  0.0842  0.8815
  346MOL0     C46628   0.578   6.805   5.392  0.6830  0.6376  0.0437
  346MOL0     C46629   0.641   6.877   5.491 -1.2098  0.1965 -0.7932
  346MOL0     C46630   0.753   7.007   5.938  0.5176 -0.4038 -0.2695
  346MOL0     C46631   0.774   6.972   6.077 -0.9698 -0.6338 -0.1578
  346MOL0     C46632   0.868   7.043   6.152 -0.3614  0.2729 -0.7070
  346MOL0     C46633   0.949   7.143   6.095  0.0799 -0.3313 -0.7102
  346MOL0     O46634   1.041   7.219   6.168 -0.1117  0.1535 -0.1405
  346MOL0     C46635   1.033   7.240   6.308  0.3531 -0.1688  0.1481
  346MOL0     C46636   1.112   7.145   6.384 -0.0778  0.0781 -0.6097
  346MOL0     C46637   1.104   7.191   6.530 -0.3799  0.1629 -0.3051
  346MOL0     C46638   1.238   7.146   6.598  0.6231  0.3824 -0.4475
  346MOL0     C46639   1.250   7.191   6.737  0.1713  0.2415  0.5029
  346MOL0     C46640   1.237   7.227   6.850 -0.0096 -0.7753  0.0214
  346MOL0     C46641   0.916   7.193   5.971 -0.0089  0.3015 -0.0259
  346MOL0     C46642   0.814   7.126   5.895 -0.0558  0.1046  0.2521
  346MOL0     H46643   0.415   6.844   5.743  2.8449  1.3577  0.9933
  346MOL0     H46644   0.314   6.698   5.564  1.5911 -2.5375 -0.5231
  346MOL0     H46645   0.227   6.600   5.370  1.8213  1.4741  2.7011
  346MOL0     H46646   0.248   6.761   5.292  3.1794  1.0632 -1.6864
  346MOL0     H46647   0.318   6.618   5.080  2.2469  1.8939  1.5376
  346MOL0     H46648   0.253   6.473   5.163  1.5739  0.3408  2.5322
  346MOL0     H46649   0.039   6.592   5.174  0.2685 -0.5533 -0.6262
  346MOL0     H46650   0.108   6.732   5.101  2.9848 -0.1400  0.6530
  346MOL0     H46651   0.133   6.592   4.886 -2.5987  2.6036 -1.1816
  346MOL0     H46652   0.091   6.455   4.972  4.8834  0.8018  0.6934
  346MOL0     H46653  -0.108   6.683   4.907  0.2040  0.3965 -0.7177
  346MOL0     H46654  -0.086   6.543   4.825  1.5742 -0.3117 -0.2287
  346MOL0     H46655  -0.147   6.404   5.037  2.3571  0.7051 -0.0195
  346MOL0     H46656  -0.177   6.541   5.131 -3.0694  0.4506  0.5933
  346MOL0     H46657  -0.359   6.411   4.960 -0.9018  0.4918 -1.3984
  346MOL0     H46658  -0.377   6.525   5.079  1.3042 -0.0541  0.2165
  346MOL0     H46659  -0.320   6.601   4.783  0.1191  3.3971 -0.3568
  346MOL0     H46660  -0.352   6.712   4.908  0.1918 -0.3938  1.7721
  346MOL0     H46661  -0.584   6.781   4.966 -3.6193  0.3783  0.5068
  346MOL0     H46662  -0.856   6.741   5.032 -0.6715 -0.6406  0.8267
  346MOL0     H46663  -0.878   6.800   4.865 -1.1473  0.1357  1.9582
  346MOL0     H46664  -0.954   6.537   4.951 -4.8876 -1.6669 -0.8657
  346MOL0     H46665  -0.977   6.599   4.789 -0.5934 -1.3594 -0.1133
  346MOL0     H46666  -1.161   6.742   4.863 -1.4487 -1.2797 -0.2740
  346MOL0     H46667  -1.109   6.735   5.032 -1.9907  2.7034 -0.5687
  346MOL0     H46668  -1.177   6.487   5.018 -0.4141 -1.0442 -0.7288
  346MOL0     H46669  -1.220   6.514   4.856  4.9753 -2.1161  0.4769
  346MOL0     H46670  -1.454   6.428   5.119 -1.9677  0.1014  0.6388
  346MOL0     H46671  -1.754   6.335   5.165 -1.5768 -1.2865 -0.0012
  346MOL0     H46672  -1.753   6.221   5.035 -0.8921  0.5221  1.0163
  346MOL0     H46673  -1.609   6.236   5.139 -0.5811  1.5571  2.1772
  346MOL0     H46674  -2.130   6.460   4.897  1.3979 -1.2632  3.1328
  346MOL0     H46675  -2.346   6.393   4.801  1.9161  2.3077  0.6235
  346MOL0     H46676  -2.384   6.040   4.535  2.5492  0.0856  2.7798
  346MOL0     H46677  -2.417   5.972   4.690  1.3918 -1.0032 -1.6213
  346MOL0     H46678  -2.626   6.137   4.547 -0.3683 -0.8247 -0.8928
  346MOL0     H46679  -2.599   5.970   4.503 -1.5277  0.8947  0.4623
  346MOL0     H46680  -2.687   6.094   4.779 -1.7558  0.4141  0.1247
  346MOL0     H46681  -2.617   5.936   4.762 -1.3480 -0.0417  1.4207
  346MOL0     H46682  -2.888   6.045   4.676  0.8132  1.1147  2.2366
  346MOL0     H46683  -2.815   5.921   4.570  0.3356  2.6719 -0.0337
  346MOL0     H46684  -2.876   5.895   4.858 -1.2483 -3.4103  0.7746
  346MOL0     H46685  -2.780   5.776   4.776 -1.2872 -1.4444  0.5809
  346MOL0     H46686  -3.064   5.863   4.715  1.4362  1.3057  1.5727
  346MOL0     H46687  -2.969   5.749   4.607 -0.8533 -2.1978  0.7674
  346MOL0     H46688  -3.044   5.715   4.905  0.5648 -2.6312 -0.1586
  346MOL0     H46689  -2.962   5.593   4.807  0.0937  0.1745  0.4660
  346MOL0     H46690  -3.245   5.680   4.828  0.6223 -2.3635  2.7051
  346MOL0     H46691  -3.171   5.515   4.816  0.2961  0.1281  2.0389
  346MOL0     H46692  -2.180   6.026   4.646  3.1948 -1.1941  0.9912
  346MOL0     H46693  -1.957   6.117   4.720 -0.5158 -0.8728  0.5572
  346MOL0     H46694  -1.688   6.572   4.701  2.4396  1.4576 -0.7808
  346MOL0     H46695  -1.469   6.673   4.777  1.4873  0.3409  2.0675
  346MOL0     H46696   0.613   6.811   5.289  1.6660 -0.3118  0.3110
  346MOL0     H46697   0.725   6.930   5.446 -2.0626 -0.1231 -2.8685
  346MOL0     H46698   0.709   6.898   6.122  0.3820 -2.1280 -0.5475
  346MOL0     H46699   0.888   7.013   6.255 -1.2534  1.3011 -0.2126
  346MOL0     H46700   1.080   7.338   6.322  3.6614 -1.8825  2.4118
  346MOL0     H46701   0.930   7.241   6.345  0.4812 -2.8636  0.7367
  346MOL0     H46702   1.216   7.147   6.350  0.5437  1.8913  1.2097
  346MOL0     H46703   1.078   7.041   6.377  0.3280 -0.2561  1.6641
  346MOL0     H46704   1.016   7.155   6.584 -1.0308  4.5696  2.0344
  346MOL0     H46705   1.087   7.299   6.538 -1.4987  0.0673 -1.1189
  346MOL0     H46706   1.328   7.186   6.550  1.4330 -0.7349  0.0991
  346MOL0     H46707   1.235   7.037   6.607 -2.0015  0.4417  0.2870
  346MOL0     H46708   1.232   7.277   6.944 -1.1410  1.4267 -1.1368
  346MOL0     H46709   0.965   7.284   5.936  0.5330 -0.0175 -0.1122
  346MOL0     H46710   0.782   7.168   5.801  2.1182  1.5666  0.0979
  347MOL0     O46711   5.623  10.860   2.039 -0.5144  0.0258 -0.1531
  347MOL0     C46712   5.671  10.837   2.151  0.9393  0.4623  0.7765
  347MOL0     O46713   5.598  10.796   2.255  0.0297  0.0621  0.4424
  347MOL0     C46714   5.462  10.773   2.237  0.3918 -0.2403  0.6029
  347MOL0     C46715   5.389  10.836   2.333 -0.9638 -0.2902  0.1197
  347MOL0     C46716   5.254  10.838   2.324  0.7080  0.0111  0.2863
  347MOL0     C46717   5.192  10.782   2.207  0.0291  0.3655  0.3128
  347MOL0     O46718   5.056  10.789   2.201 -1.4336  0.1009 -0.1818
  347MOL0     C46719   4.986  10.746   2.084  1.8018  0.1191 -0.2612
  347MOL0     C46720   4.839  10.709   2.130 -0.1087 -0.0546  0.2946
  347MOL0     C46721   4.743  10.679   2.016  0.5787  0.0388 -0.4393
  347MOL0     C46722   4.598  10.676   2.062 -0.2336 -0.5271  0.4039
  347MOL0     C46723   4.486  10.621   1.973  0.7360  0.2214  0.0076
  347MOL0     C46724   4.513  10.485   1.908 -0.3820 -1.0187 -0.2280
  347MOL0     C46725   4.384  10.431   1.832  1.0557  0.7222 -0.7168
  347MOL0     C46726   4.350  10.498   1.704 -0.3003 -0.5354 -0.4178
  347MOL0     N46727   4.232  10.430   1.648  0.5874  0.7301  0.4511
  347MOL0     C46728   4.115  10.501   1.631  0.2396  0.9971  1.1547
  347MOL0     C46729   4.023  10.402   1.607  0.1113  0.2267 -0.6949
  347MOL0     C46730   3.875  10.407   1.576 -0.4637 -0.2313 -0.8666
  347MOL0     C46731   3.858  10.378   1.424  0.4198 -0.0389  0.0010
  347MOL0     C46732   3.712  10.394   1.388  1.3359  0.2040 -0.5658
  347MOL0     C46733   3.656  10.536   1.378 -1.0058  0.5742 -0.0326
  347MOL0     O46734   3.524  10.556   1.339  0.0254 -0.5526 -0.0771
  347MOL0     C46735   3.422  10.559   1.437 -0.3954 -0.0684  0.0154
  347MOL0     C46736   3.451  10.622   1.558  0.9207 -0.4051  0.3482
  347MOL0     C46737   3.366  10.596   1.663  1.0455 -0.2709  0.9540
  347MOL0     C46738   3.403  10.660   1.791 -0.6543 -0.3704  0.1334
  347MOL0     C46739   3.250  10.518   1.651 -0.0664  1.2231  0.9307
  347MOL0     C46740   3.150  10.494   1.757  0.6450 -0.3783 -0.3868
  347MOL0     O46741   3.105  10.364   1.756 -0.5291 -0.9751 -0.0990
  347MOL0     C46742   3.025  10.313   1.851  0.1772  0.6904 -0.0163
  347MOL0     C46743   2.890  10.281   1.832  0.1318  0.2639 -0.0235
  347MOL0     C46744   2.821  10.202   1.923  0.1762 -0.6012 -0.8443
  347MOL0     C46745   2.878  10.164   2.042 -0.4325  0.3827 -0.3797
  347MOL0     O46746   2.790  10.092   2.126  0.3594  0.0130 -0.3420
  347MOL0     C46747   2.815  10.112   2.268  0.6700 -0.3664  0.2522
  347MOL0     C46748   2.682  10.178   2.321 -0.4602 -0.1272 -0.1315
  347MOL0     C46749   2.683  10.329   2.290  0.4070  0.1010 -0.7031
  347MOL0     C46750   2.754  10.400   2.406  0.6942 -0.2266  0.8429
  347MOL0     C46751   2.755  10.557   2.373 -0.2765 -0.2008  0.0164
  347MOL0     C46752   2.816  10.618   2.503  0.8354  0.0426  0.4016
  347MOL0     C46753   2.826  10.767   2.499 -0.4077  0.3336  0.8664
  347MOL0     C46754   2.776  10.838   2.376  0.6683 -0.0373  0.0180
  347MOL0    Cl46755   2.593  10.828   2.364  0.8445 -0.0393  0.6366
  347MOL0     C46756   3.007  10.197   2.066 -0.6582 -0.3619 -0.5352
  347MOL0     C46757   3.081  10.263   1.972 -0.3581 -1.1696  0.2773
  347MOL0     O46758   3.105  10.582   1.833  0.5518  0.0626  0.5090
  347MOL0     C46759   3.227  10.447   1.523  0.7883 -0.7186 -0.1491
  347MOL0     C46760   3.320  10.473   1.420  0.1320 -0.4919  0.0013
  347MOL0     N46761   4.083  10.282   1.625  0.8175  0.3774  0.8796
  347MOL0     N46762   4.205  10.296   1.646 -0.6056 -1.3155  0.1900
  347MOL0     C46763   5.269  10.712   2.117 -0.2965 -0.1693  0.7689
  347MOL0     C46764   5.401  10.704   2.129 -0.5455 -0.6344  0.0970
  347MOL0     C46765   5.809  10.872   2.173 -0.5611 -0.3089  0.5633
  347MOL0     C46766   5.888  10.798   2.262  0.6971 -0.7889 -0.0240
  347MOL0     C46767   6.027  10.812   2.270  0.3874  1.0909  1.3644
  347MOL0     C46768   6.094  10.911   2.198  0.1868 -0.3979 -0.1688
  347MOL0     O46769   6.233  10.950   2.194  1.0783  0.5334 -0.5137
  347MOL0     C46770   6.314  10.888   2.292 -0.0840  0.4617 -0.3202
  347MOL0     C46771   6.452  10.948   2.273 -0.1491 -0.7897 -0.3192
  347MOL0     C46772   6.506  10.920   2.131 -0.0962  0.2467  0.3875
  347MOL0     C46773   6.641  10.973   2.121 -0.4519  0.5703  0.0413
  347MOL0     C46774   6.717  10.902   2.013  0.0370 -0.1454 -0.3623
  347MOL0     C46775   6.795  10.846   1.934  0.7271  0.9502 -0.4658
  347MOL0     C46776   6.011  10.996   2.118 -0.3092  0.4725 -0.5733
  347MOL0     C46777   5.877  10.965   2.105  0.2030 -0.0019  0.5891
  347MOL0     H46778   5.437  10.886   2.417 -2.2071  3.2579 -1.1140
  347MOL0     H46779   5.188  10.886   2.396  0.7270  2.2102 -1.0754
  347MOL0     H46780   4.978  10.827   2.010 -1.3964  1.3907  1.2943
  347MOL0     H46781   5.019  10.655   2.033 -1.8826 -0.6142 -1.6508
  347MOL0     H46782   4.842  10.626   2.202  0.1618 -0.7144 -0.4692
  347MOL0     H46783   4.787  10.787   2.186 -1.8769  0.0048 -1.3472
  347MOL0     H46784   4.752  10.757   1.940 -2.5094 -0.2276 -1.1982
  347MOL0     H46785   4.774  10.586   1.967  0.0260 -0.3225 -0.1088
  347MOL0     H46786   4.593  10.622   2.158 -0.2610 -0.9985  0.1391
  347MOL0     H46787   4.572  10.779   2.087 -1.2061 -0.5508 -0.4620
  347MOL0     H46788   4.399  10.593   2.031 -1.4605  0.7260 -2.8144
  347MOL0     H46789   4.440  10.689   1.900 -1.0635 -1.6881 -0.7317
  347MOL0     H46790   4.596  10.499   1.839 -0.9936  1.8325 -0.5328
  347MOL0     H46791   4.539  10.414   1.987  1.0562  1.2195  1.4504
  347MOL0     H46792   4.391  10.323   1.819  1.9892  0.3971  1.9652
  347MOL0     H46793   4.300  10.433   1.902  2.1096  0.1561  0.5831
  347MOL0     H46794   4.433  10.494   1.633  0.5774  0.0975  0.5434
  347MOL0     H46795   4.317  10.600   1.725  1.5178  0.1553 -0.7283
  347MOL0     H46796   4.095  10.608   1.634  0.1381  0.9807  1.0659
  347MOL0     H46797   3.810  10.341   1.634  1.9890 -1.2365  0.9257
  347MOL0     H46798   3.850  10.510   1.605 -0.2933 -0.5092  0.3224
  347MOL0     H46799   3.888  10.276   1.400 -0.6996 -0.0983 -1.2110
  347MOL0     H46800   3.920  10.446   1.365  1.1293  0.8208  1.6479
  347MOL0     H46801   3.648  10.340   1.458  1.5404  1.3905  0.5676
  347MOL0     H46802   3.690  10.342   1.294 -0.9273  0.6810 -0.3784
  347MOL0     H46803   3.719  10.591   1.308 -0.0297  0.4169  0.7032
  347MOL0     H46804   3.662  10.576   1.479 -0.3165 -1.9019  0.9652
  347MOL0     H46805   3.536  10.687   1.577  0.9281  1.2281 -4.1136
  347MOL0     H46806   3.336  10.640   1.876 -1.4200 -0.7953 -0.5572
  347MOL0     H46807   3.503  10.626   1.820 -0.7284 -2.9799 -2.2531
  347MOL0     H46808   3.407  10.767   1.769  0.7708 -0.4856 -0.2483
  347MOL0     H46809   2.837  10.305   1.740 -0.1097  2.4095  0.6128
  347MOL0     H46810   2.720  10.169   1.900 -0.1071 -0.6420  0.3947
  347MOL0     H46811   2.837  10.013   2.308 -0.4082 -0.1179  1.4965
  347MOL0     H46812   2.895  10.182   2.296  0.2481  0.3744 -0.3694
  347MOL0     H46813   2.601  10.139   2.259  0.2550 -0.6547 -0.7521
  347MOL0     H46814   2.655  10.151   2.424 -1.4275  0.2369 -0.2781
  347MOL0     H46815   2.580  10.367   2.282  1.0906  2.8614  1.8528
  347MOL0     H46816   2.727  10.345   2.192  2.0759  0.8204  0.1268
  347MOL0     H46817   2.710  10.374   2.503 -0.3486  1.4555  0.8648
  347MOL0     H46818   2.857  10.363   2.401  0.8378  0.2538  0.0633
  347MOL0     H46819   2.656  10.600   2.355 -0.1621 -1.1237 -3.4006
  347MOL0     H46820   2.817  10.574   2.285 -2.3953  0.8332 -1.3600
  347MOL0     H46821   2.743  10.592   2.580  2.3264 -0.3155  1.7475
  347MOL0     H46822   2.911  10.565   2.513  0.5302 -0.4526  0.6930
  347MOL0     H46823   2.927  10.803   2.518 -0.4416  1.8823 -1.4249
  347MOL0     H46824   2.762  10.812   2.576 -0.6457  0.4852  0.5818
  347MOL0     H46825   2.825  10.798   2.287 -1.0297 -1.4241 -0.3298
  347MOL0     H46826   2.807  10.943   2.376  0.5936 -0.0066  1.0250
  347MOL0     H46827   3.054  10.149   2.152  1.6830  2.4557 -0.0871
  347MOL0     H46828   3.187  10.286   1.980 -0.0621 -1.5091 -1.8701
  347MOL0     H46829   3.127  10.409   1.507  0.0179  1.3623 -0.4963
  347MOL0     H46830   3.302  10.434   1.320  1.2907 -1.6820  0.2154
  347MOL0     H46831   5.218  10.652   2.041  0.6506  0.6278 -0.5337
  347MOL0     H46832   5.455  10.646   2.054 -0.7178 -0.4034 -0.2050
  347MOL0     H46833   5.845  10.714   2.318  1.0397 -0.5245  0.6474
  347MOL0     H46834   6.082  10.743   2.333  1.7934 -0.6753 -1.6010
  347MOL0     H46835   6.262  10.895   2.388 -2.1842 -1.1304 -1.2509
  347MOL0     H46836   6.322  10.781   2.271  0.7885  0.4683 -0.0392
  347MOL0     H46837   6.513  10.891   2.345 -0.6698  0.8670  1.5081
  347MOL0     H46838   6.462  11.056   2.285 -1.6948 -0.3469 -2.5721
  347MOL0     H46839   6.446  10.959   2.048  0.7689  1.2899  0.2353
  347MOL0     H46840   6.502  10.811   2.121 -0.3826  0.3059 -0.2011
  347MOL0     H46841   6.688  10.954   2.217 -2.3981  0.8891  1.1096
  347MOL0     H46842   6.653  11.080   2.101  0.0608  0.8259  1.5788
  347MOL0     H46843   6.860  10.804   1.860 -2.7002  0.0542 -3.2347
  347MOL0     H46844   6.065  11.077   2.070 -1.2629  1.2172 -0.4315
  347MOL0     H46845   5.815  11.015   2.031  0.4222  2.1134  1.7479
  348MOL0     O46846   9.776   0.536   4.530 -0.1596 -0.2369 -0.5374
  348MOL0     C46847   9.860   0.573   4.444  0.1625 -0.7303 -0.3254
  348MOL0     O46848   9.860   0.530   4.311  0.5601  0.1436 -1.0291
  348MOL0     C46849   9.790   0.423   4.257  0.0129 -0.5113  0.1664
  348MOL0     C46850   9.816   0.386   4.127  0.2480  0.0885  0.4667
  348MOL0     C46851   9.742   0.287   4.057  0.1919 -0.5401 -0.3904
  348MOL0     C46852   9.648   0.217   4.133 -0.0463 -0.5955  0.0083
  348MOL0     O46853   9.569   0.126   4.078 -0.9013  0.1920 -0.4116
  348MOL0     C46854   9.622   0.032   3.985 -0.0908  0.5087 -0.9755
  348MOL0     C46855   9.527  -0.023   3.871 -0.0320 -0.5999 -0.0384
  348MOL0     C46856   9.436  -0.142   3.924 -0.3708 -0.0312 -0.5489
  348MOL0     C46857   9.349  -0.102   4.044 -0.2663  0.2372  0.7345
  348MOL0     C46858   9.215  -0.176   4.055 -0.3588  0.8654  0.1616
  348MOL0     C46859   9.125  -0.133   3.936 -0.3034  0.1409 -0.2365
  348MOL0     C46860   8.983  -0.185   3.955 -0.6479  0.0785 -0.1406
  348MOL0     C46861   8.887  -0.167   3.831 -1.2335  0.7162  0.8352
  348MOL0     N46862   8.765  -0.238   3.865 -0.2986  0.6586  0.5191
  348MOL0     C46863   8.732  -0.353   3.802 -0.2959  0.5489 -0.1709
  348MOL0     C46864   8.618  -0.399   3.854  0.1496  0.3929 -0.9324
  348MOL0     C46865   8.541  -0.507   3.787  0.3824  1.0747 -0.1042
  348MOL0     C46866   8.396  -0.475   3.754  0.2792  0.2568  0.4750
  348MOL0     C46867   8.321  -0.580   3.663  0.6626  0.6194 -0.0257
  348MOL0     C46868   8.170  -0.538   3.657 -0.3152 -0.2390  0.2248
  348MOL0     O46869   8.119  -0.547   3.793 -0.5112  0.7128 -0.2128
  348MOL0     C46870   8.024  -0.458   3.826  1.1241 -0.5587  0.5750
  348MOL0     C46871   7.898  -0.471   3.771  0.2030  0.2168 -0.1164
  348MOL0     C46872   7.791  -0.391   3.805 -0.3225 -0.1559  0.1512
  348MOL0     C46873   7.665  -0.424   3.735  0.0144 -0.3049  0.1863
  348MOL0     C46874   7.814  -0.276   3.890  0.1876 -0.3231  0.7347
  348MOL0     C46875   7.713  -0.184   3.944  0.3892 -0.0595 -1.5028
  348MOL0     O46876   7.752  -0.066   4.000  0.3382 -0.0208  0.0099
  348MOL0     C46877   7.659   0.004   4.086 -1.2794 -0.2102  0.2630
  348MOL0     C46878   7.554   0.072   4.029 -0.4217 -0.1435 -0.4920
  348MOL0     C46879   7.449   0.120   4.114 -0.4108  0.4900  0.4263
  348MOL0     C46880   7.461   0.117   4.247 -0.0283  0.5943  0.7478
  348MOL0     O46881   7.356   0.166   4.314 -0.5370  0.1248 -0.7611
  348MOL0     C46882   7.360   0.177   4.459 -0.7207  0.5385 -0.3065
  348MOL0     C46883   7.232   0.240   4.509  0.2582 -0.1689  0.6453
  348MOL0     C46884   7.103   0.173   4.458  0.5434  0.5734  0.0810
  348MOL0     C46885   6.978   0.223   4.516 -0.2936 -0.6646 -0.1681
  348MOL0     C46886   6.968   0.379   4.519  0.3895 -0.8967 -0.2359
  348MOL0     C46887   6.825   0.406   4.540 -0.0495  0.2326  0.0591
  348MOL0     C46888   6.794   0.557   4.556 -0.9870 -0.3158  0.1882
  348MOL0     C46889   6.645   0.583   4.554 -1.1153  0.2605 -0.2711
  348MOL0    Cl46890   6.564   0.524   4.701 -0.5240  0.2734  0.5721
  348MOL0     C46891   7.584   0.064   4.298  0.0557  0.7340  0.5969
  348MOL0     C46892   7.682   0.006   4.218  0.3746  1.1291  0.0228
  348MOL0     O46893   7.599  -0.220   3.933  0.4773 -0.2880  0.2489
  348MOL0     C46894   7.949  -0.267   3.947  0.2190  0.2965  0.2336
  348MOL0     C46895   8.052  -0.351   3.914  0.3634  0.9944  0.3503
  348MOL0     N46896   8.576  -0.296   3.948  0.3688  0.8015  0.7064
  348MOL0     N46897   8.669  -0.204   3.954  0.1861 -1.1980 -0.2760
  348MOL0     C46898   9.625   0.248   4.262  0.0051  0.4896  0.5669
  348MOL0     C46899   9.701   0.346   4.330  0.9425  0.0674  0.5868
  348MOL0     C46900   9.977   0.670   4.484  0.3773  0.6530  0.0202
  348MOL0     C46901  10.010   0.690   4.621  0.1863 -0.3309  0.0406
  348MOL0     C46902  10.115   0.765   4.666 -0.5529 -0.0007  0.5667
  348MOL0     C46903  10.197   0.823   4.577  0.6232 -0.0333  0.9119
  348MOL0     O46904  10.291   0.919   4.613  0.1524 -0.2814  0.4207
  348MOL0     C46905  10.314   0.945   4.761  0.1986 -0.7855 -0.3249
  348MOL0     C46906  10.359   1.087   4.766 -0.1976 -1.0535 -0.1705
  348MOL0     C46907  10.489   1.085   4.853 -0.4626  0.3669 -0.1010
  348MOL0     C46908  10.548   1.227   4.859 -0.3906  0.7638  0.0269
  348MOL0     C46909  10.595   1.272   4.727  0.6167 -0.0406 -0.4282
  348MOL0     C46910  10.643   1.342   4.642 -0.6838 -0.8603  0.1306
  348MOL0     C46911  10.173   0.804   4.440 -0.3026 -0.2168 -0.2492
  348MOL0     C46912  10.069   0.724   4.388  0.2554  0.6631 -1.0350
  348MOL0     H46913   9.888   0.439   4.065 -2.1213  0.2225 -2.3526
  348MOL0     H46914   9.756   0.290   3.949  0.4693  0.8203 -0.3407
  348MOL0     H46915   9.718   0.062   3.944 -0.5895  2.9466 -0.4917
  348MOL0     H46916   9.661  -0.053   4.042 -0.3716  1.7924  1.2330
  348MOL0     H46917   9.455   0.054   3.839  0.2286 -0.5906 -0.6051
  348MOL0     H46918   9.585  -0.041   3.780  1.1927 -0.8619  0.7704
  348MOL0     H46919   9.382  -0.184   3.839  0.1812 -2.7649  0.3413
  348MOL0     H46920   9.496  -0.229   3.953  3.5418  2.7170  0.4419
  348MOL0     H46921   9.392  -0.097   4.144 -1.9980  2.5105  1.4331
  348MOL0     H46922   9.325   0.003   4.027  0.4625  0.4957  1.2383
  348MOL0     H46923   9.226  -0.285   4.050 -0.0338  0.9539 -1.5598
  348MOL0     H46924   9.166  -0.153   4.150 -0.8512  1.7657 -0.2999
  348MOL0     H46925   9.120  -0.024   3.934 -3.5277  0.0742 -1.9279
  348MOL0     H46926   9.163  -0.171   3.841  5.0676  4.2896 -0.2085
  348MOL0     H46927   8.998  -0.290   3.979  1.1240 -0.3350 -2.6719
  348MOL0     H46928   8.943  -0.130   4.041  1.1206 -0.2258  0.9068
  348MOL0     H46929   8.930  -0.211   3.741 -2.0907  2.6723 -0.5987
  348MOL0     H46930   8.864  -0.061   3.816 -0.0326  0.5383 -3.3103
  348MOL0     H46931   8.788  -0.400   3.721 -3.0209 -0.2727 -1.7274
  348MOL0     H46932   8.583  -0.532   3.689 -3.3137 -2.6478 -0.9846
  348MOL0     H46933   8.541  -0.597   3.848 -0.2906  1.7202  0.8761
  348MOL0     H46934   8.387  -0.381   3.699 -0.2858 -0.9191 -1.5517
  348MOL0     H46935   8.338  -0.458   3.845 -2.3789 -2.2990 -0.5841
  348MOL0     H46936   8.333  -0.686   3.690 -0.4930 -0.2113 -2.5144
  348MOL0     H46937   8.351  -0.569   3.559 -0.8984 -1.5505 -0.7906
  348MOL0     H46938   8.117  -0.604   3.588 -1.0846  0.1290  0.4538
  348MOL0     H46939   8.169  -0.433   3.625  3.1640 -0.0183  0.4456
  348MOL0     H46940   7.886  -0.556   3.703 -0.1281  1.3717 -1.5629
  348MOL0     H46941   7.606  -0.491   3.799  2.3610 -4.0058 -1.1420
  348MOL0     H46942   7.596  -0.346   3.704 -0.7039 -0.5696  1.0950
  348MOL0     H46943   7.690  -0.481   3.645 -1.4336 -0.7011  0.0108
  348MOL0     H46944   7.549   0.075   3.920 -1.3300 -3.7295 -0.6759
  348MOL0     H46945   7.357   0.167   4.080 -0.6870 -0.6161 -0.3942
  348MOL0     H46946   7.369   0.080   4.509 -1.5539 -0.0275 -1.2292
  348MOL0     H46947   7.458   0.221   4.480  0.4533 -2.3452  0.7621
  348MOL0     H46948   7.229   0.220   4.617  2.2056  1.9966  1.1613
  348MOL0     H46949   7.235   0.348   4.497  0.1471  0.0832  2.6275
  348MOL0     H46950   7.113   0.064   4.458  2.3435  0.6654 -2.4165
  348MOL0     H46951   7.089   0.202   4.354  1.3086  3.2068  0.6288
  348MOL0     H46952   6.902   0.193   4.443  1.4619 -4.4416 -0.6678
  348MOL0     H46953   6.953   0.177   4.612  2.2830 -0.5562  0.6293
  348MOL0     H46954   7.004   0.424   4.426  0.1309 -0.5262 -0.1638
  348MOL0     H46955   7.029   0.416   4.603 -4.1352  0.5359  2.8382
  348MOL0     H46956   6.778   0.366   4.450  1.5128 -2.5950  0.3770
  348MOL0     H46957   6.801   0.359   4.636  0.9192  1.4569  0.9372
  348MOL0     H46958   6.844   0.601   4.469  1.1519 -1.2473  0.8657
  348MOL0     H46959   6.838   0.602   4.646 -2.3843  0.6066  0.4361
  348MOL0     H46960   6.603   0.535   4.465 -0.9584 -0.0524 -0.1786
  348MOL0     H46961   6.635   0.692   4.545  0.2426  0.5056  0.8340
  348MOL0     H46962   7.599   0.054   4.405  0.2904 -1.3462  0.4263
  348MOL0     H46963   7.769  -0.049   4.253  0.0215  0.9486  0.6320
  348MOL0     H46964   7.963  -0.193   4.024 -2.3460  2.0041 -0.8176
  348MOL0     H46965   8.152  -0.356   3.957  0.2697  0.8290  0.5541
  348MOL0     H46966   9.566   0.174   4.314  0.9202 -1.4194 -0.9499
  348MOL0     H46967   9.673   0.362   4.433 -3.4267 -0.9874 -0.2327
  348MOL0     H46968   9.944   0.641   4.692 -0.6059 -0.6394 -0.8980
  348MOL0     H46969  10.128   0.775   4.773  3.0049 -0.1297  0.2681
  348MOL0     H46970  10.227   0.933   4.825 -1.7917 -2.4993 -3.1172
  348MOL0     H46971  10.384   0.872   4.801  1.2197 -0.6343 -1.7646
  348MOL0     H46972  10.284   1.162   4.791  0.8945 -0.1057  0.3607
  348MOL0     H46973  10.390   1.119   4.666 -0.0126  2.5220  0.8968
  348MOL0     H46974  10.553   1.018   4.794 -0.3366  0.5685 -0.1937
  348MOL0     H46975  10.474   1.049   4.955 -0.3090  0.4408 -0.0513
  348MOL0     H46976  10.636   1.229   4.924 -0.1494  0.0652 -0.2751
  348MOL0     H46977  10.466   1.290   4.896 -1.1842 -0.1923 -0.0590
  348MOL0     H46978  10.704   1.402   4.576 -1.1573 -0.3643  0.1369
  348MOL0     H46979  10.254   0.840   4.379  0.1706  0.1111  0.5563
  348MOL0     H46980  10.064   0.690   4.285  1.6438 -1.0780 -0.5675
  349MOL0     O46981  11.040   2.316   3.787 -0.3584  0.0598 -0.6137
  349MOL0     C46982  11.029   2.342   3.662 -0.5809 -1.4684  0.9301
  349MOL0     O46983  11.008   2.469   3.607  0.3247 -0.4239 -0.0788
  349MOL0     C46984  10.997   2.583   3.687  0.5158 -0.5145 -0.6251
  349MOL0     C46985  10.915   2.683   3.628 -0.4036 -0.8300 -0.1354
  349MOL0     C46986  10.911   2.806   3.691 -0.1750 -0.8552  0.5882
  349MOL0     C46987  10.985   2.839   3.802 -0.4058 -0.4363 -0.5224
  349MOL0     O46988  10.983   2.962   3.859  1.1426 -0.5360  0.0953
  349MOL0     C46989  11.024   3.074   3.779  0.0440 -0.0830  0.6154
  349MOL0     C46990  11.070   3.185   3.874 -0.7046 -0.5479  0.0066
  349MOL0     C46991  10.951   3.248   3.943  0.3663 -0.1698  0.0812
  349MOL0     C46992  10.829   3.301   3.862 -0.3439 -0.0562  0.7600
  349MOL0     C46993  10.734   3.370   3.955  1.3752  0.3663 -0.1275
  349MOL0     C46994  10.615   3.422   3.877  0.5808 -0.3865  0.8473
  349MOL0     C46995  10.528   3.527   3.955 -0.2613 -0.5399 -0.0305
  349MOL0     C46996  10.385   3.530   3.913 -0.2721  0.0512  0.4658
  349MOL0     N46997  10.314   3.633   3.992 -0.3802 -0.6734  0.5620
  349MOL0     C46998  10.263   3.637   4.119 -1.4228  0.1371  0.6096
  349MOL0     C46999  10.195   3.754   4.132 -0.2165  0.8320  0.3184
  349MOL0     C47000  10.129   3.811   4.258  0.2405 -0.0568  0.0789
  349MOL0     C47001  10.221   3.915   4.324 -0.6439 -0.1857 -0.7250
  349MOL0     C47002  10.221   4.049   4.252  0.7310 -0.4957  0.0368
  349MOL0     C47003  10.331   4.139   4.302  1.0914  0.3453 -0.1646
  349MOL0     O47004  10.347   4.126   4.448 -0.9040  0.1310 -0.5399
  349MOL0     C47005  10.267   4.192   4.532 -0.7833 -0.3508  0.1077
  349MOL0     C47006  10.164   4.283   4.505 -0.2860 -0.9896 -0.6329
  349MOL0     C47007  10.083   4.341   4.610 -0.6530  0.5343  0.2147
  349MOL0     C47008   9.974   4.439   4.564  1.2460 -0.0370  0.0806
  349MOL0     C47009  10.104   4.296   4.743 -0.0269 -0.0436 -0.6123
  349MOL0     C47010  10.031   4.342   4.863 -0.3561 -0.4384 -1.2095
  349MOL0     O47011   9.895   4.322   4.845 -0.6225  0.1286  0.5115
  349MOL0     C47012   9.801   4.315   4.948 -0.7840  0.6781  0.2908
  349MOL0     C47013   9.677   4.270   4.914 -0.2041  0.1077  0.2013
  349MOL0     C47014   9.566   4.260   5.003  0.4420  0.1092  0.0737
  349MOL0     C47015   9.591   4.290   5.139  0.5682  0.9826 -0.7374
  349MOL0     O47016   9.500   4.258   5.226 -0.0706  0.0644 -0.3218
  349MOL0     C47017   9.392   4.358   5.235  0.3501 -0.1333  0.6495
  349MOL0     C47018   9.431   4.487   5.307 -0.4286 -0.3123  0.4678
  349MOL0     C47019   9.312   4.565   5.354  0.2560 -0.4387 -0.6142
  349MOL0     C47020   9.347   4.691   5.432 -0.1120  0.7123  0.3494
  349MOL0     C47021   9.232   4.768   5.499  0.6052 -0.2398  0.2578
  349MOL0     C47022   9.271   4.888   5.584 -0.0205  0.6997  0.0015
  349MOL0     C47023   9.353   4.860   5.708  0.1181 -1.3631  0.3499
  349MOL0     C47024   9.399   4.981   5.789 -0.3504 -0.3758 -0.7750
  349MOL0    Cl47025   9.478   5.107   5.681  0.1847 -0.3468 -0.0455
  349MOL0     C47026   9.716   4.342   5.175  0.0359 -0.3927  0.0669
  349MOL0     C47027   9.823   4.355   5.082  0.4665  0.4407  0.4373
  349MOL0     O47028  10.085   4.382   4.959 -0.8143 -0.1473 -0.8124
  349MOL0     C47029  10.215   4.213   4.773 -0.2414 -1.0344 -0.2505
  349MOL0     C47030  10.294   4.177   4.665 -0.0248 -1.6638  0.6166
  349MOL0     N47031  10.200   3.818   4.007  0.0276  0.4203 -1.0328
  349MOL0     N47032  10.270   3.737   3.927 -0.1132 -0.2259 -0.4401
  349MOL0     C47033  11.062   2.739   3.863  0.5096 -0.2887  1.0193
  349MOL0     C47034  11.085   2.617   3.801  0.5013 -0.2626 -0.9624
  349MOL0     C47035  11.049   2.228   3.567 -0.4468 -0.0088  0.6250
  349MOL0     C47036  11.079   2.242   3.430  0.2921 -0.2787  0.0025
  349MOL0     C47037  11.088   2.133   3.343  0.0244 -0.4967 -0.1803
  349MOL0     C47038  11.070   2.002   3.394  0.0708  0.1533 -0.1235
  349MOL0     O47039  11.092   1.895   3.312 -0.6477  0.7365 -0.4695
  349MOL0     C47040  11.140   1.766   3.363  0.3084 -0.9640  0.2304
  349MOL0     C47041  11.198   1.682   3.243 -0.1953  0.3682 -0.6529
  349MOL0     C47042  11.322   1.745   3.178 -0.6765  0.1153 -0.3353
  349MOL0     C47043  11.277   1.853   3.074 -0.2118  0.9651  0.2470
  349MOL0     C47044  11.377   1.862   2.965 -0.6433 -0.1103 -0.6822
  349MOL0     C47045  11.466   1.878   2.871  0.4276 -0.1393 -0.2186
  349MOL0     C47046  11.039   1.993   3.533  0.2036  0.6377 -0.2920
  349MOL0     C47047  11.031   2.099   3.622  0.2186  0.4404  0.3163
  349MOL0     H47048  10.878   2.654   3.530  0.7713 -1.7895 -0.3194
  349MOL0     H47049  10.841   2.880   3.655  1.7164  0.6056 -0.2499
  349MOL0     H47050  11.112   3.057   3.715  0.0439  1.5405  0.1512
  349MOL0     H47051  10.936   3.104   3.722  0.3749  0.5440  0.4336
  349MOL0     H47052  11.127   3.135   3.953  3.2558  1.2755 -1.4330
  349MOL0     H47053  11.125   3.262   3.819  0.6681 -2.3152 -1.1918
  349MOL0     H47054  10.907   3.175   4.012 -0.1345  1.0303  1.0799
  349MOL0     H47055  10.985   3.330   4.007  1.2881 -1.9285  1.9681
  349MOL0     H47056  10.872   3.380   3.799 -1.6987  2.8566  3.2321
  349MOL0     H47057  10.774   3.225   3.807 -1.8970  0.9314  0.8938
  349MOL0     H47058  10.702   3.296   4.028  0.2166  1.0930  0.1271
  349MOL0     H47059  10.781   3.457   4.004  2.4165  1.4948 -2.9030
  349MOL0     H47060  10.648   3.478   3.789  0.3515 -1.5802 -0.0127
  349MOL0     H47061  10.552   3.336   3.852  1.0407 -1.0424  1.8737
  349MOL0     H47062  10.523   3.517   4.064 -2.3770 -1.1482 -0.1381
  349MOL0     H47063  10.575   3.626   3.953  1.1065 -1.1567  0.5339
  349MOL0     H47064  10.342   3.434   3.945  1.8043 -0.9964  0.2842
  349MOL0     H47065  10.371   3.555   3.807 -0.6478 -0.9007  0.2796
  349MOL0     H47066  10.280   3.564   4.198  0.4718 -0.3300 -0.1505
  349MOL0     H47067  10.033   3.854   4.227  1.2313  1.7690 -0.6370
  349MOL0     H47068  10.111   3.722   4.319  1.7542 -1.7314 -1.7795
  349MOL0     H47069  10.322   3.877   4.345 -0.5247 -0.3962 -1.6389
  349MOL0     H47070  10.177   3.939   4.421 -0.7064 -0.1493 -0.7628
  349MOL0     H47071  10.127   4.103   4.260  1.7821  1.7023 -1.3533
  349MOL0     H47072  10.242   4.033   4.145 -1.1827  0.8889 -0.5922
  349MOL0     H47073  10.299   4.237   4.266 -1.5269 -0.3623 -0.0256
  349MOL0     H47074  10.417   4.093   4.252 -0.5651 -1.1419 -1.7925
  349MOL0     H47075  10.142   4.326   4.407  3.4393  1.6948 -0.4939
  349MOL0     H47076   9.874   4.394   4.562  1.6749 -1.1052 -3.5336
  349MOL0     H47077   9.968   4.521   4.636 -2.0247  0.8736 -1.0070
  349MOL0     H47078  10.002   4.486   4.469  2.3829  1.8104  1.2622
  349MOL0     H47079   9.667   4.246   4.808 -0.3132 -2.0577  0.6391
  349MOL0     H47080   9.467   4.231   4.969 -0.3238  1.6625  0.8979
  349MOL0     H47081   9.361   4.391   5.135  3.3549  1.2069  0.0323
  349MOL0     H47082   9.305   4.309   5.280  1.4539 -1.8407  1.0005
  349MOL0     H47083   9.484   4.458   5.398 -0.1189  0.4903  0.5519
  349MOL0     H47084   9.492   4.556   5.247  1.9552  0.2595  3.3451
  349MOL0     H47085   9.265   4.495   5.423 -0.1949  1.4350  1.0949
  349MOL0     H47086   9.245   4.600   5.275  1.3724  0.7886 -1.0705
  349MOL0     H47087   9.416   4.659   5.511  0.3045  1.3759  0.2575
  349MOL0     H47088   9.402   4.761   5.369 -0.0722  1.3424  1.0679
  349MOL0     H47089   9.165   4.701   5.554 -0.5603 -0.8222 -1.7237
  349MOL0     H47090   9.164   4.804   5.421  0.9484  2.0483  0.9663
  349MOL0     H47091   9.323   4.956   5.517 -0.7327 -0.3577 -1.6867
  349MOL0     H47092   9.175   4.931   5.616  0.5642  2.8568 -0.9662
  349MOL0     H47093   9.448   4.819   5.671  0.3153  0.2705 -1.0761
  349MOL0     H47094   9.301   4.794   5.778 -0.0489 -2.7040 -0.9868
  349MOL0     H47095   9.471   4.942   5.861 -0.3034 -1.7223 -1.5212
  349MOL0     H47096   9.314   5.027   5.840  0.2685  0.2810 -0.3117
  349MOL0     H47097   9.738   4.374   5.276  0.7671  1.4446 -0.6339
  349MOL0     H47098   9.906   4.417   5.117 -0.1236 -0.1211  2.9630
  349MOL0     H47099  10.239   4.184   4.874 -2.2540  0.0658  0.6012
  349MOL0     H47100  10.380   4.114   4.686  1.5505 -0.2374 -1.2958
  349MOL0     H47101  11.130   2.772   3.941  1.5880  2.1025 -0.7921
  349MOL0     H47102  11.150   2.558   3.864  0.2864  0.6232  0.1196
  349MOL0     H47103  11.104   2.340   3.390  1.5536  0.0678  1.4968
  349MOL0     H47104  11.105   2.125   3.237 -0.8166 -1.7375 -0.2466
  349MOL0     H47105  11.224   1.778   3.432  0.4487 -1.6099  0.1787
  349MOL0     H47106  11.051   1.717   3.406  0.7899 -0.0551  2.3803
  349MOL0     H47107  11.118   1.648   3.177 -0.5953  0.8973 -0.4558
  349MOL0     H47108  11.229   1.591   3.295 -0.1991  0.4012 -0.5928
  349MOL0     H47109  11.381   1.659   3.146 -1.3948 -1.8809  3.1938
  349MOL0     H47110  11.387   1.796   3.250 -0.5990  2.8772 -2.2015
  349MOL0     H47111  11.277   1.946   3.131  2.7900  1.5636 -0.5229
  349MOL0     H47112  11.181   1.832   3.028  0.9161  0.6264 -2.1280
  349MOL0     H47113  11.547   1.884   2.801  1.3301 -0.2991  0.7934
  349MOL0     H47114  11.021   1.895   3.575  0.0723  0.7180 -0.1603
  349MOL0     H47115  11.015   2.071   3.726  2.6591 -1.2232  0.3273
  350MOL0     O47116   1.315   5.209   3.940  0.8335 -0.1652 -0.0687
  350MOL0     C47117   1.366   5.246   3.839  0.3100  0.0988 -0.3122
  350MOL0     O47118   1.295   5.274   3.726  0.2308 -0.3265 -0.2409
  350MOL0     C47119   1.156   5.277   3.738  0.2650 -1.3046 -1.5568
  350MOL0     C47120   1.081   5.192   3.658 -0.6201 -0.0749 -0.1648
  350MOL0     C47121   0.943   5.190   3.656  0.0113 -0.9226 -0.7150
  350MOL0     C47122   0.869   5.283   3.737 -0.4000 -0.3311  0.2193
  350MOL0     O47123   0.732   5.284   3.757 -0.3719  0.0912  0.3037
  350MOL0     C47124   0.660   5.191   3.662 -0.0397 -0.3528 -0.2362
  350MOL0     C47125   0.513   5.224   3.687  0.6670  0.3545 -0.1818
  350MOL0     C47126   0.434   5.128   3.594 -0.7945  0.4375  0.4018
  350MOL0     C47127   0.311   5.197   3.534 -0.5652  0.2936 -0.0932
  350MOL0     C47128   0.192   5.207   3.646  0.1913 -0.2123  0.4943
  350MOL0     C47129   0.067   5.260   3.576 -0.1369 -0.1818  0.6434
  350MOL0     C47130  -0.054   5.248   3.668 -0.3850 -0.4269  0.3535
  350MOL0     C47131  -0.143   5.379   3.643  0.9660  0.2197 -0.1417
  350MOL0     N47132  -0.086   5.483   3.729 -0.2404  0.2271  0.8619
  350MOL0     C47133  -0.153   5.594   3.771 -0.1346  0.1074  0.3081
  350MOL0     C47134  -0.063   5.659   3.853 -0.0113  0.3871 -0.1970
  350MOL0     C47135  -0.084   5.760   3.965  0.4250  0.4462 -0.7803
  350MOL0     C47136   0.044   5.813   4.016 -0.1835  0.5503 -0.2734
  350MOL0     C47137   0.036   5.933   4.112 -0.7793 -0.2820  0.3608
  350MOL0     C47138  -0.051   5.902   4.236  0.1614  0.1626  0.1131
  350MOL0     O47139  -0.025   5.987   4.337 -0.1750  0.7712  0.3525
  350MOL0     C47140  -0.108   5.997   4.451 -0.3499  0.5660 -0.2709
  350MOL0     C47141  -0.110   6.112   4.526 -0.1753 -0.0795 -0.8506
  350MOL0     C47142  -0.202   6.126   4.638 -0.0402 -0.9021  0.0207
  350MOL0     C47143  -0.201   6.259   4.703  0.2499 -0.1251  0.1031
  350MOL0     C47144  -0.291   6.020   4.659  0.3316 -0.0033  0.8288
  350MOL0     C47145  -0.392   6.023   4.769 -0.3134  0.2490 -1.0212
  350MOL0     O47146  -0.515   5.980   4.740  0.4228  0.3638 -0.2722
  350MOL0     C47147  -0.601   6.011   4.846 -0.1905 -0.1755 -0.1859
  350MOL0     C47148  -0.645   5.916   4.936 -0.3459 -0.2054 -0.4473
  350MOL0     C47149  -0.748   5.935   5.021 -1.0894  0.1020  0.2131
  350MOL0     C47150  -0.807   6.057   5.028 -0.2447 -0.5946  0.6720
  350MOL0     O47151  -0.907   6.086   5.116  0.7149  0.1200 -0.0893
  350MOL0     C47152  -1.031   6.021   5.081  0.2247 -0.1832 -0.3356
  350MOL0     C47153  -1.141   6.120   5.127 -1.0272 -0.2914  0.2457
  350MOL0     C47154  -1.277   6.062   5.095 -0.3698  0.1664 -0.7884
  350MOL0     C47155  -1.298   6.072   4.940 -0.6419 -0.3020 -0.9082
  350MOL0     C47156  -1.407   5.970   4.920  0.2943  0.1423  0.1376
  350MOL0     C47157  -1.368   5.822   4.924 -0.4140 -0.0281  0.2551
  350MOL0     C47158  -1.491   5.733   4.945 -0.1251  0.3849  0.0771
  350MOL0     C47159  -1.538   5.717   5.086 -0.0155 -0.4832 -0.1576
  350MOL0    Cl47160  -1.431   5.609   5.182  0.1049 -0.1061  0.1250
  350MOL0     C47161  -0.758   6.163   4.950 -0.5833 -0.3918  0.6494
  350MOL0     C47162  -0.658   6.135   4.855 -0.3232 -1.0117 -0.4867
  350MOL0     O47163  -0.333   6.033   4.875  0.7059 -0.7201 -0.4236
  350MOL0     C47164  -0.294   5.912   4.571 -0.0392 -0.0758 -0.0623
  350MOL0     C47165  -0.197   5.891   4.477 -0.5197  0.1144 -0.6116
  350MOL0     N47166   0.051   5.584   3.857  0.4288  0.2200 -0.1502
  350MOL0     N47167   0.036   5.486   3.781 -0.4121 -0.3179 -0.8593
  350MOL0     C47168   0.943   5.367   3.819 -0.6432 -0.7205 -0.4166
  350MOL0     C47169   1.087   5.370   3.824  0.2174 -0.6816 -0.5326
  350MOL0     C47170   1.514   5.239   3.840  0.1269  0.8862  0.1947
  350MOL0     C47171   1.579   5.292   3.732 -0.0852 -1.3173 -0.3008
  350MOL0     C47172   1.722   5.292   3.721  0.2879  0.1868 -0.0816
  350MOL0     C47173   1.802   5.229   3.813  0.6344  0.1149 -0.2072
  350MOL0     O47174   1.942   5.217   3.790 -0.0627  0.1191 -0.2168
  350MOL0     C47175   1.998   5.095   3.859 -0.4596  0.0012  0.3386
  350MOL0     C47176   2.110   5.044   3.768 -0.0481  0.2235  0.5936
  350MOL0     C47177   2.167   4.917   3.827  0.0685  0.0937  0.6551
  350MOL0     C47178   2.270   4.855   3.726 -0.1011  0.6906 -0.3293
  350MOL0     C47179   2.350   4.944   3.645  0.3929 -0.5719 -0.5954
  350MOL0     C47180   2.430   5.012   3.591  0.2334 -0.9696  0.0365
  350MOL0     C47181   1.735   5.178   3.928  0.2516  0.5493  0.6783
  350MOL0     C47182   1.594   5.181   3.945 -0.2112 -0.1290 -0.8362
  350MOL0     H47183   1.130   5.121   3.592 -0.3266  1.5928 -1.8124
  350MOL0     H47184   0.895   5.117   3.591  2.0870 -3.3569  0.3164
  350MOL0     H47185   0.681   5.230   3.562  0.8099  1.7757  0.7109
  350MOL0     H47186   0.688   5.086   3.666  0.3743 -0.3000 -1.3830
  350MOL0     H47187   0.480   5.210   3.790  1.5921 -0.9123 -0.0260
  350MOL0     H47188   0.493   5.326   3.653 -0.9754  0.6564  1.5389
  350MOL0     H47189   0.487   5.098   3.503 -1.1951 -0.2770  0.3981
  350MOL0     H47190   0.417   5.036   3.651 -1.9701  0.3380 -0.0958
  350MOL0     H47191   0.333   5.296   3.494  4.8872 -0.2301  0.8967
  350MOL0     H47192   0.266   5.138   3.454 -4.0407  0.2637  1.6795
  350MOL0     H47193   0.174   5.105   3.679  1.5081 -0.5763  0.1704
  350MOL0     H47194   0.236   5.274   3.721  2.6475 -1.3564  0.1887
  350MOL0     H47195   0.083   5.365   3.549  0.3068 -0.1206  1.1201
  350MOL0     H47196   0.058   5.212   3.478 -1.9883  0.5407  0.4305
  350MOL0     H47197  -0.114   5.165   3.630 -1.7707  1.8204 -2.7793
  350MOL0     H47198  -0.033   5.251   3.776 -0.0695  0.7537  0.2679
  350MOL0     H47199  -0.249   5.362   3.661  0.8702 -0.6989 -1.4654
  350MOL0     H47200  -0.135   5.413   3.540 -3.9090  0.1431 -0.7381
  350MOL0     H47201  -0.260   5.609   3.763 -0.2976 -0.8099  0.6691
  350MOL0     H47202  -0.154   5.837   3.929 -1.9857 -0.0873  2.3054
  350MOL0     H47203  -0.144   5.714   4.044 -1.6252 -1.0102 -3.0377
  350MOL0     H47204   0.097   5.852   3.928 -2.0038  0.0160 -1.6713
  350MOL0     H47205   0.098   5.730   4.062 -0.8020 -0.5591 -1.4677
  350MOL0     H47206  -0.003   6.019   4.057  0.8314  0.6218  0.5841
  350MOL0     H47207   0.137   5.964   4.141  0.1050 -2.3388 -0.3045
  350MOL0     H47208  -0.028   5.799   4.265  3.3879  0.2775 -1.6219
  350MOL0     H47209  -0.156   5.913   4.205 -0.5114  0.2300  2.2562
  350MOL0     H47210  -0.044   6.189   4.487 -0.7980  0.2419 -1.2898
  350MOL0     H47211  -0.127   6.329   4.663  3.2197 -1.9189  2.0845
  350MOL0     H47212  -0.302   6.302   4.707  0.1279 -0.2606 -1.0434
  350MOL0     H47213  -0.173   6.252   4.808  0.5775  0.3114  0.0464
  350MOL0     H47214  -0.586   5.826   4.925  2.8151  1.6981 -0.2868
  350MOL0     H47215  -0.797   5.858   5.079 -2.4055 -1.5393 -2.8508
  350MOL0     H47216  -1.029   6.008   4.972  1.8942  5.2933 -1.2648
  350MOL0     H47217  -1.051   5.927   5.133  1.0201  1.3579  3.0261
  350MOL0     H47218  -1.132   6.137   5.235 -0.8625 -0.5423  0.2741
  350MOL0     H47219  -1.130   6.213   5.071 -3.3460 -0.0402  0.0946
  350MOL0     H47220  -1.350   6.125   5.146 -0.3523 -1.7765  1.8016
  350MOL0     H47221  -1.291   5.960   5.130  1.1934 -0.0397 -0.6920
  350MOL0     H47222  -1.335   6.172   4.916  2.3183  0.9365 -0.6937
  350MOL0     H47223  -1.218   6.032   4.877  1.2606  0.2849  1.0146
  350MOL0     H47224  -1.465   5.982   4.829 -1.8143 -2.8952  0.9322
  350MOL0     H47225  -1.484   5.993   4.994  0.6588  2.2790 -0.0840
  350MOL0     H47226  -1.334   5.787   4.826  0.3780  2.0566 -0.2507
  350MOL0     H47227  -1.291   5.803   4.999  0.9121  0.6774 -0.8819
  350MOL0     H47228  -1.463   5.636   4.903  1.0542  1.2420 -1.1991
  350MOL0     H47229  -1.567   5.778   4.880  1.5913  2.1810 -0.8074
  350MOL0     H47230  -1.636   5.669   5.088 -0.5634  0.3324 -2.6288
  350MOL0     H47231  -1.552   5.813   5.135 -5.1893 -1.3188  0.5039
  350MOL0     H47232  -0.807   6.259   4.963 -0.4278 -0.1012 -0.7148
  350MOL0     H47233  -0.604   6.205   4.791 -0.6803 -1.9160 -1.8049
  350MOL0     H47234  -0.363   5.834   4.604  0.1663 -0.9808 -1.6566
  350MOL0     H47235  -0.173   5.790   4.446 -0.5452 -0.5989  1.5112
  350MOL0     H47236   0.890   5.432   3.887  1.5602 -0.3499  1.0533
  350MOL0     H47237   1.146   5.434   3.888 -1.4226  0.5536 -0.2037
  350MOL0     H47238   1.530   5.328   3.642  0.6750 -2.2778 -1.1237
  350MOL0     H47239   1.765   5.313   3.623 -0.2845 -1.7658 -0.7962
  350MOL0     H47240   2.045   5.123   3.953  2.9517  3.1178 -1.9953
  350MOL0     H47241   1.935   5.006   3.872 -0.4197  0.3201  3.1420
  350MOL0     H47242   2.194   5.115   3.768  0.5383 -0.4119 -1.3981
  350MOL0     H47243   2.074   5.024   3.667  2.3069  0.4012 -0.3500
  350MOL0     H47244   2.094   4.839   3.850 -0.0691  0.4468  1.4765
  350MOL0     H47245   2.210   4.940   3.925  1.1372 -4.6285  1.5269
  350MOL0     H47246   2.217   4.783   3.663  0.1449  0.9200 -0.8105
  350MOL0     H47247   2.328   4.782   3.782 -3.5130 -3.0223 -1.1850
  350MOL0     H47248   2.507   5.076   3.551 -0.6377 -1.4326 -2.5200
  350MOL0     H47249   1.790   5.125   4.006  2.3189  2.3200  0.5204
  350MOL0     H47250   1.558   5.142   4.039 -1.9093  0.8679 -1.0261
  351MOL0     O47251   7.431   1.891   9.448 -0.4372 -0.3093 -0.0578
  351MOL0     C47252   7.495   1.840   9.541  0.6816 -0.8104 -0.3237
  351MOL0     O47253   7.509   1.888   9.663 -0.4755  0.6225 -0.6163
  351MOL0     C47254   7.425   1.983   9.698  0.0055 -0.4289  0.8256
  351MOL0     C47255   7.478   2.113   9.716  0.0537  0.0126  0.2255
  351MOL0     C47256   7.406   2.228   9.761 -0.8034  1.0875 -0.1884
  351MOL0     C47257   7.268   2.209   9.787 -0.3908 -0.9371  0.3677
  351MOL0     O47258   7.186   2.307   9.832 -0.0013 -0.3609  0.2125
  351MOL0     C47259   7.230   2.433   9.874 -0.2473  0.1981  0.1611
  351MOL0     C47260   7.123   2.493   9.957 -0.1923 -1.1244 -0.0775
  351MOL0     C47261   7.100   2.417  10.090  0.6800  0.5181 -0.9532
  351MOL0     C47262   7.011   2.505  10.180  0.4591 -0.5815  0.3208
  351MOL0     C47263   6.951   2.429  10.296 -1.1238  0.4575 -0.1639
  351MOL0     C47264   6.826   2.352  10.262  0.0432 -1.2480  1.0957
  351MOL0     C47265   6.775   2.266  10.374 -0.5934  0.1597  0.2248
  351MOL0     C47266   6.683   2.151  10.330 -1.1249  0.1801  0.2501
  351MOL0     N47267   6.559   2.200  10.261 -0.2625  0.4103  0.2990
  351MOL0     C47268   6.469   2.287  10.317  0.0079 -1.1446  0.5588
  351MOL0     C47269   6.416   2.358  10.211 -0.4273 -0.0354  0.0485
  351MOL0     C47270   6.307   2.464  10.216  0.7837  0.5249  0.5212
  351MOL0     C47271   6.326   2.571  10.320  0.5878 -0.3079 -0.1810
  351MOL0     C47272   6.269   2.711  10.288  0.1686 -0.1503  0.3569
  351MOL0     C47273   6.266   2.789  10.423  0.2794  0.5045 -0.3925
  351MOL0     O47274   6.151   2.751  10.501 -0.3930 -0.3746  0.4036
  351MOL0     C47275   6.035   2.745  10.446  0.2792  0.3724  0.0538
  351MOL0     C47276   5.970   2.624  10.422  0.0165 -0.4223 -1.3235
  351MOL0     C47277   5.839   2.613  10.393  0.1276 -0.3184 -0.0524
  351MOL0     C47278   5.787   2.477  10.354 -0.4079 -0.2578  0.1012
  351MOL0     C47279   5.761   2.737  10.378  0.4990 -0.1944  0.0661
  351MOL0     C47280   5.625   2.738  10.342 -0.9480 -0.1457  0.3466
  351MOL0     O47281   5.580   2.862  10.324  0.1919 -0.7947 -0.5487
  351MOL0     C47282   5.458   2.882  10.263  0.2254 -0.3360 -0.2643
  351MOL0     C47283   5.380   2.987  10.313  0.5600  0.6532 -0.5156
  351MOL0     C47284   5.254   3.015  10.253  0.2490 -0.2106 -0.5011
  351MOL0     C47285   5.209   2.945  10.147 -0.3110 -0.2316  0.3898
  351MOL0     O47286   5.081   2.978  10.097 -0.4460 -0.6844 -0.1013
  351MOL0     C47287   5.046   2.918   9.974 -0.4744  0.3843  0.3558
  351MOL0     C47288   4.893   2.919   9.955  0.6124  0.5609  0.1689
  351MOL0     C47289   4.862   3.057   9.910  1.1037 -0.1218  0.7055
  351MOL0     C47290   4.714   3.073   9.871 -0.5518  0.1425 -0.1622
  351MOL0     C47291   4.684   3.211   9.817  0.6145  0.0272  0.1563
  351MOL0     C47292   4.539   3.208   9.765  0.3416 -0.5513  0.5453
  351MOL0     C47293   4.506   3.151   9.623 -0.0906 -0.0862  0.8958
  351MOL0     C47294   4.374   3.213   9.575 -0.2166  0.4181  0.3531
  351MOL0    Cl47295   4.247   3.143   9.668 -0.1209  0.5201  0.1899
  351MOL0     C47296   5.295   2.843  10.094 -0.5931  0.1921 -0.2386
  351MOL0     C47297   5.414   2.811  10.154  0.0177 -0.2603 -0.0652
  351MOL0     O47298   5.562   2.634  10.325  0.2754  0.0342  0.1076
  351MOL0     C47299   5.833   2.858  10.400 -0.3706  0.2177  0.1834
  351MOL0     C47300   5.959   2.863  10.436  0.6749  0.5873 -1.4202
  351MOL0     N47301   6.458   2.302  10.092 -0.6125 -0.4536  0.4367
  351MOL0     N47302   6.542   2.210  10.123 -0.6687 -0.2487  0.2934
  351MOL0     C47303   7.213   2.083   9.769  0.7658  1.3140  0.2866
  351MOL0     C47304   7.287   1.970   9.728  0.0363  0.0442  0.0327
  351MOL0     C47305   7.572   1.716   9.513  0.2830  0.2082  0.5763
  351MOL0     C47306   7.540   1.645   9.391 -0.1433  0.4015 -0.8238
  351MOL0     C47307   7.604   1.534   9.362 -0.0618 -0.4437  0.1578
  351MOL0     C47308   7.695   1.473   9.451 -1.1573  0.0231  0.5163
  351MOL0     O47309   7.749   1.343   9.437  0.1119 -0.2131 -0.3847
  351MOL0     C47310   7.731   1.281   9.310  0.3690  0.3160 -0.1186
  351MOL0     C47311   7.593   1.208   9.308 -0.2228  0.3806  0.1876
  351MOL0     C47312   7.518   1.208   9.172  0.1945  0.1796  0.2429
  351MOL0     C47313   7.578   1.109   9.056 -0.5423 -0.6249 -0.7151
  351MOL0     C47314   7.714   1.139   9.036  0.0514  0.8835 -0.4466
  351MOL0     C47315   7.828   1.175   9.038 -0.6580  0.2011 -0.1025
  351MOL0     C47316   7.726   1.540   9.571  0.0746  0.1180  0.4172
  351MOL0     C47317   7.666   1.662   9.601 -0.3453 -0.0322 -0.2357
  351MOL0     H47318   7.580   2.122   9.680 -0.1253  0.2209 -0.2343
  351MOL0     H47319   7.459   2.323   9.768  1.7410 -0.2266 -0.3149
  351MOL0     H47320   7.324   2.425   9.929  1.4789  2.2928 -2.2504
  351MOL0     H47321   7.247   2.491   9.783 -2.9745  0.3052 -0.3746
  351MOL0     H47322   7.145   2.599   9.972 -1.5126 -0.4529 -2.3156
  351MOL0     H47323   7.028   2.477   9.904 -0.3795  1.9901 -0.8252
  351MOL0     H47324   7.048   2.321  10.082 -0.4842  0.8076  1.7956
  351MOL0     H47325   7.193   2.401  10.145 -0.6785 -0.4818  1.2196
  351MOL0     H47326   7.074   2.592  10.201  2.2409 -0.1623 -5.0024
  351MOL0     H47327   6.928   2.545  10.121 -0.3760 -1.4187  0.8975
  351MOL0     H47328   7.016   2.351  10.336 -1.4195 -0.0550 -0.6706
  351MOL0     H47329   6.934   2.502  10.376 -1.1100  2.0707 -1.5686
  351MOL0     H47330   6.748   2.415  10.219  0.4075 -1.5484 -0.0510
  351MOL0     H47331   6.856   2.293  10.175  0.0681  0.9168 -0.4308
  351MOL0     H47332   6.856   2.220  10.431 -0.4833 -0.0876 -0.1207
  351MOL0     H47333   6.728   2.341  10.437 -2.3046 -0.7185  0.0656
  351MOL0     H47334   6.658   2.103  10.425 -0.3342 -3.4475 -1.2353
  351MOL0     H47335   6.737   2.080  10.268 -2.2968 -0.6959  0.1899
  351MOL0     H47336   6.445   2.311  10.420 -1.2715  1.1111 -0.2017
  351MOL0     H47337   6.295   2.512  10.118  1.4672  0.8827  0.6065
  351MOL0     H47338   6.210   2.422  10.245  1.0149  1.3707  2.6753
  351MOL0     H47339   6.433   2.583  10.340  0.4259 -0.5589  0.9222
  351MOL0     H47340   6.286   2.524  10.410  2.4425 -3.5778 -0.9345
  351MOL0     H47341   6.170   2.709  10.242  0.1610 -0.1271  0.3725
  351MOL0     H47342   6.342   2.760  10.223 -0.7423  3.0694  1.5257
  351MOL0     H47343   6.259   2.897  10.409  1.2150  0.9138  1.9688
  351MOL0     H47344   6.349   2.763  10.489 -0.6935 -2.7255 -0.2417
  351MOL0     H47345   6.036   2.540  10.440  1.4916  0.9292 -0.0919
  351MOL0     H47346   5.760   2.470  10.248 -0.9446 -2.9631  0.3245
  351MOL0     H47347   5.852   2.390  10.371  0.1882 -0.0480 -1.0199
  351MOL0     H47348   5.696   2.461  10.412 -0.3749 -2.4049 -0.3207
  351MOL0     H47349   5.411   3.038  10.404 -0.3360 -0.9291  0.7353
  351MOL0     H47350   5.192   3.093  10.297 -1.4977 -1.4165 -0.7123
  351MOL0     H47351   5.105   2.971   9.898  0.8076 -1.3400  0.0900
  351MOL0     H47352   5.067   2.811   9.968  1.3848  0.6875  0.7147
  351MOL0     H47353   4.869   2.833   9.891  0.6261  0.4984  0.2477
  351MOL0     H47354   4.833   2.897  10.043 -0.1778 -0.1443 -0.5260
  351MOL0     H47355   4.924   3.069   9.821  0.8786 -1.1267  0.3971
  351MOL0     H47356   4.890   3.119   9.995  1.0392  1.5968 -0.4786
  351MOL0     H47357   4.697   3.014   9.781 -2.0551  3.0679 -1.9590
  351MOL0     H47358   4.650   3.042   9.954 -0.0486 -1.1047 -0.2200
  351MOL0     H47359   4.747   3.239   9.732 -0.5550 -0.7973 -1.0279
  351MOL0     H47360   4.705   3.283   9.896  2.2219 -0.4631  0.2103
  351MOL0     H47361   4.464   3.175   9.838 -1.2387 -0.1430 -0.8306
  351MOL0     H47362   4.521   3.315   9.750  3.5841 -0.1616 -1.4720
  351MOL0     H47363   4.519   3.042   9.618 -2.3308 -0.3859  0.5823
  351MOL0     H47364   4.585   3.186   9.556 -0.3381 -0.7145  0.2693
  351MOL0     H47365   4.361   3.172   9.475 -1.8703  0.0287  0.6971
  351MOL0     H47366   4.372   3.322   9.586 -1.1782  0.3921  0.4645
  351MOL0     H47367   5.270   2.800   9.997 -0.4826 -0.7103  0.1302
  351MOL0     H47368   5.470   2.729  10.108 -0.1263 -1.1137  1.2284
  351MOL0     H47369   5.795   2.958  10.383  0.4950  0.5005 -0.1125
  351MOL0     H47370   6.004   2.956  10.469 -2.6443  1.5114  1.0606
  351MOL0     H47371   7.112   2.054   9.798  1.0852 -1.1838 -0.8517
  351MOL0     H47372   7.244   1.871   9.714  1.7616 -1.2821  3.0571
  351MOL0     H47373   7.458   1.675   9.326 -1.6169 -1.3887  0.0847
  351MOL0     H47374   7.578   1.485   9.269  1.0799 -1.3396  0.2914
  351MOL0     H47375   7.730   1.343   9.219 -1.6668 -2.5145 -2.1851
  351MOL0     H47376   7.823   1.222   9.303  0.3770  0.5110 -2.5742
  351MOL0     H47377   7.541   1.264   9.386  2.0707  1.1764  1.2374
  351MOL0     H47378   7.605   1.108   9.350  2.6611  1.2595  1.7717
  351MOL0     H47379   7.536   1.301   9.118  2.7315 -0.6097 -0.4396
  351MOL0     H47380   7.411   1.194   9.184 -0.0087  2.0298  0.8574
  351MOL0     H47381   7.528   1.124   8.960  0.4167  1.6461 -0.9416
  351MOL0     H47382   7.570   1.007   9.094 -1.2315 -0.7971 -1.3045
  351MOL0     H47383   7.932   1.200   9.045 -1.0344  1.3088  3.7332
  351MOL0     H47384   7.810   1.509   9.633  1.0044  0.6889 -0.5102
  351MOL0     H47385   7.685   1.717   9.693  0.5899  0.6733 -0.8370
  352MOL0     O47386   5.862   5.462   7.839  0.3439 -0.6419  0.0747
  352MOL0     C47387   5.957   5.527   7.892  0.5507  0.0307 -0.3681
  352MOL0     O47388   6.072   5.570   7.832  0.0415 -0.0017 -0.6015
  352MOL0     C47389   6.106   5.578   7.698 -0.4688  0.4306 -0.1044
  352MOL0     C47390   6.240   5.586   7.666 -0.1935  0.0439 -0.5255
  352MOL0     C47391   6.290   5.602   7.530 -0.0032 -0.9098 -0.6435
  352MOL0     C47392   6.187   5.620   7.432 -0.5794  0.6825  0.2395
  352MOL0     O47393   6.209   5.651   7.298  0.1842 -0.4886 -0.6078
  352MOL0     C47394   6.351   5.622   7.267  0.7233 -0.5617  1.5832
  352MOL0     C47395   6.368   5.606   7.116 -1.1810  0.3360  0.4914
  352MOL0     C47396   6.262   5.508   7.061 -0.9358  0.0799 -0.3763
  352MOL0     C47397   6.284   5.476   6.908 -0.4804 -0.7489 -0.0374
  352MOL0     C47398   6.315   5.601   6.827  0.6564  0.6369 -0.4113
  352MOL0     C47399   6.365   5.567   6.684 -0.0418  0.6263 -0.2424
  352MOL0     C47400   6.398   5.683   6.599  0.0484 -1.0672  0.1364
  352MOL0     C47401   6.490   5.785   6.674 -0.4203 -0.4257  0.7056
  352MOL0     N47402   6.636   5.741   6.680  1.0056 -0.1125 -0.1172
  352MOL0     C47403   6.691   5.661   6.781  0.2641 -0.0450 -0.0767
  352MOL0     C47404   6.825   5.650   6.754 -0.3967  0.6253  1.0945
  352MOL0     C47405   6.917   5.569   6.833  0.5453 -0.4380  0.8192
  352MOL0     C47406   6.975   5.648   6.947 -0.8725  0.2859  0.4478
  352MOL0     C47407   7.101   5.577   7.006 -0.4764 -0.2116 -0.5919
  352MOL0     C47408   7.175   5.680   7.099  0.7026 -0.7019  0.1999
  352MOL0     O47409   7.091   5.712   7.208  0.2876  0.3560 -0.6608
  352MOL0     C47410   7.105   5.839   7.260  0.1512  0.1028  0.2355
  352MOL0     C47411   7.223   5.917   7.250  0.1347 -0.1633  0.7415
  352MOL0     C47412   7.243   6.036   7.322 -0.2886 -0.2647  0.7907
  352MOL0     C47413   7.371   6.110   7.300 -0.8192  0.4894 -0.1657
  352MOL0     C47414   7.139   6.080   7.408  0.0054  0.0786  0.0660
  352MOL0     C47415   7.144   6.207   7.489 -0.1894 -0.5821  0.6645
  352MOL0     O47416   7.020   6.252   7.520  0.5631 -0.3126 -0.3673
  352MOL0     C47417   7.011   6.379   7.582 -0.3045 -0.6030 -0.0930
  352MOL0     C47418   7.023   6.503   7.514 -0.6719  0.4708  0.2651
  352MOL0     C47419   7.032   6.623   7.591 -0.1107 -0.1603  0.4337
  352MOL0     C47420   7.018   6.609   7.726  0.4360  0.1302 -0.1910
  352MOL0     O47421   7.055   6.717   7.802 -0.0078  0.1660  0.4514
  352MOL0     C47422   7.008   6.747   7.932  0.7979 -0.5625 -0.8210
  352MOL0     C47423   7.028   6.898   7.963  0.5502  1.2191  0.4547
  352MOL0     C47424   7.149   6.925   8.056  0.1649 -0.3596  0.2167
  352MOL0     C47425   7.161   7.081   8.065  1.4578 -0.1538  0.5356
  352MOL0     C47426   7.264   7.117   8.175  0.1029  0.2342  0.8748
  352MOL0     C47427   7.400   7.046   8.144 -0.4029  0.3112  0.0841
  352MOL0     C47428   7.447   7.063   7.990 -0.0062  0.4322 -0.6127
  352MOL0     C47429   7.593   7.046   7.971  0.0833 -0.5683 -0.3561
  352MOL0    Cl47430   7.657   6.889   8.021  0.0107  0.3725  0.1759
  352MOL0     C47431   7.003   6.487   7.789  0.5783 -0.5982  0.3384
  352MOL0     C47432   6.994   6.373   7.718 -0.3644  0.5658  0.1259
  352MOL0     O47433   7.250   6.260   7.520 -0.0644  0.2715 -0.3517
  352MOL0     C47434   7.017   6.011   7.417 -0.0651  0.6169 -0.4697
  352MOL0     C47435   7.002   5.896   7.337  0.2360  0.2057  0.4238
  352MOL0     N47436   6.853   5.729   6.643 -0.4434  0.4097  0.0666
  352MOL0     N47437   6.745   5.785   6.606  0.6433  0.2744  0.3107
  352MOL0     C47438   6.050   5.618   7.471 -0.2696  0.0385 -0.0771
  352MOL0     C47439   6.011   5.597   7.598  0.6401 -0.0534 -0.1017
  352MOL0     C47440   5.934   5.579   8.030  0.7612 -0.7402  0.5132
  352MOL0     C47441   5.810   5.608   8.084  0.1504 -0.1672  0.2466
  352MOL0     C47442   5.788   5.648   8.216 -1.2190 -0.2749  0.6450
  352MOL0     C47443   5.902   5.652   8.306 -0.0264  0.5064  0.4353
  352MOL0     O47444   5.895   5.670   8.436  0.6564 -0.2261 -0.1749
  352MOL0     C47445   5.887   5.548   8.518 -0.1590  0.8094 -0.2679
  352MOL0     C47446   5.927   5.548   8.662  0.3008 -0.4047  0.0406
  352MOL0     C47447   5.879   5.684   8.731 -0.2238 -0.0986  0.9065
  352MOL0     C47448   5.895   5.680   8.890 -0.7233 -0.8146  0.7854
  352MOL0     C47449   5.808   5.575   8.943 -0.1046 -0.5189  0.2511
  352MOL0     C47450   5.734   5.496   8.993  1.3502 -0.1671  0.7370
  352MOL0     C47451   6.025   5.631   8.250 -0.1223 -0.3395 -0.2250
  352MOL0     C47452   6.044   5.602   8.113 -0.2618 -0.4104  0.3718
  352MOL0     H47453   6.314   5.581   7.746 -1.1287 -2.1393  0.2931
  352MOL0     H47454   6.398   5.611   7.517  0.0735 -0.6372  0.1432
  352MOL0     H47455   6.420   5.692   7.314 -2.1528  2.0774  2.2030
  352MOL0     H47456   6.378   5.521   7.301 -0.3123 -1.5207 -0.2168
  352MOL0     H47457   6.358   5.704   7.068  0.0981 -0.0076 -0.5153
  352MOL0     H47458   6.471   5.571   7.108 -0.3438  2.2569  1.9714
  352MOL0     H47459   6.247   5.407   7.102  3.5443 -1.3956 -1.8255
  352MOL0     H47460   6.165   5.559   7.065 -1.7975 -1.4504 -0.6588
  352MOL0     H47461   6.375   5.415   6.900  1.7846  2.0210  2.2598
  352MOL0     H47462   6.193   5.424   6.880 -2.1378  2.3670 -0.8959
  352MOL0     H47463   6.227   5.667   6.825 -1.1749 -1.6984 -0.9648
  352MOL0     H47464   6.399   5.643   6.883 -1.0232  1.9680  1.2679
  352MOL0     H47465   6.444   5.491   6.690 -0.0503  0.4988 -1.4123
  352MOL0     H47466   6.287   5.510   6.633  0.9905 -1.1058  0.0226
  352MOL0     H47467   6.449   5.645   6.510  1.8295  0.7776  0.2925
  352MOL0     H47468   6.306   5.732   6.566  1.1419 -0.5428 -2.3236
  352MOL0     H47469   6.446   5.817   6.769 -4.3022  2.1424 -1.6874
  352MOL0     H47470   6.496   5.873   6.609 -4.3605  2.2455  3.4872
  352MOL0     H47471   6.626   5.613   6.853 -0.2779 -1.3615 -1.3868
  352MOL0     H47472   6.859   5.484   6.871  1.8615 -0.3551  3.1496
  352MOL0     H47473   6.988   5.529   6.761 -2.6255 -1.4556 -2.0464
  352MOL0     H47474   6.902   5.675   7.024 -1.1382 -0.9037  0.6372
  352MOL0     H47475   7.011   5.740   6.901  0.4798  0.1541  1.1876
  352MOL0     H47476   7.168   5.526   6.936  0.3664 -0.6616  0.5194
  352MOL0     H47477   7.075   5.490   7.067 -2.0129  0.6968  0.1168
  352MOL0     H47478   7.223   5.760   7.043 -0.8859 -0.6032 -1.0801
  352MOL0     H47479   7.260   5.620   7.132  0.6711 -0.4360  0.7713
  352MOL0     H47480   7.309   5.881   7.195 -0.4906  0.3703 -0.6211
  352MOL0     H47481   7.419   6.083   7.205 -2.1524 -0.9781 -0.4520
  352MOL0     H47482   7.360   6.218   7.284  1.9548  0.7998 -0.4647
  352MOL0     H47483   7.443   6.088   7.379  1.0932 -1.2783 -2.2465
  352MOL0     H47484   7.033   6.516   7.406  3.2641  1.6563  0.6316
  352MOL0     H47485   7.055   6.724   7.560 -3.9102  0.1062 -2.2902
  352MOL0     H47486   6.898   6.745   7.927  0.6564  1.7477 -0.0319
  352MOL0     H47487   7.046   6.683   8.013  4.2636  2.8147  0.4984
  352MOL0     H47488   7.037   6.947   7.866  0.5039 -0.6501 -0.5273
  352MOL0     H47489   6.945   6.946   8.015 -0.6255  2.4811 -2.3735
  352MOL0     H47490   7.234   6.888   7.998  2.1396  2.5765  1.0108
  352MOL0     H47491   7.142   6.888   8.159 -0.2139  0.6888  0.5802
  352MOL0     H47492   7.191   7.124   7.969 -0.7741  0.6466  0.1317
  352MOL0     H47493   7.068   7.135   8.085  0.5359 -1.0323 -1.1877
  352MOL0     H47494   7.229   7.097   8.277  2.3597 -1.4329  1.4134
  352MOL0     H47495   7.267   7.226   8.173 -0.6830  0.3853  3.3989
  352MOL0     H47496   7.477   7.087   8.210 -1.1488  1.8147  0.0735
  352MOL0     H47497   7.379   6.940   8.160 -3.1043  0.6060 -0.9789
  352MOL0     H47498   7.403   7.161   7.967 -0.8805  0.1696 -0.1148
  352MOL0     H47499   7.400   6.982   7.934  0.1668 -0.1950  0.1367
  352MOL0     H47500   7.656   7.114   8.029  3.0209 -3.8489  0.7132
  352MOL0     H47501   7.606   7.059   7.863 -2.0030  1.7409 -0.4129
  352MOL0     H47502   6.988   6.486   7.896 -3.4920  2.2951  0.0015
  352MOL0     H47503   6.982   6.280   7.772  4.0161  1.4315  3.2013
  352MOL0     H47504   6.943   6.043   7.489  2.4114  4.0452  0.8807
  352MOL0     H47505   6.907   5.843   7.343  0.9020 -0.9997  0.6077
  352MOL0     H47506   5.979   5.652   7.397  0.0790  4.3912  1.3121
  352MOL0     H47507   5.907   5.608   7.625  0.0933 -2.1971 -1.1434
  352MOL0     H47508   5.721   5.586   8.026  0.8396 -0.3022 -0.7860
  352MOL0     H47509   5.688   5.667   8.254 -2.0903  0.7860 -1.9320
  352MOL0     H47510   5.786   5.505   8.517  0.7589 -1.5189 -1.9661
  352MOL0     H47511   5.945   5.472   8.465 -2.6528 -1.6794  0.3615
  352MOL0     H47512   6.035   5.536   8.668  0.3323 -1.9382 -2.4108
  352MOL0     H47513   5.878   5.457   8.697  0.9026 -1.2004 -1.1201
  352MOL0     H47514   5.775   5.715   8.718 -0.4722 -0.1709  2.4463
  352MOL0     H47515   5.937   5.764   8.684 -0.1971 -0.0273  1.0574
  352MOL0     H47516   5.878   5.782   8.927  3.9759  0.9025 -1.0233
  352MOL0     H47517   6.001   5.655   8.903 -0.7348 -0.7434  1.0077
  352MOL0     H47518   5.676   5.418   9.038 -1.3433  0.9032 -0.6126
  352MOL0     H47519   6.105   5.636   8.322 -1.6685 -2.4608  1.7821
  352MOL0     H47520   6.142   5.579   8.072 -0.1195 -2.4483  1.7160
  353MOL0     O47521   5.168   4.917  11.142  0.8236  0.9310 -0.1869
  353MOL0     C47522   5.255   5.000  11.122  0.6194  0.4824 -0.7766
  353MOL0     O47523   5.230   5.115  11.061 -0.3660 -0.8217  0.4226
  353MOL0     C47524   5.104   5.137  10.999 -0.7426 -0.8080 -0.0320
  353MOL0     C47525   5.054   5.062  10.893  0.0995 -0.0637 -0.6548
  353MOL0     C47526   4.923   5.081  10.850  0.7582 -0.7875 -0.2344
  353MOL0     C47527   4.827   5.165  10.920 -0.2696 -0.7266  0.3583
  353MOL0     O47528   4.690   5.155  10.914 -0.2053  0.3939 -0.3809
  353MOL0     C47529   4.634   5.171  10.781  0.3602 -0.4672  0.7264
  353MOL0     C47530   4.501   5.240  10.799 -0.9087  0.0292 -0.2834
  353MOL0     C47531   4.424   5.234  10.668 -0.5142  0.5771 -0.3688
  353MOL0     C47532   4.275   5.268  10.677  0.3481 -0.6023  0.0022
  353MOL0     C47533   4.208   5.240  10.543  0.0917  0.7047  0.2836
  353MOL0     C47534   4.103   5.345  10.506  0.2597 -0.7722  0.7550
  353MOL0     C47535   4.047   5.337  10.366  0.1452 -0.5951 -0.6524
  353MOL0     C47536   3.981   5.471  10.318 -0.3217  0.1821 -0.0384
  353MOL0     N47537   3.921   5.442  10.185  0.2421  0.1721  0.1347
  353MOL0     C47538   3.793   5.485  10.152  0.5442  0.5166  0.0276
  353MOL0     C47539   3.778   5.437  10.023  0.2821 -0.2694  0.0321
  353MOL0     C47540   3.682   5.471   9.914  0.2679 -0.7517  0.1340
  353MOL0     C47541   3.536   5.464   9.967  0.1937  0.5272 -0.0074
  353MOL0     C47542   3.439   5.475   9.848 -0.0609 -0.0489  0.5902
  353MOL0     C47543   3.304   5.465   9.899  0.0880  0.1784 -0.1165
  353MOL0     O47544   3.261   5.596   9.932  0.2839 -0.3747 -0.5508
  353MOL0     C47545   3.126   5.621   9.927 -0.5085  0.4218  0.6452
  353MOL0     C47546   3.100   5.751   9.930  0.3859 -0.0889 -0.8507
  353MOL0     C47547   2.968   5.794   9.923 -0.5579  0.4745  0.0719
  353MOL0     C47548   2.945   5.938   9.946  0.4064  0.2408  0.5579
  353MOL0     C47549   2.859   5.706   9.920  0.0316  0.6152 -0.5763
  353MOL0     C47550   2.719   5.743   9.924  0.5150 -0.2333  0.4014
  353MOL0     O47551   2.625   5.645   9.950 -0.7574 -0.1651  0.1246
  353MOL0     C47552   2.495   5.668   9.944 -0.1168 -0.8932 -0.6170
  353MOL0     C47553   2.436   5.778  10.004 -0.4358 -0.8131  0.0717
  353MOL0     C47554   2.301   5.801  10.013  0.1958  0.0625 -0.6742
  353MOL0     C47555   2.205   5.707   9.958 -0.1657 -0.1629 -0.2829
  353MOL0     O47556   2.068   5.739   9.937 -0.5523 -1.0930 -0.0116
  353MOL0     C47557   1.976   5.635   9.928 -0.0820 -0.1059  0.3864
  353MOL0     C47558   1.842   5.672   9.987 -0.5443  0.0037 -0.4324
  353MOL0     C47559   1.741   5.567   9.942  0.3890 -0.5606  0.1025
  353MOL0     C47560   1.602   5.641   9.941 -0.9105  0.3744 -1.3211
  353MOL0     C47561   1.490   5.538   9.919 -0.6687  0.0023  0.7076
  353MOL0     C47562   1.357   5.595   9.926  0.7225 -0.7221 -0.7820
  353MOL0     C47563   1.248   5.481   9.905 -0.7454  0.1606  1.0896
  353MOL0     C47564   1.116   5.543   9.931 -0.5095  0.3903 -0.2559
  353MOL0    Cl47565   1.003   5.409   9.962  0.4432  0.0926  0.4755
  353MOL0     C47566   2.266   5.586   9.900  0.4936 -0.0180 -0.3619
  353MOL0     C47567   2.412   5.571   9.895  0.6895  0.6655 -0.2084
  353MOL0     O47568   2.695   5.857   9.896  0.8067 -0.7479 -0.1200
  353MOL0     C47569   2.890   5.570   9.921  0.5927  0.1291  0.8451
  353MOL0     C47570   3.020   5.528   9.916 -0.1337 -1.0372 -0.5685
  353MOL0     N47571   3.885   5.361   9.989  0.2207  0.7885 -0.0614
  353MOL0     N47572   3.977   5.386  10.075 -0.0042  0.5842 -0.6217
  353MOL0     C47573   4.882   5.248  11.014  0.1697 -0.0830  0.2756
  353MOL0     C47574   5.021   5.241  11.044  0.4039  0.2132 -0.4518
  353MOL0     C47575   5.376   4.974  11.200  0.0673  0.6549  0.5825
  353MOL0     C47576   5.500   5.026  11.151  1.0116  0.1681  0.6740
  353MOL0     C47577   5.621   5.010  11.224  0.2180  0.0050  0.1564
  353MOL0     C47578   5.623   4.917  11.332  0.2395 -0.3550  0.3741
  353MOL0     O47579   5.743   4.894  11.384 -0.5699 -0.0913 -0.1495
  353MOL0     C47580   5.766   4.760  11.443 -0.2225  0.2929 -0.4941
  353MOL0     C47581   5.906   4.722  11.422 -0.4064  0.0631 -0.2843
  353MOL0     C47582   5.972   4.612  11.503  0.6255 -0.8837  0.1151
  353MOL0     C47583   5.948   4.634  11.654  0.9580  0.4316  0.1454
  353MOL0     C47584   6.037   4.540  11.726  0.0320  0.4746  0.8621
  353MOL0     C47585   6.111   4.457  11.771 -0.4840 -0.2915  0.2079
  353MOL0     C47586   5.503   4.850  11.365 -0.8118 -0.2758  0.8084
  353MOL0     C47587   5.388   4.883  11.299  0.2002 -0.3948 -1.3109
  353MOL0     H47588   5.121   4.984  10.859  0.9259 -0.6520  2.0676
  353MOL0     H47589   4.874   5.005  10.790 -3.0142  2.3374 -1.5644
  353MOL0     H47590   4.701   5.240  10.729 -0.7833 -0.1860 -0.4372
  353MOL0     H47591   4.625   5.075  10.729  0.4052 -0.8596  1.4415
  353MOL0     H47592   4.437   5.194  10.875 -0.6042 -0.2227 -0.1751
  353MOL0     H47593   4.512   5.347  10.818 -4.7422  0.3282  1.0912
  353MOL0     H47594   4.478   5.305  10.606  1.5661 -0.9064 -0.3582
  353MOL0     H47595   4.433   5.131  10.631 -1.1518  0.3743  0.0061
  353MOL0     H47596   4.237   5.207  10.759  1.4299 -0.1824  0.8350
  353MOL0     H47597   4.259   5.375  10.693 -2.0212 -0.8544 -0.3170
  353MOL0     H47598   4.285   5.250  10.467  1.5019  2.0809  1.8117
  353MOL0     H47599   4.169   5.138  10.539  1.9155  0.0161 -1.9571
  353MOL0     H47600   4.023   5.344  10.580 -1.2522  0.6487 -0.7858
  353MOL0     H47601   4.154   5.441  10.517 -0.3939 -0.1366 -1.2967
  353MOL0     H47602   4.127   5.310  10.296  1.7347  0.6989  0.5808
  353MOL0     H47603   3.972   5.258  10.370  1.0684 -1.4659 -0.0999
  353MOL0     H47604   4.053   5.552  10.302  1.3683 -1.1133  0.6469
  353MOL0     H47605   3.899   5.505  10.381 -1.4174 -3.1986  0.5669
  353MOL0     H47606   3.732   5.563  10.196  1.0729  0.1518  1.4316
  353MOL0     H47607   3.701   5.571   9.875 -0.7018  0.4836  2.6086
  353MOL0     H47608   3.711   5.403   9.833  2.9452  0.6533 -0.2203
  353MOL0     H47609   3.514   5.546  10.035 -2.9412  2.3390 -2.8864
  353MOL0     H47610   3.518   5.367  10.014 -2.2022  0.8041 -0.2290
  353MOL0     H47611   3.465   5.394   9.779 -3.0881 -0.8430  0.2371
  353MOL0     H47612   3.455   5.562   9.784  0.3069 -1.7316 -1.7482
  353MOL0     H47613   3.306   5.405   9.991  1.9956  3.8518  2.5314
  353MOL0     H47614   3.243   5.430   9.816  0.0634  0.0043 -0.0268
  353MOL0     H47615   3.174   5.828   9.945 -0.7855  0.5073  2.9900
  353MOL0     H47616   2.864   5.939  10.020 -0.9901  1.1345 -0.9132
  353MOL0     H47617   3.040   5.987   9.968 -0.6238  1.9570  1.4236
  353MOL0     H47618   2.909   5.987   9.855 -1.2002 -1.3357  0.3026
  353MOL0     H47619   2.487   5.857  10.058  0.2578 -1.4363  0.3529
  353MOL0     H47620   2.248   5.883  10.060 -2.1382 -0.4935 -2.1464
  353MOL0     H47621   1.969   5.612   9.821  0.0895  0.5657  0.2292
  353MOL0     H47622   2.016   5.548   9.981 -0.5495 -1.9659 -2.1361
  353MOL0     H47623   1.858   5.667  10.095  2.4107  0.5844 -0.7601
  353MOL0     H47624   1.822   5.777   9.965 -1.2603  1.1722  4.5727
  353MOL0     H47625   1.740   5.482  10.010  2.0366 -1.4475 -0.9036
  353MOL0     H47626   1.774   5.540   9.841  3.1267  0.8784  0.5132
  353MOL0     H47627   1.586   5.695  10.034  1.0881  0.9356 -1.2658
  353MOL0     H47628   1.593   5.726   9.872 -4.0000  1.6669  0.4712
  353MOL0     H47629   1.505   5.458   9.992  1.9785 -1.3996 -1.1863
  353MOL0     H47630   1.506   5.489   9.822  0.9839  2.0252 -0.0974
  353MOL0     H47631   1.343   5.650  10.019 -2.3551  0.9057 -2.0644
  353MOL0     H47632   1.334   5.669   9.848 -0.3269 -0.9811 -0.7352
  353MOL0     H47633   1.268   5.390   9.963 -1.3976 -0.5711  0.1981
  353MOL0     H47634   1.259   5.448   9.801 -4.6223 -1.1393  0.9296
  353MOL0     H47635   1.072   5.605   9.853  0.6597 -0.5362 -1.7120
  353MOL0     H47636   1.114   5.603  10.023  0.8371  3.0850 -1.8390
  353MOL0     H47637   2.201   5.512   9.854 -1.4779  0.8055  0.9635
  353MOL0     H47638   2.451   5.477   9.856 -1.0229  0.5091 -1.6777
  353MOL0     H47639   2.807   5.499   9.924 -0.7940  1.6704  0.2086
  353MOL0     H47640   3.037   5.422   9.905  0.9344 -0.7983 -1.4029
  353MOL0     H47641   4.834   5.327  11.071 -2.1155  0.4050 -2.1771
  353MOL0     H47642   5.054   5.312  11.119 -1.5523 -0.2701  0.9421
  353MOL0     H47643   5.511   5.074  11.054  0.2133 -0.9470  0.0132
  353MOL0     H47644   5.717   5.048  11.191  0.7883 -0.9537  0.6950
  353MOL0     H47645   5.738   4.777  11.547 -0.9589 -0.6143 -0.5372
  353MOL0     H47646   5.700   4.682  11.404 -1.2412  1.6890 -1.6505
  353MOL0     H47647   5.969   4.805  11.457 -0.7990  0.2067  0.0898
  353MOL0     H47648   5.935   4.705  11.318 -0.1947 -1.4955  0.0016
  353MOL0     H47649   6.079   4.621  11.483  1.3802  2.1294  4.1986
  353MOL0     H47650   5.927   4.521  11.463  0.8930  0.0021 -2.3652
  353MOL0     H47651   5.841   4.620  11.676  0.4669  3.1474 -0.1090
  353MOL0     H47652   5.966   4.733  11.696  1.5095  0.9437 -1.2444
  353MOL0     H47653   6.164   4.370  11.805 -0.6664 -1.7133 -2.8225
  353MOL0     H47654   5.501   4.776  11.444 -2.9702  0.8659  1.9160
  353MOL0     H47655   5.294   4.835  11.324 -0.5398 -0.0948 -3.2998
  354MOL0     O47656   6.214   0.238   9.716  0.5814 -0.5996 -0.1737
  354MOL0     C47657   6.254   0.153   9.637  0.2488 -0.1235  0.0266
  354MOL0     O47658   6.179   0.105   9.536 -0.4059  0.4758 -0.7033
  354MOL0     C47659   6.074   0.185   9.504  0.4323 -0.2371  0.1831
  354MOL0     C47660   6.073   0.330   9.481  0.2133  1.3863 -0.0715
  354MOL0     C47661   5.952   0.393   9.451  0.1382 -0.2734  0.0157
  354MOL0     C47662   5.829   0.327   9.459 -0.9690 -1.1225 -0.3673
  354MOL0     O47663   5.715   0.399   9.439 -0.9428  0.4030  0.6346
  354MOL0     C47664   5.702   0.517   9.510 -0.1313  0.3226 -0.4419
  354MOL0     C47665   5.561   0.574   9.520 -0.3941  0.2561  0.7037
  354MOL0     C47666   5.478   0.561   9.385  0.2174  0.3140 -0.0534
  354MOL0     C47667   5.353   0.652   9.392  0.9038  0.1835  0.3482
  354MOL0     C47668   5.288   0.665   9.252  0.4913 -0.9947  0.5077
  354MOL0     C47669   5.225   0.535   9.207  0.4167  0.0558 -0.2874
  354MOL0     C47670   5.173   0.528   9.064 -0.4470  0.0766  0.0920
  354MOL0     C47671   5.283   0.525   8.952 -0.4022  0.5845 -0.0675
  354MOL0     N47672   5.386   0.417   8.978 -0.0074  0.2559 -0.0052
  354MOL0     C47673   5.509   0.433   9.038 -0.7456  0.5180 -0.3547
  354MOL0     C47674   5.555   0.311   9.051  0.5633  0.7657  0.9553
  354MOL0     C47675   5.683   0.268   9.120  0.7719  0.9434  0.8268
  354MOL0     C47676   5.794   0.237   9.024  0.5560 -0.6659 -0.3883
  354MOL0     C47677   5.909   0.171   9.096  0.5119  0.7698  0.3715
  354MOL0     C47678   6.026   0.118   9.009 -0.2198  0.5075 -0.8595
  354MOL0     O47679   6.099   0.241   8.974  0.2696  0.7075 -0.9397
  354MOL0     C47680   6.202   0.292   9.044 -0.1351 -0.1450 -0.9023
  354MOL0     C47681   6.285   0.387   8.976 -0.0403 -0.5614  0.2867
  354MOL0     C47682   6.398   0.446   9.040  0.3320  0.7104 -0.6824
  354MOL0     C47683   6.482   0.533   8.945  0.7374  0.6251 -0.7195
  354MOL0     C47684   6.414   0.421   9.184 -0.1861  0.0167 -0.0759
  354MOL0     C47685   6.518   0.484   9.274 -0.8447  0.2212 -0.3855
  354MOL0     O47686   6.497   0.474   9.412  0.4300 -0.0921 -0.9369
  354MOL0     C47687   6.596   0.527   9.490 -0.2793 -0.2003 -0.4414
  354MOL0     C47688   6.653   0.438   9.585  0.1023 -0.3218 -0.2705
  354MOL0     C47689   6.748   0.493   9.672  0.0264  0.4882 -0.6094
  354MOL0     C47690   6.787   0.626   9.667  0.1515  0.3098  0.4801
  354MOL0     O47691   6.884   0.675   9.753  0.3239 -0.2316 -0.0722
  354MOL0     C47692   7.000   0.586   9.786 -0.2085  0.4464 -0.2624
  354MOL0     C47693   7.118   0.693   9.799 -0.3680 -0.1302 -0.4306
  354MOL0     C47694   7.238   0.649   9.886 -0.4021  0.3195 -0.2377
  354MOL0     C47695   7.362   0.731   9.872 -0.2394 -0.2527  0.3094
  354MOL0     C47696   7.484   0.681   9.953  0.5419 -0.0122  0.3253
  354MOL0     C47697   7.542   0.552   9.884  0.1316 -0.0943  0.0735
  354MOL0     C47698   7.689   0.547   9.935 -0.4625  0.3628  0.4965
  354MOL0     C47699   7.737   0.405   9.906 -0.2032 -0.1329  0.6212
  354MOL0    Cl47700   7.741   0.392   9.721 -0.0167  0.1755 -0.2433
  354MOL0     C47701   6.724   0.713   9.573  0.6164  0.0372  0.0246
  354MOL0     C47702   6.631   0.662   9.483  0.9789  0.6709 -0.6462
  354MOL0     O47703   6.608   0.548   9.221  0.2965  0.3174 -0.1078
  354MOL0     C47704   6.328   0.339   9.246 -0.5413 -0.4029 -0.6150
  354MOL0     C47705   6.230   0.273   9.178 -0.1148  0.0029  0.4336
  354MOL0     N47706   5.465   0.223   8.997  1.1048  0.2636 -0.4760
  354MOL0     N47707   5.369   0.286   8.943 -0.3186  0.1743  0.1352
  354MOL0     C47708   5.827   0.189   9.474  0.2048  0.0694 -0.5683
  354MOL0     C47709   5.951   0.116   9.489  0.9161 -0.6322  0.2109
  354MOL0     C47710   6.375   0.088   9.674 -0.8720  0.4013  1.2160
  354MOL0     C47711   6.416  -0.033   9.622 -0.0773 -0.0417  0.1763
  354MOL0     C47712   6.530  -0.108   9.662 -0.9152  0.1808 -0.2645
  354MOL0     C47713   6.613  -0.048   9.755 -0.6177  0.1563 -0.3120
  354MOL0     O47714   6.724  -0.124   9.778 -0.6283 -0.2983 -0.4310
  354MOL0     C47715   6.810  -0.090   9.885  0.1760  0.3218 -0.2348
  354MOL0     C47716   6.914  -0.192   9.933 -0.2195  0.0787 -0.3032
  354MOL0     C47717   6.847  -0.330   9.982 -0.1106 -0.3606  0.2928
  354MOL0     C47718   6.866  -0.432   9.870  0.0634  0.0895  0.9526
  354MOL0     C47719   6.847  -0.565   9.925 -0.5799 -0.3420  0.3070
  354MOL0     C47720   6.821  -0.678   9.962  0.5593 -0.1651  0.6052
  354MOL0     C47721   6.583   0.073   9.806 -0.3704 -0.6363  0.1606
  354MOL0     C47722   6.462   0.141   9.767 -0.7663  0.3961  0.8051
  354MOL0     H47723   6.166   0.385   9.481  1.3536 -0.4612  0.8262
  354MOL0     H47724   5.960   0.494   9.412  0.1027  0.3356  1.5181
  354MOL0     H47725   5.744   0.503   9.611  0.9813  0.2449 -0.8990
  354MOL0     H47726   5.766   0.594   9.465  0.6272 -0.4634 -0.7439
  354MOL0     H47727   5.508   0.525   9.602  0.9164 -1.2950  0.6831
  354MOL0     H47728   5.573   0.678   9.549  3.1020  1.0723 -2.8165
  354MOL0     H47729   5.545   0.584   9.301  0.9887  2.3127  1.0626
  354MOL0     H47730   5.453   0.454   9.384 -1.1463  0.6016  0.8413
  354MOL0     H47731   5.278   0.610   9.459 -0.7879  1.6572 -0.5486
  354MOL0     H47732   5.381   0.749   9.435 -1.2300  1.4340 -0.9097
  354MOL0     H47733   5.217   0.748   9.258  3.7390  2.1812 -1.0782
  354MOL0     H47734   5.359   0.697   9.175 -1.0821  0.6916 -0.3263
  354MOL0     H47735   5.292   0.450   9.222 -1.6586 -1.6777 -0.3369
  354MOL0     H47736   5.137   0.515   9.269  0.4188  1.9554  0.4164
  354MOL0     H47737   5.108   0.440   9.057 -1.7559  1.0914 -1.0586
  354MOL0     H47738   5.103   0.610   9.044  0.1088  0.7158  0.7010
  354MOL0     H47739   5.338   0.620   8.952 -2.0379  1.6101 -1.8369
  354MOL0     H47740   5.234   0.511   8.855  2.9908 -0.1227 -1.8524
  354MOL0     H47741   5.550   0.518   9.092 -2.5369  0.2083  1.6156
  354MOL0     H47742   5.716   0.341   9.195  0.2817  0.3479  1.6458
  354MOL0     H47743   5.654   0.172   9.166 -0.2803  1.6758  1.7459
  354MOL0     H47744   5.829   0.329   8.976 -1.5237  2.1504  2.9387
  354MOL0     H47745   5.753   0.171   8.948 -0.5700  0.3871 -0.7253
  354MOL0     H47746   5.877   0.079   9.145  1.9945  0.6872  1.2373
  354MOL0     H47747   5.947   0.237   9.174 -2.7866  2.3350  0.8216
  354MOL0     H47748   5.986   0.067   8.921 -0.1705  0.2428 -0.7287
  354MOL0     H47749   6.092   0.050   9.063 -0.0214  1.0442 -0.4141
  354MOL0     H47750   6.255   0.411   8.875  0.0671  3.2571  1.0144
  354MOL0     H47751   6.422   0.574   8.864  2.7609  2.7733 -1.2334
  354MOL0     H47752   6.538   0.617   8.988  3.5279  0.0935 -2.9931
  354MOL0     H47753   6.548   0.465   8.890  0.6939 -0.6378  0.7085
  354MOL0     H47754   6.620   0.335   9.594  0.0411 -0.1743  1.6550
  354MOL0     H47755   6.784   0.422   9.745  1.9263  1.5437 -0.4455
  354MOL0     H47756   6.992   0.522   9.875  0.5515  0.4317 -0.2004
  354MOL0     H47757   7.016   0.514   9.706 -1.8611 -1.8642  1.3505
  354MOL0     H47758   7.160   0.732   9.706  3.2474  0.9372  1.4585
  354MOL0     H47759   7.077   0.781   9.849  2.8635  0.7295  0.9454
  354MOL0     H47760   7.267   0.548   9.853  0.6088 -0.2420  2.0866
  354MOL0     H47761   7.205   0.630   9.989  2.3493 -1.5520  0.4198
  354MOL0     H47762   7.388   0.752   9.768 -0.4415  1.1282  0.5142
  354MOL0     H47763   7.329   0.829   9.909 -0.6371 -0.0817 -0.4808
  354MOL0     H47764   7.454   0.657  10.055  0.4664  0.6579  0.4633
  354MOL0     H47765   7.561   0.758   9.959 -0.4698  0.9113  2.8358
  354MOL0     H47766   7.486   0.461   9.905  0.6514 -0.5686 -0.5507
  354MOL0     H47767   7.544   0.562   9.775 -0.8840  2.5378  0.2318
  354MOL0     H47768   7.710   0.563  10.042 -1.3030 -1.9736  1.0763
  354MOL0     H47769   7.751   0.612   9.874  3.3162 -1.5161  2.0025
  354MOL0     H47770   7.669   0.326   9.939 -1.0297 -0.0385 -0.7612
  354MOL0     H47771   7.840   0.392   9.941  0.3468  1.3380 -0.3479
  354MOL0     H47772   6.770   0.811   9.566  1.5765 -0.2682  1.6969
  354MOL0     H47773   6.575   0.721   9.412 -2.1039  2.5524  2.9732
  354MOL0     H47774   6.337   0.320   9.352  2.4266  0.1311 -0.6917
  354MOL0     H47775   6.172   0.200   9.234  0.7289 -0.8242  0.2528
  354MOL0     H47776   5.728   0.145   9.471 -0.0893  0.5569  0.9640
  354MOL0     H47777   5.945   0.008   9.490  0.7453 -0.6257  1.4590
  354MOL0     H47778   6.360  -0.078   9.541 -0.5047 -0.8182  0.8807
  354MOL0     H47779   6.575  -0.201   9.629 -0.4239  0.0443  0.7563
  354MOL0     H47780   6.863  -0.003   9.846  0.3038  1.3279  2.0375
  354MOL0     H47781   6.763  -0.049   9.975  1.2281  1.5048 -0.1999
  354MOL0     H47782   6.965  -0.154  10.022 -2.0456 -1.7292  1.6035
  354MOL0     H47783   6.995  -0.212   9.861  1.7806 -0.6586  2.0284
  354MOL0     H47784   6.742  -0.320  10.008  0.0073 -2.9418  2.0928
  354MOL0     H47785   6.894  -0.369  10.073  0.4467  1.5208  0.8567
  354MOL0     H47786   6.973  -0.423   9.849  0.6374  3.0205  4.2731
  354MOL0     H47787   6.806  -0.407   9.781  2.1728 -0.3719 -0.6743
  354MOL0     H47788   6.799  -0.779   9.994 -1.1083 -1.4195 -3.7954
  354MOL0     H47789   6.635   0.120   9.889  0.6039 -1.0557 -0.1964
  354MOL0     H47790   6.444   0.238   9.814  0.7875 -0.1496  2.6700
  355MOL0     O47791   5.864   9.732   9.874 -0.1756  0.0942  0.5029
  355MOL0     C47792   5.872   9.626   9.820 -0.6619  0.0964  0.9061
  355MOL0     O47793   5.919   9.590   9.693  0.8838 -0.7119 -0.0887
  355MOL0     C47794   5.960   9.677   9.592 -0.0912 -0.8349  0.8513
  355MOL0     C47795   6.079   9.658   9.523 -0.0593  0.0941  0.7532
  355MOL0     C47796   6.114   9.756   9.430 -0.1395  0.2550  0.4413
  355MOL0     C47797   6.040   9.870   9.408  0.9541  0.0748  0.8876
  355MOL0     O47798   6.075   9.978   9.322  0.3435  0.1479 -0.4322
  355MOL0     C47799   6.200   9.970   9.241  0.0100 -0.3438 -0.4399
  355MOL0     C47800   6.221  10.090   9.140 -0.3528  0.0733  0.0003
  355MOL0     C47801   6.346  10.085   9.050 -0.0281  1.1078 -0.4792
  355MOL0     C47802   6.338  10.175   8.929 -0.0904  0.2415 -0.2054
  355MOL0     C47803   6.429  10.142   8.814  0.4589  0.4599  1.0423
  355MOL0     C47804   6.579  10.187   8.836 -0.1973  0.4467  0.6183
  355MOL0     C47805   6.652  10.131   8.709  0.0130  0.7417 -0.1069
  355MOL0     C47806   6.664   9.970   8.710  0.2654 -0.0802 -0.1256
  355MOL0     N47807   6.759   9.930   8.605  0.0415  0.1309  0.2044
  355MOL0     C47808   6.798   9.989   8.480 -0.3362  0.0314 -0.4822
  355MOL0     C47809   6.926   9.934   8.464  0.3677  0.2412  0.2083
  355MOL0     C47810   6.998   9.971   8.339  0.2271 -0.3744  0.0643
  355MOL0     C47811   7.128   9.889   8.306 -0.1573  0.0159 -0.5064
  355MOL0     C47812   7.189   9.912   8.165 -0.5038 -0.1459 -0.5076
  355MOL0     C47813   7.322   9.845   8.121 -0.2547 -0.4015 -0.5575
  355MOL0     O47814   7.329   9.707   8.113 -0.5751  0.7832 -0.7102
  355MOL0     C47815   7.442   9.653   8.059 -0.1935 -0.4240 -1.0301
  355MOL0     C47816   7.440   9.572   7.947  0.6249  0.0296 -0.0588
  355MOL0     C47817   7.550   9.521   7.887 -0.2086 -0.0845 -0.6970
  355MOL0     C47818   7.535   9.434   7.768  0.1988  0.2407  0.4926
  355MOL0     C47819   7.679   9.533   7.952 -0.5332  0.2822  0.1128
  355MOL0     C47820   7.805   9.464   7.908 -0.9010 -0.1229  0.3971
  355MOL0     O47821   7.907   9.461   7.993 -0.6453 -0.1165 -0.3001
  355MOL0     C47822   8.014   9.388   7.959  0.4908 -0.1125 -0.5591
  355MOL0     C47823   8.016   9.260   8.020 -0.7514 -0.3142  0.3888
  355MOL0     C47824   8.122   9.172   7.987 -0.0115  0.1428 -1.2353
  355MOL0     C47825   8.231   9.221   7.913  0.7878  0.0371  0.1313
  355MOL0     O47826   8.331   9.142   7.860 -0.1705 -0.6748 -0.6106
  355MOL0     C47827   8.332   8.998   7.882 -0.4714 -0.0359  0.2979
  355MOL0     C47828   8.451   8.930   7.809  1.0509  0.3736  0.0825
  355MOL0     C47829   8.574   9.004   7.832  0.5143  0.4342  0.4616
  355MOL0     C47830   8.693   8.941   7.764  1.0794  0.2649  0.2290
  355MOL0     C47831   8.822   9.035   7.778  0.1065 -0.0300 -0.4883
  355MOL0     C47832   8.916   8.971   7.679  0.0020 -0.1115  0.7373
  355MOL0     C47833   9.050   9.025   7.675 -0.7014 -0.6430 -1.0362
  355MOL0     C47834   9.140   8.944   7.575  0.4383  0.0866  0.0531
  355MOL0    Cl47835   9.102   9.021   7.419 -0.3343  0.1735  0.1826
  355MOL0     C47836   8.228   9.351   7.859 -0.4964 -0.4430  0.2020
  355MOL0     C47837   8.118   9.440   7.881  0.6982 -0.0946 -0.1780
  355MOL0     O47838   7.802   9.408   7.800 -0.5806  0.4337  0.2163
  355MOL0     C47839   7.685   9.614   8.068  0.9179  0.1399 -0.5041
  355MOL0     C47840   7.568   9.675   8.118  0.2735  0.1609  0.2666
  355MOL0     N47841   6.951   9.838   8.561  0.8894 -0.3829  1.0137
  355MOL0     N47842   6.852   9.839   8.641  0.2099  0.3995 -0.3631
  355MOL0     C47843   5.917   9.893   9.478 -1.1492 -0.4470  0.2562
  355MOL0     C47844   5.881   9.791   9.570 -0.0540  0.6740 -0.3722
  355MOL0     C47845   5.796   9.514   9.881  0.2257  0.7625 -0.6638
  355MOL0     C47846   5.690   9.540   9.974 -1.0035  0.5767 -0.1301
  355MOL0     C47847   5.607   9.439  10.023  0.8687 -0.3008  0.3301
  355MOL0     C47848   5.636   9.306   9.991 -0.3443  0.3809  0.6199
  355MOL0     O47849   5.570   9.195  10.037  0.1385  0.2913 -0.2804
  355MOL0     C47850   5.462   9.208  10.129 -0.2985 -0.2786  0.0932
  355MOL0     C47851   5.439   9.087  10.212 -0.1997 -0.2488  0.8542
  355MOL0     C47852   5.367   8.980  10.127  0.5339 -0.4244  0.5465
  355MOL0     C47853   5.354   8.862  10.219  0.9389  0.9520 -0.8948
  355MOL0     C47854   5.234   8.872  10.306 -0.9636  0.3709  0.9313
  355MOL0     C47855   5.134   8.893  10.372 -0.7492  0.2169 -0.4345
  355MOL0     C47856   5.756   9.279   9.922  0.0516  0.5980  0.0812
  355MOL0     C47857   5.826   9.381   9.859 -0.3993 -0.5632 -0.2471
  355MOL0     H47858   6.152   9.579   9.538  0.7432  0.7565  0.4276
  355MOL0     H47859   6.204   9.737   9.372 -0.1669  1.2727  0.0473
  355MOL0     H47860   6.285   9.979   9.309  1.1571  0.9345 -1.9641
  355MOL0     H47861   6.197   9.874   9.190  0.2853 -1.9430  2.3740
  355MOL0     H47862   6.130  10.086   9.080 -0.2022 -1.3570 -0.1718
  355MOL0     H47863   6.236  10.181   9.199  3.2717 -0.9179  0.8777
  355MOL0     H47864   6.437  10.110   9.106  0.8888 -2.4255 -0.1601
  355MOL0     H47865   6.374   9.986   9.014 -0.6189  0.2963  1.1776
  355MOL0     H47866   6.231  10.176   8.907 -0.0404  0.3355 -0.4446
  355MOL0     H47867   6.372  10.271   8.969  4.0619 -1.4163  0.7489
  355MOL0     H47868   6.403  10.038   8.793  1.1261  0.2876  1.0496
  355MOL0     H47869   6.397  10.204   8.729  0.2069 -1.2805 -0.1872
  355MOL0     H47870   6.605  10.293   8.839 -0.3721  0.4842  1.0333
  355MOL0     H47871   6.616  10.150   8.932 -2.4580  1.8445  2.1286
  355MOL0     H47872   6.608  10.151   8.611 -1.3825 -1.7850 -0.0794
  355MOL0     H47873   6.750  10.181   8.709  0.3273  0.1464  0.3791
  355MOL0     H47874   6.569   9.920   8.685 -0.9487  0.9198  2.1742
  355MOL0     H47875   6.693   9.926   8.806 -2.8398 -0.7838  0.6079
  355MOL0     H47876   6.743  10.056   8.415 -0.3540  2.3104  1.7111
  355MOL0     H47877   6.933   9.978   8.251  2.4840  3.4821 -1.5750
  355MOL0     H47878   7.027  10.075   8.358  2.0624 -0.5490 -1.5052
  355MOL0     H47879   7.106   9.782   8.305 -2.9543  0.4381  1.7715
  355MOL0     H47880   7.204   9.911   8.382 -1.9188 -1.5965  1.8602
  355MOL0     H47881   7.201  10.018   8.142  1.5797 -0.7666 -2.6271
  355MOL0     H47882   7.108   9.884   8.097 -1.1790  2.9684 -1.1188
  355MOL0     H47883   7.400   9.875   8.192 -1.1668 -1.5679  0.9950
  355MOL0     H47884   7.353   9.875   8.020 -1.2046 -1.2427 -1.1135
  355MOL0     H47885   7.346   9.567   7.893 -0.1687 -0.0668  1.2771
  355MOL0     H47886   7.589   9.473   7.681 -0.9623  0.0348 -0.3511
  355MOL0     H47887   7.567   9.332   7.792  1.4528 -0.0579 -2.1574
  355MOL0     H47888   7.429   9.431   7.742 -0.0516  2.9239  0.8654
  355MOL0     H47889   7.925   9.233   8.073  0.3206  0.2967  2.6675
  355MOL0     H47890   8.107   9.074   8.031 -0.1663  0.5460 -0.3824
  355MOL0     H47891   8.335   8.979   7.990 -2.5019 -1.2032  0.2049
  355MOL0     H47892   8.241   8.949   7.844 -0.9706 -0.0506  1.4616
  355MOL0     H47893   8.466   8.827   7.844 -0.4324  0.7057  1.8253
  355MOL0     H47894   8.430   8.914   7.703  5.3181 -0.2502 -0.8501
  355MOL0     H47895   8.597   9.001   7.939  1.0254 -2.5751  0.3662
  355MOL0     H47896   8.556   9.104   7.791  0.0519 -0.6009 -2.0542
  355MOL0     H47897   8.710   8.850   7.823  1.6015  0.2793  0.1008
  355MOL0     H47898   8.670   8.902   7.664  0.2119 -1.8725  1.1809
  355MOL0     H47899   8.870   9.035   7.876 -0.2212 -0.2633 -0.3268
  355MOL0     H47900   8.809   9.143   7.765  0.0684 -0.0859 -0.9245
  355MOL0     H47901   8.926   8.865   7.703  3.2294 -0.2880 -0.8684
  355MOL0     H47902   8.876   8.989   7.578 -2.5256 -1.6483  1.3769
  355MOL0     H47903   9.084   9.026   7.780 -4.7799 -1.3042  0.4685
  355MOL0     H47904   9.062   9.129   7.643 -0.1536 -1.0939 -2.3565
  355MOL0     H47905   9.112   8.839   7.590  2.4890 -0.9656 -2.6328
  355MOL0     H47906   9.249   8.944   7.580  0.5694 -2.7221 -0.8672
  355MOL0     H47907   8.312   9.368   7.793 -0.8601 -2.6970 -0.9437
  355MOL0     H47908   8.122   9.543   7.845  1.3833  0.9818  2.6984
  355MOL0     H47909   7.786   9.634   8.103  1.3743 -1.7287 -0.6474
  355MOL0     H47910   7.572   9.739   8.206  0.1366 -0.3586  0.6571
  355MOL0     H47911   5.858   9.983   9.471 -1.1963 -0.3016  2.0587
  355MOL0     H47912   5.785   9.795   9.622 -2.1871  1.6281 -3.9995
  355MOL0     H47913   5.667   9.640  10.011 -1.2486 -0.0275  1.4492
  355MOL0     H47914   5.518   9.473  10.074  0.4922  1.6793 -1.5132
  355MOL0     H47915   5.478   9.285  10.205 -0.9820  0.9445 -0.9634
  355MOL0     H47916   5.376   9.246  10.073  0.1286 -1.1434 -1.2195
  355MOL0     H47917   5.373   9.112  10.294  0.4231  4.4825  0.1516
  355MOL0     H47918   5.533   9.046  10.251 -0.1533 -1.1548 -0.1422
  355MOL0     H47919   5.428   8.955  10.039  0.0932  1.6336 -0.4055
  355MOL0     H47920   5.269   9.011  10.089  0.4030  0.6020  1.6631
  355MOL0     H47921   5.436   8.852  10.290  1.1398 -2.0400 -1.4235
  355MOL0     H47922   5.358   8.771  10.157  2.3406  0.0771  0.4018
  355MOL0     H47923   5.047   8.924  10.425 -2.4409 -2.1399 -1.6455
  355MOL0     H47924   5.794   9.178   9.927  0.0038  0.4681 -1.5826
  355MOL0     H47925   5.910   9.343   9.801  1.1875 -2.6515  3.0588
  356MOL0     O47926   6.809   7.325   7.535 -0.1106  0.0406 -0.2386
  356MOL0     C47927   6.893   7.246   7.582 -0.7214  0.7770 -0.6272
  356MOL0     O47928   6.871   7.132   7.650  0.0560  0.8038 -0.0777
  356MOL0     C47929   6.749   7.072   7.662 -0.0268 -0.0871 -0.4707
  356MOL0     C47930   6.755   6.938   7.677 -0.0268  0.5233 -0.1525
  356MOL0     C47931   6.634   6.865   7.688 -0.5174 -0.2370 -0.3909
  356MOL0     C47932   6.505   6.926   7.690 -0.1498 -0.5228  1.1186
  356MOL0     O47933   6.393   6.855   7.697 -0.0578  0.4596  0.1173
  356MOL0     C47934   6.277   6.912   7.768 -0.0694  0.3203 -0.7985
  356MOL0     C47935   6.177   6.812   7.776  0.3750  0.0608  0.0216
  356MOL0     C47936   6.121   6.801   7.630  0.6925 -0.0021  0.1399
  356MOL0     C47937   5.995   6.718   7.612  0.2256  0.8233 -0.4497
  356MOL0     C47938   5.867   6.813   7.641 -0.5560  0.0143 -0.5409
  356MOL0     C47939   5.751   6.718   7.680 -0.7310  1.3075  0.0838
  356MOL0     C47940   5.621   6.789   7.721 -0.7877  0.1865  0.2324
  356MOL0     C47941   5.568   6.893   7.623  0.6995  0.3572  0.0110
  356MOL0     N47942   5.432   6.935   7.649 -0.5915  0.1385 -0.1344
  356MOL0     C47943   5.322   6.872   7.608 -0.3814  0.0520  0.3364
  356MOL0     C47944   5.214   6.943   7.652 -0.2569  0.3022 -0.8639
  356MOL0     C47945   5.065   6.932   7.634  1.0465  0.8170  0.2442
  356MOL0     C47946   5.026   6.813   7.544 -0.1878  0.0987 -0.1435
  356MOL0     C47947   4.874   6.794   7.550  0.3358 -0.2073 -0.4915
  356MOL0     C47948   4.804   6.898   7.468  0.1713 -0.1339 -0.3132
  356MOL0     O47949   4.844   6.873   7.332  0.1830  0.8382 -0.7775
  356MOL0     C47950   4.811   6.975   7.242 -0.0633 -0.1584  0.0210
  356MOL0     C47951   4.735   7.090   7.271  0.1315 -0.3725 -0.4155
  356MOL0     C47952   4.709   7.185   7.170 -0.4457  0.4827 -1.1162
  356MOL0     C47953   4.646   7.313   7.220 -0.1762 -0.3823  0.4423
  356MOL0     C47954   4.718   7.152   7.035 -0.1007 -0.8592  0.0901
  356MOL0     C47955   4.666   7.238   6.919 -0.1843  0.0640 -0.7244
  356MOL0     O47956   4.668   7.181   6.799 -0.5420  0.1788 -0.2179
  356MOL0     C47957   4.624   7.254   6.691 -0.4629 -0.9400 -0.3810
  356MOL0     C47958   4.539   7.189   6.603  0.2058  0.5020  0.6113
  356MOL0     C47959   4.493   7.255   6.487 -0.2930 -0.1675 -0.0961
  356MOL0     C47960   4.550   7.378   6.448 -0.1743  0.4256 -0.7051
  356MOL0     O47961   4.506   7.432   6.330  0.0533 -0.4606 -0.5327
  356MOL0     C47962   4.573   7.555   6.288 -0.2551  0.1686 -0.8410
  356MOL0     C47963   4.499   7.614   6.169  0.0386 -0.3193 -1.5640
  356MOL0     C47964   4.352   7.652   6.211 -0.4928  0.7209  0.4335
  356MOL0     C47965   4.280   7.714   6.094  0.1010  0.3955 -0.5321
  356MOL0     C47966   4.135   7.732   6.141 -0.2675 -0.2054  1.3704
  356MOL0     C47967   4.052   7.795   6.033  0.3812 -0.4850 -0.3426
  356MOL0     C47968   4.099   7.933   6.000  0.0023  0.2125  0.5366
  356MOL0     C47969   4.068   7.964   5.852 -0.9717  0.2563 -0.9455
  356MOL0    Cl47970   3.901   7.962   5.800  0.4322 -0.2931 -0.2144
  356MOL0     C47971   4.649   7.433   6.533 -0.4309 -0.2667  0.8079
  356MOL0     C47972   4.681   7.379   6.649  0.0022 -0.5847 -0.8780
  356MOL0     O47973   4.650   7.360   6.939 -0.0735 -0.8273 -0.4588
  356MOL0     C47974   4.782   7.028   7.007  0.9079 -1.0157  0.0418
  356MOL0     C47975   4.819   6.940   7.108 -0.7073 -0.0127  0.7348
  356MOL0     N47976   5.278   7.046   7.727  0.4991  0.5740 -0.2353
  356MOL0     N47977   5.402   7.045   7.725  0.2097  0.2984  0.6430
  356MOL0     C47978   6.503   7.063   7.671  0.0799 -0.2570  0.7458
  356MOL0     C47979   6.623   7.137   7.660  0.3037 -0.6045 -0.0987
  356MOL0     C47980   7.035   7.275   7.552  0.9768 -0.2816 -0.0541
  356MOL0     C47981   7.067   7.362   7.446 -0.5938  0.4727  0.1672
  356MOL0     C47982   7.194   7.393   7.409 -0.5396  0.2688 -0.0486
  356MOL0     C47983   7.301   7.344   7.488  0.0151 -0.8532  0.2464
  356MOL0     O47984   7.436   7.363   7.458  0.3254 -0.5874  0.9278
  356MOL0     C47985   7.492   7.311   7.333  0.6237  1.1107  0.3972
  356MOL0     C47986   7.562   7.182   7.370 -0.3969  0.3171  0.0481
  356MOL0     C47987   7.668   7.220   7.482 -0.1311  0.0679  0.5039
  356MOL0     C47988   7.782   7.125   7.497 -0.3807  0.2888 -0.2824
  356MOL0     C47989   7.872   7.144   7.386 -0.4795  0.1976 -0.7308
  356MOL0     C47990   7.961   7.154   7.303 -0.2596 -0.3489 -0.4782
  356MOL0     C47991   7.272   7.254   7.597  0.0438  0.0944 -0.7072
  356MOL0     C47992   7.141   7.222   7.631 -0.2344  0.6340  0.0005
  356MOL0     H47993   6.845   6.879   7.666 -1.5106 -1.5681 -1.9942
  356MOL0     H47994   6.642   6.757   7.686 -0.2953 -0.2059 -1.5699
  356MOL0     H47995   6.316   6.940   7.867 -0.4881  5.5386 -1.8564
  356MOL0     H47996   6.244   7.006   7.725 -0.9293  0.0002 -0.8631
  356MOL0     H47997   6.218   6.716   7.811  3.4818  1.2334 -0.0700
  356MOL0     H47998   6.100   6.850   7.844  1.9327  2.6698  0.4476
  356MOL0     H47999   6.099   6.902   7.597  0.8653  0.1347  0.4390
  356MOL0     H48000   6.198   6.744   7.578 -0.6151 -0.8523 -0.9384
  356MOL0     H48001   5.997   6.680   7.509 -1.7067 -3.5851  0.8915
  356MOL0     H48002   6.002   6.625   7.670 -3.8943 -1.9335 -3.7704
  356MOL0     H48003   5.877   6.884   7.724 -1.3353 -1.6448  1.0350
  356MOL0     H48004   5.853   6.868   7.548  2.1659  2.6485  0.4483
  356MOL0     H48005   5.729   6.650   7.597 -0.8756 -0.5059  1.5394
  356MOL0     H48006   5.783   6.653   7.763  2.2115  0.9499 -1.1965
  356MOL0     H48007   5.545   6.715   7.747 -0.4906  0.4475  1.9573
  356MOL0     H48008   5.644   6.838   7.816  1.2172 -0.5070  0.1552
  356MOL0     H48009   5.557   6.845   7.526 -2.6961  1.8312 -0.4629
  356MOL0     H48010   5.625   6.986   7.611 -1.2866  1.9729  1.9791
  356MOL0     H48011   5.322   6.780   7.550  1.3359  0.7435 -0.8263
  356MOL0     H48012   5.020   6.915   7.732 -1.1232 -1.4583 -1.0203
  356MOL0     H48013   5.027   7.030   7.601  0.1036  0.6415  0.7501
  356MOL0     H48014   5.068   6.723   7.590 -0.6184  0.1030  0.2668
  356MOL0     H48015   5.067   6.821   7.443  0.4124  0.3282  0.1141
  356MOL0     H48016   4.835   6.814   7.650  1.7001  2.6381 -0.4231
  356MOL0     H48017   4.853   6.692   7.516  0.7217 -1.0872  1.7330
  356MOL0     H48018   4.830   6.999   7.500 -2.7261  1.2078 -1.8048
  356MOL0     H48019   4.696   6.887   7.483  0.3169 -0.4903  0.5011
  356MOL0     H48020   4.707   7.123   7.371 -2.0955  3.2525 -2.0325
  356MOL0     H48021   4.704   7.403   7.195  0.0586  0.7988  4.4815
  356MOL0     H48022   4.549   7.327   7.171  0.4170 -2.4115 -1.4663
  356MOL0     H48023   4.646   7.328   7.328 -0.8564  0.7721  0.3067
  356MOL0     H48024   4.507   7.091   6.638  3.8431 -0.5395  1.4404
  356MOL0     H48025   4.413   7.212   6.428 -1.2633  0.0772  1.0162
  356MOL0     H48026   4.569   7.628   6.369 -0.2980  0.8013 -1.4117
  356MOL0     H48027   4.678   7.538   6.265  0.0157  0.0235  0.4088
  356MOL0     H48028   4.554   7.707   6.148 -1.5083  0.9340 -0.3819
  356MOL0     H48029   4.495   7.546   6.084  1.2471  0.0116 -1.9132
  356MOL0     H48030   4.365   7.718   6.297 -1.4132 -1.8542  2.7222
  356MOL0     H48031   4.299   7.567   6.256  0.5595  0.7067  1.7032
  356MOL0     H48032   4.327   7.807   6.062 -1.2185  1.3444  0.1795
  356MOL0     H48033   4.265   7.641   6.014 -1.0963 -1.4660  1.2800
  356MOL0     H48034   4.131   7.806   6.221 -2.1427  1.3132 -0.0360
  356MOL0     H48035   4.079   7.640   6.162 -2.3439  0.7969  0.5540
  356MOL0     H48036   4.050   7.720   5.954 -0.0970 -1.8133  0.8693
  356MOL0     H48037   3.953   7.795   6.081 -0.1147 -2.4272 -1.2882
  356MOL0     H48038   4.204   7.958   6.017  0.3781 -1.2572  0.5083
  356MOL0     H48039   4.047   8.007   6.061  2.2682  1.1454  1.4621
  356MOL0     H48040   4.119   7.896   5.784 -1.5288  1.0887 -2.2291
  356MOL0     H48041   4.103   8.067   5.838 -1.1672  1.0420  2.9686
  356MOL0     H48042   4.686   7.532   6.509 -1.0497 -0.7823 -2.9637
  356MOL0     H48043   4.757   7.424   6.713 -0.3265  1.2867 -1.7249
  356MOL0     H48044   4.799   7.009   6.901 -5.4991 -1.2989 -1.3288
  356MOL0     H48045   4.843   6.840   7.075 -1.1388  0.6662 -1.9505
  356MOL0     H48046   6.410   7.117   7.656  0.7080  0.4895 -0.7054
  356MOL0     H48047   6.616   7.245   7.655  2.7474 -0.4220 -1.1667
  356MOL0     H48048   6.985   7.402   7.387 -1.2639 -1.1047 -0.0063
  356MOL0     H48049   7.213   7.449   7.318  0.5795 -0.6362 -0.3959
  356MOL0     H48050   7.402   7.288   7.275 -1.6748  0.2944  3.9836
  356MOL0     H48051   7.554   7.388   7.286 -0.3474  2.5447  1.3628
  356MOL0     H48052   7.611   7.131   7.286 -0.8532  0.2441 -0.1752
  356MOL0     H48053   7.493   7.112   7.418 -1.8504 -0.2296 -2.6213
  356MOL0     H48054   7.618   7.237   7.578 -1.7199  3.1903 -0.7367
  356MOL0     H48055   7.717   7.313   7.451  0.8305 -0.9078 -1.0105
  356MOL0     H48056   7.744   7.023   7.502  0.7622 -0.1256  0.8153
  356MOL0     H48057   7.831   7.142   7.594  1.2826 -0.1800 -1.0039
  356MOL0     H48058   8.027   7.178   7.222 -0.5708 -0.0436 -0.6423
  356MOL0     H48059   7.360   7.226   7.655  0.3419  0.4529 -0.9811
  356MOL0     H48060   7.121   7.165   7.722 -0.2548 -0.7018 -0.8126
  357MOL0     O48061   7.312   5.622   3.688  0.8851 -0.1683  0.4128
  357MOL0     C48062   7.351   5.728   3.724 -0.5476  0.3190 -0.3095
  357MOL0     O48063   7.482   5.764   3.718 -0.5384 -0.9345  0.2971
  357MOL0     C48064   7.567   5.683   3.640 -0.2409  0.2483 -0.3641
  357MOL0     C48065   7.640   5.741   3.539 -0.1783  0.1446  0.0422
  357MOL0     C48066   7.734   5.664   3.470 -0.4741  0.3710 -0.1030
  357MOL0     C48067   7.772   5.536   3.511  0.1256 -0.0960  0.5473
  357MOL0     O48068   7.890   5.497   3.462 -0.3368 -0.1564 -0.3647
  357MOL0     C48069   7.981   5.421   3.546 -1.0791  0.7247  0.1307
  357MOL0     C48070   8.002   5.282   3.499  0.3547  0.3282 -0.3726
  357MOL0     C48071   8.049   5.268   3.357 -0.0426  0.5441  0.0830
  357MOL0     C48072   8.044   5.124   3.307  0.3261  1.5334  0.5032
  357MOL0     C48073   8.174   5.031   3.337  0.6697  0.8662  1.2987
  357MOL0     C48074   8.185   4.912   3.237  0.5074 -0.0001  0.2243
  357MOL0     C48075   8.320   4.834   3.239  0.2739 -0.0443 -0.8651
  357MOL0     C48076   8.331   4.740   3.371 -0.2444 -0.2774  0.3812
  357MOL0     N48077   8.432   4.636   3.347 -0.1578 -0.3882  0.2018
  357MOL0     C48078   8.573   4.653   3.352  0.3774 -0.2031  0.6812
  357MOL0     C48079   8.622   4.529   3.340 -0.4443  0.7367  0.4568
  357MOL0     C48080   8.764   4.494   3.367 -0.8455 -0.8225  0.3575
  357MOL0     C48081   8.805   4.501   3.516 -0.1571 -0.1789  0.0839
  357MOL0     C48082   8.956   4.454   3.538  0.0909 -0.0016 -0.0691
  357MOL0     C48083   8.988   4.450   3.684 -0.0738  0.0168 -0.6501
  357MOL0     O48084   8.942   4.575   3.743 -0.6198 -0.4854 -0.5088
  357MOL0     C48085   9.012   4.613   3.851 -0.5728 -0.6170 -0.2731
  357MOL0     C48086   9.047   4.533   3.962 -0.9307  0.5216  0.3224
  357MOL0     C48087   9.117   4.589   4.073  0.3731  0.6026 -0.0139
  357MOL0     C48088   9.142   4.494   4.186 -0.2703  0.4116 -0.3728
  357MOL0     C48089   9.163   4.723   4.061 -0.0391 -1.0459 -0.0553
  357MOL0     C48090   9.247   4.786   4.160 -0.5237  0.2706 -0.0677
  357MOL0     O48091   9.239   4.747   4.294  0.6214  0.3103  0.6806
  357MOL0     C48092   9.273   4.844   4.380  0.6960 -0.0580 -0.2187
  357MOL0     C48093   9.173   4.924   4.436  0.4878  0.7929 -0.6197
  357MOL0     C48094   9.213   5.013   4.537 -0.1683 -0.0289  0.9562
  357MOL0     C48095   9.343   5.019   4.585 -0.3113 -0.9296 -0.1107
  357MOL0     O48096   9.392   5.112   4.673 -0.1711 -0.3338 -0.4130
  357MOL0     C48097   9.318   5.221   4.730 -0.0291  0.4591 -0.6938
  357MOL0     C48098   9.420   5.331   4.782  0.5379  0.5733  0.5310
  357MOL0     C48099   9.362   5.466   4.819  0.0537  0.8876  0.1008
  357MOL0     C48100   9.468   5.557   4.870 -0.2379 -0.1760 -0.0048
  357MOL0     C48101   9.404   5.686   4.907  0.2644 -0.3860  0.5027
  357MOL0     C48102   9.505   5.797   4.942  0.6433 -0.6733  0.2765
  357MOL0     C48103   9.432   5.930   4.984  0.2805 -0.2347  0.2247
  357MOL0     C48104   9.318   5.913   5.086  0.6215 -0.4722 -0.2681
  357MOL0    Cl48105   9.396   5.856   5.243 -0.1559  0.2297 -0.0040
  357MOL0     C48106   9.437   4.933   4.533  0.0191  0.3332  0.9662
  357MOL0     C48107   9.405   4.858   4.421  0.3381 -0.0924 -0.1279
  357MOL0     O48108   9.322   4.877   4.125 -0.4980 -0.9186 -0.5153
  357MOL0     C48109   9.123   4.803   3.955 -0.0617  0.5147  0.8222
  357MOL0     C48110   9.047   4.750   3.855  0.1391 -0.3082  0.4374
  357MOL0     N48111   8.509   4.439   3.312  0.3484 -0.4881 -0.3938
  357MOL0     N48112   8.402   4.507   3.332  0.3683  0.0212  0.1279
  357MOL0     C48113   7.693   5.470   3.607 -0.1544 -0.7341 -0.1114
  357MOL0     C48114   7.596   5.547   3.674 -0.3367 -0.7136 -0.3800
  357MOL0     C48115   7.244   5.824   3.776 -0.3303  0.0344  0.1196
  357MOL0     C48116   7.116   5.783   3.816 -0.4708  0.3902 -0.3478
  357MOL0     C48117   7.019   5.876   3.863 -0.8657 -0.5378 -0.4681
  357MOL0     C48118   7.056   6.004   3.891  0.0529 -0.0326  0.4539
  357MOL0     O48119   6.962   6.090   3.951 -0.8915 -0.6000 -0.1184
  357MOL0     C48120   6.921   6.215   3.883  0.5914  0.4644 -0.2096
  357MOL0     C48121   6.994   6.339   3.931 -0.7895 -0.0236 -0.3764
  357MOL0     C48122   6.973   6.357   4.088  0.0853 -0.7863 -0.2704
  357MOL0     C48123   6.936   6.501   4.131  0.1449  0.4062  0.0544
  357MOL0     C48124   6.794   6.532   4.090 -0.0404  0.1190  0.3346
  357MOL0     C48125   6.685   6.552   4.041  0.0526  0.7522 -0.4736
  357MOL0     C48126   7.191   6.033   3.863 -0.4076 -0.2642 -0.6739
  357MOL0     C48127   7.281   5.946   3.813 -0.3285 -1.5228 -0.7417
  357MOL0     H48128   7.620   5.843   3.507  1.4894  1.4275  2.7115
  357MOL0     H48129   7.795   5.714   3.395 -1.2581 -1.9122 -2.4428
  357MOL0     H48130   8.078   5.471   3.548  0.1754 -1.5147 -0.8863
  357MOL0     H48131   7.941   5.416   3.648  0.3145  0.6985  0.6968
  357MOL0     H48132   8.084   5.243   3.561 -0.4920 -2.5187 -0.8878
  357MOL0     H48133   7.916   5.217   3.520  1.9116 -1.5423  0.5823
  357MOL0     H48134   7.979   5.335   3.306 -2.0804 -0.1345  1.8439
  357MOL0     H48135   8.146   5.319   3.347  1.6661 -2.6484 -1.3218
  357MOL0     H48136   7.962   5.066   3.352  1.9081 -0.8738  0.4735
  357MOL0     H48137   8.033   5.133   3.198 -1.7008  2.3864  0.7234
  357MOL0     H48138   8.262   5.093   3.319 -0.9925  2.7400 -1.0043
  357MOL0     H48139   8.177   4.980   3.434  0.2159 -4.1012 -0.9994
  357MOL0     H48140   8.102   4.843   3.254  1.2627 -0.5054  2.0177
  357MOL0     H48141   8.162   4.938   3.133 -3.0601  0.0403  0.8771
  357MOL0     H48142   8.316   4.762   3.157 -1.7893 -0.9750 -0.0359
  357MOL0     H48143   8.404   4.903   3.232 -1.6824  2.5131 -0.7503
  357MOL0     H48144   8.240   4.689   3.402 -0.4838 -0.0650  0.0425
  357MOL0     H48145   8.363   4.809   3.449 -0.4907  0.9714 -0.5791
  357MOL0     H48146   8.618   4.749   3.373  0.0340  0.6304 -2.0080
  357MOL0     H48147   8.785   4.394   3.326  0.9418 -0.8249  1.1741
  357MOL0     H48148   8.827   4.566   3.315  0.7163 -4.2195 -2.9589
  357MOL0     H48149   8.746   4.431   3.576  2.3508 -1.6361  1.0314
  357MOL0     H48150   8.785   4.603   3.550  0.3619 -0.7982  2.4287
  357MOL0     H48151   9.019   4.529   3.490  0.0141  1.1176  1.5169
  357MOL0     H48152   8.976   4.354   3.498 -1.6276 -0.1097 -0.7563
  357MOL0     H48153   9.093   4.428   3.706 -0.3006 -0.4669  0.0064
  357MOL0     H48154   8.938   4.367   3.736 -1.7489  0.7268 -1.0821
  357MOL0     H48155   9.024   4.428   3.974  1.3294  0.3125  5.4569
  357MOL0     H48156   9.055   4.486   4.252 -0.1182 -0.4827 -0.2762
  357MOL0     H48157   9.163   4.397   4.140  1.9591 -0.3434  1.9889
  357MOL0     H48158   9.228   4.520   4.248  0.6333 -1.3892 -0.8129
  357MOL0     H48159   9.074   4.921   4.392  0.3702  0.1500 -0.3163
  357MOL0     H48160   9.139   5.081   4.577 -0.3997  0.6103 -0.4985
  357MOL0     H48161   9.247   5.269   4.661 -1.1684  1.1807  0.9010
  357MOL0     H48162   9.256   5.186   4.813 -1.2564 -0.5250 -1.9579
  357MOL0     H48163   9.475   5.280   4.862  1.5160  0.3261 -0.2692
  357MOL0     H48164   9.489   5.346   4.698  2.2043  0.3519  1.8176
  357MOL0     H48165   9.274   5.444   4.880 -0.8078 -1.4372 -1.7948
  357MOL0     H48166   9.330   5.508   4.723  0.2911 -2.1755 -1.4472
  357MOL0     H48167   9.515   5.518   4.961 -1.4254  0.6175  0.9751
  357MOL0     H48168   9.544   5.583   4.794 -1.8500 -0.7225 -1.8895
  357MOL0     H48169   9.325   5.663   4.980  0.0952  0.6774  0.6655
  357MOL0     H48170   9.347   5.725   4.822 -1.9822 -3.7283  0.2927
  357MOL0     H48171   9.550   5.754   5.032 -1.9847 -2.6313  0.7686
  357MOL0     H48172   9.576   5.816   4.861 -1.7737  3.5630 -1.1641
  357MOL0     H48173   9.392   5.969   4.890 -3.0782 -0.0572  1.6060
  357MOL0     H48174   9.504   6.003   5.023  3.5848 -3.1566  0.1431
  357MOL0     H48175   9.237   5.849   5.049  1.0768 -3.5900  3.4971
  357MOL0     H48176   9.275   6.011   5.108 -0.8566 -1.5577  2.0842
  357MOL0     H48177   9.536   4.913   4.572  1.0206 -1.7930 -2.2257
  357MOL0     H48178   9.475   4.787   4.378  0.8724 -0.3051  1.0518
  357MOL0     H48179   9.151   4.908   3.957 -1.6922  1.0501 -1.1734
  357MOL0     H48180   9.015   4.815   3.774  0.6919 -0.3048  0.2171
  357MOL0     H48181   7.716   5.369   3.639 -0.7041 -0.5374  0.9720
  357MOL0     H48182   7.544   5.495   3.754 -5.9742  4.1156 -0.2342
  357MOL0     H48183   7.082   5.680   3.819 -1.9564  0.8483  3.0568
  357MOL0     H48184   6.923   5.847   3.907  0.3352 -0.7123  2.2656
  357MOL0     H48185   6.923   6.196   3.776 -3.8775 -0.3849 -0.3338
  357MOL0     H48186   6.814   6.222   3.906  1.0337 -1.4700  3.1090
  357MOL0     H48187   6.940   6.422   3.884 -3.4770 -1.6911 -0.4602
  357MOL0     H48188   7.102   6.334   3.914 -1.2332 -1.9840 -3.4173
  357MOL0     H48189   7.067   6.335   4.139 -0.1548  2.2542  1.7488
  357MOL0     H48190   6.900   6.285   4.126 -0.1825  0.9919  2.9899
  357MOL0     H48191   7.010   6.571   4.092 -1.3830  2.2090  0.2783
  357MOL0     H48192   6.942   6.511   4.240  0.0105  0.4813  0.0552
  357MOL0     H48193   6.594   6.550   3.986 -0.6597 -2.5463  0.5532
  357MOL0     H48194   7.223   6.137   3.873 -1.6327  0.1239 -0.6613
  357MOL0     H48195   7.384   5.973   3.797 -0.2780 -1.2372  0.0117
  358MOL0     O48196   0.362  11.001   6.407  0.1087 -0.7378 -0.6586
  358MOL0     C48197   0.352  11.011   6.285  0.6069  0.4712  0.1820
  358MOL0     O48198   0.241  11.014   6.210 -0.1344  0.4437  0.0720
  358MOL0     C48199   0.109  11.014   6.258 -0.4288 -0.5016  0.1505
  358MOL0     C48200   0.062  11.021   6.392 -0.3298  0.9376 -0.4213
  358MOL0     C48201  -0.075  11.009   6.418 -0.4335 -0.3168  0.9144
  358MOL0     C48202  -0.167  11.001   6.317  0.6064  0.0720  0.0365
  358MOL0     O48203  -0.299  11.012   6.357 -0.6777  1.1105 -0.6348
  358MOL0     C48204  -0.399  11.018   6.254  0.0505 -0.1783 -1.1375
  358MOL0     C48205  -0.530  11.030   6.331  0.4466 -0.1409  0.0823
  358MOL0     C48206  -0.661  11.033   6.251 -1.4603 -0.4053 -0.0567
  358MOL0     C48207  -0.690  10.898   6.192 -0.0622  0.1947 -1.2151
  358MOL0     C48208  -0.804  10.923   6.092 -0.6896  0.4277 -0.2147
  358MOL0     C48209  -0.851  10.785   6.046 -0.1567  0.6607  0.4311
  358MOL0     C48210  -0.998  10.782   6.017  0.0751  0.1819 -1.0252
  358MOL0     C48211  -1.013  10.846   5.879  0.2177 -0.8898 -0.1442
  358MOL0     N48212  -1.154  10.839   5.838  0.4382  0.2711 -0.6078
  358MOL0     C48213  -1.269  10.888   5.898  0.1519  0.4703 -1.1856
  358MOL0     C48214  -1.372  10.860   5.812  0.3582  1.1816 -0.4063
  358MOL0     C48215  -1.518  10.870   5.844  0.8003  0.6338  0.0604
  358MOL0     C48216  -1.569  11.015   5.886 -0.4068 -0.6069  0.3152
  358MOL0     C48217  -1.706  11.046   5.825  0.2126  0.4768  0.6676
  358MOL0     C48218  -1.809  10.954   5.883  0.7109  0.2409 -0.0079
  358MOL0     O48219  -1.885  10.882   5.777  0.1496 -0.2166 -0.2182
  358MOL0     C48220  -2.004  10.940   5.728  0.1716  0.4023 -0.6376
  358MOL0     C48221  -2.108  10.853   5.690  0.0011 -0.2121  0.1322
  358MOL0     C48222  -2.227  10.899   5.647  0.5609  0.2740  1.2197
  358MOL0     C48223  -2.332  10.787   5.639 -0.7747 -0.4999 -0.1921
  358MOL0     C48224  -2.246  11.038   5.623 -0.7349  0.5696 -0.8420
  358MOL0     C48225  -2.375  11.100   5.585  0.3361 -0.4335 -0.0438
  358MOL0     O48226  -2.370  11.229   5.562 -0.4887 -0.2706 -0.3409
  358MOL0     C48227  -2.488  11.301   5.596 -0.6655 -0.1275  1.0753
  358MOL0     C48228  -2.594  11.302   5.509  0.6609 -0.1795 -0.6369
  358MOL0     C48229  -2.708  11.357   5.557  0.4476  0.0044  0.1789
  358MOL0     C48230  -2.727  11.422   5.671  0.7528  0.3058  0.5532
  358MOL0     O48231  -2.856  11.459   5.701 -0.3799  0.9861  0.2145
  358MOL0     C48232  -2.870  11.447   5.839 -0.6795 -0.3490  0.3153
  358MOL0     C48233  -3.017  11.446   5.850 -0.1324 -0.3901 -0.4640
  358MOL0     C48234  -3.059  11.397   5.990 -0.4035  0.7217 -0.6942
  358MOL0     C48235  -3.210  11.403   6.012  0.4915  0.3832  0.6376
  358MOL0     C48236  -3.292  11.301   5.935 -0.7141 -0.5356 -0.3341
  358MOL0     C48237  -3.430  11.270   5.995  0.4020  1.1417 -0.3465
  358MOL0     C48238  -3.480  11.137   5.938 -0.3228  0.4711 -0.1556
  358MOL0     C48239  -3.548  11.148   5.805 -0.5834  0.0864 -0.4524
  358MOL0    Cl48240  -3.675  11.270   5.791  0.0932 -0.0196 -0.2904
  358MOL0     C48241  -2.610  11.436   5.751 -0.2943 -0.6064  0.2706
  358MOL0     C48242  -2.492  11.371   5.717 -1.3113 -0.1624 -0.3482
  358MOL0     O48243  -2.463  11.024   5.543  0.7989 -0.5566 -0.5734
  358MOL0     C48244  -2.140  11.120   5.650 -0.3787 -0.2748 -0.6251
  358MOL0     C48245  -2.020  11.073   5.708 -0.3886 -0.4753 -0.3462
  358MOL0     N48246  -1.316  10.803   5.698  0.9073 -0.3018 -0.0532
  358MOL0     N48247  -1.192  10.789   5.717 -0.7141 -0.5535  0.1051
  358MOL0     C48248  -0.125  10.999   6.184  0.6763 -0.4914  0.0882
  358MOL0     C48249   0.014  11.001   6.159 -0.4790 -0.5680  0.7655
  358MOL0     C48250   0.486  11.030   6.215 -0.3965 -0.2686  0.2399
  358MOL0     C48251   0.503  10.962   6.093 -0.6024  0.1300  0.3942
  358MOL0     C48252   0.625  10.998   6.014  0.2452 -0.4851  0.3665
  358MOL0     C48253   0.722  11.091   6.058 -1.4512  0.5638 -0.1570
  358MOL0     O48254   0.833  11.114   5.979 -0.4382 -0.1154  0.3994
  358MOL0     C48255   0.924  11.218   6.012 -0.3565  0.2381  0.1979
  358MOL0     C48256   0.991  11.270   5.883 -0.2037  0.2636 -0.0681
  358MOL0     C48257   1.066  11.150   5.807 -0.7018 -0.2818  0.4691
  358MOL0     C48258   1.159  11.209   5.702 -0.4747 -0.0242 -0.4974
  358MOL0     C48259   1.283  11.118   5.694  0.0299  0.5510  0.9647
  358MOL0     C48260   1.379  11.041   5.683  0.3829  0.1916  0.4543
  358MOL0     C48261   0.713  11.144   6.192 -0.3589 -0.7225  0.1831
  358MOL0     C48262   0.592  11.121   6.262  0.0789 -0.3641  0.2965
  358MOL0     H48263   0.126  11.047   6.476 -0.3941  1.1359 -0.4322
  358MOL0     H48264  -0.113  11.025   6.518 -2.1173  2.9747 -0.0786
  358MOL0     H48265  -0.391  11.102   6.184  2.1859  0.2679 -0.4452
  358MOL0     H48266  -0.386  10.929   6.192  1.5839  0.9806 -2.5785
  358MOL0     H48267  -0.530  10.960   6.415 -0.2389  1.4166  1.4584
  358MOL0     H48268  -0.535  11.126   6.384 -2.4040 -0.6186  0.8565
  358MOL0     H48269  -0.740  11.053   6.325 -0.6909  2.3287  0.1263
  358MOL0     H48270  -0.661  11.119   6.184 -0.9322  0.3921  0.9388
  358MOL0     H48271  -0.601  10.854   6.144 -1.7289 -1.2837 -3.1231
  358MOL0     H48272  -0.721  10.829   6.271  2.8183 -0.0757 -0.1674
  358MOL0     H48273  -0.880  10.990   6.133 -0.1047  0.1659  1.3663
  358MOL0     H48274  -0.755  10.970   6.006 -0.3525  1.0855  0.3270
  358MOL0     H48275  -0.801  10.743   5.958 -1.8219 -0.0401 -0.2383
  358MOL0     H48276  -0.835  10.717   6.130  0.0955  0.7291  0.4368
  358MOL0     H48277  -1.044  10.685   6.041  1.5329  0.2146  2.5718
  358MOL0     H48278  -1.042  10.858   6.082  0.6589  0.8419 -1.3954
  358MOL0     H48279  -0.958  10.801   5.795  1.9683 -0.5107  0.7476
  358MOL0     H48280  -0.975  10.948   5.875  0.8857 -1.1258  0.1354
  358MOL0     H48281  -1.277  10.928   5.998 -2.5495 -1.3294 -0.5751
  358MOL0     H48282  -1.586  10.834   5.766 -2.5500  3.7939  1.2361
  358MOL0     H48283  -1.540  10.804   5.929  1.3258  0.1584 -0.1686
  358MOL0     H48284  -1.497  11.086   5.844 -1.1549 -0.1541 -0.2208
  358MOL0     H48285  -1.567  11.033   5.994 -0.4877  4.5446 -0.3119
  358MOL0     H48286  -1.690  11.025   5.719  1.5598  0.1733  0.9056
  358MOL0     H48287  -1.737  11.147   5.852 -3.9146 -1.4845  4.6700
  358MOL0     H48288  -1.891  11.000   5.938 -0.4260 -1.0778 -0.5405
  358MOL0     H48289  -1.764  10.881   5.951  3.4128 -1.2251 -3.0675
  358MOL0     H48290  -2.092  10.753   5.727 -2.8112  0.7806  4.8678
  358MOL0     H48291  -2.429  10.822   5.674 -1.5522 -1.2461 -1.5173
  358MOL0     H48292  -2.338  10.756   5.534  1.4899 -0.6662 -0.3316
  358MOL0     H48293  -2.311  10.702   5.704  0.3220 -0.7487 -0.8501
  358MOL0     H48294  -2.578  11.243   5.420  0.3061 -2.3464  0.6566
  358MOL0     H48295  -2.804  11.354   5.506 -0.4650 -1.6193  1.8470
  358MOL0     H48296  -2.828  11.351   5.869 -1.1081 -0.0813  1.8333
  358MOL0     H48297  -2.830  11.536   5.887  0.1631  0.7533 -2.2503
  358MOL0     H48298  -3.062  11.543   5.827 -0.8772 -0.4561  0.6359
  358MOL0     H48299  -3.054  11.371   5.779  1.5994 -1.9573  0.2095
  358MOL0     H48300  -3.011  11.468   6.058 -1.7594  0.2192  0.8634
  358MOL0     H48301  -3.013  11.305   6.027  0.6868  2.4794  2.7854
  358MOL0     H48302  -3.249  11.392   6.114 -2.4646 -1.0497 -0.5274
  358MOL0     H48303  -3.236  11.497   5.962 -1.2750 -0.1291  0.5046
  358MOL0     H48304  -3.219  11.220   5.935  1.5336  1.3709 -1.0135
  358MOL0     H48305  -3.312  11.319   5.829 -3.2185  0.8749  0.2925
  358MOL0     H48306  -3.409  11.248   6.100  3.9658  1.1098 -0.9228
  358MOL0     H48307  -3.498  11.353   5.977  0.2609  0.8743 -1.0525
  358MOL0     H48308  -3.552  11.099   6.012  0.7518  1.1473  1.2831
  358MOL0     H48309  -3.400  11.063   5.935 -0.3890  0.4424 -1.5350
  358MOL0     H48310  -3.588  11.051   5.773  0.0550  0.4015 -2.3363
  358MOL0     H48311  -3.468  11.182   5.739 -1.5664  4.9909  0.4982
  358MOL0     H48312  -2.611  11.489   5.846 -0.4753  0.2235 -0.1893
  358MOL0     H48313  -2.406  11.368   5.784 -1.4700  1.5732 -0.0125
  358MOL0     H48314  -2.157  11.227   5.646  0.6524 -0.1145 -1.0154
  358MOL0     H48315  -1.939  11.140   5.737  0.1981 -0.2609 -2.3162
  358MOL0     H48316  -0.198  11.003   6.103 -0.5700 -1.2877  1.1398
  358MOL0     H48317   0.057  11.016   6.060  0.0261 -0.9716  0.9164
  358MOL0     H48318   0.423  10.893   6.069  1.2283 -1.2406 -2.4078
  358MOL0     H48319   0.639  10.957   5.915 -0.4420  2.4242 -1.0492
  358MOL0     H48320   0.869  11.295   6.068 -0.6065  0.3461 -0.1932
  358MOL0     H48321   1.002  11.178   6.078 -1.2474 -1.5844  0.2156
  358MOL0     H48322   1.058  11.348   5.919 -0.1532 -0.6050  1.8086
  358MOL0     H48323   0.905  11.308   5.826  0.7930  1.7059 -0.6592
  358MOL0     H48324   0.985  11.089   5.764 -0.6791  0.0651 -0.0807
  358MOL0     H48325   1.122  11.093   5.881  0.3473  2.3002  1.7871
  358MOL0     H48326   1.179  11.316   5.717 -0.0216 -0.4355  2.2740
  358MOL0     H48327   1.104  11.205   5.607 -4.8385  3.4876  1.4896
  358MOL0     H48328   1.459  10.970   5.677 -0.3528 -0.8370  2.2390
  358MOL0     H48329   0.801  11.191   6.235  0.6407 -0.6461 -1.8254
  358MOL0     H48330   0.572  11.182   6.349  0.2998 -0.3126  0.3093
  359MOL0     O48331   7.637   7.238  10.953 -1.2448 -0.0681  0.8658
  359MOL0     C48332   7.694   7.187  11.045  0.2026  0.2031 -0.8232
  359MOL0     O48333   7.646   7.083  11.126  0.5122 -0.3594 -0.1172
  359MOL0     C48334   7.512   7.061  11.127 -0.5537 -1.3335  0.2061
  359MOL0     C48335   7.470   6.952  11.058  0.0484 -0.2223 -0.0497
  359MOL0     C48336   7.335   6.924  11.054  0.4868 -0.4287 -0.3427
  359MOL0     C48337   7.237   7.001  11.115  0.4090 -0.1178  0.3565
  359MOL0     O48338   7.103   6.966  11.108  0.3803  0.3464  0.1407
  359MOL0     C48339   7.087   6.824  11.142  0.2735 -0.2777 -0.0821
  359MOL0     C48340   6.948   6.802  11.183 -0.5647  0.1528 -0.4971
  359MOL0     C48341   6.932   6.658  11.233 -0.1326  0.3579 -0.3269
  359MOL0     C48342   6.798   6.627  11.302 -1.2074  0.6471 -1.2069
  359MOL0     C48343   6.671   6.666  11.227 -0.4276 -0.1412  0.4063
  359MOL0     C48344   6.560   6.623  11.310  0.3944 -0.2272 -0.8369
  359MOL0     C48345   6.422   6.684  11.267  0.1685 -0.0449  0.1933
  359MOL0     C48346   6.308   6.686  11.369  0.6266  0.3929 -0.3738
  359MOL0     N48347   6.221   6.568  11.383  0.2217  0.8603  0.7942
  359MOL0     C48348   6.169   6.515  11.506  0.2014  0.0825 -0.2377
  359MOL0     C48349   6.102   6.400  11.444  0.8235 -0.7984 -0.1387
  359MOL0     C48350   6.018   6.301  11.522  1.0415  1.6865 -0.2227
  359MOL0     C48351   5.902   6.360  11.590  0.3300  0.5874  1.2660
  359MOL0     C48352   5.770   6.367  11.515  0.0605 -0.0316 -0.3402
  359MOL0     C48353   5.656   6.410  11.612  0.3518  0.3362 -0.4130
  359MOL0     O48354   5.624   6.308  11.703  0.2711  0.6358 -0.1383
  359MOL0     C48355   5.507   6.309  11.763 -0.0742 -0.1850 -0.3532
  359MOL0     C48356   5.478   6.192  11.837  0.1473  0.5790  0.2791
  359MOL0     C48357   5.368   6.174  11.929 -0.0343 -0.3051  0.0757
  359MOL0     C48358   5.353   6.042  12.005 -0.6459  0.3785  0.0861
  359MOL0     C48359   5.273   6.283  11.925 -0.6146 -0.6057  0.1926
  359MOL0     C48360   5.145   6.279  12.009 -0.1804  0.1722  0.0610
  359MOL0     O48361   5.095   6.400  12.049 -0.5177 -0.6433  0.8304
  359MOL0     C48362   4.983   6.435  12.125  0.4993  0.1048  1.2414
  359MOL0     C48363   4.892   6.523  12.070 -0.3193  0.2916  0.8283
  359MOL0     C48364   4.776   6.564  12.138  0.0063 -0.4897  0.1025
  359MOL0     C48365   4.758   6.514  12.271 -0.2600 -0.6949 -0.1299
  359MOL0     O48366   4.648   6.549  12.345 -0.0843  0.3197 -0.1207
  359MOL0     C48367   4.539   6.471  12.344  0.7187  0.5986 -0.1963
  359MOL0     C48368   4.448   6.534  12.455 -0.4651 -0.0156 -0.2780
  359MOL0     C48369   4.301   6.513  12.417 -0.2912 -0.0564  0.6228
  359MOL0     C48370   4.204   6.548  12.526  0.2459  0.6444  0.2489
  359MOL0     C48371   4.062   6.573  12.473 -0.4910  0.1393 -0.0452
  359MOL0     C48372   3.965   6.602  12.583  0.5133 -0.1657  0.4855
  359MOL0     C48373   3.970   6.742  12.621 -0.3377  0.3624  1.2019
  359MOL0     C48374   3.840   6.800  12.672  0.8662 -0.3366  0.3034
  359MOL0    Cl48375   3.718   6.783  12.543 -0.0054  0.3023 -0.3902
  359MOL0     C48376   4.844   6.428  12.323 -0.1439  0.5118 -0.5977
  359MOL0     C48377   4.952   6.381  12.252  0.1801  0.4291 -0.0662
  359MOL0     O48378   5.098   6.173  12.047 -0.1959  0.6732 -0.6436
  359MOL0     C48379   5.301   6.405  11.856  1.0274  0.0294 -0.8875
  359MOL0     C48380   5.417   6.416  11.783  0.2074  0.1684  0.4345
  359MOL0     N48381   6.110   6.397  11.300 -0.7431 -0.3169  0.2414
  359MOL0     N48382   6.180   6.502  11.266  0.2352 -0.2181  0.5455
  359MOL0     C48383   7.279   7.121  11.183 -0.2108 -0.1896 -0.6580
  359MOL0     C48384   7.415   7.150  11.191  0.0084 -0.4309  0.1812
  359MOL0     C48385   7.811   7.264  11.096 -0.7654  0.3461 -0.8047
  359MOL0     C48386   7.870   7.366  11.016 -0.4700  0.6883  0.2784
  359MOL0     C48387   7.986   7.435  11.062 -0.1749 -0.9620  0.1341
  359MOL0     C48388   8.040   7.406  11.192  0.3659 -1.2285  0.4997
  359MOL0     O48389   8.151   7.484  11.217  0.1349 -0.2721  0.0630
  359MOL0     C48390   8.205   7.488  11.357  0.3050 -0.3357  0.0584
  359MOL0     C48391   8.332   7.577  11.341  0.2968 -0.0483  0.9619
  359MOL0     C48392   8.295   7.722  11.322 -0.3071 -0.8052  0.2656
  359MOL0     C48393   8.420   7.821  11.309 -0.3807 -0.4782 -0.6429
  359MOL0     C48394   8.516   7.798  11.201 -0.9195 -0.8462 -0.3195
  359MOL0     C48395   8.611   7.763  11.132  0.3815  0.3855 -1.0780
  359MOL0     C48396   7.982   7.311  11.273 -0.4864 -0.3733 -0.9506
  359MOL0     C48397   7.876   7.234  11.217  0.0101 -0.6481  0.4317
  359MOL0     H48398   7.534   6.879  11.009  1.0774  0.4174  0.3149
  359MOL0     H48399   7.302   6.842  10.990  2.8028 -2.5861  1.0399
  359MOL0     H48400   7.110   6.760  11.057 -0.5479  0.5228 -0.9295
  359MOL0     H48401   7.136   6.796  11.236 -2.7489 -0.5253  1.5545
  359MOL0     H48402   6.929   6.875  11.262  1.6299  1.4252 -1.0419
  359MOL0     H48403   6.883   6.804  11.095 -1.5452 -2.6561  0.0640
  359MOL0     H48404   6.952   6.593  11.147  1.7384  0.9841 -0.4101
  359MOL0     H48405   7.012   6.633  11.304  1.9053  2.1573 -1.8466
  359MOL0     H48406   6.809   6.518  11.304 -0.4654  0.6919 -2.0439
  359MOL0     H48407   6.796   6.671  11.402  0.3828 -0.6964 -0.5287
  359MOL0     H48408   6.663   6.772  11.203  2.0469 -0.3945 -2.1237
  359MOL0     H48409   6.663   6.619  11.128 -1.4704  3.1410 -1.1973
  359MOL0     H48410   6.561   6.515  11.327 -0.1387  0.1802  2.4679
  359MOL0     H48411   6.586   6.657  11.410  0.5238 -1.5893 -0.3911
  359MOL0     H48412   6.438   6.788  11.237  2.2001  0.1347  1.7459
  359MOL0     H48413   6.394   6.625  11.179 -0.3912  0.3685  0.0859
  359MOL0     H48414   6.247   6.777  11.362  1.0918  0.6952 -0.6248
  359MOL0     H48415   6.357   6.693  11.466  2.6463  2.0897 -1.4228
  359MOL0     H48416   6.173   6.543  11.611 -0.7860  0.8110 -0.3754
  359MOL0     H48417   5.986   6.219  11.458  1.9979  1.7997 -0.8757
  359MOL0     H48418   6.089   6.250  11.588  1.7968 -2.0597 -3.5254
  359MOL0     H48419   5.925   6.460  11.627 -0.1983  1.5463 -0.8717
  359MOL0     H48420   5.880   6.300  11.678 -0.7097 -2.2288 -0.7645
  359MOL0     H48421   5.746   6.267  11.477  2.2398 -1.9974  2.8594
  359MOL0     H48422   5.779   6.431  11.427  2.0601  1.5083  0.8922
  359MOL0     H48423   5.567   6.417  11.548 -0.7593  2.3533  1.2165
  359MOL0     H48424   5.677   6.508  11.655  0.1944  0.9204 -1.6053
  359MOL0     H48425   5.551   6.111  11.839 -0.3457  0.0653 -1.0331
  359MOL0     H48426   5.266   5.988  11.964 -2.1793  3.0449 -0.3895
  359MOL0     H48427   5.449   5.991  12.015 -1.5884 -1.2488  1.4035
  359MOL0     H48428   5.316   6.055  12.107 -0.4637  1.4110  0.0327
  359MOL0     H48429   4.909   6.552  11.967  0.2071 -1.7218  0.3000
  359MOL0     H48430   4.705   6.627  12.085  0.3924  1.8013  2.1812
  359MOL0     H48431   4.485   6.478  12.249 -0.3424  0.7979  0.3984
  359MOL0     H48432   4.548   6.363  12.363  0.2754  0.4580 -0.7456
  359MOL0     H48433   4.481   6.491  12.550  0.3847  3.8037  1.3694
  359MOL0     H48434   4.471   6.639  12.479 -0.7787  0.1291 -0.5952
  359MOL0     H48435   4.281   6.419  12.365  2.0521  0.0925 -0.7301
  359MOL0     H48436   4.277   6.585  12.338 -2.5986 -0.9080  0.4872
  359MOL0     H48437   4.196   6.460  12.590  1.4268  2.3437  2.9525
  359MOL0     H48438   4.233   6.641  12.576  0.3034  0.6046  0.2895
  359MOL0     H48439   4.024   6.482  12.427 -0.0587 -0.0280 -0.0737
  359MOL0     H48440   4.057   6.643  12.389 -0.5688 -0.3246 -0.4332
  359MOL0     H48441   3.863   6.578  12.552 -0.9762  0.8214  4.0754
  359MOL0     H48442   3.983   6.538  12.670  2.3655  0.6827  0.7881
  359MOL0     H48443   4.001   6.790  12.527  2.4348 -1.9871  0.7621
  359MOL0     H48444   4.048   6.757  12.696  1.9222  1.4552 -1.1995
  359MOL0     H48445   3.853   6.906  12.697  0.7820 -0.4727  0.9428
  359MOL0     H48446   3.812   6.746  12.763 -2.9358 -2.4693 -1.8983
  359MOL0     H48447   4.809   6.381  12.414 -2.5479  0.6059 -1.4157
  359MOL0     H48448   5.017   6.301  12.287 -1.8794 -0.6482  1.4564
  359MOL0     H48449   5.237   6.492  11.855  1.8553  0.6837  0.4595
  359MOL0     H48450   5.421   6.510  11.729 -2.8102 -0.4914 -1.1871
  359MOL0     H48451   7.211   7.190  11.232  1.7611  1.5919 -0.3096
  359MOL0     H48452   7.452   7.242  11.235  3.1433 -1.4545 -0.0026
  359MOL0     H48453   7.829   7.397  10.920  0.3086  2.9590  0.6279
  359MOL0     H48454   8.037   7.500  10.992  1.9594 -1.6185  1.0025
  359MOL0     H48455   8.138   7.531  11.433  1.4054  0.6067  0.5401
  359MOL0     H48456   8.238   7.388  11.384  3.4916  0.5378 -0.1990
  359MOL0     H48457   8.381   7.544  11.249 -0.7143  1.2560 -0.0960
  359MOL0     H48458   8.396   7.557  11.428 -0.5239  2.7478  2.3324
  359MOL0     H48459   8.228   7.760  11.400 -1.3467 -1.5293 -0.2587
  359MOL0     H48460   8.243   7.726  11.226  2.3707 -1.7640 -1.3363
  359MOL0     H48461   8.481   7.827  11.400  0.2180 -1.5987 -0.9527
  359MOL0     H48462   8.395   7.928  11.310  2.1875  0.2191  1.7789
  359MOL0     H48463   8.682   7.738  11.057  0.9579  0.1065 -0.4437
  359MOL0     H48464   8.018   7.290  11.373 -1.0688 -1.3423 -0.9321
  359MOL0     H48465   7.825   7.160  11.279 -0.7832 -0.0616  0.4903
  360MOL0     O48466   5.580   9.834  10.233  0.4572 -0.2651 -0.5022
  360MOL0     C48467   5.688   9.793  10.255 -1.3311 -0.0092  0.6146
  360MOL0     O48468   5.730   9.669  10.299  0.7656  0.0751 -0.6336
  360MOL0     C48469   5.638   9.592  10.369 -0.0896 -0.8535 -0.0482
  360MOL0     C48470   5.648   9.459  10.359  0.5266  0.2001 -0.2225
  360MOL0     C48471   5.562   9.370  10.428  0.2735 -0.2203 -0.2071
  360MOL0     C48472   5.482   9.414  10.530  0.0979 -0.7443 -0.6918
  360MOL0     O48473   5.405   9.340  10.622  0.4337 -0.0660 -0.0307
  360MOL0     C48474   5.437   9.204  10.638  0.1460 -0.3860  0.8072
  360MOL0     C48475   5.337   9.134  10.724 -0.1906 -0.2531  0.0200
  360MOL0     C48476   5.384   8.993  10.749  0.8249  0.0136  0.7071
  360MOL0     C48477   5.275   8.899  10.804 -0.0038  0.3130  0.0337
  360MOL0     C48478   5.340   8.769  10.839  0.7970 -0.4308 -0.7017
  360MOL0     C48479   5.235   8.649  10.866  0.0461  0.1375  0.1064
  360MOL0     C48480   5.128   8.679  10.966  1.6267  0.1564  0.4086
  360MOL0     C48481   5.005   8.748  10.897  0.9456 -0.2999 -0.8872
  360MOL0     N48482   4.883   8.740  10.982 -0.5343  0.1335 -0.4772
  360MOL0     C48483   4.816   8.622  11.033 -0.4729  0.7019 -0.4658
  360MOL0     C48484   4.747   8.664  11.131  0.1732  0.1750  0.2944
  360MOL0     C48485   4.666   8.579  11.232 -0.3666 -0.7098 -0.7213
  360MOL0     C48486   4.577   8.459  11.176  0.6707 -0.8697 -0.2924
  360MOL0     C48487   4.515   8.373  11.296  0.4160 -0.1699  0.0871
  360MOL0     C48488   4.416   8.442  11.382 -0.3776  0.7526 -0.4027
  360MOL0     O48489   4.312   8.483  11.302  0.4437 -0.9720 -0.1816
  360MOL0     C48490   4.198   8.545  11.341 -0.7602  0.0663  0.2510
  360MOL0     C48491   4.111   8.580  11.244 -0.0908  0.7835  0.1965
  360MOL0     C48492   3.991   8.640  11.264 -0.3901 -0.6203 -1.1053
  360MOL0     C48493   3.914   8.682  11.144  0.1929 -0.3345  0.3613
  360MOL0     C48494   3.956   8.686  11.393 -0.2558  0.1242 -0.5893
  360MOL0     C48495   3.844   8.774  11.427  0.2237 -1.0586  0.1971
  360MOL0     O48496   3.866   8.851  11.535 -0.0812  0.3582  0.0636
  360MOL0     C48497   3.756   8.891  11.611 -0.3767  0.2034 -0.0981
  360MOL0     C48498   3.691   9.012  11.592 -0.1759  0.4041  0.5236
  360MOL0     C48499   3.561   9.030  11.639  0.4304  0.1188  0.1956
  360MOL0     C48500   3.503   8.938  11.723 -0.0346  0.0384  0.0320
  360MOL0     O48501   3.375   8.943  11.769 -0.6956  0.3407 -0.8607
  360MOL0     C48502   3.347   9.060  11.842 -0.6906 -0.2736 -0.2965
  360MOL0     C48503   3.190   9.078  11.842 -0.0378  0.0776  0.0229
  360MOL0     C48504   3.120   9.055  11.706  1.3143  0.2836 -0.6122
  360MOL0     C48505   2.976   9.015  11.708 -0.1021 -0.7076  0.1859
  360MOL0     C48506   2.911   9.037  11.571 -0.6463 -0.7084  0.7597
  360MOL0     C48507   2.762   9.002  11.568 -1.0139  0.0625 -0.2576
  360MOL0     C48508   2.714   8.998  11.426 -0.4419 -0.1805  0.1560
  360MOL0     C48509   2.576   8.935  11.392  0.5320 -0.5085 -0.0236
  360MOL0    Cl48510   2.535   8.950  11.215  0.0665  0.0691 -0.6357
  360MOL0     C48511   3.568   8.824  11.758  0.1409  0.2210  1.0358
  360MOL0     C48512   3.687   8.788  11.687  0.0741 -0.3685 -1.1900
  360MOL0     O48513   3.747   8.783  11.359 -0.1281  0.8396 -0.4256
  360MOL0     C48514   4.052   8.663  11.492  0.0857  0.4230  0.7800
  360MOL0     C48515   4.175   8.589  11.471 -0.2317  0.2895 -0.3158
  360MOL0     N48516   4.750   8.801  11.132 -0.9561 -1.1594  0.3594
  360MOL0     N48517   4.821   8.844  11.044 -0.4170  0.3348  0.1684
  360MOL0     C48518   5.471   9.558  10.553  0.4412  0.7536 -0.0603
  360MOL0     C48519   5.541   9.645  10.460 -0.1392  0.1311 -0.0871
  360MOL0     C48520   5.794   9.895  10.244  0.1118  0.9938  0.4016
  360MOL0     C48521   5.932   9.858  10.221 -0.1155 -0.9492 -0.7383
  360MOL0     C48522   6.026   9.955  10.191  0.4382  0.0397 -0.5389
  360MOL0     C48523   5.994  10.090  10.214 -1.0540 -0.4631  0.8280
  360MOL0     O48524   6.082  10.196  10.217  0.0138  0.9694  0.1603
  360MOL0     C48525   6.211  10.171  10.168 -0.3700  0.2246  0.0267
  360MOL0     C48526   6.230  10.149  10.017 -0.2260  0.5805  0.0004
  360MOL0     C48527   6.242  10.269   9.937 -0.6211 -0.7379  0.2745
  360MOL0     C48528   6.131  10.287   9.840 -0.5609  0.1904 -0.4873
  360MOL0     C48529   6.013  10.328   9.923 -0.3603  0.5745 -0.7130
  360MOL0     C48530   5.932  10.366  10.005 -0.2687  0.4404 -0.7071
  360MOL0     C48531   5.864  10.123  10.240 -0.3035 -0.2928  0.7070
  360MOL0     C48532   5.763  10.031  10.254  0.0229  0.0577 -0.8209
  360MOL0     H48533   5.714   9.432  10.277 -0.4768 -1.5218 -0.5217
  360MOL0     H48534   5.549   9.263  10.426 -0.7195 -0.2086  2.0627
  360MOL0     H48535   5.442   9.162  10.537  1.1434  0.3457  0.5287
  360MOL0     H48536   5.539   9.187  10.672 -0.3897 -3.1487  1.1941
  360MOL0     H48537   5.322   9.189  10.817  0.8023  1.7619 -0.9646
  360MOL0     H48538   5.241   9.136  10.671 -0.4696  0.7739  0.5459
  360MOL0     H48539   5.422   8.952  10.654  0.5328  0.0827  0.5589
  360MOL0     H48540   5.463   8.988  10.824  1.7022 -1.0333 -0.2435
  360MOL0     H48541   5.233   8.936  10.898  1.1938  2.6203 -0.2857
  360MOL0     H48542   5.201   8.881  10.725  0.5302  0.4838 -0.5173
  360MOL0     H48543   5.412   8.744  10.760  0.6026  1.4135 -1.5331
  360MOL0     H48544   5.405   8.788  10.924 -1.0198  3.1407  0.1036
  360MOL0     H48545   5.193   8.620  10.770 -1.1522 -0.4896  0.7900
  360MOL0     H48546   5.296   8.571  10.912  3.1270  1.9429 -0.6257
  360MOL0     H48547   5.102   8.586  11.017  0.5193 -1.0349 -2.1360
  360MOL0     H48548   5.172   8.743  11.043  1.7201  3.4976 -2.1478
  360MOL0     H48549   4.973   8.695  10.807  0.1393 -3.2071  0.9918
  360MOL0     H48550   5.029   8.854  10.881  0.2405 -0.1562 -1.0090
  360MOL0     H48551   4.834   8.519  11.003  2.1501  1.1955 -0.8068
  360MOL0     H48552   4.727   8.541  11.315 -1.3320  0.7245  0.7137
  360MOL0     H48553   4.598   8.648  11.284  1.9806  0.7618  0.5991
  360MOL0     H48554   4.638   8.388  11.119  1.2617  1.6062 -2.9416
  360MOL0     H48555   4.501   8.497  11.108 -1.9540 -4.7315  0.1278
  360MOL0     H48556   4.610   8.341  11.340  0.8975 -0.0408 -0.8365
  360MOL0     H48557   4.473   8.278  11.260 -2.9043  0.7225  1.2055
  360MOL0     H48558   4.470   8.518  11.439 -0.6259  2.2543 -2.1077
  360MOL0     H48559   4.384   8.378  11.465 -0.2240 -0.5324 -1.3028
  360MOL0     H48560   4.128   8.550  11.141  0.7448 -3.1541  1.3143
  360MOL0     H48561   3.806   8.681  11.162  0.0855  2.0113  0.0814
  360MOL0     H48562   3.934   8.785  11.117  0.5848 -0.0697  1.5888
  360MOL0     H48563   3.937   8.616  11.060  1.6928  0.1640  0.3520
  360MOL0     H48564   3.744   9.090  11.538 -0.1810  1.6439  2.2470
  360MOL0     H48565   3.502   9.118  11.614  1.1343  0.3990 -0.5312
  360MOL0     H48566   3.383   9.047  11.944 -0.0179 -1.1952 -0.6382
  360MOL0     H48567   3.395   9.152  11.806  1.9641 -2.1397 -1.8165
  360MOL0     H48568   3.149   9.016  11.922  1.1833  1.8987  2.1847
  360MOL0     H48569   3.172   9.181  11.875 -0.0796  0.8938 -2.3625
  360MOL0     H48570   3.179   8.982  11.650  0.7465 -1.3047  0.7604
  360MOL0     H48571   3.129   9.150  11.653  0.7578  1.3019  1.0455
  360MOL0     H48572   2.953   8.914  11.742 -0.6679 -0.7182 -0.2104
  360MOL0     H48573   2.932   9.087  11.777 -2.6432 -0.4617 -1.5765
  360MOL0     H48574   2.969   8.977  11.500 -0.3052  0.6751 -0.1637
  360MOL0     H48575   2.920   9.144  11.550  1.9601 -0.5317  2.2490
  360MOL0     H48576   2.727   8.910  11.614 -0.5835  0.8546  1.7303
  360MOL0     H48577   2.713   9.088  11.615  0.5911  1.1577 -0.4846
  360MOL0     H48578   2.791   8.946  11.368 -2.3728 -0.3883 -2.3968
  360MOL0     H48579   2.704   9.099  11.387  0.8669  0.1522  0.6470
  360MOL0     H48580   2.497   8.994  11.440  0.1721  0.6098 -1.8891
  360MOL0     H48581   2.567   8.832  11.428  1.1784 -1.5795 -2.6586
  360MOL0     H48582   3.532   8.750  11.829 -1.2345 -0.7640 -0.6159
  360MOL0     H48583   3.743   8.696  11.700  0.9885  0.3383  0.1282
  360MOL0     H48584   4.037   8.696  11.594 -4.5628  0.1065  0.4152
  360MOL0     H48585   4.237   8.607  11.558 -1.1670  2.5078 -0.0281
  360MOL0     H48586   5.409   9.611  10.625 -2.5137 -2.3599 -0.0630
  360MOL0     H48587   5.519   9.752  10.460 -1.7822 -0.1089 -2.9187
  360MOL0     H48588   5.972   9.757  10.217 -1.1822 -1.4215  0.0286
  360MOL0     H48589   6.126   9.927  10.162  0.1975  0.5366 -1.9643
  360MOL0     H48590   6.279  10.252  10.199  0.1079 -0.5805  1.1204
  360MOL0     H48591   6.250  10.081  10.217  0.7305  0.6841  0.0360
  360MOL0     H48592   6.143  10.092   9.981  1.3476 -0.9518 -1.5341
  360MOL0     H48593   6.316  10.086   9.996 -2.6181 -2.6596 -0.8308
  360MOL0     H48594   6.342  10.262   9.892 -0.4285 -2.3787  0.9059
  360MOL0     H48595   6.244  10.365   9.991 -2.9415  2.2457 -4.2735
  360MOL0     H48596   6.109  10.202   9.774 -1.9174 -0.0227  0.2222
  360MOL0     H48597   6.149  10.373   9.775 -0.2459  0.2093 -0.3785
  360MOL0     H48598   5.865  10.388  10.085  1.8531 -3.8013  2.6326
  360MOL0     H48599   5.840  10.229  10.240  0.5551 -0.0837 -0.6112
  360MOL0     H48600   5.659  10.062  10.259 -0.2407 -1.0029  1.4936
  361MOL0     O48601   9.321   0.588   6.003 -0.4665 -0.0930  0.2940
  361MOL0     C48602   9.322   0.598   5.880 -0.5258  0.1203 -0.4152
  361MOL0     O48603   9.251   0.683   5.806  0.3113 -0.0671 -0.3690
  361MOL0     C48604   9.150   0.759   5.860 -1.0070 -0.4213  0.6297
  361MOL0     C48605   9.015   0.747   5.820 -1.0648 -0.3043 -0.4070
  361MOL0     C48606   8.915   0.810   5.892  0.2707 -0.7225  0.0090
  361MOL0     C48607   8.951   0.895   6.005  0.6479 -0.5833  0.8336
  361MOL0     O48608   8.861   0.961   6.083  0.7328  0.4133  0.4920
  361MOL0     C48609   8.723   0.937   6.070  0.6830 -0.7831 -0.0101
  361MOL0     C48610   8.661   1.042   6.168 -0.5155  0.9060 -0.5383
  361MOL0     C48611   8.503   1.052   6.147 -0.2597  0.3547 -0.6250
  361MOL0     C48612   8.433   1.167   6.217  0.8885 -0.0629 -1.1569
  361MOL0     C48613   8.280   1.187   6.177 -0.5683  0.6932 -1.1676
  361MOL0     C48614   8.264   1.221   6.028  0.1682  0.5080  0.8824
  361MOL0     C48615   8.124   1.220   5.986 -0.1965 -0.1291  0.0477
  361MOL0     C48616   8.100   1.321   5.882 -0.3257  0.1386  0.3543
  361MOL0     N48617   7.967   1.305   5.817 -0.2690 -0.7745 -0.0471
  361MOL0     C48618   7.928   1.197   5.741  0.9518 -0.0793 -0.7484
  361MOL0     C48619   7.797   1.224   5.715  0.0104 -0.0480 -0.2745
  361MOL0     C48620   7.686   1.155   5.641  1.2615  0.2209  0.1927
  361MOL0     C48621   7.663   1.185   5.497  0.1953 -0.0694  0.3216
  361MOL0     C48622   7.589   1.318   5.473  0.2468 -0.5221  0.7647
  361MOL0     C48623   7.451   1.290   5.418  0.3390  0.6125  0.5643
  361MOL0     O48624   7.379   1.420   5.394  0.6305  0.0736  0.8586
  361MOL0     C48625   7.260   1.426   5.328 -0.3837 -0.0142  0.2028
  361MOL0     C48626   7.206   1.317   5.265  0.3771  0.5015  0.6211
  361MOL0     C48627   7.098   1.327   5.187 -0.3956 -0.1572  0.1383
  361MOL0     C48628   7.060   1.200   5.108 -0.4666  0.4638 -0.0268
  361MOL0     C48629   7.028   1.450   5.170  0.2650  0.7033  0.2405
  361MOL0     C48630   6.913   1.475   5.072 -0.1325 -0.0330  0.2868
  361MOL0     O48631   6.831   1.576   5.096  0.0826 -0.1444 -1.0297
  361MOL0     C48632   6.732   1.613   5.004  0.6158  0.1561 -0.8367
  361MOL0     C48633   6.607   1.651   5.044  0.9089 -0.7021  0.2130
  361MOL0     C48634   6.513   1.711   4.958 -1.2492  0.2824  0.5977
  361MOL0     C48635   6.539   1.733   4.817  0.1994  1.5203 -0.0539
  361MOL0     O48636   6.451   1.798   4.747  0.1132 -0.1817  0.7464
  361MOL0     C48637   6.509   1.870   4.631 -0.9586  0.7229  0.0852
  361MOL0     C48638   6.396   1.943   4.563  0.3277 -0.2542 -0.6288
  361MOL0     C48639   6.280   1.847   4.534  0.2388 -0.4033  0.9739
  361MOL0     C48640   6.170   1.919   4.442 -0.3532  0.0925  0.2518
  361MOL0     C48641   6.097   1.812   4.356 -0.4512  0.6938 -0.3530
  361MOL0     C48642   6.011   1.863   4.235  0.7184 -0.0659 -1.0395
  361MOL0     C48643   6.090   1.943   4.132  0.8786  0.6614 -0.8322
  361MOL0     C48644   6.189   1.868   4.039  0.0427 -0.3615 -0.2373
  361MOL0    Cl48645   6.335   1.841   4.126  0.4418 -0.1506 -0.1631
  361MOL0     C48646   6.670   1.687   4.773  0.5458 -0.4234 -1.4926
  361MOL0     C48647   6.760   1.633   4.866  0.1358  0.3873  0.0857
  361MOL0     O48648   6.912   1.396   4.974 -0.0573 -0.2483 -0.8607
  361MOL0     C48649   7.085   1.562   5.243 -0.2744 -0.2371  0.7172
  361MOL0     C48650   7.201   1.553   5.326 -0.2612 -0.1306  0.1647
  361MOL0     N48651   7.762   1.346   5.773 -0.5948  0.4060 -0.6975
  361MOL0     N48652   7.863   1.397   5.836 -0.7579  0.6110  0.3695
  361MOL0     C48653   9.085   0.911   6.042  0.0935  0.7521  0.1054
  361MOL0     C48654   9.189   0.840   5.964 -0.0934 -0.6108 -0.6532
  361MOL0     C48655   9.420   0.523   5.803  0.4638  0.0320  0.7987
  361MOL0     C48656   9.489   0.415   5.859  0.9317  0.2872  0.6226
  361MOL0     C48657   9.570   0.337   5.780  0.7876 -0.1587 -0.6598
  361MOL0     C48658   9.591   0.374   5.644  0.0101 -0.3540  0.3144
  361MOL0     O48659   9.656   0.298   5.549  0.1076 -0.4183  1.2833
  361MOL0     C48660   9.710   0.169   5.591  0.0673 -0.4586  0.4812
  361MOL0     C48661   9.797   0.119   5.467 -0.0307  0.0314 -0.4162
  361MOL0     C48662   9.922   0.048   5.512  0.1643 -0.3512  0.4848
  361MOL0     C48663  10.002  -0.009   5.398  0.0294  0.1486  0.7869
  361MOL0     C48664  10.091  -0.123   5.451 -0.1568  0.3483 -0.3130
  361MOL0     C48665  10.160  -0.203   5.510 -0.9228  0.2909  0.0139
  361MOL0     C48666   9.536   0.487   5.594  0.4599 -0.3695  0.3398
  361MOL0     C48667   9.447   0.560   5.666  0.3650  0.9566  0.1001
  361MOL0     H48668   8.983   0.676   5.744  0.9579 -1.3915 -0.3077
  361MOL0     H48669   8.810   0.794   5.871 -0.2754  0.7048  1.4174
  361MOL0     H48670   8.687   0.953   5.968 -1.6393 -3.2896  0.3003
  361MOL0     H48671   8.701   0.834   6.101 -0.8382 -0.6046 -0.4276
  361MOL0     H48672   8.683   1.002   6.268 -1.8499  0.3948 -0.4200
  361MOL0     H48673   8.710   1.139   6.155 -0.3950  0.9227  0.0175
  361MOL0     H48674   8.491   1.055   6.038  0.9526 -0.9251 -0.8271
  361MOL0     H48675   8.448   0.962   6.173  1.1517 -0.3145  0.1376
  361MOL0     H48676   8.435   1.149   6.325  0.3178  1.0135 -0.9492
  361MOL0     H48677   8.476   1.265   6.193 -4.2131  1.9174 -3.6012
  361MOL0     H48678   8.223   1.095   6.191 -0.5832  1.0123  1.1813
  361MOL0     H48679   8.227   1.268   6.227 -0.1030  0.2731  0.0366
  361MOL0     H48680   8.306   1.322   6.026 -1.7699  1.3504 -0.4225
  361MOL0     H48681   8.323   1.152   5.967  0.2638  1.4858 -0.1655
  361MOL0     H48682   8.098   1.126   5.938 -2.5563  1.2422 -1.5947
  361MOL0     H48683   8.047   1.235   6.061  1.0482  0.2505  1.2941
  361MOL0     H48684   8.174   1.308   5.802  1.0491  0.0299  1.6065
  361MOL0     H48685   8.120   1.419   5.926  2.3040  0.6636 -1.6987
  361MOL0     H48686   7.974   1.102   5.713  1.2613  0.0748 -0.7659
  361MOL0     H48687   7.698   1.046   5.647 -1.4952 -0.2127 -0.6194
  361MOL0     H48688   7.590   1.182   5.686 -0.3804 -1.9066 -1.7936
  361MOL0     H48689   7.615   1.103   5.443  1.8817 -0.3131 -0.8980
  361MOL0     H48690   7.766   1.180   5.460  0.1308 -1.4571  0.2918
  361MOL0     H48691   7.642   1.385   5.405  0.6675  1.0281  2.5246
  361MOL0     H48692   7.569   1.379   5.562 -3.4490  0.2093 -0.3962
  361MOL0     H48693   7.393   1.224   5.484 -1.6271  2.6841  1.0187
  361MOL0     H48694   7.456   1.240   5.321  4.7383  2.9535 -0.6948
  361MOL0     H48695   7.263   1.225   5.262 -1.4175 -0.6831 -2.6131
  361MOL0     H48696   6.956   1.168   5.124  0.4440 -1.7572  2.0603
  361MOL0     H48697   7.080   1.215   5.002 -2.3991 -0.7717 -0.6303
  361MOL0     H48698   7.125   1.115   5.130 -1.5316 -1.3147 -3.1754
  361MOL0     H48699   6.591   1.629   5.149 -0.3329 -0.8784  0.0092
  361MOL0     H48700   6.416   1.743   4.995 -1.7423 -4.0165  3.8020
  361MOL0     H48701   6.587   1.940   4.662  0.9147 -1.0058 -0.5449
  361MOL0     H48702   6.537   1.791   4.562 -2.3521 -2.5010  2.9097
  361MOL0     H48703   6.359   2.023   4.627  1.5318  0.3511 -0.6525
  361MOL0     H48704   6.418   1.985   4.465 -1.4299 -0.1212 -0.9792
  361MOL0     H48705   6.236   1.810   4.627  0.0300  1.8919  1.8636
  361MOL0     H48706   6.327   1.764   4.481  0.5290  0.0323  0.5385
  361MOL0     H48707   6.089   1.963   4.502  0.2096  0.1903  0.9529
  361MOL0     H48708   6.222   1.994   4.382  1.3398  0.1723  1.7254
  361MOL0     H48709   6.035   1.749   4.421 -0.8932  0.7321 -0.7250
  361MOL0     H48710   6.168   1.744   4.308  0.3750  0.8323  0.6344
  361MOL0     H48711   5.963   1.779   4.183  0.0064  1.0405 -2.2620
  361MOL0     H48712   5.920   1.922   4.254 -1.2396 -1.1204 -5.6920
  361MOL0     H48713   6.149   2.015   4.190 -0.0177  1.1818 -0.5575
  361MOL0     H48714   6.014   1.995   4.073 -1.6352 -1.6435  0.1658
  361MOL0     H48715   6.204   1.934   3.952 -0.4503 -0.7439 -0.6189
  361MOL0     H48716   6.146   1.772   4.011 -0.9568  0.0718 -0.2511
  361MOL0     H48717   6.691   1.708   4.668  0.2342 -0.1592 -1.5031
  361MOL0     H48718   6.849   1.597   4.816  0.2429  1.5926 -0.6289
  361MOL0     H48719   7.025   1.651   5.228 -3.5085 -2.7238 -2.6572
  361MOL0     H48720   7.229   1.641   5.384 -2.2947  0.5472  0.1874
  361MOL0     H48721   9.106   0.970   6.131  1.4538 -0.3810  0.5637
  361MOL0     H48722   9.297   0.846   5.978 -0.1252  0.9636 -0.8423
  361MOL0     H48723   9.469   0.382   5.961 -2.4267 -0.0764 -0.0222
  361MOL0     H48724   9.618   0.248   5.819 -0.4015 -0.3444  0.4391
  361MOL0     H48725   9.769   0.180   5.682  1.5204  8.0061 -0.7036
  361MOL0     H48726   9.623   0.104   5.607 -0.1922  0.0164  1.0463
  361MOL0     H48727   9.831   0.203   5.407  1.9946  0.9355  1.8320
  361MOL0     H48728   9.739   0.044   5.412  1.1384 -1.8446  0.7515
  361MOL0     H48729   9.899  -0.033   5.582  3.9462  0.8434  3.4679
  361MOL0     H48730   9.983   0.121   5.565  1.4411 -2.2788  1.8243
  361MOL0     H48731  10.066   0.063   5.346  0.9019 -0.8859  0.4090
  361MOL0     H48732   9.928  -0.053   5.331  1.0062  0.9964 -0.8982
  361MOL0     H48733  10.217  -0.264   5.579 -0.1216 -1.3831 -2.0000
  361MOL0     H48734   9.561   0.507   5.491  0.7613 -0.2838  0.4273
  361MOL0     H48735   9.381   0.632   5.619 -0.4259  0.1954  0.0204
  362MOL0     O48736   7.113   0.659   4.194 -0.0970 -0.3385 -0.1768
  362MOL0     C48737   7.131   0.728   4.297 -0.5246  0.2591 -0.0916
  362MOL0     O48738   7.063   0.842   4.327 -0.5333 -0.3027 -0.5362
  362MOL0     C48739   6.932   0.851   4.278  0.8331 -0.1885  0.2581
  362MOL0     C48740   6.845   0.746   4.231  0.0522 -0.2813 -0.0556
  362MOL0     C48741   6.721   0.766   4.177  0.1011  0.4145  1.0221
  362MOL0     C48742   6.672   0.900   4.164  0.1329  0.5010 -0.1522
  362MOL0     O48743   6.545   0.918   4.111 -1.4562  0.0377  0.1515
  362MOL0     C48744   6.563   0.981   3.989 -0.4786  0.1444  0.0656
  362MOL0     C48745   6.457   1.093   3.959  0.3381 -0.0096 -0.1263
  362MOL0     C48746   6.461   1.204   4.064  0.7149  0.2683  0.0076
  362MOL0     C48747   6.576   1.300   4.043  0.0170  0.3105  0.3012
  362MOL0     C48748   6.558   1.436   4.124  0.0083 -0.3035  0.1226
  362MOL0     C48749   6.675   1.524   4.121 -0.7623 -1.7295 -1.1919
  362MOL0     C48750   6.647   1.659   4.171  0.2152  0.0133 -0.0359
  362MOL0     C48751   6.770   1.751   4.148 -0.3371 -0.2618 -0.1847
  362MOL0     N48752   6.735   1.880   4.206 -0.1353  0.2192 -0.3330
  362MOL0     C48753   6.661   1.978   4.153  0.2197 -0.6892  0.5478
  362MOL0     C48754   6.672   2.069   4.244 -0.0781 -1.0302 -0.7341
  362MOL0     C48755   6.627   2.209   4.219  0.4290  0.1405  0.5629
  362MOL0     C48756   6.515   2.268   4.301  0.1498  0.6424  0.2828
  362MOL0     C48757   6.372   2.228   4.242  0.0641  0.0573  1.2810
  362MOL0     C48758   6.256   2.272   4.332  0.0621 -0.1956 -0.1627
  362MOL0     O48759   6.129   2.213   4.290  1.4136  0.1619  0.0539
  362MOL0     C48760   6.007   2.247   4.344  0.0804  0.6645 -0.0636
  362MOL0     C48761   5.994   2.318   4.467  0.2576  0.2386  0.7137
  362MOL0     C48762   5.863   2.341   4.508 -0.6389 -0.6191 -1.6246
  362MOL0     C48763   5.847   2.418   4.638  0.0896 -0.0508 -0.6135
  362MOL0     C48764   5.745   2.300   4.434  0.2339 -0.6423 -0.0533
  362MOL0     C48765   5.603   2.322   4.475 -0.9405  0.1702  0.7401
  362MOL0     O48766   5.579   2.351   4.607  0.1142 -0.0391 -0.1828
  362MOL0     C48767   5.451   2.355   4.657  0.2779 -0.2289  0.7672
  362MOL0     C48768   5.423   2.468   4.738 -0.7888  0.0740  0.0808
  362MOL0     C48769   5.284   2.486   4.769 -0.5028  0.1402  0.1254
  362MOL0     C48770   5.189   2.395   4.740  0.5695 -0.9999 -0.0928
  362MOL0     O48771   5.064   2.427   4.791 -0.8425 -0.0270  0.1726
  362MOL0     C48772   4.996   2.326   4.864 -0.3395 -0.1893  1.0706
  362MOL0     C48773   4.845   2.336   4.833  0.3442  0.0168  0.4023
  362MOL0     C48774   4.773   2.213   4.865 -0.5056  0.6848  0.4135
  362MOL0     C48775   4.625   2.213   4.811  0.6285 -0.6280  0.1130
  362MOL0     C48776   4.549   2.344   4.860 -0.1193 -0.5365  0.4956
  362MOL0     C48777   4.394   2.333   4.860 -0.4926 -0.7327 -0.0099
  362MOL0     C48778   4.340   2.270   4.986  0.6891  0.3037 -0.2564
  362MOL0     C48779   4.186   2.285   5.017 -0.1198  0.3722 -0.5938
  362MOL0    Cl48780   4.156   2.456   5.053 -0.5258 -0.1774 -0.2183
  362MOL0     C48781   5.226   2.283   4.667 -0.1844  1.1996  0.1221
  362MOL0     C48782   5.353   2.266   4.622 -0.4344 -0.8014  0.8118
  362MOL0     O48783   5.512   2.330   4.390  0.4128 -0.1430  0.4661
  362MOL0     C48784   5.764   2.239   4.314 -0.6215 -0.3337  0.3547
  362MOL0     C48785   5.897   2.216   4.266  0.4514  0.0389 -0.0446
  362MOL0     N48786   6.737   2.023   4.366 -0.1654  0.4748  0.4564
  362MOL0     N48787   6.773   1.903   4.338  0.5584  0.6186 -0.0268
  362MOL0     C48788   6.746   1.001   4.222  1.1402 -0.3250 -0.8771
  362MOL0     C48789   6.875   0.983   4.273 -0.6964  1.0481  0.1169
  362MOL0     C48790   7.243   0.692   4.380  0.2866  0.0202  0.6567
  362MOL0     C48791   7.332   0.588   4.334  1.0163  1.0862  0.4128
  362MOL0     C48792   7.443   0.555   4.419  0.1201  0.2531  0.2931
  362MOL0     C48793   7.473   0.617   4.535  0.0113 -0.3599 -0.2653
  362MOL0     O48794   7.585   0.578   4.605 -0.5412  0.0116 -0.1773
  362MOL0     C48795   7.634   0.661   4.714  0.1324  0.1864  0.9749
  362MOL0     C48796   7.729   0.580   4.801 -0.3945  0.6792  0.5569
  362MOL0     C48797   7.876   0.574   4.749 -0.5238 -0.8162 -0.0099
  362MOL0     C48798   7.884   0.507   4.611 -0.2801 -1.0107 -0.8356
  362MOL0     C48799   7.856   0.367   4.622  0.4469 -0.0519  0.1946
  362MOL0     C48800   7.856   0.243   4.626  0.6019 -0.7415  0.9199
  362MOL0     C48801   7.380   0.717   4.578  0.8190  0.2875 -0.7193
  362MOL0     C48802   7.270   0.754   4.498  0.4010  0.3557 -0.9513
  362MOL0     H48803   6.883   0.645   4.217 -1.5236 -0.8719 -0.1640
  362MOL0     H48804   6.664   0.681   4.141 -0.6901  0.4992  2.0487
  362MOL0     H48805   6.662   1.015   3.957  0.4369 -1.6093  0.9178
  362MOL0     H48806   6.535   0.906   3.914  1.8459  0.2338 -0.9771
  362MOL0     H48807   6.476   1.141   3.863 -2.4158  0.8496 -0.3160
  362MOL0     H48808   6.357   1.049   3.952 -0.5662  1.5373  1.9674
  362MOL0     H48809   6.368   1.261   4.062  0.5744  0.1945  2.1817
  362MOL0     H48810   6.474   1.152   4.159  3.1379 -2.4399 -1.6278
  362MOL0     H48811   6.660   1.242   4.085 -1.8154 -0.8982  2.5501
  362MOL0     H48812   6.588   1.326   3.938 -1.0773 -1.7211 -0.3623
  362MOL0     H48813   6.475   1.488   4.075  2.1495  1.8417 -1.4739
  362MOL0     H48814   6.536   1.410   4.228  0.9883 -1.3759  0.0770
  362MOL0     H48815   6.758   1.479   4.177 -1.0329 -1.2236 -0.3732
  362MOL0     H48816   6.707   1.538   4.017  1.8569 -3.6972 -0.7585
  362MOL0     H48817   6.561   1.702   4.120 -2.5686 -0.8222  3.5222
  362MOL0     H48818   6.623   1.657   4.278 -1.4815 -1.6758 -0.4059
  362MOL0     H48819   6.800   1.750   4.043  4.4568 -0.9054  0.9524
  362MOL0     H48820   6.846   1.698   4.206 -0.6899  0.6536  1.1546
  362MOL0     H48821   6.608   1.989   4.059 -4.2941 -3.2665  2.4527
  362MOL0     H48822   6.713   2.274   4.241 -0.6419  1.3701  1.3018
  362MOL0     H48823   6.599   2.211   4.113 -1.1283  0.9603  0.9598
  362MOL0     H48824   6.520   2.376   4.314  0.3323  0.8495 -1.4150
  362MOL0     H48825   6.520   2.215   4.397 -4.0549 -0.4849  0.0862
  362MOL0     H48826   6.375   2.118   4.238  2.6036  0.0884  0.6651
  362MOL0     H48827   6.360   2.268   4.141  1.4671 -0.6038  0.8280
  362MOL0     H48828   6.246   2.381   4.338  0.3974 -0.2336  2.0016
  362MOL0     H48829   6.259   2.238   4.436 -1.5647 -1.0612 -0.3493
  362MOL0     H48830   6.072   2.348   4.536 -0.2210  0.9535  0.9546
  362MOL0     H48831   5.939   2.451   4.688 -1.3582 -1.2377  3.1385
  362MOL0     H48832   5.798   2.513   4.614 -2.2188 -0.3356  2.3333
  362MOL0     H48833   5.791   2.357   4.709 -2.2120  0.8023 -1.6034
  362MOL0     H48834   5.493   2.550   4.750  1.4705 -1.6094 -0.8867
  362MOL0     H48835   5.241   2.574   4.816 -1.3368  1.0834 -2.2916
  362MOL0     H48836   5.027   2.223   4.844 -0.8103 -0.8965  3.6314
  362MOL0     H48837   5.022   2.346   4.968  0.8819 -0.7628  0.8943
  362MOL0     H48838   4.821   2.434   4.875  2.1829  1.6286 -1.9614
  362MOL0     H48839   4.826   2.348   4.726 -0.8908 -2.7457  0.2388
  362MOL0     H48840   4.770   2.196   4.973  1.4271 -1.3010  0.2290
  362MOL0     H48841   4.826   2.127   4.823 -0.5636 -1.1307  3.7312
  362MOL0     H48842   4.617   2.215   4.702 -0.7874 -1.6635  0.1706
  362MOL0     H48843   4.573   2.122   4.841  0.4659 -1.5191 -2.6282
  362MOL0     H48844   4.571   2.433   4.802  2.7688 -0.7344  1.1673
  362MOL0     H48845   4.579   2.355   4.964 -0.3392  1.2171  0.3945
  362MOL0     H48846   4.351   2.434   4.854 -2.6954 -1.6343 -0.4695
  362MOL0     H48847   4.349   2.276   4.779  1.1986 -1.0870 -0.7345
  362MOL0     H48848   4.388   2.328   5.065 -0.4297 -0.3336  0.9478
  362MOL0     H48849   4.379   2.168   4.990  0.2612  0.0728 -1.4964
  362MOL0     H48850   4.156   2.221   5.100  1.9201 -0.9403 -0.7965
  362MOL0     H48851   4.125   2.251   4.933  0.4045  0.1831 -0.9027
  362MOL0     H48852   5.146   2.212   4.652 -1.6556  2.6159  0.9972
  362MOL0     H48853   5.377   2.181   4.558  3.4095  0.6318  0.1428
  362MOL0     H48854   5.675   2.210   4.259 -0.8941 -0.9326  1.1028
  362MOL0     H48855   5.921   2.171   4.170 -1.1173 -1.8744  0.3868
  362MOL0     H48856   6.697   1.098   4.223 -0.1522 -0.9018  1.5254
  362MOL0     H48857   6.931   1.069   4.309  0.5648  0.2157  0.1976
  362MOL0     H48858   7.314   0.540   4.239 -2.2566  0.4165  1.2502
  362MOL0     H48859   7.509   0.476   4.384 -1.8768 -1.6434  0.5539
  362MOL0     H48860   7.695   0.738   4.665  0.1084 -0.9081 -0.8946
  362MOL0     H48861   7.550   0.700   4.771 -3.1617 -1.5050 -2.2693
  362MOL0     H48862   7.696   0.476   4.813  1.8494 -0.6030 -2.7545
  362MOL0     H48863   7.732   0.607   4.906  1.4557 -1.4183  1.1284
  362MOL0     H48864   7.942   0.524   4.820  0.6535 -2.1479 -1.9455
  362MOL0     H48865   7.906   0.677   4.729 -3.0294 -0.3974 -2.3160
  362MOL0     H48866   7.987   0.515   4.574  0.6774 -1.6552  1.5089
  362MOL0     H48867   7.820   0.549   4.533 -1.4563 -2.1913 -0.5406
  362MOL0     H48868   7.854   0.135   4.627 -2.0185 -0.7567  1.0251
  362MOL0     H48869   7.390   0.760   4.676  2.2406  1.8879 -1.5101
  362MOL0     H48870   7.204   0.834   4.529  2.2830  1.0484  1.5610
  363MOL0     O48871  11.074   1.360   2.162  0.6970 -1.0340  0.0409
  363MOL0     C48872  11.168   1.300   2.214  0.4739  1.0429 -0.8280
  363MOL0     O48873  11.158   1.192   2.295 -0.1684 -0.0667  0.2576
  363MOL0     C48874  11.039   1.175   2.359  0.1397  0.0853 -0.3231
  363MOL0     C48875  10.920   1.158   2.291 -0.4008 -0.1339 -0.5683
  363MOL0     C48876  10.793   1.136   2.365 -0.1045  0.2214  0.5503
  363MOL0     C48877  10.796   1.138   2.505 -0.1850 -0.5568  0.2063
  363MOL0     O48878  10.688   1.117   2.583 -0.1205 -0.5944 -0.5782
  363MOL0     C48879  10.574   1.043   2.529  0.2394 -0.3936 -0.3258
  363MOL0     C48880  10.478   1.014   2.644 -0.1502 -0.0925  0.4631
  363MOL0     C48881  10.340   0.957   2.600 -0.1262 -1.0574 -0.6645
  363MOL0     C48882  10.239   1.061   2.537  0.4721  0.1069 -0.0379
  363MOL0     C48883  10.104   0.996   2.513 -0.5662  1.0410 -1.1610
  363MOL0     C48884   9.995   1.096   2.467  0.3689  0.0543  0.1317
  363MOL0     C48885   9.864   1.024   2.442  0.8658 -0.2105 -0.7907
  363MOL0     C48886   9.798   1.005   2.579  0.3576  0.1228  0.5062
  363MOL0     N48887   9.668   0.939   2.569  0.3717  0.5406 -0.7354
  363MOL0     C48888   9.572   0.948   2.676 -0.0139 -0.1086 -0.4714
  363MOL0     C48889   9.475   0.867   2.633 -0.2003 -0.2256 -0.0153
  363MOL0     C48890   9.348   0.848   2.714 -0.5755  0.3571  0.3944
  363MOL0     C48891   9.369   0.789   2.850 -0.4059 -0.2233 -0.3818
  363MOL0     C48892   9.243   0.807   2.925  0.5784  0.5708 -0.4969
  363MOL0     C48893   9.216   0.741   3.058 -0.4395  0.8781  0.9732
  363MOL0     O48894   9.099   0.783   3.129  0.7181 -0.2024 -0.0374
  363MOL0     C48895   8.983   0.726   3.083  0.5651  0.5447 -0.1441
  363MOL0     C48896   8.869   0.787   3.128  0.5445 -0.5867  0.9683
  363MOL0     C48897   8.743   0.728   3.120 -0.3880 -0.4308 -0.2415
  363MOL0     C48898   8.640   0.801   3.191 -0.4586  0.5653  0.2314
  363MOL0     C48899   8.728   0.614   3.046  0.8996  0.5601 -0.2621
  363MOL0     C48900   8.595   0.547   3.036 -0.6150 -0.3409  1.0510
  363MOL0     O48901   8.481   0.617   3.040 -1.3481 -0.8087 -0.1382
  363MOL0     C48902   8.358   0.577   2.995  0.2088  0.3788 -0.1168
  363MOL0     C48903   8.333   0.520   2.867 -0.6140 -0.2811  0.0016
  363MOL0     C48904   8.211   0.481   2.819 -0.3047 -0.2152 -0.2451
  363MOL0     C48905   8.101   0.490   2.904  0.8270 -0.1913  0.4843
  363MOL0     O48906   7.980   0.452   2.848  0.1590  0.0927  0.4412
  363MOL0     C48907   7.865   0.425   2.932 -0.7885  0.5928 -0.5571
  363MOL0     C48908   7.738   0.428   2.837  0.3847 -0.3979  0.4976
  363MOL0     C48909   7.698   0.572   2.808  0.1312 -0.4430 -0.8363
  363MOL0     C48910   7.575   0.558   2.723  0.5426 -0.4744 -0.5522
  363MOL0     C48911   7.498   0.694   2.728 -0.3300  0.2583 -1.0289
  363MOL0     C48912   7.473   0.756   2.870 -0.4442  0.1855 -0.6010
  363MOL0     C48913   7.417   0.671   2.986  0.8492  1.0626 -0.2656
  363MOL0     C48914   7.268   0.646   2.943 -0.4186  0.0296  0.0376
  363MOL0    Cl48915   7.195   0.526   3.059  0.3442 -0.0520 -0.3631
  363MOL0     C48916   8.123   0.539   3.034 -0.0938  0.6557 -0.7242
  363MOL0     C48917   8.252   0.576   3.080  0.9177  0.3826 -0.1360
  363MOL0     O48918   8.602   0.427   3.024  0.8474  0.2508  0.8153
  363MOL0     C48919   8.842   0.550   2.998 -0.8230 -0.3731  0.1526
  363MOL0     C48920   8.964   0.614   3.008 -0.8439  0.3772 -0.1230
  363MOL0     N48921   9.511   0.808   2.520  0.1741  0.5882 -0.6444
  363MOL0     N48922   9.627   0.853   2.474 -0.6683  1.0419 -0.4464
  363MOL0     C48923  10.920   1.171   2.571 -0.1103  0.1386 -0.1787
  363MOL0     C48924  11.039   1.169   2.495 -0.4878 -0.6854  0.1482
  363MOL0     C48925  11.307   1.323   2.166 -0.1356 -1.1892  0.6774
  363MOL0     C48926  11.423   1.287   2.245  0.7499  0.0280 -0.6866
  363MOL0     C48927  11.554   1.313   2.209 -0.2171 -0.3317 -0.3127
  363MOL0     C48928  11.580   1.357   2.083  0.2130 -0.0655 -0.3035
  363MOL0     O48929  11.712   1.376   2.039  0.4107 -0.0287 -0.2989
  363MOL0     C48930  11.746   1.271   1.937  0.2682 -0.4982  0.3486
  363MOL0     C48931  11.889   1.266   1.903 -0.4192  0.2264 -0.4419
  363MOL0     C48932  11.948   1.415   1.872  0.8895  0.5366 -0.3157
  363MOL0     C48933  12.099   1.408   1.886  0.9594  0.0829  0.4133
  363MOL0     C48934  12.161   1.541   1.836  0.4373  0.0901  0.1812
  363MOL0     C48935  12.212   1.640   1.787  0.4979 -0.3979  0.4830
  363MOL0     C48936  11.477   1.403   2.003  0.0964  0.2811 -0.1074
  363MOL0     C48937  11.337   1.395   2.047  0.1801 -0.8633 -0.0228
  363MOL0     H48938  10.907   1.162   2.184 -0.1687 -0.2952 -0.6013
  363MOL0     H48939  10.705   1.134   2.302 -0.4440 -0.5854  1.0296
  363MOL0     H48940  10.539   1.111   2.451  2.0948  0.1932 -0.6976
  363MOL0     H48941  10.615   0.952   2.485  1.3273  0.7352 -1.7368
  363MOL0     H48942  10.521   0.939   2.712 -0.8449 -0.5570  0.3927
  363MOL0     H48943  10.475   1.099   2.712  4.2947  0.2247  0.5365
  363MOL0     H48944  10.354   0.875   2.529 -0.3117 -0.4004 -1.4750
  363MOL0     H48945  10.294   0.905   2.684  0.6138 -0.7903 -0.0826
  363MOL0     H48946  10.232   1.141   2.611  2.6529  1.1996 -0.9109
  363MOL0     H48947  10.279   1.087   2.438  0.0674 -1.0201 -0.5092
  363MOL0     H48948  10.125   0.915   2.442 -1.8103 -1.2886  0.9678
  363MOL0     H48949  10.075   0.947   2.606 -2.7149 -0.3036 -2.4418
  363MOL0     H48950   9.976   1.172   2.543 -2.3315  1.6064 -1.8982
  363MOL0     H48951  10.030   1.145   2.376 -1.6551  2.0729  0.3644
  363MOL0     H48952   9.797   1.080   2.376  2.2862 -0.2703 -2.3260
  363MOL0     H48953   9.880   0.932   2.384 -0.6665  0.8356 -3.0285
  363MOL0     H48954   9.785   1.107   2.616  0.9823  0.4185 -0.0563
  363MOL0     H48955   9.869   0.950   2.642  2.6899  0.1989 -1.8583
  363MOL0     H48956   9.574   1.005   2.769 -2.6251  0.1522 -0.5223
  363MOL0     H48957   9.292   0.942   2.722 -0.1998  0.7502 -1.2492
  363MOL0     H48958   9.292   0.775   2.656 -0.6561 -0.0886  1.0180
  363MOL0     H48959   9.454   0.834   2.903 -0.7302 -3.8567  3.8292
  363MOL0     H48960   9.395   0.683   2.842 -2.1378 -0.6489 -0.6969
  363MOL0     H48961   9.158   0.789   2.859 -0.2675  1.1952  0.3918
  363MOL0     H48962   9.238   0.914   2.949  1.9583  0.7774 -1.0695
  363MOL0     H48963   9.299   0.759   3.127 -0.6062  1.0521  1.1326
  363MOL0     H48964   9.218   0.632   3.048  0.5901  0.8515  1.3510
  363MOL0     H48965   8.880   0.889   3.165 -0.8858 -0.1199  0.2085
  363MOL0     H48966   8.693   0.855   3.270  0.4392 -2.2562  1.6866
  363MOL0     H48967   8.587   0.868   3.123 -0.1171  0.9750  0.3599
  363MOL0     H48968   8.564   0.743   3.242  0.5731  1.3632  2.8494
  363MOL0     H48969   8.411   0.501   2.794  0.1149  2.8167 -0.1638
  363MOL0     H48970   8.204   0.459   2.713  2.1610  1.2221 -0.8068
  363MOL0     H48971   7.887   0.321   2.958  2.8560  0.6948 -2.6282
  363MOL0     H48972   7.856   0.489   3.020 -3.9655 -4.0643  3.0759
  363MOL0     H48973   7.765   0.373   2.747  0.2342  1.0959 -0.5086
  363MOL0     H48974   7.661   0.373   2.892  2.0170 -2.1721  1.0820
  363MOL0     H48975   7.772   0.635   2.759  1.0627 -1.2971 -0.5521
  363MOL0     H48976   7.688   0.633   2.898 -0.2427  0.3560 -1.4051
  363MOL0     H48977   7.592   0.521   2.621 -2.6722 -2.5639 -0.4551
  363MOL0     H48978   7.513   0.479   2.765  2.2281 -1.8294 -0.4824
  363MOL0     H48979   7.402   0.687   2.676 -1.0469  1.9590 -0.0130
  363MOL0     H48980   7.550   0.767   2.665  0.1329 -0.4473 -1.4912
  363MOL0     H48981   7.565   0.806   2.901 -2.5436  3.5738  0.6486
  363MOL0     H48982   7.413   0.845   2.850  1.4758  2.5733  3.1440
  363MOL0     H48983   7.410   0.724   3.082 -3.1620  1.8269 -0.7899
  363MOL0     H48984   7.467   0.574   2.997 -1.8117 -0.7580 -2.8105
  363MOL0     H48985   7.274   0.609   2.841  2.1502 -1.0003  0.5070
  363MOL0     H48986   7.218   0.744   2.946 -0.7643 -0.1268 -0.4470
  363MOL0     H48987   8.046   0.530   3.110  1.5173 -2.4160  0.7087
  363MOL0     H48988   8.263   0.621   3.178 -1.8124  0.7431  0.0919
  363MOL0     H48989   8.834   0.452   2.951 -0.5686  0.0942 -0.9040
  363MOL0     H48990   9.049   0.565   2.962 -1.5237 -0.6484 -0.3112
  363MOL0     H48991  10.926   1.175   2.679  1.5128 -2.7038 -0.0539
  363MOL0     H48992  11.134   1.176   2.545 -0.7427 -1.1115  0.7029
  363MOL0     H48993  11.398   1.248   2.344 -0.8962  0.3590 -0.9475
  363MOL0     H48994  11.648   1.285   2.255 -1.2078 -0.8945  1.4499
  363MOL0     H48995  11.697   1.177   1.964 -1.7872  0.2882 -0.4222
  363MOL0     H48996  11.710   1.307   1.840  2.8513 -0.6117 -0.7239
  363MOL0     H48997  11.915   1.193   1.825  0.0311  0.0973 -0.1772
  363MOL0     H48998  11.942   1.229   1.991 -2.4461  1.5453  1.4207
  363MOL0     H48999  11.905   1.492   1.936  0.2191  1.4159 -1.7569
  363MOL0     H49000  11.926   1.445   1.769  1.2670 -2.0693 -1.2347
  363MOL0     H49001  12.139   1.330   1.820  0.1975  1.7692 -2.2088
  363MOL0     H49002  12.117   1.386   1.991 -2.8325 -1.0398  0.9593
  363MOL0     H49003  12.264   1.724   1.745  2.3127 -1.5352  0.3125
  363MOL0     H49004  11.497   1.447   1.906  1.6649 -1.8799 -0.8485
  363MOL0     H49005  11.259   1.439   1.985 -0.0865  0.9409  1.5131
  364MOL0     O49006   8.266   7.745   3.226 -0.4397  0.0912  0.0573
  364MOL0     C49007   8.374   7.726   3.283  0.7193  0.1196 -0.0669
  364MOL0     O49008   8.387   7.643   3.388 -0.0798 -0.3676  0.3883
  364MOL0     C49009   8.277   7.611   3.469 -0.2221 -0.4392  0.3589
  364MOL0     C49010   8.137   7.639   3.453  0.0852 -0.6329  0.2394
  364MOL0     C49011   8.042   7.585   3.542  0.0686 -0.4802 -0.6736
  364MOL0     C49012   8.088   7.502   3.647  0.5229 -0.0580  0.8310
  364MOL0     O49013   7.995   7.435   3.734  0.2987  0.2044  0.4401
  364MOL0     C49014   8.028   7.303   3.772 -0.6060  0.8826 -0.3657
  364MOL0     C49015   7.916   7.231   3.848 -0.0147  0.3777 -0.5640
  364MOL0     C49016   7.920   7.268   3.997  0.4037 -0.6174  1.0305
  364MOL0     C49017   7.814   7.195   4.079 -0.4236 -0.7753 -0.5720
  364MOL0     C49018   7.797   7.262   4.215  0.3978  0.1209 -0.3200
  364MOL0     C49019   7.720   7.178   4.319  0.2709 -0.9200 -0.2700
  364MOL0     C49020   7.711   7.245   4.455 -0.0041  0.1982  0.4527
  364MOL0     C49021   7.660   7.151   4.564  0.3940 -0.2902  0.3461
  364MOL0     N49022   7.575   7.220   4.666 -0.5235  0.1366  0.3855
  364MOL0     C49023   7.441   7.249   4.637 -1.0113  0.8469 -0.6041
  364MOL0     C49024   7.400   7.302   4.755 -0.5303 -0.1691  0.0310
  364MOL0     C49025   7.273   7.380   4.756  0.0465 -0.9783  0.1080
  364MOL0     C49026   7.307   7.531   4.731 -0.4586  0.9535 -0.5359
  364MOL0     C49027   7.190   7.632   4.741  0.2746  0.6654 -0.3520
  364MOL0     C49028   7.098   7.630   4.620 -0.2252 -0.3314 -0.3584
  364MOL0     O49029   6.995   7.536   4.618 -0.2002  0.1046 -0.6880
  364MOL0     C49030   6.868   7.574   4.633 -0.3242 -0.2964  1.1312
  364MOL0     C49031   6.805   7.699   4.617  0.1017  0.0999  0.4549
  364MOL0     C49032   6.666   7.724   4.621  0.2089 -0.4383 -0.7986
  364MOL0     C49033   6.624   7.871   4.609 -0.2202  0.5733 -0.1117
  364MOL0     C49034   6.581   7.611   4.631  0.0206  1.1346 -0.5832
  364MOL0     C49035   6.429   7.621   4.648 -0.5305 -0.7968 -0.2434
  364MOL0     O49036   6.362   7.501   4.652 -0.4752 -0.0191 -0.8718
  364MOL0     C49037   6.237   7.490   4.704 -0.0104 -0.4382  0.2120
  364MOL0     C49038   6.145   7.384   4.653  0.3598 -0.7162  0.4360
  364MOL0     C49039   6.032   7.353   4.715  1.0862  0.1691  0.5043
  364MOL0     C49040   5.976   7.438   4.813  0.2503  0.7012 -0.4880
  364MOL0     O49041   5.859   7.407   4.877 -0.3605 -0.4554  0.1647
  364MOL0     C49042   5.771   7.515   4.924 -0.4964  0.1295  0.8873
  364MOL0     C49043   5.640   7.488   4.847 -1.2653  0.0954  0.0803
  364MOL0     C49044   5.537   7.587   4.896 -0.2276  0.4792  0.2957
  364MOL0     C49045   5.395   7.542   4.910  0.3878 -0.4870  0.6386
  364MOL0     C49046   5.300   7.660   4.967 -1.1719  0.1158  0.3062
  364MOL0     C49047   5.164   7.595   4.990 -0.2982  1.5592 -1.0885
  364MOL0     C49048   5.097   7.544   4.861  1.0140  0.7988  0.0221
  364MOL0     C49049   4.951   7.519   4.877  0.7113  0.1967  0.1180
  364MOL0    Cl49050   4.856   7.454   4.743 -0.6003  0.4019 -0.0410
  364MOL0     C49051   6.063   7.538   4.868 -0.7807 -0.1729 -0.6791
  364MOL0     C49052   6.192   7.562   4.814 -1.0325 -0.6452 -0.2518
  364MOL0     O49053   6.378   7.736   4.654  0.3483  0.6580 -0.0679
  364MOL0     C49054   6.643   7.485   4.635  0.6148 -0.8433 -0.0365
  364MOL0     C49055   6.775   7.471   4.639 -0.4198  0.3575  0.0802
  364MOL0     N49056   7.501   7.300   4.852  0.7081 -0.1332 -0.2433
  364MOL0     N49057   7.600   7.244   4.791  0.1483 -0.0202  0.2488
  364MOL0     C49058   8.224   7.482   3.664 -0.5191  0.3262  0.3136
  364MOL0     C49059   8.317   7.545   3.580 -0.6228 -0.1042 -0.9268
  364MOL0     C49060   8.502   7.776   3.223  0.3865 -0.0501  0.2611
  364MOL0     C49061   8.632   7.758   3.271 -0.4863 -0.6125 -0.1428
  364MOL0     C49062   8.748   7.806   3.221 -0.0051 -0.1447  0.2001
  364MOL0     C49063   8.741   7.874   3.097  0.8846  0.7137  0.6463
  364MOL0     O49064   8.841   7.915   3.028 -0.4660  0.1301  0.3429
  364MOL0     C49065   8.973   7.909   3.086  0.2490  0.0961  0.5091
  364MOL0     C49066   9.059   8.024   3.031 -0.2544 -0.8112 -0.6381
  364MOL0     C49067   9.070   8.011   2.883  0.0667 -1.2339  0.0256
  364MOL0     C49068   9.162   8.112   2.813 -0.3212  0.2495  0.3399
  364MOL0     C49069   9.290   8.115   2.878  0.0726  0.5700 -0.0412
  364MOL0     C49070   9.407   8.102   2.905 -0.5027  0.2796  0.3830
  364MOL0     C49071   8.613   7.898   3.040 -0.2965 -0.0860  0.4874
  364MOL0     C49072   8.494   7.850   3.104  0.1158 -0.6960  0.8005
  364MOL0     H49073   8.107   7.721   3.389  3.6997 -0.8671 -1.9984
  364MOL0     H49074   7.937   7.604   3.524  0.1743  0.1863 -0.6337
  364MOL0     H49075   8.039   7.244   3.681 -1.7117  1.3971 -0.8684
  364MOL0     H49076   8.124   7.297   3.823 -1.0062 -1.0298  0.2470
  364MOL0     H49077   7.813   7.257   3.821  0.3259  0.9565 -1.3374
  364MOL0     H49078   7.924   7.123   3.830 -3.1448  0.3732 -2.8801
  364MOL0     H49079   8.020   7.239   4.032  1.2703  1.5762  0.5126
  364MOL0     H49080   7.910   7.376   4.005  0.6866 -0.5186  0.2136
  364MOL0     H49081   7.718   7.192   4.027  0.5670 -0.2163 -2.4999
  364MOL0     H49082   7.851   7.094   4.102  1.6729  0.4705  2.0984
  364MOL0     H49083   7.891   7.290   4.264  1.1937 -0.8703 -1.2412
  364MOL0     H49084   7.737   7.352   4.196 -1.4772 -1.2814 -1.3927
  364MOL0     H49085   7.615   7.161   4.291 -0.1086  0.4709  0.1822
  364MOL0     H49086   7.774   7.084   4.326  1.6546 -0.2129 -1.1856
  364MOL0     H49087   7.810   7.279   4.487 -0.1284 -0.0883  1.1651
  364MOL0     H49088   7.644   7.332   4.450  0.7304  1.0082  3.1042
  364MOL0     H49089   7.744   7.103   4.614  2.7538  2.2188 -0.9205
  364MOL0     H49090   7.589   7.079   4.522 -0.3493  0.5414  0.1378
  364MOL0     H49091   7.382   7.242   4.546 -2.9894 -2.3965  0.7682
  364MOL0     H49092   7.203   7.354   4.677 -0.9889 -2.1572  1.3569
  364MOL0     H49093   7.221   7.363   4.851  1.5765  2.9127  1.8590
  364MOL0     H49094   7.345   7.540   4.629  0.2242  1.9768 -0.2070
  364MOL0     H49095   7.381   7.560   4.806 -2.8611  0.1707  2.2844
  364MOL0     H49096   7.234   7.731   4.752 -1.4617  1.4342  0.1173
  364MOL0     H49097   7.124   7.600   4.822  0.5654 -3.1192 -1.4308
  364MOL0     H49098   7.163   7.619   4.532  1.0186  2.7674  0.0051
  364MOL0     H49099   7.060   7.732   4.607 -0.9256 -0.6825 -1.1399
  364MOL0     H49100   6.870   7.783   4.596  0.3500  0.5882  2.8498
  364MOL0     H49101   6.717   7.928   4.611 -0.1377  0.4142  1.3289
  364MOL0     H49102   6.561   7.880   4.520 -1.0707 -3.6654 -0.1265
  364MOL0     H49103   6.571   7.900   4.700 -1.4702 -0.9656 -0.3051
  364MOL0     H49104   6.166   7.328   4.563 -0.8890 -0.9817  0.2991
  364MOL0     H49105   5.967   7.279   4.670  0.3380  1.6728 -1.0090
  364MOL0     H49106   5.750   7.501   5.030  0.3035  0.6562  1.1237
  364MOL0     H49107   5.814   7.615   4.913  2.1443 -1.0300 -0.4439
  364MOL0     H49108   5.662   7.500   4.741 -1.8548  2.2972  0.1435
  364MOL0     H49109   5.593   7.392   4.871 -1.9606  0.2848 -0.5052
  364MOL0     H49110   5.548   7.681   4.841  0.6787  1.4992  2.1491
  364MOL0     H49111   5.558   7.608   5.001  0.4641  4.0103 -0.4162
  364MOL0     H49112   5.356   7.529   4.809  4.1207 -1.5253 -0.8122
  364MOL0     H49113   5.375   7.456   4.974 -1.5595  0.9813  2.1437
  364MOL0     H49114   5.292   7.751   4.906 -4.2378  1.5396  2.6202
  364MOL0     H49115   5.346   7.701   5.057  0.3348  0.4639 -0.5773
  364MOL0     H49116   5.180   7.512   5.059 -2.4283 -0.4571 -2.8621
  364MOL0     H49117   5.084   7.657   5.033 -1.5364 -0.3054 -0.5657
  364MOL0     H49118   5.142   7.446   4.841 -0.8739  0.4944 -3.5169
  364MOL0     H49119   5.109   7.612   4.776  0.5973  2.6643  1.4030
  364MOL0     H49120   4.910   7.618   4.897 -1.7998 -0.6762 -0.3410
  364MOL0     H49121   4.939   7.461   4.969  0.8515 -1.7718 -1.0491
  364MOL0     H49122   6.030   7.588   4.958 -2.4557 -3.7830  0.9003
  364MOL0     H49123   6.260   7.632   4.863  0.8937 -2.1421 -0.6689
  364MOL0     H49124   6.578   7.398   4.643 -0.0539 -0.2632  1.0364
  364MOL0     H49125   6.829   7.377   4.644 -0.8732 -0.1354 -2.7727
  364MOL0     H49126   8.261   7.406   3.731 -0.9668  0.6933  0.9857
  364MOL0     H49127   8.421   7.513   3.585 -1.0224 -1.2961  1.5802
  364MOL0     H49128   8.644   7.706   3.365 -0.1579  0.1987  0.2773
  364MOL0     H49129   8.841   7.790   3.274  0.0213  1.1797  0.5856
  364MOL0     H49130   8.976   7.928   3.193  0.3442 -0.1036  0.5422
  364MOL0     H49131   9.011   7.807   3.080 -0.9684 -0.2786 -3.0189
  364MOL0     H49132   9.158   8.013   3.074  0.1495  1.8039 -0.7120
  364MOL0     H49133   9.036   8.129   3.051 -0.1366 -0.7075 -1.0339
  364MOL0     H49134   8.970   8.028   2.844 -0.5567 -1.5940  1.4078
  364MOL0     H49135   9.113   7.915   2.852  2.3600 -0.9102  1.8781
  364MOL0     H49136   9.115   8.211   2.816  2.6900  1.8000  1.8820
  364MOL0     H49137   9.181   8.077   2.711 -0.0411  0.3344  0.3621
  364MOL0     H49138   9.514   8.091   2.911 -0.5908 -0.7285  0.3810
  364MOL0     H49139   8.604   7.945   2.943 -1.5024 -1.1729  0.0601
  364MOL0     H49140   8.404   7.863   3.046  2.6138  1.9311 -2.9331
  365MOL0     O49141   6.281  11.221   3.000 -0.6538 -0.1498 -0.6316
  365MOL0     C49142   6.277  11.341   2.965 -0.3997 -0.1117 -0.5924
  365MOL0     O49143   6.182  11.427   2.987  0.3355 -0.7105  0.1666
  365MOL0     C49144   6.070  11.384   3.038  0.8459 -0.1318  0.0907
  365MOL0     C49145   5.952  11.376   2.969  0.1244 -0.0981  0.5740
  365MOL0     C49146   5.828  11.338   3.023  0.8456  1.0066  0.2203
  365MOL0     C49147   5.813  11.332   3.160 -0.2149  0.9189  0.4518
  365MOL0     O49148   5.704  11.283   3.238 -0.1337 -0.0001  0.1679
  365MOL0     C49149   5.577  11.294   3.173 -0.4211 -0.2139  0.4861
  365MOL0     C49150   5.464  11.258   3.276 -0.0408 -0.3982  0.3193
  365MOL0     C49151   5.323  11.289   3.225 -0.0556  0.4322  0.3176
  365MOL0     C49152   5.222  11.317   3.336  0.0808 -0.0412 -0.6468
  365MOL0     C49153   5.085  11.343   3.284  0.2264 -0.2058 -0.8587
  365MOL0     C49154   5.022  11.216   3.226 -0.6667 -0.2993  0.9128
  365MOL0     C49155   4.870  11.246   3.204 -0.2643  0.7753 -0.1475
  365MOL0     C49156   4.793  11.173   3.318  0.4441  0.5565  0.7597
  365MOL0     N49157   4.651  11.213   3.317 -1.0185  0.6307 -0.1100
  365MOL0     C49158   4.544  11.170   3.251  0.4202  0.7699  1.0913
  365MOL0     C49159   4.448  11.257   3.260  0.0222  0.1508 -0.0231
  365MOL0     C49160   4.306  11.241   3.212  0.2834  0.0210 -0.3577
  365MOL0     C49161   4.208  11.355   3.252 -0.7960  0.1560 -0.8537
  365MOL0     C49162   4.183  11.347   3.403  0.1922 -0.0829  0.6925
  365MOL0     C49163   4.111  11.473   3.481 -0.3967  0.3892  0.3867
  365MOL0     O49164   4.002  11.504   3.387 -0.5717  0.0552  0.0230
  365MOL0     C49165   3.872  11.501   3.437  0.8899  0.2966 -0.4107
  365MOL0     C49166   3.826  11.613   3.520  0.9811  0.4926  0.0537
  365MOL0     C49167   3.692  11.612   3.567  1.1660 -0.1823 -0.2561
  365MOL0     C49168   3.660  11.738   3.645 -0.3797  0.2021 -0.7214
  365MOL0     C49169   3.597  11.507   3.530  0.2350 -0.8717  0.0992
  365MOL0     C49170   3.444  11.493   3.570 -0.8816  0.4265 -0.8575
  365MOL0     O49171   3.375  11.389   3.513  0.0910  0.0912 -0.5986
  365MOL0     C49172   3.260  11.357   3.576  0.4926  0.1184 -0.0644
  365MOL0     C49173   3.139  11.418   3.536 -0.0221  0.0501  0.4164
  365MOL0     C49174   3.023  11.401   3.608 -0.6213 -0.0987  0.6610
  365MOL0     C49175   3.015  11.305   3.713 -0.1709  0.0274  0.6533
  365MOL0     O49176   2.884  11.288   3.756  0.1430 -0.3847  0.0646
  365MOL0     C49177   2.868  11.187   3.860 -0.3269 -0.2963 -0.1956
  365MOL0     C49178   2.725  11.154   3.902  0.2107  0.7497  0.7193
  365MOL0     C49179   2.658  11.062   3.804 -0.9444 -0.5915 -0.1474
  365MOL0     C49180   2.506  11.041   3.824  0.3440 -0.1442  0.4938
  365MOL0     C49181   2.457  10.958   3.706 -0.1086  0.3754 -0.4276
  365MOL0     C49182   2.444  11.030   3.567  1.0008 -0.4147 -0.1078
  365MOL0     C49183   2.331  11.141   3.570 -1.0614  0.2359  0.7187
  365MOL0     C49184   2.313  11.206   3.433 -0.2385 -0.4775  0.0488
  365MOL0    Cl49185   2.462  11.294   3.398  0.2214  0.4061 -0.2068
  365MOL0     C49186   3.135  11.230   3.743 -0.1768 -0.6485 -0.2418
  365MOL0     C49187   3.253  11.253   3.674 -0.0765  1.0723  0.1640
  365MOL0     O49188   3.402  11.565   3.662 -0.5468  0.1792  0.3423
  365MOL0     C49189   3.649  11.408   3.453  0.3649 -0.1499  0.4513
  365MOL0     C49190   3.783  11.403   3.405 -0.0992  0.3254 -0.1961
  365MOL0     N49191   4.495  11.369   3.334  0.5626  0.0206  0.5201
  365MOL0     N49192   4.615  11.333   3.373 -0.8799  0.2639  0.1492
  365MOL0     C49193   5.932  11.335   3.231 -0.1369  0.2090 -0.2023
  365MOL0     C49194   6.058  11.348   3.178  0.2790 -0.4301  0.3762
  365MOL0     C49195   6.389  11.408   2.898 -0.7545 -0.7860  1.3013
  365MOL0     C49196   6.517  11.352   2.900 -0.2924  0.0062 -0.3611
  365MOL0     C49197   6.618  11.410   2.834 -0.3287 -0.5032  0.0885
  365MOL0     C49198   6.596  11.538   2.776 -0.8806  0.5691 -0.1391
  365MOL0     O49199   6.688  11.608   2.708 -0.0967 -0.6547  0.1300
  365MOL0     C49200   6.811  11.547   2.664  0.0664 -0.5875  0.3203
  365MOL0     C49201   6.896  11.651   2.597 -0.2870  0.6306 -0.1245
  365MOL0     C49202   6.927  11.778   2.681  0.5594  0.4001 -0.9710
  365MOL0     C49203   7.052  11.839   2.629  0.4682  0.1854 -0.1828
  365MOL0     C49204   7.174  11.785   2.689 -0.4228  0.9254 -0.0512
  365MOL0     C49205   7.264  11.714   2.721  0.4532  0.3117  0.3604
  365MOL0     C49206   6.474  11.595   2.776  0.4363  0.7543  0.1318
  365MOL0     C49207   6.364  11.533   2.829 -0.2896  0.4465  0.3399
  365MOL0     H49208   5.953  11.390   2.861  1.8310 -4.6399 -0.1888
  365MOL0     H49209   5.739  11.315   2.965  0.9902  3.4138 -1.1374
  365MOL0     H49210   5.572  11.398   3.139 -0.2550  0.3764  2.1543
  365MOL0     H49211   5.566  11.227   3.088 -2.7773 -0.3579  0.8562
  365MOL0     H49212   5.480  11.151   3.287  0.6497 -0.2065  1.2650
  365MOL0     H49213   5.474  11.312   3.370  2.3164 -0.4872  0.1627
  365MOL0     H49214   5.328  11.379   3.164  1.1559  0.9762  1.1710
  365MOL0     H49215   5.302  11.204   3.160  0.4532  2.3810 -2.5773
  365MOL0     H49216   5.209  11.230   3.401  0.7422 -0.7731 -1.4698
  365MOL0     H49217   5.255  11.399   3.401 -0.4820 -1.8373  2.0983
  365MOL0     H49218   5.015  11.382   3.358 -0.6689 -0.5519 -1.5113
  365MOL0     H49219   5.098  11.414   3.202 -0.5382 -0.0624 -0.8573
  365MOL0     H49220   5.068  11.191   3.130 -2.2125  0.6819 -0.1582
  365MOL0     H49221   5.047  11.128   3.285  0.6343 -2.2930 -2.3294
  365MOL0     H49222   4.853  11.354   3.214  0.2947  0.7251  1.8040
  365MOL0     H49223   4.835  11.209   3.108 -1.6642  3.1056 -0.6213
  365MOL0     H49224   4.842  11.212   3.408  0.6198  1.8688  0.1251
  365MOL0     H49225   4.798  11.064   3.320 -2.0321  0.2865 -1.7282
  365MOL0     H49226   4.537  11.079   3.192  0.7764  0.4278  1.5671
  365MOL0     H49227   4.314  11.233   3.103 -1.2592 -0.3929 -0.4660
  365MOL0     H49228   4.269  11.151   3.263  2.2049 -0.9338 -0.5698
  365MOL0     H49229   4.116  11.340   3.195 -1.6949 -2.8071  1.1049
  365MOL0     H49230   4.250  11.449   3.218 -2.4632  0.3235 -2.5708
  365MOL0     H49231   4.275  11.336   3.461  1.0169 -1.6019 -0.8002
  365MOL0     H49232   4.114  11.265   3.423 -0.8713  0.2826 -1.3001
  365MOL0     H49233   4.172  11.564   3.494  0.7737 -0.2562 -0.3611
  365MOL0     H49234   4.075  11.434   3.576 -1.3853 -0.4233 -0.2985
  365MOL0     H49235   3.899  11.686   3.552  1.2619 -0.6797  2.2952
  365MOL0     H49236   3.605  11.803   3.577 -1.1027 -1.6263 -1.9411
  365MOL0     H49237   3.610  11.717   3.740  1.5373 -1.1238  0.0658
  365MOL0     H49238   3.753  11.789   3.673 -1.8120  2.5661  0.0319
  365MOL0     H49239   3.135  11.494   3.459 -2.6646 -0.9048 -0.5243
  365MOL0     H49240   2.937  11.467   3.596  0.6136  2.0706  2.8092
  365MOL0     H49241   2.928  11.098   3.842 -1.9509 -1.4270 -0.1716
  365MOL0     H49242   2.888  11.240   3.954 -1.4191 -1.1818  0.5590
  365MOL0     H49243   2.728  11.103   3.999  1.4655 -1.6521 -0.4859
  365MOL0     H49244   2.665  11.245   3.893  0.2812  0.5753 -2.6645
  365MOL0     H49245   2.716  10.969   3.810 -3.0476 -2.1445 -2.1310
  365MOL0     H49246   2.668  11.109   3.706 -2.4253  3.2882  1.3695
  365MOL0     H49247   2.496  10.992   3.922  0.5917 -2.5479 -0.6235
  365MOL0     H49248   2.450  11.133   3.843  2.2416  1.1930 -0.1327
  365MOL0     H49249   2.358  10.922   3.734  0.2268  0.4597  0.9275
  365MOL0     H49250   2.529  10.877   3.688  1.9699  2.2780 -1.1841
  365MOL0     H49251   2.542  11.066   3.535 -0.6259  2.1494 -2.6665
  365MOL0     H49252   2.416  10.960   3.489 -3.1197  0.2749  0.5463
  365MOL0     H49253   2.353  11.223   3.639 -1.5729  1.0669 -0.0777
  365MOL0     H49254   2.233  11.102   3.602 -0.6014 -2.4763 -0.9026
  365MOL0     H49255   2.221  11.265   3.427  1.2778  2.6267  3.5318
  365MOL0     H49256   2.296  11.123   3.364 -2.5078  1.0025 -1.2984
  365MOL0     H49257   3.135  11.162   3.828 -0.7516 -1.3260 -0.7726
  365MOL0     H49258   3.345  11.204   3.704  0.8750  2.1081 -0.9732
  365MOL0     H49259   3.579  11.326   3.450 -1.1969  0.9468  3.1378
  365MOL0     H49260   3.810  11.316   3.345  1.8214  1.8257 -1.6013
  365MOL0     H49261   5.925  11.321   3.339  0.5268 -3.4947 -0.5000
  365MOL0     H49262   6.153  11.358   3.230  2.1658  0.5337 -2.9645
  365MOL0     H49263   6.540  11.254   2.941  3.2499 -0.1109 -2.2055
  365MOL0     H49264   6.712  11.355   2.833 -0.3862 -0.6022 -1.3046
  365MOL0     H49265   6.860  11.515   2.757 -0.0672  0.1752  0.6623
  365MOL0     H49266   6.786  11.461   2.602  0.8598 -1.5534  1.2812
  365MOL0     H49267   6.860  11.673   2.497 -0.5325 -0.2908 -0.2475
  365MOL0     H49268   6.994  11.604   2.579  0.2911  1.9941 -0.6491
  365MOL0     H49269   6.946  11.753   2.785  3.8569  0.1402 -1.5246
  365MOL0     H49270   6.850  11.856   2.678  0.8604  0.8752  1.5437
  365MOL0     H49271   7.044  11.946   2.646 -0.6223 -0.1962  1.9691
  365MOL0     H49272   7.040  11.820   2.522 -2.5488  0.3394  0.0468
  365MOL0     H49273   7.340  11.644   2.752 -1.5750 -3.1796 -1.8205
  365MOL0     H49274   6.457  11.696   2.740 -3.3469  0.6600  1.1588
  365MOL0     H49275   6.269  11.585   2.822  0.6312  2.1786 -0.0598
  366MOL0     O49276   6.561   5.438   4.334 -0.4656 -0.8010  0.4765
  366MOL0     C49277   6.652   5.457   4.418 -0.1956  0.2647 -0.1963
  366MOL0     O49278   6.764   5.371   4.432 -0.2709  0.0943  0.3420
  366MOL0     C49279   6.792   5.269   4.351 -0.5623 -0.0827 -0.2828
  366MOL0     C49280   6.785   5.291   4.218  0.0009  0.2108  0.2522
  366MOL0     C49281   6.825   5.200   4.119  0.7283 -0.5878  1.2075
  366MOL0     C49282   6.861   5.072   4.162 -0.1989 -0.3042 -0.4087
  366MOL0     O49283   6.874   4.960   4.085 -0.3349  0.4578 -0.5741
  366MOL0     C49284   6.897   4.974   3.945 -0.2374 -0.1182 -0.2984
  366MOL0     C49285   6.915   4.836   3.872  0.4262  0.6309 -0.0794
  366MOL0     C49286   6.777   4.759   3.870 -0.0474  0.5047  0.0269
  366MOL0     C49287   6.787   4.619   3.825 -0.9276  0.1959 -0.5252
  366MOL0     C49288   6.638   4.568   3.795 -0.3582 -0.4270 -0.3162
  366MOL0     C49289   6.631   4.535   3.650  0.2418  0.9490  0.1300
  366MOL0     C49290   6.482   4.497   3.610  0.4135  1.0369  0.4914
  366MOL0     C49291   6.467   4.438   3.471  0.1121 -0.2065  0.2336
  366MOL0     N49292   6.331   4.387   3.434  0.4233  0.0992 -0.4865
  366MOL0     C49293   6.246   4.310   3.511 -1.3709  0.0248  0.0820
  366MOL0     C49294   6.146   4.273   3.436  0.4774 -0.1469  0.2888
  366MOL0     C49295   6.034   4.161   3.464  1.0425 -0.5389  0.8417
  366MOL0     C49296   5.893   4.222   3.502 -0.1958 -0.3218  0.6938
  366MOL0     C49297   5.777   4.122   3.496 -0.1088 -0.5381  0.1013
  366MOL0     C49298   5.659   4.161   3.583 -0.4144  0.8014 -0.7560
  366MOL0     O49299   5.635   4.297   3.563 -0.3633 -0.2560  0.0531
  366MOL0     C49300   5.537   4.310   3.468 -0.2808 -0.6103 -0.3875
  366MOL0     C49301   5.577   4.366   3.341 -0.3502  1.0011 -0.1153
  366MOL0     C49302   5.483   4.398   3.240  0.2983  0.0631 -0.7497
  366MOL0     C49303   5.539   4.444   3.110  0.0618 -0.3974  0.3748
  366MOL0     C49304   5.350   4.373   3.262  1.0158  0.0807  0.2938
  366MOL0     C49305   5.238   4.388   3.161  0.1880  0.6996 -0.0502
  366MOL0     O49306   5.116   4.363   3.207  0.4935 -0.1838 -0.9617
  366MOL0     C49307   5.008   4.382   3.125 -0.8307 -0.5196 -0.4518
  366MOL0     C49308   4.958   4.512   3.097 -0.5128  0.1957  0.0559
  366MOL0     C49309   4.837   4.521   3.025 -0.5538  0.3753  0.1259
  366MOL0     C49310   4.754   4.410   3.001  0.1973 -0.0501  0.3789
  366MOL0     O49311   4.631   4.431   2.943 -0.3018  0.3618  0.6497
  366MOL0     C49312   4.596   4.334   2.841 -0.1880 -1.1541 -0.3578
  366MOL0     C49313   4.476   4.259   2.888 -0.0337 -0.4304 -0.0286
  366MOL0     C49314   4.455   4.134   2.813  0.1129  0.0134  0.5659
  366MOL0     C49315   4.329   4.047   2.854  0.8001  0.7258 -0.4727
  366MOL0     C49316   4.213   4.094   2.758 -0.2873  0.4056 -0.2710
  366MOL0     C49317   4.120   3.993   2.720  0.6007 -0.2574 -1.2462
  366MOL0     C49318   4.049   3.959   2.850 -0.0526  0.4718  1.2211
  366MOL0     C49319   3.925   3.881   2.812  0.4795  0.3587 -0.4764
  366MOL0    Cl49320   3.798   3.991   2.743 -0.0929 -0.3541 -0.0843
  366MOL0     C49321   4.807   4.288   3.038  0.2752  0.9626  0.1707
  366MOL0     C49322   4.932   4.276   3.094  0.2813  0.1453  0.3676
  366MOL0     O49323   5.268   4.427   3.050  0.1073 -1.0359 -0.6032
  366MOL0     C49324   5.316   4.310   3.388  0.0295  0.2178 -0.2786
  366MOL0     C49325   5.406   4.295   3.495 -0.2917 -0.5478  0.6058
  366MOL0     N49326   6.169   4.339   3.317  0.3713 -0.2090 -0.0801
  366MOL0     N49327   6.275   4.415   3.314  0.3539  0.0362 -0.0493
  366MOL0     C49328   6.871   5.048   4.306 -0.7181 -0.3079 -0.2463
  366MOL0     C49329   6.844   5.147   4.399 -0.1891 -0.6377  0.6418
  366MOL0     C49330   6.650   5.579   4.500 -0.1603  0.0402 -0.8688
  366MOL0     C49331   6.569   5.690   4.480  1.0632 -0.4524  0.6684
  366MOL0     C49332   6.570   5.795   4.580 -0.9586  0.6011 -0.2105
  366MOL0     C49333   6.651   5.792   4.689 -0.8313  0.2027  0.4492
  366MOL0     O49334   6.639   5.894   4.777  0.2780  0.2083  0.4373
  366MOL0     C49335   6.726   6.001   4.743  0.2031 -0.9039  0.0985
  366MOL0     C49336   6.692   6.125   4.825 -0.5604  0.4551  0.7994
  366MOL0     C49337   6.801   6.231   4.796 -0.0298 -0.3874  0.0673
  366MOL0     C49338   6.939   6.205   4.864 -0.7422 -0.5908  0.3307
  366MOL0     C49339   6.998   6.318   4.937 -0.4356 -0.7300  0.6235
  366MOL0     C49340   7.047   6.414   4.989 -0.0678  0.4947  0.5458
  366MOL0     C49341   6.726   5.677   4.707  0.3381  0.0796 -1.0366
  366MOL0     C49342   6.736   5.581   4.615  0.3203 -0.1129  0.7488
  366MOL0     H49343   6.777   5.393   4.182  2.0059  1.9593  4.1275
  366MOL0     H49344   6.823   5.226   4.013 -0.2357 -3.5173  0.4173
  366MOL0     H49345   6.807   5.019   3.904 -1.5633 -1.8344  0.6156
  366MOL0     H49346   6.987   5.034   3.929  0.3973 -0.7670  0.6504
  366MOL0     H49347   6.965   4.843   3.775  2.8890 -0.2778  1.0403
  366MOL0     H49348   6.982   4.779   3.937  2.4243  0.5388 -2.1231
  366MOL0     H49349   6.726   4.754   3.967  1.2076  0.5228  0.7199
  366MOL0     H49350   6.711   4.808   3.797 -1.5257 -2.4770 -0.7712
  366MOL0     H49351   6.857   4.628   3.742 -2.1763  1.5576 -1.4699
  366MOL0     H49352   6.825   4.563   3.911  1.6254 -0.3644 -1.9061
  366MOL0     H49353   6.596   4.494   3.863  1.1560 -0.0067  1.1601
  366MOL0     H49354   6.575   4.654   3.819  0.7248  0.7622 -1.5539
  366MOL0     H49355   6.642   4.620   3.582  0.0108 -1.7340 -3.6218
  366MOL0     H49356   6.699   4.452   3.627 -1.0359 -0.2827  0.6077
  366MOL0     H49357   6.451   4.414   3.673  2.1029 -1.3790 -1.6177
  366MOL0     H49358   6.404   4.571   3.631 -0.0525  0.8498 -0.5007
  366MOL0     H49359   6.538   4.356   3.462 -2.2344 -2.3253 -0.1024
  366MOL0     H49360   6.497   4.518   3.404  1.8047  0.2143  1.4193
  366MOL0     H49361   6.262   4.283   3.614  0.2189 -0.1629 -0.1831
  366MOL0     H49362   6.023   4.100   3.373  2.8297  2.2328 -1.4048
  366MOL0     H49363   6.066   4.093   3.544  1.0458  0.1259  1.4070
  366MOL0     H49364   5.886   4.306   3.433  0.8529 -1.0420 -0.3199
  366MOL0     H49365   5.897   4.274   3.599 -0.0472  2.4051 -0.6874
  366MOL0     H49366   5.821   4.029   3.535 -0.0958 -0.6231 -0.1143
  366MOL0     H49367   5.744   4.100   3.394 -2.0225 -0.1990  0.6159
  366MOL0     H49368   5.667   4.153   3.692 -1.7036  2.1980 -0.5202
  366MOL0     H49369   5.571   4.104   3.552 -0.0769  0.5880 -1.3397
  366MOL0     H49370   5.685   4.375   3.333 -0.1928  0.4154  1.1580
  366MOL0     H49371   5.493   4.538   3.079  0.0410  0.1406  1.9440
  366MOL0     H49372   5.648   4.455   3.108  0.1978 -1.4274 -2.2009
  366MOL0     H49373   5.517   4.363   3.040 -4.0551  1.6119 -0.9583
  366MOL0     H49374   5.007   4.604   3.127  1.0487 -0.5801 -0.0050
  366MOL0     H49375   4.789   4.613   2.994 -0.7099  0.7450  1.4250
  366MOL0     H49376   4.571   4.394   2.753 -0.9809  2.8834  2.3149
  366MOL0     H49377   4.684   4.275   2.817 -1.0664 -2.5590 -0.2721
  366MOL0     H49378   4.484   4.227   2.993 -0.2913 -1.1754 -0.2317
  366MOL0     H49379   4.387   4.322   2.878  0.5930  0.2193 -1.7919
  366MOL0     H49380   4.540   4.071   2.841 -1.7939 -1.9412  2.3513
  366MOL0     H49381   4.457   4.155   2.706 -1.4336  0.6620  0.6490
  366MOL0     H49382   4.350   3.941   2.838 -1.4040  0.1507  0.1143
  366MOL0     H49383   4.298   4.076   2.956 -4.3951 -1.2469 -1.2013
  366MOL0     H49384   4.254   4.142   2.668  0.7800 -0.2115 -0.1317
  366MOL0     H49385   4.165   4.175   2.814  0.3060  0.3245  0.3770
  366MOL0     H49386   4.048   4.015   2.640 -0.5882  1.1337  0.1380
  366MOL0     H49387   4.171   3.902   2.687 -0.7955 -1.7264  0.4329
  366MOL0     H49388   4.011   4.048   2.902 -0.6135  0.7330  0.3805
  366MOL0     H49389   4.117   3.894   2.906 -2.7694 -3.8312 -0.0024
  366MOL0     H49390   3.879   3.837   2.901 -0.4578 -0.8967 -1.5462
  366MOL0     H49391   3.954   3.794   2.751 -3.4654 -1.3192 -0.2686
  366MOL0     H49392   4.751   4.200   3.010  2.7579 -1.2507  1.7843
  366MOL0     H49393   4.974   4.179   3.119  2.6673  0.8794 -0.4347
  366MOL0     H49394   5.213   4.280   3.407  0.4030 -0.3375  0.9358
  366MOL0     H49395   5.381   4.244   3.587 -1.5894 -2.7928 -0.8730
  366MOL0     H49396   6.913   4.950   4.328  2.5810  0.3106 -2.9504
  366MOL0     H49397   6.851   5.135   4.507 -1.7855  4.4815  1.5680
  366MOL0     H49398   6.509   5.700   4.391  1.9779 -0.3293  0.0545
  366MOL0     H49399   6.515   5.887   4.561 -0.3640  0.6721 -1.6740
  366MOL0     H49400   6.832   5.975   4.746  0.2825 -0.8014 -1.1193
  366MOL0     H49401   6.715   6.014   4.635  1.4085 -0.8331 -0.0277
  366MOL0     H49402   6.680   6.103   4.931 -3.1641 -2.1879  0.0811
  366MOL0     H49403   6.598   6.167   4.789  0.5212  2.0577 -0.3382
  366MOL0     H49404   6.766   6.323   4.844  0.1330  0.6144 -1.6395
  366MOL0     H49405   6.809   6.249   4.688  3.6428 -0.2986  0.2046
  366MOL0     H49406   7.011   6.183   4.784 -1.9906 -1.7904 -0.5029
  366MOL0     H49407   6.930   6.123   4.935  3.3855 -0.7485  0.9394
  366MOL0     H49408   7.070   6.509   5.033 -4.3472  1.7933  0.4775
  366MOL0     H49409   6.798   5.670   4.788  1.6655 -3.5710 -2.3505
  366MOL0     H49410   6.823   5.516   4.622 -1.4029 -2.5432  0.9332
  367MOL0     O49411  10.985   9.743   7.547 -0.2174 -0.3521 -0.1904
  367MOL0     C49412  10.881   9.720   7.609  0.0445 -0.0994  0.5124
  367MOL0     O49413  10.824   9.803   7.712 -0.0291  0.3812  0.2188
  367MOL0     C49414  10.869   9.921   7.756 -0.1271 -0.3988 -0.0823
  367MOL0     C49415  11.001   9.957   7.771 -0.2871  0.5091 -0.2311
  367MOL0     C49416  11.036  10.080   7.816  0.5460  0.6885  0.2368
  367MOL0     C49417  10.947  10.163   7.880  0.2885 -0.0383  0.2168
  367MOL0     O49418  10.988  10.280   7.922 -0.3028  0.4580 -0.2900
  367MOL0     C49419  11.088  10.284   8.025  0.8985 -0.2316 -0.8919
  367MOL0     C49420  11.082  10.419   8.107 -0.3661  0.3883 -0.8922
  367MOL0     C49421  10.953  10.430   8.197 -0.3120  0.3804  1.1529
  367MOL0     C49422  10.938  10.562   8.266 -0.0712  0.0104 -0.3136
  367MOL0     C49423  10.828  10.566   8.376  0.6387  0.3344 -0.2293
  367MOL0     C49424  10.709  10.653   8.333  0.7569 -0.5150  0.1527
  367MOL0     C49425  10.583  10.648   8.427  0.5892 -0.5646 -0.1883
  367MOL0     C49426  10.479  10.731   8.357  0.5332 -0.1237  0.4034
  367MOL0     N49427  10.350  10.731   8.437 -0.1605  0.6426 -0.7448
  367MOL0     C49428  10.287  10.841   8.502 -1.1104 -0.7588  0.5960
  367MOL0     C49429  10.184  10.783   8.571  0.1310  0.9928  0.6961
  367MOL0     C49430  10.083  10.856   8.667  0.2715 -0.8750  0.1973
  367MOL0     C49431   9.943  10.873   8.605 -0.2012  0.5334  0.4346
  367MOL0     C49432   9.963  10.943   8.465  0.5183  0.7815  0.4575
  367MOL0     C49433   9.825  10.964   8.396 -0.5098  0.3821 -0.1417
  367MOL0     O49434   9.862  11.011   8.269  0.2850  0.3689  0.0735
  367MOL0     C49435   9.761  11.047   8.186  0.8133 -0.5006 -0.5556
  367MOL0     C49436   9.805  11.107   8.068  0.1490  0.5257 -0.1327
  367MOL0     C49437   9.718  11.150   7.963 -0.0028 -1.2439  0.0844
  367MOL0     C49438   9.779  11.207   7.841  0.2569 -0.5534 -0.2170
  367MOL0     C49439   9.577  11.135   7.978 -0.1749  0.6212  0.4637
  367MOL0     C49440   9.476  11.175   7.875 -0.3278 -0.0028 -0.3492
  367MOL0     O49441   9.353  11.153   7.913  0.3076  0.0661  0.7449
  367MOL0     C49442   9.246  11.166   7.828  0.5428  1.2231 -0.1054
  367MOL0     C49443   9.125  11.223   7.877  0.8303 -0.3082  1.1778
  367MOL0     C49444   9.013  11.206   7.805  0.2520  0.8147 -0.6218
  367MOL0     C49445   9.011  11.140   7.678 -0.5572  0.3988 -0.9326
  367MOL0     O49446   8.908  11.112   7.598 -0.3346 -0.0893  0.3061
  367MOL0     C49447   8.781  11.174   7.627  0.6325  0.1584  0.3835
  367MOL0     C49448   8.770  11.325   7.593 -0.0126 -0.3600  0.2275
  367MOL0     C49449   8.630  11.372   7.613  0.2248 -0.7306  0.8681
  367MOL0     C49450   8.517  11.331   7.509 -0.4170  0.6676 -0.3358
  367MOL0     C49451   8.378  11.346   7.581 -0.3236 -0.2938 -0.3374
  367MOL0     C49452   8.246  11.310   7.499 -0.2634 -0.2321  0.1576
  367MOL0     C49453   8.243  11.160   7.464 -0.1495  0.4057 -0.3053
  367MOL0     C49454   8.125  11.125   7.369  0.2511  0.2089 -0.2423
  367MOL0    Cl49455   8.165  11.179   7.209  0.2249 -0.1537  0.1703
  367MOL0     C49456   9.128  11.079   7.634 -0.1011  0.4865  0.4964
  367MOL0     C49457   9.242  11.084   7.715  0.9892  0.3212 -0.3544
  367MOL0     O49458   9.507  11.210   7.764 -0.3955  0.2130 -0.3373
  367MOL0     C49459   9.536  11.063   8.096 -0.1199 -0.2551  0.0857
  367MOL0     C49460   9.621  11.026   8.194 -0.9511 -0.0436  0.8695
  367MOL0     N49461  10.191  10.643   8.556  0.4833 -0.3829 -0.3073
  367MOL0     N49462  10.289  10.617   8.471 -0.9757 -0.7636  0.4699
  367MOL0     C49463  10.814  10.127   7.877  0.6415 -0.6949  0.4929
  367MOL0     C49464  10.773  10.005   7.815 -0.5134 -0.5001  0.1543
  367MOL0     C49465  10.819   9.596   7.570  0.5487  0.3309  0.5919
  367MOL0     C49466  10.689   9.559   7.616 -0.5972  0.1643 -0.5875
  367MOL0     C49467  10.628   9.439   7.566  0.2578  0.7974 -0.9243
  367MOL0     C49468  10.684   9.360   7.462  0.6017  1.0636 -0.3405
  367MOL0     O49469  10.608   9.258   7.422 -0.6264 -0.3825  1.0450
  367MOL0     C49470  10.602   9.219   7.285  0.9349  0.0588  0.0441
  367MOL0     C49471  10.531   9.321   7.195  0.0880 -0.2649  0.0467
  367MOL0     C49472  10.390   9.358   7.244  0.1362  0.0959 -0.6663
  367MOL0     C49473  10.300   9.227   7.228 -0.4056  0.9928 -0.0510
  367MOL0     C49474  10.163   9.255   7.254  0.9128  0.3258  0.0527
  367MOL0     C49475  10.049   9.297   7.282 -0.1439 -0.5094  0.5725
  367MOL0     C49476  10.811   9.411   7.413  0.0636  0.2633  0.2274
  367MOL0     C49477  10.883   9.514   7.469  0.5344 -0.3101  0.6314
  367MOL0     H49478  11.072   9.886   7.730 -2.8594 -3.5219  1.6734
  367MOL0     H49479  11.141  10.106   7.814  0.7636 -0.1759 -0.3808
  367MOL0     H49480  11.071  10.204   8.098 -1.3516  1.7410  0.9156
  367MOL0     H49481  11.189  10.279   7.984  0.3675  0.2710 -2.2894
  367MOL0     H49482  11.174  10.427   8.167 -1.2848 -2.1230  1.0229
  367MOL0     H49483  11.084  10.503   8.037 -0.8780 -0.7754 -2.3618
  367MOL0     H49484  10.868  10.431   8.128 -1.0261 -2.0555  1.9063
  367MOL0     H49485  10.942  10.349   8.270 -2.0409 -1.3152 -0.8441
  367MOL0     H49486  11.036  10.587   8.308 -0.2760  2.0264 -0.9371
  367MOL0     H49487  10.911  10.635   8.190 -0.4435  2.2584  1.8754
  367MOL0     H49488  10.792  10.464   8.396  0.3823  0.3770 -0.4709
  367MOL0     H49489  10.864  10.590   8.477  0.4233 -2.0417  0.4991
  367MOL0     H49490  10.747  10.756   8.326  1.5220 -0.8005  0.0240
  367MOL0     H49491  10.679  10.623   8.233 -0.4607 -1.1200  0.6859
  367MOL0     H49492  10.552  10.543   8.429  4.1506 -1.7837 -1.1525
  367MOL0     H49493  10.605  10.684   8.527  1.6520  0.8779 -0.9144
  367MOL0     H49494  10.458  10.672   8.267  3.3498  0.6981 -0.9026
  367MOL0     H49495  10.521  10.828   8.328  0.0002 -0.8089 -3.0887
  367MOL0     H49496  10.314  10.943   8.477 -1.4211 -1.6118 -4.1891
  367MOL0     H49497  10.078  10.816   8.768 -2.5268 -3.8598 -0.9419
  367MOL0     H49498  10.129  10.954   8.682  3.7378 -2.0859 -1.4114
  367MOL0     H49499   9.883  10.938   8.670  1.4066 -1.7632  4.5161
  367MOL0     H49500   9.892  10.776   8.604 -2.4826  1.6423 -0.2610
  367MOL0     H49501  10.022  10.878   8.400  0.2494 -1.3859  2.2795
  367MOL0     H49502  10.019  11.032   8.496 -0.0287  1.2538  0.1055
  367MOL0     H49503   9.752  11.032   8.441  1.5677  1.9740  1.0024
  367MOL0     H49504   9.774  10.867   8.394 -2.0814  1.1196  1.3124
  367MOL0     H49505   9.912  11.120   8.059 -0.1025  1.2704 -3.1271
  367MOL0     H49506   9.884  11.232   7.856  0.2897  1.4326 -2.8828
  367MOL0     H49507   9.759  11.136   7.760 -0.6182 -0.4822 -0.0771
  367MOL0     H49508   9.735  11.305   7.818  0.6623  0.6923  3.6906
  367MOL0     H49509   9.128  11.272   7.973  1.1279  0.8405  0.6013
  367MOL0     H49510   8.928  11.242   7.862  0.1913  2.1307 -1.4920
  367MOL0     H49511   8.709  11.115   7.569  1.4931  0.3836 -0.9556
  367MOL0     H49512   8.749  11.174   7.731 -0.7301 -2.4559  0.0490
  367MOL0     H49513   8.832  11.375   7.667  0.4280 -1.7135  0.8151
  367MOL0     H49514   8.800  11.341   7.489 -0.4452  1.0007  0.3034
  367MOL0     H49515   8.618  11.480   7.617 -1.6077 -0.9114  1.5105
  367MOL0     H49516   8.597  11.331   7.709 -1.4305 -0.7957  0.3035
  367MOL0     H49517   8.528  11.389   7.417  0.3236  0.2341 -0.5319
  367MOL0     H49518   8.519  11.225   7.479  0.8492  0.4166  0.5496
  367MOL0     H49519   8.370  11.447   7.623  1.9641  0.8447 -2.4222
  367MOL0     H49520   8.385  11.271   7.660 -0.8151 -0.1956 -0.1996
  367MOL0     H49521   8.165  11.333   7.569 -0.1379  0.9414 -0.0580
  367MOL0     H49522   8.243  11.372   7.409  2.9745 -0.6096 -0.3104
  367MOL0     H49523   8.247  11.100   7.555 -0.3771  0.2626 -0.3895
  367MOL0     H49524   8.336  11.131   7.414  0.3329  0.6098  0.4632
  367MOL0     H49525   8.042  11.174   7.421  1.4102  0.0656  1.8465
  367MOL0     H49526   8.103  11.018   7.372  1.2281 -0.0288 -1.1710
  367MOL0     H49527   9.121  11.045   7.531 -2.9331 -4.9844  2.1264
  367MOL0     H49528   9.324  11.023   7.679 -0.2924 -1.0306 -1.0844
  367MOL0     H49529   9.431  11.045   8.118 -0.5169  0.6463 -0.9185
  367MOL0     H49530   9.591  10.961   8.276  0.5647  0.8647  2.2144
  367MOL0     H49531  10.741  10.202   7.904  0.7754 -0.5056  0.3337
  367MOL0     H49532  10.667   9.984   7.813 -0.7825  0.4507  2.0506
  367MOL0     H49533  10.639   9.612   7.696  0.1451  2.0817 -1.3428
  367MOL0     H49534  10.538   9.398   7.609  1.5827 -2.2741 -0.7908
  367MOL0     H49535  10.698   9.207   7.232  1.2240  1.9189  0.0763
  367MOL0     H49536  10.541   9.128   7.282  0.8947  0.0551  0.9059
  367MOL0     H49537  10.521   9.279   7.094 -0.7631  0.2503 -0.0942
  367MOL0     H49538  10.591   9.412   7.198  0.3118 -0.3704 -0.9360
  367MOL0     H49539  10.332   9.430   7.185 -1.3319 -1.9272 -1.8423
  367MOL0     H49540  10.392   9.386   7.349 -2.1598  0.0651 -0.5480
  367MOL0     H49541  10.322   9.149   7.303 -0.1634  0.1590 -0.9592
  367MOL0     H49542  10.310   9.180   7.129 -0.5783 -1.3675  0.9814
  367MOL0     H49543   9.948   9.328   7.298 -0.2613 -0.4282 -0.3142
  367MOL0     H49544  10.840   9.358   7.323  1.5284  4.1365 -1.7757
  367MOL0     H49545  10.983   9.545   7.441  0.3278  0.0004  0.2186
  368MOL0     O49546  10.508   7.484  10.864  0.1845 -0.1120 -0.3013
  368MOL0     C49547  10.487   7.453  10.983  0.8179  0.2304  0.3167
  368MOL0     O49548  10.572   7.459  11.082 -0.4787  0.1128 -0.6147
  368MOL0     C49549  10.711   7.489  11.070 -0.2878 -0.1142  0.1697
  368MOL0     C49550  10.784   7.441  10.956 -0.3727  0.6516  0.1186
  368MOL0     C49551  10.932   7.440  10.968  0.7264  0.0905  0.5699
  368MOL0     C49552  10.994   7.502  11.076 -0.4858  0.4580  0.3220
  368MOL0     O49553  11.131   7.499  11.062 -0.1844 -0.8790  0.2494
  368MOL0     C49554  11.212   7.436  11.165 -0.3147  0.2603  0.7952
  368MOL0     C49555  11.323   7.531  11.208  0.6650  0.1129  0.2053
  368MOL0     C49556  11.431   7.443  11.287 -0.1663 -0.1871  0.5465
  368MOL0     C49557  11.556   7.534  11.310 -0.0847 -0.1124 -0.2388
  368MOL0     C49558  11.655   7.474  11.412  0.4178  0.1458 -0.4044
  368MOL0     C49559  11.744   7.568  11.489  0.1611  0.9289 -0.3899
  368MOL0     C49560  11.853   7.634  11.410 -0.3330 -0.2121  0.5082
  368MOL0     C49561  11.972   7.554  11.376 -0.8300 -0.0989 -0.0317
  368MOL0     N49562  11.964   7.443  11.277  0.2296  0.3374  0.6109
  368MOL0     C49563  11.909   7.458  11.151 -0.2983 -0.6235  1.1815
  368MOL0     C49564  11.901   7.333  11.103  0.2674 -0.7578 -1.0706
  368MOL0     C49565  11.827   7.299  10.979  0.2199  0.2701 -0.0046
  368MOL0     C49566  11.776   7.151  10.970 -0.1649 -0.0405 -0.8805
  368MOL0     C49567  11.656   7.147  10.872 -0.6375  0.5109 -0.4360
  368MOL0     C49568  11.692   7.187  10.730 -0.4647 -0.4306 -0.5269
  368MOL0     O49569  11.579   7.163  10.651  0.4467 -0.2945 -0.4337
  368MOL0     C49570  11.475   7.250  10.652  0.7917 -0.0881  0.3198
  368MOL0     C49571  11.460   7.375  10.722  0.0612  0.7175  0.4339
  368MOL0     C49572  11.347   7.459  10.697 -0.3755 -0.1644  0.5212
  368MOL0     C49573  11.328   7.597  10.769 -0.3574  0.3375  0.7424
  368MOL0     C49574  11.233   7.410  10.624 -0.0983  0.5091 -0.1007
  368MOL0     C49575  11.108   7.480  10.607 -0.6089  0.3101 -0.4203
  368MOL0     O49576  10.998   7.403  10.617 -0.4413  0.4682 -0.1000
  368MOL0     C49577  10.883   7.464  10.577 -0.0149 -0.1974  0.6853
  368MOL0     C49578  10.818   7.430  10.459  0.0506  0.1741 -0.4623
  368MOL0     C49579  10.689   7.476  10.436  0.1492  0.2167 -1.0796
  368MOL0     C49580  10.613   7.549  10.528 -0.9329  1.1891  0.2840
  368MOL0     O49581  10.484   7.567  10.499 -0.2081 -0.6356 -0.1099
  368MOL0     C49582  10.396   7.643  10.590  0.0924  0.6179  0.7258
  368MOL0     C49583  10.266   7.650  10.511  0.4086  0.6699 -0.4299
  368MOL0     C49584  10.166   7.534  10.552  0.0474 -0.7487  0.5929
  368MOL0     C49585  10.023   7.574  10.532 -0.6608  0.0418 -0.7783
  368MOL0     C49586   9.924   7.458  10.548 -0.6140  0.7156 -0.0341
  368MOL0     C49587   9.781   7.513  10.539  0.8147 -0.3600 -0.3205
  368MOL0     C49588   9.672   7.412  10.588 -1.2485  0.0300 -0.4017
  368MOL0     C49589   9.532   7.454  10.545 -0.4098 -0.4263 -0.0529
  368MOL0    Cl49590   9.464   7.572  10.657  0.0871 -0.0162 -0.3650
  368MOL0     C49591  10.678   7.589  10.643 -0.6722  0.4889 -0.2214
  368MOL0     C49592  10.819   7.556  10.662  1.2764 -0.1150 -0.2599
  368MOL0     O49593  11.116   7.595  10.572  0.8088  0.2961  0.0118
  368MOL0     C49594  11.242   7.289  10.558  0.2129 -0.8422 -0.2818
  368MOL0     C49595  11.364   7.219  10.570 -0.3698  0.4624 -0.3211
  368MOL0     N49596  11.939   7.252  11.207 -0.1608 -0.1069  0.2428
  368MOL0     N49597  11.968   7.314  11.315  0.0973  0.0657 -0.4409
  368MOL0     C49598  10.919   7.558  11.181  0.2608 -0.0403  0.1690
  368MOL0     C49599  10.781   7.548  11.177  0.1879  0.4421 -0.2440
  368MOL0     C49600  10.338   7.451  11.034  0.2787  0.6637  0.8552
  368MOL0     C49601  10.308   7.466  11.172 -0.1187 -0.3235  1.4157
  368MOL0     C49602  10.171   7.449  11.215  0.0826 -0.1261  0.0048
  368MOL0     C49603  10.073   7.412  11.128 -0.3726  0.3608 -1.0528
  368MOL0     O49604   9.943   7.378  11.163 -0.1483 -0.2960  0.3788
  368MOL0     C49605   9.923   7.324  11.296 -0.1541  1.6242  0.5607
  368MOL0     C49606   9.958   7.174  11.307 -0.1413  0.0516 -0.1976
  368MOL0     C49607   9.950   7.119  11.455  0.1527  0.2028 -0.0502
  368MOL0     C49608   9.814   7.126  11.517  0.2445 -1.0294  0.0135
  368MOL0     C49609   9.804   7.061  11.648  0.4231  0.5211 -0.1258
  368MOL0     C49610   9.780   6.997  11.749 -0.1661  0.2710 -0.0068
  368MOL0     C49611  10.103   7.395  10.995 -0.1139 -0.0745 -0.3289
  368MOL0     C49612  10.238   7.410  10.947 -0.2598 -0.2116 -0.3557
  368MOL0     H49613  10.728   7.395  10.875 -1.3897  1.6113  0.2449
  368MOL0     H49614  10.987   7.401  10.884 -3.7563 -2.7434 -1.4591
  368MOL0     H49615  11.146   7.410  11.248  0.4829  0.0398  1.3773
  368MOL0     H49616  11.253   7.340  11.136 -1.0644  0.4799 -1.0944
  368MOL0     H49617  11.368   7.591  11.128  0.6364  1.9618  1.5117
  368MOL0     H49618  11.279   7.608  11.272  0.5145 -0.3753  0.6819
  368MOL0     H49619  11.395   7.420  11.388  4.2481  0.6416  2.5301
  368MOL0     H49620  11.467   7.352  11.240  1.7488  1.9157 -2.4230
  368MOL0     H49621  11.615   7.547  11.219 -2.9453 -2.3545 -2.5716
  368MOL0     H49622  11.521   7.629  11.352  0.7447 -0.6752  1.8771
  368MOL0     H49623  11.601   7.427  11.495  1.4063  0.4352  0.4266
  368MOL0     H49624  11.715   7.392  11.370  2.3577 -0.0177  2.4129
  368MOL0     H49625  11.678   7.644  11.531  0.2931  0.2256  1.1462
  368MOL0     H49626  11.793   7.517  11.572  0.6756 -0.3891 -1.4616
  368MOL0     H49627  11.810   7.675  11.318 -0.9409  3.7417  2.3160
  368MOL0     H49628  11.887   7.721  11.466 -0.1007  0.4869 -0.6851
  368MOL0     H49629  12.016   7.505  11.463 -0.7329 -2.6847 -1.4246
  368MOL0     H49630  12.042   7.626  11.333 -0.0683 -1.3972 -1.0783
  368MOL0     H49631  11.883   7.546  11.094  2.0248 -0.9253 -0.4783
  368MOL0     H49632  11.736   7.360  10.985 -0.1311 -0.2924  0.5521
  368MOL0     H49633  11.879   7.318  10.885 -1.0849  4.2262 -0.1084
  368MOL0     H49634  11.759   7.115  11.072  1.3531  0.3239 -0.4715
  368MOL0     H49635  11.858   7.086  10.938  0.8345  1.8246 -2.3078
  368MOL0     H49636  11.576   7.211  10.910  1.7065  2.7107  1.1193
  368MOL0     H49637  11.625   7.043  10.864  0.9465  0.1222 -2.1433
  368MOL0     H49638  11.774   7.127  10.688 -0.4203  0.9413 -2.5687
  368MOL0     H49639  11.719   7.293  10.733  1.0732 -0.7585  3.7931
  368MOL0     H49640  11.535   7.418  10.786 -0.0989 -0.7578  1.6909
  368MOL0     H49641  11.305   7.679  10.700  1.4456 -0.4473 -0.8944
  368MOL0     H49642  11.255   7.580  10.848 -0.4647  0.2637  0.6295
  368MOL0     H49643  11.418   7.633  10.819  0.0868 -0.2071  0.3462
  368MOL0     H49644  10.858   7.362  10.384 -1.5492  1.0342 -2.1657
  368MOL0     H49645  10.637   7.456  10.342 -2.6790  0.9778  0.2130
  368MOL0     H49646  10.385   7.592  10.686  0.0302  1.0278  0.9416
  368MOL0     H49647  10.429   7.747  10.605  0.7872  0.9599 -2.4395
  368MOL0     H49648  10.217   7.742  10.545 -1.4440 -0.1664 -0.7107
  368MOL0     H49649  10.266   7.665  10.403  1.6975  0.6221 -0.4483
  368MOL0     H49650  10.191   7.505  10.654  0.0691  0.0074  0.8043
  368MOL0     H49651  10.184   7.445  10.491 -0.1756 -0.2427 -0.2252
  368MOL0     H49652   9.998   7.659  10.596 -1.1379 -1.8607  1.7038
  368MOL0     H49653  10.011   7.607  10.428  2.2364  2.5608 -0.4535
  368MOL0     H49654   9.930   7.407  10.644 -3.2807  2.2174  1.0656
  368MOL0     H49655   9.933   7.383  10.469  3.3273  1.0868 -0.1227
  368MOL0     H49656   9.762   7.599  10.604 -1.9007 -1.2832  0.2572
  368MOL0     H49657   9.750   7.544  10.438  1.9780 -0.2737 -0.6647
  368MOL0     H49658   9.687   7.409  10.696  1.6239 -0.5961 -0.7442
  368MOL0     H49659   9.685   7.312  10.546  2.0151  0.0343  0.3398
  368MOL0     H49660   9.476   7.360  10.543  1.0302 -1.3509  0.8763
  368MOL0     H49661   9.534   7.496  10.444  1.7143 -0.6393 -0.1397
  368MOL0     H49662  10.645   7.651  10.726  1.3002  1.6650 -0.2491
  368MOL0     H49663  10.864   7.602  10.749 -0.3578  1.3568 -0.1292
  368MOL0     H49664  11.162   7.250  10.496  0.7188 -0.4230 -1.2115
  368MOL0     H49665  11.381   7.133  10.506  4.1440  0.8332  0.0596
  368MOL0     H49666  10.973   7.597  11.267  3.4511 -0.3579 -1.5193
  368MOL0     H49667  10.721   7.584  11.260 -0.4155 -2.4178  0.6710
  368MOL0     H49668  10.383   7.498  11.243  1.0065  3.1927 -1.0919
  368MOL0     H49669  10.164   7.463  11.322 -2.1045 -0.6989 -0.0224
  368MOL0     H49670   9.965   7.393  11.370  1.2900 -0.0270  1.3428
  368MOL0     H49671   9.817   7.330  11.323  0.0404 -1.1987  2.3891
  368MOL0     H49672  10.064   7.160  11.284  0.1320 -2.8727  2.2437
  368MOL0     H49673   9.887   7.116  11.247  0.4920  0.0215 -0.9352
  368MOL0     H49674  10.028   7.165  11.516  2.1809 -2.3664 -0.5268
  368MOL0     H49675   9.975   7.012  11.453  1.3542  0.4430  1.2243
  368MOL0     H49676   9.741   7.079  11.450  1.5106 -0.6861 -1.6669
  368MOL0     H49677   9.788   7.232  11.516  2.0222 -0.5602  0.4196
  368MOL0     H49678   9.753   6.933  11.832 -2.7526  2.5360  1.0665
  368MOL0     H49679  10.030   7.373  10.917  1.8871  2.1870 -3.0736
  368MOL0     H49680  10.260   7.386  10.844 -3.1191 -1.8941 -0.6750
  369MOL0     O49681   7.143  10.324   4.935  0.9783  0.2182 -0.0673
  369MOL0     C49682   7.156  10.203   4.921 -0.1453 -0.2822  0.3384
  369MOL0     O49683   7.062  10.122   4.872  0.0128 -0.3863 -1.1731
  369MOL0     C49684   6.933  10.175   4.845 -1.0876 -0.3357  0.0045
  369MOL0     C49685   6.901  10.239   4.735 -0.7533  0.1809  0.8702
  369MOL0     C49686   6.774  10.300   4.714  0.7508 -0.4337 -0.6117
  369MOL0     C49687   6.669  10.288   4.803  0.1884  0.9989  0.5849
  369MOL0     O49688   6.547  10.341   4.770  1.3239 -0.4446  0.1903
  369MOL0     C49689   6.441  10.319   4.861  0.1936 -0.8447  0.2826
  369MOL0     C49690   6.309  10.366   4.802 -0.8187  0.0124  0.2193
  369MOL0     C49691   6.187  10.367   4.895  0.4780  0.0386 -0.6086
  369MOL0     C49692   6.053  10.424   4.826  0.5834 -0.2972  0.6256
  369MOL0     C49693   5.940  10.416   4.925 -0.6539  0.0156 -0.3789
  369MOL0     C49694   5.821  10.500   4.881  0.7214  0.6719  0.0307
  369MOL0     C49695   5.702  10.491   4.985  0.6285 -0.1629 -0.2055
  369MOL0     C49696   5.591  10.596   4.952  0.0550  0.2633  0.6514
  369MOL0     N49697   5.502  10.562   4.841 -0.1221 -0.2509 -0.6969
  369MOL0     C49698   5.393  10.478   4.847  0.1010  1.2731  0.4073
  369MOL0     C49699   5.362  10.462   4.716 -1.2196 -0.1468 -0.0325
  369MOL0     C49700   5.254  10.391   4.650  0.2735  0.8408 -0.0885
  369MOL0     C49701   5.152  10.479   4.588 -0.0766  1.1280  0.0148
  369MOL0     C49702   5.086  10.414   4.467 -0.0651  0.1334  0.6020
  369MOL0     C49703   5.014  10.272   4.506 -0.1224 -0.3404  0.1387
  369MOL0     O49704   4.930  10.222   4.406 -0.0152 -0.6558 -0.5223
  369MOL0     C49705   4.796  10.253   4.412  0.2482 -1.1604 -0.3825
  369MOL0     C49706   4.737  10.363   4.492  0.5022 -1.2286 -0.2174
  369MOL0     C49707   4.606  10.401   4.486  0.7245  0.0481 -0.4957
  369MOL0     C49708   4.551  10.520   4.565 -1.0603 -0.2894 -0.0630
  369MOL0     C49709   4.521  10.326   4.402 -0.8212 -0.5970  0.8574
  369MOL0     C49710   4.375  10.345   4.376  0.0077  0.1449 -0.1720
  369MOL0     O49711   4.329  10.270   4.277  0.5240 -0.1935 -0.0560
  369MOL0     C49712   4.196  10.287   4.253 -0.7904  0.2810 -0.0101
  369MOL0     C49713   4.096  10.190   4.280 -0.7364 -0.4128  0.0287
  369MOL0     C49714   3.967  10.226   4.247  0.2985 -0.3950  0.3567
  369MOL0     C49715   3.939  10.343   4.161  0.7734  0.0145  0.3340
  369MOL0     O49716   3.807  10.350   4.114 -0.1338 -0.6857  0.2559
  369MOL0     C49717   3.784  10.419   3.990 -0.2451 -0.0243 -0.3609
  369MOL0     C49718   3.661  10.356   3.923 -0.5787  0.0932  0.5708
  369MOL0     C49719   3.537  10.377   4.004 -0.1186  0.0983  0.9699
  369MOL0     C49720   3.416  10.346   3.920 -0.3397 -0.4587 -0.2164
  369MOL0     C49721   3.392  10.204   3.882  1.0647  0.1977  0.2322
  369MOL0     C49722   3.334  10.122   4.007  0.1618 -0.2338 -0.1368
  369MOL0     C49723   3.315   9.970   3.976  0.1851  0.4088  0.2382
  369MOL0     C49724   3.226   9.899   4.076 -0.5587  0.3249  0.0410
  369MOL0    Cl49725   3.061   9.916   4.058 -0.4605  0.2226 -0.3251
  369MOL0     C49726   4.040  10.437   4.138  0.0900  0.7533  0.3438
  369MOL0     C49727   4.169  10.406   4.186 -0.1812  0.1787 -0.6259
  369MOL0     O49728   4.308  10.405   4.460 -0.0127  0.3370 -0.1772
  369MOL0     C49729   4.583  10.215   4.329 -0.2147  0.2599  0.2772
  369MOL0     C49730   4.714  10.175   4.329 -0.0406 -0.3896  0.2265
  369MOL0     N49731   5.459  10.525   4.631  0.1686 -0.1415 -0.0939
  369MOL0     N49732   5.540  10.583   4.712  0.2428 -0.1273 -0.8292
  369MOL0     C49733   6.705  10.213   4.922 -0.3290 -1.7643 -1.5736
  369MOL0     C49734   6.836  10.159   4.946  0.2724 -0.5146 -0.5884
  369MOL0     C49735   7.292  10.165   4.908  0.3159  0.0619 -0.7502
  369MOL0     C49736   7.401  10.237   4.958  0.4679 -0.3413  0.8266
  369MOL0     C49737   7.534  10.187   4.948  0.0693  0.7972 -0.0110
  369MOL0     C49738   7.556  10.059   4.888  0.2611 -0.0939  0.8214
  369MOL0     O49739   7.684  10.002   4.886  0.1297 -0.4623 -0.2724
  369MOL0     C49740   7.788  10.027   4.991 -0.3321 -0.6058 -0.5238
  369MOL0     C49741   7.874   9.902   4.977 -0.0127  0.0020 -0.8172
  369MOL0     C49742   8.014   9.906   5.043  0.0809  0.3989  0.3765
  369MOL0     C49743   8.111   9.979   4.952  0.5020  0.1532  0.5221
  369MOL0     C49744   8.233   9.980   5.024 -0.6046  0.9487 -0.5752
  369MOL0     C49745   8.330   9.994   5.091 -0.3708 -0.4832 -0.8438
  369MOL0     C49746   7.445   9.998   4.831  0.2739  0.4270  0.5330
  369MOL0     C49747   7.320  10.046   4.843  0.5476 -0.5050  0.9497
  369MOL0     H49748   6.977  10.248   4.657 -1.1114  1.3008  0.6313
  369MOL0     H49749   6.759  10.342   4.615 -2.1733 -1.0702 -0.5223
  369MOL0     H49750   6.426  10.217   4.898 -0.2216 -0.5262  1.0082
  369MOL0     H49751   6.468  10.377   4.949  1.5868  0.2750 -0.8302
  369MOL0     H49752   6.329  10.464   4.758 -1.1646 -0.1640 -0.3434
  369MOL0     H49753   6.294  10.295   4.720  0.4905 -0.0211 -0.0182
  369MOL0     H49754   6.163  10.265   4.925  1.5860  0.0598  0.4661
  369MOL0     H49755   6.216  10.437   4.975  1.8271 -2.2394  1.0145
  369MOL0     H49756   6.072  10.528   4.799 -0.0494 -0.7686 -1.9431
  369MOL0     H49757   6.020  10.373   4.735  0.8731  0.9544 -0.2048
  369MOL0     H49758   5.913  10.311   4.936  3.0592 -1.0018  0.3800
  369MOL0     H49759   5.974  10.442   5.026  0.7846  0.6050 -0.9895
  369MOL0     H49760   5.853  10.603   4.864 -0.7375  0.9660 -1.1319
  369MOL0     H49761   5.782  10.458   4.788  1.1759  0.7230 -0.1851
  369MOL0     H49762   5.651  10.394   4.990 -0.0779  0.2323  4.5288
  369MOL0     H49763   5.746  10.502   5.084 -0.4314 -0.5126  0.3230
  369MOL0     H49764   5.634  10.696   4.944  3.4356 -0.7875  3.1886
  369MOL0     H49765   5.531  10.598   5.044 -0.5318  0.0730  0.2738
  369MOL0     H49766   5.345  10.431   4.933  0.2557 -0.6217 -0.4889
  369MOL0     H49767   5.289  10.324   4.571 -2.4659  1.3678 -1.8739
  369MOL0     H49768   5.192  10.335   4.721 -1.0986 -1.4318 -2.8483
  369MOL0     H49769   5.193  10.573   4.549 -0.5282  0.5710 -1.9250
  369MOL0     H49770   5.070  10.510   4.654  0.3323  3.1461 -0.3318
  369MOL0     H49771   5.160  10.399   4.388 -0.7480 -1.4166  0.2045
  369MOL0     H49772   5.004  10.475   4.429 -0.5674 -1.4919 -1.0851
  369MOL0     H49773   4.959  10.292   4.598  0.1824  1.6539 -0.0533
  369MOL0     H49774   5.099  10.205   4.520 -0.1017  0.1028  2.5816
  369MOL0     H49775   4.803  10.405   4.567  1.4701 -2.2656 -0.4547
  369MOL0     H49776   4.528  10.607   4.502  0.7018 -0.7120 -1.3636
  369MOL0     H49777   4.468  10.490   4.629  0.8365 -0.1342  2.6595
  369MOL0     H49778   4.623  10.556   4.639 -1.1881 -0.5989  0.2115
  369MOL0     H49779   4.124  10.107   4.343 -0.0974  1.2077  2.0082
  369MOL0     H49780   3.875  10.171   4.267  0.0241  0.3252  1.1070
  369MOL0     H49781   3.759  10.524   4.011  0.7223  0.2867 -0.7219
  369MOL0     H49782   3.868  10.421   3.920 -0.8082  0.6815 -1.0522
  369MOL0     H49783   3.642  10.407   3.828  2.2166  1.4467  0.6182
  369MOL0     H49784   3.682  10.250   3.905 -1.1852  0.0245  0.2661
  369MOL0     H49785   3.530  10.481   4.037  2.5995  0.1631  1.5976
  369MOL0     H49786   3.547  10.314   4.093  2.9236 -2.3942 -0.9227
  369MOL0     H49787   3.331  10.376   3.982 -1.9032 -0.0646 -2.4120
  369MOL0     H49788   3.422  10.412   3.833 -0.4034 -0.3903 -0.1693
  369MOL0     H49789   3.477  10.147   3.843  1.1347 -0.1720  0.9103
  369MOL0     H49790   3.320  10.206   3.800  1.8125  1.6421 -0.4190
  369MOL0     H49791   3.400  10.129   4.094  0.7481  2.5290 -0.7164
  369MOL0     H49792   3.240  10.172   4.031 -0.6145 -1.9850  0.6398
  369MOL0     H49793   3.414   9.925   3.972  0.0453  0.0731  0.4739
  369MOL0     H49794   3.266   9.953   3.880 -0.3042  0.2056  0.5203
  369MOL0     H49795   3.256   9.947   4.169  0.0001  1.4004 -0.6638
  369MOL0     H49796   3.243   9.791   4.083 -3.5214 -0.2843 -0.7396
  369MOL0     H49797   4.027  10.515   4.064  1.3764 -1.3469 -2.2623
  369MOL0     H49798   4.248  10.480   4.177  1.8060 -1.0833  3.5824
  369MOL0     H49799   4.515  10.150   4.275  0.2893 -1.0019  1.1203
  369MOL0     H49800   4.756  10.094   4.271 -0.0401 -0.5941  0.5116
  369MOL0     H49801   6.634  10.191   5.001 -2.3242 -0.0053 -2.7617
  369MOL0     H49802   6.861  10.104   5.036 -0.5224 -1.0327 -0.6674
  369MOL0     H49803   7.382  10.336   4.997 -1.4854 -0.7115  0.9559
  369MOL0     H49804   7.621  10.238   4.989  0.1804  0.7544 -0.1891
  369MOL0     H49805   7.850  10.113   4.961 -0.0392  0.6319  3.1834
  369MOL0     H49806   7.756  10.030   5.095  2.3731 -0.6599  0.3948
  369MOL0     H49807   7.885   9.868   4.874  1.8202 -1.6348 -0.1337
  369MOL0     H49808   7.812   9.824   5.024  0.0532 -0.6188 -1.7305
  369MOL0     H49809   8.041   9.802   5.062 -2.6084 -0.6139 -0.8525
  369MOL0     H49810   8.012   9.953   5.141  2.6076 -0.2347  0.7872
  369MOL0     H49811   8.080  10.082   4.932 -0.6009 -0.4252 -0.9256
  369MOL0     H49812   8.114   9.928   4.855 -1.4295  1.4458 -0.2756
  369MOL0     H49813   8.424  10.004   5.142 -1.6543 -1.5223  1.9142
  369MOL0     H49814   7.446   9.898   4.787 -1.3912  0.9831 -0.9048
  369MOL0     H49815   7.240   9.989   4.798  0.3861 -0.5114  1.2468
  370MOL0     O49816  11.313   4.309   6.456 -0.0330 -0.7878 -0.1083
  370MOL0     C49817  11.237   4.369   6.377  0.4477  0.2638 -0.4128
  370MOL0     O49818  11.105   4.406   6.407  0.3969  0.0717  0.0483
  370MOL0     C49819  11.051   4.356   6.521 -0.2967 -0.5595 -0.8795
  370MOL0     C49820  11.005   4.442   6.630 -0.1082  0.6300  0.3372
  370MOL0     C49821  10.949   4.387   6.750 -0.3984  0.3718  0.0511
  370MOL0     C49822  10.925   4.249   6.764  0.2797  0.1244  0.9173
  370MOL0     O49823  10.874   4.210   6.883 -0.0885  0.4514  0.6418
  370MOL0     C49824  10.845   4.070   6.900 -0.1000 -0.1740 -0.3505
  370MOL0     C49825  10.748   4.061   7.019 -0.2433 -0.5082  0.0985
  370MOL0     C49826  10.713   3.914   7.052 -0.0300  0.5253  0.5861
  370MOL0     C49827  10.598   3.861   6.978  0.4023  0.2580 -0.4109
  370MOL0     C49828  10.550   3.708   7.009 -1.0509 -0.5474 -1.0315
  370MOL0     C49829  10.402   3.694   6.987  0.2774 -0.3776  0.1946
  370MOL0     C49830  10.356   3.556   7.038 -0.5173  0.1089 -0.3631
  370MOL0     C49831  10.238   3.504   6.956 -0.2032 -0.4993  0.2328
  370MOL0     N49832  10.194   3.369   7.003 -1.2125 -0.5527  0.0217
  370MOL0     C49833  10.158   3.271   6.916  0.2488 -0.1248 -0.1412
  370MOL0     C49834  10.095   3.182   6.989  0.0501 -0.5816 -0.4300
  370MOL0     C49835  10.032   3.054   6.939 -0.2744  0.5711 -0.4800
  370MOL0     C49836   9.893   3.078   6.890  0.5180 -0.2905 -0.4395
  370MOL0     C49837   9.846   2.966   6.802  0.1660  1.3397  0.6700
  370MOL0     C49838   9.782   2.856   6.877 -1.0126  0.0465  0.6382
  370MOL0     O49839   9.646   2.887   6.919 -0.4560 -0.6519  0.3828
  370MOL0     C49840   9.537   2.888   6.837 -0.1235  0.2279  0.7578
  370MOL0     C49841   9.538   2.842   6.703  0.1912 -0.1132  0.4922
  370MOL0     C49842   9.429   2.838   6.622 -0.2854 -0.1026 -0.0793
  370MOL0     C49843   9.452   2.805   6.473  0.4773  0.4258  0.0997
  370MOL0     C49844   9.310   2.890   6.686  0.1149 -0.1092 -0.2268
  370MOL0     C49845   9.165   2.871   6.629 -0.5862 -0.3049 -0.9683
  370MOL0     O49846   9.062   2.921   6.694 -0.5768 -0.4769 -0.4983
  370MOL0     C49847   8.947   2.943   6.627  0.0483 -1.1677 -0.1551
  370MOL0     C49848   8.866   2.831   6.593 -0.2310  0.1093 -1.1020
  370MOL0     C49849   8.750   2.841   6.519  0.0267 -0.0262  0.2767
  370MOL0     C49850   8.690   2.968   6.501 -0.3547  0.1353 -0.1665
  370MOL0     O49851   8.563   2.986   6.449 -0.2921  0.0546  0.8663
  370MOL0     C49852   8.466   2.885   6.457 -0.2707  0.1744  0.1026
  370MOL0     C49853   8.323   2.927   6.429  0.2740  0.2123  0.2550
  370MOL0     C49854   8.227   2.801   6.408 -0.2994 -0.1527 -0.1109
  370MOL0     C49855   8.083   2.845   6.362  0.3664  0.0926  0.0357
  370MOL0     C49856   8.000   2.725   6.308  0.0226 -0.2981  0.2239
  370MOL0     C49857   7.854   2.736   6.340  0.8973  0.5734 -0.0565
  370MOL0     C49858   7.756   2.619   6.301 -0.1086 -0.6820 -0.6684
  370MOL0     C49859   7.629   2.682   6.254  0.1392 -0.3129  0.3191
  370MOL0    Cl49860   7.645   2.772   6.118 -0.1429 -0.7404 -0.0301
  370MOL0     C49861   8.764   3.083   6.542 -0.7600 -0.5952  0.1871
  370MOL0     C49862   8.893   3.069   6.600 -0.1978 -0.2243  0.0370
  370MOL0     O49863   9.152   2.787   6.540 -0.2190 -0.1220  0.2290
  370MOL0     C49864   9.304   2.946   6.817 -0.3649  0.2000 -0.2313
  370MOL0     C49865   9.417   2.932   6.895 -0.8958  0.4106  0.2359
  370MOL0     N49866  10.111   3.215   7.117  1.0154  0.4043 -1.0023
  370MOL0     N49867  10.167   3.334   7.125  0.1357  0.5749 -0.5044
  370MOL0     C49868  10.965   4.167   6.652 -0.3379  0.0573  0.3197
  370MOL0     C49869  11.023   4.217   6.535 -0.1599  0.0128  0.7696
  370MOL0     C49870  11.304   4.407   6.252  0.2054  0.5453  0.7545
  370MOL0     C49871  11.443   4.375   6.235  1.3236 -0.5143 -0.8281
  370MOL0     C49872  11.504   4.403   6.114 -0.0419  0.0058 -0.8011
  370MOL0     C49873  11.439   4.450   6.004 -0.6304  0.6903  0.3096
  370MOL0     O49874  11.513   4.459   5.886 -0.1191 -0.0836  0.1525
  370MOL0     C49875  11.443   4.502   5.770 -0.4231  0.1416  0.3803
  370MOL0     C49876  11.528   4.470   5.648 -0.0748  0.6661  0.5646
  370MOL0     C49877  11.636   4.566   5.631  0.5166 -0.7893 -0.0290
  370MOL0     C49878  11.751   4.500   5.568 -0.2648  0.4980  0.0539
  370MOL0     C49879  11.847   4.601   5.522 -0.6125 -0.1090  0.0702
  370MOL0     C49880  11.925   4.689   5.486  0.0569 -0.1260 -0.8183
  370MOL0     C49881  11.305   4.481   6.015  0.6499 -0.2009  0.4929
  370MOL0     C49882  11.236   4.459   6.134 -0.5837  0.2934  0.1458
  370MOL0     H49883  11.030   4.548   6.630  0.4701  0.6131  4.0308
  370MOL0     H49884  10.926   4.452   6.834  0.3736 -0.3121  0.8030
  370MOL0     H49885  10.793   4.017   6.820 -0.7150 -0.6787  0.3616
  370MOL0     H49886  10.940   4.018   6.915 -1.0962 -2.0442 -0.2428
  370MOL0     H49887  10.793   4.110   7.106 -2.8816  0.2697  1.1072
  370MOL0     H49888  10.659   4.120   6.998 -0.4307 -0.6355  0.5196
  370MOL0     H49889  10.790   3.845   7.016  1.2353  1.5102  1.3376
  370MOL0     H49890  10.699   3.891   7.159 -2.5899  0.2597  0.2676
  370MOL0     H49891  10.513   3.924   7.006  0.4548 -0.0417  0.4512
  370MOL0     H49892  10.614   3.868   6.870  0.6351 -2.2009 -0.5888
  370MOL0     H49893  10.604   3.636   6.946 -1.4461  0.2238 -2.2833
  370MOL0     H49894  10.575   3.680   7.112  0.5762 -0.1437 -1.2855
  370MOL0     H49895  10.354   3.774   7.045  1.8717  0.5801  0.2558
  370MOL0     H49896  10.377   3.724   6.885  1.9426 -0.5252 -0.2829
  370MOL0     H49897  10.438   3.484   7.028  1.5726  2.1180  1.0190
  370MOL0     H49898  10.326   3.574   7.142 -2.9702  2.4373 -1.3459
  370MOL0     H49899  10.270   3.493   6.852  0.1868  1.4597  0.1073
  370MOL0     H49900  10.158   3.577   6.970  1.3315  1.7206 -1.7287
  370MOL0     H49901  10.171   3.272   6.808  2.9555  1.1762  0.0903
  370MOL0     H49902  10.093   3.013   6.858  1.0973  0.8687  0.3664
  370MOL0     H49903  10.030   2.981   7.021  1.7366  1.7410  0.6727
  370MOL0     H49904   9.889   3.169   6.829  0.3692 -1.2433 -1.8983
  370MOL0     H49905   9.818   3.097   6.968 -0.4632  1.1925 -1.6950
  370MOL0     H49906   9.919   2.925   6.732 -1.5255  1.1402 -1.0693
  370MOL0     H49907   9.766   3.009   6.741  1.8202  0.4806 -2.3194
  370MOL0     H49908   9.837   2.843   6.971 -3.8628  2.4789  2.8747
  370MOL0     H49909   9.786   2.765   6.816  1.6739  0.1803  0.4722
  370MOL0     H49910   9.639   2.819   6.671  0.7394 -1.2049  2.7605
  370MOL0     H49911   9.382   2.847   6.401  1.8155 -0.3051 -1.7067
  370MOL0     H49912   9.556   2.829   6.448  1.3557 -3.1569 -0.3060
  370MOL0     H49913   9.446   2.696   6.466  2.4824  0.1841  1.2008
  370MOL0     H49914   8.892   2.727   6.607 -2.4406 -0.8425 -3.2180
  370MOL0     H49915   8.693   2.751   6.500 -3.9463  2.3198 -0.1107
  370MOL0     H49916   8.506   2.819   6.380 -0.7059  3.3325 -3.1246
  370MOL0     H49917   8.475   2.847   6.559  3.6029  0.3605 -0.0285
  370MOL0     H49918   8.289   2.974   6.521  0.7829  0.5477  0.2761
  370MOL0     H49919   8.318   2.985   6.336  1.3955 -2.3255 -1.4769
  370MOL0     H49920   8.225   2.743   6.501 -0.7613 -0.5104 -0.3404
  370MOL0     H49921   8.263   2.746   6.320 -2.2382 -0.2385 -0.8982
  370MOL0     H49922   8.039   2.898   6.448  1.8997  0.3063  0.7232
  370MOL0     H49923   8.089   2.922   6.285 -1.5247  0.7782  0.5035
  370MOL0     H49924   8.037   2.627   6.341  0.0540 -1.0040 -1.7580
  370MOL0     H49925   8.019   2.722   6.201 -2.1010  1.0780 -0.2517
  370MOL0     H49926   7.843   2.747   6.448 -3.0859  0.4138 -0.3123
  370MOL0     H49927   7.814   2.831   6.304 -1.9629 -0.6173 -0.2362
  370MOL0     H49928   7.740   2.546   6.381 -0.5028  0.5877  0.4697
  370MOL0     H49929   7.790   2.569   6.211 -1.1258  0.9838 -2.0485
  370MOL0     H49930   7.599   2.761   6.324 -1.4215 -0.3086 -0.3082
  370MOL0     H49931   7.546   2.611   6.250 -0.4967  0.3995 -4.5935
  370MOL0     H49932   8.704   3.166   6.505  0.5564  0.4690  0.3554
  370MOL0     H49933   8.947   3.153   6.643 -0.7381  0.5190 -0.7155
  370MOL0     H49934   9.218   2.987   6.868  0.8493 -0.6247  2.6986
  370MOL0     H49935   9.426   2.958   7.000  0.6748  1.4558 -0.1291
  370MOL0     H49936  10.942   4.062   6.670 -0.8480  0.2562  0.8312
  370MOL0     H49937  11.040   4.146   6.454  2.4052  1.4137 -0.0150
  370MOL0     H49938  11.505   4.332   6.313  2.5630  0.4278 -1.2561
  370MOL0     H49939  11.609   4.378   6.110 -0.0395 -0.6331  1.6980
  370MOL0     H49940  11.362   4.429   5.768 -1.4044  1.1932  0.7918
  370MOL0     H49941  11.408   4.605   5.774  2.2441  1.0891  1.4049
  370MOL0     H49942  11.470   4.483   5.556  0.1373  2.6847  0.6728
  370MOL0     H49943  11.555   4.365   5.668  0.1087  1.0266  2.3904
  370MOL0     H49944  11.677   4.613   5.721 -1.2918 -1.6631  1.3007
  370MOL0     H49945  11.599   4.641   5.560  0.7138 -0.3542  0.3241
  370MOL0     H49946  11.717   4.448   5.477  1.2022 -0.0767 -0.1892
  370MOL0     H49947  11.795   4.431   5.640  0.3143 -1.0984 -1.7409
  370MOL0     H49948  11.994   4.766   5.460  2.0469 -2.1087 -1.8401
  370MOL0     H49949  11.241   4.512   5.933  1.0249 -1.4249 -0.2944
  370MOL0     H49950  11.128   4.465   6.125 -0.6089 -1.8591 -3.1861
  371MOL0     O49951   7.799  11.225   0.012  0.2443 -0.5237 -0.3337
  371MOL0     C49952   7.725  11.211   0.108 -0.5122 -0.1092  0.5637
  371MOL0     O49953   7.589  11.188   0.095  0.6629  0.1071 -0.5471
  371MOL0     C49954   7.543  11.169  -0.029 -0.4576 -0.4377  1.0536
  371MOL0     C49955   7.513  11.272  -0.116 -0.0003 -0.1782  0.4453
  371MOL0     C49956   7.459  11.240  -0.239 -0.0670 -0.6585  0.9572
  371MOL0     C49957   7.437  11.111  -0.274  0.7465  0.6049 -0.6066
  371MOL0     O49958   7.364  11.102  -0.391  0.0240  0.2336 -0.4235
  371MOL0     C49959   7.335  10.968  -0.445  0.5409  0.5276 -0.1878
  371MOL0     C49960   7.277  10.984  -0.581 -0.6047  0.6928 -0.8529
  371MOL0     C49961   7.236  10.847  -0.637 -0.1581  0.9771 -0.1461
  371MOL0     C49962   7.176  10.867  -0.778 -0.5536  0.0312 -0.6802
  371MOL0     C49963   7.115  10.739  -0.831  0.0006 -0.0674  0.1452
  371MOL0     C49964   7.048  10.736  -0.973  0.4624 -0.6435  0.2476
  371MOL0     C49965   6.942  10.854  -1.002 -0.7741 -0.0641 -0.1819
  371MOL0     C49966   6.833  10.875  -0.887 -0.3816  0.3121  0.2520
  371MOL0     N49967   6.713  10.950  -0.916  0.7963 -0.8012  0.3496
  371MOL0     C49968   6.718  11.068  -0.989 -0.3746 -0.2602 -0.3521
  371MOL0     C49969   6.594  11.113  -0.981  0.9770  0.2257 -0.0403
  371MOL0     C49970   6.561  11.253  -1.036 -0.3481  0.4738 -0.7437
  371MOL0     C49971   6.414  11.279  -1.036  0.6626  0.7233 -0.3926
  371MOL0     C49972   6.372  11.354  -1.158  0.0709 -0.2826  0.5082
  371MOL0     C49973   6.218  11.355  -1.166  0.3397 -0.6110  0.4648
  371MOL0     O49974   6.181  11.468  -1.248  0.4870  0.6134 -0.3442
  371MOL0     C49975   6.052  11.479  -1.288 -0.0474 -0.4128 -0.8157
  371MOL0     C49976   6.028  11.561  -1.399  0.6504 -1.2814  0.3735
  371MOL0     C49977   5.898  11.590  -1.443 -0.2128  0.1941  0.3228
  371MOL0     C49978   5.884  11.688  -1.554 -0.1902 -0.2355 -0.2881
  371MOL0     C49979   5.793  11.537  -1.360 -0.0583 -0.2891 -0.1448
  371MOL0     C49980   5.652  11.580  -1.385 -0.5309  0.8830  0.5114
  371MOL0     O49981   5.610  11.572  -1.518 -0.2826  0.1279 -0.7723
  371MOL0     C49982   5.484  11.581  -1.560  0.9115 -0.8587  0.0396
  371MOL0     C49983   5.374  11.554  -1.487  0.2270 -1.2729 -1.3256
  371MOL0     C49984   5.238  11.581  -1.528 -0.0902  0.2524 -0.5816
  371MOL0     C49985   5.228  11.650  -1.650  0.0951  0.5000  0.7842
  371MOL0     O49986   5.105  11.680  -1.714  0.2535  0.4653  0.1026
  371MOL0     C49987   5.085  11.644  -1.850  0.7468 -0.3587  0.3188
  371MOL0     C49988   4.932  11.624  -1.856 -0.3373  0.2943 -0.0121
  371MOL0     C49989   4.887  11.594  -2.003  0.7469  0.6775  0.3074
  371MOL0     C49990   4.869  11.715  -2.101 -0.1171  0.6505  0.3935
  371MOL0     C49991   4.816  11.680  -2.234 -0.1090  0.2919  0.8518
  371MOL0     C49992   4.769  11.813  -2.303  0.2454  0.2502  0.4005
  371MOL0     C49993   4.728  11.794  -2.453  0.2881  0.5515 -0.0597
  371MOL0     C49994   4.573  11.786  -2.464  0.1887  0.3322  0.1444
  371MOL0    Cl49995   4.527  11.744  -2.631  0.1534 -0.3154 -0.4372
  371MOL0     C49996   5.344  11.677  -1.730 -0.0400  0.1812  0.8512
  371MOL0     C49997   5.464  11.639  -1.682  0.3157  0.8928  0.8084
  371MOL0     O49998   5.581  11.596  -1.290 -0.1288 -0.5940 -0.2062
  371MOL0     C49999   5.820  11.471  -1.239 -0.1181 -1.3412 -0.8191
  371MOL0     C50000   5.947  11.432  -1.208 -0.8174  0.2023  0.2064
  371MOL0     N50001   6.524  11.033  -0.888  1.3757 -0.2885  0.5590
  371MOL0     N50002   6.598  10.941  -0.850  0.4030 -0.1391 -0.1558
  371MOL0     C50003   7.459  11.007  -0.187 -0.7143 -0.0068  0.2957
  371MOL0     C50004   7.507  11.042  -0.064 -0.0345 -0.2516 -0.2802
  371MOL0     C50005   7.781  11.187   0.246  0.5283  0.4509  0.5014
  371MOL0     C50006   7.915  11.181   0.271  0.1052  0.1998 -0.2838
  371MOL0     C50007   7.964  11.149   0.392 -0.1764 -0.4389 -0.0280
  371MOL0     C50008   7.881  11.126   0.500 -0.5472 -0.3287  0.2554
  371MOL0     O50009   7.929  11.090   0.625  0.4820 -0.1533  0.0437
  371MOL0     C50010   7.986  10.958   0.622 -0.6640 -1.0304  0.1807
  371MOL0     C50011   8.137  10.964   0.653  0.0949 -0.6319  0.2633
  371MOL0     C50012   8.196  10.830   0.632  0.5462 -0.1771  0.2906
  371MOL0     C50013   8.349  10.834   0.644 -0.9187 -0.7294 -0.2320
  371MOL0     C50014   8.401  10.862   0.776  0.1203 -0.6579 -0.8711
  371MOL0     C50015   8.442  10.883   0.891 -0.2120 -0.5152  0.3950
  371MOL0     C50016   7.744  11.135   0.479 -0.1151  0.2803 -0.0084
  371MOL0     C50017   7.685  11.153   0.356  0.0725  0.1145  0.6964
  371MOL0     H50018   7.519  11.378  -0.094 -1.6032  1.1266 -4.2928
  371MOL0     H50019   7.427  11.310  -0.315  2.3088 -3.6537 -3.2195
  371MOL0     H50020   7.420  10.899  -0.446  0.2317  0.1497 -0.6412
  371MOL0     H50021   7.259  10.916  -0.386  1.8086 -1.1249  0.0452
  371MOL0     H50022   7.188  11.048  -0.576  0.2613  1.9955 -1.4300
  371MOL0     H50023   7.337  11.030  -0.660 -2.7495 -0.8257 -3.5497
  371MOL0     H50024   7.323  10.780  -0.641  0.1863  1.1519  2.3945
  371MOL0     H50025   7.166  10.792  -0.572  2.0460 -1.0840  0.6692
  371MOL0     H50026   7.096  10.941  -0.778  0.9556  1.7477 -1.3677
  371MOL0     H50027   7.255  10.895  -0.849  0.8297  0.5261  0.9606
  371MOL0     H50028   7.202  10.673  -0.827  1.2309  1.5677  2.5429
  371MOL0     H50029   7.038  10.706  -0.760 -0.4136 -3.1510 -1.5589
  371MOL0     H50030   7.115  10.732  -1.059 -0.5680 -1.6034 -0.5256
  371MOL0     H50031   7.000  10.638  -0.972  0.7294 -0.8789 -2.5198
  371MOL0     H50032   6.998  10.948  -1.003 -1.4988  0.4309  1.9775
  371MOL0     H50033   6.890  10.826  -1.094 -0.9819 -0.9070  0.1840
  371MOL0     H50034   6.875  10.932  -0.804  2.6478  0.5696 -1.3306
  371MOL0     H50035   6.809  10.775  -0.851  0.7667 -0.7212 -1.7060
  371MOL0     H50036   6.803  11.110  -1.042  0.1134  1.2543  1.4957
  371MOL0     H50037   6.610  11.329  -0.974 -0.3320 -0.5665  0.5643
  371MOL0     H50038   6.612  11.253  -1.133  2.0418  1.5312  0.4185
  371MOL0     H50039   6.392  11.349  -0.954 -0.5742 -0.1948  0.0950
  371MOL0     H50040   6.356  11.187  -1.028 -0.0413  0.6798 -4.4152
  371MOL0     H50041   6.419  11.313  -1.248 -1.6963  0.5667 -0.8618
  371MOL0     H50042   6.420  11.450  -1.135  2.0451 -1.0919 -0.0439
  371MOL0     H50043   6.190  11.377  -1.063 -0.7432  2.8451 -0.4268
  371MOL0     H50044   6.183  11.259  -1.206 -2.0061  0.0936  0.6834
  371MOL0     H50045   6.111  11.622  -1.434 -0.3127 -0.2380 -0.1498
  371MOL0     H50046   5.848  11.786  -1.522  2.8822  2.5035 -4.2659
  371MOL0     H50047   5.982  11.695  -1.601  1.3841 -1.3131  2.5909
  371MOL0     H50048   5.812  11.648  -1.626  0.9883 -0.8835 -1.1431
  371MOL0     H50049   5.398  11.504  -1.393  1.5793 -3.1340 -2.6086
  371MOL0     H50050   5.161  11.564  -1.454  0.7544 -0.8126  0.0821
  371MOL0     H50051   5.117  11.730  -1.910 -2.4071  1.9314  1.6258
  371MOL0     H50052   5.127  11.546  -1.873  0.4294 -0.2329 -0.8970
  371MOL0     H50053   4.920  11.534  -1.795 -1.6387  1.7527  1.9989
  371MOL0     H50054   4.867  11.704  -1.819 -2.3213 -1.2945  0.0558
  371MOL0     H50055   4.800  11.528  -1.997  0.3708  1.2475  1.1658
  371MOL0     H50056   4.971  11.534  -2.041  1.9213  1.4968  1.4881
  371MOL0     H50057   4.801  11.787  -2.054 -0.9206  0.2588 -0.1477
  371MOL0     H50058   4.971  11.749  -2.120  1.1173 -0.2539  4.4628
  371MOL0     H50059   4.723  11.626  -2.215  0.6658 -1.0678  0.8950
  371MOL0     H50060   4.888  11.632  -2.302  2.0358  1.8253  1.9011
  371MOL0     H50061   4.693  11.864  -2.244  0.0020  0.9321 -0.4690
  371MOL0     H50062   4.848  11.890  -2.300  0.1400  0.3650  0.2602
  371MOL0     H50063   4.775  11.705  -2.496  1.1537  0.1324  1.6323
  371MOL0     H50064   4.765  11.879  -2.510  0.5208  1.3177  1.1817
  371MOL0     H50065   4.536  11.888  -2.448  0.9601  0.6924 -0.2576
  371MOL0     H50066   4.534  11.713  -2.393  1.2403 -1.2549 -0.8505
  371MOL0     H50067   5.347  11.724  -1.828  0.0389 -1.4629  0.0365
  371MOL0     H50068   5.555  11.650  -1.740  0.8604 -0.6203  1.3132
  371MOL0     H50069   5.740  11.438  -1.173  0.7620  2.2298  2.3512
  371MOL0     H50070   5.961  11.367  -1.123 -0.7536  0.0699  0.0939
  371MOL0     H50071   7.438  10.904  -0.215 -0.2463 -0.9523  3.0603
  371MOL0     H50072   7.521  10.973   0.019  2.0004  0.1608 -0.2278
  371MOL0     H50073   7.987  11.211   0.196  1.7074 -3.8008 -0.5923
  371MOL0     H50074   8.070  11.137   0.412  0.2309  1.6034 -0.7327
  371MOL0     H50075   7.939  10.895   0.698  1.0358  0.3012  2.4732
  371MOL0     H50076   7.968  10.915   0.523 -1.3203  0.8495 -0.5394
  371MOL0     H50077   8.153  10.989   0.759  0.6339 -3.6845  1.0107
  371MOL0     H50078   8.183  11.045   0.597  1.6424 -2.3570 -1.0935
  371MOL0     H50079   8.159  10.786   0.538  0.6948 -0.2097  0.2482
  371MOL0     H50080   8.164  10.754   0.704 -3.2832 -0.8036 -1.7909
  371MOL0     H50081   8.378  10.917   0.578 -0.4693  0.3227  1.2467
  371MOL0     H50082   8.375  10.733   0.612 -3.2250 -1.0139 -1.4122
  371MOL0     H50083   8.490  10.904   0.984  1.5576 -2.2941 -0.0463
  371MOL0     H50084   7.687  11.135   0.571  1.3429  0.5361  0.9236
  371MOL0     H50085   7.577  11.152   0.344  0.1892 -2.6403 -1.1472
  372MOL0     O50086   8.460   7.402   0.228  0.6758  0.6144 -0.1654
  372MOL0     C50087   8.528   7.489   0.276  0.4771  0.4409  0.7971
  372MOL0     O50088   8.474   7.606   0.323  0.3382  0.3650  0.6928
  372MOL0     C50089   8.338   7.614   0.329 -0.6674 -0.1849  0.2045
  372MOL0     C50090   8.236   7.524   0.345  0.0661  0.1533 -0.5988
  372MOL0     C50091   8.099   7.554   0.336 -0.5005  0.2658 -0.0214
  372MOL0     C50092   8.061   7.688   0.340  0.6493  0.0899 -0.0062
  372MOL0     O50093   7.931   7.729   0.364  0.5221  0.1110 -0.0377
  372MOL0     C50094   7.834   7.637   0.412 -0.0484 -0.4401  0.3100
  372MOL0     C50095   7.698   7.715   0.405  0.9469  0.6106  0.5650
  372MOL0     C50096   7.598   7.628   0.472  0.1731  0.7399  0.7299
  372MOL0     C50097   7.462   7.695   0.483  0.0215  0.0361  0.1331
  372MOL0     C50098   7.357   7.575   0.511 -0.5459  0.7130  0.1863
  372MOL0     C50099   7.215   7.624   0.533 -0.2064  0.1111  0.2810
  372MOL0     C50100   7.110   7.513   0.553  0.2419 -0.0837  0.1616
  372MOL0     C50101   7.137   7.427   0.678 -0.6331 -0.3640 -0.0798
  372MOL0     N50102   7.048   7.312   0.684 -1.4451 -0.3671 -0.3266
  372MOL0     C50103   6.918   7.314   0.648  0.6145 -0.2010 -0.8377
  372MOL0     C50104   6.871   7.195   0.688  0.0278  0.8671 -0.0453
  372MOL0     C50105   6.737   7.132   0.671 -0.6636  0.0122  0.5309
  372MOL0     C50106   6.610   7.220   0.672 -0.2192 -1.1159  0.4112
  372MOL0     C50107   6.577   7.267   0.814  0.7256  0.0452 -0.7175
  372MOL0     C50108   6.438   7.321   0.822  0.3047  0.2435 -0.2634
  372MOL0     O50109   6.343   7.239   0.737  0.1807 -0.2626 -0.5316
  372MOL0     C50110   6.205   7.250   0.758 -0.1052 -0.0936  0.3052
  372MOL0     C50111   6.135   7.169   0.675  0.5461  0.4539  0.2444
  372MOL0     C50112   5.996   7.172   0.667 -0.1876 -0.2522  0.4458
  372MOL0     C50113   5.939   7.080   0.558 -0.5428 -0.1301  0.3048
  372MOL0     C50114   5.929   7.271   0.740  0.4444 -0.3059 -0.4082
  372MOL0     C50115   5.783   7.289   0.735 -0.0685 -0.4156  0.2786
  372MOL0     O50116   5.711   7.182   0.714 -0.3225  0.3238  0.0628
  372MOL0     C50117   5.580   7.185   0.694  0.8220 -0.6631  0.1802
  372MOL0     C50118   5.530   7.213   0.569 -0.6178  1.0295  0.3377
  372MOL0     C50119   5.395   7.197   0.530 -0.1976  0.1228 -0.8636
  372MOL0     C50120   5.312   7.172   0.633  0.2106  0.0335 -0.7115
  372MOL0     O50121   5.171   7.175   0.620 -0.1533 -0.1596  0.5695
  372MOL0     C50122   5.120   7.281   0.549 -0.2853 -0.7781  0.5630
  372MOL0     C50123   4.972   7.304   0.588  0.6103  0.5402  0.5583
  372MOL0     C50124   4.948   7.420   0.667 -0.3525 -0.0491 -0.2424
  372MOL0     C50125   4.988   7.395   0.817 -0.0591  0.3042 -0.0486
  372MOL0     C50126   4.965   7.530   0.902 -0.4555 -0.5868  0.2097
  372MOL0     C50127   4.823   7.544   0.935  0.2301 -0.0188  0.0570
  372MOL0     C50128   4.792   7.675   1.016 -0.1601  0.4951 -0.3284
  372MOL0     C50129   4.653   7.661   1.063  0.3588  0.4650  0.8341
  372MOL0    Cl50130   4.602   7.795   1.170 -0.0845 -0.2775  0.4419
  372MOL0     C50131   5.365   7.139   0.757 -0.5639  0.5491 -0.3954
  372MOL0     C50132   5.500   7.149   0.793 -0.7252 -0.2832 -0.5498
  372MOL0     O50133   5.738   7.404   0.756 -0.2886 -0.5566 -0.6962
  372MOL0     C50134   6.001   7.362   0.824  0.4004 -0.2007  0.4866
  372MOL0     C50135   6.140   7.352   0.828 -0.6967  0.2060  0.7683
  372MOL0     N50136   6.974   7.118   0.745  0.8660  0.9460 -0.1628
  372MOL0     N50137   7.079   7.200   0.749  0.1864 -0.9008 -0.4123
  372MOL0     C50138   8.162   7.782   0.315 -0.0191 -0.8427 -0.1839
  372MOL0     C50139   8.295   7.747   0.322 -0.0828 -0.8100  0.7603
  372MOL0     C50140   8.663   7.472   0.287 -0.5877 -0.4021 -0.5564
  372MOL0     C50141   8.719   7.339   0.279  0.0865  0.7465 -0.4200
  372MOL0     C50142   8.858   7.323   0.299  0.1370 -0.5970 -0.3663
  372MOL0     C50143   8.943   7.430   0.328 -0.0560 -0.0107  0.2632
  372MOL0     O50144   9.073   7.398   0.365  0.8257  0.0988 -0.3363
  372MOL0     C50145   9.178   7.492   0.364  0.0573 -0.5309  0.0208
  372MOL0     C50146   9.302   7.434   0.440  0.0744 -0.5360  0.3613
  372MOL0     C50147   9.369   7.335   0.347 -0.1455 -0.8667  0.1134
  372MOL0     C50148   9.495   7.394   0.285  0.4384  0.4481 -0.4614
  372MOL0     C50149   9.470   7.479   0.170 -0.1188 -0.1463 -0.0887
  372MOL0     C50150   9.444   7.543   0.076 -0.6163 -0.7078  0.1995
  372MOL0     C50151   8.885   7.558   0.318 -0.5995  0.3725 -0.1883
  372MOL0     C50152   8.750   7.582   0.299 -0.7300  1.3405 -0.2300
  372MOL0     H50153   8.250   7.417   0.363 -3.9553 -0.2552  1.0088
  372MOL0     H50154   8.024   7.475   0.341 -0.9510  0.7231  0.6631
  372MOL0     H50155   7.845   7.547   0.351  0.9342 -1.4012  1.8539
  372MOL0     H50156   7.866   7.607   0.512  1.1540  0.4665  0.2271
  372MOL0     H50157   7.717   7.807   0.461  1.0964 -0.6215  2.6228
  372MOL0     H50158   7.674   7.748   0.303  2.4169  1.7287  0.5578
  372MOL0     H50159   7.593   7.534   0.417 -0.1101  0.7438  0.7443
  372MOL0     H50160   7.628   7.598   0.573 -0.6760 -1.1079  0.4756
  372MOL0     H50161   7.452   7.780   0.551 -0.4254  1.0177 -1.1221
  372MOL0     H50162   7.438   7.745   0.389 -0.3533  2.0152  1.2346
  372MOL0     H50163   7.349   7.513   0.421 -1.3374  4.1439 -2.3465
  372MOL0     H50164   7.401   7.519   0.593  0.4346  2.6801  1.0861
  372MOL0     H50165   7.220   7.690   0.620 -2.0647  1.4932 -0.6109
  372MOL0     H50166   7.186   7.695   0.455  1.2399  1.4471  0.9044
  372MOL0     H50167   7.020   7.573   0.573  2.6341  4.3010 -1.0808
  372MOL0     H50168   7.090   7.461   0.459 -1.2542  1.3383 -0.3705
  372MOL0     H50169   7.142   7.477   0.775 -0.0185 -0.6540  0.0445
  372MOL0     H50170   7.229   7.367   0.673 -1.6154 -2.3413  3.0018
  372MOL0     H50171   6.858   7.400   0.620 -0.0516 -0.1244  0.7241
  372MOL0     H50172   6.747   7.091   0.570 -0.0619  1.7128 -0.1317
  372MOL0     H50173   6.720   7.044   0.734  1.1770 -0.0528  1.0039
  372MOL0     H50174   6.529   7.162   0.627  1.4042 -3.8969  0.8290
  372MOL0     H50175   6.633   7.307   0.609 -0.5342 -0.4704  1.1729
  372MOL0     H50176   6.646   7.342   0.853  0.8546 -1.2063  1.6337
  372MOL0     H50177   6.579   7.179   0.879 -0.3833  1.0857  0.8093
  372MOL0     H50178   6.432   7.423   0.782  1.1629  2.0047  3.6107
  372MOL0     H50179   6.402   7.322   0.926 -2.0877 -1.0022 -1.0045
  372MOL0     H50180   6.186   7.100   0.609  0.5131  2.1791 -1.6771
  372MOL0     H50181   5.946   6.979   0.600  0.1425 -0.3734 -0.3661
  372MOL0     H50182   5.846   7.103   0.505 -0.7626 -1.2028  0.1971
  372MOL0     H50183   6.020   7.070   0.485  2.3560  1.1441  3.1176
  372MOL0     H50184   5.606   7.255   0.505  1.0735 -0.4297  1.3129
  372MOL0     H50185   5.351   7.213   0.432 -3.2236 -1.3333  0.1571
  372MOL0     H50186   5.170   7.377   0.557 -1.1137 -0.1038 -1.5148
  372MOL0     H50187   5.122   7.252   0.443 -0.1303 -0.8715  0.5930
  372MOL0     H50188   4.917   7.318   0.494  1.8924 -0.8762 -0.4563
  372MOL0     H50189   4.933   7.215   0.639 -1.6851  1.1792  0.0660
  372MOL0     H50190   4.848   7.461   0.651  1.1178  4.1961  0.3023
  372MOL0     H50191   5.004   7.501   0.619 -0.1428  0.0444  0.1543
  372MOL0     H50192   4.921   7.318   0.856 -1.7232  0.1496 -2.9323
  372MOL0     H50193   5.093   7.370   0.835  0.4663  1.4792 -1.2353
  372MOL0     H50194   5.004   7.620   0.854  1.4437 -1.0260  0.8487
  372MOL0     H50195   5.022   7.525   0.995 -1.4951  1.4629  1.0044
  372MOL0     H50196   4.765   7.523   0.845  2.1349 -0.6821 -1.0640
  372MOL0     H50197   4.801   7.461   1.004 -0.9959 -0.6825 -1.0767
  372MOL0     H50198   4.802   7.761   0.948  0.2223  0.6833 -0.0375
  372MOL0     H50199   4.863   7.696   1.097  0.2922 -1.0027 -0.3114
  372MOL0     H50200   4.628   7.560   1.096 -0.4810  0.5464  0.4902
  372MOL0     H50201   4.596   7.667   0.970 -1.0163  2.8823  1.7347
  372MOL0     H50202   5.304   7.109   0.841 -0.9983  2.6437  0.0946
  372MOL0     H50203   5.540   7.128   0.891 -0.2185  2.4950 -0.0658
  372MOL0     H50204   5.941   7.437   0.875 -3.6382 -3.6649  1.3940
  372MOL0     H50205   6.203   7.422   0.882  1.9631 -3.0662  2.3612
  372MOL0     H50206   8.144   7.887   0.299 -2.6170 -0.9357  1.5146
  372MOL0     H50207   8.366   7.828   0.330  1.9566 -2.7140  5.0475
  372MOL0     H50208   8.650   7.257   0.260 -1.2302  2.0125 -1.2737
  372MOL0     H50209   8.911   7.228   0.293 -1.1078 -1.2417 -1.7537
  372MOL0     H50210   9.219   7.520   0.266 -0.0870 -1.6113 -0.3690
  372MOL0     H50211   9.150   7.581   0.421  0.4364 -0.2450 -0.2321
  372MOL0     H50212   9.269   7.387   0.533 -0.2367 -1.1758 -0.0664
  372MOL0     H50213   9.370   7.515   0.469 -0.1993 -0.2606  0.2477
  372MOL0     H50214   9.309   7.294   0.264 -0.7172 -0.4974  0.3351
  372MOL0     H50215   9.403   7.251   0.408  1.5456 -2.4052 -2.7296
  372MOL0     H50216   9.554   7.310   0.248  0.4178  1.0297 -1.8478
  372MOL0     H50217   9.559   7.452   0.352 -0.1092  2.0944 -1.3001
  372MOL0     H50218   9.422   7.611  -0.004 -0.1548  0.1897  0.8140
  372MOL0     H50219   8.958   7.638   0.324  0.7197 -0.8388  0.8083
  372MOL0     H50220   8.705   7.680   0.293 -0.1005  1.5554 -1.8347
  373MOL0     O50221   1.375   1.507   0.123  0.2898 -0.3942  0.7434
  373MOL0     C50222   1.488   1.513   0.086 -0.2354  0.4425 -0.1948
  373MOL0     O50223   1.572   1.401   0.071 -0.1036 -0.4690 -0.7331
  373MOL0     C50224   1.523   1.284   0.109 -0.7513 -0.5472 -0.8216
  373MOL0     C50225   1.624   1.206   0.156  0.4649  1.1624 -0.0006
  373MOL0     C50226   1.584   1.076   0.196 -0.4641 -0.2003  0.7968
  373MOL0     C50227   1.461   1.022   0.167 -0.2048 -0.9067  0.0992
  373MOL0     O50228   1.453   0.897   0.211 -0.0989  0.3911 -0.3904
  373MOL0     C50229   1.334   0.817   0.179 -0.0466 -0.0305 -0.2605
  373MOL0     C50230   1.212   0.848   0.264  0.1597 -0.2321  0.2334
  373MOL0     C50231   1.088   0.765   0.225  0.0933 -0.3569  0.3317
  373MOL0     C50232   0.983   0.803   0.325  0.5618 -1.1881 -1.0273
  373MOL0     C50233   0.842   0.738   0.282 -1.1310  0.3269 -0.0822
  373MOL0     C50234   0.715   0.783   0.369 -0.2964 -1.0634  0.8477
  373MOL0     C50235   0.593   0.691   0.346  0.0974 -0.2647 -0.3209
  373MOL0     C50236   0.606   0.560   0.427 -0.7104  0.0327  0.3236
  373MOL0     N50237   0.480   0.486   0.437 -0.4026 -0.4141 -0.0680
  373MOL0     C50238   0.404   0.454   0.332  0.4470 -0.0375  0.4088
  373MOL0     C50239   0.296   0.390   0.388  0.1726  0.0954  0.5416
  373MOL0     C50240   0.193   0.334   0.300 -0.2838  1.1784  0.2624
  373MOL0     C50241   0.050   0.361   0.344 -0.1560  0.3253 -0.6170
  373MOL0     C50242  -0.049   0.319   0.231 -0.4040  0.0719  0.7463
  373MOL0     C50243  -0.055   0.403   0.109  0.0705  0.0559 -0.4381
  373MOL0     O50244  -0.152   0.355   0.019 -0.1479 -0.5358 -0.0661
  373MOL0     C50245  -0.280   0.398   0.036 -0.1059  0.7231 -0.6252
  373MOL0     C50246  -0.365   0.376  -0.075  0.3253  0.5987  0.1778
  373MOL0     C50247  -0.492   0.432  -0.085  0.2891 -0.8990  0.3428
  373MOL0     C50248  -0.563   0.394  -0.215  0.6117  0.5722 -0.1456
  373MOL0     C50249  -0.548   0.506   0.026 -0.1487 -0.2997  0.7472
  373MOL0     C50250  -0.681   0.566   0.026 -0.5297  0.3486 -0.0445
  373MOL0     O50251  -0.735   0.587   0.146 -0.1510 -0.7321 -0.4560
  373MOL0     C50252  -0.868   0.626   0.149  0.7119  0.5033  0.4632
  373MOL0     C50253  -0.905   0.757   0.132  0.3585  0.2811 -0.4830
  373MOL0     C50254  -1.039   0.795   0.117  0.2580 -0.0703 -0.8259
  373MOL0     C50255  -1.141   0.695   0.137 -0.8177 -0.0804 -0.3679
  373MOL0     O50256  -1.279   0.718   0.131 -0.4355 -0.3109 -0.3249
  373MOL0     C50257  -1.320   0.847   0.166 -0.0368 -0.0700 -0.5671
  373MOL0     C50258  -1.471   0.831   0.193  0.2813 -0.1091 -0.5918
  373MOL0     C50259  -1.517   0.961   0.253 -0.0096 -0.5015 -0.0648
  373MOL0     C50260  -1.663   0.953   0.296 -0.1435 -0.4407  0.6909
  373MOL0     C50261  -1.712   1.089   0.363 -0.6983 -0.9039 -0.0245
  373MOL0     C50262  -1.748   1.200   0.266 -0.6123  0.8588  0.4952
  373MOL0     C50263  -1.837   1.319   0.323  0.0440  0.5613  0.0850
  373MOL0     C50264  -1.749   1.421   0.397  0.7250 -0.0946 -0.2179
  373MOL0    Cl50265  -1.849   1.536   0.474  0.4570 -0.8760 -0.1324
  373MOL0     C50266  -1.105   0.566   0.146 -0.8812  0.4524 -1.2019
  373MOL0     C50267  -0.965   0.529   0.158 -0.4654 -0.7588  0.2908
  373MOL0     O50268  -0.733   0.593  -0.081  0.3191 -0.5436  0.2238
  373MOL0     C50269  -0.468   0.507   0.141  0.0072 -0.4799  0.6090
  373MOL0     C50270  -0.337   0.459   0.149  0.2566 -0.2701  0.6259
  373MOL0     N50271   0.323   0.360   0.517 -0.0982 -0.7027 -0.7342
  373MOL0     N50272   0.429   0.425   0.548  0.3045 -0.0994 -0.1931
  373MOL0     C50273   1.366   1.103   0.102  1.2124 -0.3688 -0.1372
  373MOL0     C50274   1.397   1.238   0.070  0.5701 -0.0995  0.0544
  373MOL0     C50275   1.551   1.643   0.057 -0.3097 -0.6076 -1.0155
  373MOL0     C50276   1.688   1.646   0.024 -0.1924 -0.8212  0.2839
  373MOL0     C50277   1.758   1.769   0.022  0.7928  0.3639 -0.4410
  373MOL0     C50278   1.692   1.887   0.052  0.7905 -0.7471 -0.0479
  373MOL0     O50279   1.762   2.012   0.065 -0.1275  0.5185 -0.1956
  373MOL0     C50280   1.895   2.020   0.004  0.8652 -0.3623 -0.7056
  373MOL0     C50281   1.950   2.172   0.004  0.2443  0.3213  0.3215
  373MOL0     C50282   2.081   2.173  -0.065  0.2327 -0.4232 -0.4936
  373MOL0     C50283   2.085   2.121  -0.217  1.2394 -0.3197 -0.1021
  373MOL0     C50284   2.220   2.129  -0.276  0.5820  0.3908  1.0681
  373MOL0     C50285   2.327   2.145  -0.322 -0.3179  0.6861  0.5011
  373MOL0     C50286   1.551   1.884   0.071 -0.5629  0.7518 -0.7214
  373MOL0     C50287   1.482   1.763   0.077  0.1185 -0.1163 -0.1538
  373MOL0     H50288   1.724   1.246   0.174  1.3219 -0.7267 -0.2838
  373MOL0     H50289   1.651   1.007   0.248  0.8286  1.3677  1.3175
  373MOL0     H50290   1.303   0.842   0.077 -1.8571  0.6297  0.4095
  373MOL0     H50291   1.361   0.711   0.188  1.1282  0.3957  1.6107
  373MOL0     H50292   1.244   0.827   0.367  0.0630 -0.5679  0.1941
  373MOL0     H50293   1.188   0.955   0.259 -0.6553 -0.3323  1.4899
  373MOL0     H50294   1.057   0.792   0.124  0.1362  1.3130  0.7355
  373MOL0     H50295   1.116   0.660   0.235  2.2009  0.0590 -0.6987
  373MOL0     H50296   1.015   0.775   0.426  0.4603  1.1721 -0.2938
  373MOL0     H50297   0.966   0.911   0.333  1.5170 -1.1785  3.0206
  373MOL0     H50298   0.821   0.768   0.179  3.0871  0.7488 -0.9644
  373MOL0     H50299   0.855   0.629   0.290  2.6211  0.7319  0.9524
  373MOL0     H50300   0.750   0.794   0.472 -1.2262  2.0716  0.9282
  373MOL0     H50301   0.694   0.882   0.328 -5.0156 -0.8836  3.1549
  373MOL0     H50302   0.508   0.753   0.373  1.1242  2.2720 -2.4501
  373MOL0     H50303   0.578   0.669   0.240 -1.8101  0.3588 -0.2053
  373MOL0     H50304   0.644   0.577   0.528 -0.4748  0.7106  0.1249
  373MOL0     H50305   0.666   0.480   0.381 -0.1864 -0.3415  1.6213
  373MOL0     H50306   0.431   0.478   0.229 -0.7372 -2.0858 -0.4476
  373MOL0     H50307   0.200   0.386   0.205 -0.0845  3.7935  1.6250
  373MOL0     H50308   0.208   0.226   0.286 -0.5379  1.3997 -2.0482
  373MOL0     H50309   0.039   0.468   0.365 -0.8909  0.4279 -1.4635
  373MOL0     H50310   0.032   0.299   0.433 -1.2802  1.0512 -0.3081
  373MOL0     H50311  -0.150   0.314   0.271 -1.3438 -2.0358 -1.6029
  373MOL0     H50312  -0.021   0.217   0.201  3.6515  1.8524 -2.5944
  373MOL0     H50313   0.041   0.395   0.056 -0.2690 -0.6559 -0.9467
  373MOL0     H50314  -0.064   0.508   0.141 -0.3531 -0.5035  1.3426
  373MOL0     H50315  -0.329   0.312  -0.154 -1.1034 -0.9496  0.7197
  373MOL0     H50316  -0.493   0.383  -0.298 -0.2800 -0.4146 -0.8067
  373MOL0     H50317  -0.602   0.292  -0.202 -1.9827  1.6647  1.5163
  373MOL0     H50318  -0.644   0.460  -0.247  2.2418  2.4316 -0.5827
  373MOL0     H50319  -0.827   0.831   0.118  1.3253 -0.8701 -1.5095
  373MOL0     H50320  -1.065   0.899   0.099  0.1929  0.5774  2.4697
  373MOL0     H50321  -1.283   0.866   0.268  2.3767 -0.6401 -1.2562
  373MOL0     H50322  -1.303   0.922   0.089 -3.7322  1.8151  0.2387
  373MOL0     H50323  -1.526   0.816   0.100 -0.7857  0.5139 -0.0784
  373MOL0     H50324  -1.484   0.747   0.262  0.2320 -0.1973 -0.7083
  373MOL0     H50325  -1.517   1.042   0.179 -1.1724 -0.3893  0.0416
  373MOL0     H50326  -1.455   1.001   0.334 -0.9329  2.7785 -0.8004
  373MOL0     H50327  -1.734   0.934   0.215  1.1068  4.0172 -1.7985
  373MOL0     H50328  -1.664   0.871   0.369 -0.8296 -1.4228 -0.3875
  373MOL0     H50329  -1.634   1.125   0.431 -0.6678  0.5756 -0.8051
  373MOL0     H50330  -1.802   1.070   0.423 -0.2563  0.4047  1.1087
  373MOL0     H50331  -1.655   1.248   0.236 -1.1201  1.5447 -0.0309
  373MOL0     H50332  -1.797   1.148   0.183  0.9439  0.7593 -0.3854
  373MOL0     H50333  -1.916   1.283   0.388 -1.1419  0.0126 -1.5831
  373MOL0     H50334  -1.889   1.361   0.236  0.7202 -1.6635 -1.5151
  373MOL0     H50335  -1.687   1.480   0.329 -0.7565  3.1546  1.0084
  373MOL0     H50336  -1.677   1.379   0.468 -0.0949  1.0989  1.3986
  373MOL0     H50337  -1.189   0.498   0.142 -2.8049  2.2706  2.6979
  373MOL0     H50338  -0.932   0.425   0.160  0.6662 -0.6105 -3.4932
  373MOL0     H50339  -0.516   0.537   0.233  0.6718 -1.8298  1.4287
  373MOL0     H50340  -0.279   0.470   0.240  0.4668  2.3102  0.2481
  373MOL0     H50341   1.275   1.050   0.075  0.0022 -0.7364  3.9589
  373MOL0     H50342   1.318   1.297   0.024  1.4141  0.2923 -0.9625
  373MOL0     H50343   1.755   1.562   0.006  0.8624  0.4915 -2.4729
  373MOL0     H50344   1.865   1.755   0.007  0.4151 -2.7500 -0.9502
  373MOL0     H50345   1.961   1.967   0.073 -0.6833 -1.0677  0.2985
  373MOL0     H50346   1.906   1.974  -0.094  2.9404 -1.3988 -0.0347
  373MOL0     H50347   1.963   2.210   0.105  2.2250 -0.0886  0.2501
  373MOL0     H50348   1.880   2.232  -0.055  0.1460  0.4572  0.5792
  373MOL0     H50349   2.139   2.104  -0.003 -0.1142 -0.8972 -0.6909
  373MOL0     H50350   2.128   2.272  -0.067 -0.0074 -0.3072 -0.4104
  373MOL0     H50351   2.020   2.189  -0.272  1.8541  1.8142  1.6440
  373MOL0     H50352   2.060   2.016  -0.231  0.9997  0.0711 -3.1389
  373MOL0     H50353   2.417   2.158  -0.379  0.2327 -3.7004  0.0706
  373MOL0     H50354   1.491   1.969   0.102 -0.8906  0.9807 -1.9227
  373MOL0     H50355   1.380   1.751   0.112  0.7333  0.4699  1.9858
  374MOL0     O50356   7.402   2.259   0.974 -0.0243  0.1616  0.9308
  374MOL0     C50357   7.434   2.215   0.859  0.3272 -0.1435  0.1306
  374MOL0     O50358   7.348   2.162   0.770  0.2883 -0.0459 -0.3144
  374MOL0     C50359   7.214   2.150   0.800 -0.1548  0.3083 -0.0830
  374MOL0     C50360   7.177   2.089   0.922  0.5235  0.9635 -0.0972
  374MOL0     C50361   7.043   2.067   0.960  0.5299  0.5178 -0.3390
  374MOL0     C50362   6.940   2.113   0.878  0.0424 -0.2286  0.3166
  374MOL0     O50363   6.800   2.098   0.889  0.0081  0.3933 -0.2755
  374MOL0     C50364   6.754   1.975   0.951  0.2225 -0.0730 -0.1256
  374MOL0     C50365   6.603   1.976   0.985  0.4011 -0.4356  0.8104
  374MOL0     C50366   6.533   1.919   0.862  0.3778 -0.6405  0.0236
  374MOL0     C50367   6.384   1.941   0.877 -0.1823 -0.2747  0.6764
  374MOL0     C50368   6.298   1.874   0.766  0.3301  0.2287 -0.3610
  374MOL0     C50369   6.287   1.968   0.638 -0.0176  0.2334  0.1518
  374MOL0     C50370   6.180   1.923   0.546 -0.5388 -0.3952 -0.2609
  374MOL0     C50371   6.173   1.768   0.529  0.0401  0.2029 -0.0226
  374MOL0     N50372   6.082   1.741   0.417  0.0458  0.0495 -0.2884
  374MOL0     C50373   6.040   1.617   0.362  0.4157  0.1210  0.0198
  374MOL0     C50374   5.942   1.649   0.268  0.6644  0.2622  0.4650
  374MOL0     C50375   5.863   1.547   0.188  0.0742  0.0956  0.1027
  374MOL0     C50376   5.816   1.609   0.051  0.6379 -1.2897  1.0566
  374MOL0     C50377   5.948   1.640  -0.040  0.8240  0.3045 -0.2115
  374MOL0     C50378   5.987   1.517  -0.125 -0.2787 -0.0144  0.4955
  374MOL0     O50379   6.124   1.542  -0.175  0.1646  0.0082  0.2396
  374MOL0     C50380   6.171   1.457  -0.274 -0.4555  0.8128  0.8612
  374MOL0     C50381   6.313   1.471  -0.296  0.5613  0.4583  0.3237
  374MOL0     C50382   6.383   1.378  -0.386 -0.0589  0.1450 -0.9449
  374MOL0     C50383   6.533   1.389  -0.404  0.6022 -0.3048  0.4505
  374MOL0     C50384   6.304   1.285  -0.458 -0.6245  0.0706  0.1337
  374MOL0     C50385   6.357   1.192  -0.558 -1.1220 -0.4228  0.8151
  374MOL0     O50386   6.293   1.068  -0.570 -0.2414 -0.9496 -0.3597
  374MOL0     C50387   6.349   0.980  -0.660  0.9589 -0.1729 -0.5181
  374MOL0     C50388   6.477   0.950  -0.650  0.0391 -0.1240  0.2099
  374MOL0     C50389   6.534   0.867  -0.737 -0.1574  0.2478  0.3218
  374MOL0     C50390   6.460   0.798  -0.837  0.5177 -0.0072  0.3347
  374MOL0     O50391   6.503   0.703  -0.920 -0.1018  0.4149  0.2076
  374MOL0     C50392   6.639   0.662  -0.931 -0.2298  0.1044 -0.2245
  374MOL0     C50393   6.733   0.751  -1.006  0.2064  0.3644  0.8018
  374MOL0     C50394   6.662   0.780  -1.141 -0.2221 -0.1984 -0.8287
  374MOL0     C50395   6.764   0.842  -1.232  0.4292  0.1791 -0.4599
  374MOL0     C50396   6.715   0.900  -1.362  0.9247  0.4575  0.1559
  374MOL0     C50397   6.594   0.997  -1.352  0.1169  0.9247  0.3790
  374MOL0     C50398   6.549   1.045  -1.482  1.1310  0.3444 -0.0275
  374MOL0     C50399   6.450   0.943  -1.536  0.3612 -0.4232 -0.2949
  374MOL0    Cl50400   6.400   0.982  -1.706  0.3619 -0.2009 -0.1816
  374MOL0     C50401   6.318   0.818  -0.844 -0.4325  0.3732  0.5930
  374MOL0     C50402   6.264   0.913  -0.752 -0.1525  0.7102  0.5327
  374MOL0     O50403   6.444   1.235  -0.637  0.2270  0.1657  0.0792
  374MOL0     C50404   6.166   1.279  -0.429 -0.2360  0.2596 -0.7058
  374MOL0     C50405   6.101   1.360  -0.343  0.2444 -0.0590  0.4240
  374MOL0     N50406   5.926   1.789   0.275  0.2055  0.3584  0.4283
  374MOL0     N50407   6.012   1.838   0.357  0.3717 -0.6206  0.1709
  374MOL0     C50408   6.984   2.176   0.760 -0.7114 -0.3836 -0.7889
  374MOL0     C50409   7.118   2.193   0.713  0.7613  0.0976  0.4433
  374MOL0     C50410   7.585   2.212   0.840  0.2573  0.5603  0.0156
  374MOL0     C50411   7.647   2.141   0.733 -0.0711 -0.3432  1.0323
  374MOL0     C50412   7.780   2.141   0.708 -0.1826 -0.2323  0.0003
  374MOL0     C50413   7.869   2.209   0.785  0.6673 -0.7823  0.7928
  374MOL0     O50414   8.008   2.209   0.775 -0.1664  0.0432 -0.1633
  374MOL0     C50415   8.061   2.132   0.661 -0.2828  0.2562  0.0430
  374MOL0     C50416   8.207   2.139   0.689  0.5464 -0.4130  0.2668
  374MOL0     C50417   8.260   2.274   0.644  0.1638  0.2084  0.0288
  374MOL0     C50418   8.412   2.267   0.662  0.4691 -1.0882 -0.8087
  374MOL0     C50419   8.469   2.388   0.597  0.0991 -0.5234  0.0169
  374MOL0     C50420   8.496   2.496   0.548  1.0118  0.4520 -0.1720
  374MOL0     C50421   7.818   2.273   0.895  0.0524 -0.2790 -0.0953
  374MOL0     C50422   7.674   2.277   0.924 -0.2535  0.8871  0.4666
  374MOL0     H50423   7.251   2.054   0.994  1.2851  0.0174 -1.2930
  374MOL0     H50424   7.022   2.036   1.061 -1.0535 -0.9456 -1.0647
  374MOL0     H50425   6.776   1.887   0.890  0.0836  0.2076 -0.5879
  374MOL0     H50426   6.806   1.962   1.046 -0.1005 -0.7834 -0.0390
  374MOL0     H50427   6.574   1.911   1.067  1.4855 -0.8719  0.8732
  374MOL0     H50428   6.581   2.080   1.010  1.1140 -0.5582  2.0146
  374MOL0     H50429   6.565   1.980   0.777  1.5419 -1.5952 -0.2477
  374MOL0     H50430   6.560   1.817   0.835  0.2388 -0.6060 -0.2397
  374MOL0     H50431   6.363   1.902   0.977 -0.6986  0.1011  0.7217
  374MOL0     H50432   6.361   2.047   0.893  0.2711 -0.2885  1.4356
  374MOL0     H50433   6.346   1.781   0.737 -0.2053  1.0570 -4.5327
  374MOL0     H50434   6.199   1.855   0.809  0.6638  0.6866  0.6348
  374MOL0     H50435   6.267   2.072   0.666 -4.1940 -0.6280  0.9661
  374MOL0     H50436   6.382   1.958   0.584 -1.0512 -1.1940 -1.5039
  374MOL0     H50437   6.083   1.964   0.575  0.1306 -0.3408  2.0851
  374MOL0     H50438   6.219   1.955   0.449  2.4060 -3.4818 -0.2991
  374MOL0     H50439   6.124   1.721   0.615 -2.1637  2.9769  0.3977
  374MOL0     H50440   6.267   1.715   0.514 -0.5386 -0.5348 -1.1657
  374MOL0     H50441   6.067   1.514   0.385 -0.2457 -0.3224 -1.1321
  374MOL0     H50442   5.919   1.454   0.175  0.6865  0.4369  0.2495
  374MOL0     H50443   5.778   1.514   0.247 -0.0746 -0.5264 -0.4434
  374MOL0     H50444   5.775   1.707   0.073  1.0405 -1.7046  3.9984
  374MOL0     H50445   5.743   1.543   0.003  2.2592 -3.5532  1.5147
  374MOL0     H50446   6.034   1.655   0.026  1.3631 -1.6496 -0.3970
  374MOL0     H50447   5.940   1.735  -0.093  0.2203  0.3684 -0.0206
  374MOL0     H50448   5.919   1.517  -0.210  0.0204 -0.2479  0.2580
  374MOL0     H50449   5.975   1.417  -0.081 -1.4061 -0.1223 -0.0411
  374MOL0     H50450   6.364   1.559  -0.258  4.6794  0.3575 -3.9983
  374MOL0     H50451   6.558   1.434  -0.500  0.5666 -1.5655 -0.1722
  374MOL0     H50452   6.580   1.454  -0.330  2.8260 -1.6638  0.3296
  374MOL0     H50453   6.580   1.292  -0.387 -1.0685 -0.9187  1.8377
  374MOL0     H50454   6.552   1.000  -0.589  1.9036  0.3936 -2.3358
  374MOL0     H50455   6.637   0.837  -0.718 -1.0244 -1.1861  3.4798
  374MOL0     H50456   6.686   0.649  -0.833 -2.1371  2.0809  1.0179
  374MOL0     H50457   6.650   0.565  -0.981  2.6703  0.3264 -0.2027
  374MOL0     H50458   6.760   0.846  -0.958  0.0946  1.4351 -1.1420
  374MOL0     H50459   6.823   0.691  -1.020  1.2323  2.2065 -1.0998
  374MOL0     H50460   6.577   0.844  -1.117 -0.7151 -0.5697 -1.5222
  374MOL0     H50461   6.633   0.680  -1.176  1.2096 -0.7618 -0.4840
  374MOL0     H50462   6.812   0.921  -1.174  1.6269 -1.4578  0.9004
  374MOL0     H50463   6.845   0.772  -1.254  1.0605  1.1424 -1.3002
  374MOL0     H50464   6.688   0.812  -1.422  2.9533 -0.1620  0.0881
  374MOL0     H50465   6.800   0.944  -1.413 -2.0352  2.2506 -3.7684
  374MOL0     H50466   6.505   0.952  -1.308  0.4019  0.6122  0.6365
  374MOL0     H50467   6.615   1.079  -1.282  2.4614 -1.0229  2.1004
  374MOL0     H50468   6.632   1.045  -1.554  0.6571  1.2293 -0.5884
  374MOL0     H50469   6.493   1.139  -1.477  0.3448 -0.0648 -0.7175
  374MOL0     H50470   6.357   0.943  -1.477  0.1079 -1.9444 -0.6629
  374MOL0     H50471   6.489   0.842  -1.526  1.2190 -0.3071 -2.0809
  374MOL0     H50472   6.259   0.768  -0.920  2.0145 -0.0824 -1.1082
  374MOL0     H50473   6.158   0.933  -0.758 -0.0080  1.1296 -1.3311
  374MOL0     H50474   6.112   1.206  -0.489  0.1536 -0.9120  0.3260
  374MOL0     H50475   5.993   1.353  -0.338  0.3171 -0.4317  2.1410
  374MOL0     H50476   6.904   2.215   0.697 -2.2211 -1.1044  0.6220
  374MOL0     H50477   7.143   2.254   0.626 -0.2966  2.8472  1.9138
  374MOL0     H50478   7.576   2.091   0.667  0.7002 -0.6341  0.4115
  374MOL0     H50479   7.807   2.101   0.611  1.4253  2.1845 -0.6491
  374MOL0     H50480   8.026   2.028   0.657  1.0374 -0.1892 -0.1575
  374MOL0     H50481   8.030   2.167   0.563 -1.0189 -1.9332 -0.5826
  374MOL0     H50482   8.267   2.059   0.645 -2.1578 -1.0800 -2.5483
  374MOL0     H50483   8.227   2.118   0.795  0.7796  0.5328  0.4121
  374MOL0     H50484   8.209   2.362   0.686  2.5211  1.6021  0.2273
  374MOL0     H50485   8.247   2.274   0.536  0.1394 -1.0739  0.0279
  374MOL0     H50486   8.453   2.174   0.622  1.0749 -0.4621 -1.6655
  374MOL0     H50487   8.447   2.265   0.766 -0.1833 -0.9770 -0.5830
  374MOL0     H50488   8.506   2.594   0.506  2.2561  0.6129  0.4546
  374MOL0     H50489   7.880   2.333   0.960  2.5036 -1.7344 -0.9381
  374MOL0     H50490   7.638   2.333   1.010 -0.6236 -0.5397  1.2691
  375MOL0     O50491   4.739   0.789   8.394  0.2210 -0.0955  0.2766
  375MOL0     C50492   4.700   0.903   8.421 -0.6930  0.0999  0.1109
  375MOL0     O50493   4.722   1.017   8.344 -0.2331  0.3683  0.4914
  375MOL0     C50494   4.787   0.996   8.220 -1.0684 -0.0520 -0.0091
  375MOL0     C50495   4.914   0.947   8.193 -0.1352  0.2271 -0.6351
  375MOL0     C50496   4.969   0.946   8.057 -0.8021 -0.1531 -0.6283
  375MOL0     C50497   4.894   0.986   7.951 -0.5651  0.4997  0.5052
  375MOL0     O50498   4.939   0.980   7.825 -0.3145 -0.2161  0.1461
  375MOL0     C50499   5.021   0.867   7.780  0.1362  0.1440 -0.0502
  375MOL0     C50500   4.940   0.791   7.673  0.0544  0.0067  0.2595
  375MOL0     C50501   4.803   0.742   7.715  0.5526 -0.9361  0.3607
  375MOL0     C50502   4.750   0.665   7.597 -0.2252  0.5226  0.4360
  375MOL0     C50503   4.616   0.595   7.620 -0.2391 -0.5779  0.7665
  375MOL0     C50504   4.566   0.534   7.495 -0.6789 -0.4267  0.2729
  375MOL0     C50505   4.430   0.465   7.495 -0.0701 -0.0160 -0.3233
  375MOL0     C50506   4.312   0.568   7.485  0.1181  0.4003 -0.1433
  375MOL0     N50507   4.184   0.502   7.487  0.0151 -0.1517 -1.0533
  375MOL0     C50508   4.135   0.417   7.396  0.2601 -0.3775 -0.3442
  375MOL0     C50509   4.009   0.389   7.440  1.0606 -0.2382  0.0732
  375MOL0     C50510   3.905   0.292   7.382  0.4426  0.0794 -0.1895
  375MOL0     C50511   3.780   0.283   7.465  0.9988  0.0832 -0.0409
  375MOL0     C50512   3.692   0.171   7.420 -0.3879  0.9595  0.1254
  375MOL0     C50513   3.543   0.164   7.463 -0.9579  0.3530 -0.6686
  375MOL0     O50514   3.483   0.282   7.416 -0.3911 -0.4594  0.0499
  375MOL0     C50515   3.350   0.273   7.377  0.7536 -0.6417  0.0992
  375MOL0     C50516   3.308   0.386   7.308  0.9658  0.0221 -0.2434
  375MOL0     C50517   3.174   0.398   7.251  0.2714 -0.4878 -0.8491
  375MOL0     C50518   3.156   0.533   7.181 -1.4301 -0.7946 -1.4316
  375MOL0     C50519   3.082   0.289   7.268 -0.3252 -0.4032  0.0955
  375MOL0     C50520   2.944   0.290   7.218 -0.6296  0.0177  0.2420
  375MOL0     O50521   2.862   0.187   7.266 -0.4239 -0.4142  0.2648
  375MOL0     C50522   2.757   0.150   7.196  0.1457 -0.9126 -0.1428
  375MOL0     C50523   2.761   0.127   7.059 -0.3741  0.4862  0.2793
  375MOL0     C50524   2.642   0.113   6.982  0.4207 -0.3154  0.8982
  375MOL0     C50525   2.521   0.129   7.037  0.2134  0.5264  0.2091
  375MOL0     O50526   2.404   0.118   6.957  0.1638 -0.2700  0.2261
  375MOL0     C50527   2.280   0.122   7.027 -0.7289  0.0987 -0.1434
  375MOL0     C50528   2.175   0.123   6.913 -0.6347  0.4347  0.3907
  375MOL0     C50529   2.030   0.089   6.972  0.1328  0.8363  1.2137
  375MOL0     C50530   1.970   0.213   7.034 -0.0247  0.0189  0.1791
  375MOL0     C50531   1.855   0.174   7.132 -1.3501  0.1706 -0.1642
  375MOL0     C50532   1.739   0.116   7.065  0.3793  0.7123  0.5025
  375MOL0     C50533   1.621   0.091   7.166 -0.5078  0.0467 -0.1197
  375MOL0     C50534   1.498   0.030   7.097 -0.0641 -0.2298  0.4067
  375MOL0    Cl50535   1.379   0.006   7.225 -0.1107  0.3298  0.0776
  375MOL0     C50536   2.519   0.139   7.181 -0.3315 -0.4493  0.1231
  375MOL0     C50537   2.636   0.146   7.261  0.7068  0.2169 -0.3360
  375MOL0     O50538   2.912   0.375   7.135  0.1131  0.4649  0.4950
  375MOL0     C50539   3.137   0.168   7.318 -0.1668  0.0567 -0.8420
  375MOL0     C50540   3.264   0.165   7.388  0.9113 -0.0233 -0.1504
  375MOL0     N50541   3.981   0.454   7.557  0.3495  0.1991  0.6844
  375MOL0     N50542   4.094   0.520   7.592  0.1740  0.2773  0.3526
  375MOL0     C50543   4.768   1.011   7.980  0.2577  0.7565  0.0286
  375MOL0     C50544   4.712   1.028   8.110  0.6112 -0.7210  0.2197
  375MOL0     C50545   4.610   0.921   8.543  0.1145  0.5966 -0.4355
  375MOL0     C50546   4.599   0.827   8.646  0.3539  0.1003 -0.3117
  375MOL0     C50547   4.513   0.851   8.755 -0.1870  0.0445  0.1052
  375MOL0     C50548   4.441   0.974   8.755 -0.1631  0.2699 -0.1872
  375MOL0     O50549   4.341   1.004   8.848 -0.5718 -0.6261  0.3059
  375MOL0     C50550   4.333   0.942   8.974  0.7714 -0.8695 -0.0803
  375MOL0     C50551   4.250   1.020   9.077  0.2706  0.5283  0.1799
  375MOL0     C50552   4.105   1.036   9.047  0.4499  1.1022 -0.5870
  375MOL0     C50553   4.027   0.908   8.995  0.6909  0.0582  0.0321
  375MOL0     C50554   4.044   0.887   8.847  0.8892  0.2328 -0.7202
  375MOL0     C50555   4.070   0.857   8.730 -0.6600 -0.4195 -1.1984
  375MOL0     C50556   4.449   1.063   8.643 -1.2809  0.2530  0.9003
  375MOL0     C50557   4.535   1.036   8.543  0.3638  0.4526 -0.8377
  375MOL0     H50558   4.972   0.919   8.281 -2.7606 -0.9068  0.8373
  375MOL0     H50559   5.074   0.920   8.042 -0.5146  0.9424 -0.6493
  375MOL0     H50560   5.119   0.907   7.754  0.7655 -1.2297  0.1487
  375MOL0     H50561   5.028   0.790   7.857 -2.0651 -1.2305 -1.1056
  375MOL0     H50562   4.923   0.861   7.590  0.1810 -0.9761 -0.6277
  375MOL0     H50563   5.002   0.708   7.638  0.4564 -0.5040  2.0905
  375MOL0     H50564   4.801   0.679   7.804  0.1415  0.7786  1.6149
  375MOL0     H50565   4.740   0.828   7.738  0.9833  0.6806 -3.6594
  375MOL0     H50566   4.740   0.737   7.516  1.0723  0.3331  0.0868
  375MOL0     H50567   4.830   0.596   7.571 -1.0325 -0.0589 -0.5770
  375MOL0     H50568   4.635   0.520   7.698  0.6438 -0.7885  0.3634
  375MOL0     H50569   4.544   0.675   7.641 -0.5274  0.0229 -2.0794
  375MOL0     H50570   4.563   0.614   7.420 -0.9689 -0.4636  0.2438
  375MOL0     H50571   4.646   0.468   7.462  2.4224  1.7564  2.7641
  375MOL0     H50572   4.424   0.393   7.412 -1.2260  1.2695 -1.4281
  375MOL0     H50573   4.418   0.407   7.587  0.8405  1.2603  0.6349
  375MOL0     H50574   4.330   0.616   7.388  1.9745 -0.6836 -0.3895
  375MOL0     H50575   4.317   0.649   7.559 -1.6932  1.4857 -1.1402
  375MOL0     H50576   4.183   0.372   7.310  1.2336  2.1899 -1.2423
  375MOL0     H50577   3.890   0.327   7.280 -0.4952  1.1924  0.3074
  375MOL0     H50578   3.946   0.191   7.371 -2.3286 -1.3865  1.8157
  375MOL0     H50579   3.726   0.378   7.458  1.6830  0.9524  3.9936
  375MOL0     H50580   3.819   0.272   7.567  3.7633 -1.0036 -1.1096
  375MOL0     H50581   3.744   0.075   7.427  0.5816  1.2935 -1.7585
  375MOL0     H50582   3.695   0.194   7.313  0.5331  3.9165  0.6981
  375MOL0     H50583   3.542   0.162   7.573  0.5998  3.9444 -0.4336
  375MOL0     H50584   3.499   0.076   7.416  0.4556 -2.0157  2.0900
  375MOL0     H50585   3.380   0.467   7.310  2.8304 -1.5662  0.3973
  375MOL0     H50586   3.126   0.524   7.076 -1.4633  0.6900 -1.5620
  375MOL0     H50587   3.082   0.585   7.243 -0.6130 -1.0772 -0.1764
  375MOL0     H50588   3.249   0.590   7.186 -0.4193 -2.4897  1.3686
  375MOL0     H50589   2.852   0.111   7.002 -1.2908 -0.0535 -1.0956
  375MOL0     H50590   2.648   0.088   6.876 -0.5122 -2.8948  1.3644
  375MOL0     H50591   2.266   0.037   7.094 -1.6442  1.4530  1.4347
  375MOL0     H50592   2.275   0.210   7.091  0.8363  0.8698 -0.9964
  375MOL0     H50593   2.166   0.210   6.848  0.7058  0.1109 -0.2546
  375MOL0     H50594   2.201   0.045   6.842 -1.8959  0.8557 -0.5735
  375MOL0     H50595   2.021  -0.004   7.029  1.0707  0.6495  1.0813
  375MOL0     H50596   1.974   0.062   6.882 -0.0344  1.8028  1.0241
  375MOL0     H50597   2.034   0.282   7.090 -1.4392  1.4816  0.0716
  375MOL0     H50598   1.944   0.283   6.954 -0.2369  1.1298  1.1891
  375MOL0     H50599   1.815   0.262   7.183 -0.1133 -0.4873  2.0567
  375MOL0     H50600   1.893   0.104   7.207 -3.0170 -2.5178 -1.6478
  375MOL0     H50601   1.705   0.188   6.991 -1.0778  1.9717  2.2916
  375MOL0     H50602   1.763   0.014   7.035 -1.9226  0.1925  0.3137
  375MOL0     H50603   1.587   0.190   7.196  2.3785  0.5399  2.0542
  375MOL0     H50604   1.652   0.030   7.252 -0.1619 -0.7913 -0.8278
  375MOL0     H50605   1.521  -0.070   7.058 -1.0219 -0.8604  1.3799
  375MOL0     H50606   1.454   0.085   7.013 -0.1355  1.5496  1.5552
  375MOL0     H50607   2.426   0.147   7.235 -0.3820 -0.9341  0.1097
  375MOL0     H50608   2.634   0.161   7.368  1.2594 -2.0548  0.0446
  375MOL0     H50609   3.080   0.076   7.324 -1.1412  0.7249  0.5634
  375MOL0     H50610   3.293   0.078   7.447 -1.7058 -1.6017 -0.9932
  375MOL0     H50611   4.707   1.041   7.896  1.0611  0.6828 -0.5834
  375MOL0     H50612   4.608   1.057   8.125  1.9016  3.7467  2.3317
  375MOL0     H50613   4.644   0.728   8.643 -2.9967 -1.6057  0.5821
  375MOL0     H50614   4.498   0.772   8.827  0.3591 -1.3209 -1.2361
  375MOL0     H50615   4.297   0.839   8.965  2.8401 -1.8055  1.3977
  375MOL0     H50616   4.439   0.929   8.996  1.0014 -0.9273 -1.1744
  375MOL0     H50617   4.284   1.124   9.088 -2.6420  1.4339  2.0060
  375MOL0     H50618   4.251   0.967   9.172 -0.5709  3.1703  1.7852
  375MOL0     H50619   4.103   1.126   8.986  1.2712  2.3221  1.1004
  375MOL0     H50620   4.054   1.055   9.142 -1.8371  0.1036 -1.5280
  375MOL0     H50621   3.919   0.913   9.013  0.8146 -1.3933  1.4034
  375MOL0     H50622   4.064   0.817   9.043 -1.4406 -0.6336  0.4790
  375MOL0     H50623   4.084   0.821   8.630  0.1084 -1.8065 -0.6109
  375MOL0     H50624   4.385   1.150   8.637 -2.7018 -0.7559  0.8075
  375MOL0     H50625   4.532   1.108   8.462 -2.1422  1.0539 -0.2983
  376MOL0     O50626   2.988   6.725   6.449  0.8006  0.4258 -0.4060
  376MOL0     C50627   3.008   6.768   6.563  0.2565  0.7452 -0.3632
  376MOL0     O50628   2.912   6.819   6.645 -0.0655  0.8691 -0.7725
  376MOL0     C50629   2.778   6.809   6.609  0.3640  0.2563 -1.0273
  376MOL0     C50630   2.708   6.690   6.557  0.2340  0.1465 -0.0473
  376MOL0     C50631   2.571   6.697   6.522  0.1415 -0.1341  0.6549
  376MOL0     C50632   2.502   6.819   6.539  0.2654  0.6482  0.5825
  376MOL0     O50633   2.370   6.831   6.520  0.1675  0.0190 -0.6257
  376MOL0     C50634   2.290   6.712   6.543  0.4141  1.1636 -0.0714
  376MOL0     C50635   2.294   6.684   6.690 -0.2917 -0.1653 -0.4657
  376MOL0     C50636   2.190   6.581   6.716 -0.3570  0.5462  0.3763
  376MOL0     C50637   2.166   6.554   6.866 -0.6172 -0.2276 -0.2017
  376MOL0     C50638   2.098   6.678   6.943 -0.8456  0.3311  1.1398
  376MOL0     C50639   2.044   6.636   7.083  0.0703 -0.2135 -0.1937
  376MOL0     C50640   1.984   6.740   7.173  0.2739 -0.3188  0.1031
  376MOL0     C50641   2.068   6.859   7.210 -1.3386  0.4312 -1.2760
  376MOL0     N50642   2.091   6.961   7.101  0.5670  0.7081 -0.7609
  376MOL0     C50643   2.017   6.989   6.984 -0.2510 -0.2241  0.3463
  376MOL0     C50644   2.101   7.053   6.910 -0.0509  0.3548  0.3225
  376MOL0     C50645   2.067   7.074   6.767  0.5147 -0.0298 -0.2967
  376MOL0     C50646   2.189   7.143   6.696 -0.2248 -0.4121  0.0353
  376MOL0     C50647   2.163   7.174   6.552  0.2952 -0.5643  0.0369
  376MOL0     C50648   2.066   7.287   6.522 -0.2512  0.1562 -0.0550
  376MOL0     O50649   1.944   7.223   6.501  0.1090  0.4122 -0.3090
  376MOL0     C50650   1.860   7.316   6.445 -0.2764 -0.1728  0.0345
  376MOL0     C50651   1.863   7.356   6.313  0.2735 -0.2804 -0.3260
  376MOL0     C50652   1.786   7.465   6.267 -0.2748 -0.2439  0.6761
  376MOL0     C50653   1.846   7.536   6.145  0.2116  0.2023  0.2901
  376MOL0     C50654   1.707   7.534   6.355 -0.1987 -0.3749 -0.0485
  376MOL0     C50655   1.625   7.653   6.315  0.0488  0.9897 -0.2831
  376MOL0     O50656   1.586   7.731   6.416 -0.4704 -0.5926 -0.4557
  376MOL0     C50657   1.536   7.861   6.388 -0.4894  0.4177  0.0487
  376MOL0     C50658   1.630   7.961   6.423  0.8122  0.1924  0.2516
  376MOL0     C50659   1.600   8.097   6.407  0.8193 -0.6472  0.2775
  376MOL0     C50660   1.470   8.126   6.360 -0.3740 -0.0023 -0.1883
  376MOL0     O50661   1.427   8.252   6.311 -1.3846 -0.9541  0.1750
  376MOL0     C50662   1.520   8.362   6.320 -0.1571 -0.9987 -0.8716
  376MOL0     C50663   1.478   8.489   6.247  0.2334 -0.0940 -0.9237
  376MOL0     C50664   1.359   8.562   6.320  0.5126  0.3287 -0.2345
  376MOL0     C50665   1.291   8.654   6.211 -0.1247  1.1593  0.8647
  376MOL0     C50666   1.169   8.723   6.272  0.1886  0.1032  0.0184
  376MOL0     C50667   1.039   8.641   6.275 -0.5122  0.0216 -0.1300
  376MOL0     C50668   0.901   8.713   6.260  0.5655 -0.1825  0.1601
  376MOL0     C50669   0.889   8.825   6.362  0.1897  0.6874 -0.2279
  376MOL0    Cl50670   0.722   8.915   6.375 -0.3287 -0.2695 -0.0788
  376MOL0     C50671   1.371   8.036   6.347 -0.2021  0.3040 -0.0838
  376MOL0     C50672   1.400   7.896   6.360  0.1919  0.3702  0.6898
  376MOL0     O50673   1.597   7.668   6.198  0.5019  0.1318 -0.2018
  376MOL0     C50674   1.699   7.488   6.491 -0.6556 -1.1426  0.1167
  376MOL0     C50675   1.775   7.379   6.531 -0.1112 -0.2539  0.5452
  376MOL0     N50676   2.213   7.085   6.980  0.9520  0.3247  0.0110
  376MOL0     N50677   2.211   7.025   7.089 -0.5469 -0.4886 -0.1686
  376MOL0     C50678   2.571   6.927   6.603  0.6224 -0.3186 -0.7224
  376MOL0     C50679   2.708   6.919   6.636 -0.5386 -0.5539  0.5483
  376MOL0     C50680   3.154   6.763   6.605  0.2612 -0.7850  0.1802
  376MOL0     C50681   3.259   6.745   6.508  0.7927  0.6116  0.1524
  376MOL0     C50682   3.393   6.715   6.548 -0.3281  0.4093 -0.7770
  376MOL0     C50683   3.434   6.741   6.675  0.3283  0.0045 -1.0332
  376MOL0     O50684   3.565   6.739   6.712 -0.3245  0.2260  0.0586
  376MOL0     C50685   3.607   6.653   6.821  0.5405  0.0631 -0.2232
  376MOL0     C50686   3.697   6.734   6.910 -0.4430  0.1061  1.0034
  376MOL0     C50687   3.756   6.646   7.025  1.0767 -0.2719  0.1117
  376MOL0     C50688   3.877   6.711   7.087  0.3823 -0.0569  0.8274
  376MOL0     C50689   3.901   6.642   7.209  0.5176  1.3178  0.2412
  376MOL0     C50690   3.908   6.563   7.303  0.4040  0.0080 -0.4534
  376MOL0     C50691   3.335   6.776   6.768  0.4012  0.4817  0.6298
  376MOL0     C50692   3.201   6.785   6.738  0.5726 -0.3939  0.5775
  376MOL0     H50693   2.765   6.600   6.538  0.9894  0.7452 -0.6826
  376MOL0     H50694   2.528   6.608   6.476  0.8579  0.4788 -1.3139
  376MOL0     H50695   2.191   6.743   6.507 -0.9701 -2.3163  0.3305
  376MOL0     H50696   2.326   6.627   6.485  0.2664 -1.8147  3.8070
  376MOL0     H50697   2.392   6.653   6.728 -0.6133 -1.8137 -0.9343
  376MOL0     H50698   2.270   6.778   6.742  2.3832  0.8475 -0.9158
  376MOL0     H50699   2.093   6.615   6.678 -0.0177 -0.0860 -1.0982
  376MOL0     H50700   2.216   6.487   6.668 -1.2920 -0.7663  2.3142
  376MOL0     H50701   2.106   6.465   6.885 -1.4428  0.2744 -0.4043
  376MOL0     H50702   2.266   6.550   6.912 -0.4082 -1.4567 -0.7398
  376MOL0     H50703   2.177   6.752   6.958 -2.6499  2.4669  0.4747
  376MOL0     H50704   2.026   6.719   6.873  3.4754  1.7324 -3.0349
  376MOL0     H50705   1.971   6.557   7.064 -1.1265  0.9465 -0.5065
  376MOL0     H50706   2.123   6.587   7.142  2.3328  0.8052 -2.1890
  376MOL0     H50707   1.898   6.773   7.114  1.8650 -0.5217 -2.5296
  376MOL0     H50708   1.954   6.683   7.261 -0.0770 -1.4718 -0.7291
  376MOL0     H50709   2.162   6.819   7.250 -1.5034  0.1954 -1.1253
  376MOL0     H50710   2.019   6.920   7.286 -1.3027 -0.3284 -0.6307
  376MOL0     H50711   1.913   6.965   6.962 -0.0718 -0.3936 -0.3336
  376MOL0     H50712   2.019   6.990   6.716 -2.4311  0.1052  1.9820
  376MOL0     H50713   1.987   7.149   6.765 -0.3209 -0.8773  0.1831
  376MOL0     H50714   2.278   7.080   6.698 -0.1476 -0.3320 -0.6310
  376MOL0     H50715   2.210   7.239   6.744  0.9112 -1.4170  1.6131
  376MOL0     H50716   2.127   7.079   6.514  0.9261 -0.7150 -0.2015
  376MOL0     H50717   2.252   7.182   6.489  0.0479  0.4549 -0.2002
  376MOL0     H50718   2.097   7.331   6.427  2.8422 -3.1946 -0.8499
  376MOL0     H50719   2.062   7.359   6.604  1.7761  0.5972 -0.2839
  376MOL0     H50720   1.921   7.298   6.242  2.4496  0.6647  0.6182
  376MOL0     H50721   1.775   7.529   6.062 -1.6839  1.6439  1.6920
  376MOL0     H50722   1.874   7.637   6.175  1.3394  0.1351 -0.4729
  376MOL0     H50723   1.940   7.486   6.120  1.1148  0.8400  2.2400
  376MOL0     H50724   1.732   7.941   6.452  1.3569  4.9543  2.7100
  376MOL0     H50725   1.687   8.162   6.411 -0.2706  0.9027 -0.2216
  376MOL0     H50726   1.547   8.391   6.422 -1.3425  4.7475 -1.8283
  376MOL0     H50727   1.613   8.330   6.271  0.3022  1.0796 -1.4578
  376MOL0     H50728   1.558   8.564   6.247 -0.4046  0.6246  0.3671
  376MOL0     H50729   1.450   8.463   6.144 -4.0602  1.4499 -0.3393
  376MOL0     H50730   1.388   8.623   6.406 -1.7128  1.0876  0.0393
  376MOL0     H50731   1.295   8.477   6.346 -1.0720  0.8524 -2.1545
  376MOL0     H50732   1.372   8.720   6.178 -0.8486  0.3236 -2.9605
  376MOL0     H50733   1.257   8.587   6.133  0.3479 -2.8558  3.7917
  376MOL0     H50734   1.153   8.812   6.209  1.4146  1.9042  2.1064
  376MOL0     H50735   1.179   8.751   6.377 -1.2335 -0.8541  0.4332
  376MOL0     H50736   1.044   8.575   6.189  1.4825  1.6261 -1.3447
  376MOL0     H50737   1.026   8.572   6.359 -2.3894  1.6669  1.0305
  376MOL0     H50738   0.820   8.640   6.265  1.1380 -0.9602 -1.1784
  376MOL0     H50739   0.902   8.766   6.164  1.1296 -0.2950  0.0978
  376MOL0     H50740   0.964   8.902   6.344 -0.3912  1.6051  1.0528
  376MOL0     H50741   0.917   8.787   6.461  0.9261  1.4932 -0.1116
  376MOL0     H50742   1.283   8.081   6.303  0.3677 -0.0336 -1.6493
  376MOL0     H50743   1.327   7.823   6.327  2.1493 -2.1405  1.5721
  376MOL0     H50744   1.617   7.528   6.550 -0.3033  0.8101 -0.6340
  376MOL0     H50745   1.781   7.350   6.636  1.0819  1.4745  1.0110
  376MOL0     H50746   2.522   7.018   6.637 -2.0215 -2.3314  1.3648
  376MOL0     H50747   2.771   7.000   6.669  1.8081 -1.9602 -0.1989
  376MOL0     H50748   3.245   6.722   6.403  1.1107 -0.5500  0.3533
  376MOL0     H50749   3.467   6.670   6.482  0.3245 -0.5494  0.5685
  376MOL0     H50750   3.530   6.607   6.884 -1.2154  2.8844 -0.0979
  376MOL0     H50751   3.657   6.565   6.781 -0.1556 -1.0296  1.2286
  376MOL0     H50752   3.650   6.827   6.942 -0.1668  0.4455  0.4208
  376MOL0     H50753   3.781   6.776   6.854  0.0577 -0.6764  1.1427
  376MOL0     H50754   3.792   6.550   6.987  0.7363  0.5756 -2.6461
  376MOL0     H50755   3.674   6.628   7.095 -0.9640  0.4398 -1.9622
  376MOL0     H50756   3.863   6.817   7.108 -2.2669 -0.1412 -0.1343
  376MOL0     H50757   3.964   6.713   7.020 -0.5304  1.4620 -0.3732
  376MOL0     H50758   3.893   6.486   7.375 -0.8251 -0.9106 -1.6367
  376MOL0     H50759   3.349   6.787   6.875 -0.9187 -0.5905  0.9349
  376MOL0     H50760   3.132   6.804   6.819 -0.4900 -0.3236 -0.3223
  377MOL0     O50761   7.961   2.470   7.373  0.6149  0.3571  0.5222
  377MOL0     C50762   7.999   2.538   7.282  0.5550 -1.3349  0.8168
  377MOL0     O50763   7.924   2.636   7.218  0.4068 -0.1685  0.1428
  377MOL0     C50764   7.802   2.669   7.260  0.9394  0.0313 -0.3454
  377MOL0     C50765   7.707   2.656   7.157  0.3385 -0.0144  0.9818
  377MOL0     C50766   7.571   2.682   7.188 -0.3404 -1.0733 -0.1530
  377MOL0     C50767   7.530   2.712   7.318  0.5145  0.1577  0.7569
  377MOL0     O50768   7.396   2.708   7.331 -0.4822  0.0029  0.5192
  377MOL0     C50769   7.324   2.745   7.452 -1.0846 -0.2834  0.8583
  377MOL0     C50770   7.179   2.781   7.423  0.2209  1.0172  0.2184
  377MOL0     C50771   7.101   2.657   7.368 -0.3188  0.0652  0.2300
  377MOL0     C50772   6.958   2.684   7.333 -1.0258  1.0231 -0.2299
  377MOL0     C50773   6.873   2.567   7.307 -0.9893 -0.0052  0.1771
  377MOL0     C50774   6.771   2.605   7.202  0.6169 -0.3525  0.1807
  377MOL0     C50775   6.661   2.502   7.176  0.1940 -0.7084  0.1901
  377MOL0     C50776   6.547   2.553   7.092 -0.0899 -0.3289  0.5627
  377MOL0     N50777   6.418   2.480   7.115 -0.7339 -0.1145 -0.1630
  377MOL0     C50778   6.341   2.499   7.225 -0.0962  0.0510  0.7394
  377MOL0     C50779   6.240   2.401   7.214 -0.4349 -0.6402  0.3212
  377MOL0     C50780   6.128   2.371   7.310  0.0062 -0.1739  1.3928
  377MOL0     C50781   6.057   2.234   7.301  0.5288 -0.5048 -0.9753
  377MOL0     C50782   5.928   2.241   7.392  0.2264 -0.8155  0.4298
  377MOL0     C50783   5.889   2.119   7.482  0.4364 -0.0932  1.0377
  377MOL0     O50784   5.992   2.085   7.575 -0.4156  0.0531  0.1983
  377MOL0     C50785   5.945   2.013   7.689 -0.9186 -0.1087  0.1773
  377MOL0     C50786   6.011   2.044   7.811  0.3713 -0.4890  0.0227
  377MOL0     C50787   5.977   1.965   7.926  0.1961 -0.1265  0.5418
  377MOL0     C50788   6.045   1.995   8.054  0.4941  0.3262 -0.7528
  377MOL0     C50789   5.877   1.866   7.909  0.3963  0.1787 -1.1099
  377MOL0     C50790   5.791   1.813   8.016 -0.5394 -0.9131 -0.5585
  377MOL0     O50791   5.685   1.741   7.981 -0.2684  0.3728 -0.3431
  377MOL0     C50792   5.618   1.670   8.073  0.5000 -0.2567 -0.1730
  377MOL0     C50793   5.494   1.720   8.113 -1.1918  0.8297  0.9914
  377MOL0     C50794   5.412   1.644   8.183  0.7243  0.3981  1.1336
  377MOL0     C50795   5.451   1.521   8.235 -0.2665  0.6287  0.2900
  377MOL0     O50796   5.358   1.466   8.327 -0.2065 -0.2467  0.0438
  377MOL0     C50797   5.390   1.341   8.384 -0.9970  0.6252  1.0867
  377MOL0     C50798   5.280   1.304   8.483  0.4804  0.8572  0.0882
  377MOL0     C50799   5.298   1.176   8.549 -0.5438 -0.5239  0.4275
  377MOL0     C50800   5.190   1.149   8.649 -0.1281  0.7502  0.4058
  377MOL0     C50801   5.199   0.993   8.698  0.6196 -0.5121  0.9176
  377MOL0     C50802   5.065   0.959   8.757 -0.3137 -0.1425  0.0767
  377MOL0     C50803   5.077   0.808   8.805 -0.2456 -0.3523  0.4721
  377MOL0     C50804   4.947   0.729   8.834  0.4365  0.2012  0.1918
  377MOL0    Cl50805   4.891   0.768   8.995 -0.5016 -0.2242 -0.6702
  377MOL0     C50806   5.585   1.469   8.203 -0.3022 -0.9589  0.3749
  377MOL0     C50807   5.661   1.547   8.126 -0.1835 -0.7503  0.5878
  377MOL0     O50808   5.820   1.831   8.135 -0.4551  0.4812 -0.1298
  377MOL0     C50809   5.832   1.833   7.779  0.4831  0.4364 -0.5710
  377MOL0     C50810   5.864   1.905   7.673 -0.2683 -0.0336 -0.0260
  377MOL0     N50811   6.269   2.330   7.102  0.6044 -0.7256 -0.0210
  377MOL0     N50812   6.365   2.383   7.040 -0.4158  0.2999  0.2885
  377MOL0     C50813   7.624   2.732   7.415  0.6096 -0.3752  0.3638
  377MOL0     C50814   7.761   2.703   7.395  0.1884  0.5100  0.4147
  377MOL0     C50815   8.121   2.510   7.218  0.1675 -0.7534 -0.9985
  377MOL0     C50816   8.133   2.486   7.080 -0.1950  0.6116 -0.2564
  377MOL0     C50817   8.254   2.433   7.031 -0.7513 -0.2793 -0.5332
  377MOL0     C50818   8.358   2.404   7.122 -0.4288 -0.4350  0.5624
  377MOL0     O50819   8.470   2.344   7.076 -0.4687 -0.2822  0.0338
  377MOL0     C50820   8.578   2.296   7.152  0.2037 -0.1863  0.0075
  377MOL0     C50821   8.701   2.369   7.171  0.7761 -0.2142  0.2758
  377MOL0     C50822   8.701   2.496   7.094 -0.1598  0.1188  0.0633
  377MOL0     C50823   8.843   2.552   7.108 -0.2233  0.0707 -0.0234
  377MOL0     C50824   8.859   2.676   7.032 -0.3941 -0.0627  0.3762
  377MOL0     C50825   8.869   2.760   6.949 -0.2124  0.3794  1.0521
  377MOL0     C50826   8.346   2.445   7.258 -0.6140  0.3352  0.4324
  377MOL0     C50827   8.234   2.496   7.308  0.1948 -0.2829 -0.0476
  377MOL0     H50828   7.728   2.614   7.059 -0.5124 -0.2619  0.8939
  377MOL0     H50829   7.490   2.683   7.115 -1.8059  0.0829  1.3943
  377MOL0     H50830   7.324   2.661   7.522 -2.4634 -0.7522  0.3353
  377MOL0     H50831   7.375   2.833   7.491  1.8935 -2.0598  1.2037
  377MOL0     H50832   7.137   2.815   7.518  0.7020  0.8609  0.4908
  377MOL0     H50833   7.175   2.856   7.344 -2.2112  2.4649  1.5739
  377MOL0     H50834   7.152   2.610   7.283  1.4840  1.8231  0.2821
  377MOL0     H50835   7.101   2.582   7.448 -3.2677 -1.8967 -1.3965
  377MOL0     H50836   6.916   2.768   7.389 -0.4531  1.3487 -0.2764
  377MOL0     H50837   6.960   2.731   7.234 -3.4977 -1.9700 -1.8624
  377MOL0     H50838   6.930   2.480   7.274  0.5297  1.4568 -1.2535
  377MOL0     H50839   6.824   2.538   7.400  2.7427 -2.1430  1.7126
  377MOL0     H50840   6.721   2.695   7.236 -3.1520 -1.7702 -1.0748
  377MOL0     H50841   6.823   2.627   7.108  1.4130 -0.4250  0.6004
  377MOL0     H50842   6.689   2.407   7.130  0.1511  0.2068 -1.8258
  377MOL0     H50843   6.619   2.471   7.272  4.2924 -2.6910  1.6046
  377MOL0     H50844   6.567   2.550   6.985  2.7694 -0.1300  1.0212
  377MOL0     H50845   6.530   2.658   7.118 -2.9965 -1.3715  3.5688
  377MOL0     H50846   6.365   2.565   7.307 -0.3949 -2.9559  3.4431
  377MOL0     H50847   6.163   2.387   7.412  2.5801  0.5129  0.4580
  377MOL0     H50848   6.048   2.445   7.301 -2.3397 -2.3319  2.8446
  377MOL0     H50849   6.122   2.166   7.357  0.8224  0.3796 -0.2271
  377MOL0     H50850   6.046   2.201   7.197  1.9479  0.1645 -1.3730
  377MOL0     H50851   5.848   2.261   7.321  0.5365  0.0842  0.3163
  377MOL0     H50852   5.938   2.332   7.452 -1.0279  0.8836 -1.7974
  377MOL0     H50853   5.866   2.033   7.419 -1.3412  1.9449 -1.3233
  377MOL0     H50854   5.796   2.124   7.539 -0.8277  1.5406 -1.0108
  377MOL0     H50855   6.076   2.131   7.813  0.0213 -0.0941 -2.6183
  377MOL0     H50856   6.138   2.050   8.032  0.0724  1.9924  1.2808
  377MOL0     H50857   5.980   2.056   8.118  0.8499  0.0367 -0.1056
  377MOL0     H50858   6.055   1.902   8.110 -2.8908  0.9490  1.1637
  377MOL0     H50859   5.447   1.809   8.074 -1.8247 -0.4050 -1.2613
  377MOL0     H50860   5.322   1.696   8.214 -1.0247 -1.8002  0.0210
  377MOL0     H50861   5.388   1.266   8.304  0.2187  1.8570 -0.1569
  377MOL0     H50862   5.493   1.337   8.419  0.2405 -0.6380 -2.2756
  377MOL0     H50863   5.265   1.374   8.566 -0.9334 -0.1486  0.7184
  377MOL0     H50864   5.190   1.294   8.421  1.0152  2.0654 -0.9293
  377MOL0     H50865   5.396   1.177   8.598  0.2237 -2.9987 -0.8662
  377MOL0     H50866   5.294   1.104   8.467 -2.5335 -2.3176  1.9879
  377MOL0     H50867   5.204   1.203   8.743 -1.9169 -1.1078  1.8133
  377MOL0     H50868   5.093   1.166   8.602 -0.7510 -1.5094  0.7188
  377MOL0     H50869   5.280   0.983   8.771  1.7720  1.2647 -0.0434
  377MOL0     H50870   5.232   0.937   8.610  0.4134  0.7736 -0.0080
  377MOL0     H50871   5.044   1.021   8.845 -1.5944 -1.1386  0.5034
  377MOL0     H50872   4.994   0.975   8.676 -2.8744 -0.8829  2.0282
  377MOL0     H50873   5.144   0.795   8.890 -1.6137 -1.1053  1.4771
  377MOL0     H50874   5.123   0.762   8.717 -4.2945 -1.1946 -1.4516
  377MOL0     H50875   4.956   0.620   8.834 -1.4621 -0.0096 -1.1709
  377MOL0     H50876   4.870   0.744   8.758  0.3732 -1.7439 -0.1661
  377MOL0     H50877   5.622   1.374   8.240  1.0190 -0.7295 -0.2722
  377MOL0     H50878   5.757   1.518   8.085  0.1644  0.0820  0.7882
  377MOL0     H50879   5.758   1.757   7.755  1.8426 -1.5159  1.0910
  377MOL0     H50880   5.817   1.879   7.579 -0.1497 -2.1972  0.4605
  377MOL0     H50881   7.586   2.759   7.513 -1.9808 -3.8493  0.5058
  377MOL0     H50882   7.831   2.697   7.477 -1.1510 -2.0640  1.5004
  377MOL0     H50883   8.046   2.492   7.015 -0.1516 -1.2948 -0.5337
  377MOL0     H50884   8.268   2.406   6.927 -1.1109  1.5344 -1.0969
  377MOL0     H50885   8.542   2.267   7.251 -2.7206  1.4045 -0.4762
  377MOL0     H50886   8.606   2.200   7.109 -2.9396 -1.7673  1.1456
  377MOL0     H50887   8.787   2.304   7.154  1.9532  1.0290  1.2236
  377MOL0     H50888   8.727   2.389   7.276  2.4521 -1.5980  0.1676
  377MOL0     H50889   8.627   2.559   7.144 -0.8882  0.8258 -1.8400
  377MOL0     H50890   8.680   2.460   6.993  1.1635 -2.6464  0.6755
  377MOL0     H50891   8.913   2.478   7.066 -0.4447  0.6061 -1.4010
  377MOL0     H50892   8.858   2.569   7.215  0.4523  0.0027 -0.1015
  377MOL0     H50893   8.902   2.830   6.875  1.8020 -1.3558  0.1939
  377MOL0     H50894   8.412   2.418   7.340 -1.6586  0.6357  1.4023
  377MOL0     H50895   8.220   2.519   7.413  0.2813  1.1521 -0.3299
  378MOL0     O50896   7.577   2.758   0.926  0.5110 -0.1920 -0.2635
  378MOL0     C50897   7.614   2.696   0.833  0.2462  0.6998  0.3980
  378MOL0     O50898   7.541   2.612   0.764  0.0525  0.3908 -0.6799
  378MOL0     C50899   7.405   2.591   0.787  0.4796  0.4319 -0.3268
  378MOL0     C50900   7.340   2.569   0.910  0.4771 -0.5687 -0.2232
  378MOL0     C50901   7.200   2.550   0.928 -1.0632 -0.0392 -0.2010
  378MOL0     C50902   7.118   2.542   0.818 -0.4423 -0.6077  0.2134
  378MOL0     O50903   6.981   2.531   0.836 -0.1565 -0.1016 -0.1603
  378MOL0     C50904   6.886   2.525   0.734  0.0856  0.8459  0.0928
  378MOL0     C50905   6.748   2.480   0.791 -0.1381  0.2651 -0.9744
  378MOL0     C50906   6.640   2.490   0.674  0.1654  0.1246 -0.2365
  378MOL0     C50907   6.649   2.364   0.576  0.1033  0.3465 -0.5209
  378MOL0     C50908   6.576   2.388   0.441  0.5852 -0.0793 -0.4992
  378MOL0     C50909   6.576   2.271   0.336  1.0568  0.1690 -0.3715
  378MOL0     C50910   6.486   2.304   0.221  0.0418  0.0690  0.4121
  378MOL0     C50911   6.497   2.185   0.118  1.0347  0.2618  0.1385
  378MOL0     N50912   6.406   2.201   0.002 -0.8262 -0.7905 -0.5722
  378MOL0     C50913   6.279   2.241   0.000  0.5371 -0.0501 -0.0135
  378MOL0     C50914   6.245   2.249  -0.135 -0.0232 -0.0178 -0.9696
  378MOL0     C50915   6.125   2.312  -0.199  0.2058  0.2824  0.4281
  378MOL0     C50916   6.043   2.199  -0.262 -0.0671 -0.5294 -0.7239
  378MOL0     C50917   5.911   2.252  -0.327 -0.6284 -0.3058 -0.3633
  378MOL0     C50918   5.826   2.135  -0.364  0.1630  0.1668 -0.1090
  378MOL0     O50919   5.698   2.184  -0.411  0.1858  0.0148  1.1162
  378MOL0     C50920   5.598   2.097  -0.437  0.5205 -0.2915 -0.0750
  378MOL0     C50921   5.599   1.966  -0.404  0.1259  0.9490  0.3070
  378MOL0     C50922   5.492   1.880  -0.406  0.2623 -0.3298 -1.2298
  378MOL0     C50923   5.508   1.735  -0.342  0.6936  0.0569  1.1607
  378MOL0     C50924   5.375   1.930  -0.471 -0.2064 -0.4650 -0.5721
  378MOL0     C50925   5.266   1.849  -0.501  0.1702  1.0989  0.5378
  378MOL0     O50926   5.208   1.871  -0.617 -0.1562 -0.6606  0.2708
  378MOL0     C50927   5.110   1.792  -0.671 -1.1831 -0.0431  0.6860
  378MOL0     C50928   5.116   1.659  -0.677  1.0616  1.3678 -0.8514
  378MOL0     C50929   5.014   1.581  -0.727 -0.5428  0.6646  0.8087
  378MOL0     C50930   4.907   1.641  -0.789 -1.2634 -0.3265  0.4423
  378MOL0     O50931   4.804   1.583  -0.857  0.6787  0.8868  0.0916
  378MOL0     C50932   4.801   1.432  -0.858 -0.8768 -0.2533 -0.1333
  378MOL0     C50933   4.655   1.387  -0.880 -0.6521  1.0018  0.5889
  378MOL0     C50934   4.666   1.228  -0.872  0.2386 -0.4386  0.1840
  378MOL0     C50935   4.562   1.147  -0.943 -0.0116 -0.3217 -0.6456
  378MOL0     C50936   4.431   1.168  -0.869  0.0991 -1.5566  0.1567
  378MOL0     C50937   4.301   1.095  -0.918 -0.3431 -0.1815 -0.1587
  378MOL0     C50938   4.178   1.158  -0.852 -0.0159  0.6687  0.1799
  378MOL0     C50939   4.047   1.082  -0.889  0.4761 -0.0584 -1.1970
  378MOL0    Cl50940   4.053   0.888  -0.874  0.4097  0.9049 -0.3848
  378MOL0     C50941   4.905   1.779  -0.785  0.3225 -0.7662  0.2810
  378MOL0     C50942   5.006   1.857  -0.727 -0.1667  0.5735  0.4879
  378MOL0     O50943   5.226   1.766  -0.415 -0.2424  0.1855 -0.1029
  378MOL0     C50944   5.363   2.068  -0.506  0.1267 -1.0131  0.2579
  378MOL0     C50945   5.480   2.145  -0.492  0.3044  0.4315  0.3290
  378MOL0     N50946   6.356   2.210  -0.208 -0.2482  0.3127  0.2071
  378MOL0     N50947   6.452   2.187  -0.117  0.3286 -0.4631  0.0637
  378MOL0     C50948   7.185   2.559   0.694  0.6657 -0.1156  0.1703
  378MOL0     C50949   7.323   2.592   0.683 -0.0739 -0.3058  0.6913
  378MOL0     C50950   7.754   2.693   0.805  0.6419  0.0932  0.2526
  378MOL0     C50951   7.799   2.570   0.745  0.0325  0.0290 -0.6178
  378MOL0     C50952   7.934   2.556   0.714  0.1914  0.0400  0.9125
  378MOL0     C50953   8.024   2.667   0.739 -0.9202 -0.0442 -0.5663
  378MOL0     O50954   8.159   2.656   0.718  0.3685 -0.6236 -0.5656
  378MOL0     C50955   8.198   2.740   0.609  0.2888  0.3263  0.2983
  378MOL0     C50956   8.152   2.678   0.480  0.3537 -0.2910 -0.6812
  378MOL0     C50957   8.245   2.727   0.369 -0.4477  0.0647 -0.9298
  378MOL0     C50958   8.259   2.868   0.335  0.1165  0.6850  0.3849
  378MOL0     C50959   8.118   2.922   0.309 -0.7516 -0.6270 -0.0931
  378MOL0     C50960   8.022   2.977   0.269 -0.1049  0.4957 -0.2676
  378MOL0     C50961   7.970   2.783   0.803 -0.1864 -0.2710  0.3424
  378MOL0     C50962   7.836   2.803   0.825 -0.8817 -0.0510 -0.7646
  378MOL0     H50963   7.399   2.577   1.001 -0.8788 -1.2643  0.7552
  378MOL0     H50964   7.153   2.547   1.026 -0.1285 -2.0251  0.2328
  378MOL0     H50965   6.873   2.625   0.693  2.5246  1.4046  0.5743
  378MOL0     H50966   6.920   2.459   0.653  0.0444  0.8727  0.0532
  378MOL0     H50967   6.755   2.381   0.837  0.6094  0.5678 -0.4147
  378MOL0     H50968   6.721   2.551   0.870 -2.6501  1.5488 -2.8359
  378MOL0     H50969   6.544   2.509   0.724 -1.3229 -0.6831 -2.6571
  378MOL0     H50970   6.669   2.580   0.619 -0.9089 -0.2406 -1.4357
  378MOL0     H50971   6.754   2.337   0.556  1.3918  3.5776  1.0595
  378MOL0     H50972   6.594   2.289   0.633  0.1989 -1.1592 -2.2957
  378MOL0     H50973   6.476   2.431   0.453  0.0031 -1.4336 -0.2188
  378MOL0     H50974   6.623   2.467   0.382 -0.1374 -1.2066 -2.7061
  378MOL0     H50975   6.679   2.265   0.299  0.9661  1.6110 -0.9246
  378MOL0     H50976   6.532   2.184   0.385 -0.6537  2.3306  2.2530
  378MOL0     H50977   6.382   2.312   0.254 -0.4056 -0.2674 -0.8668
  378MOL0     H50978   6.509   2.397   0.168  0.4270 -0.2439  0.0256
  378MOL0     H50979   6.465   2.094   0.170  1.1391 -0.3328 -0.7944
  378MOL0     H50980   6.598   2.168   0.078  0.5353 -3.5206  0.0459
  378MOL0     H50981   6.233   2.271   0.094  4.5901  0.5986  1.9705
  378MOL0     H50982   6.084   2.372  -0.118  2.3497 -0.2086  1.9686
  378MOL0     H50983   6.159   2.383  -0.275  1.2188  1.7889  2.1991
  378MOL0     H50984   6.021   2.139  -0.174  1.5390  0.7079  0.5939
  378MOL0     H50985   6.103   2.152  -0.341 -2.7488 -2.2287 -1.9037
  378MOL0     H50986   5.942   2.315  -0.411  4.1524 -1.2719  0.3782
  378MOL0     H50987   5.858   2.307  -0.249  2.0989 -1.4462  2.4753
  378MOL0     H50988   5.809   2.060  -0.287 -3.0668  0.8453 -0.0580
  378MOL0     H50989   5.864   2.095  -0.459 -1.2238  0.2865 -0.7238
  378MOL0     H50990   5.681   1.926  -0.346  0.6469  1.7949  0.1683
  378MOL0     H50991   5.607   1.691  -0.352  2.0286  1.8897  4.6888
  378MOL0     H50992   5.478   1.734  -0.236 -0.7361 -0.1819  0.7837
  378MOL0     H50993   5.458   1.663  -0.408 -0.3731  0.8356  1.0866
  378MOL0     H50994   5.209   1.621  -0.635  0.2030  0.7629  0.5770
  378MOL0     H50995   5.031   1.474  -0.732  1.7284  0.8261  3.1254
  378MOL0     H50996   4.856   1.409  -0.949 -0.9074  1.5134 -0.6443
  378MOL0     H50997   4.844   1.388  -0.768  0.0435 -0.7449 -0.7975
  378MOL0     H50998   4.584   1.421  -0.804 -3.3252 -0.9270 -0.8517
  378MOL0     H50999   4.615   1.418  -0.977 -1.1649 -1.1490  0.0657
  378MOL0     H51000   4.674   1.220  -0.763  1.0735 -1.9178  0.0361
  378MOL0     H51001   4.764   1.196  -0.908  1.4802  1.0763  1.9907
  378MOL0     H51002   4.562   1.173  -1.049  0.9894  1.9818 -0.1296
  378MOL0     H51003   4.583   1.040  -0.936  0.7829 -0.0976  0.6715
  378MOL0     H51004   4.413   1.276  -0.879  0.5556 -1.6381 -2.4117
  378MOL0     H51005   4.446   1.147  -0.763 -1.9630 -0.2391  0.7720
  378MOL0     H51006   4.298   1.094  -1.028 -1.2523 -2.6231 -0.1768
  378MOL0     H51007   4.305   0.990  -0.885  3.8719  0.0964  0.8076
  378MOL0     H51008   4.177   1.258  -0.898  1.7788  1.2631  1.3115
  378MOL0     H51009   4.189   1.165  -0.743 -0.2514  1.4586  0.1575
  378MOL0     H51010   4.009   1.109  -0.988  0.8370  2.9892 -0.5948
  378MOL0     H51011   3.972   1.125  -0.822 -2.8867  0.5146 -4.9584
  378MOL0     H51012   4.812   1.824  -0.818 -1.4562 -2.6391  2.3546
  378MOL0     H51013   5.010   1.965  -0.734  0.4433  0.4387 -1.9331
  378MOL0     H51014   5.273   2.123  -0.532  2.0458  0.6950 -3.6204
  378MOL0     H51015   5.479   2.248  -0.528 -2.8944  0.3167 -0.2277
  378MOL0     H51016   7.119   2.577   0.610  1.3508  2.6604  0.1348
  378MOL0     H51017   7.361   2.617   0.584 -1.1839 -0.8050  0.1133
  378MOL0     H51018   7.737   2.483   0.728  0.3827  0.0235 -1.9702
  378MOL0     H51019   7.968   2.469   0.659  1.5516  1.6191 -0.9205
  378MOL0     H51020   8.150   2.837   0.618 -0.4928 -0.0936  0.7740
  378MOL0     H51021   8.306   2.756   0.601  1.0947 -4.4593 -1.9316
  378MOL0     H51022   8.045   2.702   0.473 -0.1228 -2.1398 -0.3237
  378MOL0     H51023   8.170   2.570   0.483  0.8685 -0.2537 -1.9144
  378MOL0     H51024   8.226   2.668   0.280  0.0580 -1.0917 -0.2905
  378MOL0     H51025   8.344   2.700   0.407  0.4866 -0.5906 -3.6437
  378MOL0     H51026   8.332   2.868   0.253  0.2377 -2.1238  0.3724
  378MOL0     H51027   8.302   2.927   0.417  2.7464  0.4995 -0.7362
  378MOL0     H51028   7.934   3.023   0.229 -0.5929 -0.5735 -0.4743
  378MOL0     H51029   8.045   2.857   0.829 -2.1768  1.9233  0.1762
  378MOL0     H51030   7.803   2.902   0.855  3.4352  1.2999  0.2757
  379MOL0     O51031   0.042   6.538   5.839  0.2180  0.8424  0.7545
  379MOL0     C51032   0.158   6.572   5.873 -0.4704 -0.1668  0.5744
  379MOL0     O51033   0.212   6.693   5.853 -0.4637 -0.3342  0.3205
  379MOL0     C51034   0.142   6.794   5.788  0.4137 -0.3048 -0.0041
  379MOL0     C51035   0.163   6.927   5.832  0.0847 -0.2685  0.6053
  379MOL0     C51036   0.111   7.038   5.758 -0.1510  0.7747 -0.3220
  379MOL0     C51037   0.024   7.022   5.656  0.1606  0.4428  0.1942
  379MOL0     O51038  -0.039   7.128   5.597  0.7118 -0.4178 -0.0490
  379MOL0     C51039  -0.150   7.108   5.510  0.2129  0.3096 -0.4667
  379MOL0     C51040  -0.177   7.251   5.464 -0.9930  0.2618  0.2394
  379MOL0     C51041  -0.306   7.260   5.385 -0.2104  0.6612 -0.1272
  379MOL0     C51042  -0.343   7.402   5.356  0.4557  0.3842  0.0524
  379MOL0     C51043  -0.490   7.404   5.315 -0.6184 -0.0537  0.4472
  379MOL0     C51044  -0.504   7.456   5.173 -0.4157 -0.1279  0.7872
  379MOL0     C51045  -0.642   7.526   5.142 -0.7840 -0.5540  0.7856
  379MOL0     C51046  -0.673   7.533   4.991 -0.7402 -0.3743 -0.6027
  379MOL0     N51047  -0.811   7.591   4.974  0.0921  0.0480 -0.2240
  379MOL0     C51048  -0.865   7.719   4.987  0.0055  0.0158  0.5681
  379MOL0     C51049  -1.001   7.694   4.999  0.6862  0.2023 -0.2039
  379MOL0     C51050  -1.112   7.789   5.044 -0.2820 -0.7342  0.6820
  379MOL0     C51051  -1.198   7.742   5.155  0.7093  0.2218 -0.1285
  379MOL0     C51052  -1.309   7.648   5.115  0.8229  0.1791 -0.0790
  379MOL0     C51053  -1.400   7.614   5.226 -0.1867  0.8977  0.6033
  379MOL0     O51054  -1.482   7.723   5.264 -0.5500  0.4029  0.1882
  379MOL0     C51055  -1.614   7.710   5.278 -0.3963  0.2547 -1.0343
  379MOL0     C51056  -1.685   7.592   5.335 -0.1188  0.0629  0.1520
  379MOL0     C51057  -1.831   7.586   5.344 -1.1862 -0.1527  0.3495
  379MOL0     C51058  -1.894   7.440   5.362 -0.1823  1.2099  0.4875
  379MOL0     C51059  -1.906   7.706   5.315 -1.1821 -0.1905 -0.1416
  379MOL0     C51060  -2.052   7.730   5.334 -0.4940  0.5651 -0.1988
  379MOL0     O51061  -2.123   7.635   5.398  0.1066 -1.2764  0.0698
  379MOL0     C51062  -2.260   7.635   5.410  0.2724  0.1049 -1.1738
  379MOL0     C51063  -2.314   7.562   5.520  0.0032  0.2996 -0.1063
  379MOL0     C51064  -2.452   7.545   5.541  1.0991 -0.2261 -0.2062
  379MOL0     C51065  -2.546   7.613   5.459 -0.2300  0.2219 -0.3227
  379MOL0     O51066  -2.681   7.602   5.454  0.4250 -0.2712  0.6652
  379MOL0     C51067  -2.738   7.530   5.561 -0.6923 -0.1088 -0.1213
  379MOL0     C51068  -2.883   7.576   5.571 -0.4247  0.3195 -0.2433
  379MOL0     C51069  -2.975   7.491   5.657 -0.2758  0.0621 -0.7841
  379MOL0     C51070  -3.128   7.540   5.676 -0.5575 -0.6212  0.2781
  379MOL0     C51071  -3.196   7.440   5.776 -0.2608  0.4716 -0.1191
  379MOL0     C51072  -3.346   7.470   5.796  0.8277  0.0901 -0.6114
  379MOL0     C51073  -3.429   7.413   5.665 -0.8236 -1.2190  0.2341
  379MOL0     C51074  -3.579   7.447   5.671 -0.2793  0.0979  0.4228
  379MOL0    Cl51075  -3.674   7.347   5.787  0.3133  0.0444 -0.2988
  379MOL0     C51076  -2.486   7.706   5.363 -0.1376  0.6331 -0.0286
  379MOL0     C51077  -2.349   7.712   5.337  0.3348  0.6980  0.1022
  379MOL0     O51078  -2.094   7.848   5.307 -0.7001  0.4260 -0.9875
  379MOL0     C51079  -1.835   7.816   5.264  0.8924 -0.6805  0.0304
  379MOL0     C51080  -1.695   7.816   5.243  0.2832  0.2103  0.5281
  379MOL0     N51081  -1.026   7.562   4.965 -0.2325  0.8097 -0.9610
  379MOL0     N51082  -0.909   7.506   4.950 -0.0807 -0.0721  0.0823
  379MOL0     C51083   0.004   6.888   5.609  0.3207  0.4167  0.6164
  379MOL0     C51084   0.068   6.775   5.671 -0.2482 -0.2212  0.0788
  379MOL0     C51085   0.256   6.475   5.929  0.1819 -0.6230  0.0529
  379MOL0     C51086   0.234   6.340   5.908 -0.2136  0.0417 -0.0205
  379MOL0     C51087   0.322   6.239   5.944 -0.0276 -0.1865  0.1388
  379MOL0     C51088   0.437   6.279   6.012 -0.0139 -0.2749 -1.0100
  379MOL0     O51089   0.533   6.176   6.045  0.8019 -0.7109 -0.1140
  379MOL0     C51090   0.632   6.208   6.139 -0.1327  0.3104 -0.9237
  379MOL0     C51091   0.735   6.099   6.148 -0.2613  0.4770 -0.3469
  379MOL0     C51092   0.817   6.089   6.018  0.1063 -1.2922 -0.4678
  379MOL0     C51093   0.904   5.970   5.994 -0.8208  0.0712  0.1784
  379MOL0     C51094   0.818   5.862   5.956  0.7963  0.1415 -0.2646
  379MOL0     C51095   0.734   5.771   5.943  0.3184  0.2264 -0.3033
  379MOL0     C51096   0.461   6.414   6.030 -0.0389 -1.1214 -0.6734
  379MOL0     C51097   0.370   6.515   5.998 -0.2600  0.4369  0.6824
  379MOL0     H51098   0.219   6.948   5.923 -0.5496  0.0280  0.9371
  379MOL0     H51099   0.141   7.136   5.792  3.0192  1.2374 -3.8136
  379MOL0     H51100  -0.119   7.044   5.428 -3.3615 -2.2264 -0.0607
  379MOL0     H51101  -0.242   7.071   5.557  1.5583 -0.5178  1.6907
  379MOL0     H51102  -0.182   7.318   5.551  0.1585 -0.0061  0.5267
  379MOL0     H51103  -0.090   7.280   5.404  0.3328 -0.6427  1.6513
  379MOL0     H51104  -0.286   7.207   5.291  1.8524 -0.8055  1.0631
  379MOL0     H51105  -0.387   7.208   5.436 -1.1940  1.5413 -0.7557
  379MOL0     H51106  -0.306   7.464   5.438  3.3056 -1.1582  0.0819
  379MOL0     H51107  -0.286   7.437   5.269  0.6160 -1.6282 -0.7223
  379MOL0     H51108  -0.543   7.309   5.326 -0.2414 -0.2512  0.5917
  379MOL0     H51109  -0.527   7.477   5.387  1.3365  1.2528  0.1888
  379MOL0     H51110  -0.431   7.536   5.162 -1.2548  0.7728  1.6188
  379MOL0     H51111  -0.478   7.374   5.106 -3.4994 -1.4794  1.0568
  379MOL0     H51112  -0.726   7.469   5.183 -2.7466  1.7773  0.1837
  379MOL0     H51113  -0.638   7.624   5.191 -2.7123  0.5381 -1.0733
  379MOL0     H51114  -0.665   7.432   4.948  0.2542  1.2190 -4.5649
  379MOL0     H51115  -0.589   7.588   4.947  1.6443 -3.0007  0.3128
  379MOL0     H51116  -0.813   7.809   5.019 -0.5419  0.9766 -1.1434
  379MOL0     H51117  -1.067   7.877   5.090 -0.4741 -0.2309 -0.0890
  379MOL0     H51118  -1.169   7.820   4.956 -0.5628  0.4765  1.2790
  379MOL0     H51119  -1.241   7.833   5.196  0.6534 -1.1370  3.1394
  379MOL0     H51120  -1.142   7.696   5.237  0.3891  3.3511  1.9968
  379MOL0     H51121  -1.264   7.556   5.078  1.9415 -0.1516  1.9299
  379MOL0     H51122  -1.366   7.707   5.043  1.9002  0.6343 -0.5740
  379MOL0     H51123  -1.344   7.582   5.315 -0.4529  1.2261  0.8946
  379MOL0     H51124  -1.465   7.535   5.187 -0.1708  0.0439  2.2172
  379MOL0     H51125  -1.628   7.501   5.350  2.2642  1.2809 -0.9429
  379MOL0     H51126  -1.849   7.390   5.449 -5.1864 -2.0134  1.6909
  379MOL0     H51127  -2.001   7.447   5.384 -0.4766  0.7041 -0.7259
  379MOL0     H51128  -1.875   7.368   5.282 -0.1857 -1.8747  3.0309
  379MOL0     H51129  -2.251   7.493   5.576 -1.2415 -0.7473  0.0692
  379MOL0     H51130  -2.481   7.475   5.619  2.1542 -0.5188 -0.0627
  379MOL0     H51131  -2.724   7.426   5.531  0.7407  0.4144 -1.3634
  379MOL0     H51132  -2.689   7.557   5.655 -1.0248  1.1997 -0.3113
  379MOL0     H51133  -2.880   7.679   5.609 -2.4754  0.7223 -1.0006
  379MOL0     H51134  -2.927   7.583   5.471  1.2165  0.6929 -0.9711
  379MOL0     H51135  -2.930   7.495   5.757 -2.3542  2.0374  0.1769
  379MOL0     H51136  -2.974   7.388   5.620  2.2790 -0.9497  1.7401
  379MOL0     H51137  -3.131   7.638   5.725  1.0280 -0.8606  0.9307
  379MOL0     H51138  -3.176   7.537   5.578 -2.2189 -4.7008  1.0408
  379MOL0     H51139  -3.138   7.443   5.869 -0.4662  2.4228 -0.0105
  379MOL0     H51140  -3.183   7.345   5.723  2.9905  1.0154 -0.5230
  379MOL0     H51141  -3.391   7.427   5.886 -2.2484  2.5660 -0.7458
  379MOL0     H51142  -3.360   7.577   5.817  0.1239  0.0660 -0.9095
  379MOL0     H51143  -3.419   7.304   5.655  1.8488 -0.8891 -1.6970
  379MOL0     H51144  -3.376   7.459   5.581  0.0805 -3.0540 -0.2704
  379MOL0     H51145  -3.625   7.433   5.573 -2.2226 -2.9344  1.6328
  379MOL0     H51146  -3.596   7.552   5.698  0.1899  0.3098 -0.0840
  379MOL0     H51147  -2.554   7.759   5.297 -1.7128 -0.0447  1.0048
  379MOL0     H51148  -2.317   7.772   5.252 -2.6817  1.2012 -0.8004
  379MOL0     H51149  -1.881   7.912   5.243  0.7817 -0.2729  1.9323
  379MOL0     H51150  -1.651   7.895   5.184 -0.9461 -0.3224 -1.1639
  379MOL0     H51151  -0.066   6.865   5.528 -0.6660  2.7285  0.7302
  379MOL0     H51152   0.060   6.674   5.633 -0.9202  0.5605 -2.0046
  379MOL0     H51153   0.143   6.312   5.856  1.0787 -3.1127 -0.8082
  379MOL0     H51154   0.318   6.133   5.923  2.2533 -0.1820 -0.6631
  379MOL0     H51155   0.680   6.305   6.122 -2.6392  1.5739 -1.1477
  379MOL0     H51156   0.573   6.205   6.231 -2.0427  2.2642 -2.0002
  379MOL0     H51157   0.685   6.002   6.160  0.2805  0.4587  2.2888
  379MOL0     H51158   0.796   6.106   6.238  0.6467  2.5411 -1.0613
  379MOL0     H51159   0.888   6.171   6.006 -1.4895  0.2015 -0.0933
  379MOL0     H51160   0.747   6.100   5.934 -1.2359 -0.9378  0.6732
  379MOL0     H51161   0.946   5.947   6.092 -1.4005 -0.9088  0.2129
  379MOL0     H51162   0.973   5.984   5.910  0.1577 -2.7555  0.3944
  379MOL0     H51163   0.681   5.681   5.924  2.7313 -0.7828 -2.9819
  379MOL0     H51164   0.550   6.447   6.083 -0.1104 -1.8850 -0.0642
  379MOL0     H51165   0.389   6.621   6.004  0.4123  0.4433 -1.1757
  380MOL0     O51166   4.297   5.176   0.233 -0.0206  0.6626 -0.1203
  380MOL0     C51167   4.359   5.069   0.238  0.4643 -0.0838 -0.8237
  380MOL0     O51168   4.312   4.949   0.211 -0.0092  0.1067  0.8632
  380MOL0     C51169   4.191   4.925   0.148 -0.9057 -0.1065  0.5284
  380MOL0     C51170   4.170   4.798   0.099  0.1057  0.7199 -0.8379
  380MOL0     C51171   4.057   4.752   0.026 -0.4594  0.7026 -1.0004
  380MOL0     C51172   3.957   4.849   0.001  0.0642 -0.8016  0.0821
  380MOL0     O51173   3.849   4.817  -0.078 -0.3351 -0.2211  0.0615
  380MOL0     C51174   3.728   4.886  -0.064  0.3927  0.0341  0.0887
  380MOL0     C51175   3.631   4.790  -0.125  0.1741  1.0604  0.5169
  380MOL0     C51176   3.495   4.865  -0.151  0.2834  0.1292  0.7010
  380MOL0     C51177   3.404   4.774  -0.237 -0.5472  1.1223  0.1201
  380MOL0     C51178   3.259   4.811  -0.242 -0.0104 -0.4362 -0.1541
  380MOL0     C51179   3.241   4.966  -0.262  0.3188 -0.1223  0.3264
  380MOL0     C51180   3.259   4.999  -0.415 -0.0685  0.0149  0.0664
  380MOL0     C51181   3.164   4.923  -0.517 -0.6918 -0.2531 -0.3247
  380MOL0     N51182   3.025   4.951  -0.487  0.6044 -0.6114 -0.6085
  380MOL0     C51183   2.975   5.080  -0.478  0.0901 -0.7964  0.4301
  380MOL0     C51184   2.842   5.067  -0.471 -0.0611 -0.9150 -0.1275
  380MOL0     C51185   2.737   5.174  -0.499 -0.7062  0.5780 -0.5113
  380MOL0     C51186   2.718   5.205  -0.646  0.4324  0.3645  0.3837
  380MOL0     C51187   2.582   5.267  -0.676  0.2281 -0.3000  0.4707
  380MOL0     C51188   2.576   5.272  -0.829  0.5060  0.4008 -0.3912
  380MOL0     O51189   2.556   5.141  -0.887  0.1738  0.8197  0.1897
  380MOL0     C51190   2.432   5.097  -0.927 -0.3894  0.1132  0.6645
  380MOL0     C51191   2.419   4.981  -1.004 -1.0068 -1.0345 -0.2947
  380MOL0     C51192   2.305   4.919  -1.048  0.3902 -0.2968 -0.5392
  380MOL0     C51193   2.313   4.784  -1.126 -0.2495  0.5123 -0.7968
  380MOL0     C51194   2.184   4.991  -1.019 -0.5772 -0.1614 -0.1807
  380MOL0     C51195   2.052   4.950  -1.065  0.3923  0.4654  0.2044
  380MOL0     O51196   1.951   4.988  -0.983  0.3656 -0.5185  0.6530
  380MOL0     C51197   1.818   4.969  -1.019  0.6759 -0.3019 -0.1132
  380MOL0     C51198   1.760   4.988  -1.142 -0.2970  0.6590 -0.2243
  380MOL0     C51199   1.640   4.928  -1.179 -0.0358  0.5030 -0.2658
  380MOL0     C51200   1.556   4.897  -1.070 -0.3777 -0.3629 -0.0375
  380MOL0     O51201   1.434   4.870  -1.105  0.9969  0.0461 -0.5863
  380MOL0     C51202   1.331   4.963  -1.061 -0.3877  0.0724  0.0127
  380MOL0     C51203   1.327   5.078  -1.161 -0.1214  0.6503 -0.4412
  380MOL0     C51204   1.210   5.167  -1.138 -0.7600  0.5963  0.1399
  380MOL0     C51205   1.241   5.265  -1.020 -0.6633 -0.1080  0.1365
  380MOL0     C51206   1.111   5.312  -0.959  0.3774  0.1038 -0.2804
  380MOL0     C51207   1.061   5.433  -1.023  0.3126  0.2063  0.0864
  380MOL0     C51208   0.904   5.441  -1.014 -0.2874  0.4027  0.3087
  380MOL0     C51209   0.837   5.542  -1.111  0.1593  0.4876  0.0445
  380MOL0    Cl51210   0.908   5.706  -1.086 -0.1855 -0.3195 -0.2717
  380MOL0     C51211   1.602   4.882  -0.937 -0.2702  0.8727 -0.0990
  380MOL0     C51212   1.735   4.913  -0.911  0.0165 -0.5086  0.2056
  380MOL0     O51213   2.034   4.870  -1.160 -0.5797  0.0411 -0.0738
  380MOL0     C51214   2.191   5.109  -0.945  0.5322  0.0628 -0.6475
  380MOL0     C51215   2.317   5.156  -0.896  0.1417  0.7440 -0.0195
  380MOL0     N51216   2.811   4.931  -0.467 -0.2793 -0.4887 -0.1368
  380MOL0     N51217   2.925   4.864  -0.467  0.3241 -0.0416 -0.5564
  380MOL0     C51218   3.964   4.977   0.061  0.2502  0.0468  0.2989
  380MOL0     C51219   4.082   5.013   0.129 -0.6876 -0.1095  0.4759
  380MOL0     C51220   4.495   5.086   0.276 -0.3360  0.5140 -0.1176
  380MOL0     C51221   4.563   5.195   0.329  0.1368 -0.2102  0.1889
  380MOL0     C51222   4.702   5.198   0.376 -0.8138 -0.0022 -0.5263
  380MOL0     C51223   4.780   5.092   0.356 -0.6602  0.2868  0.0562
  380MOL0     O51224   4.914   5.104   0.387  0.5258 -0.2484 -0.3933
  380MOL0     C51225   5.004   4.996   0.376 -0.5201  0.2354  0.0545
  380MOL0     C51226   5.152   5.024   0.411 -0.0883  0.1583  0.1295
  380MOL0     C51227   5.178   5.024   0.562  0.2317  0.2399  0.0290
  380MOL0     C51228   5.283   5.120   0.599 -1.1071 -0.7295  0.0546
  380MOL0     C51229   5.302   5.168   0.737  0.3025 -0.3423 -0.0274
  380MOL0     C51230   5.308   5.207   0.853 -0.7997  0.1964 -1.0659
  380MOL0     C51231   4.724   4.973   0.308 -0.5937 -0.3286  0.8787
  380MOL0     C51232   4.581   4.979   0.260 -0.1149 -0.1757  0.1773
  380MOL0     H51233   4.255   4.734   0.119 -1.2910 -0.8193  0.4838
  380MOL0     H51234   4.045   4.648  -0.004  0.5211  0.8341 -1.8932
  380MOL0     H51235   3.689   4.907   0.035 -2.1457  1.8751 -1.1810
  380MOL0     H51236   3.728   4.980  -0.121  1.2734  0.7500  1.2185
  380MOL0     H51237   3.667   4.752  -0.221  1.8861  1.7602  0.8426
  380MOL0     H51238   3.603   4.700  -0.070  0.7702  0.5184 -0.0412
  380MOL0     H51239   3.435   4.877  -0.061  0.9270  1.5988  0.9773
  380MOL0     H51240   3.509   4.964  -0.195 -1.7789  0.2218  0.1843
  380MOL0     H51241   3.447   4.764  -0.337 -2.5847  0.5757 -0.7731
  380MOL0     H51242   3.409   4.675  -0.192  0.7409  0.3872 -1.5384
  380MOL0     H51243   3.200   4.751  -0.312 -2.4450 -0.9177  2.1826
  380MOL0     H51244   3.219   4.780  -0.146  1.4253 -1.7771  0.0581
  380MOL0     H51245   3.145   4.989  -0.216 -0.6872  1.9147 -2.4948
  380MOL0     H51246   3.307   5.035  -0.209 -0.3625  2.8208 -2.3337
  380MOL0     H51247   3.231   5.102  -0.439  1.3455  0.0078 -1.8635
  380MOL0     H51248   3.362   4.982  -0.446 -0.6829  0.6672 -2.5556
  380MOL0     H51249   3.179   4.815  -0.510  1.9041  0.1419  1.3534
  380MOL0     H51250   3.175   4.958  -0.620  0.0859  0.0104 -0.1565
  380MOL0     H51251   3.020   5.178  -0.493 -0.1657 -0.9395 -1.5725
  380MOL0     H51252   2.640   5.147  -0.455  0.1472  0.5493  1.4440
  380MOL0     H51253   2.758   5.267  -0.445  0.9087 -0.2609  0.3885
  380MOL0     H51254   2.718   5.109  -0.699  1.2358  0.6617 -0.1648
  380MOL0     H51255   2.802   5.266  -0.681 -1.2434  2.5422 -0.0053
  380MOL0     H51256   2.579   5.368  -0.635 -0.9055 -0.7498  1.5458
  380MOL0     H51257   2.501   5.212  -0.628 -0.0614  0.8876  1.4066
  380MOL0     H51258   2.674   5.309  -0.861  2.2488 -0.5598  3.2666
  380MOL0     H51259   2.506   5.353  -0.852  0.1210  0.5384  1.1722
  380MOL0     H51260   2.510   4.923  -1.013 -0.8149 -0.5023 -1.9701
  380MOL0     H51261   2.241   4.786  -1.209 -2.0330  1.2878  0.6808
  380MOL0     H51262   2.416   4.759  -1.149 -0.3737  1.1004 -2.0432
  380MOL0     H51263   2.281   4.707  -1.055  2.8122  1.7372  2.2011
  380MOL0     H51264   1.826   5.014  -1.225  1.6712  0.6013  1.2485
  380MOL0     H51265   1.608   4.932  -1.282 -0.5910  1.0939 -0.0809
  380MOL0     H51266   1.231   4.919  -1.066 -0.2125 -0.2427 -0.9101
  380MOL0     H51267   1.343   5.000  -0.959 -3.2867  0.9058  0.1535
  380MOL0     H51268   1.425   5.127  -1.155  0.7183 -0.9264 -0.6588
  380MOL0     H51269   1.319   5.049  -1.266 -3.2748  2.5127 -0.8261
  380MOL0     H51270   1.117   5.109  -1.128 -1.7782  1.9699 -0.9574
  380MOL0     H51271   1.198   5.220  -1.233 -2.5858 -0.8237 -0.4949
  380MOL0     H51272   1.303   5.214  -0.947  2.1259  0.3360 -1.7585
  380MOL0     H51273   1.290   5.356  -1.057 -0.3673  0.9918  2.9998
  380MOL0     H51274   1.128   5.341  -0.855  0.8096  1.6176 -0.7394
  380MOL0     H51275   1.039   5.230  -0.966  0.3429  0.2201 -1.4909
  380MOL0     H51276   1.103   5.525  -0.981 -0.2022  1.1166 -1.3463
  380MOL0     H51277   1.094   5.432  -1.127  2.4816  5.5814  0.3880
  380MOL0     H51278   0.871   5.467  -0.913 -0.6062 -0.9863  0.5761
  380MOL0     H51279   0.861   5.344  -1.039 -2.5933  2.3731 -4.8103
  380MOL0     H51280   0.731   5.538  -1.082 -0.4860 -2.2474 -2.2286
  380MOL0     H51281   0.833   5.513  -1.216 -3.0602  0.1802  0.1447
  380MOL0     H51282   1.528   4.850  -0.865 -0.6153 -2.5153 -1.7275
  380MOL0     H51283   1.769   4.903  -0.809 -2.4767  2.4437  1.4719
  380MOL0     H51284   2.098   5.163  -0.930  0.8349  0.1880  0.9394
  380MOL0     H51285   2.310   5.250  -0.842  1.9143  0.6655  0.4088
  380MOL0     H51286   3.883   5.046   0.036 -0.8395 -0.1293  3.0074
  380MOL0     H51287   4.086   5.117   0.161 -5.3523  0.4887 -0.1645
  380MOL0     H51288   4.507   5.286   0.349  2.0369  1.4659 -1.5963
  380MOL0     H51289   4.740   5.283   0.432 -2.0858  1.6287 -2.0164
  380MOL0     H51290   4.960   4.916   0.437 -0.6702  0.4410  0.2195
  380MOL0     H51291   5.012   4.962   0.273 -1.3612  0.5641 -0.1301
  380MOL0     H51292   5.188   5.119   0.368 -2.3502  0.7290 -0.6640
  380MOL0     H51293   5.212   4.946   0.364 -0.3583  0.2452 -0.3662
  380MOL0     H51294   5.207   4.925   0.599 -1.7255  0.0048  1.1032
  380MOL0     H51295   5.091   5.052   0.622  1.3322  0.7927  1.4296
  380MOL0     H51296   5.271   5.203   0.528 -2.2022 -1.8590 -1.1270
  380MOL0     H51297   5.374   5.063   0.577 -1.5088 -1.9978  1.4731
  380MOL0     H51298   5.299   5.242   0.954 -2.6157 -1.6668 -0.5320
  380MOL0     H51299   4.782   4.881   0.311  0.7070  0.4507  0.5480
  380MOL0     H51300   4.527   4.887   0.239 -1.4019  0.6522 -0.2881
  381MOL0     O51301   4.706  10.354   0.594 -0.0988 -0.5818 -0.2063
  381MOL0     C51302   4.703  10.235   0.612  0.7240 -0.2609 -0.2600
  381MOL0     O51303   4.593  10.158   0.612 -0.3318 -0.5294 -0.0763
  381MOL0     C51304   4.473  10.223   0.616  0.1149  0.4383  0.3565
  381MOL0     C51305   4.369  10.174   0.533 -1.2388  0.5044  0.3075
  381MOL0     C51306   4.252  10.249   0.527  0.1829 -0.7420 -0.0203
  381MOL0     C51307   4.220  10.365   0.606  0.6318 -0.2921 -0.1620
  381MOL0     O51308   4.102  10.438   0.606  0.0607 -0.0779 -0.6509
  381MOL0     C51309   4.085  10.575   0.642 -0.0716 -0.7257 -0.1795
  381MOL0     C51310   3.934  10.583   0.678 -0.8015  0.7370 -0.1194
  381MOL0     C51311   3.889  10.487   0.794  0.0374  0.4621  0.6312
  381MOL0     C51312   3.979  10.487   0.908  0.0354 -0.1919 -1.2132
  381MOL0     C51313   3.985  10.347   0.983 -0.8185 -0.6795  0.8911
  381MOL0     C51314   4.087  10.350   1.097  0.2786  0.5458  0.6040
  381MOL0     C51315   4.089  10.216   1.169 -0.2307  1.2101 -1.1640
  381MOL0     C51316   4.147  10.215   1.306  0.4940 -0.3019  0.0705
  381MOL0     N51317   4.293  10.208   1.283  0.4763 -0.4663  0.2495
  381MOL0     C51318   4.367  10.100   1.246 -0.5662 -0.2326 -0.0218
  381MOL0     C51319   4.496  10.145   1.242  0.8683 -0.4967  0.1696
  381MOL0     C51320   4.613  10.068   1.185  0.5793  0.0675 -0.2355
  381MOL0     C51321   4.665  10.126   1.054 -0.1463  0.1674  0.0178
  381MOL0     C51322   4.791  10.199   1.092  0.8421  0.1736  0.6919
  381MOL0     C51323   4.842  10.266   0.967 -1.1100 -0.7167  0.8268
  381MOL0     O51324   4.979  10.319   0.990 -0.1211  0.2611  0.1325
  381MOL0     C51325   5.077  10.227   1.018  0.0682  0.6521 -1.0466
  381MOL0     C51326   5.079  10.092   0.975 -1.2484 -0.1239  1.0293
  381MOL0     C51327   5.179  10.001   1.008  0.5885 -0.2470  0.0374
  381MOL0     C51328   5.182   9.856   0.973  0.0353  0.2817  0.1689
  381MOL0     C51329   5.294  10.052   1.084  0.1711 -0.1364  0.0484
  381MOL0     C51330   5.404   9.968   1.131 -0.2513 -0.2267  0.0609
  381MOL0     O51331   5.493   9.923   1.028  0.4880  0.0964 -0.3062
  381MOL0     C51332   5.589   9.830   1.069  0.4576 -0.7221  0.0113
  381MOL0     C51333   5.727   9.855   1.048 -0.4658  0.1287 -0.0859
  381MOL0     C51334   5.828   9.769   1.087  1.0054 -0.0077 -0.1997
  381MOL0     C51335   5.781   9.645   1.145 -0.0493  0.3529  0.3580
  381MOL0     O51336   5.870   9.551   1.186 -0.2774 -0.0257  0.5376
  381MOL0     C51337   6.009   9.562   1.159  0.5587 -1.7746  0.1174
  381MOL0     C51338   6.085   9.433   1.187 -0.3397  0.3006  0.3839
  381MOL0     C51339   6.091   9.430   1.344 -0.2832  0.5585 -0.4495
  381MOL0     C51340   6.192   9.324   1.408 -0.8243 -0.4929  0.1858
  381MOL0     C51341   6.168   9.301   1.557 -0.2774 -0.3744 -0.3099
  381MOL0     C51342   6.218   9.164   1.589 -0.2375 -0.8677  0.5456
  381MOL0     C51343   6.371   9.159   1.604  0.6476  0.0711  0.5438
  381MOL0     C51344   6.431   9.027   1.670  0.8780 -0.4763 -0.4439
  381MOL0    Cl51345   6.415   8.908   1.540 -0.0221 -0.6018  0.4128
  381MOL0     C51346   5.644   9.615   1.162 -0.1834  1.0487 -0.0156
  381MOL0     C51347   5.546   9.703   1.118 -0.6586  0.0679 -1.0822
  381MOL0     O51348   5.399   9.944   1.252 -0.8107  0.7205  0.3713
  381MOL0     C51349   5.287  10.188   1.120 -0.5384 -0.1233 -1.0606
  381MOL0     C51350   5.183  10.271   1.093 -0.2591  0.5876  1.0600
  381MOL0     N51351   4.496  10.276   1.282 -0.8837 -0.9674 -1.0341
  381MOL0     N51352   4.374  10.321   1.295 -0.3753 -0.1465 -0.5740
  381MOL0     C51353   4.331  10.405   0.688 -0.6597  0.0525 -0.2869
  381MOL0     C51354   4.449  10.340   0.691  0.0155  0.4343 -0.3055
  381MOL0     C51355   4.829  10.152   0.611  1.2350 -0.6923 -0.0621
  381MOL0     C51356   4.841  10.020   0.656  0.3092  0.4592 -0.8325
  381MOL0     C51357   4.966   9.956   0.649 -0.3276 -0.1287  0.5725
  381MOL0     C51358   5.085  10.014   0.608  0.3136  0.4928  0.3208
  381MOL0     O51359   5.200   9.938   0.626  0.0893  0.0931 -0.5720
  381MOL0     C51360   5.323   9.994   0.582 -0.1074  0.0659  0.2801
  381MOL0     C51361   5.418   9.883   0.545 -0.5855 -0.0407  0.2438
  381MOL0     C51362   5.508   9.823   0.658 -0.4250  1.5836  0.0680
  381MOL0     C51363   5.639   9.893   0.706 -0.1704 -0.7297  0.5744
  381MOL0     C51364   5.621  10.028   0.752 -0.7185 -0.3526  0.8629
  381MOL0     C51365   5.607  10.141   0.782 -0.3880  0.1507  0.5290
  381MOL0     C51366   5.066  10.146   0.564  0.1748  0.5830  0.5789
  381MOL0     C51367   4.948  10.205   0.569 -0.3303 -0.4695  0.4933
  381MOL0     H51368   4.385  10.094   0.462 -5.4356 -0.2411 -0.0096
  381MOL0     H51369   4.180  10.227   0.450  0.4790 -0.2217 -0.4549
  381MOL0     H51370   4.148  10.617   0.721 -1.4853 -0.5538  0.8930
  381MOL0     H51371   4.109  10.644   0.561  3.3969 -0.9204  0.5386
  381MOL0     H51372   3.897  10.683   0.705  2.5490  1.2749  3.1982
  381MOL0     H51373   3.882  10.552   0.587  2.6968 -0.9069 -1.7284
  381MOL0     H51374   3.785  10.503   0.822 -0.6365 -0.9437 -0.8634
  381MOL0     H51375   3.897  10.391   0.742  0.1102 -0.1121  1.6747
  381MOL0     H51376   4.085  10.505   0.886 -0.2491 -0.3340 -2.8798
  381MOL0     H51377   3.953  10.562   0.983  3.4154  0.0367 -0.1127
  381MOL0     H51378   3.889  10.329   1.031  0.3109 -3.9360  2.1973
  381MOL0     H51379   4.001  10.269   0.908 -0.2283  0.0689  0.2167
  381MOL0     H51380   4.185  10.375   1.055 -0.0763  1.5507  0.3403
  381MOL0     H51381   4.051  10.426   1.166  1.3135 -0.1103  1.9054
  381MOL0     H51382   3.987  10.184   1.190  0.0359  2.4493  2.7496
  381MOL0     H51383   4.138  10.137   1.112  1.0013 -3.1368  4.9407
  381MOL0     H51384   4.122  10.132   1.374 -0.0478 -0.9019 -0.8423
  381MOL0     H51385   4.119  10.308   1.356  2.1434  0.4445 -0.3365
  381MOL0     H51386   4.325  10.004   1.217  0.3115  0.1357 -2.8264
  381MOL0     H51387   4.694  10.062   1.258  0.6870 -1.5761 -0.4547
  381MOL0     H51388   4.576   9.968   1.161 -0.2954 -0.4430  2.8067
  381MOL0     H51389   4.594  10.200   1.014  0.1114  0.2857 -0.2223
  381MOL0     H51390   4.685  10.044   0.985 -1.5961  1.0183 -1.4911
  381MOL0     H51391   4.866  10.126   1.124  1.2997  1.2987  2.2856
  381MOL0     H51392   4.777  10.277   1.168 -0.8993 -0.6267  1.2461
  381MOL0     H51393   4.791  10.355   0.929 -0.2694 -1.5123 -2.5877
  381MOL0     H51394   4.832  10.201   0.879  0.0843 -0.5979  0.5737
  381MOL0     H51395   5.008  10.056   0.901 -2.7416 -1.0674  2.8296
  381MOL0     H51396   5.271   9.808   0.930 -0.1369  0.0101  0.1111
  381MOL0     H51397   5.150   9.808   1.066  0.0143  0.2873  0.1647
  381MOL0     H51398   5.101   9.842   0.900  1.3291  1.9469 -1.6946
  381MOL0     H51399   5.754   9.954   1.014 -0.1785  0.3207  0.6701
  381MOL0     H51400   5.928   9.797   1.056  2.2849 -3.8984 -0.1062
  381MOL0     H51401   6.029   9.580   1.053 -2.2932 -1.0123 -0.3682
  381MOL0     H51402   6.048   9.652   1.208 -2.8401  0.5026 -0.9784
  381MOL0     H51403   6.035   9.342   1.154  1.3555  0.2642 -2.4363
  381MOL0     H51404   6.185   9.444   1.142 -0.9330  1.8970 -0.6435
  381MOL0     H51405   5.988   9.413   1.378  0.6421 -1.0160  1.9157
  381MOL0     H51406   6.132   9.525   1.379  3.2500 -0.7182 -0.6925
  381MOL0     H51407   6.177   9.236   1.345  0.7509 -0.1891 -0.6695
  381MOL0     H51408   6.294   9.362   1.397 -1.0473  0.1856  0.3963
  381MOL0     H51409   6.059   9.294   1.564 -0.5039 -1.6574 -3.5128
  381MOL0     H51410   6.202   9.378   1.627 -0.4071 -3.0716  2.9820
  381MOL0     H51411   6.181   9.140   1.689  2.4156 -1.6650  1.4294
  381MOL0     H51412   6.190   9.081   1.524 -0.7712 -1.8556  1.9812
  381MOL0     H51413   6.397   9.246   1.666  1.6561  0.3352 -0.2251
  381MOL0     H51414   6.409   9.174   1.503 -0.2703 -0.3267  0.1370
  381MOL0     H51415   6.390   8.991   1.765  1.9130 -1.3248 -0.3095
  381MOL0     H51416   6.536   9.054   1.687  1.2592 -1.4005 -1.2933
  381MOL0     H51417   5.613   9.527   1.217  1.0647  1.6321  1.7316
  381MOL0     H51418   5.441   9.680   1.135 -0.9860  2.0325 -0.2674
  381MOL0     H51419   5.376  10.226   1.170 -2.0586  0.1573  1.6248
  381MOL0     H51420   5.186  10.376   1.121  2.3373  1.0434 -0.5614
  381MOL0     H51421   4.332  10.479   0.767  3.5429  1.2380 -1.1945
  381MOL0     H51422   4.511  10.379   0.771 -2.5341  0.3986  1.8217
  381MOL0     H51423   4.758   9.961   0.694  1.8645 -0.2183  1.7623
  381MOL0     H51424   4.972   9.856   0.690 -2.2522 -0.8822 -0.8025
  381MOL0     H51425   5.307  10.055   0.492  0.2059  1.3844  1.0858
  381MOL0     H51426   5.367  10.059   0.659 -0.2342  3.6482 -2.4005
  381MOL0     H51427   5.491   9.929   0.478  0.7163 -2.1753  0.1264
  381MOL0     H51428   5.371   9.805   0.485 -0.8195 -1.0183  1.6542
  381MOL0     H51429   5.531   9.720   0.631  0.8044  1.6845  0.6758
  381MOL0     H51430   5.446   9.810   0.747  2.5588  1.8183  2.3094
  381MOL0     H51431   5.708   9.905   0.621 -2.3936  1.9005 -1.0334
  381MOL0     H51432   5.687   9.833   0.783  1.1139 -1.8441 -1.0128
  381MOL0     H51433   5.572  10.238   0.813  0.9239  0.7377  0.2211
  381MOL0     H51434   5.152  10.200   0.526 -1.1507  0.9927 -2.0143
  381MOL0     H51435   4.953  10.306   0.529  0.0943 -1.5341 -2.4054
  382MOL0     O51436   9.348   7.500   8.870  0.4943 -0.0283 -0.4594
  382MOL0     C51437   9.314   7.499   8.988 -0.4599  0.0715 -0.1484
  382MOL0     O51438   9.184   7.526   9.025  0.2638 -0.0146 -0.0458
  382MOL0     C51439   9.093   7.589   8.944 -0.0709  0.0116  0.1485
  382MOL0     C51440   9.121   7.683   8.841  0.3386 -0.0153 -0.7086
  382MOL0     C51441   9.022   7.768   8.778  0.0151  0.4147  1.5384
  382MOL0     C51442   8.889   7.751   8.822 -0.5510  0.7082 -0.4160
  382MOL0     O51443   8.779   7.817   8.779  1.0356 -0.2476  0.0812
  382MOL0     C51444   8.765   7.838   8.637  0.2072 -0.8164 -0.3729
  382MOL0     C51445   8.642   7.795   8.562  0.4692  0.4483 -0.0183
  382MOL0     C51446   8.513   7.841   8.618  0.3008 -0.7121 -0.6883
  382MOL0     C51447   8.409   7.757   8.553 -0.3125 -0.2401 -0.5437
  382MOL0     C51448   8.274   7.815   8.600  0.1648 -0.5875  0.7902
  382MOL0     C51449   8.230   7.948   8.534  0.1558 -0.4006 -0.4451
  382MOL0     C51450   8.095   7.994   8.576  0.6258 -0.0178 -0.2040
  382MOL0     C51451   8.030   8.093   8.481  0.1331 -0.6788  0.9591
  382MOL0     N51452   7.898   8.157   8.533  1.3225  0.1648  0.2894
  382MOL0     C51453   7.900   8.245   8.632  0.5518 -0.2520 -0.2952
  382MOL0     C51454   7.771   8.274   8.664  0.1323 -0.7634 -0.5648
  382MOL0     C51455   7.719   8.377   8.759 -0.6862 -0.0939 -0.8255
  382MOL0     C51456   7.757   8.361   8.903  0.9661  0.2779 -0.3201
  382MOL0     C51457   7.712   8.238   8.976 -0.4477 -0.3059 -0.6724
  382MOL0     C51458   7.564   8.231   8.984 -0.6948  0.1484  0.8586
  382MOL0     O51459   7.494   8.347   9.035  0.9602 -0.0623 -0.9457
  382MOL0     C51460   7.354   8.340   9.012 -0.1051 -0.0243  0.4444
  382MOL0     C51461   7.311   8.382   8.887  0.3665 -0.5262  0.1705
  382MOL0     C51462   7.171   8.395   8.857  0.6277  1.0806  0.0683
  382MOL0     C51463   7.142   8.427   8.712  0.5084 -0.5401 -0.5881
  382MOL0     C51464   7.075   8.361   8.957  0.3520 -0.2812 -0.3602
  382MOL0     C51465   6.926   8.350   8.942 -0.7172  1.1704  0.0670
  382MOL0     O51466   6.860   8.349   9.061  0.4168  0.4035  0.4033
  382MOL0     C51467   6.729   8.380   9.075  0.4638 -0.0485  0.0264
  382MOL0     C51468   6.654   8.478   8.999  0.6061  0.9170  0.6938
  382MOL0     C51469   6.531   8.518   9.039  0.4520 -0.7925  0.7009
  382MOL0     C51470   6.468   8.473   9.157 -0.0916 -0.3527 -0.1421
  382MOL0     O51471   6.350   8.520   9.216 -0.7873  0.5238 -0.2624
  382MOL0     C51472   6.305   8.642   9.172 -0.0239  0.5155  1.3136
  382MOL0     C51473   6.170   8.652   9.228  0.0103  0.3761  0.3077
  382MOL0     C51474   6.101   8.783   9.186 -0.5768 -0.6034 -0.2870
  382MOL0     C51475   6.081   8.799   9.035  0.4674 -0.0262  0.0219
  382MOL0     C51476   5.989   8.916   8.993 -0.1540 -0.9203  0.1389
  382MOL0     C51477   5.835   8.883   9.010  0.1216  0.6932  0.2444
  382MOL0     C51478   5.766   8.881   8.873  0.3587 -1.3873 -0.2058
  382MOL0     C51479   5.630   8.811   8.877  0.0814 -0.1295 -0.0903
  382MOL0    Cl51480   5.636   8.636   8.914 -0.0112 -0.0652  0.1116
  382MOL0     C51481   6.536   8.376   9.229  0.4485  0.3090 -0.3719
  382MOL0     C51482   6.665   8.331   9.188  0.5797  0.5922 -0.3328
  382MOL0     O51483   6.874   8.343   8.830 -0.3529 -0.5004  0.0382
  382MOL0     C51484   7.124   8.318   9.087 -0.4194  0.1455 -0.5365
  382MOL0     C51485   7.264   8.311   9.111  0.3407 -1.1253  0.3795
  382MOL0     N51486   7.692   8.207   8.580  0.1227  0.0116 -0.6892
  382MOL0     N51487   7.763   8.146   8.495 -0.1963  0.2602  0.1860
  382MOL0     C51488   8.865   7.654   8.922 -0.2297 -0.6517 -0.5841
  382MOL0     C51489   8.965   7.580   8.991  0.7369  0.1900 -0.5575
  382MOL0     C51490   9.406   7.473   9.094 -0.0014 -0.1629  0.0897
  382MOL0     C51491   9.393   7.548   9.207 -0.2916  0.8277 -0.3390
  382MOL0     C51492   9.481   7.524   9.315  0.8024  0.1511 -0.1599
  382MOL0     C51493   9.565   7.415   9.315  0.4296 -0.7059 -0.0900
  382MOL0     O51494   9.637   7.366   9.420  0.6239 -0.7202 -0.5328
  382MOL0     C51495   9.683   7.444   9.536  0.1990  0.0526 -0.1976
  382MOL0     C51496   9.808   7.381   9.603  0.2132 -0.0216  0.0163
  382MOL0     C51497   9.929   7.366   9.502  0.9638  0.1356  1.0334
  382MOL0     C51498  10.060   7.339   9.572 -0.0657  0.5312  0.4185
  382MOL0     C51499  10.167   7.317   9.475  0.4420 -0.0638  0.4523
  382MOL0     C51500  10.255   7.295   9.393 -0.1253  0.7356 -0.1420
  382MOL0     C51501   9.579   7.344   9.192 -0.2032  0.5872  0.1672
  382MOL0     C51502   9.501   7.377   9.085 -1.2673 -0.1958  0.7494
  382MOL0     H51503   9.225   7.692   8.810  0.1029  3.0523 -0.9318
  382MOL0     H51504   9.052   7.825   8.691  1.0353 -0.4045  1.3222
  382MOL0     H51505   8.784   7.943   8.615  2.0758 -1.5409 -2.6867
  382MOL0     H51506   8.844   7.779   8.589  0.7454 -1.2664  1.0144
  382MOL0     H51507   8.656   7.809   8.455 -1.0739 -2.3114 -0.6643
  382MOL0     H51508   8.647   7.686   8.569 -1.1126  0.0250 -3.5290
  382MOL0     H51509   8.508   7.825   8.726  0.9389  2.5358 -0.0621
  382MOL0     H51510   8.496   7.946   8.592  1.7146 -0.8383 -2.3597
  382MOL0     H51511   8.415   7.753   8.444  0.2151  0.0721 -0.5275
  382MOL0     H51512   8.417   7.651   8.580 -1.1127  0.2764  1.9865
  382MOL0     H51513   8.207   7.734   8.572 -0.3373  0.7467 -2.2055
  382MOL0     H51514   8.267   7.829   8.708  3.2287  0.9625  0.9244
  382MOL0     H51515   8.302   8.026   8.560  0.3306 -1.0093  1.0251
  382MOL0     H51516   8.233   7.938   8.425 -2.6265  0.2065 -0.6523
  382MOL0     H51517   8.031   7.905   8.582 -0.3287  0.6784  0.3016
  382MOL0     H51518   8.101   8.033   8.678 -1.4526 -0.3042  0.0734
  382MOL0     H51519   8.000   8.045   8.387  1.1905 -0.1914  0.3596
  382MOL0     H51520   8.093   8.181   8.464  2.1170 -1.7691  2.2907
  382MOL0     H51521   7.991   8.283   8.678 -0.0410  0.5530  0.2232
  382MOL0     H51522   7.760   8.476   8.738 -1.7942  0.5540  0.0111
  382MOL0     H51523   7.610   8.380   8.750 -1.1289 -1.0145  2.8720
  382MOL0     H51524   7.719   8.452   8.949  1.2005  0.0982  0.2350
  382MOL0     H51525   7.863   8.373   8.923  0.5661 -0.5669  2.7002
  382MOL0     H51526   7.743   8.258   9.079  0.0972  1.7384 -1.1939
  382MOL0     H51527   7.766   8.148   8.945  0.1028 -0.2678  0.1583
  382MOL0     H51528   7.534   8.137   9.032  0.0346 -0.5000  0.0722
  382MOL0     H51529   7.528   8.209   8.883 -3.3701 -0.6380  1.8906
  382MOL0     H51530   7.383   8.402   8.809  0.2071 -1.9541 -0.3749
  382MOL0     H51531   7.057   8.496   8.703  1.7852  1.7741  3.1676
  382MOL0     H51532   7.231   8.474   8.669 -0.7444  2.7302  0.1240
  382MOL0     H51533   7.105   8.338   8.659 -3.5972 -0.1595  1.2402
  382MOL0     H51534   6.701   8.523   8.912  1.6551 -2.8177 -0.9301
  382MOL0     H51535   6.478   8.584   8.971 -1.3432 -2.7555  0.1120
  382MOL0     H51536   6.372   8.726   9.195  0.5999  0.4809 -0.2565
  382MOL0     H51537   6.306   8.644   9.063  2.3635  1.8669  1.2942
  382MOL0     H51538   6.116   8.574   9.173 -1.5877 -0.3648  2.7890
  382MOL0     H51539   6.162   8.648   9.337  1.1609  1.4813  0.4529
  382MOL0     H51540   6.136   8.873   9.238  1.7298 -0.7088 -1.5425
  382MOL0     H51541   5.998   8.767   9.219 -0.4858 -0.5998  0.0035
  382MOL0     H51542   6.177   8.812   8.985  0.3458  1.3079  0.1078
  382MOL0     H51543   6.041   8.706   8.995 -0.8904  1.2476 -1.7498
  382MOL0     H51544   6.006   8.945   8.889 -0.8407  1.0531  0.5197
  382MOL0     H51545   6.028   9.003   9.048 -0.4991 -1.4220  1.2024
  382MOL0     H51546   5.827   8.789   9.066  1.5576  0.1366 -0.4179
  382MOL0     H51547   5.789   8.965   9.066  0.7411  1.4947 -0.4059
  382MOL0     H51548   5.840   8.840   8.803  0.7019 -0.1067 -0.6131
  382MOL0     H51549   5.766   8.985   8.840  2.5856  0.1651  3.8922
  382MOL0     H51550   5.577   8.827   8.783 -1.0480 -0.6658  0.4439
  382MOL0     H51551   5.574   8.858   8.958 -0.3582  0.2936 -0.6303
  382MOL0     H51552   6.494   8.352   9.326 -1.1889  0.8811 -0.9049
  382MOL0     H51553   6.718   8.262   9.253  0.9052  1.2092  0.0671
  382MOL0     H51554   7.055   8.277   9.160  1.0909 -3.4882 -0.9343
  382MOL0     H51555   7.299   8.274   9.206 -0.9110 -4.2779 -0.2627
  382MOL0     H51556   8.766   7.646   8.965  1.0516  1.2398  3.1294
  382MOL0     H51557   8.945   7.512   9.073 -1.2751  1.1178 -0.2432
  382MOL0     H51558   9.314   7.621   9.221 -2.1846 -1.2701  0.5343
  382MOL0     H51559   9.486   7.590   9.402  1.2593  1.2267 -0.9747
  382MOL0     H51560   9.714   7.543   9.504  1.8900 -1.1439 -2.5537
  382MOL0     H51561   9.592   7.447   9.597 -0.0173  0.2299 -0.5231
  382MOL0     H51562   9.780   7.292   9.661  0.9765 -1.0657 -1.1454
  382MOL0     H51563   9.831   7.455   9.680 -0.9908 -0.2001  0.5636
  382MOL0     H51564   9.943   7.454   9.440  1.0676 -0.6530 -0.0928
  382MOL0     H51565   9.908   7.293   9.423 -2.7650  1.3921  0.6682
  382MOL0     H51566  10.048   7.253   9.638 -1.9044  1.1459  0.9405
  382MOL0     H51567  10.085   7.431   9.626  1.0845  1.2731 -1.2931
  382MOL0     H51568  10.319   7.256   9.316 -0.1142 -0.2187  0.3369
  382MOL0     H51569   9.637   7.254   9.174 -1.0686 -0.1795  1.0782
  382MOL0     H51570   9.514   7.314   8.998  0.0149  0.3265  0.5408
  383MOL0     O51571  10.778  10.339   8.764  0.5578  0.6231 -0.1044
  383MOL0     C51572  10.809  10.246   8.687  0.1661 -0.2544  0.1463
  383MOL0     O51573  10.724  10.160   8.637 -0.4558  0.2192 -0.1753
  383MOL0     C51574  10.595  10.157   8.683  0.1027  0.1187  0.6666
  383MOL0     C51575  10.529  10.201   8.797 -0.1017 -0.0340 -0.3536
  383MOL0     C51576  10.382  10.184   8.797 -0.2526 -0.1807  0.2128
  383MOL0     C51577  10.302  10.124   8.701  0.2766  0.4833  1.2045
  383MOL0     O51578  10.169  10.099   8.693 -0.7196 -0.1286 -0.4786
  383MOL0     C51579  10.070  10.184   8.768 -0.1139  0.0875  0.1495
  383MOL0     C51580  10.061  10.125   8.907  0.4030 -0.0851 -0.6432
  383MOL0     C51581   9.990   9.990   8.903 -0.6818 -0.4245  0.6893
  383MOL0     C51582   9.841   9.999   8.868 -0.0705 -0.2624  0.3328
  383MOL0     C51583   9.760   9.887   8.920  0.0167  0.7400 -0.6400
  383MOL0     C51584   9.604   9.919   8.913 -0.5280 -0.4597  0.2087
  383MOL0     C51585   9.520   9.811   8.966 -0.6311  0.3046  0.2439
  383MOL0     C51586   9.366   9.836   8.960  0.1468  0.0277 -0.0285
  383MOL0     N51587   9.295   9.720   8.988  0.7415  0.3008 -0.2319
  383MOL0     C51588   9.195   9.710   9.089  0.2341 -0.0318 -0.4333
  383MOL0     C51589   9.127   9.593   9.065 -1.0682 -0.5060  0.3600
  383MOL0     C51590   9.014   9.540   9.144 -0.3814  0.9437  0.7962
  383MOL0     C51591   8.912   9.648   9.163  0.0173  0.3537  0.1714
  383MOL0     C51592   8.791   9.588   9.229  0.2809  0.3850 -0.1570
  383MOL0     C51593   8.674   9.674   9.208  1.0662  1.0207  0.3009
  383MOL0     O51594   8.557   9.585   9.212  0.8955  0.6245  0.4592
  383MOL0     C51595   8.428   9.633   9.219  0.5513  0.1817  0.6875
  383MOL0     C51596   8.334   9.543   9.265 -0.3985  0.4530 -0.0514
  383MOL0     C51597   8.207   9.589   9.300  0.5893  0.8725 -0.4952
  383MOL0     C51598   8.118   9.481   9.357  0.0051 -0.7152 -0.4483
  383MOL0     C51599   8.171   9.728   9.284  0.2385 -0.7968  0.1342
  383MOL0     C51600   8.033   9.789   9.320 -0.2758 -0.1318  0.6216
  383MOL0     O51601   8.017   9.909   9.269 -0.0186 -0.5899  0.1649
  383MOL0     C51602   7.905   9.985   9.303 -0.1817 -0.0088  0.0630
  383MOL0     C51603   7.831   9.980   9.418  0.3763  0.9014 -0.3097
  383MOL0     C51604   7.709  10.059   9.426  0.0286 -0.0274  0.6365
  383MOL0     C51605   7.674  10.149   9.323  0.2510 -0.0726 -0.6429
  383MOL0     O51606   7.573  10.244   9.324 -0.0508  0.5073 -0.6547
  383MOL0     C51607   7.455  10.230   9.414  0.1970  0.6539 -0.3158
  383MOL0     C51608   7.348  10.334   9.393 -0.5206  0.3177 -0.0781
  383MOL0     C51609   7.389  10.471   9.444  0.2709 -0.7324 -0.5127
  383MOL0     C51610   7.288  10.586   9.389 -0.7425 -0.2468  0.0859
  383MOL0     C51611   7.143  10.595   9.447 -0.8280 -0.1533 -0.5267
  383MOL0     C51612   7.146  10.617   9.600  0.3087  0.6499  0.0127
  383MOL0     C51613   7.161  10.766   9.640 -0.8716  0.2034  0.9702
  383MOL0     C51614   7.265  10.769   9.756  0.0806  1.0170  0.7377
  383MOL0    Cl51615   7.210  10.686   9.901  0.0735  0.3684 -0.1333
  383MOL0     C51616   7.765  10.160   9.222 -0.2160  0.2911 -0.7867
  383MOL0     C51617   7.873  10.075   9.204  0.0647  0.2414  0.0310
  383MOL0     O51618   7.947   9.726   9.372  0.0899  0.4062  0.0786
  383MOL0     C51619   8.264   9.815   9.221 -0.6567  0.4799  1.0090
  383MOL0     C51620   8.388   9.766   9.189 -0.2180 -0.1811 -0.1000
  383MOL0     N51621   9.198   9.523   8.960 -0.1854 -0.5821 -1.3073
  383MOL0     N51622   9.297   9.596   8.917 -0.2933 -0.3283 -0.0155
  383MOL0     C51623  10.379  10.062   8.600  0.0556 -0.5630  0.3041
  383MOL0     C51624  10.518  10.084   8.586 -0.4861  0.4347  0.1003
  383MOL0     C51625  10.939  10.246   8.632  0.2510  0.0721 -0.0272
  383MOL0     C51626  10.987  10.145   8.542 -0.5483 -0.5097  0.2111
  383MOL0     C51627  11.113  10.138   8.477 -1.4668 -0.1201  0.4367
  383MOL0     C51628  11.208  10.231   8.513  0.3526 -0.2793  1.0321
  383MOL0     O51629  11.330  10.224   8.447  0.8212  0.4265  0.4044
  383MOL0     C51630  11.439  10.317   8.479 -1.5577  0.1577 -0.0528
  383MOL0     C51631  11.493  10.300   8.613  0.2554 -0.1317 -0.6263
  383MOL0     C51632  11.565  10.427   8.656 -0.9868  0.4298 -0.6830
  383MOL0     C51633  11.595  10.443   8.812 -0.0244  0.2746  1.0355
  383MOL0     C51634  11.466  10.426   8.881  0.7377  0.0570 -0.5030
  383MOL0     C51635  11.360  10.406   8.941  0.5069 -0.7879  0.7087
  383MOL0     C51636  11.171  10.325   8.608 -0.7123  0.1580  0.9139
  383MOL0     C51637  11.040  10.328   8.670 -0.5370 -0.7150 -0.1083
  383MOL0     H51638  10.575  10.270   8.867  0.0674  0.2892 -0.7712
  383MOL0     H51639  10.334  10.225   8.885 -0.4928  1.1729 -0.5191
  383MOL0     H51640  10.100  10.289   8.764 -0.1183  0.2527  2.6509
  383MOL0     H51641   9.972  10.180   8.720 -0.6371 -2.0465  1.2340
  383MOL0     H51642  10.162  10.109   8.948 -0.0809 -0.1813  0.5625
  383MOL0     H51643  10.017  10.195   8.978  1.9121 -1.4151  1.7540
  383MOL0     H51644  10.030   9.933   8.819 -2.6643  0.8113 -1.1818
  383MOL0     H51645  10.015   9.943   8.999  0.0079 -1.2332  0.1258
  383MOL0     H51646   9.811  10.098   8.904  0.1607 -0.2736  0.5642
  383MOL0     H51647   9.843  10.003   8.759  0.3992 -2.3093  0.2357
  383MOL0     H51648   9.786   9.789   8.879  1.5459  0.2688  1.2759
  383MOL0     H51649   9.784   9.886   9.027 -3.4944  2.1320  0.2885
  383MOL0     H51650   9.584  10.005   8.977  1.0420  1.0902 -1.2837
  383MOL0     H51651   9.567   9.943   8.813 -0.9583 -2.6067 -0.1948
  383MOL0     H51652   9.551   9.725   8.906  1.4256  0.9049  0.3840
  383MOL0     H51653   9.550   9.795   9.070  0.5411  0.5096 -0.0481
  383MOL0     H51654   9.352   9.871   8.858  1.4453  1.4541  0.2305
  383MOL0     H51655   9.341   9.920   9.026  2.7810 -0.1704  1.3606
  383MOL0     H51656   9.170   9.790   9.158 -3.2845 -2.1409  1.0136
  383MOL0     H51657   8.966   9.452   9.099  0.0515  0.3404  1.4944
  383MOL0     H51658   9.053   9.522   9.245 -2.0364  0.7297  1.4256
  383MOL0     H51659   8.892   9.685   9.062  0.5927 -1.6947 -0.7515
  383MOL0     H51660   8.956   9.735   9.213 -1.4263  0.8924  0.5419
  383MOL0     H51661   8.818   9.578   9.335  1.8019  1.9027 -0.3706
  383MOL0     H51662   8.767   9.489   9.188 -2.0167  0.1649  1.4697
  383MOL0     H51663   8.676   9.707   9.104  3.0404 -1.3880 -0.5280
  383MOL0     H51664   8.686   9.766   9.266 -1.3377  0.6520  1.4907
  383MOL0     H51665   8.372   9.446   9.299 -3.6321  0.2907  3.7560
  383MOL0     H51666   8.023   9.499   9.304 -0.6260  0.4967  1.0084
  383MOL0     H51667   8.157   9.379   9.352 -2.1176 -1.5593 -1.0231
  383MOL0     H51668   8.103   9.493   9.465 -1.7062  1.5351 -0.8567
  383MOL0     H51669   7.858   9.911   9.498 -0.3299 -1.9087 -2.3500
  383MOL0     H51670   7.634  10.057   9.504  0.3410  1.2920  0.9864
  383MOL0     H51671   7.405  10.133   9.410  3.9733 -1.6330  1.7719
  383MOL0     H51672   7.496  10.225   9.516  1.2167  2.1979 -0.6099
  383MOL0     H51673   7.329  10.336   9.285 -1.0588 -0.3855 -0.0086
  383MOL0     H51674   7.259  10.292   9.442 -1.5320 -0.5882 -2.5107
  383MOL0     H51675   7.491  10.492   9.409  1.6071 -1.2250  2.7195
  383MOL0     H51676   7.407  10.465   9.551  0.8858 -1.4154 -0.6511
  383MOL0     H51677   7.338  10.681   9.408 -2.2739  0.7661 -0.7496
  383MOL0     H51678   7.286  10.562   9.282 -1.1587 -1.6343  0.3730
  383MOL0     H51679   7.093  10.500   9.425  0.3286 -0.6015 -1.3224
  383MOL0     H51680   7.093  10.680   9.402 -2.5840 -0.2741  1.0803
  383MOL0     H51681   7.049  10.592   9.645  1.1406 -2.7292  0.2397
  383MOL0     H51682   7.217  10.547   9.646 -2.3723 -1.8469  0.6882
  383MOL0     H51683   7.065  10.811   9.667 -1.5329 -0.2301 -0.5448
  383MOL0     H51684   7.194  10.832   9.560  2.4764 -1.3170  0.9462
  383MOL0     H51685   7.297  10.871   9.780  0.8205  0.8310  0.5684
  383MOL0     H51686   7.357  10.719   9.724 -0.5346  0.9531 -1.0463
  383MOL0     H51687   7.747  10.239   9.150  0.1942  0.2743 -0.9118
  383MOL0     H51688   7.945  10.082   9.123  2.4771  3.2434  2.1982
  383MOL0     H51689   8.251   9.919   9.196 -0.8488 -0.1998 -2.1382
  383MOL0     H51690   8.470   9.829   9.156  0.7028 -1.5543 -0.5037
  383MOL0     H51691  10.320  10.008   8.526 -1.8720 -0.1138  1.4591
  383MOL0     H51692  10.563  10.043   8.497 -2.9297  1.3717 -1.6858
  383MOL0     H51693  10.929  10.060   8.507  1.6139 -1.2613 -1.8561
  383MOL0     H51694  11.135  10.062   8.403 -2.8765  1.5995 -1.8769
  383MOL0     H51695  11.535  10.300   8.429  0.4875  3.4101  2.3427
  383MOL0     H51696  11.409  10.420   8.457 -1.6391 -0.3697 -2.7900
  383MOL0     H51697  11.566  10.219   8.610  0.0017 -0.4833  1.4100
  383MOL0     H51698  11.413  10.274   8.682  1.5026  2.9087  2.2530
  383MOL0     H51699  11.511  10.518   8.631 -1.5080  1.0136  2.2540
  383MOL0     H51700  11.664  10.417   8.610  0.0016 -2.6115  1.7337
  383MOL0     H51701  11.632  10.545   8.827  0.3669  0.1434  0.9956
  383MOL0     H51702  11.660  10.369   8.859 -0.9330 -1.2024  0.0659
  383MOL0     H51703  11.273  10.379   8.997 -1.4217  0.7374 -1.3579
  383MOL0     H51704  11.239  10.405   8.635 -0.8298  0.5125  0.1887
  383MOL0     H51705  11.027  10.401   8.749  2.2226  1.4573 -1.4745
  384MOL0     O51706   8.977  10.468   2.401 -0.2383 -0.0802 -0.5245
  384MOL0     C51707   8.997  10.526   2.297 -0.2312  0.9598  0.6726
  384MOL0     O51708   8.907  10.591   2.222  0.1953  0.1161  0.0640
  384MOL0     C51709   8.784  10.599   2.285 -0.0095  0.2776  0.3219
  384MOL0     C51710   8.700  10.487   2.273  0.0586  0.4177  1.1188
  384MOL0     C51711   8.570  10.507   2.327  0.0993 -0.2140  0.4217
  384MOL0     C51712   8.526  10.628   2.381  0.2452 -0.3833  0.2724
  384MOL0     O51713   8.403  10.646   2.425  0.9566  0.1154  0.0109
  384MOL0     C51714   8.375  10.619   2.566 -0.2443 -0.5574  0.3551
  384MOL0     C51715   8.322  10.487   2.605  0.2062  0.3477  0.5249
  384MOL0     C51716   8.214  10.432   2.514  0.2538  0.7405  0.8877
  384MOL0     C51717   8.080  10.516   2.516 -0.2898 -0.2420  0.4187
  384MOL0     C51718   7.968  10.422   2.471 -0.6091 -0.4208  0.5477
  384MOL0     C51719   7.843  10.496   2.462  0.0263  0.2532 -1.0611
  384MOL0     C51720   7.717  10.419   2.421  0.1447 -0.4104  0.3372
  384MOL0     C51721   7.721  10.381   2.267 -0.3568  0.8112 -0.8289
  384MOL0     N51722   7.681  10.505   2.189  0.1876  0.2199  0.2298
  384MOL0     C51723   7.768  10.597   2.132  0.5732 -0.2692 -1.1337
  384MOL0     C51724   7.686  10.705   2.094 -0.5817  0.9643 -0.3863
  384MOL0     C51725   7.721  10.842   2.034 -0.5232  0.0668  0.2043
  384MOL0     C51726   7.868  10.858   2.053  0.4241 -0.6129  0.8943
  384MOL0     C51727   7.912  10.988   1.984 -0.3074 -0.3346  0.7012
  384MOL0     C51728   8.057  11.012   1.998  0.3651 -0.0725 -0.1850
  384MOL0     O51729   8.131  10.913   1.944  0.3069  0.2369 -0.4162
  384MOL0     C51730   8.264  10.917   1.933 -0.4066  0.1563 -0.1889
  384MOL0     C51731   8.321  10.900   1.804 -0.2737 -0.2458 -0.5839
  384MOL0     C51732   8.458  10.924   1.786  0.2572  0.5397 -0.2238
  384MOL0     C51733   8.504  10.890   1.641 -0.2933 -1.0313 -0.1357
  384MOL0     C51734   8.536  10.969   1.894  0.1795 -0.0603 -0.9162
  384MOL0     C51735   8.679  10.999   1.879 -0.1783 -0.4912 -0.3322
  384MOL0     O51736   8.763  10.950   1.982 -0.2764 -0.5177 -0.1299
  384MOL0     C51737   8.900  10.986   1.988  0.7774 -0.0559 -0.5494
  384MOL0     C51738   8.970  10.906   2.072 -0.4514 -0.5326  0.7382
  384MOL0     C51739   9.114  10.921   2.083 -0.3993  0.6707 -0.2956
  384MOL0     C51740   9.190  11.007   2.005 -0.3191 -0.1699  0.3686
  384MOL0     O51741   9.334  11.014   2.014  0.9711 -0.4066  0.1695
  384MOL0     C51742   9.389  10.984   1.891 -0.2618 -0.1104 -0.4204
  384MOL0     C51743   9.540  10.997   1.905  0.0594 -0.2675  0.8360
  384MOL0     C51744   9.623  10.960   1.775 -0.6268  0.1400  0.2538
  384MOL0     C51745   9.776  10.965   1.794  0.0007  0.0774  0.0563
  384MOL0     C51746   9.869  10.908   1.683 -0.0113  0.4440  0.4843
  384MOL0     C51747   9.851  10.965   1.547  0.4344 -0.3548 -0.5103
  384MOL0     C51748   9.931  10.894   1.439  0.4555  0.2433 -0.3010
  384MOL0     C51749  10.080  10.938   1.444 -0.5289  0.5951 -0.3825
  384MOL0    Cl51750  10.178  10.835   1.338  0.1778  0.2758 -0.2781
  384MOL0     C51751   9.114  11.083   1.916  0.5612  0.2820 -0.2803
  384MOL0     C51752   8.972  11.082   1.911 -0.0278  0.8683  0.0210
  384MOL0     O51753   8.717  11.059   1.778 -0.2281  0.4632 -0.4393
  384MOL0     C51754   8.474  10.995   2.015  0.6240  1.0201  0.3909
  384MOL0     C51755   8.338  10.979   2.033  0.4404  1.1450 -0.3215
  384MOL0     N51756   7.555  10.661   2.112  0.4545 -0.0578 -0.0273
  384MOL0     N51757   7.551  10.548   2.178  0.3194 -0.4096  0.3781
  384MOL0     C51758   8.616  10.733   2.401  0.3701 -0.3680  1.0358
  384MOL0     C51759   8.745  10.721   2.354 -0.4962  1.0560 -0.5836
  384MOL0     C51760   9.129  10.511   2.237 -0.3463  1.0406  0.1101
  384MOL0     C51761   9.152  10.554   2.106  0.2811 -0.1173  0.0397
  384MOL0     C51762   9.278  10.558   2.039 -0.0768  0.8171 -0.5336
  384MOL0     C51763   9.384  10.510   2.115  1.1830 -0.0677 -0.1427
  384MOL0     O51764   9.500  10.523   2.044  0.3427  0.7877 -0.0466
  384MOL0     C51765   9.625  10.467   2.096  0.3708  0.3546 -0.4336
  384MOL0     C51766   9.741  10.527   2.017  0.2677  0.9216 -0.2057
  384MOL0     C51767   9.860  10.437   2.018 -0.3423  0.4152 -0.2088
  384MOL0     C51768   9.980  10.528   1.990 -0.9272  0.5783  0.6992
  384MOL0     C51769   9.991  10.559   1.845  0.0329  0.0003 -0.4211
  384MOL0     C51770   9.995  10.580   1.724  0.1398  0.0549 -0.0013
  384MOL0     C51771   9.364  10.449   2.235  0.0702 -0.3533 -0.9086
  384MOL0     C51772   9.238  10.448   2.297 -0.0934 -0.3777 -0.5705
  384MOL0     H51773   8.736  10.401   2.216 -1.7915 -0.9903  1.9595
  384MOL0     H51774   8.501  10.423   2.329 -0.1765 -0.0062 -0.1440
  384MOL0     H51775   8.460  10.649   2.629 -1.3521 -0.5165  1.8652
  384MOL0     H51776   8.302  10.689   2.606  0.4247 -0.6404  1.7868
  384MOL0     H51777   8.403  10.415   2.596  1.5129  1.8371 -0.2132
  384MOL0     H51778   8.296  10.489   2.711  0.2643 -2.7197  0.6650
  384MOL0     H51779   8.255  10.413   2.415  0.8967 -1.0471  1.4569
  384MOL0     H51780   8.182  10.334   2.551 -3.3096  0.1482 -2.9825
  384MOL0     H51781   8.069  10.544   2.621 -0.6638  0.0794  0.2976
  384MOL0     H51782   8.072  10.605   2.453 -2.3151  0.3767  1.4515
  384MOL0     H51783   7.988  10.382   2.371 -1.9302 -1.4095  0.6537
  384MOL0     H51784   7.949  10.333   2.532 -0.9050 -1.1199 -0.5370
  384MOL0     H51785   7.822  10.539   2.560  1.7562 -2.0955  0.4671
  384MOL0     H51786   7.859  10.578   2.393  0.9771  0.9728 -0.0197
  384MOL0     H51787   7.704  10.327   2.479  0.7488 -1.0771 -0.5545
  384MOL0     H51788   7.632  10.483   2.444 -1.5499 -1.5220 -2.3583
  384MOL0     H51789   7.652  10.299   2.246 -0.9231  0.7068  1.2259
  384MOL0     H51790   7.822  10.356   2.234  0.6702  3.2325  0.2232
  384MOL0     H51791   7.876  10.586   2.130  0.6934 -1.9555  3.4133
  384MOL0     H51792   7.709  10.853   1.926  1.3336 -3.6631 -0.5416
  384MOL0     H51793   7.670  10.926   2.081  1.0081  2.0332 -1.4878
  384MOL0     H51794   7.930  10.775   2.018  0.6713 -0.6688  1.4424
  384MOL0     H51795   7.885  10.857   2.161  2.0860 -0.3911  0.6672
  384MOL0     H51796   7.866  11.075   2.032 -0.1660  1.8290 -2.7917
  384MOL0     H51797   7.889  10.985   1.877 -0.2634 -1.4386  0.7105
  384MOL0     H51798   8.078  11.010   2.105 -1.7690 -1.6563  0.2711
  384MOL0     H51799   8.089  11.110   1.960  2.1672 -0.9332 -1.0001
  384MOL0     H51800   8.260  10.874   1.717  1.6579  2.0908 -2.8119
  384MOL0     H51801   8.502  10.784   1.616 -1.1522 -0.6742 -1.7079
  384MOL0     H51802   8.450  10.945   1.563  2.3255  2.3997  0.2316
  384MOL0     H51803   8.608  10.919   1.625 -0.3955 -1.6164 -1.9992
  384MOL0     H51804   8.912  10.829   2.124 -1.7572 -1.2773 -1.6637
  384MOL0     H51805   9.169  10.857   2.151 -1.0780 -0.9052 -1.1673
  384MOL0     H51806   9.364  10.879   1.869 -2.8329  0.2001  0.6789
  384MOL0     H51807   9.355  11.049   1.810 -0.3825 -0.4171 -0.6214
  384MOL0     H51808   9.562  11.101   1.931  1.7843 -1.0025  2.6111
  384MOL0     H51809   9.581  10.932   1.983  3.2306  2.5173  1.7127
  384MOL0     H51810   9.589  11.031   1.699  0.0989  3.3935  2.7896
  384MOL0     H51811   9.592  10.859   1.743 -1.3592  0.0036  1.3435
  384MOL0     H51812   9.815  11.067   1.799  3.4946 -1.1689  0.5185
  384MOL0     H51813   9.804  10.904   1.880 -1.7363 -1.6935 -0.5644
  384MOL0     H51814   9.850  10.802   1.664  1.0282  0.3558 -0.1117
  384MOL0     H51815   9.972  10.920   1.718  0.6184 -0.1535 -1.0641
  384MOL0     H51816   9.743  10.966   1.529 -0.1944 -1.0767  2.5618
  384MOL0     H51817   9.879  11.070   1.555  1.0774 -0.5871  0.5240
  384MOL0     H51818   9.892  10.918   1.339 -0.8907 -2.9866 -0.6830
  384MOL0     H51819   9.915  10.787   1.456 -0.0001 -0.2471 -3.2876
  384MOL0     H51820  10.114  10.921   1.547 -0.2383 -2.2944 -0.8554
  384MOL0     H51821  10.100  11.042   1.419 -1.8614  1.1254  0.6441
  384MOL0     H51822   9.162  11.148   1.844 -0.0389  0.6849 -0.3184
  384MOL0     H51823   8.933  11.149   1.835  4.7108  1.6798 -2.0493
  384MOL0     H51824   8.521  11.033   2.105 -0.8734  2.7111  0.5113
  384MOL0     H51825   8.292  10.997   2.130 -1.7186 -0.2244 -1.0003
  384MOL0     H51826   8.579  10.829   2.436 -0.6071 -0.1994 -0.3592
  384MOL0     H51827   8.818  10.800   2.373  0.8762  0.4108 -2.7816
  384MOL0     H51828   9.072  10.603   2.052 -1.5621  1.0693  3.5707
  384MOL0     H51829   9.307  10.619   1.954  1.0486  1.2194  0.1123
  384MOL0     H51830   9.638  10.486   2.202 -1.5680  0.9753 -0.2696
  384MOL0     H51831   9.627  10.360   2.072 -2.9988  0.8086 -3.7094
  384MOL0     H51832   9.765  10.627   2.054  3.2139 -0.2966  1.5661
  384MOL0     H51833   9.698  10.526   1.917  0.1520 -2.0814 -0.2250
  384MOL0     H51834   9.864  10.359   1.941 -1.4276  0.1596 -0.0244
  384MOL0     H51835   9.866  10.395   2.118  0.7840 -1.4207 -0.9902
  384MOL0     H51836  10.068  10.475   2.027 -1.1087 -1.0830 -1.1268
  384MOL0     H51837   9.969  10.624   2.041  0.6053  0.7577  0.7285
  384MOL0     H51838  10.005  10.581   1.618  2.0888 -0.9807  0.1184
  384MOL0     H51839   9.449  10.418   2.295 -1.1769 -0.4985  0.8539
  384MOL0     H51840   9.235  10.396   2.391 -1.9358  0.6543  0.0078
  385MOL0     O51841   9.362   6.370   9.586  0.3348 -0.1856 -0.3573
  385MOL0     C51842   9.433   6.326   9.494  0.2416 -0.1836 -0.8565
  385MOL0     O51843   9.392   6.263   9.382 -0.1651 -0.2191  0.2378
  385MOL0     C51844   9.254   6.217   9.378 -0.5061  0.6554 -0.3359
  385MOL0     C51845   9.217   6.088   9.332  0.2251 -0.2100 -0.0082
  385MOL0     C51846   9.089   6.042   9.353 -0.0743 -0.2606  0.2304
  385MOL0     C51847   8.986   6.124   9.400  0.7864 -0.4090  0.0469
  385MOL0     O51848   8.859   6.069   9.408  0.3281 -0.0697  0.0653
  385MOL0     C51849   8.749   6.159   9.427 -0.5667  0.1207  0.0871
  385MOL0     C51850   8.616   6.086   9.412 -0.4757  0.4236  0.0081
  385MOL0     C51851   8.510   6.168   9.475 -0.2587 -0.6257 -0.1922
  385MOL0     C51852   8.378   6.090   9.480  0.3508 -0.5212  0.3387
  385MOL0     C51853   8.260   6.168   9.552  0.1139  0.2373  0.3273
  385MOL0     C51854   8.201   6.277   9.463  0.1024 -0.1928  0.2958
  385MOL0     C51855   8.093   6.347   9.541 -0.0441 -0.3260 -1.3336
  385MOL0     C51856   7.999   6.435   9.453  0.3797  0.3937 -0.2009
  385MOL0     N51857   7.916   6.338   9.373  0.2453 -0.4845 -0.0231
  385MOL0     C51858   7.815   6.254   9.421 -0.1266 -0.0415 -0.3550
  385MOL0     C51859   7.793   6.172   9.316  0.5611 -0.9924  0.3657
  385MOL0     C51860   7.696   6.057   9.313 -0.2786 -0.4414 -0.1981
  385MOL0     C51861   7.556   6.101   9.282  0.2594  0.2222  0.3629
  385MOL0     C51862   7.531   6.123   9.133  0.2549  0.1613 -0.0030
  385MOL0     C51863   7.399   6.193   9.108 -0.3298  0.4808 -0.2685
  385MOL0     O51864   7.288   6.106   9.146 -0.1812 -0.1582  0.5763
  385MOL0     C51865   7.160   6.168   9.136  0.3321 -0.3915  0.9895
  385MOL0     C51866   7.058   6.110   9.212 -0.8726 -0.8073  0.0018
  385MOL0     C51867   6.928   6.152   9.215 -0.2851  0.4575 -0.2872
  385MOL0     C51868   6.838   6.066   9.306 -0.0863 -0.0275 -0.5817
  385MOL0     C51869   6.897   6.271   9.151 -0.4984  1.9573  0.8520
  385MOL0     C51870   6.763   6.322   9.156  0.5330 -0.1294  0.0154
  385MOL0     O51871   6.646   6.249   9.180  0.0043  0.6083  0.1526
  385MOL0     C51872   6.518   6.301   9.192  0.6760  0.6767  0.0206
  385MOL0     C51873   6.416   6.213   9.230 -0.3727 -0.1535 -0.1925
  385MOL0     C51874   6.282   6.243   9.234  0.1581  0.8919  0.0152
  385MOL0     C51875   6.242   6.367   9.182 -0.1674  0.1239 -0.2208
  385MOL0     O51876   6.113   6.414   9.176  0.1918 -0.2524  0.6213
  385MOL0     C51877   6.053   6.420   9.047 -0.4708 -0.9633 -0.1755
  385MOL0     C51878   5.905   6.393   9.078 -0.2891  0.3917  0.1887
  385MOL0     C51879   5.861   6.253   9.137 -0.3490 -0.0902  0.9732
  385MOL0     C51880   5.826   6.140   9.036 -0.2299  0.1953 -0.1587
  385MOL0     C51881   5.697   6.146   8.959  0.3312 -0.4678  1.0363
  385MOL0     C51882   5.670   6.018   8.884 -0.1201 -0.4869  0.3951
  385MOL0     C51883   5.554   6.041   8.782 -0.5749  0.0270 -0.0826
  385MOL0     C51884   5.471   5.915   8.743  0.7098 -0.3857 -0.1217
  385MOL0    Cl51885   5.363   5.983   8.620  0.1520 -0.3800 -0.1684
  385MOL0     C51886   6.338   6.446   9.136 -0.0279  0.3255 -0.2555
  385MOL0     C51887   6.475   6.419   9.143 -0.3593  0.2735  0.8149
  385MOL0     O51888   6.760   6.440   9.147  1.1510 -0.3909  0.3736
  385MOL0     C51889   7.002   6.343   9.085 -0.7985  0.4445 -0.0608
  385MOL0     C51890   7.124   6.285   9.069 -0.9727 -0.5595 -0.2802
  385MOL0     N51891   7.870   6.212   9.204 -0.3282  0.3092 -0.3216
  385MOL0     N51892   7.939   6.317   9.238 -0.3771  0.1915  0.3335
  385MOL0     C51893   9.022   6.265   9.418  0.6285 -0.2570 -0.6205
  385MOL0     C51894   9.152   6.309   9.404 -0.3732 -1.1558 -0.3474
  385MOL0     C51895   9.569   6.367   9.501  0.2221 -0.2441  0.4713
  385MOL0     C51896   9.636   6.419   9.615  0.9197  0.5019 -0.5888
  385MOL0     C51897   9.768   6.457   9.620 -0.0776 -0.4834 -0.2299
  385MOL0     C51898   9.848   6.427   9.511 -0.4973  0.4090 -0.2383
  385MOL0     O51899   9.980   6.463   9.500  0.5972  0.3540 -0.3867
  385MOL0     C51900  10.064   6.495   9.611 -0.2113 -0.3210 -0.5642
  385MOL0     C51901  10.208   6.435   9.570  0.5313 -0.7432 -0.1103
  385MOL0     C51902  10.288   6.396   9.696 -0.0287  0.2513 -0.6745
  385MOL0     C51903  10.425   6.316   9.663  0.0854 -0.1979 -0.1774
  385MOL0     C51904  10.513   6.433   9.636 -0.7953 -0.1164 -0.7588
  385MOL0     C51905  10.589   6.514   9.596  0.9172 -1.1829  0.3806
  385MOL0     C51906   9.788   6.386   9.393  0.8100 -0.4420 -1.5525
  385MOL0     C51907   9.658   6.353   9.394  0.4533  0.6150 -0.2788
  385MOL0     H51908   9.287   6.031   9.270  2.6273 -0.1853  2.4678
  385MOL0     H51909   9.067   5.941   9.321 -1.3265 -0.5265  1.7924
  385MOL0     H51910   8.759   6.197   9.529  1.5688  3.0795 -1.0845
  385MOL0     H51911   8.764   6.240   9.354  2.9186 -1.8984 -1.7052
  385MOL0     H51912   8.592   6.068   9.307  0.3166 -0.9318  0.0391
  385MOL0     H51913   8.626   5.987   9.458 -0.4519  0.1574 -0.5666
  385MOL0     H51914   8.549   6.206   9.570 -1.8505  1.3902 -0.2901
  385MOL0     H51915   8.506   6.252   9.405  1.7889  1.0082  1.5233
  385MOL0     H51916   8.348   6.068   9.377 -0.2971 -0.4803  0.5106
  385MOL0     H51917   8.399   5.998   9.534 -0.9583 -0.4518  1.0145
  385MOL0     H51918   8.183   6.093   9.569  1.5365 -0.7405  3.0174
  385MOL0     H51919   8.293   6.210   9.648  0.0306 -0.4258  0.6489
  385MOL0     H51920   8.281   6.347   9.436  1.9730 -1.8527  1.3096
  385MOL0     H51921   8.164   6.233   9.370  1.9815 -2.2514  0.4656
  385MOL0     H51922   8.040   6.278   9.607  0.5058 -0.2237 -0.7780
  385MOL0     H51923   8.146   6.415   9.608  2.1281 -2.3238 -0.9241
  385MOL0     H51924   8.061   6.504   9.395  2.1624  1.6675  3.0028
  385MOL0     H51925   7.932   6.498   9.512  1.0379  2.1581 -1.2515
  385MOL0     H51926   7.776   6.245   9.522  2.9657  2.3199  1.2368
  385MOL0     H51927   7.723   5.994   9.228 -1.2572 -0.5561 -0.4396
  385MOL0     H51928   7.697   5.988   9.398 -0.8498 -2.8162 -2.0066
  385MOL0     H51929   7.531   6.192   9.337 -1.4236 -1.6641  2.9690
  385MOL0     H51930   7.492   6.021   9.321 -1.2391  0.4854 -1.4493
  385MOL0     H51931   7.543   6.028   9.080 -1.6840  0.4268 -1.0118
  385MOL0     H51932   7.597   6.203   9.100  1.0207 -0.7186 -0.6577
  385MOL0     H51933   7.377   6.216   9.003  2.4714 -1.6800 -1.4302
  385MOL0     H51934   7.404   6.286   9.165  0.8133 -0.1566  0.7292
  385MOL0     H51935   7.087   6.009   9.240  3.3117  0.5874  1.4895
  385MOL0     H51936   6.876   5.964   9.311  0.3441  0.0938 -1.2006
  385MOL0     H51937   6.843   6.107   9.407  2.8920  0.5999 -0.8716
  385MOL0     H51938   6.734   6.048   9.278 -0.1976 -2.5914  1.1382
  385MOL0     H51939   6.442   6.111   9.256 -1.0345 -0.5143 -0.8790
  385MOL0     H51940   6.195   6.188   9.270 -1.0457  1.5305 -1.7811
  385MOL0     H51941   6.053   6.521   9.005 -0.8760 -0.6127  0.6456
  385MOL0     H51942   6.106   6.344   8.989  3.4757 -0.5891  2.6006
  385MOL0     H51943   5.872   6.465   9.153  1.3858  0.4136  0.9443
  385MOL0     H51944   5.846   6.408   8.987 -1.3843  1.2830  1.0147
  385MOL0     H51945   5.769   6.272   9.193 -1.4605 -2.7224  0.1700
  385MOL0     H51946   5.943   6.224   9.203  1.2959  2.2915  0.1132
  385MOL0     H51947   5.915   6.122   8.976 -0.0212  2.3575 -0.5848
  385MOL0     H51948   5.820   6.048   9.096 -0.3117  1.7702  2.4122
  385MOL0     H51949   5.720   6.226   8.887 -0.0989 -1.1147  0.1638
  385MOL0     H51950   5.611   6.167   9.024  0.2858 -1.6427  1.3794
  385MOL0     H51951   5.760   5.993   8.828 -0.8351  0.7523 -1.4047
  385MOL0     H51952   5.635   5.938   8.950 -3.7078  0.2003 -0.4836
  385MOL0     H51953   5.596   6.078   8.689 -0.7701 -1.7989 -0.9373
  385MOL0     H51954   5.482   6.117   8.815 -2.4625  0.2189 -4.0453
  385MOL0     H51955   5.409   5.880   8.827  0.7102  0.8080  0.4022
  385MOL0     H51956   5.546   5.843   8.712  1.0015  1.0060 -2.9530
  385MOL0     H51957   6.320   6.540   9.085 -1.5298 -0.2173 -0.7808
  385MOL0     H51958   6.538   6.486   9.084 -2.4120  1.6651  0.1064
  385MOL0     H51959   6.992   6.443   9.044 -2.1199  0.4909  0.3255
  385MOL0     H51960   7.202   6.340   9.018  0.0282 -1.0415  0.6959
  385MOL0     H51961   8.944   6.331   9.454 -0.9585 -0.6005 -3.1579
  385MOL0     H51962   9.179   6.414   9.407  0.2997 -1.3367  1.7676
  385MOL0     H51963   9.574   6.444   9.700  0.8088  1.9453 -1.0677
  385MOL0     H51964   9.818   6.497   9.708 -1.9018 -2.8879  2.0534
  385MOL0     H51965  10.061   6.601   9.638  0.5610 -0.6047  0.7462
  385MOL0     H51966  10.022   6.433   9.692  1.0755 -1.3320 -0.6293
  385MOL0     H51967  10.264   6.502   9.505 -0.6565  0.3830 -0.0336
  385MOL0     H51968  10.194   6.342   9.515  2.4769 -0.8571 -0.4705
  385MOL0     H51969  10.230   6.320   9.747 -2.8532  1.6608 -1.5988
  385MOL0     H51970  10.309   6.481   9.763  0.4431  0.6774 -1.3461
  385MOL0     H51971  10.421   6.247   9.578 -1.2373  0.7702 -0.9343
  385MOL0     H51972  10.457   6.258   9.750  1.8142 -1.7880 -1.7794
  385MOL0     H51973  10.662   6.581   9.555 -0.3570  0.0409  0.0437
  385MOL0     H51974   9.839   6.371   9.299  0.0270  1.4330 -2.3199
  385MOL0     H51975   9.607   6.320   9.304 -2.0144  1.3622  0.7448
  386MOL0     O51976  10.199   3.313  10.469 -0.0852  0.6282 -0.3070
  386MOL0     C51977  10.281   3.253  10.537 -0.2765 -0.0112  0.7753
  386MOL0     O51978  10.260   3.190  10.656  0.0226  0.5371 -0.5562
  386MOL0     C51979  10.135   3.192  10.717 -0.8692 -0.4776 -0.7001
  386MOL0     C51980  10.016   3.165  10.641 -0.3069  0.3119 -0.0003
  386MOL0     C51981   9.896   3.172  10.711 -0.6290 -1.2666 -0.0915
  386MOL0     C51982   9.884   3.179  10.847 -0.5269  0.2917 -0.5269
  386MOL0     O51983   9.757   3.184  10.906  0.3590  0.4569 -0.1793
  386MOL0     C51984   9.732   3.153  11.043  0.5349 -0.4255  0.7007
  386MOL0     C51985   9.631   3.031  11.049 -0.5018 -0.0096  0.7827
  386MOL0     C51986   9.502   3.060  10.980 -0.3662 -0.0614  1.1804
  386MOL0     C51987   9.414   2.942  10.976  0.0346  0.0764 -0.6841
  386MOL0     C51988   9.284   2.956  10.901 -0.1633  0.0929  0.7288
  386MOL0     C51989   9.165   3.027  10.970  0.2563 -0.5965 -0.2912
  386MOL0     C51990   9.039   3.015  10.879  0.0671  0.4157 -0.2460
  386MOL0     C51991   8.912   3.067  10.947 -0.2091 -0.2972  1.5570
  386MOL0     N51992   8.916   3.199  11.009 -0.5046  0.1777 -0.2415
  386MOL0     C51993   8.912   3.316  10.941  0.0283  0.9132 -0.2501
  386MOL0     C51994   8.882   3.405  11.047 -0.4230 -0.5666 -0.3329
  386MOL0     C51995   8.868   3.554  11.044 -0.1856  0.6478 -0.5959
  386MOL0     C51996   8.860   3.603  10.903  1.1532  0.1543  0.5049
  386MOL0     C51997   8.995   3.663  10.853  0.1814 -0.4421 -0.0263
  386MOL0     C51998   9.102   3.561  10.813  0.1491  0.4619  0.3105
  386MOL0     O51999   9.063   3.493  10.696  0.4091 -0.5700  0.3383
  386MOL0     C52000   9.143   3.388  10.661  0.0754  0.2680 -0.3380
  386MOL0     C52001   9.094   3.302  10.563  0.0580  0.5122 -0.3261
  386MOL0     C52002   9.173   3.194  10.509  0.4243 -0.3897  0.7490
  386MOL0     C52003   9.124   3.120  10.388  0.0296 -0.1147  0.2852
  386MOL0     C52004   9.299   3.169  10.558  0.4651  0.5887 -0.6494
  386MOL0     C52005   9.381   3.056  10.514 -0.1095 -0.6519 -0.8199
  386MOL0     O52006   9.509   3.085  10.484 -0.1186 -0.0795  0.8381
  386MOL0     C52007   9.581   2.977  10.438 -0.2808  0.2271  0.3649
  386MOL0     C52008   9.657   2.906  10.536 -0.4762  0.0025  0.3636
  386MOL0     C52009   9.723   2.796  10.487 -0.0936 -1.0588 -1.1697
  386MOL0     C52010   9.723   2.759  10.351  0.5174  0.1235  0.4004
  386MOL0     O52011   9.800   2.655  10.310 -0.4337 -0.6733 -0.0867
  386MOL0     C52012   9.924   2.629  10.378 -0.3894  0.0130  0.0796
  386MOL0     C52013  10.045   2.560  10.295  0.1088 -0.8685 -0.5679
  386MOL0     C52014  10.063   2.630  10.161  0.6381 -0.3852  0.5341
  386MOL0     C52015  10.116   2.519  10.068 -0.2768 -0.1478  0.1003
  386MOL0     C52016  10.160   2.569   9.926 -0.1835  0.4510 -0.6912
  386MOL0     C52017  10.223   2.454   9.841 -0.1935 -1.3963 -0.0730
  386MOL0     C52018  10.298   2.523   9.728 -0.0266 -0.2917  0.1233
  386MOL0     C52019  10.377   2.429   9.653 -0.3659  0.1093  0.6048
  386MOL0    Cl52020  10.415   2.500   9.490  0.1068  0.5921 -0.0429
  386MOL0     C52021   9.641   2.827  10.264 -0.1232  0.0802  0.9527
  386MOL0     C52022   9.566   2.935  10.308 -0.7631 -0.4771 -0.2744
  386MOL0     O52023   9.333   2.945  10.502  0.3215 -0.2865 -0.7111
  386MOL0     C52024   9.342   3.249  10.659  0.0091 -0.3657 -0.0538
  386MOL0     C52025   9.278   3.356  10.715  0.5767 -0.4702  1.2142
  386MOL0     N52026   8.870   3.337  11.165  1.1288  0.5144  0.4695
  386MOL0     N52027   8.887   3.215  11.137  0.2515 -0.6033 -0.2178
  386MOL0     C52028  10.007   3.193  10.924  0.4608 -0.1894  0.1196
  386MOL0     C52029  10.129   3.188  10.856  1.2802 -0.1954 -0.0118
  386MOL0     C52030  10.413   3.235  10.477  0.0781  0.3690 -0.5321
  386MOL0     C52031  10.528   3.261  10.554 -0.1522  0.5340  0.6870
  386MOL0     C52032  10.660   3.241  10.494  0.6388  0.2347  0.5706
  386MOL0     C52033  10.671   3.192  10.361 -0.0393 -0.2228 -0.0781
  386MOL0     O52034  10.792   3.149  10.299 -0.1899  0.9932 -0.5209
  386MOL0     C52035  10.912   3.206  10.366 -0.0298  0.2607  0.1827
  386MOL0     C52036  11.041   3.178  10.291  0.1165  0.2616  0.3649
  386MOL0     C52037  11.172   3.230  10.352  0.9383  0.1431 -0.5688
  386MOL0     C52038  11.210   3.366  10.302  0.6946  0.2394  0.0690
  386MOL0     C52039  11.118   3.473  10.348 -0.3941  0.2747 -0.2592
  386MOL0     C52040  11.049   3.561  10.392 -0.0281 -0.1957 -0.3087
  386MOL0     C52041  10.553   3.172  10.292  0.1034  0.5000 -0.5323
  386MOL0     C52042  10.423   3.193  10.352 -0.3978  0.2630  0.9431
  386MOL0     H52043  10.026   3.158  10.533  1.0337  3.3127 -0.1798
  386MOL0     H52044   9.806   3.168  10.650 -0.9854  1.2632  0.1564
  386MOL0     H52045   9.819   3.111  11.094 -0.2451 -3.0232  0.0265
  386MOL0     H52046   9.699   3.248  11.088  3.3596  1.2427 -0.4625
  386MOL0     H52047   9.684   2.950  10.997 -0.8333  0.9134 -1.1021
  386MOL0     H52048   9.615   3.003  11.153 -1.8023 -1.6587  0.1961
  386MOL0     H52049   9.449   3.139  11.035 -1.2398 -0.5123  0.9989
  386MOL0     H52050   9.517   3.095  10.877 -0.7720 -4.1467 -0.4673
  386MOL0     H52051   9.479   2.862  10.938 -0.5046 -0.8651  0.3406
  386MOL0     H52052   9.394   2.921  11.081  0.9910  1.7635 -0.1196
  386MOL0     H52053   9.305   3.013  10.810  0.6529 -1.5885 -0.1769
  386MOL0     H52054   9.252   2.855  10.875 -0.0512  0.3251 -0.3765
  386MOL0     H52055   9.135   3.002  11.072 -0.5445  0.7628 -0.1653
  386MOL0     H52056   9.185   3.134  10.953 -0.2823 -0.4301  0.0959
  386MOL0     H52057   9.050   3.055  10.778  0.5000  2.2403  0.4755
  386MOL0     H52058   9.023   2.908  10.866 -0.1130  0.3025  0.7933
  386MOL0     H52059   8.867   2.993  11.014 -0.2125  1.2097  3.3070
  386MOL0     H52060   8.840   3.077  10.866  1.3151  3.3781  0.4618
  386MOL0     H52061   8.922   3.332  10.834  0.9513  0.0382 -0.3106
  386MOL0     H52062   8.789   3.600  11.104  1.5433  2.0481  0.7286
  386MOL0     H52063   8.956   3.599  11.092  1.5568 -1.9407 -1.1560
  386MOL0     H52064   8.786   3.682  10.887 -1.5427 -2.6538 -1.9523
  386MOL0     H52065   8.816   3.529  10.837 -0.2087  2.5546 -1.4338
  386MOL0     H52066   9.046   3.717  10.934  0.1876 -0.2332 -0.1682
  386MOL0     H52067   8.984   3.733  10.770 -1.8815 -1.5280 -0.7307
  386MOL0     H52068   9.121   3.497  10.899 -1.1077  2.7213  2.4095
  386MOL0     H52069   9.199   3.607  10.792  1.7684 -2.4158  0.9896
  386MOL0     H52070   8.998   3.312  10.512 -1.1251 -2.8710  0.9534
  386MOL0     H52071   9.067   3.031  10.416 -0.6428 -0.1119 -0.9939
  386MOL0     H52072   9.058   3.189  10.335  2.2537  0.0571 -2.4229
  386MOL0     H52073   9.210   3.099  10.324 -0.4181  4.6696 -2.3335
  386MOL0     H52074   9.668   2.941  10.638  0.3564  1.0106 -0.0536
  386MOL0     H52075   9.770   2.736  10.564 -1.8008  0.1702  0.9242
  386MOL0     H52076   9.970   2.720  10.419 -0.6118  0.1673 -0.0104
  386MOL0     H52077   9.905   2.572  10.470  3.4706 -0.0812  1.0056
  386MOL0     H52078  10.136   2.566  10.355 -0.3566  2.0159  0.0246
  386MOL0     H52079  10.018   2.456  10.279 -1.8629 -0.3328 -1.0383
  386MOL0     H52080  10.141   2.707  10.167 -1.1406  1.5414  0.1579
  386MOL0     H52081   9.967   2.667  10.125 -0.3015 -1.0458  2.2230
  386MOL0     H52082  10.203   2.470  10.113 -0.0728  1.0837  1.0916
  386MOL0     H52083  10.042   2.440  10.050  0.2623 -1.1376  1.9417
  386MOL0     H52084  10.237   2.640   9.958 -1.5226  0.5276  2.8284
  386MOL0     H52085  10.080   2.617   9.870  0.1027 -1.2665 -2.6852
  386MOL0     H52086  10.290   2.392   9.901  0.9025  0.1236  0.3361
  386MOL0     H52087  10.140   2.399   9.796  0.0537 -1.1902 -0.8098
  386MOL0     H52088  10.357   2.601   9.778  0.4984 -0.1310 -0.7190
  386MOL0     H52089  10.215   2.560   9.666 -1.5245 -0.2404  2.0705
  386MOL0     H52090  10.312   2.342   9.639 -0.9852  0.6269  0.1866
  386MOL0     H52091  10.472   2.406   9.701  0.2835  1.2619 -0.0968
  386MOL0     H52092   9.642   2.799  10.159  3.1356  0.2282  0.8434
  386MOL0     H52093   9.495   2.985  10.242  0.1263  0.6712 -0.3899
  386MOL0     H52094   9.440   3.230  10.700  0.9740 -1.9053 -2.8642
  386MOL0     H52095   9.337   3.413  10.786  0.1230  1.7285 -0.0838
  386MOL0     H52096  10.011   3.203  11.032  1.2055 -1.5024  0.2432
  386MOL0     H52097  10.221   3.182  10.913  0.0406 -1.9799  1.9525
  386MOL0     H52098  10.516   3.307  10.652  2.9455  0.3044  1.2717
  386MOL0     H52099  10.739   3.269  10.563 -0.0336  2.2065  0.6033
  386MOL0     H52100  10.897   3.313  10.385 -1.4581  0.0840  0.1769
  386MOL0     H52101  10.919   3.149  10.459  2.2398  0.9134  0.4685
  386MOL0     H52102  11.036   3.204  10.185 -2.2858 -1.9179 -0.1720
  386MOL0     H52103  11.050   3.069  10.296  4.9836  0.4484 -0.1173
  386MOL0     H52104  11.256   3.161  10.335  0.2705 -0.9844  0.5627
  386MOL0     H52105  11.163   3.248  10.459  1.5467  0.9632 -0.6435
  386MOL0     H52106  11.217   3.368  10.193  1.1960  1.5404  0.0946
  386MOL0     H52107  11.309   3.393  10.342  0.0624  0.8024  1.3287
  386MOL0     H52108  11.001   3.643  10.441 -1.3413 -1.7188  1.0668
  386MOL0     H52109  10.541   3.135  10.191  2.7790 -0.2069 -0.6849
  386MOL0     H52110  10.336   3.167  10.293 -0.9249  3.5977  0.0388
  387MOL0     O52111   8.472  10.527   6.901 -0.1237 -0.8398 -0.3582
  387MOL0     C52112   8.398  10.540   7.001  0.3815 -0.3470  0.2709
  387MOL0     O52113   8.440  10.556   7.135 -0.4325 -0.4740 -0.1131
  387MOL0     C52114   8.570  10.550   7.175  0.5679  1.0666  0.0001
  387MOL0     C52115   8.677  10.589   7.099 -1.1388 -1.2441 -0.3994
  387MOL0     C52116   8.820  10.567   7.134 -0.4530 -0.0772 -0.5491
  387MOL0     C52117   8.840  10.499   7.254  0.5741  0.2554 -0.2348
  387MOL0     O52118   8.963  10.462   7.305 -0.1369  0.3185 -0.0447
  387MOL0     C52119   9.081  10.509   7.232 -0.2890 -0.7111  0.9577
  387MOL0     C52120   9.207  10.455   7.306  0.9007 -0.3562  0.0474
  387MOL0     C52121   9.305  10.392   7.205 -0.0399 -0.5201  0.3853
  387MOL0     C52122   9.448  10.437   7.220  0.8579 -0.1606 -0.4698
  387MOL0     C52123   9.546  10.377   7.131 -1.0090  0.3755 -1.1952
  387MOL0     C52124   9.678  10.366   7.209 -0.6179  0.2437  1.0243
  387MOL0     C52125   9.785  10.324   7.113  0.1303  0.4127  0.3155
  387MOL0     C52126   9.928  10.358   7.158 -0.2296 -0.3992 -0.3670
  387MOL0     N52127  10.021  10.356   7.037 -0.7379  0.7242 -0.1829
  387MOL0     C52128  10.041  10.253   6.943 -0.1525 -0.6847 -0.5172
  387MOL0     C52129  10.137  10.313   6.863  0.6523  1.0275 -0.5273
  387MOL0     C52130  10.209  10.214   6.757  0.2760  0.2490 -0.1627
  387MOL0     C52131  10.202  10.281   6.614 -0.1168  0.1042  0.6994
  387MOL0     C52132  10.195  10.164   6.510 -0.3301 -0.3296 -0.4193
  387MOL0     C52133  10.318  10.082   6.489  1.1586  0.4139 -0.4704
  387MOL0     O52134  10.410  10.140   6.401 -0.0716 -0.0218  0.5760
  387MOL0     C52135  10.545  10.121   6.424 -0.3840  0.0142 -0.5478
  387MOL0     C52136  10.635  10.137   6.316 -0.1493 -0.6479  0.1653
  387MOL0     C52137  10.777  10.124   6.318  0.3256  0.1785 -0.0681
  387MOL0     C52138  10.847  10.124   6.192 -0.0237 -1.1844  0.6961
  387MOL0     C52139  10.840  10.123   6.447  0.5755  0.0107  0.6158
  387MOL0     C52140  10.987  10.117   6.476 -0.3002 -0.5577  0.9672
  387MOL0     O52141  11.076  10.067   6.378 -0.0473 -0.5656  0.6563
  387MOL0     C52142  11.210  10.078   6.413 -0.2104  0.6939 -0.4929
  387MOL0     C52143  11.275  10.204   6.436  0.7683  0.1053  0.2925
  387MOL0     C52144  11.403  10.213   6.492 -0.0656  0.0597  0.0905
  387MOL0     C52145  11.480  10.095   6.501 -0.2243  0.3769 -0.7279
  387MOL0     O52146  11.613  10.100   6.549  0.2120 -0.1248 -0.3344
  387MOL0     C52147  11.668  10.233   6.578 -0.5177  0.3010  0.1880
  387MOL0     C52148  11.816  10.238   6.617  0.5228  0.1335 -0.3862
  387MOL0     C52149  11.924  10.184   6.519  0.4046 -0.0902  0.2953
  387MOL0     C52150  12.053  10.267   6.523  0.1982  0.0770  0.3185
  387MOL0     C52151  12.174  10.218   6.442 -0.0034 -0.1089  0.3540
  387MOL0     C52152  12.166  10.242   6.291 -0.2071  0.5906  0.1899
  387MOL0     C52153  12.303  10.206   6.226  0.9267 -0.0661  0.5233
  387MOL0     C52154  12.306  10.239   6.076  1.3404  0.7947  0.1690
  387MOL0    Cl52155  12.467  10.195   6.011  0.4124 -0.3479 -0.2592
  387MOL0     C52156  11.424   9.978   6.469  0.7496  0.2365  0.1942
  387MOL0     C52157  11.290   9.968   6.430  0.2053  0.6118  1.0980
  387MOL0     O52158  11.020  10.153   6.582  1.3546  0.0419 -1.2251
  387MOL0     C52159  10.754  10.099   6.561  0.5221 -0.1872  0.3413
  387MOL0     C52160  10.612  10.095   6.549 -0.0733  0.8294  0.2199
  387MOL0     N52161  10.150  10.437   6.888 -0.0366  0.0179  0.0421
  387MOL0     N52162  10.081  10.467   6.992 -0.1690  0.2226 -0.1619
  387MOL0     C52163   8.733  10.468   7.334 -0.7809  0.3037 -0.2205
  387MOL0     C52164   8.598  10.492   7.304 -0.8358  0.0234 -0.1973
  387MOL0     C52165   8.251  10.536   6.978  0.3190  0.4682 -0.4396
  387MOL0     C52166   8.153  10.565   7.083 -0.2857 -0.3051  0.3009
  387MOL0     C52167   8.017  10.551   7.050  0.1188  0.0593  0.6855
  387MOL0     C52168   7.966  10.531   6.919  0.6058 -0.4495  0.1704
  387MOL0     O52169   7.832  10.535   6.898  0.1000 -0.2786  0.0467
  387MOL0     C52170   7.771  10.410   6.891  0.1332  0.8547 -0.5144
  387MOL0     C52171   7.628  10.431   6.838 -0.2118 -0.1767  0.0577
  387MOL0     C52172   7.543  10.288   6.838 -0.4781  0.1448 -0.1039
  387MOL0     C52173   7.423  10.294   6.736  0.2496 -0.2469  0.7868
  387MOL0     C52174   7.328  10.393   6.781  0.4879 -0.3188 -0.9926
  387MOL0     C52175   7.250  10.476   6.814  0.4692  0.3203  0.1553
  387MOL0     C52176   8.056  10.492   6.823 -1.3491  0.2326  0.1876
  387MOL0     C52177   8.192  10.504   6.851  0.0548 -0.0593  0.0822
  387MOL0     H52178   8.656  10.622   6.998 -1.3631 -1.2990 -0.3709
  387MOL0     H52179   8.902  10.598   7.069 -2.4897  2.8067 -1.9677
  387MOL0     H52180   9.084  10.456   7.137  2.1460  0.3923  0.3482
  387MOL0     H52181   9.093  10.617   7.217 -2.3175 -0.5646  0.1292
  387MOL0     H52182   9.241  10.550   7.349  0.2314 -1.1583  2.5274
  387MOL0     H52183   9.196  10.391   7.395  0.6277  1.5053  1.4212
  387MOL0     H52184   9.305  10.286   7.235  1.6884 -0.6469  0.0264
  387MOL0     H52185   9.274  10.403   7.101 -3.7326 -1.8726  1.1820
  387MOL0     H52186   9.453  10.542   7.193 -1.4382 -0.0830 -0.8097
  387MOL0     H52187   9.471  10.423   7.326  0.0142 -1.0138 -0.3807
  387MOL0     H52188   9.516  10.275   7.106  1.3111 -0.9270  0.9720
  387MOL0     H52189   9.547  10.437   7.040 -1.0849  1.0436 -0.7613
  387MOL0     H52190   9.697  10.469   7.239  2.8845 -0.7877  2.8318
  387MOL0     H52191   9.672  10.306   7.300 -0.2025 -1.4735 -0.0380
  387MOL0     H52192   9.773  10.215   7.108  0.2730  0.0241  4.7211
  387MOL0     H52193   9.776  10.367   7.013 -0.1210  1.1976  0.6687
  387MOL0     H52194   9.965  10.276   7.219  2.1195  0.1583 -0.9055
  387MOL0     H52195   9.934  10.452   7.215 -1.1388  0.2076 -1.2308
  387MOL0     H52196  10.013  10.148   6.950 -1.6641 -0.1955  2.6043
  387MOL0     H52197  10.313  10.197   6.784 -0.2783  0.1054  2.0781
  387MOL0     H52198  10.156  10.119   6.766 -0.6959  0.9080  1.4667
  387MOL0     H52199  10.292  10.339   6.591 -1.9120  3.0706  0.6786
  387MOL0     H52200  10.123  10.356   6.614  1.2871  1.6620  1.5406
  387MOL0     H52201  10.168  10.207   6.413 -2.2470  1.7353  0.9258
  387MOL0     H52202  10.123  10.100   6.562  0.4047  1.4176  3.0243
  387MOL0     H52203  10.295   9.983   6.449 -1.8238 -0.7709  3.5184
  387MOL0     H52204  10.365  10.049   6.583  0.5018  2.0517  0.4828
  387MOL0     H52205  10.596  10.150   6.216 -0.2264  3.0269  0.5466
  387MOL0     H52206  10.773  10.118   6.111 -1.9621  0.7527  2.1936
  387MOL0     H52207  10.897  10.220   6.177  2.0665 -2.2626  0.4451
  387MOL0     H52208  10.932  10.057   6.176 -0.9737 -2.2479 -0.0433
  387MOL0     H52209  11.225  10.296   6.408  0.8053  0.3054  0.8582
  387MOL0     H52210  11.439  10.310   6.525 -0.0577  0.3207 -0.6622
  387MOL0     H52211  11.661  10.274   6.477 -1.2776 -1.8675 -0.6952
  387MOL0     H52212  11.603  10.287   6.647 -0.4547  0.0380  0.4537
  387MOL0     H52213  11.841  10.343   6.634  3.6018 -0.9436  2.8800
  387MOL0     H52214  11.834  10.187   6.712  0.3609  1.1842  0.2235
  387MOL0     H52215  11.898  10.176   6.413 -0.8789 -0.8176  0.6538
  387MOL0     H52216  11.952  10.086   6.560 -1.4660 -1.2041 -0.9664
  387MOL0     H52217  12.031  10.368   6.487  1.5931 -0.0181 -0.8946
  387MOL0     H52218  12.086  10.274   6.627 -0.3678  0.1074  0.4983
  387MOL0     H52219  12.193  10.113   6.463 -0.5707 -0.5936 -1.4627
  387MOL0     H52220  12.263  10.273   6.478  0.6020  1.2228 -2.8756
  387MOL0     H52221  12.097  10.176   6.237  0.4425  0.1760 -0.1433
  387MOL0     H52222  12.139  10.346   6.267  0.1474  0.0387 -3.0043
  387MOL0     H52223  12.326  10.099   6.232  1.1426 -0.0743 -0.2928
  387MOL0     H52224  12.387  10.253   6.277  0.8605 -2.6572  3.3399
  387MOL0     H52225  12.281  10.345   6.068  1.5496  0.9241  1.0851
  387MOL0     H52226  12.226  10.196   6.015  2.3907 -0.1791 -0.5679
  387MOL0     H52227  11.484   9.888   6.464 -4.4583 -3.6317 -1.9044
  387MOL0     H52228  11.260   9.864   6.416  3.5998 -0.4531  0.7514
  387MOL0     H52229  10.796  10.072   6.657  0.4820 -0.3990  0.3009
  387MOL0     H52230  10.555  10.062   6.636  0.1574 -4.6674 -1.3213
  387MOL0     H52231   8.754  10.434   7.435  2.0001  1.6300 -0.2409
  387MOL0     H52232   8.514  10.484   7.371 -1.8812  1.4512 -1.2854
  387MOL0     H52233   8.190  10.586   7.183  2.9360 -1.1588 -0.5806
  387MOL0     H52234   7.943  10.576   7.125 -4.2299 -1.3927 -2.6852
  387MOL0     H52235   7.822  10.341   6.823  2.3766 -2.5694  4.0192
  387MOL0     H52236   7.773  10.366   6.992  2.0201  2.8049  0.3716
  387MOL0     H52237   7.613  10.486   6.745  0.5696 -3.6705 -2.3721
  387MOL0     H52238   7.580  10.497   6.910  0.6450 -2.6361  3.1038
  387MOL0     H52239   7.518  10.277   6.943 -1.1448 -3.9570 -0.5582
  387MOL0     H52240   7.608  10.203   6.822 -2.1646 -1.6030  1.7562
  387MOL0     H52241   7.371  10.197   6.741  0.4667 -0.4778 -0.8080
  387MOL0     H52242   7.465  10.311   6.636  1.4046  2.0087  1.5831
  387MOL0     H52243   7.185  10.552   6.852 -0.4008 -1.3427  2.1765
  387MOL0     H52244   8.035  10.467   6.719  2.3666 -0.4541 -0.5712
  387MOL0     H52245   8.258  10.493   6.766  1.9202  3.1171  0.9695
  388MOL0     O52246   3.880   6.582   8.193 -0.2282  0.5951 -0.7554
  388MOL0     C52247   3.798   6.625   8.110 -0.2103 -0.9901  0.0377
  388MOL0     O52248   3.669   6.672   8.145 -0.3264  0.5386  0.9338
  388MOL0     C52249   3.622   6.669   8.274  0.4989 -0.6470  0.1239
  388MOL0     C52250   3.481   6.661   8.289  0.3639 -1.1157  0.3219
  388MOL0     C52251   3.425   6.658   8.415  0.6497  0.3821 -0.0292
  388MOL0     C52252   3.503   6.669   8.530 -0.5415  0.2183  0.2471
  388MOL0     O52253   3.455   6.690   8.656 -0.4653 -0.3327 -0.0204
  388MOL0     C52254   3.419   6.574   8.734 -0.2755 -0.9094 -0.7192
  388MOL0     C52255   3.265   6.553   8.732 -0.2395  0.1969 -0.0611
  388MOL0     C52256   3.208   6.441   8.820  0.3683 -0.2898  0.1822
  388MOL0     C52257   3.055   6.457   8.830 -0.3560 -0.5986 -0.4935
  388MOL0     C52258   2.996   6.320   8.884 -0.4309 -0.6620 -0.0100
  388MOL0     C52259   2.846   6.325   8.909  0.2550 -0.4656  0.0158
  388MOL0     C52260   2.792   6.188   8.922  1.1321 -0.0629  0.2863
  388MOL0     C52261   2.640   6.187   8.939  0.0011  0.6077  1.0015
  388MOL0     N52262   2.590   6.057   8.970  0.1132  0.0740 -0.1725
  388MOL0     C52263   2.481   6.046   9.051 -0.3498 -0.1418  0.1337
  388MOL0     C52264   2.464   5.910   9.059  0.2501  0.3029 -0.1792
  388MOL0     C52265   2.368   5.852   9.146  0.7215  0.0586 -0.3826
  388MOL0     C52266   2.345   5.701   9.128 -0.4142  0.2671 -0.3408
  388MOL0     C52267   2.256   5.674   9.012 -0.0529  0.2834  1.1610
  388MOL0     C52268   2.210   5.526   9.008  0.3119 -0.6514 -0.3054
  388MOL0     O52269   2.089   5.496   9.075 -0.2385 -0.3497 -0.4479
  388MOL0     C52270   1.972   5.515   9.027  0.7930  0.1540  0.1030
  388MOL0     C52271   1.862   5.508   9.111 -0.4879 -0.5355 -0.4308
  388MOL0     C52272   1.725   5.522   9.071 -1.2787  0.1230 -0.4096
  388MOL0     C52273   1.625   5.505   9.178 -0.1973 -0.0026 -0.5246
  388MOL0     C52274   1.701   5.545   8.932  0.0193  0.6051 -0.0460
  388MOL0     C52275   1.563   5.554   8.866 -0.1657  0.2391 -0.3360
  388MOL0     O52276   1.454   5.503   8.924  0.2682 -0.8372  0.8672
  388MOL0     C52277   1.341   5.498   8.847 -0.5114  0.2040 -0.4810
  388MOL0     C52278   1.317   5.390   8.759 -0.3766  0.0502  0.0997
  388MOL0     C52279   1.198   5.388   8.683 -0.4177 -0.4452  0.4366
  388MOL0     C52280   1.104   5.485   8.696  0.5634  0.5092  0.1532
  388MOL0     O52281   0.988   5.465   8.630  0.7658 -0.2099  0.7166
  388MOL0     C52282   0.871   5.433   8.707  0.1919 -0.4838  0.1200
  388MOL0     C52283   0.749   5.456   8.639  0.4391 -1.1591  0.5318
  388MOL0     C52284   0.722   5.602   8.598  0.8077  0.9163 -0.8583
  388MOL0     C52285   0.688   5.703   8.718 -0.0978 -0.1302 -0.3034
  388MOL0     C52286   0.618   5.833   8.661  0.5485  0.7346 -0.0905
  388MOL0     C52287   0.712   5.913   8.573 -0.0258  0.5612 -0.5116
  388MOL0     C52288   0.650   6.032   8.498  0.3026  0.1546 -0.3852
  388MOL0     C52289   0.576   5.983   8.378 -0.0636 -0.5617  0.1213
  388MOL0    Cl52290   0.404   5.965   8.423  0.0226 -0.2991 -0.1602
  388MOL0     C52291   1.137   5.593   8.771  0.0792 -0.1537  0.3592
  388MOL0     C52292   1.251   5.600   8.846 -1.8795  0.5596 -0.0875
  388MOL0     O52293   1.556   5.613   8.756 -0.3166 -0.1742  1.0382
  388MOL0     C52294   1.814   5.557   8.851 -0.1401  0.8598  0.1079
  388MOL0     C52295   1.942   5.550   8.893 -0.1253  0.7993 -0.5801
  388MOL0     N52296   2.549   5.846   8.976 -0.1057  0.2629 -0.5761
  388MOL0     N52297   2.624   5.934   8.931  0.3535 -0.9060 -0.7083
  388MOL0     C52298   3.640   6.686   8.521 -0.0339  0.5380  0.5817
  388MOL0     C52299   3.698   6.681   8.394  0.2618 -0.9857 -0.1322
  388MOL0     C52300   3.856   6.655   7.976  1.0106  0.9765 -0.8357
  388MOL0     C52301   3.768   6.701   7.876  0.5053 -0.0034 -0.4935
  388MOL0     C52302   3.807   6.744   7.746  0.3220  1.1760  0.4805
  388MOL0     C52303   3.944   6.738   7.718 -0.9818 -0.4389 -0.4707
  388MOL0     O52304   3.993   6.787   7.604 -0.3051 -0.1319 -0.3935
  388MOL0     C52305   4.128   6.774   7.556  0.2853 -0.0049  0.1208
  388MOL0     C52306   4.162   6.854   7.427 -0.0070 -0.4557 -0.0793
  388MOL0     C52307   4.100   6.998   7.430  0.2100  0.3312  0.0568
  388MOL0     C52308   4.081   7.071   7.287 -0.1442 -0.0557 -0.7708
  388MOL0     C52309   4.017   7.202   7.296 -0.2215 -0.5060  0.1663
  388MOL0     C52310   3.985   7.319   7.329 -0.1702 -0.1486  0.3660
  388MOL0     C52311   4.038   6.685   7.816  0.3465 -0.3195  0.4290
  388MOL0     C52312   3.993   6.647   7.941 -0.5413 -0.0974 -0.0291
  388MOL0     H52313   3.421   6.652   8.199  1.3506  0.1992 -0.5036
  388MOL0     H52314   3.317   6.658   8.429  0.8265 -0.9878  1.5684
  388MOL0     H52315   3.478   6.493   8.690  0.2793 -0.0239 -1.6533
  388MOL0     H52316   3.448   6.588   8.838 -1.9201 -0.5971 -0.2785
  388MOL0     H52317   3.223   6.652   8.748  2.4122  1.8980 -2.7241
  388MOL0     H52318   3.242   6.520   8.630 -1.0647  0.1346  0.1360
  388MOL0     H52319   3.241   6.344   8.781  2.5917 -0.1035  1.4327
  388MOL0     H52320   3.246   6.449   8.922 -0.2589  1.1182  0.3261
  388MOL0     H52321   3.038   6.546   8.892 -0.3043  0.7884 -2.3984
  388MOL0     H52322   3.009   6.485   8.735 -2.0975  0.5025  0.6092
  388MOL0     H52323   3.035   6.250   8.809  0.9174  1.2130 -1.1761
  388MOL0     H52324   3.039   6.294   8.981 -2.5626 -1.0121  0.8853
  388MOL0     H52325   2.806   6.383   8.993 -0.3083 -2.0257  0.8725
  388MOL0     H52326   2.804   6.364   8.815  1.5455 -0.8522 -0.7445
  388MOL0     H52327   2.829   6.110   8.855 -0.6824 -1.6604  1.0318
  388MOL0     H52328   2.825   6.150   9.019  3.4253 -1.1446 -0.8452
  388MOL0     H52329   2.604   6.212   8.839  2.0959 -1.3008 -0.2872
  388MOL0     H52330   2.598   6.263   9.006 -3.1460  0.2885 -0.4372
  388MOL0     H52331   2.419   6.119   9.103  0.6346 -0.4516  1.8190
  388MOL0     H52332   2.412   5.856   9.247  0.2842  4.5873 -0.1697
  388MOL0     H52333   2.282   5.920   9.147  1.4173  1.0270 -2.2660
  388MOL0     H52334   2.293   5.668   9.219  1.0568 -0.7739  0.1845
  388MOL0     H52335   2.441   5.649   9.120 -0.7538 -0.7162  1.3374
  388MOL0     H52336   2.315   5.699   8.923  4.2604  0.3046  3.7356
  388MOL0     H52337   2.170   5.741   9.019  1.4229  2.7964 -2.0723
  388MOL0     H52338   2.282   5.467   9.065  0.1407 -3.1597 -2.4837
  388MOL0     H52339   2.220   5.491   8.905 -0.9113  0.2912 -0.7786
  388MOL0     H52340   1.876   5.494   9.218  0.5234 -0.0392 -0.4797
  388MOL0     H52341   1.660   5.479   9.278 -3.7349 -2.0189  0.3634
  388MOL0     H52342   1.568   5.598   9.181 -0.0019  0.0942  0.3809
  388MOL0     H52343   1.553   5.427   9.151  2.5495 -2.2115 -2.0336
  388MOL0     H52344   1.388   5.308   8.753  0.7161  0.7931  1.9612
  388MOL0     H52345   1.175   5.305   8.617 -0.1574 -0.0066 -0.2110
  388MOL0     H52346   0.876   5.331   8.748 -0.4904 -1.1115 -1.3005
  388MOL0     H52347   0.878   5.493   8.798 -2.6517  2.3844 -1.3663
  388MOL0     H52348   0.753   5.405   8.543  0.0746  2.3896 -1.5750
  388MOL0     H52349   0.666   5.412   8.696 -0.5472  1.5177  1.3356
  388MOL0     H52350   0.635   5.592   8.531  1.4505  1.3189 -1.7802
  388MOL0     H52351   0.804   5.641   8.538  2.1072 -0.5541 -0.0986
  388MOL0     H52352   0.618   5.645   8.779 -0.6976  0.7647 -0.1137
  388MOL0     H52353   0.779   5.722   8.775 -0.9358  1.2721  0.6323
  388MOL0     H52354   0.572   5.887   8.745  1.6439  1.0895  0.3004
  388MOL0     H52355   0.533   5.796   8.604  1.8904 -0.7577 -1.2130
  388MOL0     H52356   0.795   5.949   8.635  0.0991 -1.0512  0.3292
  388MOL0     H52357   0.754   5.839   8.504  1.9160  1.0851  0.0530
  388MOL0     H52358   0.735   6.095   8.470  2.3707  0.7164  5.7237
  388MOL0     H52359   0.579   6.089   8.558 -0.1084  1.8870 -2.3886
  388MOL0     H52360   0.616   5.892   8.331  1.8256 -0.2550  1.0534
  388MOL0     H52361   0.590   6.063   8.305  1.9579 -0.8011  0.1865
  388MOL0     H52362   1.065   5.673   8.785  0.1249 -0.3944  2.1570
  388MOL0     H52363   1.266   5.668   8.930 -1.2027  0.7516 -0.3579
  388MOL0     H52364   1.787   5.573   8.747 -1.6326 -1.4889  0.0426
  388MOL0     H52365   2.019   5.555   8.817  1.1890  1.1520  0.7405
  388MOL0     H52366   3.703   6.713   8.604  0.9055  0.9465 -0.2526
  388MOL0     H52367   3.805   6.699   8.400  0.3402 -1.1256 -1.0211
  388MOL0     H52368   3.661   6.709   7.895  0.6268  0.8124 -0.1430
  388MOL0     H52369   3.730   6.779   7.678  0.8598 -1.3945 -1.6298
  388MOL0     H52370   4.199   6.810   7.631 -1.1802  1.5065  0.8351
  388MOL0     H52371   4.141   6.672   7.519  2.2597  0.3987 -0.4687
  388MOL0     H52372   4.134   6.802   7.335 -0.5113 -0.3914  0.0377
  388MOL0     H52373   4.271   6.856   7.412  0.2959 -1.2269  1.7477
  388MOL0     H52374   4.157   7.060   7.499  0.5777  0.2915 -0.2110
  388MOL0     H52375   3.994   6.980   7.454  0.3709  0.9716  1.3369
  388MOL0     H52376   4.022   7.007   7.221 -1.0277 -0.6984  0.6018
  388MOL0     H52377   4.181   7.081   7.244 -1.1744 -1.1319 -3.6572
  388MOL0     H52378   3.943   7.415   7.352  3.5075  1.3701  1.5608
  388MOL0     H52379   4.140   6.666   7.786 -0.0539 -1.8334 -0.0345
  388MOL0     H52380   4.069   6.615   8.012 -0.2519 -0.1492 -0.3611
  389MOL0     O52381   9.770   2.603   3.006  0.4297  0.0415 -0.1759
  389MOL0     C52382   9.808   2.576   3.120  0.3197  0.1643  0.4895
  389MOL0     O52383   9.738   2.608   3.235  0.9914 -0.8258 -0.3050
  389MOL0     C52384   9.624   2.686   3.221  0.2406 -0.3549 -0.1080
  389MOL0     C52385   9.600   2.783   3.323  0.4292 -0.2152 -0.7598
  389MOL0     C52386   9.479   2.863   3.325 -0.8037  0.4252 -0.1482
  389MOL0     C52387   9.380   2.836   3.230  0.0923 -0.2428  1.2345
  389MOL0     O52388   9.273   2.925   3.233 -0.1552 -0.0967  0.3760
  389MOL0     C52389   9.155   2.881   3.159 -0.3167 -0.4985  0.2865
  389MOL0     C52390   9.027   2.962   3.195 -0.3505 -0.3895  0.6021
  389MOL0     C52391   8.922   2.945   3.088 -0.7063  0.1761 -0.1327
  389MOL0     C52392   8.797   3.019   3.114  1.1703  0.2476 -0.2879
  389MOL0     C52393   8.680   3.009   3.008 -0.4374 -0.0909  0.3042
  389MOL0     C52394   8.556   3.099   3.048 -0.6384  0.1041  0.2394
  389MOL0     C52395   8.436   3.099   2.962  0.6520 -0.3131  0.2952
  389MOL0     C52396   8.459   3.144   2.814 -0.1613 -0.2809 -0.1692
  389MOL0     N52397   8.361   3.209   2.729  0.2033 -0.2261 -0.1287
  389MOL0     C52398   8.277   3.314   2.759 -0.2728 -0.4996 -0.2902
  389MOL0     C52399   8.216   3.343   2.647  0.0388  0.6081 -0.1596
  389MOL0     C52400   8.129   3.460   2.637  0.1627 -0.0168  0.2133
  389MOL0     C52401   8.121   3.526   2.493  0.0587 -0.7345  0.6482
  389MOL0     C52402   8.063   3.451   2.379 -0.3782  0.4779 -0.1908
  389MOL0     C52403   7.918   3.433   2.350 -0.8326  0.5430 -0.1711
  389MOL0     O52404   7.858   3.561   2.330  0.7708 -0.0697 -0.4716
  389MOL0     C52405   7.731   3.572   2.286 -0.4359 -0.0956 -0.6401
  389MOL0     C52406   7.652   3.472   2.233 -0.5154 -0.3646 -0.2811
  389MOL0     C52407   7.526   3.505   2.178  0.4546 -0.3831 -0.0430
  389MOL0     C52408   7.450   3.388   2.137 -0.3079  0.1224 -0.5575
  389MOL0     C52409   7.469   3.636   2.182  0.0886 -0.3547 -0.8903
  389MOL0     C52410   7.333   3.668   2.125  0.0788 -0.7013  0.4803
  389MOL0     O52411   7.248   3.577   2.088  0.7153  0.4008 -0.7175
  389MOL0     C52412   7.127   3.617   2.032 -0.5016 -0.1003 -0.2348
  389MOL0     C52413   7.123   3.663   1.893 -0.5481  1.1324 -0.3352
  389MOL0     C52414   6.992   3.687   1.835  0.2529  0.4603  0.2699
  389MOL0     C52415   6.874   3.668   1.909  1.3626 -0.1486  0.8300
  389MOL0     O52416   6.746   3.698   1.869  1.0597 -0.7399  0.2183
  389MOL0     C52417   6.721   3.709   1.730  0.5841 -0.4451  0.1840
  389MOL0     C52418   6.601   3.782   1.693 -0.2424  0.4270  0.6851
  389MOL0     C52419   6.475   3.699   1.707 -0.0579 -0.6262 -0.2052
  389MOL0     C52420   6.358   3.767   1.627 -0.0829 -0.2511 -0.2483
  389MOL0     C52421   6.219   3.720   1.667 -0.1231 -0.5840  0.5535
  389MOL0     C52422   6.203   3.572   1.629 -0.3606  0.1831 -0.0459
  389MOL0     C52423   6.062   3.549   1.571 -0.0662 -0.1388 -0.1078
  389MOL0     C52424   6.049   3.404   1.507 -0.0622 -0.2934 -1.0108
  389MOL0    Cl52425   5.901   3.339   1.534  0.1555  0.0009 -0.4843
  389MOL0     C52426   6.882   3.621   2.042 -0.6767  0.7065 -0.9297
  389MOL0     C52427   7.009   3.609   2.102 -0.2138  0.8335  0.4383
  389MOL0     O52428   7.304   3.784   2.123  0.3237 -0.8612  0.6285
  389MOL0     C52429   7.556   3.740   2.238  0.1789 -0.3120 -0.3347
  389MOL0     C52430   7.680   3.708   2.289 -0.6539  0.5418 -0.3100
  389MOL0     N52431   8.250   3.254   2.548  0.3949 -0.1922  0.4738
  389MOL0     N52432   8.346   3.184   2.595  0.3083  0.2366 -0.8463
  389MOL0     C52433   9.407   2.742   3.126  0.6246 -0.6272  0.4624
  389MOL0     C52434   9.526   2.668   3.127  0.0630 -0.0591 -0.2960
  389MOL0     C52435   9.939   2.499   3.131 -0.4981  0.0800  0.4160
  389MOL0     C52436   9.995   2.488   3.256 -0.0953  0.1677 -0.5729
  389MOL0     C52437  10.103   2.404   3.276  0.1338 -1.0254  0.4708
  389MOL0     C52438  10.170   2.337   3.173  0.6668  0.5038  0.2957
  389MOL0     O52439  10.270   2.242   3.202 -0.1503  0.7007  0.6778
  389MOL0     C52440  10.353   2.181   3.100  0.5663  0.4777  0.1282
  389MOL0     C52441  10.452   2.273   3.060 -0.0918  0.3297  1.0807
  389MOL0     C52442  10.561   2.228   2.964  0.4027  1.0608 -0.1460
  389MOL0     C52443  10.680   2.158   3.032  0.1153 -0.3554  0.6604
  389MOL0     C52444  10.775   2.254   3.080 -0.0377  0.0841 -0.5840
  389MOL0     C52445  10.852   2.332   3.124 -0.0380 -0.1114  0.7379
  389MOL0     C52446  10.113   2.341   3.041 -0.6182  0.4813 -0.0250
  389MOL0     C52447  10.005   2.434   3.026  0.2114 -0.1943 -0.3568
  389MOL0     H52448   9.681   2.806   3.391  0.1771  0.4140 -0.6656
  389MOL0     H52449   9.449   2.947   3.386 -1.4736 -0.3516  0.6196
  389MOL0     H52450   9.168   2.916   3.057  0.3013  0.4141  0.6612
  389MOL0     H52451   9.131   2.775   3.167  0.5801 -0.7660 -0.4381
  389MOL0     H52452   8.987   2.927   3.291  0.7609  1.0456  1.6442
  389MOL0     H52453   9.043   3.069   3.214 -2.4053  0.3210 -1.2784
  389MOL0     H52454   8.953   2.988   2.992  3.6977  0.5044  1.2205
  389MOL0     H52455   8.903   2.839   3.071  0.6951 -0.8020  3.5293
  389MOL0     H52456   8.753   2.976   3.204  1.4770  0.5643  0.0166
  389MOL0     H52457   8.813   3.123   3.146  1.6876  0.6767 -1.8527
  389MOL0     H52458   8.712   3.054   2.914 -1.7835  3.2946  1.2947
  389MOL0     H52459   8.646   2.906   2.994  0.5839 -0.3619 -0.2367
  389MOL0     H52460   8.531   3.073   3.151  1.9323  0.1891  0.9639
  389MOL0     H52461   8.606   3.196   3.042 -0.5744  0.2339  2.1311
  389MOL0     H52462   8.370   3.012   2.960  0.4895 -0.3197  2.6551
  389MOL0     H52463   8.369   3.179   2.996  1.5207  0.4175  0.3137
  389MOL0     H52464   8.492   3.058   2.755  0.4023  1.2039 -2.1426
  389MOL0     H52465   8.549   3.206   2.813  0.5000 -1.1972  0.8279
  389MOL0     H52466   8.269   3.366   2.854 -1.4226  2.1602 -1.7402
  389MOL0     H52467   8.029   3.428   2.666  0.9534 -1.7258  1.1564
  389MOL0     H52468   8.150   3.539   2.710 -2.7303  0.6168  0.4862
  389MOL0     H52469   8.225   3.553   2.473  0.2743 -1.3236  0.9493
  389MOL0     H52470   8.065   3.619   2.485  0.0779 -0.7305  0.5528
  389MOL0     H52471   8.111   3.353   2.381  1.4249  1.2692 -1.5912
  389MOL0     H52472   8.103   3.493   2.286  0.7650  0.7008  0.3860
  389MOL0     H52473   7.878   3.378   2.436  0.9331  1.3996  1.2674
  389MOL0     H52474   7.916   3.377   2.256 -2.8538 -0.7781  0.5940
  389MOL0     H52475   7.688   3.370   2.221  0.8384  0.2290 -1.5655
  389MOL0     H52476   7.509   3.296   2.129 -0.7595 -0.3593  1.1880
  389MOL0     H52477   7.377   3.358   2.213 -1.3103  0.2227 -1.4456
  389MOL0     H52478   7.404   3.405   2.039 -0.4649  1.8512 -0.2123
  389MOL0     H52479   7.218   3.664   1.841  0.2389 -1.9265  0.8172
  389MOL0     H52480   6.996   3.742   1.742  0.0017  1.6534  0.9459
  389MOL0     H52481   6.801   3.771   1.687  1.7839 -1.3772  1.0059
  389MOL0     H52482   6.713   3.612   1.679 -0.6305 -1.3242  1.9534
  389MOL0     H52483   6.584   3.871   1.754  0.6816  2.0175 -1.2810
  389MOL0     H52484   6.608   3.821   1.591 -3.1388  3.4475  1.4775
  389MOL0     H52485   6.450   3.704   1.813 -1.5690  3.3752 -0.5775
  389MOL0     H52486   6.486   3.597   1.669 -0.5435  0.0871 -2.4490
  389MOL0     H52487   6.366   3.874   1.649  2.2021 -0.6481  1.1332
  389MOL0     H52488   6.382   3.765   1.520  0.1979  2.2410 -0.2870
  389MOL0     H52489   6.144   3.771   1.605  0.5733  0.5485  0.6263
  389MOL0     H52490   6.195   3.738   1.773  1.0543 -2.7457  1.2502
  389MOL0     H52491   6.276   3.548   1.552  0.4863 -1.9672  1.3245
  389MOL0     H52492   6.222   3.512   1.719  1.1234  2.4269  1.2285
  389MOL0     H52493   6.031   3.623   1.496 -2.7689  2.4379  3.1869
  389MOL0     H52494   5.987   3.553   1.651  0.7651 -0.4231  0.7033
  389MOL0     H52495   6.128   3.342   1.551 -0.2902 -1.3895 -2.0901
  389MOL0     H52496   6.075   3.396   1.401 -0.7261 -1.8983 -1.0869
  389MOL0     H52497   6.797   3.605   2.108  0.1087  1.4468  0.3299
  389MOL0     H52498   7.014   3.590   2.208 -0.7378  1.7902  0.6499
  389MOL0     H52499   7.531   3.845   2.242  0.0556 -0.2417 -2.0882
  389MOL0     H52500   7.740   3.780   2.342 -0.3178  0.9708 -1.2441
  389MOL0     H52501   9.328   2.726   3.053 -0.0089 -1.1154  1.2486
  389MOL0     H52502   9.544   2.584   3.061  1.0503 -0.3887  0.3670
  389MOL0     H52503   9.950   2.542   3.339  0.4603  0.9959 -0.8005
  389MOL0     H52504  10.148   2.398   3.374 -0.9076  0.0519  1.0518
  389MOL0     H52505  10.401   2.096   3.150 -2.4207 -1.2865  0.1830
  389MOL0     H52506  10.298   2.146   3.013  1.1468  3.3038 -1.4951
  389MOL0     H52507  10.507   2.309   3.148  3.5828 -1.8012 -0.1350
  389MOL0     H52508  10.410   2.358   3.004  1.5779  0.1103 -0.5738
  389MOL0     H52509  10.601   2.317   2.915  2.8252  1.6573  2.5919
  389MOL0     H52510  10.520   2.168   2.882  2.7887  1.1714 -1.5226
  389MOL0     H52511  10.734   2.096   2.960 -0.7629 -0.7591  0.3450
  389MOL0     H52512  10.648   2.091   3.112 -0.5397 -2.4207 -1.2217
  389MOL0     H52513  10.934   2.393   3.153 -0.0063 -0.3174  1.0922
  389MOL0     H52514  10.133   2.277   2.956  3.6124 -0.6053  1.5591
  389MOL0     H52515   9.955   2.450   2.931  0.3939  1.5042 -0.2126
  390MOL0     O52516   4.342   3.501   0.940 -0.6985 -0.1426 -1.0546
  390MOL0     C52517   4.445   3.548   0.991  0.0172  0.0050 -0.4123
  390MOL0     O52518   4.457   3.607   1.115 -0.5232  0.6629  0.2662
  390MOL0     C52519   4.342   3.603   1.187  0.2082  0.8645 -0.2512
  390MOL0     C52520   4.240   3.700   1.171 -0.4667 -0.6097  0.4542
  390MOL0     C52521   4.130   3.704   1.254  0.4787 -0.4830  0.0884
  390MOL0     C52522   4.107   3.610   1.344  0.1035 -0.7522  0.3710
  390MOL0     O52523   3.983   3.622   1.415 -0.6812  0.8459 -0.1075
  390MOL0     C52524   3.940   3.519   1.495 -0.1430 -0.5563 -0.0253
  390MOL0     C52525   3.789   3.517   1.517 -0.4059  0.6482  0.2902
  390MOL0     C52526   3.715   3.641   1.532 -0.9757 -0.5059  0.0345
  390MOL0     C52527   3.576   3.634   1.610 -0.3996 -0.2664 -1.2092
  390MOL0     C52528   3.503   3.772   1.619 -0.3330 -0.5788  0.1023
  390MOL0     C52529   3.362   3.744   1.675  0.1115  0.4471  0.6179
  390MOL0     C52530   3.364   3.725   1.833 -0.7052 -0.2788 -0.2393
  390MOL0     C52531   3.345   3.865   1.905 -0.1472  0.2003  0.3120
  390MOL0     N52532   3.337   3.832   2.045  0.2869  0.4573 -0.8662
  390MOL0     C52533   3.225   3.833   2.124  0.0495  0.2602  0.8397
  390MOL0     C52534   3.263   3.790   2.245 -0.2234 -0.1029 -0.3252
  390MOL0     C52535   3.165   3.792   2.363  0.1959 -0.5042 -0.8685
  390MOL0     C52536   3.035   3.720   2.333  0.1744 -1.1427  0.3597
  390MOL0     C52537   2.925   3.820   2.281  0.7238 -0.6025  0.1635
  390MOL0     C52538   2.809   3.856   2.388  0.1037 -0.4202  0.2096
  390MOL0     O52539   2.746   3.737   2.411  0.0200  0.6184 -0.2857
  390MOL0     C52540   2.624   3.737   2.465  0.2565 -0.2899 -0.0028
  390MOL0     C52541   2.524   3.842   2.451  0.9597  0.5182  0.9980
  390MOL0     C52542   2.399   3.832   2.499  1.1215 -0.5265  0.8004
  390MOL0     C52543   2.302   3.939   2.444  1.0334 -0.1805 -0.6485
  390MOL0     C52544   2.361   3.718   2.580 -0.7534  0.3116  1.1232
  390MOL0     C52545   2.220   3.686   2.630 -1.2437  0.5670  0.4044
  390MOL0     O52546   2.213   3.586   2.724 -0.0453 -0.3332 -0.7979
  390MOL0     C52547   2.087   3.560   2.769 -0.1762 -0.0411  0.1184
  390MOL0     C52548   1.994   3.639   2.845 -0.0683  0.2517 -0.3206
  390MOL0     C52549   1.861   3.601   2.867 -0.6610  0.0401  0.0543
  390MOL0     C52550   1.817   3.474   2.825 -0.2415  0.3269 -0.1786
  390MOL0     O52551   1.683   3.427   2.846 -0.3411 -1.0289  0.7161
  390MOL0     C52552   1.576   3.518   2.868 -0.0377  0.0357  0.4334
  390MOL0     C52553   1.447   3.442   2.863  0.3527  0.4345 -0.3795
  390MOL0     C52554   1.334   3.543   2.835 -0.1077 -0.3747  0.8253
  390MOL0     C52555   1.205   3.519   2.929  0.1410 -0.0398  0.3301
  390MOL0     C52556   1.090   3.474   2.841  0.4245 -0.0407 -0.4944
  390MOL0     C52557   1.096   3.342   2.759 -0.2604  0.5594 -0.2191
  390MOL0     C52558   0.964   3.297   2.693 -0.6730  0.1777 -0.1217
  390MOL0     C52559   0.987   3.217   2.565  0.2105  0.1569  0.0185
  390MOL0    Cl52560   1.027   3.311   2.418  0.4112  0.1787  0.3413
  390MOL0     C52561   1.903   3.389   2.759 -0.8043  0.1626 -0.3670
  390MOL0     C52562   2.043   3.427   2.740  0.6191  0.0751 -0.4173
  390MOL0     O52563   2.126   3.747   2.588  0.9314 -0.0533  0.2124
  390MOL0     C52564   2.461   3.619   2.601 -0.5113 -0.1439  0.9766
  390MOL0     C52565   2.589   3.629   2.543  0.4992 -0.7305 -0.2774
  390MOL0     N52566   3.398   3.750   2.241  0.5519 -0.2902  0.3687
  390MOL0     N52567   3.445   3.787   2.127 -0.4154  0.3646 -0.4818
  390MOL0     C52568   4.199   3.504   1.350  0.8987  0.2728  0.7816
  390MOL0     C52569   4.319   3.505   1.283 -0.3002 -0.6399 -0.0083
  390MOL0     C52570   4.565   3.524   0.901 -0.5184  0.8117 -0.1944
  390MOL0     C52571   4.561   3.529   0.761 -0.6395  0.7398  0.8502
  390MOL0     C52572   4.687   3.522   0.688  0.8846  0.0393  0.1108
  390MOL0     C52573   4.808   3.518   0.745 -1.0076 -1.2548  0.8297
  390MOL0     O52574   4.928   3.518   0.686  0.5861  0.0945  0.0506
  390MOL0     C52575   4.926   3.491   0.545  0.1239  0.2694 -0.2416
  390MOL0     C52576   5.056   3.522   0.474  0.1335 -0.1350 -0.5757
  390MOL0     C52577   5.178   3.444   0.533 -0.8060  0.1667  0.5640
  390MOL0     C52578   5.315   3.470   0.472 -0.2205 -0.1203  0.4593
  390MOL0     C52579   5.370   3.592   0.523 -1.1336  1.0827  0.3266
  390MOL0     C52580   5.423   3.695   0.550 -0.2951  0.2595 -0.7306
  390MOL0     C52581   4.807   3.521   0.891  0.4106 -0.5172  0.7450
  390MOL0     C52582   4.695   3.520   0.968 -0.2982  0.4595 -0.9321
  390MOL0     H52583   4.272   3.774   1.099 -4.2237  0.4196 -0.3854
  390MOL0     H52584   4.046   3.769   1.230 -0.1873 -1.3247  0.0818
  390MOL0     H52585   3.990   3.426   1.464  2.7766  0.9677 -0.2218
  390MOL0     H52586   3.977   3.545   1.594  1.1345 -3.5805  0.4017
  390MOL0     H52587   3.745   3.468   1.429  0.7771  1.8793 -1.0427
  390MOL0     H52588   3.769   3.458   1.607 -0.4115  1.3435  0.7444
  390MOL0     H52589   3.783   3.698   1.596  0.9993 -1.7508 -0.8796
  390MOL0     H52590   3.699   3.695   1.438 -2.3188 -1.0562 -0.0812
  390MOL0     H52591   3.511   3.560   1.562 -2.2702  1.9763 -2.2983
  390MOL0     H52592   3.599   3.589   1.707 -2.3816  0.2832 -0.4519
  390MOL0     H52593   3.549   3.837   1.694 -1.6720 -0.4328  0.8292
  390MOL0     H52594   3.509   3.815   1.519  2.8615  2.1035  1.2346
  390MOL0     H52595   3.303   3.833   1.653  0.2122 -0.2526 -3.1473
  390MOL0     H52596   3.322   3.659   1.619 -0.4700  2.6479 -2.5835
  390MOL0     H52597   3.273   3.669   1.856 -0.4157 -0.5811  0.1795
  390MOL0     H52598   3.455   3.673   1.864  0.5174  1.1265 -1.2733
  390MOL0     H52599   3.266   3.928   1.864  1.8451  3.4664  1.0844
  390MOL0     H52600   3.436   3.922   1.882  0.3672 -1.3608 -1.8234
  390MOL0     H52601   3.123   3.859   2.096  0.6111  0.7937 -0.8065
  390MOL0     H52602   3.213   3.749   2.451 -3.0594 -1.1619  0.7483
  390MOL0     H52603   3.146   3.897   2.384  2.3306  0.1517 -1.9810
  390MOL0     H52604   2.990   3.670   2.419 -1.0310  2.2899  1.9147
  390MOL0     H52605   3.060   3.650   2.252  0.9825  0.0203 -0.4379
  390MOL0     H52606   2.894   3.795   2.179  1.8490 -0.4387 -0.2375
  390MOL0     H52607   2.964   3.921   2.266 -0.7528  0.1189  1.0079
  390MOL0     H52608   2.743   3.930   2.341 -2.8142 -1.8293  1.8176
  390MOL0     H52609   2.833   3.890   2.490 -0.9098 -2.0706  1.0367
  390MOL0     H52610   2.548   3.932   2.394  3.5894  1.5961  3.5220
  390MOL0     H52611   2.240   3.969   2.529  2.1685  0.6911 -0.0932
  390MOL0     H52612   2.353   4.030   2.412  0.8280 -0.1477 -0.8791
  390MOL0     H52613   2.239   3.909   2.360 -0.1566  1.6199 -0.4503
  390MOL0     H52614   2.029   3.735   2.883  1.8736 -0.7193  0.4935
  390MOL0     H52615   1.794   3.658   2.930 -1.3658  0.8600 -1.3849
  390MOL0     H52616   1.570   3.557   2.970  0.7410 -1.5624  1.1317
  390MOL0     H52617   1.571   3.594   2.790  3.0108 -0.7510 -0.6830
  390MOL0     H52618   1.447   3.363   2.788 -2.7169 -0.6899  0.6414
  390MOL0     H52619   1.429   3.389   2.957 -3.4591 -0.3227 -1.3855
  390MOL0     H52620   1.300   3.550   2.731 -2.9545  1.5204  1.7871
  390MOL0     H52621   1.359   3.645   2.863 -1.7851  0.6509 -1.1206
  390MOL0     H52622   1.214   3.436   3.000 -3.5403 -0.3325  0.6276
  390MOL0     H52623   1.171   3.608   2.983 -2.3495 -0.0578 -1.0671
  390MOL0     H52624   1.059   3.551   2.770 -4.1486  0.5529  1.8196
  390MOL0     H52625   1.010   3.475   2.915 -1.0977 -2.7472 -1.9652
  390MOL0     H52626   1.168   3.364   2.679  1.1554 -0.3009  0.7731
  390MOL0     H52627   1.131   3.263   2.826  0.2657  3.2579  2.9891
  390MOL0     H52628   0.903   3.383   2.664 -3.6733 -2.1121 -1.1223
  390MOL0     H52629   0.909   3.234   2.764 -2.2128  0.3154 -1.1560
  390MOL0     H52630   0.898   3.167   2.526 -0.1124  0.7567 -0.0221
  390MOL0     H52631   1.074   3.151   2.574  2.0009  2.6700  4.0375
  390MOL0     H52632   1.881   3.287   2.732  2.0183 -0.2890 -1.2793
  390MOL0     H52633   2.104   3.352   2.690 -0.1619 -1.1975  0.4878
  390MOL0     H52634   2.441   3.529   2.659  1.0545 -1.1688 -0.0197
  390MOL0     H52635   2.677   3.566   2.555  2.8479  2.2370 -0.9703
  390MOL0     H52636   4.182   3.419   1.416 -0.2931 -0.4459 -0.4182
  390MOL0     H52637   4.391   3.426   1.302  1.4767  1.1551  1.1448
  390MOL0     H52638   4.470   3.521   0.702 -1.1277  0.7478  1.5772
  390MOL0     H52639   4.683   3.495   0.583 -0.4057 -1.2569  0.4668
  390MOL0     H52640   4.892   3.392   0.514 -2.0515  1.4023 -1.7428
  390MOL0     H52641   4.852   3.559   0.501  0.4479  1.4324  0.9409
  390MOL0     H52642   5.061   3.631   0.486 -0.2652  0.2566 -3.2372
  390MOL0     H52643   5.045   3.508   0.366  1.9997 -1.2332 -0.6611
  390MOL0     H52644   5.159   3.337   0.517 -2.5925  0.6668 -1.0552
  390MOL0     H52645   5.175   3.453   0.641 -4.3522 -2.7850  0.9388
  390MOL0     H52646   5.292   3.482   0.366  2.0082  0.4656 -0.0112
  390MOL0     H52647   5.394   3.395   0.471  1.8499  1.9466  1.2333
  390MOL0     H52648   5.459   3.789   0.585 -0.2042 -0.4863  1.3059
  390MOL0     H52649   4.902   3.520   0.944  1.0966 -0.2959 -0.4302
  390MOL0     H52650   4.696   3.515   1.076  3.1763  0.2820 -0.8850
  391MOL0     O52651   9.024   8.322   0.436  0.2385  0.1846 -0.1070
  391MOL0     C52652   9.118   8.339   0.519 -0.9800  0.3759  0.3552
  391MOL0     O52653   9.103   8.407   0.640  0.1170  0.7247 -0.0932
  391MOL0     C52654   8.979   8.437   0.673 -0.6749  0.2047 -0.2538
  391MOL0     C52655   8.944   8.573   0.665  0.2675  1.2589  0.8953
  391MOL0     C52656   8.818   8.617   0.701  0.3565 -0.4634 -0.1884
  391MOL0     C52657   8.725   8.519   0.741  0.0335  0.5566 -0.4990
  391MOL0     O52658   8.602   8.571   0.783  0.2443 -0.3214 -0.0726
  391MOL0     C52659   8.494   8.493   0.738  0.4677  0.1033  0.4659
  391MOL0     C52660   8.391   8.534   0.837  0.1284 -0.4361  0.1381
  391MOL0     C52661   8.254   8.478   0.795 -0.0331 -0.0460  0.2796
  391MOL0     C52662   8.159   8.484   0.916 -0.8759  0.2853  0.0911
  391MOL0     C52663   8.150   8.336   0.976  0.9601 -0.0767 -0.9733
  391MOL0     C52664   8.022   8.329   1.073 -0.0813 -0.2267  1.0040
  391MOL0     C52665   7.993   8.180   1.112 -0.0784  0.3436 -0.6163
  391MOL0     C52666   7.868   8.165   1.194  0.6010  0.9296  0.0873
  391MOL0     N52667   7.818   8.029   1.180 -0.0622 -0.1415  1.0173
  391MOL0     C52668   7.717   7.998   1.089 -0.6851  0.0050  1.6483
  391MOL0     C52669   7.710   7.866   1.085  1.0655  0.4502 -0.7142
  391MOL0     C52670   7.612   7.780   0.997  0.3157 -0.9717 -0.5430
  391MOL0     C52671   7.650   7.779   0.847 -0.1344 -0.2108  0.4265
  391MOL0     C52672   7.777   7.684   0.827  0.1392 -0.5205  0.7454
  391MOL0     C52673   7.908   7.755   0.864  0.5833 -0.0227  0.1362
  391MOL0     O52674   8.013   7.719   0.770  0.6733 -0.5012 -0.0778
  391MOL0     C52675   8.134   7.773   0.763 -0.8382 -0.1981 -0.2942
  391MOL0     C52676   8.167   7.893   0.824 -0.8018 -0.8902  0.4506
  391MOL0     C52677   8.295   7.942   0.804 -0.1804  0.6394  0.1091
  391MOL0     C52678   8.330   8.055   0.894  0.0728  0.7001 -0.3035
  391MOL0     C52679   8.389   7.878   0.719  0.6257 -0.6452  0.0661
  391MOL0     C52680   8.530   7.919   0.704 -1.9561 -0.7863 -0.5308
  391MOL0     O52681   8.619   7.814   0.669 -0.4475  0.2242  0.2694
  391MOL0     C52682   8.750   7.849   0.658  0.4046  0.3976  0.1855
  391MOL0     C52683   8.831   7.858   0.778 -0.1035 -0.2441  0.7387
  391MOL0     C52684   8.953   7.912   0.762  0.0051 -0.0774 -0.2802
  391MOL0     C52685   8.997   7.971   0.642 -0.7530 -0.2113  0.0370
  391MOL0     O52686   9.118   8.034   0.633  0.7232 -0.3603 -0.2239
  391MOL0     C52687   9.233   7.956   0.668 -0.3439  0.1528 -0.1557
  391MOL0     C52688   9.248   7.828   0.591  0.5813  0.3669  0.4387
  391MOL0     C52689   9.243   7.849   0.444  0.5870  0.2657  0.5584
  391MOL0     C52690   9.376   7.862   0.375  0.8829 -0.0105 -0.0134
  391MOL0     C52691   9.369   7.887   0.221  0.5584 -0.1241  0.7133
  391MOL0     C52692   9.506   7.894   0.166  0.2583  0.6539 -0.1919
  391MOL0     C52693   9.512   7.914   0.021 -0.7780 -0.6954  0.1231
  391MOL0     C52694   9.661   7.905  -0.019 -0.2159  0.0281  0.9566
  391MOL0    Cl52695   9.759   8.035   0.070  0.7781 -0.4491 -0.0966
  391MOL0     C52696   8.924   7.954   0.527  0.3456 -0.7801  0.3828
  391MOL0     C52697   8.798   7.896   0.536 -0.3390 -1.1207  0.2676
  391MOL0     O52698   8.563   8.036   0.721  0.2663  0.6704 -0.6454
  391MOL0     C52699   8.350   7.756   0.655 -0.8248 -0.5981  0.1280
  391MOL0     C52700   8.222   7.708   0.676  1.1311 -0.4072 -0.4555
  391MOL0     N52701   7.803   7.823   1.175 -0.2913  0.8103 -0.2302
  391MOL0     N52702   7.865   7.918   1.237 -0.2900 -0.2315  0.1755
  391MOL0     C52703   8.761   8.381   0.756  0.7231  0.2078 -0.1126
  391MOL0     C52704   8.890   8.341   0.729  1.0801  0.1379  0.3820
  391MOL0     C52705   9.260   8.298   0.489  0.7295 -0.2034  0.1119
  391MOL0     C52706   9.297   8.262   0.361  0.0145 -0.0839  0.7099
  391MOL0     C52707   9.432   8.258   0.320 -0.2489 -0.0600  0.5991
  391MOL0     C52708   9.534   8.255   0.409  0.0671 -0.3949  0.3970
  391MOL0     O52709   9.664   8.249   0.369 -0.6290  0.3892  0.2294
  391MOL0     C52710   9.724   8.380   0.372  1.0335  0.3822  0.4896
  391MOL0     C52711   9.861   8.380   0.326 -0.4329  0.2253 -0.1160
  391MOL0     C52712   9.892   8.361   0.175  0.8498 -0.4644  0.9065
  391MOL0     C52713  10.023   8.416   0.133 -0.4768  0.3860 -0.1505
  391MOL0     C52714  10.137   8.351   0.202 -0.5608 -0.9095  0.1092
  391MOL0     C52715  10.238   8.309   0.256 -0.2213  0.0167  0.0146
  391MOL0     C52716   9.504   8.285   0.540 -0.7147  0.7633  0.4236
  391MOL0     C52717   9.367   8.310   0.580 -0.2290  0.4975 -0.3391
  391MOL0     H52718   9.024   8.630   0.618  2.7069 -1.5443  1.3471
  391MOL0     H52719   8.785   8.717   0.673 -0.2526 -0.8509 -0.8890
  391MOL0     H52720   8.464   8.512   0.635  2.6053  0.3536 -0.1551
  391MOL0     H52721   8.509   8.385   0.753 -1.1292  0.0544  2.1418
  391MOL0     H52722   8.423   8.497   0.934  1.4941 -0.6462 -0.3656
  391MOL0     H52723   8.380   8.643   0.832  0.5098 -0.3790  0.5596
  391MOL0     H52724   8.214   8.533   0.710 -1.3648 -0.9757  0.2726
  391MOL0     H52725   8.269   8.374   0.762  0.9014 -0.3126  1.4418
  391MOL0     H52726   8.196   8.552   0.994 -2.5812 -1.8777  3.0045
  391MOL0     H52727   8.061   8.516   0.880 -0.9353 -0.6582 -0.6261
  391MOL0     H52728   8.142   8.261   0.896 -0.4287 -0.2334 -0.7129
  391MOL0     H52729   8.240   8.323   1.036  1.6402  0.2713 -1.8817
  391MOL0     H52730   8.027   8.401   1.155  1.8936  1.3955 -0.4557
  391MOL0     H52731   7.932   8.363   1.022 -1.2458  2.0902  4.2574
  391MOL0     H52732   7.970   8.119   1.024 -0.6715  0.9302 -0.8682
  391MOL0     H52733   8.077   8.129   1.162  0.0759 -0.5164 -1.7231
  391MOL0     H52734   7.787   8.234   1.167  1.3499  1.6106 -0.4245
  391MOL0     H52735   7.901   8.189   1.296 -1.5064  5.4105 -0.0315
  391MOL0     H52736   7.658   8.070   1.034  0.9484  0.9681  1.0667
  391MOL0     H52737   7.615   7.679   1.038 -0.9470 -1.6736 -2.0588
  391MOL0     H52738   7.508   7.810   1.014  0.3141 -2.3148  2.2677
  391MOL0     H52739   7.675   7.884   0.827 -0.9743  0.5617  3.0022
  391MOL0     H52740   7.567   7.758   0.779 -0.7201 -0.5133  1.2218
  391MOL0     H52741   7.768   7.657   0.722  0.3191 -0.8594  0.8181
  391MOL0     H52742   7.768   7.591   0.884 -1.8453 -1.7866 -1.4593
  391MOL0     H52743   7.928   7.731   0.969 -2.1905  0.0513  0.7754
  391MOL0     H52744   7.895   7.863   0.879  0.6783 -0.0408  0.3605
  391MOL0     H52745   8.088   7.942   0.878  1.0872  2.2448  0.6043
  391MOL0     H52746   8.360   8.149   0.846  0.1541  1.2956  0.8744
  391MOL0     H52747   8.247   8.074   0.962 -3.6187 -2.7567 -3.3169
  391MOL0     H52748   8.415   8.023   0.955 -0.8060 -0.5601  0.3079
  391MOL0     H52749   8.799   7.831   0.878 -0.4403  1.3001  1.0776
  391MOL0     H52750   9.010   7.929   0.852  0.2755  1.0505 -0.6581
  391MOL0     H52751   9.312   8.030   0.653 -1.0952  1.5147  2.0920
  391MOL0     H52752   9.224   7.935   0.775 -1.9898  2.9963  0.3545
  391MOL0     H52753   9.339   7.772   0.613  0.1678 -0.9207 -0.9839
  391MOL0     H52754   9.176   7.751   0.617  1.2493  0.7764  4.0132
  391MOL0     H52755   9.189   7.942   0.422 -0.5282 -0.9384 -2.2106
  391MOL0     H52756   9.178   7.777   0.395  2.6292 -0.5251 -1.1676
  391MOL0     H52757   9.433   7.948   0.411 -0.2658  0.9351 -0.3883
  391MOL0     H52758   9.416   7.762   0.392 -2.3561 -2.0674 -3.0227
  391MOL0     H52759   9.329   7.988   0.206  0.6816  0.0036  1.2391
  391MOL0     H52760   9.305   7.816   0.168  0.8968  1.0778 -1.4579
  391MOL0     H52761   9.557   7.975   0.220  0.6470 -0.9613  2.0410
  391MOL0     H52762   9.561   7.805   0.199  0.8321  1.2263  0.4242
  391MOL0     H52763   9.471   8.015   0.011  1.0158  0.3422  2.4107
  391MOL0     H52764   9.457   7.837  -0.035 -2.1911  0.1451  0.2930
  391MOL0     H52765   9.667   7.911  -0.128 -2.3373 -3.7598  0.4370
  391MOL0     H52766   9.697   7.803  -0.002  0.4152  0.0668 -0.0709
  391MOL0     H52767   8.962   7.984   0.430  2.5595  1.3145  1.7825
  391MOL0     H52768   8.732   7.904   0.450 -0.4480 -0.2107  0.4366
  391MOL0     H52769   8.427   7.712   0.592 -0.3638 -2.4177  1.8564
  391MOL0     H52770   8.190   7.612   0.636 -2.6427  1.4311 -2.3553
  391MOL0     H52771   8.696   8.301   0.787  0.3510  1.3809  2.4083
  391MOL0     H52772   8.921   8.237   0.733  0.7169 -0.2452 -3.5116
  391MOL0     H52773   9.227   8.257   0.279  2.0092  0.1541 -1.0798
  391MOL0     H52774   9.452   8.240   0.214  2.1665 -0.6864  1.0841
  391MOL0     H52775   9.655   8.448   0.321 -0.0894  0.9776  2.6924
  391MOL0     H52776   9.727   8.412   0.476  1.7892  1.9342  0.0163
  391MOL0     H52777   9.916   8.302   0.379 -0.8690 -0.1657 -0.2262
  391MOL0     H52778   9.908   8.477   0.344  0.0308  0.8894 -4.0759
  391MOL0     H52779   9.819   8.400   0.104  0.9676 -3.0676 -0.8088
  391MOL0     H52780   9.881   8.253   0.165  1.7846 -0.3741 -2.0576
  391MOL0     H52781  10.026   8.524   0.146  1.9995  0.2750  0.6862
  391MOL0     H52782  10.045   8.403   0.027 -1.1003  1.0155 -0.3623
  391MOL0     H52783  10.335   8.270   0.275 -0.1042  0.7117  0.9139
  391MOL0     H52784   9.583   8.274   0.613 -0.5056 -0.9848 -0.0137
  391MOL0     H52785   9.348   8.338   0.683  0.5437  1.4615 -0.4404
  392MOL0     O52786   4.545   4.626  10.346  0.2943 -1.1371  0.6572
  392MOL0     C52787   4.513   4.712  10.430  0.1302 -0.0304 -0.0773
  392MOL0     O52788   4.404   4.793  10.426  0.4590  0.3168 -0.0689
  392MOL0     C52789   4.322   4.792  10.316 -1.8950 -0.6661  0.3559
  392MOL0     C52790   4.274   4.915  10.273 -0.3848 -0.7478 -0.1245
  392MOL0     C52791   4.199   4.929  10.158  1.0434  0.1004 -0.7390
  392MOL0     C52792   4.162   4.809  10.087  0.3576 -0.0983 -0.5226
  392MOL0     O52793   4.087   4.826   9.974 -0.1000  0.1949 -0.2762
  392MOL0     C52794   3.949   4.794   9.986 -0.1037 -0.7782 -0.2128
  392MOL0     C52795   3.916   4.721   9.855 -0.0651  0.2316  1.0083
  392MOL0     C52796   3.769   4.683   9.868 -0.7464 -0.3615 -0.1648
  392MOL0     C52797   3.671   4.791   9.821  0.1219 -0.4996  1.0061
  392MOL0     C52798   3.523   4.755   9.847  0.4858 -0.4657  0.3904
  392MOL0     C52799   3.477   4.651   9.752  0.6447  0.7234 -0.0641
  392MOL0     C52800   3.322   4.647   9.739 -1.5088 -0.1441 -0.1382
  392MOL0     C52801   3.277   4.745   9.636 -0.8000  0.3652 -0.2719
  392MOL0     N52802   3.138   4.745   9.609  0.2689  1.0491 -0.0845
  392MOL0     C52803   3.066   4.827   9.526  0.1837 -0.4231 -0.6658
  392MOL0     C52804   2.937   4.789   9.535  0.4092 -0.2669  0.3382
  392MOL0     C52805   2.812   4.856   9.484  0.7044 -0.7669 -0.3681
  392MOL0     C52806   2.768   4.974   9.575  0.7136  0.8054 -0.4934
  392MOL0     C52807   2.779   4.939   9.725 -0.3238  0.4923 -0.2023
  392MOL0     C52808   2.733   5.050   9.813  0.2806  0.2509 -0.1658
  392MOL0     O52809   2.796   5.174   9.783  0.2395 -1.4189  0.0248
  392MOL0     C52810   2.929   5.177   9.826  0.5499 -0.1783 -0.1491
  392MOL0     C52811   3.022   5.208   9.727  0.1087  0.6464 -0.0048
  392MOL0     C52812   3.159   5.185   9.748 -0.9477  0.2120 -0.2083
  392MOL0     C52813   3.247   5.215   9.634  0.0471  0.1399  0.5164
  392MOL0     C52814   3.205   5.130   9.868  0.6207  0.3768  0.0296
  392MOL0     C52815   3.338   5.089   9.901 -0.0333  0.4903  0.5576
  392MOL0     O52816   3.356   5.014  10.020 -0.6021 -0.7568 -0.0846
  392MOL0     C52817   3.481   4.999  10.078  0.7639  0.4471  0.0336
  392MOL0     C52818   3.464   4.919  10.194  0.5080  1.1153 -0.5760
  392MOL0     C52819   3.569   4.903  10.289  0.4771 -0.5188  0.1883
  392MOL0     C52820   3.690   4.954  10.261  0.0777  0.0633 -0.9820
  392MOL0     O52821   3.778   4.941  10.362  0.0269 -0.0047 -0.0443
  392MOL0     C52822   3.904   4.876  10.326  0.4527  0.3155 -0.2991
  392MOL0     C52823   3.910   4.729  10.372  0.1709 -0.7472  0.6434
  392MOL0     C52824   3.894   4.721  10.524  0.3867  0.4543  0.0898
  392MOL0     C52825   4.009   4.662  10.607  0.1144  0.0060 -0.7298
  392MOL0     C52826   4.044   4.515  10.586  0.4603  0.3404  0.5672
  392MOL0     C52827   4.178   4.487  10.653  0.5332  0.5536  0.4616
  392MOL0     C52828   4.170   4.494  10.805 -0.2751 -0.6748  1.2282
  392MOL0     C52829   4.317   4.486  10.854 -0.4558  0.6042 -0.5481
  392MOL0    Cl52830   4.316   4.503  11.026 -0.0156  0.0341 -0.2979
  392MOL0     C52831   3.708   5.041  10.152 -0.0267 -0.7973 -0.6587
  392MOL0     C52832   3.608   5.067  10.062 -0.6308 -0.3402 -1.0401
  392MOL0     O52833   3.433   5.126   9.833  0.3733  0.0341  0.0445
  392MOL0     C52834   3.106   5.103   9.966  0.9395 -0.0080 -0.3021
  392MOL0     C52835   2.968   5.128   9.946 -1.4137 -0.2737 -0.1827
  392MOL0     N52836   2.933   4.684   9.630 -0.3399 -1.0340 -0.1792
  392MOL0     N52837   3.051   4.651   9.667 -0.0910 -0.6439 -0.3511
  392MOL0     C52838   4.196   4.684  10.134 -0.7797  0.7663 -0.2571
  392MOL0     C52839   4.276   4.679  10.254  0.4554  0.2535  0.7046
  392MOL0     C52840   4.585   4.719  10.554  0.2462  0.2160  0.0282
  392MOL0     C52841   4.715   4.670  10.563 -0.2523 -0.2709 -0.1298
  392MOL0     C52842   4.790   4.681  10.687  0.6127 -0.1729  0.1724
  392MOL0     C52843   4.720   4.726  10.806  0.3936 -0.4385 -0.0243
  392MOL0     O52844   4.795   4.723  10.918 -1.2782 -0.3330 -0.5946
  392MOL0     C52845   4.743   4.788  11.034  0.0806 -0.2174 -0.6349
  392MOL0     C52846   4.841   4.758  11.149  0.2669 -0.0760  0.8549
  392MOL0     C52847   4.807   4.829  11.279 -0.0670  0.3164 -0.3726
  392MOL0     C52848   4.909   4.799  11.381  0.1874 -0.7921  0.1420
  392MOL0     C52849   4.895   4.654  11.418  0.7261  0.0503 -0.1756
  392MOL0     C52850   4.886   4.539  11.446 -1.2624 -0.6023 -0.3254
  392MOL0     C52851   4.587   4.772  10.787  0.3777  0.2909 -0.6428
  392MOL0     C52852   4.524   4.770  10.665 -0.7685 -0.7778 -0.2320
  392MOL0     H52853   4.306   5.001  10.331  0.9337  0.4769 -2.5017
  392MOL0     H52854   4.179   5.027  10.116  0.5234  1.1978  1.8375
  392MOL0     H52855   3.923   4.736  10.075 -0.7968 -0.3956 -0.1634
  392MOL0     H52856   3.881   4.879   9.989 -0.1224 -0.7614 -1.0811
  392MOL0     H52857   3.938   4.783   9.768 -0.6258  1.3310  1.6234
  392MOL0     H52858   3.981   4.635   9.840 -0.3158  0.2439 -0.2338
  392MOL0     H52859   3.766   4.596   9.803  2.7379  0.3328 -1.4747
  392MOL0     H52860   3.745   4.650   9.969 -1.9747 -0.6514 -0.5298
  392MOL0     H52861   3.690   4.882   9.878 -2.4895 -1.5064  3.7045
  392MOL0     H52862   3.686   4.805   9.713  0.1474  0.0997  1.0850
  392MOL0     H52863   3.517   4.721   9.951 -0.7173  0.0266  0.4885
  392MOL0     H52864   3.452   4.836   9.830 -1.5520 -2.5299 -1.8449
  392MOL0     H52865   3.526   4.659   9.654  2.2371  2.1907  0.8147
  392MOL0     H52866   3.507   4.553   9.791 -0.2273 -1.1443 -3.6127
  392MOL0     H52867   3.300   4.545   9.705  1.3711 -0.8015 -0.3011
  392MOL0     H52868   3.276   4.669   9.836  0.9537  0.0125  1.0591
  392MOL0     H52869   3.325   4.726   9.539 -0.7292  0.0568 -0.1771
  392MOL0     H52870   3.299   4.849   9.662 -1.8123  1.1637 -2.3574
  392MOL0     H52871   3.103   4.909   9.466  0.3472 -0.2615 -0.3451
  392MOL0     H52872   2.829   4.895   9.383 -0.4827  3.1692  0.7515
  392MOL0     H52873   2.735   4.779   9.469  0.8561 -0.9588 -0.1586
  392MOL0     H52874   2.672   5.016   9.545  0.5018  2.0365  1.7262
  392MOL0     H52875   2.846   5.049   9.557 -0.1366  1.8083 -0.1360
  392MOL0     H52876   2.882   4.919   9.757 -0.7224  1.0345  1.4860
  392MOL0     H52877   2.723   4.846   9.739  1.4107 -0.3929  1.2341
  392MOL0     H52878   2.739   5.029   9.920 -1.4304 -3.2724 -0.6124
  392MOL0     H52879   2.629   5.052   9.779  0.1252 -0.9859  0.1824
  392MOL0     H52880   2.979   5.242   9.633  1.6921  2.4484 -0.1267
  392MOL0     H52881   3.266   5.122   9.579  0.0144 -0.2585  1.1652
  392MOL0     H52882   3.191   5.276   9.563  0.1698 -2.6151 -2.1546
  392MOL0     H52883   3.342   5.262   9.658  2.4267 -3.7985 -0.3147
  392MOL0     H52884   3.371   4.868  10.218  2.8947 -2.8920  1.2810
  392MOL0     H52885   3.569   4.850  10.384 -0.2336 -1.5868 -0.3961
  392MOL0     H52886   3.920   4.901  10.221  1.6478 -1.8126 -0.6878
  392MOL0     H52887   3.989   4.923  10.378 -2.0520  3.3021  1.4290
  392MOL0     H52888   3.841   4.666  10.316 -0.7162  1.4101 -0.8258
  392MOL0     H52889   4.010   4.690  10.352 -0.6775 -1.8834 -1.8152
  392MOL0     H52890   3.808   4.655  10.540  0.4650  0.0419 -1.1086
  392MOL0     H52891   3.868   4.816  10.572  0.9607 -0.0245  1.4155
  392MOL0     H52892   4.098   4.719  10.579  1.2689 -1.1216  0.5200
  392MOL0     H52893   3.989   4.691  10.711  2.0225 -1.8261  0.2195
  392MOL0     H52894   4.060   4.500  10.479 -1.0404  2.4400 -0.0297
  392MOL0     H52895   3.968   4.441  10.612  1.0744 -0.6588 -0.3948
  392MOL0     H52896   4.206   4.383  10.634  1.5614  0.4728  2.2438
  392MOL0     H52897   4.263   4.548  10.622  0.7132  0.1161  0.0863
  392MOL0     H52898   4.112   4.411  10.847 -0.5436 -0.4581  1.2908
  392MOL0     H52899   4.122   4.585  10.842  0.8444  0.7355 -0.5910
  392MOL0     H52900   4.395   4.548  10.808 -0.6040  0.9971 -0.2700
  392MOL0     H52901   4.335   4.379  10.839  0.4268  0.7555 -0.6345
  392MOL0     H52902   3.802   5.093  10.137 -2.0190  3.1386 -0.7547
  392MOL0     H52903   3.619   5.150   9.993 -1.1084  0.3083 -0.3550
  392MOL0     H52904   3.141   5.074  10.065 -0.8495  2.5895  1.1970
  392MOL0     H52905   2.913   5.098  10.034 -0.8160 -2.5015 -0.5143
  392MOL0     H52906   4.177   4.608  10.059  2.3589  0.3950 -0.8006
  392MOL0     H52907   4.311   4.582  10.287  1.9228  0.1317 -1.0243
  392MOL0     H52908   4.765   4.628  10.476  0.5932  2.3344 -0.9991
  392MOL0     H52909   4.893   4.649  10.701 -0.0619 -2.1500  0.9783
  392MOL0     H52910   4.742   4.893  11.003 -3.6466  0.3935  1.0409
  392MOL0     H52911   4.652   4.742  11.076  1.4325 -1.9301  0.6078
  392MOL0     H52912   4.940   4.789  11.115 -0.5020  2.4137  0.6574
  392MOL0     H52913   4.837   4.649  11.161 -2.5717 -0.2210 -0.4022
  392MOL0     H52914   4.713   4.798  11.325  0.6038  1.5777  1.9672
  392MOL0     H52915   4.808   4.937  11.263 -0.6575  0.3991  0.1063
  392MOL0     H52916   4.890   4.859  11.471 -1.3125 -0.8324 -0.1168
  392MOL0     H52917   5.006   4.825  11.339 -0.7545  0.5666 -1.3084
  392MOL0     H52918   4.887   4.435  11.470  1.1956 -0.6901 -0.5755
  392MOL0     H52919   4.530   4.798  10.876 -0.5305 -0.1227 -1.0945
  392MOL0     H52920   4.422   4.804  10.651 -0.5246 -0.1713 -0.5600
  393MOL0     O52921  10.719  10.468  11.195  0.0622 -0.3610 -0.1566
  393MOL0     C52922  10.748  10.476  11.080 -0.2142 -0.4897  0.4200
  393MOL0     O52923  10.677  10.534  10.982 -0.2641  0.3658 -0.2396
  393MOL0     C52924  10.543  10.569  10.995  0.3533  1.1174  0.4386
  393MOL0     C52925  10.452  10.531  11.094  0.4293  0.3829 -0.1333
  393MOL0     C52926  10.314  10.562  11.088 -0.0386  0.0770 -0.1449
  393MOL0     C52927  10.264  10.646  10.984  0.1735  0.5763  1.0233
  393MOL0     O52928  10.130  10.681  10.958 -0.0979 -0.2069  0.3857
  393MOL0     C52929  10.041  10.625  11.052 -0.0504 -0.0225 -0.6002
  393MOL0     C52930   9.903  10.672  11.020  0.8486 -0.9695 -0.3530
  393MOL0     C52931   9.790  10.593  11.089  0.7812  0.3164 -0.9950
  393MOL0     C52932   9.798  10.586  11.235  0.6069  0.3770  0.0850
  393MOL0     C52933   9.672  10.510  11.304 -0.0771 -0.7140  0.7173
  393MOL0     C52934   9.706  10.476  11.450  0.3592  0.5539 -1.1423
  393MOL0     C52935   9.594  10.409  11.532  0.2598 -0.5431  0.3901
  393MOL0     C52936   9.500  10.519  11.573 -0.1885 -0.2162 -0.3845
  393MOL0     N52937   9.383  10.484  11.649 -0.4109  0.1083 -0.9278
  393MOL0     C52938   9.364  10.479  11.784  0.3573 -0.3361 -0.4495
  393MOL0     C52939   9.240  10.424  11.800  0.6469  1.0934 -0.2862
  393MOL0     C52940   9.161  10.394  11.926 -0.5454 -0.1737 -0.4212
  393MOL0     C52941   9.141  10.525  12.010 -0.6378  0.3895  0.7778
  393MOL0     C52942   9.037  10.507  12.120 -0.8974 -0.4062  0.2736
  393MOL0     C52943   9.085  10.412  12.229 -0.3241  0.3311 -1.5289
  393MOL0     O52944   8.987  10.421  12.341 -0.0898  1.1913  0.2892
  393MOL0     C52945   8.863  10.379  12.304  0.0581 -0.5932  0.0758
  393MOL0     C52946   8.760  10.476  12.296 -0.5338  0.3483 -0.2396
  393MOL0     C52947   8.627  10.440  12.281  0.4178  0.2910  0.2846
  393MOL0     C52948   8.528  10.551  12.270  0.3324 -1.0694 -0.4234
  393MOL0     C52949   8.593  10.301  12.274  1.3465  0.8035 -0.1711
  393MOL0     C52950   8.448  10.250  12.282 -0.0476  0.0441  1.1823
  393MOL0     O52951   8.347  10.325  12.341  0.2202  0.0276 -0.8519
  393MOL0     C52952   8.210  10.290  12.347 -0.0712  1.2295 -0.3621
  393MOL0     C52953   8.158  10.170  12.312  0.5985 -0.6170 -0.1545
  393MOL0     C52954   8.025  10.145  12.323 -0.1435 -0.8836 -0.0831
  393MOL0     C52955   7.933  10.241  12.373 -0.0258 -0.1033 -0.0616
  393MOL0     O52956   7.802  10.212  12.390  1.0825 -0.4857  0.0435
  393MOL0     C52957   7.751  10.085  12.354 -0.1416  0.5501 -0.9453
  393MOL0     C52958   7.603  10.092  12.371  0.2086  0.0121  0.7921
  393MOL0     C52959   7.541  10.201  12.279 -0.3421 -0.2226 -0.2272
  393MOL0     C52960   7.391  10.180  12.260 -0.0045  0.0751 -0.4780
  393MOL0     C52961   7.310  10.306  12.221 -0.0882  0.2377  0.8762
  393MOL0     C52962   7.155  10.293  12.212  0.4559  0.1483 -0.7058
  393MOL0     C52963   7.102  10.430  12.174 -0.1756 -0.3339 -0.0578
  393MOL0     C52964   6.947  10.429  12.159  0.2073 -0.0217  0.6481
  393MOL0    Cl52965   6.892  10.337  12.018  0.3931  0.6369  0.1442
  393MOL0     C52966   7.982  10.362  12.408  0.7079  0.3066  0.3432
  393MOL0     C52967   8.119  10.385  12.398  0.7645 -0.1895 -0.2047
  393MOL0     O52968   8.437  10.142  12.228 -0.6912  0.0273 -0.1889
  393MOL0     C52969   8.694  10.204  12.270 -0.7252 -0.4858 -0.3760
  393MOL0     C52970   8.826  10.243  12.294 -0.1636  0.6315 -0.1233
  393MOL0     N52971   9.191  10.380  11.675  0.1105 -0.4030 -0.3897
  393MOL0     N52972   9.274  10.432  11.587 -0.2594  0.7872 -0.4081
  393MOL0     C52973  10.351  10.678  10.880  0.2203  0.6587  0.0457
  393MOL0     C52974  10.487  10.637  10.881 -0.4473 -0.7491  0.6171
  393MOL0     C52975  10.880  10.427  11.034  0.2969 -0.3301 -0.1318
  393MOL0     C52976  10.988  10.405  11.125  0.4888 -0.3823 -0.5900
  393MOL0     C52977  11.111  10.361  11.072  0.4890  0.2195 -0.6241
  393MOL0     C52978  11.132  10.334  10.937 -0.6461 -0.2163  0.0138
  393MOL0     O52979  11.253  10.280  10.899 -0.6027  0.1620 -0.0476
  393MOL0     C52980  11.330  10.373  10.822  0.5558  0.9813  0.4142
  393MOL0     C52981  11.478  10.358  10.854 -0.1060  0.2711  0.1856
  393MOL0     C52982  11.523  10.438  10.986 -0.4405 -0.6415  0.1564
  393MOL0     C52983  11.674  10.413  11.011  0.2872 -0.5452  0.1533
  393MOL0     C52984  11.714  10.275  11.034 -0.8501 -0.3210  0.1239
  393MOL0     C52985  11.733  10.162  11.049  0.9164  0.1863  0.2309
  393MOL0     C52986  11.023  10.368  10.850 -0.7901  0.3358 -0.4751
  393MOL0     C52987  10.905  10.418  10.903  0.0624  0.6254 -0.2121
  393MOL0     H52988  10.492  10.487  11.184  0.0734  1.9781  0.8571
  393MOL0     H52989  10.245  10.529  11.165  1.5011 -4.3440 -0.3844
  393MOL0     H52990  10.044  10.516  11.054  1.1763 -0.0070  0.3381
  393MOL0     H52991  10.063  10.670  11.150 -0.8518  0.7396 -0.7604
  393MOL0     H52992   9.898  10.778  11.046  1.0672 -1.3357  1.2994
  393MOL0     H52993   9.881  10.677  10.913 -0.0425  1.4691 -0.1236
  393MOL0     H52994   9.692  10.632  11.061 -0.5003 -1.9913 -0.0117
  393MOL0     H52995   9.802  10.489  11.057  1.0121 -0.3220  1.0129
  393MOL0     H52996   9.883  10.524  11.264 -1.2448 -2.3071  0.1566
  393MOL0     H52997   9.805  10.689  11.272 -0.8989  1.0201 -1.2941
  393MOL0     H52998   9.594  10.583  11.283  1.6180  0.9390 -0.0551
  393MOL0     H52999   9.643  10.421  11.246 -1.1271  0.5790 -0.8496
  393MOL0     H53000   9.784  10.399  11.446  0.0270  0.0604  0.7411
  393MOL0     H53001   9.744  10.567  11.497  1.1972 -0.4340  0.1733
  393MOL0     H53002   9.530  10.337  11.480 -0.2631  1.3404 -1.7497
  393MOL0     H53003   9.635  10.358  11.620 -4.0613 -1.1946  2.2601
  393MOL0     H53004   9.474  10.571  11.480  1.5502  3.1238  0.7961
  393MOL0     H53005   9.560  10.591  11.629 -0.8901  0.7721 -0.8701
  393MOL0     H53006   9.422  10.526  11.863  1.6211 -1.7340 -0.4924
  393MOL0     H53007   9.067  10.346  11.898 -0.2737 -1.4245  0.6883
  393MOL0     H53008   9.221  10.327  11.988  2.1708  0.6147 -2.0482
  393MOL0     H53009   9.082  10.588  11.943  0.3248 -0.3945 -0.8792
  393MOL0     H53010   9.231  10.572  12.050 -1.1391  1.6343  0.4949
  393MOL0     H53011   8.950  10.459  12.075  0.0772 -2.3175  0.3297
  393MOL0     H53012   8.998  10.603  12.157 -0.4041 -0.3596  0.6890
  393MOL0     H53013   9.179  10.445  12.273 -1.1365  1.1249 -0.2861
  393MOL0     H53014   9.078  10.313  12.182  0.3918  1.7232 -4.8242
  393MOL0     H53015   8.788  10.580  12.295  0.1298  0.1873  0.5324
  393MOL0     H53016   8.455  10.518  12.195  0.5570 -2.4548 -0.0723
  393MOL0     H53017   8.470  10.587  12.355  0.1503 -0.1502 -0.9275
  393MOL0     H53018   8.576  10.640  12.228 -2.0537  0.2543 -0.5320
  393MOL0     H53019   8.216  10.094  12.260  1.0743 -1.0445  0.9670
  393MOL0     H53020   7.993  10.044  12.301 -3.4348  0.5370 -2.8056
  393MOL0     H53021   7.776  10.049  12.253  0.4614 -4.7102  0.7700
  393MOL0     H53022   7.779  10.011  12.429 -3.1283  0.3038  0.0876
  393MOL0     H53023   7.557   9.996  12.345 -0.9213  0.4627  1.0248
  393MOL0     H53024   7.572  10.109  12.475 -0.7705  1.3907  0.3113
  393MOL0     H53025   7.594  10.187  12.184  0.6449  1.0491  0.1067
  393MOL0     H53026   7.569  10.300  12.315 -0.3942 -0.4522  0.4512
  393MOL0     H53027   7.377  10.098  12.189  0.4165  2.3019 -3.3269
  393MOL0     H53028   7.345  10.154  12.355 -1.1315 -0.0453 -1.0323
  393MOL0     H53029   7.339  10.326  12.118 -1.2859 -3.1525 -0.2486
  393MOL0     H53030   7.336  10.390  12.287 -1.4754  0.2685  1.4162
  393MOL0     H53031   7.128  10.218  12.138  0.3708 -0.5491  0.0126
  393MOL0     H53032   7.119  10.267  12.312  0.4518 -1.1290 -1.0146
  393MOL0     H53033   7.142  10.460  12.077 -0.2573 -3.3614 -1.1213
  393MOL0     H53034   7.121  10.501  12.255 -2.8739  0.9552 -0.4390
  393MOL0     H53035   6.906  10.528  12.140 -3.6581 -1.4001  0.8913
  393MOL0     H53036   6.910  10.396  12.257  3.0980 -0.1587  1.7810
  393MOL0     H53037   7.926  10.442  12.453 -1.2371  0.6259 -2.4064
  393MOL0     H53038   8.155  10.483  12.426 -1.9279  1.0612 -0.7341
  393MOL0     H53039   8.680  10.098  12.288  1.4237 -0.8252 -0.4023
  393MOL0     H53040   8.897  10.162  12.310 -1.0356 -0.0667  0.3471
  393MOL0     H53041  10.310  10.719  10.789  1.9458  1.8479 -0.2455
  393MOL0     H53042  10.552  10.679  10.805 -0.7884  1.2748  1.3938
  393MOL0     H53043  10.982  10.424  11.232  3.2401 -1.5278 -0.1564
  393MOL0     H53044  11.188  10.348  11.148 -1.7943  0.6969  1.9110
  393MOL0     H53045  11.313  10.335  10.721  4.7333 -3.5614  1.0483
  393MOL0     H53046  11.298  10.477  10.833  0.6230  1.4824 -2.9921
  393MOL0     H53047  11.532  10.406  10.773 -1.5482  1.7951  0.0750
  393MOL0     H53048  11.509  10.253  10.852 -1.0584 -0.0050 -1.1500
  393MOL0     H53049  11.470  10.389  11.068  1.9923 -0.1517  2.1459
  393MOL0     H53050  11.495  10.544  10.982 -0.9896 -0.7554  0.9594
  393MOL0     H53051  11.700  10.477  11.096 -2.0394 -0.3645  0.8025
  393MOL0     H53052  11.715  10.450  10.917 -0.5774 -1.1633 -0.4859
  393MOL0     H53053  11.738  10.055  11.053 -1.8748 -0.0409 -0.0344
  393MOL0     H53054  11.036  10.363  10.742  2.9630 -0.8486 -0.1030
  393MOL0     H53055  10.847  10.460  10.822  3.8287  1.2258 -2.8341
  394MOL0     O53056   8.714   0.470  10.643  0.4153  0.5396 -0.9846
  394MOL0     C53057   8.785   0.377  10.594 -0.0224 -0.1909  0.6207
  394MOL0     O53058   8.865   0.285  10.659  0.1583 -0.2557  0.1918
  394MOL0     C53059   8.869   0.280  10.795  0.3393 -0.7827 -0.1122
  394MOL0     C53060   8.752   0.254  10.879  0.0979 -0.4303  0.0608
  394MOL0     C53061   8.747   0.241  11.019  0.1936 -0.5193 -0.6415
  394MOL0     C53062   8.868   0.251  11.087  0.1283 -0.0966  0.1313
  394MOL0     O53063   8.887   0.247  11.223 -0.8606 -0.2836 -0.0370
  394MOL0     C53064   8.794   0.318  11.303  0.2386 -0.4743  0.1828
  394MOL0     C53065   8.823   0.312  11.459  0.3349 -0.8967  0.8617
  394MOL0     C53066   8.708   0.336  11.550  0.4996  0.6298  0.6791
  394MOL0     C53067   8.653   0.474  11.551  0.5910  0.4357 -0.4951
  394MOL0     C53068   8.540   0.472  11.660 -0.0033 -0.0200 -0.0323
  394MOL0     C53069   8.433   0.585  11.649 -0.1991 -0.2182  0.8387
  394MOL0     C53070   8.331   0.570  11.772 -0.2662 -1.2857  1.0212
  394MOL0     C53071   8.207   0.653  11.732  0.1990 -0.4339 -1.0502
  394MOL0     N53072   8.109   0.651  11.846  0.4503  0.8013  0.2611
  394MOL0     C53073   8.016   0.557  11.867  0.7825  0.0113  0.1000
  394MOL0     C53074   7.939   0.608  11.965 -0.0704  0.4056 -0.6746
  394MOL0     C53075   7.829   0.533  12.042 -0.6901 -1.1820  0.7277
  394MOL0     C53076   7.699   0.556  11.968  1.3579 -0.0730 -0.2236
  394MOL0     C53077   7.588   0.528  12.071 -0.2365  0.7158 -0.3268
  394MOL0     C53078   7.464   0.465  12.002 -0.3928 -0.3946 -0.2678
  394MOL0     O53079   7.363   0.509  12.095  0.5228 -0.1853 -0.1148
  394MOL0     C53080   7.238   0.448  12.077 -0.2141 -0.0959 -0.1601
  394MOL0     C53081   7.135   0.484  12.172 -1.3934  0.7328  0.0889
  394MOL0     C53082   7.012   0.426  12.162  1.1275  0.5949 -0.6453
  394MOL0     C53083   6.914   0.469  12.263  1.2639  0.2979 -0.2099
  394MOL0     C53084   6.976   0.328  12.055 -0.2057 -0.0574 -0.3557
  394MOL0     C53085   6.835   0.281  12.036 -0.5700 -0.1535  1.3115
  394MOL0     O53086   6.805   0.233  11.910  0.2131  0.3635  0.6761
  394MOL0     C53087   6.674   0.239  11.865 -0.0497 -0.3893  0.3904
  394MOL0     C53088   6.590   0.349  11.889  0.8396 -0.3278 -1.0075
  394MOL0     C53089   6.458   0.336  11.859 -0.1379 -0.6219 -0.9310
  394MOL0     C53090   6.401   0.220  11.806 -0.2016  0.3982  0.0777
  394MOL0     O53091   6.274   0.207  11.769  0.3037 -0.0877  0.0410
  394MOL0     C53092   6.180   0.312  11.784  0.4393  0.1658 -0.6502
  394MOL0     C53093   6.062   0.279  11.687  1.0967  0.2052  0.1213
  394MOL0     C53094   5.968   0.170  11.732  0.1521  0.6350  0.5614
  394MOL0     C53095   5.870   0.142  11.613  0.1375 -0.4302 -0.2819
  394MOL0     C53096   5.753   0.053  11.652 -0.6911  0.3755  1.0406
  394MOL0     C53097   5.810  -0.099  11.663 -0.5128  0.4323  0.0411
  394MOL0     C53098   5.699  -0.208  11.669  0.2905 -0.2269 -0.7674
  394MOL0     C53099   5.736  -0.331  11.750  0.2166  0.4610 -1.0404
  394MOL0    Cl53100   5.841  -0.436  11.640  0.4246  0.1257 -0.1643
  394MOL0     C53101   6.482   0.111  11.792 -0.4919 -0.0257 -0.4076
  394MOL0     C53102   6.620   0.113  11.827 -0.1033 -0.1380 -0.0308
  394MOL0     O53103   6.762   0.277  12.129 -0.1233  1.0260  0.1555
  394MOL0     C53104   7.079   0.298  11.964  0.1071  0.5512  0.2633
  394MOL0     C53105   7.203   0.359  11.973 -0.4969  0.8104  0.2338
  394MOL0     N53106   7.990   0.729  11.995  1.3418 -0.3664 -0.1547
  394MOL0     N53107   8.092   0.753  11.928  0.0866 -0.0568 -0.1720
  394MOL0     C53108   8.985   0.268  11.012 -0.2421  0.1339  0.7508
  394MOL0     C53109   8.990   0.286  10.867  0.2329 -0.3954  0.1537
  394MOL0     C53110   8.781   0.360  10.439  0.5559  0.3898  0.1097
  394MOL0     C53111   8.672   0.416  10.358 -1.4764 -0.4198 -0.1850
  394MOL0     C53112   8.681   0.392  10.221  0.0580  0.4251 -0.1440
  394MOL0     C53113   8.779   0.314  10.161  0.1142 -0.6361 -1.1298
  394MOL0     O53114   8.787   0.276  10.031  0.0816 -0.5266 -0.7398
  394MOL0     C53115   8.691   0.344   9.941  0.4273  0.3145  0.2466
  394MOL0     C53116   8.692   0.261   9.805  0.1978  0.2103 -1.2309
  394MOL0     C53117   8.637   0.117   9.840 -0.3509 -0.2254  0.8695
  394MOL0     C53118   8.494   0.080   9.798  1.2382 -0.1758  0.6414
  394MOL0     C53119   8.481   0.117   9.657  0.3408  0.6170  0.0506
  394MOL0     C53120   8.450   0.138   9.548  0.1762 -0.6248 -0.4380
  394MOL0     C53121   8.885   0.273  10.243 -0.2027 -0.7724  0.1216
  394MOL0     C53122   8.887   0.298  10.377 -1.1758  0.4901  0.1257
  394MOL0     H53123   8.652   0.248  10.838  0.1286 -0.1610 -0.0591
  394MOL0     H53124   8.656   0.234  11.077  1.8233  4.3577  3.1946
  394MOL0     H53125   8.796   0.426  11.285 -2.8476 -0.6093 -1.8331
  394MOL0     H53126   8.693   0.277  11.287 -0.1449 -1.8545  4.6385
  394MOL0     H53127   8.867   0.221  11.500  3.3346 -1.3602 -2.8462
  394MOL0     H53128   8.891   0.397  11.471 -0.9895  0.2040  0.8337
  394MOL0     H53129   8.626   0.265  11.534  0.9311 -0.1888  1.9428
  394MOL0     H53130   8.736   0.309  11.652 -1.3870  1.3857  1.4476
  394MOL0     H53131   8.730   0.547  11.577  2.9334 -1.8262 -0.7635
  394MOL0     H53132   8.604   0.498  11.456 -2.5219  0.6546  1.0384
  394MOL0     H53133   8.475   0.385  11.652 -1.4293  1.1799 -3.1624
  394MOL0     H53134   8.584   0.480  11.760  0.1464  1.0496 -0.1692
  394MOL0     H53135   8.480   0.683  11.664  1.4937 -0.8826  0.1171
  394MOL0     H53136   8.381   0.579  11.553 -0.2664  0.4456  0.8325
  394MOL0     H53137   8.302   0.467  11.792 -0.1182 -1.0894  2.3642
  394MOL0     H53138   8.377   0.588  11.870 -0.1005 -0.3496  0.7895
  394MOL0     H53139   8.159   0.622  11.639 -2.5939  0.9656 -0.1870
  394MOL0     H53140   8.235   0.759  11.726  0.2681 -0.4586 -1.1685
  394MOL0     H53141   8.001   0.461  11.818 -0.5818  0.6418 -0.7796
  394MOL0     H53142   7.845   0.425  12.048  3.7096 -0.6325  4.1241
  394MOL0     H53143   7.824   0.571  12.145 -1.0137  2.2820 -0.4216
  394MOL0     H53144   7.690   0.485  11.885 -1.4432 -0.1953  0.0905
  394MOL0     H53145   7.691   0.657  11.927 -0.9928 -0.3829 -0.6737
  394MOL0     H53146   7.553   0.623  12.112 -2.5698  0.0650 -0.6433
  394MOL0     H53147   7.615   0.452  12.144  1.7235 -1.9310 -3.4890
  394MOL0     H53148   7.483   0.358  11.990 -0.1252 -0.2592 -1.1359
  394MOL0     H53149   7.436   0.489  11.899  1.5444 -1.3693 -1.0618
  394MOL0     H53150   7.176   0.553  12.245  1.9224  1.2315 -1.9915
  394MOL0     H53151   6.877   0.381  12.317  0.0972  0.8702 -0.0410
  394MOL0     H53152   6.956   0.545  12.330 -0.5906  1.2361 -0.0391
  394MOL0     H53153   6.827   0.514  12.214  0.6871  0.0790  0.5808
  394MOL0     H53154   6.630   0.448  11.910 -0.5851 -0.3728  2.7891
  394MOL0     H53155   6.392   0.417  11.890  0.0882 -0.4662 -0.8518
  394MOL0     H53156   6.148   0.326  11.887  4.1224  0.8199  0.5580
  394MOL0     H53157   6.221   0.411  11.760 -0.7871  1.3210  1.7159
  394MOL0     H53158   5.998   0.365  11.664 -2.0970 -1.6735  1.3699
  394MOL0     H53159   6.107   0.245  11.593  1.2387 -0.1694  0.3237
  394MOL0     H53160   5.914   0.205  11.821 -0.2599  0.2797  0.4571
  394MOL0     H53161   6.027   0.082  11.762 -0.2011  1.2626  3.4021
  394MOL0     H53162   5.823   0.239  11.592  0.2032 -0.4848 -0.6919
  394MOL0     H53163   5.926   0.104  11.527 -1.6151  3.0617 -3.2596
  394MOL0     H53164   5.676   0.063  11.575 -0.4900  3.2779  1.1223
  394MOL0     H53165   5.711   0.088  11.747 -0.2497  0.9256  1.0401
  394MOL0     H53166   5.874  -0.112  11.576 -2.9869 -2.5626 -1.5125
  394MOL0     H53167   5.873  -0.108  11.752 -1.3407  2.3008  0.8743
  394MOL0     H53168   5.679  -0.232  11.564  1.3194 -1.0736 -0.7985
  394MOL0     H53169   5.605  -0.169  11.707  1.3406  0.8706  0.8124
  394MOL0     H53170   5.641  -0.383  11.765  0.5699  0.1780  0.3751
  394MOL0     H53171   5.786  -0.303  11.843 -1.6799  0.3123  0.0876
  394MOL0     H53172   6.427   0.026  11.753 -2.9821  1.3827 -0.1854
  394MOL0     H53173   6.675   0.019  11.821  2.8389  1.5296 -0.8183
  394MOL0     H53174   7.053   0.208  11.910  0.5980 -0.4461  1.6429
  394MOL0     H53175   7.269   0.319  11.896 -4.7022 -3.2973 -1.7315
  394MOL0     H53176   9.071   0.271  11.078  1.3965  1.6578 -1.3377
  394MOL0     H53177   9.081   0.305  10.810 -0.2244 -1.8903 -1.1613
  394MOL0     H53178   8.596   0.472  10.411 -0.1564  0.4469  0.8415
  394MOL0     H53179   8.595   0.438  10.173 -0.7276  1.9391  2.5221
  394MOL0     H53180   8.587   0.345   9.973  0.3807  2.7557  0.2062
  394MOL0     H53181   8.716   0.450   9.932  0.2888  1.0660  5.6168
  394MOL0     H53182   8.791   0.244   9.763  0.1644 -0.5472 -1.0100
  394MOL0     H53183   8.644   0.321   9.727 -0.9782 -0.6673 -1.2149
  394MOL0     H53184   8.649   0.088   9.945 -4.0094  0.7767  1.7256
  394MOL0     H53185   8.699   0.048   9.782 -2.2784  0.2672 -1.9934
  394MOL0     H53186   8.415   0.127   9.857 -1.6698 -1.2436 -2.1480
  394MOL0     H53187   8.479  -0.027   9.814  2.1736 -0.2849  0.8763
  394MOL0     H53188   8.417   0.161   9.449  1.9934  1.0361 -0.7330
  394MOL0     H53189   8.968   0.218  10.198  0.9695  0.2295  0.9829
  394MOL0     H53190   8.969   0.263  10.439 -0.6953  0.7424 -0.3587
  395MOL0     O53191   0.850  10.446   3.913 -1.0265 -0.6082  0.5212
  395MOL0     C53192   0.909  10.337   3.890 -0.2005 -0.5508  0.5265
  395MOL0     O53193   0.868  10.218   3.935 -0.1159 -0.2622 -0.5542
  395MOL0     C53194   0.742  10.213   3.999  0.4879  0.7017  0.3224
  395MOL0     C53195   0.722  10.288   4.115 -0.8264  0.1098 -0.3715
  395MOL0     C53196   0.603  10.314   4.177 -0.2324  0.4700  0.2725
  395MOL0     C53197   0.489  10.257   4.123  0.2180  1.6855 -0.4495
  395MOL0     O53198   0.362  10.278   4.174 -0.0131 -0.0463 -0.7849
  395MOL0     C53199   0.363  10.365   4.286  0.3152 -0.4063  0.1812
  395MOL0     C53200   0.223  10.424   4.306  0.0035  0.0216 -0.6078
  395MOL0     C53201   0.114  10.333   4.349  1.0412 -1.0393 -0.4386
  395MOL0     C53202   0.093  10.322   4.505 -0.4025  0.7334 -0.3896
  395MOL0     C53203   0.215  10.250   4.576 -0.4468 -0.3583  0.4852
  395MOL0     C53204   0.193  10.182   4.718  0.2953 -0.0855  0.1953
  395MOL0     C53205   0.318  10.106   4.779 -0.1676 -0.8732  0.1841
  395MOL0     C53206   0.249  10.016   4.889  0.3378 -0.4224 -0.3968
  395MOL0     N53207   0.188  10.096   5.004 -0.5040 -0.4102  0.0633
  395MOL0     C53208   0.054  10.129   5.008 -0.1686 -0.0470  0.3768
  395MOL0     C53209   0.040  10.217   5.110 -0.4445 -0.4421 -0.2643
  395MOL0     C53210  -0.085  10.288   5.152  0.1105  0.6020 -0.0630
  395MOL0     C53211  -0.159  10.337   5.035  0.1205  0.3150 -0.8158
  395MOL0     C53212  -0.071  10.422   4.934 -0.3630  0.5324  0.6180
  395MOL0     C53213  -0.014  10.547   5.002  0.0433  0.1744 -0.0978
  395MOL0     O53214   0.061  10.628   4.911 -0.4966 -0.2931  0.8301
  395MOL0     C53215   0.195  10.587   4.883  0.4464  0.1335 -1.2039
  395MOL0     C53216   0.283  10.524   4.973 -0.2018  0.4113  0.1335
  395MOL0     C53217   0.412  10.487   4.929 -0.0925 -0.4703 -0.2949
  395MOL0     C53218   0.505  10.404   5.020  0.7391 -0.1348  1.0413
  395MOL0     C53219   0.445  10.510   4.795 -0.6047 -0.3221  0.5884
  395MOL0     C53220   0.561  10.466   4.726  0.1303 -0.4145  0.5245
  395MOL0     O53221   0.549  10.399   4.612 -1.1111 -0.5321 -0.3141
  395MOL0     C53222   0.670  10.345   4.573 -0.3660  0.2727 -0.2856
  395MOL0     C53223   0.702  10.211   4.600 -0.8661  0.1546  0.1689
  395MOL0     C53224   0.825  10.155   4.568 -0.1444  0.0301  0.1820
  395MOL0     C53225   0.917  10.228   4.496 -0.8247  0.5244 -0.1019
  395MOL0     O53226   1.035  10.161   4.454 -0.5820  0.5715 -1.2136
  395MOL0     C53227   1.135  10.233   4.373  1.3348  0.0265  0.2001
  395MOL0     C53228   1.225  10.336   4.457 -0.3601  0.0432 -0.0933
  395MOL0     C53229   1.318  10.411   4.360  1.6159  0.2651  0.0509
  395MOL0     C53230   1.259  10.491   4.246 -0.9234 -0.1649 -0.4011
  395MOL0     C53231   1.364  10.596   4.187 -0.2978  0.3951  0.2987
  395MOL0     C53232   1.306  10.673   4.070  0.0512  0.8818  0.7442
  395MOL0     C53233   1.350  10.827   4.070  0.5879  0.7018 -0.9270
  395MOL0     C53234   1.279  10.909   3.967  1.1154  0.9549  0.2189
  395MOL0    Cl53235   1.334  10.858   3.804 -0.1204 -0.5406 -0.3987
  395MOL0     C53236   0.882  10.354   4.462 -0.4621  1.0407  0.0222
  395MOL0     C53237   0.766  10.408   4.500  0.4461 -0.4756  0.3797
  395MOL0     O53238   0.666  10.515   4.768 -0.0413  0.3375  0.1540
  395MOL0     C53239   0.360  10.580   4.708  0.3703 -0.0420 -0.1423
  395MOL0     C53240   0.236  10.622   4.755 -0.7581 -0.2421 -0.1889
  395MOL0     N53241   0.169  10.242   5.161 -0.1862  0.0445  0.8037
  395MOL0     N53242   0.255  10.173   5.093 -0.0236  0.3267 -0.2603
  395MOL0     C53243   0.501  10.173   4.013  0.2898  0.0666 -0.0194
  395MOL0     C53244   0.627  10.161   3.948  1.1075  0.3507  0.1741
  395MOL0     C53245   1.009  10.343   3.773  0.5755 -0.8954  0.7480
  395MOL0     C53246   1.094  10.458   3.755 -0.2609  0.6590 -0.4648
  395MOL0     C53247   1.191  10.455   3.646 -0.0926  0.1316 -0.6370
  395MOL0     C53248   1.200  10.338   3.561 -0.7254 -0.6122  0.1261
  395MOL0     O53249   1.282  10.345   3.452 -0.1782 -0.1010  0.4699
  395MOL0     C53250   1.221  10.325   3.321  0.4447  0.2794 -0.1826
  395MOL0     C53251   1.265  10.434   3.222  0.2118 -0.4908 -0.4589
  395MOL0     C53252   1.233  10.575   3.290  0.7133  0.2921 -0.0592
  395MOL0     C53253   1.085  10.603   3.286  0.8705 -0.3354 -0.1783
  395MOL0     C53254   1.057  10.723   3.370  0.0585 -0.1326  0.2297
  395MOL0     C53255   1.036  10.827   3.426 -0.1412 -0.2102 -1.5367
  395MOL0     C53256   1.122  10.226   3.583  0.2653 -0.1831 -0.0050
  395MOL0     C53257   1.029  10.234   3.686  0.6531  0.3913 -0.5746
  395MOL0     H53258   0.815  10.330   4.150 -1.2156  0.9651 -0.3420
  395MOL0     H53259   0.612  10.379   4.264 -1.9091  1.2628 -0.1013
  395MOL0     H53260   0.391  10.302   4.371  0.8427 -1.9738 -1.0885
  395MOL0     H53261   0.429  10.452   4.275 -0.2265  0.1408  1.1574
  395MOL0     H53262   0.229  10.510   4.374 -1.3873 -1.3421  1.3394
  395MOL0     H53263   0.198  10.473   4.211 -0.2141 -1.2697 -1.2294
  395MOL0     H53264   0.027  10.382   4.304  1.0169 -2.0407 -1.5519
  395MOL0     H53265   0.122  10.235   4.301 -2.2604 -0.9699 -1.3705
  395MOL0     H53266   0.085  10.425   4.541  2.3298  0.1988  2.0932
  395MOL0     H53267  -0.007  10.281   4.521 -1.0800  2.1023 -0.9000
  395MOL0     H53268   0.255  10.168   4.517  1.8605 -0.3900  1.9466
  395MOL0     H53269   0.297  10.321   4.588 -1.3727  0.7393  0.5181
  395MOL0     H53270   0.145  10.251   4.788 -1.3052  1.5563 -2.3467
  395MOL0     H53271   0.121  10.100   4.712  1.4443 -1.3525  2.6044
  395MOL0     H53272   0.377  10.055   4.702 -0.7434  0.5061 -1.2180
  395MOL0     H53273   0.384  10.181   4.824 -2.5487  1.2132  0.4203
  395MOL0     H53274   0.326   9.957   4.939 -1.2418 -2.7291 -0.5513
  395MOL0     H53275   0.180   9.942   4.847  1.0829  0.2739 -3.0731
  395MOL0     H53276  -0.032  10.108   4.945  0.8395  2.4289 -2.0278
  395MOL0     H53277  -0.153  10.223   5.208  0.8923 -0.4274 -0.2807
  395MOL0     H53278  -0.075  10.370   5.223  0.5588  1.3546 -0.9749
  395MOL0     H53279  -0.253  10.387   5.057  1.0418  2.7775 -2.0545
  395MOL0     H53280  -0.183  10.252   4.970  4.2573 -2.1147  0.4138
  395MOL0     H53281  -0.138  10.455   4.854 -0.1758  1.2266  0.7364
  395MOL0     H53282  -0.001  10.353   4.885  1.5173  2.2532  0.7110
  395MOL0     H53283   0.051  10.529   5.089 -1.5869 -0.4271  1.0414
  395MOL0     H53284  -0.100  10.604   5.037 -0.1406 -0.7892  1.1161
  395MOL0     H53285   0.255  10.501   5.076  1.1620  2.0566  0.9239
  395MOL0     H53286   0.545  10.466   5.101 -0.8888 -0.1662  1.9170
  395MOL0     H53287   0.449  10.326   5.072  0.1554 -0.7896 -0.5088
  395MOL0     H53288   0.577  10.341   4.966 -0.0638 -0.7682  0.6861
  395MOL0     H53289   0.626  10.149   4.648  2.0860 -1.9459  2.5305
  395MOL0     H53290   0.850  10.052   4.592  1.3205  0.5828  1.1985
  395MOL0     H53291   1.202  10.171   4.312  1.8392  1.7868 -1.1255
  395MOL0     H53292   1.081  10.281   4.291 -0.9503 -0.8538  1.1053
  395MOL0     H53293   1.163  10.401   4.520 -1.4283 -2.3731  1.5167
  395MOL0     H53294   1.295  10.287   4.525  1.3742 -1.2124 -2.6560
  395MOL0     H53295   1.386  10.340   4.311 -0.9858 -1.5618 -1.1284
  395MOL0     H53296   1.382  10.473   4.423  1.7317 -1.6997  2.0263
  395MOL0     H53297   1.213  10.425   4.172  0.0342  0.1074 -1.2601
  395MOL0     H53298   1.176  10.540   4.297 -1.8374  0.6204 -2.5018
  395MOL0     H53299   1.461  10.555   4.157  0.1437  3.5621 -3.3865
  395MOL0     H53300   1.397  10.663   4.267  2.1300  0.9863 -1.0713
  395MOL0     H53301   1.330  10.616   3.980 -0.0127  1.3176  0.4470
  395MOL0     H53302   1.196  10.675   4.067  0.0611  0.7144 -0.7138
  395MOL0     H53303   1.457  10.839   4.053  0.2528  3.1185 -1.8339
  395MOL0     H53304   1.316  10.861   4.168  0.0567 -2.6848  0.1955
  395MOL0     H53305   1.283  11.015   3.994 -0.0606  1.1104 -0.1529
  395MOL0     H53306   1.171  10.895   3.978  0.1630  4.3561 -2.7685
  395MOL0     H53307   0.956  10.418   4.416  3.0471 -1.7513  1.2864
  395MOL0     H53308   0.747  10.514   4.481  1.2413 -0.6966 -2.0038
  395MOL0     H53309   0.398  10.592   4.607  2.4908  0.2402  0.6431
  395MOL0     H53310   0.162  10.673   4.694  1.3224  1.8930 -1.0943
  395MOL0     H53311   0.421  10.114   3.968 -0.0348 -1.2467  2.1193
  395MOL0     H53312   0.630  10.113   3.851  2.1558 -0.3870  0.5553
  395MOL0     H53313   1.081  10.545   3.819 -0.1396  0.3832 -0.0612
  395MOL0     H53314   1.256  10.539   3.625  0.5580 -0.4643 -1.0773
  395MOL0     H53315   1.254  10.231   3.275  2.7810  2.1252 -2.6027
  395MOL0     H53316   1.112  10.325   3.323  0.4326  0.5648 -0.6665
  395MOL0     H53317   1.219  10.430   3.123 -0.6314 -0.6825 -0.0686
  395MOL0     H53318   1.373  10.426   3.207  0.4961  2.4033 -0.6364
  395MOL0     H53319   1.264  10.651   3.217 -1.6218  1.1959 -0.1815
  395MOL0     H53320   1.281  10.591   3.387 -1.3970  1.9862  0.7826
  395MOL0     H53321   1.046  10.519   3.345  0.1968 -0.6724 -1.0793
  395MOL0     H53322   1.043  10.608   3.185 -0.2234  0.7351  0.3051
  395MOL0     H53323   1.017  10.916   3.483 -1.6128 -1.0723 -0.6278
  395MOL0     H53324   1.133  10.141   3.516  1.5018  0.3987 -0.5635
  395MOL0     H53325   0.973  10.142   3.703  4.0326 -1.7726 -0.2056
  396MOL0     O53326   7.020   1.093   0.215  0.2685  0.4236  0.1219
  396MOL0     C53327   7.083   1.109   0.114 -0.2727  0.1735 -0.6950
  396MOL0     O53328   7.031   1.106  -0.007 -0.1067  0.1154 -0.4656
  396MOL0     C53329   6.911   1.040  -0.038 -0.1163  0.2643 -0.2825
  396MOL0     C53330   6.838   1.110  -0.147 -0.2750  0.4431 -0.2035
  396MOL0     C53331   6.712   1.059  -0.187 -0.6857  0.4693 -0.8081
  396MOL0     C53332   6.666   0.948  -0.122  0.4844 -0.1728  0.3310
  396MOL0     O53333   6.546   0.892  -0.144 -0.2635  0.2905 -0.3337
  396MOL0     C53334   6.443   0.943  -0.235  0.0707 -0.2464  0.1608
  396MOL0     C53335   6.322   0.858  -0.218  0.7652 -0.5748 -0.1273
  396MOL0     C53336   6.200   0.912  -0.298  0.2310  0.8365  0.7269
  396MOL0     C53337   6.071   0.831  -0.257 -0.8923 -0.5692  0.5096
  396MOL0     C53338   5.951   0.865  -0.337 -0.2219  0.5532  0.0252
  396MOL0     C53339   5.971   0.869  -0.484 -0.2714 -0.3064  0.4170
  396MOL0     C53340   5.831   0.882  -0.548 -0.9071  0.5753  0.4949
  396MOL0     C53341   5.781   1.018  -0.584 -0.0841 -0.6625 -0.2797
  396MOL0     N53342   5.740   1.100  -0.461 -0.5650 -0.0226  0.6181
  396MOL0     C53343   5.613   1.135  -0.428 -0.2159 -0.4227 -0.6163
  396MOL0     C53344   5.617   1.237  -0.344  0.2093  0.4030  0.6655
  396MOL0     C53345   5.504   1.298  -0.269 -0.5974 -0.2115 -0.6947
  396MOL0     C53346   5.404   1.361  -0.362 -0.4142 -0.9648  0.0032
  396MOL0     C53347   5.295   1.266  -0.427 -0.3402  1.1622 -0.4257
  396MOL0     C53348   5.178   1.322  -0.513  0.4420  0.1653 -0.2052
  396MOL0     O53349   5.082   1.224  -0.551  0.1764  0.5322 -0.4857
  396MOL0     C53350   4.953   1.241  -0.498  0.3429 -0.6091 -0.1348
  396MOL0     C53351   4.886   1.369  -0.493  0.5055  0.1938 -1.3196
  396MOL0     C53352   4.747   1.389  -0.474 -0.4084 -0.5776 -0.2868
  396MOL0     C53353   4.698   1.526  -0.511 -0.0362 -0.7344 -0.5040
  396MOL0     C53354   4.665   1.273  -0.451  0.5547 -0.5335  1.3271
  396MOL0     C53355   4.513   1.272  -0.449 -0.7334  0.9604 -0.2146
  396MOL0     O53356   4.454   1.387  -0.425  0.0881  0.2444 -0.1333
  396MOL0     C53357   4.316   1.412  -0.428 -0.3896  0.0929 -0.0776
  396MOL0     C53358   4.228   1.365  -0.521  0.3350 -0.1623  0.2629
  396MOL0     C53359   4.090   1.395  -0.515  0.4148 -0.3437 -0.8839
  396MOL0     C53360   4.039   1.455  -0.397  0.3419 -0.5444 -0.4352
  396MOL0     O53361   3.905   1.463  -0.387  0.1071 -0.2678 -0.5644
  396MOL0     C53362   3.841   1.568  -0.318  0.5781 -0.2987 -0.3841
  396MOL0     C53363   3.697   1.595  -0.371 -0.9256 -0.1678 -0.9422
  396MOL0     C53364   3.690   1.656  -0.511  0.5310 -0.5854 -0.1963
  396MOL0     C53365   3.701   1.813  -0.492 -0.0298 -1.2105 -1.0149
  396MOL0     C53366   3.687   1.878  -0.634  0.4804 -0.4349 -0.3979
  396MOL0     C53367   3.731   2.023  -0.638  0.0315 -0.2206 -0.5397
  396MOL0     C53368   3.701   2.085  -0.773 -1.1249  0.0779 -0.1696
  396MOL0     C53369   3.714   2.236  -0.773 -0.4105  0.3012 -0.7598
  396MOL0    Cl53370   3.646   2.324  -0.919 -0.0361 -0.1838  0.3004
  396MOL0     C53371   4.126   1.502  -0.304 -0.0472  0.0798 -0.0608
  396MOL0     C53372   4.260   1.478  -0.314  0.6487  0.4770  1.1507
  396MOL0     O53373   4.451   1.161  -0.456 -0.2260 -0.6459 -0.0453
  396MOL0     C53374   4.731   1.149  -0.447  0.1229 -0.6165  0.8715
  396MOL0     C53375   4.865   1.139  -0.473  0.3946  0.3341 -0.8520
  396MOL0     N53376   5.750   1.266  -0.333  1.0125  0.0320  0.4489
  396MOL0     N53377   5.826   1.189  -0.404 -0.3640 -0.2989  0.0168
  396MOL0     C53378   6.729   0.890  -0.012 -0.0398  0.1918  0.2871
  396MOL0     C53379   6.851   0.936   0.030 -0.3399 -0.0189 -0.5565
  396MOL0     C53380   7.234   1.122   0.129  0.2645 -1.5995 -0.1919
  396MOL0     C53381   7.312   1.160   0.018 -0.5311 -0.2343  0.4801
  396MOL0     C53382   7.451   1.180   0.028  0.5032 -0.0302  0.7457
  396MOL0     C53383   7.516   1.161   0.149 -0.6118 -1.1258  1.1580
  396MOL0     O53384   7.651   1.183   0.159  0.1566  0.4098 -0.5084
  396MOL0     C53385   7.724   1.155   0.281  1.2816 -1.1119  0.5666
  396MOL0     C53386   7.867   1.200   0.247 -0.4759 -0.4152 -0.2160
  396MOL0     C53387   7.898   1.340   0.192  0.0587 -0.5945 -0.0264
  396MOL0     C53388   7.906   1.323   0.036 -0.2977 -0.3753 -0.1785
  396MOL0     C53389   7.915   1.453  -0.032  0.0133 -0.3423 -0.5746
  396MOL0     C53390   7.907   1.562  -0.082  0.3450  0.4337 -0.8506
  396MOL0     C53391   7.442   1.129   0.260  0.7172 -0.1148  0.8036
  396MOL0     C53392   7.300   1.116   0.254 -0.1484 -0.2460  0.2529
  396MOL0     H53393   6.888   1.192  -0.198  0.2944 -0.4773 -1.1747
  396MOL0     H53394   6.648   1.100  -0.265 -0.9957  0.8408 -0.3590
  396MOL0     H53395   6.410   1.042  -0.202 -0.5958  0.4558 -2.4427
  396MOL0     H53396   6.476   0.946  -0.339 -1.6633  1.3224 -0.3982
  396MOL0     H53397   6.348   0.758  -0.256  1.4375  0.7435 -3.4691
  396MOL0     H53398   6.310   0.847  -0.110  0.2705 -1.2508 -0.2388
  396MOL0     H53399   6.172   1.015  -0.275  0.2079  0.8100  0.8179
  396MOL0     H53400   6.224   0.899  -0.404 -4.7918 -0.3741 -0.5267
  396MOL0     H53401   6.089   0.728  -0.290  1.3010 -0.6313  1.7477
  396MOL0     H53402   6.050   0.832  -0.150 -5.5490 -1.1815 -0.1701
  396MOL0     H53403   5.882   0.783  -0.312  1.6290 -1.1719 -0.2100
  396MOL0     H53404   5.913   0.958  -0.294  2.8275  2.5547 -1.3340
  396MOL0     H53405   6.030   0.953  -0.524  1.1410 -1.7644 -0.6847
  396MOL0     H53406   6.022   0.780  -0.521  0.1821 -0.2042  0.7790
  396MOL0     H53407   5.842   0.824  -0.641 -2.5974  1.4627 -0.3215
  396MOL0     H53408   5.763   0.846  -0.470 -1.0129 -1.6358 -0.5402
  396MOL0     H53409   5.694   1.001  -0.648 -0.1650  0.5215 -0.4935
  396MOL0     H53410   5.857   1.077  -0.636  0.3747  0.8593  1.9728
  396MOL0     H53411   5.524   1.087  -0.466 -0.2096 -2.2817  1.5303
  396MOL0     H53412   5.467   1.215  -0.207 -0.1582 -0.5329 -0.8595
  396MOL0     H53413   5.558   1.368  -0.204  0.8278  0.1955 -2.2477
  396MOL0     H53414   5.457   1.423  -0.435 -2.6242  0.9427 -0.1176
  396MOL0     H53415   5.345   1.439  -0.313  0.7416  1.6572 -2.4721
  396MOL0     H53416   5.241   1.218  -0.345  0.2414  2.8125  0.9982
  396MOL0     H53417   5.337   1.183  -0.484  0.2507  0.2688  1.2190
  396MOL0     H53418   5.211   1.367  -0.607 -3.1031 -1.4170 -2.4127
  396MOL0     H53419   5.136   1.399  -0.447 -4.1852 -2.7780  0.7279
  396MOL0     H53420   4.949   1.455  -0.514  0.2229  0.9662  0.7439
  396MOL0     H53421   4.644   1.585  -0.436  1.7498 -0.8552  0.9832
  396MOL0     H53422   4.776   1.592  -0.551  0.6619 -0.2978  1.4241
  396MOL0     H53423   4.620   1.513  -0.586 -1.7330  1.0481  0.8389
  396MOL0     H53424   4.270   1.303  -0.600  0.9356 -1.9877  1.9388
  396MOL0     H53425   4.025   1.363  -0.596 -1.3555  0.6437  0.1054
  396MOL0     H53426   3.848   1.544  -0.212  0.4522  0.3098 -0.2373
  396MOL0     H53427   3.903   1.656  -0.338  0.7524 -0.4238 -0.4018
  396MOL0     H53428   3.632   1.507  -0.376  0.1575 -0.9378 -1.8483
  396MOL0     H53429   3.653   1.674  -0.309 -0.6526  1.3194 -2.5451
  396MOL0     H53430   3.599   1.637  -0.569  1.4899 -1.2122 -1.5297
  396MOL0     H53431   3.766   1.615  -0.577  1.3036  0.4207  0.0353
  396MOL0     H53432   3.626   1.860  -0.428  0.9181  1.4031 -1.7008
  396MOL0     H53433   3.796   1.836  -0.444 -1.2485 -1.5937  1.7508
  396MOL0     H53434   3.585   1.871  -0.675  0.6437 -0.6887 -0.7661
  396MOL0     H53435   3.752   1.820  -0.700  1.2022 -0.2607  0.1431
  396MOL0     H53436   3.676   2.074  -0.558 -1.9542 -1.6737 -0.9152
  396MOL0     H53437   3.838   2.041  -0.619 -0.6578  2.3444  1.6361
  396MOL0     H53438   3.597   2.070  -0.803 -1.1455 -1.3954  0.5398
  396MOL0     H53439   3.775   2.039  -0.840 -0.0621  2.1166 -0.4674
  396MOL0     H53440   3.819   2.264  -0.758 -0.8676  2.7763 -1.8277
  396MOL0     H53441   3.666   2.269  -0.681 -1.2495 -0.8309 -0.7606
  396MOL0     H53442   4.095   1.560  -0.217  0.4346 -1.2793  1.0464
  396MOL0     H53443   4.327   1.492  -0.230  0.2978 -0.7679  1.6705
  396MOL0     H53444   4.678   1.057  -0.424  1.9891 -2.4831 -1.7504
  396MOL0     H53445   4.911   1.041  -0.484 -3.1018 -1.6520  0.7263
  396MOL0     H53446   6.692   0.797   0.030  1.2227  0.3799  1.9498
  396MOL0     H53447   6.900   0.881   0.110 -1.0321  0.2291  0.0519
  396MOL0     H53448   7.272   1.170  -0.083  1.4745  1.6963 -0.2046
  396MOL0     H53449   7.507   1.208  -0.060 -0.1611 -1.7707 -0.2787
  396MOL0     H53450   7.688   1.215   0.365 -0.0400 -1.1353  0.0440
  396MOL0     H53451   7.716   1.051   0.314  0.6567 -0.4002  2.8302
  396MOL0     H53452   7.910   1.122   0.184 -4.0353 -2.3965 -0.4217
  396MOL0     H53453   7.919   1.195   0.343  1.1436 -1.0383 -1.0787
  396MOL0     H53454   7.986   1.384   0.239 -2.4060  3.7484  1.0676
  396MOL0     H53455   7.818   1.409   0.218  1.7671  1.1018  0.9873
  396MOL0     H53456   7.822   1.264  -0.001  0.3680 -2.0675  0.8713
  396MOL0     H53457   7.996   1.268   0.006  0.2730  0.3604  0.1286
  396MOL0     H53458   7.897   1.663  -0.117 -1.1627  0.4501 -0.4706
  396MOL0     H53459   7.487   1.135   0.359  4.3804  1.4272 -0.7718
  396MOL0     H53460   7.249   1.097   0.347 -1.1856  0.6123 -0.1256
  397MOL0     O53461   3.083   8.393   7.743  0.8601  0.2423 -0.2525
  397MOL0     C53462   3.103   8.280   7.705  0.2529  1.3434 -0.0085
  397MOL0     O53463   3.039   8.167   7.741  0.3897  0.8581  0.2078
  397MOL0     C53464   2.916   8.170   7.806 -0.0471  0.7526  0.3915
  397MOL0     C53465   2.816   8.251   7.757  0.1657 -0.5122  0.9504
  397MOL0     C53466   2.696   8.260   7.830  0.9099 -0.2932 -1.5490
  397MOL0     C53467   2.674   8.186   7.949  0.6731 -0.4200 -0.1930
  397MOL0     O53468   2.548   8.189   8.008 -0.0500 -0.4081 -0.7234
  397MOL0     C53469   2.514   8.096   8.112 -0.0426 -0.6872  0.9301
  397MOL0     C53470   2.407   8.159   8.189  0.2739  0.2842  0.0715
  397MOL0     C53471   2.266   8.164   8.129  0.2735 -0.1741  0.5721
  397MOL0     C53472   2.175   8.244   8.223  0.5809  0.0941  0.1165
  397MOL0     C53473   2.059   8.306   8.135  0.3196  0.2382 -0.0702
  397MOL0     C53474   1.973   8.206   8.054 -0.0642  0.4750  0.9362
  397MOL0     C53475   1.844   8.256   7.973  0.0450 -0.8963 -1.3450
  397MOL0     C53476   1.751   8.334   8.068  0.2888  0.1028  0.1857
  397MOL0     N53477   1.640   8.391   7.995  0.5851 -0.0907  0.9556
  397MOL0     C53478   1.651   8.483   7.891 -0.3848  0.9496 -0.5196
  397MOL0     C53479   1.529   8.511   7.851 -0.5158 -0.3239  0.7401
  397MOL0     C53480   1.495   8.612   7.739 -0.4994 -1.0786 -0.5219
  397MOL0     C53481   1.459   8.526   7.617 -0.1991 -0.6270  0.3197
  397MOL0     C53482   1.426   8.619   7.496 -0.7653  0.3755  0.2148
  397MOL0     C53483   1.328   8.556   7.391  0.0235 -0.7542  0.6875
  397MOL0     O53484   1.201   8.525   7.457  0.3899 -0.0511  0.1064
  397MOL0     C53485   1.088   8.504   7.385 -0.5190 -0.6508  0.1639
  397MOL0     C53486   0.962   8.528   7.448 -0.7257 -0.1516 -0.7452
  397MOL0     C53487   0.838   8.520   7.375  0.2322 -0.6141 -0.9316
  397MOL0     C53488   0.718   8.588   7.447 -0.2077 -0.8425  1.0068
  397MOL0     C53489   0.841   8.481   7.238 -0.3833  0.5246 -1.0684
  397MOL0     C53490   0.712   8.472   7.159 -0.5131  0.8825 -0.3903
  397MOL0     O53491   0.587   8.479   7.222  0.1298  0.1056 -0.4643
  397MOL0     C53492   0.494   8.410   7.151  0.5646  0.2584  0.5789
  397MOL0     C53493   0.495   8.269   7.125  0.1775 -0.2066 -0.9261
  397MOL0     C53494   0.399   8.203   7.047 -0.3994 -0.6558 -1.4392
  397MOL0     C53495   0.297   8.278   6.987 -0.5575  1.0635  0.4207
  397MOL0     O53496   0.195   8.227   6.909 -0.2659  0.0041 -0.7239
  397MOL0     C53497   0.184   8.086   6.876 -0.0862 -0.0384 -1.0320
  397MOL0     C53498   0.053   8.049   6.817 -0.6434 -0.1756 -0.6669
  397MOL0     C53499   0.050   8.116   6.676 -0.1220  0.0095 -0.4635
  397MOL0     C53500  -0.081   8.084   6.594 -0.9890 -0.5228 -1.1547
  397MOL0     C53501  -0.213   8.141   6.664 -0.1343  0.9074  0.3900
  397MOL0     C53502  -0.237   8.291   6.634 -0.6203 -0.5987  0.6694
  397MOL0     C53503  -0.245   8.375   6.762 -0.0991  0.4069 -0.1988
  397MOL0     C53504  -0.115   8.392   6.846  0.3330 -0.0207 -0.3157
  397MOL0    Cl53505  -0.000   8.500   6.761  0.6424 -0.2126 -0.2202
  397MOL0     C53506   0.295   8.417   7.002  1.0623 -0.2018  0.4533
  397MOL0     C53507   0.392   8.475   7.079  0.6965 -0.0055 -0.0295
  397MOL0     O53508   0.725   8.452   7.035 -0.3256 -0.3162 -0.4598
  397MOL0     C53509   0.962   8.437   7.186 -0.0200  0.0272 -0.5814
  397MOL0     C53510   1.082   8.446   7.259 -0.4474 -0.7229  0.2753
  397MOL0     N53511   1.439   8.456   7.933  0.1119 -0.3364 -0.3978
  397MOL0     N53512   1.503   8.388   8.020  0.1883 -0.0466 -0.0371
  397MOL0     C53513   2.776   8.093   7.991  0.3435 -0.1157 -1.2007
  397MOL0     C53514   2.895   8.100   7.923  0.8520  0.5942  0.4706
  397MOL0     C53515   3.206   8.258   7.607 -0.4341  0.0440 -0.2383
  397MOL0     C53516   3.288   8.150   7.616  0.7039 -0.5230  0.1647
  397MOL0     C53517   3.397   8.132   7.531  0.0244  0.2938  0.0764
  397MOL0     C53518   3.440   8.233   7.437 -0.5273 -0.2047  0.2554
  397MOL0     O53519   3.560   8.240   7.377  0.1281  1.3522 -0.1440
  397MOL0     C53520   3.592   8.124   7.289  0.0107 -0.6247  0.3859
  397MOL0     C53521   3.670   8.181   7.174  0.1444  0.0311  0.1047
  397MOL0     C53522   3.756   8.097   7.090 -0.3784 -0.4565  0.0111
  397MOL0     C53523   3.888   8.048   7.161  0.2387  0.6699 -0.2988
  397MOL0     C53524   3.979   7.975   7.076 -0.6560  0.3390 -0.0963
  397MOL0     C53525   4.064   7.911   7.024 -0.5140  0.1137 -0.1789
  397MOL0     C53526   3.358   8.350   7.430  0.7728  0.0910 -0.2876
  397MOL0     C53527   3.239   8.358   7.511 -0.3063  0.2981 -0.5128
  397MOL0     H53528   2.829   8.324   7.678 -0.6153 -0.6437  0.6948
  397MOL0     H53529   2.629   8.342   7.805 -0.3363 -0.7779  0.0544
  397MOL0     H53530   2.488   8.002   8.062 -2.4798 -0.7853  2.2375
  397MOL0     H53531   2.589   8.074   8.188  2.7507 -0.5857 -1.6119
  397MOL0     H53532   2.400   8.095   8.277 -1.5415  0.3133 -0.0184
  397MOL0     H53533   2.441   8.256   8.226 -0.7414  1.0795 -0.9913
  397MOL0     H53534   2.277   8.215   8.033 -4.8208 -1.2954 -0.9059
  397MOL0     H53535   2.227   8.063   8.115  3.4893 -1.7785  2.0280
  397MOL0     H53536   2.133   8.177   8.299 -0.6911 -0.6139 -1.1753
  397MOL0     H53537   2.236   8.323   8.268  4.0006 -1.9859 -0.4848
  397MOL0     H53538   1.983   8.352   8.198 -0.0230 -1.8962  1.1418
  397MOL0     H53539   2.099   8.381   8.066  1.4781 -0.3876 -0.1052
  397MOL0     H53540   2.027   8.142   7.984 -2.0829 -0.0598 -0.2091
  397MOL0     H53541   1.943   8.124   8.120  0.8755 -3.8531 -3.4754
  397MOL0     H53542   1.877   8.332   7.902  1.1956  0.1439  0.2344
  397MOL0     H53543   1.792   8.173   7.925 -0.3209 -3.1661  2.5492
  397MOL0     H53544   1.799   8.421   8.114 -0.3262  0.0415  0.9651
  397MOL0     H53545   1.704   8.268   8.141 -0.1538  1.0107  0.7377
  397MOL0     H53546   1.735   8.529   7.840 -1.5949  0.2498 -3.2927
  397MOL0     H53547   1.408   8.673   7.766 -1.2362  0.2413 -5.0347
  397MOL0     H53548   1.582   8.672   7.714  0.2551 -1.0385  1.9483
  397MOL0     H53549   1.375   8.459   7.638 -2.3365  1.6374 -0.4949
  397MOL0     H53550   1.539   8.457   7.588 -1.8867 -1.5368 -2.5838
  397MOL0     H53551   1.522   8.639   7.448 -1.1493  0.7263 -0.4110
  397MOL0     H53552   1.379   8.713   7.528  3.1940  2.6604 -0.0112
  397MOL0     H53553   1.373   8.464   7.354 -1.1774 -1.2101  0.2919
  397MOL0     H53554   1.310   8.627   7.310  3.5961 -0.8243 -0.3371
  397MOL0     H53555   0.988   8.557   7.549  0.9453  0.6683 -1.3799
  397MOL0     H53556   0.751   8.668   7.514  0.0236  0.2162 -0.3267
  397MOL0     H53557   0.650   8.644   7.381 -0.7923 -2.1527  0.4544
  397MOL0     H53558   0.658   8.512   7.498 -3.6926 -1.6096 -3.5621
  397MOL0     H53559   0.572   8.207   7.171  1.3575  3.1937  2.2487
  397MOL0     H53560   0.410   8.095   7.043  1.0734 -0.5863 -0.2339
  397MOL0     H53561   0.267   8.063   6.808  0.2994  1.0242 -0.9447
  397MOL0     H53562   0.197   8.028   6.967 -0.2792  1.8882  0.2788
  397MOL0     H53563   0.046   7.941   6.802 -4.3439 -0.3527  1.1431
  397MOL0     H53564  -0.027   8.071   6.888 -2.8928  0.0261 -3.1101
  397MOL0     H53565   0.135   8.075   6.622 -0.1336 -0.1794 -0.3400
  397MOL0     H53566   0.065   8.223   6.687  1.5584 -0.4462  3.1491
  397MOL0     H53567  -0.057   8.123   6.495  1.3613  3.2522  0.7051
  397MOL0     H53568  -0.091   7.975   6.584 -2.0554 -0.9568  2.8865
  397MOL0     H53569  -0.222   8.103   6.766  0.7379  0.3652  0.2824
  397MOL0     H53570  -0.285   8.082   6.606  2.6906 -2.0322 -0.4570
  397MOL0     H53571  -0.153   8.322   6.571  1.7265 -2.1530  2.8344
  397MOL0     H53572  -0.331   8.305   6.580 -1.5054 -1.3052  1.9999
  397MOL0     H53573  -0.328   8.319   6.807 -0.6687  0.5022 -1.1123
  397MOL0     H53574  -0.288   8.475   6.751  0.3310  0.8746  1.8970
  397MOL0     H53575  -0.068   8.298   6.876  1.2614  1.2089  2.4015
  397MOL0     H53576  -0.130   8.454   6.935 -0.9009 -1.0040  0.1969
  397MOL0     H53577   0.217   8.480   6.960 -0.7275 -1.4094  1.8010
  397MOL0     H53578   0.390   8.584   7.088 -0.9946  0.1388 -1.5894
  397MOL0     H53579   0.959   8.398   7.084  0.8523 -0.6674 -0.3513
  397MOL0     H53580   1.174   8.428   7.204 -0.4188  2.9426 -1.1771
  397MOL0     H53581   2.765   8.020   8.070 -1.4473  2.0379  0.6776
  397MOL0     H53582   2.982   8.044   7.955  0.9177 -0.0114 -0.6992
  397MOL0     H53583   3.276   8.081   7.698  2.0882 -0.4583  0.4517
  397MOL0     H53584   3.463   8.046   7.529 -3.4330 -2.5576 -1.2522
  397MOL0     H53585   3.645   8.053   7.352  0.7441 -1.4363 -1.0840
  397MOL0     H53586   3.500   8.074   7.256 -0.4537 -0.7662  1.8282
  397MOL0     H53587   3.731   8.262   7.216  1.5447 -0.6082 -0.6358
  397MOL0     H53588   3.592   8.218   7.107  1.8463  0.9593 -1.4666
  397MOL0     H53589   3.777   8.166   7.008 -0.5098  0.6449  0.8893
  397MOL0     H53590   3.697   8.012   7.053 -0.5433  0.0032 -0.8095
  397MOL0     H53591   3.856   7.970   7.231  0.2644  0.5908 -0.3758
  397MOL0     H53592   3.928   8.137   7.211  2.6919 -0.3203 -0.3787
  397MOL0     H53593   4.135   7.887   6.948 -1.3932 -0.6873 -0.7639
  397MOL0     H53594   3.385   8.418   7.349 -1.1649  0.1552 -0.9243
  397MOL0     H53595   3.179   8.448   7.503 -0.7878  0.0930  0.5264
  398MOL0     O53596   0.048   7.805   5.787 -0.2948 -0.2594  0.0956
  398MOL0     C53597   0.034   7.712   5.705  0.0101 -0.3745 -0.4832
  398MOL0     O53598  -0.079   7.643   5.689 -0.0282  0.8660 -0.2907
  398MOL0     C53599  -0.218   7.670   5.721 -0.5438 -0.1473  0.2474
  398MOL0     C53600  -0.258   7.787   5.777 -0.6438 -0.4071  1.2251
  398MOL0     C53601  -0.391   7.816   5.804 -0.3203  0.3933  0.4630
  398MOL0     C53602  -0.498   7.729   5.751 -1.2552 -0.6062  0.1793
  398MOL0     O53603  -0.629   7.765   5.750  0.2730 -0.2404  0.3700
  398MOL0     C53604  -0.666   7.891   5.801  0.0597 -0.1441 -0.2125
  398MOL0     C53605  -0.809   7.935   5.763  0.4303  0.0709  0.8727
  398MOL0     C53606  -0.896   7.900   5.874 -0.2607  0.2180 -0.5192
  398MOL0     C53607  -1.043   7.930   5.854  0.2105  0.3881 -0.1910
  398MOL0     C53608  -1.122   7.920   5.981  0.8999 -1.2827 -0.2908
  398MOL0     C53609  -1.267   7.968   5.946 -0.0142  0.0486 -0.5089
  398MOL0     C53610  -1.284   8.115   5.927  0.1208 -0.4013 -0.2488
  398MOL0     C53611  -1.232   8.220   6.030 -0.2672 -0.4820  0.3641
  398MOL0     N53612  -1.277   8.357   6.015 -0.8411 -0.1405  0.3396
  398MOL0     C53613  -1.404   8.403   5.990  0.3003 -0.4022  0.7371
  398MOL0     C53614  -1.385   8.534   5.980 -0.6960 -0.8056 -0.1419
  398MOL0     C53615  -1.494   8.626   5.959 -0.1132 -0.2757  0.4551
  398MOL0     C53616  -1.552   8.600   5.821  0.5813 -0.5644  0.0862
  398MOL0     C53617  -1.680   8.679   5.792 -0.4448  0.5495  0.3532
  398MOL0     C53618  -1.736   8.632   5.655  0.8225 -0.1901 -0.3339
  398MOL0     O53619  -1.855   8.716   5.637  0.2983  0.1349  0.3700
  398MOL0     C53620  -1.947   8.659   5.541  0.3380 -1.1065 -0.5977
  398MOL0     C53621  -1.915   8.564   5.446  1.0219 -0.5728 -0.3428
  398MOL0     C53622  -2.008   8.512   5.350  0.3634 -1.2329 -0.4408
  398MOL0     C53623  -1.956   8.408   5.255  0.4891  0.3316  0.3091
  398MOL0     C53624  -2.136   8.577   5.345 -0.0599  0.6717 -0.0435
  398MOL0     C53625  -2.248   8.543   5.250 -0.2242 -0.1791 -0.1566
  398MOL0     O53626  -2.247   8.426   5.192 -0.2158  0.3956  0.1007
  398MOL0     C53627  -2.330   8.419   5.078  0.0994  0.1491  0.5255
  398MOL0     C53628  -2.447   8.343   5.091  0.4369 -1.3137 -0.7154
  398MOL0     C53629  -2.535   8.336   4.990  0.2148 -0.9172  0.4355
  398MOL0     C53630  -2.522   8.415   4.871 -0.2211 -1.5174  0.1539
  398MOL0     O53631  -2.601   8.406   4.761 -0.2599 -0.6492  0.8614
  398MOL0     C53632  -2.721   8.328   4.770  0.7349 -0.3336 -0.5591
  398MOL0     C53633  -2.785   8.273   4.641 -0.0361  0.5287 -0.4066
  398MOL0     C53634  -2.835   8.369   4.536  0.2370  0.3715  0.6932
  398MOL0     C53635  -2.803   8.327   4.390 -0.2569  0.4100  0.7169
  398MOL0     C53636  -2.853   8.423   4.281  0.5074  0.5087  0.5325
  398MOL0     C53637  -2.755   8.524   4.235  0.4798  0.0055  0.3521
  398MOL0     C53638  -2.653   8.483   4.132 -0.0415  0.1233  0.1153
  398MOL0     C53639  -2.691   8.496   3.982  0.0912 -0.4816 -0.7665
  398MOL0    Cl53640  -2.861   8.444   3.942 -0.0704 -0.3429 -0.6020
  398MOL0     C53641  -2.415   8.492   4.865  0.2686 -0.5474  0.0201
  398MOL0     C53642  -2.314   8.502   4.968  0.4995  0.4712  0.9884
  398MOL0     O53643  -2.347   8.618   5.238  0.7175 -0.1657 -0.8193
  398MOL0     C53644  -2.160   8.691   5.432 -0.2662 -0.4785 -0.2908
  398MOL0     C53645  -2.067   8.724   5.529 -0.4753  0.0611 -0.1591
  398MOL0     N53646  -1.250   8.569   5.978 -0.5136 -0.1125 -0.0803
  398MOL0     N53647  -1.187   8.458   5.992 -0.8072 -0.2883  0.5429
  398MOL0     C53648  -0.453   7.615   5.692  0.1908  0.7922  0.4326
  398MOL0     C53649  -0.312   7.583   5.680  0.4050 -0.3508 -0.3404
  398MOL0     C53650   0.144   7.672   5.606 -1.1647  0.4800 -0.5918
  398MOL0     C53651   0.135   7.602   5.477  0.6778 -0.3210  0.0477
  398MOL0     C53652   0.243   7.582   5.387 -0.6996 -0.1842 -0.2985
  398MOL0     C53653   0.373   7.615   5.427 -0.7300  0.1885 -0.1564
  398MOL0     O53654   0.465   7.587   5.325 -0.0993  0.4223  0.1605
  398MOL0     C53655   0.585   7.668   5.344  1.1482 -0.0268  0.2512
  398MOL0     C53656   0.692   7.629   5.242  0.2406  0.6443 -0.2443
  398MOL0     C53657   0.822   7.687   5.283 -1.1855 -0.9339 -0.3777
  398MOL0     C53658   0.918   7.682   5.169  0.0490  0.2774  0.1544
  398MOL0     C53659   1.047   7.742   5.193  0.0744 -0.5109  0.1516
  398MOL0     C53660   1.151   7.786   5.227 -1.0576 -0.0322 -0.7899
  398MOL0     C53661   0.396   7.675   5.554  0.9734 -0.4503 -0.3511
  398MOL0     C53662   0.282   7.698   5.634  0.4918  0.7313 -0.0586
  398MOL0     H53663  -0.182   7.858   5.809  2.0964 -1.6787 -1.8436
  398MOL0     H53664  -0.396   7.911   5.855  1.4170 -0.1911  1.8001
  398MOL0     H53665  -0.653   7.890   5.910  0.7441  0.4295 -0.2876
  398MOL0     H53666  -0.595   7.964   5.762  0.2633  0.2173  0.7911
  398MOL0     H53667  -0.806   8.043   5.744  3.0788  0.1267  1.1062
  398MOL0     H53668  -0.846   7.877   5.678 -0.5343 -0.6112  1.7379
  398MOL0     H53669  -0.890   7.791   5.880  0.0331  0.2276 -0.5820
  398MOL0     H53670  -0.856   7.940   5.968 -0.5059 -1.2058  0.2129
  398MOL0     H53671  -1.062   8.027   5.806 -1.0899  1.6929  2.7240
  398MOL0     H53672  -1.072   7.858   5.777  2.1467 -0.5460 -0.1056
  398MOL0     H53673  -1.119   7.819   6.022 -0.8181 -0.2981  2.6150
  398MOL0     H53674  -1.081   7.986   6.058 -0.9523  1.2696 -1.3317
  398MOL0     H53675  -1.301   7.912   5.858  0.5547 -0.1841 -0.5850
  398MOL0     H53676  -1.331   7.935   6.029 -0.6106 -1.4566 -1.5197
  398MOL0     H53677  -1.244   8.140   5.828 -1.1214  3.9737  0.1435
  398MOL0     H53678  -1.390   8.139   5.915  0.7433  2.8907 -0.1035
  398MOL0     H53679  -1.123   8.215   6.032 -0.2833 -0.6660  2.3179
  398MOL0     H53680  -1.276   8.201   6.128  1.6717  1.1775  1.6065
  398MOL0     H53681  -1.502   8.357   5.988 -1.0614  2.2834  0.0623
  398MOL0     H53682  -1.567   8.606   6.038 -0.4754 -3.5797 -0.5515
  398MOL0     H53683  -1.454   8.727   5.968  0.0546 -0.4098  1.2218
  398MOL0     H53684  -1.567   8.492   5.810  1.2638 -1.3380  4.7028
  398MOL0     H53685  -1.481   8.628   5.743 -0.4674 -0.7620 -0.9649
  398MOL0     H53686  -1.668   8.788   5.791 -0.6246  0.6803  3.2184
  398MOL0     H53687  -1.751   8.661   5.874 -1.5946 -0.6945 -0.8534
  398MOL0     H53688  -1.762   8.526   5.654 -2.6066  0.5303  0.6393
  398MOL0     H53689  -1.660   8.661   5.582  1.1026  2.6151  0.9287
  398MOL0     H53690  -1.813   8.528   5.446  1.2879  0.1783 -0.0839
  398MOL0     H53691  -1.957   8.449   5.153 -2.6960 -1.5825 -0.5611
  398MOL0     H53692  -1.854   8.372   5.274  0.1581 -0.1290  1.2267
  398MOL0     H53693  -2.032   8.330   5.247  0.8377 -0.0362  0.5570
  398MOL0     H53694  -2.467   8.286   5.181 -2.1988  0.9920  0.2917
  398MOL0     H53695  -2.622   8.274   5.008 -0.4657  0.0252  0.4394
  398MOL0     H53696  -2.706   8.231   4.819  0.3917 -0.3248 -0.4379
  398MOL0     H53697  -2.789   8.383   4.835 -1.0100 -1.8597 -1.0004
  398MOL0     H53698  -2.711   8.208   4.594 -0.9062 -0.2289 -0.7621
  398MOL0     H53699  -2.875   8.214   4.659  0.4939 -0.1770  0.0134
  398MOL0     H53700  -2.785   8.463   4.561  0.3032  0.3370  0.6908
  398MOL0     H53701  -2.943   8.375   4.546 -0.1463 -1.0869 -1.7349
  398MOL0     H53702  -2.700   8.296   4.367  0.1645  1.2836  1.3332
  398MOL0     H53703  -2.859   8.234   4.380  1.9810 -1.1621  1.8123
  398MOL0     H53704  -2.945   8.473   4.311  0.8619  1.8047 -0.4472
  398MOL0     H53705  -2.870   8.356   4.196 -1.1878  0.4858  0.8544
  398MOL0     H53706  -2.796   8.621   4.205  0.9581  0.0664 -0.1127
  398MOL0     H53707  -2.693   8.544   4.323  2.0931 -1.3186 -0.4283
  398MOL0     H53708  -2.626   8.377   4.141 -0.2330  0.1382  0.9711
  398MOL0     H53709  -2.562   8.543   4.135 -0.4105  0.9588 -2.6078
  398MOL0     H53710  -2.617   8.443   3.920 -1.2052 -2.3349 -0.8176
  398MOL0     H53711  -2.686   8.603   3.962 -0.9304 -0.1476  0.6283
  398MOL0     H53712  -2.409   8.546   4.771 -0.2869 -2.5613 -1.2204
  398MOL0     H53713  -2.225   8.564   4.961  1.3562 -0.6221  1.7904
  398MOL0     H53714  -2.261   8.730   5.436  0.3004  1.0590 -0.1319
  398MOL0     H53715  -2.086   8.796   5.608 -0.7216 -0.1480 -0.0298
  398MOL0     H53716  -0.531   7.554   5.645  0.0754 -0.7606  2.5096
  398MOL0     H53717  -0.283   7.483   5.650 -2.1152 -1.6822  1.2394
  398MOL0     H53718   0.035   7.566   5.456  1.5124 -1.0749 -3.2277
  398MOL0     H53719   0.232   7.527   5.294  0.9797 -0.7659 -0.1875
  398MOL0     H53720   0.558   7.774   5.336  2.7124  0.5555  1.9088
  398MOL0     H53721   0.622   7.649   5.445  0.7385 -1.0182  0.2263
  398MOL0     H53722   0.661   7.661   5.142  1.7481  3.6874  0.1540
  398MOL0     H53723   0.699   7.520   5.236  0.0911  0.6807 -1.2846
  398MOL0     H53724   0.864   7.630   5.366 -1.0930 -1.3065 -0.6775
  398MOL0     H53725   0.816   7.796   5.289  3.7852 -0.3720 -0.9216
  398MOL0     H53726   0.866   7.729   5.086 -1.1474 -1.6385 -0.2277
  398MOL0     H53727   0.928   7.574   5.151 -1.5093  0.5656 -3.0085
  398MOL0     H53728   1.246   7.816   5.266 -1.8508  0.0865  1.1445
  398MOL0     H53729   0.493   7.701   5.595  1.6323  0.9243 -2.5858
  398MOL0     H53730   0.288   7.739   5.734 -0.8045  0.9578 -0.0550
  399MOL0     O53731   0.303   4.170  10.459 -0.9555  0.1235 -0.2190
  399MOL0     C53732   0.298   4.100  10.358  1.2649  0.0120 -0.8964
  399MOL0     O53733   0.193   4.091  10.271 -0.1918  0.2438  0.2345
  399MOL0     C53734   0.080   4.156  10.291 -0.5425 -0.2520 -0.4267
  399MOL0     C53735   0.018   4.161  10.423  0.4355 -0.0447 -0.0680
  399MOL0     C53736  -0.102   4.234  10.438 -0.2419  0.4143 -0.1054
  399MOL0     C53737  -0.156   4.306  10.339  0.3832 -0.4216 -0.5346
  399MOL0     O53738  -0.261   4.390  10.364  0.4317  0.8681 -0.5515
  399MOL0     C53739  -0.382   4.311  10.377 -1.3102  0.4810  0.5617
  399MOL0     C53740  -0.482   4.403  10.444 -0.1085 -0.0517  0.0250
  399MOL0     C53741  -0.612   4.326  10.465  0.0450  0.6995 -0.2067
  399MOL0     C53742  -0.720   4.434  10.485  0.7585  0.8585 -1.0768
  399MOL0     C53743  -0.843   4.374  10.559  0.4957  0.7821  0.3492
  399MOL0     C53744  -0.977   4.448  10.539  0.0368 -0.5390 -0.0675
  399MOL0     C53745  -1.104   4.388  10.606 -0.2807 -0.2706  0.2688
  399MOL0     C53746  -1.164   4.266  10.542 -0.0921 -0.4329 -0.4546
  399MOL0     N53747  -1.275   4.218  10.622  0.0314  0.0622 -0.3763
  399MOL0     C53748  -1.262   4.164  10.750  0.2817  0.7615  0.9390
  399MOL0     C53749  -1.391   4.156  10.800 -0.8417  0.1796  0.5639
  399MOL0     C53750  -1.438   4.092  10.927  0.2640 -0.4494 -0.1844
  399MOL0     C53751  -1.500   4.192  11.025  0.1712 -0.2886 -0.6068
  399MOL0     C53752  -1.600   4.127  11.129  0.1242  0.4290  0.3590
  399MOL0     C53753  -1.728   4.201  11.159 -1.1632 -0.3029 -0.3319
  399MOL0     O53754  -1.693   4.334  11.209  0.6778 -0.5293 -0.2252
  399MOL0     C53755  -1.805   4.416  11.192 -0.2666  0.2627  0.3800
  399MOL0     C53756  -1.933   4.371  11.228  0.8933  0.1370  0.2119
  399MOL0     C53757  -2.043   4.456  11.210  0.7309 -0.8357  1.0917
  399MOL0     C53758  -2.178   4.400  11.226 -0.1245 -0.5083 -0.5649
  399MOL0     C53759  -2.021   4.588  11.147 -0.9076  0.0599 -0.3135
  399MOL0     C53760  -2.128   4.677  11.104 -0.1617  0.2637 -0.0033
  399MOL0     O53761  -2.250   4.676  11.167 -0.4580  0.5443 -0.5189
  399MOL0     C53762  -2.361   4.713  11.098 -0.7125 -0.8814 -0.1588
  399MOL0     C53763  -2.422   4.834  11.119  0.1394 -0.2511  0.5001
  399MOL0     C53764  -2.550   4.865  11.059 -0.0431  0.4088 -0.8377
  399MOL0     C53765  -2.603   4.779  10.969 -0.3180  0.1940 -0.1801
  399MOL0     O53766  -2.723   4.801  10.911  0.6818 -0.0669 -0.2488
  399MOL0     C53767  -2.830   4.699  10.935 -0.9931  0.2527  0.5261
  399MOL0     C53768  -2.907   4.748  11.047  0.1761  0.4528 -0.7899
  399MOL0     C53769  -3.041   4.668  11.075  0.5966 -0.1641  0.1881
  399MOL0     C53770  -3.146   4.644  10.955 -0.1585 -0.7797  0.4414
  399MOL0     C53771  -3.296   4.647  11.013  0.4929 -0.8155  0.3014
  399MOL0     C53772  -3.388   4.649  10.882  0.3573  0.0549 -0.1870
  399MOL0     C53773  -3.527   4.670  10.927 -0.2920 -0.3936  0.4131
  399MOL0     C53774  -3.622   4.656  10.815 -0.0903  0.2592 -0.9292
  399MOL0    Cl53775  -3.782   4.721  10.841  0.2871 -0.2138  0.1640
  399MOL0     C53776  -2.535   4.657  10.943 -0.8550  0.2204 -0.4231
  399MOL0     C53777  -2.410   4.629  11.004  0.4068  0.1285 -0.2211
  399MOL0     O53778  -2.103   4.741  11.003 -0.6180  0.0461 -0.3497
  399MOL0     C53779  -1.890   4.632  11.128  0.1195  0.0319 -0.5832
  399MOL0     C53780  -1.777   4.554  11.148 -0.3416  0.0649  0.0119
  399MOL0     N53781  -1.479   4.217  10.708 -0.7101 -0.0948 -0.0051
  399MOL0     N53782  -1.407   4.265  10.613 -0.3011 -0.1774  0.0400
  399MOL0     C53783  -0.096   4.309  10.215  0.2711 -0.4140 -0.3241
  399MOL0     C53784   0.026   4.232  10.192 -0.0351  0.2825 -0.1274
  399MOL0     C53785   0.412   4.008  10.345  0.0029 -0.9642  0.0037
  399MOL0     C53786   0.441   3.935  10.230 -0.0674 -0.9462  0.0465
  399MOL0     C53787   0.548   3.844  10.221  0.3717  0.3794  0.6070
  399MOL0     C53788   0.641   3.840  10.316 -1.0950  0.0575  0.4930
  399MOL0     O53789   0.755   3.766  10.282  0.0474 -0.3627  0.3076
  399MOL0     C53790   0.889   3.792  10.341 -0.2553 -0.0669  0.4400
  399MOL0     C53791   0.938   3.701  10.455 -0.6391  1.0771 -0.3256
  399MOL0     C53792   0.826   3.637  10.535  0.1615 -0.0427  0.1959
  399MOL0     C53793   0.871   3.550  10.660  0.2272 -0.0650 -0.2876
  399MOL0     C53794   0.935   3.427  10.614  0.3139  0.6568  0.1004
  399MOL0     C53795   0.979   3.328  10.566 -0.0490 -0.4542 -0.1614
  399MOL0     C53796   0.630   3.920  10.429  0.8907 -0.2530 -0.3805
  399MOL0     C53797   0.513   4.000  10.446  0.9480 -0.0724 -0.2442
  399MOL0     H53798   0.062   4.104  10.504  3.7286 -0.6083 -2.0658
  399MOL0     H53799  -0.138   4.239  10.540  1.5858 -0.9088  0.6430
  399MOL0     H53800  -0.425   4.296  10.277 -1.5882  1.9225  0.4399
  399MOL0     H53801  -0.367   4.217  10.430  2.2615  0.6622  0.1327
  399MOL0     H53802  -0.431   4.445  10.531  2.1392 -1.9878 -0.2462
  399MOL0     H53803  -0.509   4.489  10.383 -2.6148 -1.1500 -0.5390
  399MOL0     H53804  -0.637   4.246  10.393  0.0131 -0.9990  1.6086
  399MOL0     H53805  -0.599   4.270  10.558  0.4124  0.6578 -0.2826
  399MOL0     H53806  -0.679   4.517  10.543  1.8548  0.5872 -1.4367
  399MOL0     H53807  -0.750   4.462  10.383 -0.9476 -1.7027 -1.3680
  399MOL0     H53808  -0.867   4.270  10.536 -1.3027  0.9338  1.3327
  399MOL0     H53809  -0.817   4.368  10.665  0.5476 -0.8449  0.2638
  399MOL0     H53810  -0.954   4.543  10.588  3.2246 -0.3127 -1.7510
  399MOL0     H53811  -1.006   4.465  10.435 -3.2397  0.6860  0.9323
  399MOL0     H53812  -1.090   4.370  10.713 -0.2519 -0.2234  0.2730
  399MOL0     H53813  -1.179   4.466  10.591 -1.5929 -1.8713 -2.1110
  399MOL0     H53814  -1.093   4.186  10.516 -0.5186 -0.6586 -0.9495
  399MOL0     H53815  -1.209   4.303  10.450 -0.3008 -0.5724 -0.4111
  399MOL0     H53816  -1.176   4.139  10.811  0.1022  1.4378  1.4703
  399MOL0     H53817  -1.500   4.008  10.895 -0.7297  0.5331 -0.9425
  399MOL0     H53818  -1.360   4.042  10.985  0.7862 -0.3901 -0.8341
  399MOL0     H53819  -1.537   4.281  10.975  0.1119 -0.4285 -0.8159
  399MOL0     H53820  -1.414   4.238  11.075  0.2622  0.4726 -1.4517
  399MOL0     H53821  -1.547   4.117  11.225  0.0982 -2.8754  0.1449
  399MOL0     H53822  -1.617   4.023  11.099 -0.7088  1.0920 -1.5907
  399MOL0     H53823  -1.776   4.132  11.229  1.8362 -1.9378  0.2604
  399MOL0     H53824  -1.783   4.197  11.064 -4.0980 -0.5716  1.2442
  399MOL0     H53825  -1.945   4.276  11.280 -1.4012  0.7050  0.8108
  399MOL0     H53826  -2.232   4.403  11.130  0.9313 -0.0004 -1.1496
  399MOL0     H53827  -2.167   4.293  11.245 -0.1539 -0.6253 -1.1664
  399MOL0     H53828  -2.226   4.434  11.318 -2.7372 -3.6507 -0.5755
  399MOL0     H53829  -2.379   4.898  11.195  3.5724 -1.1915 -0.4560
  399MOL0     H53830  -2.597   4.955  11.096  1.7044  1.3508 -0.8259
  399MOL0     H53831  -2.894   4.695  10.846 -1.3169  0.2608  0.7566
  399MOL0     H53832  -2.792   4.598  10.953  2.4909  1.4206  0.3338
  399MOL0     H53833  -2.844   4.743  11.136  0.4987  0.6830 -1.0040
  399MOL0     H53834  -2.934   4.854  11.044  0.3740  0.5131 -0.4904
  399MOL0     H53835  -3.092   4.724  11.154  2.1537  0.9193  0.4636
  399MOL0     H53836  -3.010   4.576  11.126 -2.6508 -2.0516 -0.9242
  399MOL0     H53837  -3.131   4.729  10.887  0.2932  1.5451  3.2319
  399MOL0     H53838  -3.124   4.553  10.899 -0.7969 -0.4664 -0.3547
  399MOL0     H53839  -3.314   4.738  11.072  1.2442  2.1339 -3.5718
  399MOL0     H53840  -3.307   4.558  11.076  0.5385 -0.2758  1.0873
  399MOL0     H53841  -3.353   4.732  10.821  1.4332 -0.9748 -1.0293
  399MOL0     H53842  -3.379   4.550  10.837 -0.0433  0.9676 -2.3687
  399MOL0     H53843  -3.521   4.769  10.973  0.5776 -0.0344 -0.4318
  399MOL0     H53844  -3.555   4.592  10.998  2.9666 -1.3400  0.8325
  399MOL0     H53845  -3.627   4.550  10.789  3.8344 -0.6609  1.2830
  399MOL0     H53846  -3.592   4.707  10.723  0.7130 -1.8871 -1.9182
  399MOL0     H53847  -2.571   4.580  10.875  0.2446  2.3423 -3.6350
  399MOL0     H53848  -2.357   4.537  10.984 -0.3213 -0.9882  2.5362
  399MOL0     H53849  -1.876   4.729  11.082  0.0192 -1.0032 -2.9359
  399MOL0     H53850  -1.681   4.602  11.131 -0.9581  1.9600  1.5107
  399MOL0     H53851  -0.126   4.367  10.128  0.7499  1.2600  0.5777
  399MOL0     H53852   0.084   4.231  10.101  0.1962 -1.6730  0.0018
  399MOL0     H53853   0.394   3.936  10.133  0.2412 -1.0701 -0.1065
  399MOL0     H53854   0.569   3.779  10.137 -2.8073 -1.1578  0.8434
  399MOL0     H53855   0.962   3.779  10.261 -1.0452  0.8675 -0.4605
  399MOL0     H53856   0.895   3.889  10.391 -1.7465 -0.5002  1.5552
  399MOL0     H53857   1.009   3.755  10.518  1.1427  0.0404 -1.3355
  399MOL0     H53858   0.998   3.622  10.410  0.7114  0.7441  1.9104
  399MOL0     H53859   0.762   3.578  10.468  1.5501 -1.3036 -0.0791
  399MOL0     H53860   0.763   3.720  10.569  1.5922  1.5358 -0.8515
  399MOL0     H53861   0.783   3.531  10.721  0.7173  1.6245  1.0268
  399MOL0     H53862   0.938   3.606  10.726  2.8522  0.5330 -3.2028
  399MOL0     H53863   1.015   3.232  10.533 -0.6084 -0.7916  0.1847
  399MOL0     H53864   0.707   3.910  10.505  0.3480 -0.6614  0.1214
  399MOL0     H53865   0.502   4.071  10.527  1.3360  1.4151 -1.4498
  400MOL0     O53866   0.956   5.270   4.688  0.1058  0.4248  0.1593
  400MOL0     C53867   0.974   5.331   4.794 -0.4854 -0.4682  0.5854
  400MOL0     O53868   0.883   5.417   4.848  0.3778 -0.3599  0.0225
  400MOL0     C53869   0.771   5.474   4.792 -0.2142 -0.8028 -0.8335
  400MOL0     C53870   0.743   5.467   4.659 -0.1768 -0.7433 -0.1584
  400MOL0     C53871   0.637   5.537   4.606 -0.3034  0.5035  0.0389
  400MOL0     C53872   0.554   5.619   4.682  1.6848 -1.4589 -0.9401
  400MOL0     O53873   0.438   5.668   4.617 -1.0335 -0.6155  0.5220
  400MOL0     C53874   0.347   5.751   4.690  0.5882  0.1613  0.1937
  400MOL0     C53875   0.225   5.659   4.721  0.8514  0.7570 -0.6326
  400MOL0     C53876   0.122   5.734   4.794  0.5980  0.4536 -0.4751
  400MOL0     C53877   0.028   5.632   4.860  0.3722  0.9911 -0.2639
  400MOL0     C53878  -0.072   5.695   4.951  0.6666 -0.7694  0.1491
  400MOL0     C53879  -0.180   5.590   4.975 -0.1997  0.1136 -1.2036
  400MOL0     C53880  -0.303   5.650   5.050 -0.0243 -1.4428 -0.7003
  400MOL0     C53881  -0.371   5.548   5.129  0.1120  0.2177  0.4032
  400MOL0     N53882  -0.488   5.604   5.209  0.0500  1.0058 -0.0810
  400MOL0     C53883  -0.489   5.681   5.323 -0.8068  0.4344  1.0554
  400MOL0     C53884  -0.616   5.698   5.372 -0.8307  0.4081 -0.1218
  400MOL0     C53885  -0.663   5.767   5.500 -0.5079  0.1183 -0.5688
  400MOL0     C53886  -0.773   5.869   5.493  0.0151 -0.1004 -0.1630
  400MOL0     C53887  -0.910   5.818   5.483  0.5718  0.2822  0.4664
  400MOL0     C53888  -1.032   5.906   5.459  0.2874 -0.2458  0.5284
  400MOL0     O53889  -1.160   5.846   5.475 -0.7802  0.7291  0.1178
  400MOL0     C53890  -1.276   5.911   5.465 -0.1156 -0.8330 -0.1937
  400MOL0     C53891  -1.293   6.053   5.458 -0.7022  0.0496 -1.2413
  400MOL0     C53892  -1.409   6.127   5.460  0.1264 -0.3964  0.3282
  400MOL0     C53893  -1.404   6.277   5.440 -0.1499  0.9326 -0.0391
  400MOL0     C53894  -1.526   6.054   5.477  1.2202 -0.0074 -0.1361
  400MOL0     C53895  -1.668   6.115   5.472  0.0002 -0.2916 -0.0758
  400MOL0     O53896  -1.771   6.025   5.492  0.9868  0.1689  0.1733
  400MOL0     C53897  -1.898   6.066   5.468  1.3843  0.0444 -0.5520
  400MOL0     C53898  -1.930   6.152   5.362 -0.1227 -0.0715  1.0990
  400MOL0     C53899  -2.063   6.183   5.344  0.1965 -0.3786 -0.6464
  400MOL0     C53900  -2.165   6.152   5.433 -0.7452 -0.9129 -0.0863
  400MOL0     O53901  -2.290   6.202   5.414  0.7799 -0.5762  0.6007
  400MOL0     C53902  -2.382   6.179   5.519 -0.3092 -0.3284  0.5516
  400MOL0     C53903  -2.509   6.262   5.475 -0.7355 -0.7042  0.2751
  400MOL0     C53904  -2.615   6.306   5.584 -0.8169  0.2642  1.0616
  400MOL0     C53905  -2.678   6.446   5.562 -0.0794  0.1979 -0.0225
  400MOL0     C53906  -2.769   6.472   5.683  0.3505  0.2678  0.3663
  400MOL0     C53907  -2.865   6.582   5.643 -0.3570 -0.4941  0.8423
  400MOL0     C53908  -2.979   6.588   5.743  0.4927 -0.3151 -0.1387
  400MOL0     C53909  -3.092   6.687   5.696  0.0972 -0.7655 -0.3718
  400MOL0    Cl53910  -3.225   6.679   5.804  0.0156 -0.0179  0.0701
  400MOL0     C53911  -2.129   6.062   5.533  0.9390  0.2018 -0.2336
  400MOL0     C53912  -2.003   6.016   5.554  0.3754  0.5674 -0.4602
  400MOL0     O53913  -1.692   6.236   5.458  0.4323  0.2528  0.0110
  400MOL0     C53914  -1.521   5.914   5.493 -0.4749 -0.9202  0.1233
  400MOL0     C53915  -1.401   5.842   5.484 -0.8495  0.1181  0.1835
  400MOL0     N53916  -0.682   5.610   5.287 -0.2336  0.0234  0.0569
  400MOL0     N53917  -0.612   5.551   5.203  0.0187 -0.0420 -0.2766
  400MOL0     C53918   0.585   5.624   4.820 -0.0339  0.4258  0.1554
  400MOL0     C53919   0.693   5.549   4.877 -0.4065 -0.2415  0.2342
  400MOL0     C53920   1.099   5.314   4.862  0.3818 -0.2689  0.0710
  400MOL0     C53921   1.130   5.378   4.980  0.0213  0.2239 -0.4276
  400MOL0     C53922   1.250   5.356   5.045  0.2711 -0.1568  0.3690
  400MOL0     C53923   1.352   5.272   4.997 -0.3834 -0.7292 -0.9016
  400MOL0     O53924   1.472   5.267   5.066  0.0051  0.6724 -0.2623
  400MOL0     C53925   1.577   5.190   5.016 -0.4122  0.0304  0.7987
  400MOL0     C53926   1.662   5.155   5.140  0.1032  0.2802  0.4786
  400MOL0     C53927   1.760   5.051   5.118 -0.3509  0.0565  0.3053
  400MOL0     C53928   1.844   5.024   5.247 -0.9334  0.6825  0.2858
  400MOL0     C53929   1.932   4.908   5.238 -0.6106 -0.2939 -0.5264
  400MOL0     C53930   2.006   4.812   5.238  0.5474  0.4465 -1.0597
  400MOL0     C53931   1.325   5.212   4.874 -0.5258 -0.0110  0.1563
  400MOL0     C53932   1.202   5.231   4.807  0.5912  0.0115 -0.5277
  400MOL0     H53933   0.804   5.419   4.584 -2.3037 -0.4324 -2.1977
  400MOL0     H53934   0.606   5.524   4.502 -0.4598  1.4262 -0.0356
  400MOL0     H53935   0.394   5.790   4.781  5.5058 -2.0239 -1.0648
  400MOL0     H53936   0.312   5.833   4.626 -2.7705 -1.3752 -0.1483
  400MOL0     H53937   0.180   5.634   4.624 -0.1766  2.5710 -0.6724
  400MOL0     H53938   0.256   5.573   4.781 -0.5982  2.2262  2.4232
  400MOL0     H53939   0.157   5.779   4.887 -1.8396 -0.0954  0.7992
  400MOL0     H53940   0.070   5.800   4.725 -0.8759 -3.1937 -3.1754
  400MOL0     H53941  -0.025   5.591   4.774  1.5057 -0.2888 -0.3705
  400MOL0     H53942   0.070   5.549   4.916 -1.8867  0.0553  0.1560
  400MOL0     H53943  -0.023   5.730   5.043 -0.4687  3.8860 -0.7546
  400MOL0     H53944  -0.119   5.780   4.900 -0.7373 -0.6295  1.5842
  400MOL0     H53945  -0.219   5.553   4.880  0.6098  1.6689 -2.1683
  400MOL0     H53946  -0.131   5.510   5.033 -1.0412 -0.3750 -1.1490
  400MOL0     H53947  -0.272   5.724   5.125 -0.4932 -2.8702  0.9888
  400MOL0     H53948  -0.367   5.685   4.969  0.9687 -0.0849 -0.9282
  400MOL0     H53949  -0.300   5.503   5.200  0.3936 -0.6342 -0.3992
  400MOL0     H53950  -0.398   5.469   5.059  0.2359  0.4418  0.1014
  400MOL0     H53951  -0.391   5.720   5.351  1.6128 -3.2244 -1.3711
  400MOL0     H53952  -0.698   5.686   5.564 -0.1942 -0.6376 -1.3377
  400MOL0     H53953  -0.574   5.809   5.548 -0.9857 -0.8565  1.2586
  400MOL0     H53954  -0.756   5.928   5.403  1.0835 -1.0116 -0.5745
  400MOL0     H53955  -0.760   5.931   5.583 -1.5247 -0.5259  0.3879
  400MOL0     H53956  -0.914   5.759   5.575  0.3350  0.1617  0.3803
  400MOL0     H53957  -0.918   5.746   5.400 -0.7851  1.8682 -0.8390
  400MOL0     H53958  -1.025   5.954   5.360 -1.6519  1.3544  1.1037
  400MOL0     H53959  -1.026   5.990   5.529 -0.0791 -0.5877  0.9760
  400MOL0     H53960  -1.200   6.109   5.461  0.4233 -1.7743 -0.0123
  400MOL0     H53961  -1.308   6.312   5.480  1.3528 -0.8064 -1.8434
  400MOL0     H53962  -1.401   6.304   5.334  4.1112 -0.2083 -0.4205
  400MOL0     H53963  -1.481   6.335   5.491 -0.5913  0.1017  0.2545
  400MOL0     H53964  -1.852   6.194   5.300 -0.5375 -1.5873 -0.5309
  400MOL0     H53965  -2.090   6.258   5.270 -0.9285  1.9091  1.9015
  400MOL0     H53966  -2.413   6.074   5.529 -2.8096  0.3710  1.0221
  400MOL0     H53967  -2.331   6.214   5.609  2.4196  0.2253 -1.0919
  400MOL0     H53968  -2.469   6.352   5.426  0.0708 -3.1407 -4.1444
  400MOL0     H53969  -2.553   6.195   5.401  0.4503 -2.0940  0.7715
  400MOL0     H53970  -2.574   6.312   5.685  0.0580 -1.6773  0.8673
  400MOL0     H53971  -2.693   6.230   5.585 -0.0929 -0.6597 -1.9438
  400MOL0     H53972  -2.595   6.517   5.557 -0.1847  0.2843 -0.6598
  400MOL0     H53973  -2.725   6.459   5.464 -1.3370 -0.5528  0.4637
  400MOL0     H53974  -2.725   6.495   5.780  1.4557 -0.6878  0.1178
  400MOL0     H53975  -2.836   6.386   5.698 -1.9538  2.1462  1.4771
  400MOL0     H53976  -2.807   6.674   5.638  0.6674 -1.0460  1.9053
  400MOL0     H53977  -2.917   6.560   5.549  1.2031 -3.4073  0.5349
  400MOL0     H53978  -2.934   6.607   5.841 -0.4050  1.2854 -0.0015
  400MOL0     H53979  -3.025   6.488   5.739  1.0883 -0.5482 -1.8467
  400MOL0     H53980  -3.125   6.668   5.593  0.2883 -0.3694 -0.5068
  400MOL0     H53981  -3.047   6.786   5.689 -0.0137 -0.7545 -1.0359
  400MOL0     H53982  -2.199   6.028   5.609  0.9446  1.4137  0.3406
  400MOL0     H53983  -1.973   5.967   5.647 -0.7576  1.0375  0.1723
  400MOL0     H53984  -1.612   5.858   5.512 -1.2844 -0.2419 -1.5265
  400MOL0     H53985  -1.397   5.734   5.495 -0.6941 -0.0166 -1.0295
  400MOL0     H53986   0.527   5.679   4.893  0.6595 -0.9097  1.7802
  400MOL0     H53987   0.705   5.558   4.984 -0.5509 -0.6829  0.2915
  400MOL0     H53988   1.056   5.448   5.016 -1.6059 -1.6756  0.1345
  400MOL0     H53989   1.270   5.399   5.143 -0.5663 -0.8489  0.8560
  400MOL0     H53990   1.545   5.099   4.964  1.3924  1.1420 -2.5318
  400MOL0     H53991   1.642   5.241   4.945  1.6872  0.9089  3.2116
  400MOL0     H53992   1.603   5.127   5.228  1.1708  0.8006  1.3822
  400MOL0     H53993   1.718   5.242   5.176 -0.1016 -0.0624  1.6845
  400MOL0     H53994   1.834   5.082   5.043  1.3592 -0.7707  1.5849
  400MOL0     H53995   1.708   4.958   5.091 -0.3264  0.4758 -1.3086
  400MOL0     H53996   1.789   5.018   5.341  0.7295 -2.2649  1.2024
  400MOL0     H53997   1.907   5.112   5.263  0.2366 -0.5388  2.9306
  400MOL0     H53998   2.076   4.731   5.236 -1.6609 -1.6594  0.4535
  400MOL0     H53999   1.398   5.156   4.816  2.3699  1.0730  2.4843
  400MOL0     H54000   1.201   5.181   4.711  0.1614  0.4184 -0.7423
  401MOL0     O54001   2.939   3.876   9.542 -0.0530 -0.5462 -0.3542
  401MOL0     C54002   2.973   3.872   9.656  0.6277  0.7959 -0.6532
  401MOL0     O54003   2.916   3.953   9.754  0.2410  0.0916  0.0921
  401MOL0     C54004   2.787   4.003   9.739 -0.1136 -0.2764 -0.3219
  401MOL0     C54005   2.766   4.144   9.747 -0.6239  0.8612  0.4276
  401MOL0     C54006   2.643   4.193   9.723  0.2828 -0.5466  0.1270
  401MOL0     C54007   2.539   4.111   9.681  0.7131 -0.2503  0.5278
  401MOL0     O54008   2.415   4.180   9.661  0.0353 -0.6604 -0.1444
  401MOL0     C54009   2.318   4.118   9.575 -0.6918  0.1664  0.2954
  401MOL0     C54010   2.226   4.217   9.505  1.0349  0.3344 -0.2830
  401MOL0     C54011   2.076   4.172   9.483  0.5093 -0.0008  0.1382
  401MOL0     C54012   2.060   4.043   9.393  0.5634 -0.2291 -0.8585
  401MOL0     C54013   1.915   4.005   9.364 -0.1010 -0.0355 -0.1700
  401MOL0     C54014   1.912   3.902   9.244 -0.1733 -0.0438  0.4015
  401MOL0     C54015   1.768   3.832   9.231  0.3809 -0.8646 -0.0727
  401MOL0     C54016   1.656   3.942   9.196  0.3393  0.1081  0.6232
  401MOL0     N54017   1.557   3.887   9.096 -0.1029  0.3080 -0.1674
  401MOL0     C54018   1.471   3.788   9.112 -0.3146  0.4802  0.8020
  401MOL0     C54019   1.376   3.810   9.017 -0.5930  0.3245  0.0454
  401MOL0     C54020   1.260   3.719   9.018 -0.7850  0.5605 -0.4585
  401MOL0     C54021   1.140   3.790   9.091 -0.7149  0.0698 -0.6994
  401MOL0     C54022   1.021   3.697   9.117 -0.2743  0.2987 -0.6068
  401MOL0     C54023   0.962   3.643   8.990 -0.5347 -0.7707  0.2504
  401MOL0     O54024   0.846   3.586   9.047  0.0365  0.9093  0.3959
  401MOL0     C54025   0.733   3.592   8.970 -0.1545 -0.3062 -0.4659
  401MOL0     C54026   0.622   3.535   9.035  0.0633  0.1418  0.1080
  401MOL0     C54027   0.487   3.528   8.982  0.0662 -0.4780  0.2392
  401MOL0     C54028   0.375   3.478   9.070 -0.3971  0.5092  0.1048
  401MOL0     C54029   0.458   3.578   8.853  0.4778 -0.7784 -0.6335
  401MOL0     C54030   0.319   3.583   8.778 -0.1123  0.1840  0.4006
  401MOL0     O54031   0.315   3.638   8.659 -0.0105 -0.4778  0.5288
  401MOL0     C54032   0.197   3.627   8.581 -0.1944 -0.1569  0.3561
  401MOL0     C54033   0.138   3.749   8.534 -0.6770 -0.6918  0.3496
  401MOL0     C54034   0.037   3.753   8.441 -0.5952 -0.4651 -0.0793
  401MOL0     C54035  -0.015   3.630   8.396 -0.2265  0.4464 -0.5938
  401MOL0     O54036  -0.125   3.617   8.308 -0.9361 -0.7370 -0.2026
  401MOL0     C54037  -0.184   3.742   8.258 -0.1542  0.9175  0.2798
  401MOL0     C54038  -0.274   3.700   8.142  0.7449  0.1041  0.6056
  401MOL0     C54039  -0.374   3.588   8.178 -0.1780 -0.1140  0.3419
  401MOL0     C54040  -0.478   3.573   8.071 -0.0337 -0.3120  0.0799
  401MOL0     C54041  -0.432   3.516   7.938  0.0171  0.6523  0.7548
  401MOL0     C54042  -0.554   3.513   7.847  0.2966  0.3159  1.1265
  401MOL0     C54043  -0.520   3.498   7.694 -0.2801 -0.9672 -0.3679
  401MOL0     C54044  -0.385   3.567   7.652  0.6389  0.5791  0.5038
  401MOL0    Cl54045  -0.364   3.533   7.478 -0.3974  0.3796 -0.3605
  401MOL0     C54046   0.029   3.504   8.460  0.1659 -0.0598  0.1089
  401MOL0     C54047   0.135   3.510   8.552  0.2979 -0.4867 -0.1244
  401MOL0     O54048   0.227   3.523   8.824 -0.1207 -0.4641  0.6008
  401MOL0     C54049   0.575   3.636   8.785  0.9336 -0.9246  0.1019
  401MOL0     C54050   0.717   3.637   8.838  0.6747 -0.6308  0.4125
  401MOL0     N54051   1.414   3.923   8.943  0.1193  0.4480  0.0384
  401MOL0     N54052   1.524   3.964   8.992 -0.4587  0.4944 -0.3489
  401MOL0     C54053   2.560   3.976   9.653  0.8866 -0.3011  0.1851
  401MOL0     C54054   2.686   3.920   9.681 -1.0574  0.2130 -0.1597
  401MOL0     C54055   3.099   3.804   9.683  0.5201  0.6010  0.3065
  401MOL0     C54056   3.147   3.789   9.819  0.1398  0.1421  0.9273
  401MOL0     C54057   3.263   3.717   9.841  0.4304  0.8126 -0.7744
  401MOL0     C54058   3.346   3.668   9.735  0.2963  0.3275 -0.7936
  401MOL0     O54059   3.473   3.613   9.766 -0.1774 -0.2182 -0.5769
  401MOL0     C54060   3.560   3.579   9.657  0.0055  0.1151 -0.0957
  401MOL0     C54061   3.537   3.434   9.616 -0.0051  0.0594 -0.0290
  401MOL0     C54062   3.660   3.393   9.539  0.0364  0.4495  0.7397
  401MOL0     C54063   3.644   3.243   9.510 -0.6946  0.2482  0.1986
  401MOL0     C54064   3.784   3.191   9.487  0.3375 -0.3754  0.0770
  401MOL0     C54065   3.899   3.156   9.485  1.6228  0.2062 -0.3677
  401MOL0     C54066   3.293   3.684   9.604 -0.3270  1.0182  0.6495
  401MOL0     C54067   3.178   3.747   9.579  0.1552 -0.7001  0.2262
  401MOL0     H54068   2.850   4.206   9.778  1.4033 -0.6622 -1.6400
  401MOL0     H54069   2.626   4.297   9.751  1.7986  0.1405 -1.3457
  401MOL0     H54070   2.370   4.057   9.500 -0.2427 -1.0220  1.5222
  401MOL0     H54071   2.253   4.044   9.622 -1.2738  0.6420  0.2439
  401MOL0     H54072   2.215   4.312   9.559 -0.6170  0.2840 -0.4684
  401MOL0     H54073   2.268   4.246   9.408  1.2358 -1.5494 -0.8000
  401MOL0     H54074   2.026   4.158   9.579 -0.2711  4.8375  0.7149
  401MOL0     H54075   2.028   4.255   9.429  0.4587 -0.0606  0.0909
  401MOL0     H54076   2.114   4.061   9.299 -1.3718  3.2610 -1.4701
  401MOL0     H54077   2.110   3.956   9.436 -1.6468 -2.1988 -2.0785
  401MOL0     H54078   1.874   3.949   9.448  1.0572 -0.7939 -0.0954
  401MOL0     H54079   1.855   4.097   9.352  0.8480  0.9712  2.0738
  401MOL0     H54080   1.937   3.942   9.145 -2.4868 -1.6309 -0.9440
  401MOL0     H54081   1.992   3.829   9.257  0.1631  0.2917  0.2288
  401MOL0     H54082   1.769   3.765   9.145 -2.8041 -2.2130  0.8184
  401MOL0     H54083   1.733   3.775   9.317 -0.0020  0.0234  0.3776
  401MOL0     H54084   1.709   4.016   9.136  2.2125  0.4228  2.5556
  401MOL0     H54085   1.606   4.002   9.273 -3.5650  1.9643 -2.9545
  401MOL0     H54086   1.476   3.705   9.181  1.4025 -0.1839 -0.0529
  401MOL0     H54087   1.240   3.683   8.917 -1.5474  1.6597 -0.7200
  401MOL0     H54088   1.283   3.631   9.078  0.3631 -0.4790 -2.3391
  401MOL0     H54089   1.103   3.872   9.028 -1.7022  0.7437  0.7051
  401MOL0     H54090   1.175   3.838   9.183  0.5585 -3.1270  0.6252
  401MOL0     H54091   0.943   3.750   9.173 -1.8928 -3.2502  0.7847
  401MOL0     H54092   1.048   3.608   9.174  2.2905  1.2527 -0.1982
  401MOL0     H54093   1.037   3.585   8.936  3.3126  1.9868  2.2147
  401MOL0     H54094   0.940   3.730   8.928 -3.1656 -1.0767  0.6031
  401MOL0     H54095   0.631   3.511   9.141 -1.5574  3.4721  1.1258
  401MOL0     H54096   0.285   3.539   9.054 -0.1141  0.6272 -1.1269
  401MOL0     H54097   0.356   3.379   9.028  0.1434  1.0714 -1.5047
  401MOL0     H54098   0.401   3.466   9.176  3.5426 -0.0814 -0.7943
  401MOL0     H54099   0.185   3.842   8.561 -1.5563 -0.5212  1.3555
  401MOL0     H54100   0.007   3.846   8.393 -0.1177 -1.5424 -2.5827
  401MOL0     H54101  -0.232   3.789   8.345  0.1879  0.6797  0.6023
  401MOL0     H54102  -0.113   3.816   8.221  1.1546 -0.6306 -0.4248
  401MOL0     H54103  -0.338   3.781   8.106 -0.0669 -0.6788  0.2158
  401MOL0     H54104  -0.208   3.672   8.059 -1.2151  4.1667 -2.6989
  401MOL0     H54105  -0.409   3.621   8.276  2.9555 -1.1344  1.9279
  401MOL0     H54106  -0.330   3.488   8.185 -1.3020 -0.7210 -0.7504
  401MOL0     H54107  -0.550   3.507   8.120 -1.2023  1.5447  0.9646
  401MOL0     H54108  -0.532   3.667   8.056  0.3810 -0.1394 -0.3424
  401MOL0     H54109  -0.403   3.411   7.943 -1.1449  0.0635 -2.4166
  401MOL0     H54110  -0.351   3.578   7.897  1.2116 -0.0496  1.9885
  401MOL0     H54111  -0.620   3.426   7.861  0.1677  0.0493 -0.7849
  401MOL0     H54112  -0.617   3.601   7.862 -0.1239  0.2987 -0.3325
  401MOL0     H54113  -0.613   3.533   7.647  0.6790  1.9781 -0.2571
  401MOL0     H54114  -0.510   3.390   7.675  2.8047 -0.1507 -4.8100
  401MOL0     H54115  -0.303   3.521   7.708  0.6108  1.5960  1.4181
  401MOL0     H54116  -0.394   3.676   7.662 -1.2338  0.3944  1.1724
  401MOL0     H54117  -0.012   3.406   8.438  0.0043 -0.3071  1.3916
  401MOL0     H54118   0.171   3.417   8.595 -3.2031 -3.0400 -2.1237
  401MOL0     H54119   0.554   3.694   8.696 -1.2831  0.0207  1.1738
  401MOL0     H54120   0.795   3.678   8.775  1.8126  0.9710  2.7466
  401MOL0     H54121   2.484   3.908   9.615  2.8398 -1.0328 -2.7205
  401MOL0     H54122   2.699   3.815   9.656 -0.7890  0.6330 -1.9880
  401MOL0     H54123   3.092   3.826   9.904 -0.5993 -1.6425  1.2777
  401MOL0     H54124   3.284   3.697   9.945  0.2303  3.2489 -0.1994
  401MOL0     H54125   3.554   3.650   9.575 -1.9997  1.1888  0.9142
  401MOL0     H54126   3.656   3.597   9.707 -1.6640 -0.7574  3.8278
  401MOL0     H54127   3.447   3.420   9.555 -0.0229 -0.4988  0.1167
  401MOL0     H54128   3.532   3.374   9.708  0.5152 -1.4091 -0.9359
  401MOL0     H54129   3.748   3.419   9.598 -0.1852 -2.0540  2.3405
  401MOL0     H54130   3.668   3.451   9.446  0.9031 -0.2236  0.3788
  401MOL0     H54131   3.582   3.224   9.422 -2.2696 -0.0743  1.3354
  401MOL0     H54132   3.604   3.191   9.598 -0.3100 -1.4519 -0.5874
  401MOL0     H54133   3.998   3.115   9.492  0.6639 -2.4477 -0.9192
  401MOL0     H54134   3.347   3.643   9.519  1.2759 -1.1357  2.5755
  401MOL0     H54135   3.148   3.763   9.476  0.2688 -1.3311  0.0956
  402MOL0     O54136   0.219   3.876   7.268  0.3210 -0.8837 -0.3820
  402MOL0     C54137   0.222   3.883   7.142  0.9363  0.1119  1.2546
  402MOL0     O54138   0.177   3.790   7.059  0.3781  0.3333 -0.4582
  402MOL0     C54139   0.099   3.686   7.101  0.8540 -0.6144 -0.3091
  402MOL0     C54140   0.008   3.684   7.212  1.1879  0.6459 -1.1191
  402MOL0     C54141  -0.074   3.568   7.240  0.6853 -0.1814  0.1491
  402MOL0     C54142  -0.049   3.449   7.179 -0.6762 -0.8969 -0.1033
  402MOL0     O54143  -0.118   3.333   7.214  0.5265 -0.4640  0.5602
  402MOL0     C54144  -0.076   3.280   7.341 -0.8656 -0.1139 -0.4767
  402MOL0     C54145  -0.124   3.139   7.351 -1.0335 -1.0725 -0.6755
  402MOL0     C54146  -0.268   3.115   7.385  0.1860  0.0365  0.5643
  402MOL0     C54147  -0.340   3.015   7.307 -0.5766  0.5273  1.3296
  402MOL0     C54148  -0.289   2.867   7.325  0.4756 -0.0529  0.8592
  402MOL0     C54149  -0.329   2.781   7.200  0.4888 -0.9763  0.0186
  402MOL0     C54150  -0.229   2.761   7.089 -0.3599 -0.3837  0.3868
  402MOL0     C54151  -0.271   2.663   6.981 -0.7778  0.8239  0.3173
  402MOL0     N54152  -0.415   2.668   6.947 -0.6943 -0.1241 -0.9252
  402MOL0     C54153  -0.453   2.674   6.820  0.2230 -0.8724  0.5428
  402MOL0     C54154  -0.587   2.656   6.829 -0.3915 -0.9250 -0.1146
  402MOL0     C54155  -0.689   2.686   6.721 -0.7662 -0.4300 -0.7325
  402MOL0     C54156  -0.824   2.596   6.722  0.0791 -0.9640  0.0453
  402MOL0     C54157  -0.903   2.615   6.587 -0.6445  1.0375 -0.7011
  402MOL0     C54158  -1.044   2.565   6.601 -0.9734 -0.5589  0.4761
  402MOL0     O54159  -1.119   2.637   6.707 -1.0019 -0.0534 -0.0595
  402MOL0     C54160  -1.229   2.585   6.760  0.1652  0.5672  0.8436
  402MOL0     C54161  -1.282   2.457   6.726  0.4391 -0.8910 -0.2603
  402MOL0     C54162  -1.387   2.399   6.807 -0.3758  0.2745 -0.4748
  402MOL0     C54163  -1.426   2.260   6.768  0.3143  0.1496  0.3581
  402MOL0     C54164  -1.444   2.476   6.909  0.2825 -0.0741  0.4360
  402MOL0     C54165  -1.571   2.428   6.987 -1.6659 -0.7859  0.1085
  402MOL0     O54166  -1.582   2.489   7.116 -0.2293 -0.0870  0.6038
  402MOL0     C54167  -1.708   2.543   7.148 -0.6549  1.0345 -0.6956
  402MOL0     C54168  -1.816   2.561   7.064  0.6443 -0.2576  0.4266
  402MOL0     C54169  -1.921   2.642   7.106 -0.2971 -0.4663  0.6550
  402MOL0     C54170  -1.934   2.697   7.231 -0.0536 -0.0313 -0.0456
  402MOL0     O54171  -2.039   2.774   7.279  0.3593 -0.2305  0.5827
  402MOL0     C54172  -2.154   2.786   7.199  0.0692 -0.8822  0.5655
  402MOL0     C54173  -2.258   2.853   7.282 -0.3518  0.3004  0.2352
  402MOL0     C54174  -2.276   2.777   7.422 -0.1373 -0.5528 -0.1889
  402MOL0     C54175  -2.367   2.865   7.512  0.2572  0.2572  0.2183
  402MOL0     C54176  -2.524   2.829   7.507  0.3253  0.4724 -0.2248
  402MOL0     C54177  -2.565   2.697   7.577  0.6262  0.1076 -0.5197
  402MOL0     C54178  -2.716   2.669   7.549 -0.6634 -0.4086 -0.2526
  402MOL0     C54179  -2.775   2.536   7.609 -0.3112  0.7375  0.1139
  402MOL0    Cl54180  -2.709   2.497   7.769  0.2173  0.1134 -0.3301
  402MOL0     C54181  -1.829   2.658   7.320  0.7159 -0.5263 -0.6775
  402MOL0     C54182  -1.719   2.588   7.283  0.6777  0.3985  0.2370
  402MOL0     O54183  -1.642   2.341   6.951  0.5275  0.3257 -0.0594
  402MOL0     C54184  -1.396   2.607   6.938 -0.8496 -0.2668 -0.5077
  402MOL0     C54185  -1.284   2.654   6.872 -0.1946 -0.1866 -0.3237
  402MOL0     N54186  -0.616   2.604   6.954 -0.3115 -0.2652  0.4592
  402MOL0     N54187  -0.514   2.609   7.021 -0.0359  0.4887  0.2531
  402MOL0     C54188   0.036   3.447   7.067 -0.5005  0.5258  0.1011
  402MOL0     C54189   0.100   3.567   7.029  0.0842 -0.0536 -0.6260
  402MOL0     C54190   0.261   4.008   7.080 -0.8577  0.1808  0.4425
  402MOL0     C54191   0.313   4.109   7.152 -0.5906 -0.2442 -0.8516
  402MOL0     C54192   0.342   4.230   7.099 -0.3202  0.3040  0.2889
  402MOL0     C54193   0.342   4.256   6.958  0.1511 -0.6042 -0.3416
  402MOL0     O54194   0.363   4.385   6.909  0.3995 -0.5465  0.4942
  402MOL0     C54195   0.331   4.410   6.770 -0.5729 -0.3728  0.6507
  402MOL0     C54196   0.361   4.559   6.742  0.1274  0.6851 -0.3827
  402MOL0     C54197   0.282   4.611   6.618  0.2171  0.0528  0.4914
  402MOL0     C54198   0.353   4.578   6.491  0.1003 -0.5305  0.7552
  402MOL0     C54199   0.465   4.668   6.483 -0.4831 -0.2137 -0.3512
  402MOL0     C54200   0.554   4.755   6.499 -1.1104  0.0979  0.1595
  402MOL0     C54201   0.292   4.153   6.883 -0.1368  0.7061 -0.5315
  402MOL0     C54202   0.252   4.031   6.943  0.6132  0.4881 -0.7203
  402MOL0     H54203   0.007   3.768   7.282  1.2738  0.5839 -1.0430
  402MOL0     H54204  -0.156   3.568   7.311  0.9459  0.2471  0.4548
  402MOL0     H54205   0.030   3.293   7.367 -0.6098 -3.0888  0.2528
  402MOL0     H54206  -0.129   3.335   7.419 -0.0359  0.0887 -0.0415
  402MOL0     H54207  -0.090   3.078   7.266  1.3148 -0.1063 -0.4946
  402MOL0     H54208  -0.060   3.111   7.435  1.2430  1.4194 -1.4539
  402MOL0     H54209  -0.279   3.092   7.491  0.4924  0.6289  0.7301
  402MOL0     H54210  -0.323   3.205   7.357  1.4046  0.6788  0.1341
  402MOL0     H54211  -0.445   3.017   7.337 -0.4936  1.6863  1.5665
  402MOL0     H54212  -0.337   3.031   7.198 -1.5651 -1.5895  0.9430
  402MOL0     H54213  -0.181   2.871   7.337  1.2427  3.7315 -4.0228
  402MOL0     H54214  -0.345   2.827   7.410 -1.6428  1.1648  0.1186
  402MOL0     H54215  -0.360   2.680   7.227  0.7601 -1.2968 -0.8238
  402MOL0     H54216  -0.416   2.831   7.156  0.5302 -0.7241  0.2209
  402MOL0     H54217  -0.209   2.859   7.044  0.2662  0.0340  1.5132
  402MOL0     H54218  -0.127   2.744   7.125 -0.4162 -1.9359 -0.1286
  402MOL0     H54219  -0.237   2.568   7.023  0.7878  0.6433 -1.2532
  402MOL0     H54220  -0.198   2.669   6.900  0.3143  0.0624  1.2163
  402MOL0     H54221  -0.393   2.701   6.734 -3.1468  1.9161 -1.1852
  402MOL0     H54222  -0.714   2.792   6.717  0.1117 -0.2222 -0.8988
  402MOL0     H54223  -0.646   2.669   6.622 -1.5764  1.2959 -1.4196
  402MOL0     H54224  -0.878   2.624   6.814  1.1629  0.6498  0.2187
  402MOL0     H54225  -0.804   2.488   6.729 -1.1532 -1.2008  0.0975
  402MOL0     H54226  -0.851   2.568   6.503  0.6479 -1.0925  1.1845
  402MOL0     H54227  -0.885   2.720   6.560  1.7179  0.4685 -1.6058
  402MOL0     H54228  -1.019   2.468   6.644  1.9350  0.9587  2.5488
  402MOL0     H54229  -1.093   2.549   6.505  2.2700 -3.5357 -0.9066
  402MOL0     H54230  -1.230   2.401   6.649  0.4128 -1.7094  0.3006
  402MOL0     H54231  -1.358   2.204   6.703 -0.5712 -0.1579 -0.3313
  402MOL0     H54232  -1.423   2.200   6.860  1.6737 -0.3812 -0.0121
  402MOL0     H54233  -1.526   2.257   6.723  1.7137 -3.0473 -3.0926
  402MOL0     H54234  -1.817   2.532   6.960  0.7907  0.9753  0.0791
  402MOL0     H54235  -1.994   2.675   7.033  1.5680 -2.4541 -2.3321
  402MOL0     H54236  -2.131   2.850   7.114 -2.2559  0.4387  0.8261
  402MOL0     H54237  -2.194   2.696   7.151  1.6656  0.2273 -3.2369
  402MOL0     H54238  -2.223   2.954   7.303  2.0665 -0.7204  1.5812
  402MOL0     H54239  -2.345   2.857   7.216  0.9769  1.8496 -1.5548
  402MOL0     H54240  -2.180   2.764   7.474  0.7370 -2.3915 -2.1075
  402MOL0     H54241  -2.323   2.679   7.413  0.3374 -0.8488  0.4581
  402MOL0     H54242  -2.338   2.868   7.617  0.0338  0.6293  0.2703
  402MOL0     H54243  -2.364   2.967   7.474 -0.7215 -0.2457 -1.3207
  402MOL0     H54244  -2.544   2.825   7.400  1.1567 -1.0586 -0.3508
  402MOL0     H54245  -2.575   2.911   7.558  0.7636  1.2593 -1.0312
  402MOL0     H54246  -2.501   2.617   7.538 -0.3846 -3.6714  4.4940
  402MOL0     H54247  -2.538   2.700   7.683 -0.7321  1.5013 -0.1897
  402MOL0     H54248  -2.735   2.668   7.441 -1.8774 -0.8427 -0.0412
  402MOL0     H54249  -2.770   2.758   7.583 -0.8708 -0.6207 -0.0247
  402MOL0     H54250  -2.763   2.450   7.543  0.0056  0.0656  1.0309
  402MOL0     H54251  -2.883   2.548   7.620 -0.5760 -1.6865  0.6320
  402MOL0     H54252  -1.834   2.704   7.418 -3.0466  1.1800 -1.5026
  402MOL0     H54253  -1.627   2.593   7.340  0.1902  0.2748  1.0418
  402MOL0     H54254  -1.444   2.665   7.017 -1.8927  1.1950 -2.1492
  402MOL0     H54255  -1.236   2.748   6.896 -0.1010 -0.0764 -0.9360
  402MOL0     H54256   0.038   3.354   7.013 -0.6389  0.7920 -0.3619
  402MOL0     H54257   0.173   3.577   6.949 -0.9128 -1.5722 -1.7874
  402MOL0     H54258   0.326   4.097   7.259  0.4605  2.8463 -0.5427
  402MOL0     H54259   0.383   4.312   7.157  1.0170 -1.2158  1.5982
  402MOL0     H54260   0.395   4.351   6.703  0.7181  0.0765  1.4427
  402MOL0     H54261   0.227   4.387   6.747 -1.4413  2.6963  1.0852
  402MOL0     H54262   0.469   4.571   6.743 -0.1015  3.3502  1.8899
  402MOL0     H54263   0.318   4.618   6.823  1.0725  1.9923 -0.8149
  402MOL0     H54264   0.276   4.719   6.634  2.6614  0.0726  1.6409
  402MOL0     H54265   0.184   4.561   6.615 -0.2328  0.7670  2.1938
  402MOL0     H54266   0.281   4.601   6.412  1.4662 -3.5152 -1.5081
  402MOL0     H54267   0.378   4.473   6.477 -0.6817 -0.4227 -1.9400
  402MOL0     H54268   0.645   4.809   6.512  0.3816 -2.7625  2.9096
  402MOL0     H54269   0.266   4.172   6.779 -0.0022 -0.0812 -0.7160
  402MOL0     H54270   0.196   3.964   6.879 -2.4128  4.0013 -2.0749
  403MOL0     O54271   7.657   0.739   6.733 -0.2260  0.0101  0.2980
  403MOL0     C54272   7.583   0.722   6.632  0.4648  0.4287 -0.0944
  403MOL0     O54273   7.497   0.823   6.577 -0.0587 -0.3555  0.1479
  403MOL0     C54274   7.465   0.944   6.636  0.1300 -0.4507  1.7234
  403MOL0     C54275   7.559   1.030   6.693 -0.1077 -0.3785 -0.4256
  403MOL0     C54276   7.522   1.153   6.726  0.4316  0.1777  0.1577
  403MOL0     C54277   7.391   1.186   6.720  0.1735 -0.7793 -0.2599
  403MOL0     O54278   7.360   1.321   6.767  0.0240 -0.2944 -0.6735
  403MOL0     C54279   7.224   1.368   6.750  0.4072 -0.4051 -0.3129
  403MOL0     C54280   7.186   1.488   6.832 -0.5611 -0.6942 -0.1348
  403MOL0     C54281   7.238   1.619   6.778  0.0079 -0.4308  0.0908
  403MOL0     C54282   7.157   1.730   6.846 -0.4499  0.2194  0.6805
  403MOL0     C54283   7.223   1.870   6.833  0.2410  0.2570 -0.5327
  403MOL0     C54284   7.303   1.896   6.705  1.3090 -0.0931  0.0006
  403MOL0     C54285   7.220   1.928   6.578 -0.3981  0.3484  0.2770
  403MOL0     C54286   7.318   1.954   6.452  0.6685 -0.1302 -0.1832
  403MOL0     N54287   7.382   1.827   6.415 -0.2712  0.4632 -0.4214
  403MOL0     C54288   7.300   1.719   6.368  0.3960 -0.0317 -0.5272
  403MOL0     C54289   7.377   1.643   6.292  0.1684  0.1393 -0.6499
  403MOL0     C54290   7.319   1.519   6.216 -0.5469 -0.1438  0.5911
  403MOL0     C54291   7.267   1.406   6.306 -0.0812  0.6648 -0.8550
  403MOL0     C54292   7.214   1.299   6.216 -0.7165 -0.0882  0.2031
  403MOL0     C54293   7.201   1.157   6.270  0.2243 -0.6669  0.4613
  403MOL0     O54294   7.066   1.127   6.307 -0.4528 -0.0228 -0.4038
  403MOL0     C54295   7.035   1.001   6.354  0.7685  0.2674  0.0438
  403MOL0     C54296   7.116   0.886   6.368  0.7893 -0.1647  0.2592
  403MOL0     C54297   7.068   0.763   6.407 -0.1146  0.6139  0.3937
  403MOL0     C54298   7.169   0.652   6.428  0.5877 -0.0771  0.2277
  403MOL0     C54299   6.946   0.765   6.473 -0.3261 -0.2271  0.1056
  403MOL0     C54300   6.889   0.638   6.537 -0.2459 -0.0485  0.2989
  403MOL0     O54301   6.931   0.515   6.508 -0.5832  0.1629 -0.6809
  403MOL0     C54302   6.926   0.410   6.598  0.0310  0.6084  0.3548
  403MOL0     C54303   6.889   0.281   6.561  0.0968 -0.4718 -0.1870
  403MOL0     C54304   6.842   0.193   6.661 -0.2865 -0.0996 -0.4018
  403MOL0     C54305   6.868   0.215   6.797 -0.4183 -0.0208 -0.3861
  403MOL0     O54306   6.837   0.131   6.904  0.2504  0.0875 -0.0145
  403MOL0     C54307   6.736   0.027   6.880 -0.4194  0.2997 -0.8622
  403MOL0     C54308   6.706  -0.054   7.002  0.6094  0.9078  0.2017
  403MOL0     C54309   6.595   0.016   7.081 -0.7773  0.0850 -0.7630
  403MOL0     C54310   6.486  -0.079   7.109  0.0387 -0.6829 -0.3963
  403MOL0     C54311   6.373  -0.012   7.193 -0.2223 -0.3758  0.6478
  403MOL0     C54312   6.261   0.071   7.135  0.2033  0.2788 -0.9704
  403MOL0     C54313   6.159   0.120   7.230 -0.2502  0.1310 -0.3461
  403MOL0     C54314   6.191   0.259   7.280  0.5935 -0.7393 -0.7333
  403MOL0    Cl54315   6.167   0.375   7.145 -0.4926  0.1823 -0.1489
  403MOL0     C54316   6.917   0.340   6.828 -0.0990 -0.6664 -0.4406
  403MOL0     C54317   6.943   0.439   6.736 -0.8313  0.6827 -0.2876
  403MOL0     O54318   6.805   0.661   6.629  0.0320  0.5472 -0.0997
  403MOL0     C54319   6.865   0.879   6.471 -0.1000  0.2596 -0.5702
  403MOL0     C54320   6.908   0.987   6.399 -0.2742  0.3916  1.4825
  403MOL0     N54321   7.507   1.684   6.302 -0.0216 -1.3302 -1.0100
  403MOL0     N54322   7.505   1.796   6.372 -0.0803  0.3252 -0.7278
  403MOL0     C54323   7.291   1.098   6.675 -0.6674 -0.4473 -0.0650
  403MOL0     C54324   7.336   0.976   6.632  0.5746  0.6701  0.2880
  403MOL0     C54325   7.588   0.592   6.570  0.7604  0.5996  0.6351
  403MOL0     C54326   7.652   0.481   6.626  0.4837 -0.3447 -0.2761
  403MOL0     C54327   7.634   0.360   6.561 -0.2347  0.6972 -0.0487
  403MOL0     C54328   7.559   0.349   6.443 -1.0564  0.1742  0.3318
  403MOL0     O54329   7.527   0.226   6.380 -0.4146 -0.0851 -0.1344
  403MOL0     C54330   7.562   0.105   6.445  0.1002  0.2419 -1.0526
  403MOL0     C54331   7.487  -0.014   6.392  0.0097  0.4958 -0.3461
  403MOL0     C54332   7.537  -0.149   6.441  0.0776 -0.0240 -0.4217
  403MOL0     C54333   7.496  -0.272   6.355  0.5442  0.6854  0.3284
  403MOL0     C54334   7.351  -0.280   6.345 -0.0287  0.6141  0.3140
  403MOL0     C54335   7.233  -0.292   6.329  0.3708  0.4535 -0.0429
  403MOL0     C54336   7.507   0.459   6.391 -0.1094  0.4084  0.2302
  403MOL0     C54337   7.510   0.578   6.454 -0.2107 -0.5809  0.1657
  403MOL0     H54338   7.663   0.998   6.697 -0.2137 -0.6125  0.7614
  403MOL0     H54339   7.592   1.228   6.761  1.8440 -1.1834  0.3511
  403MOL0     H54340   7.200   1.380   6.644  2.2435  0.8851 -0.6299
  403MOL0     H54341   7.152   1.296   6.788  0.7849 -0.9714 -0.6646
  403MOL0     H54342   7.078   1.502   6.839 -0.4084  0.8996 -0.5434
  403MOL0     H54343   7.236   1.465   6.926  0.2707 -3.5856 -1.1877
  403MOL0     H54344   7.345   1.637   6.795 -0.0509  3.5615 -2.4368
  403MOL0     H54345   7.221   1.634   6.671 -0.4661  1.9250  0.4532
  403MOL0     H54346   7.063   1.742   6.792  0.6103 -0.1273 -1.3504
  403MOL0     H54347   7.143   1.707   6.952  1.7646 -0.0180  0.9697
  403MOL0     H54348   7.140   1.940   6.848 -1.8509 -1.9296 -1.2243
  403MOL0     H54349   7.292   1.891   6.916  0.4272 -1.2026 -0.2907
  403MOL0     H54350   7.360   1.987   6.726  0.8473  0.1610  0.1492
  403MOL0     H54351   7.382   1.822   6.689  1.0627 -0.2219 -0.6357
  403MOL0     H54352   7.160   1.840   6.554  0.3624 -0.1411  0.1736
  403MOL0     H54353   7.152   2.011   6.604  0.3390 -0.2293  4.8357
  403MOL0     H54354   7.398   2.019   6.490 -0.2959 -0.4827  2.6606
  403MOL0     H54355   7.252   1.992   6.374 -0.9141 -0.8725  0.7402
  403MOL0     H54356   7.191   1.710   6.372  0.1842  1.8441 -0.8758
  403MOL0     H54357   7.236   1.559   6.157 -0.5927  1.8854  1.9256
  403MOL0     H54358   7.393   1.485   6.143  0.7405  1.4800  1.0754
  403MOL0     H54359   7.191   1.451   6.371 -0.3658 -1.7634  0.6383
  403MOL0     H54360   7.340   1.373   6.381 -0.4026  1.1712 -0.3094
  403MOL0     H54361   7.293   1.288   6.141 -1.8096  1.3354 -1.2231
  403MOL0     H54362   7.122   1.338   6.172 -0.3119  1.3811  0.5794
  403MOL0     H54363   7.260   1.144   6.360  2.3174  0.6309 -0.6504
  403MOL0     H54364   7.237   1.081   6.200  1.7355 -1.2569  1.8273
  403MOL0     H54365   7.221   0.900   6.345  0.6377  3.4489  1.1273
  403MOL0     H54366   7.255   0.656   6.361 -1.2175 -2.8834 -2.5196
  403MOL0     H54367   7.194   0.655   6.534 -0.4463  0.0203  0.4811
  403MOL0     H54368   7.131   0.554   6.398 -0.0873 -0.6643  2.7497
  403MOL0     H54369   6.882   0.252   6.457  2.2812  1.5679 -0.9703
  403MOL0     H54370   6.811   0.092   6.633  0.8709 -0.7072  0.4050
  403MOL0     H54371   6.654   0.075   6.825 -0.4251 -0.5086 -1.5871
  403MOL0     H54372   6.779  -0.045   6.810  0.0177 -1.0315  0.7243
  403MOL0     H54373   6.667  -0.151   6.969  1.0774  0.2271  1.5593
  403MOL0     H54374   6.797  -0.075   7.059 -1.6829 -1.3336  3.4237
  403MOL0     H54375   6.557   0.106   7.033 -2.4947  0.9212  1.9813
  403MOL0     H54376   6.644   0.051   7.172 -1.4650  0.5384 -0.5639
  403MOL0     H54377   6.438  -0.114   7.017 -4.4026  2.2109  0.5297
  403MOL0     H54378   6.515  -0.166   7.169 -1.6017 -0.8182  0.2422
  403MOL0     H54379   6.415   0.043   7.278  0.5430 -3.5756  2.5148
  403MOL0     H54380   6.327  -0.100   7.239  1.1154 -0.9234  0.9805
  403MOL0     H54381   6.312   0.162   7.102 -0.4681  1.2946  0.6880
  403MOL0     H54382   6.216   0.019   7.050 -3.3040 -0.6794  1.2658
  403MOL0     H54383   6.160   0.052   7.316  2.4344 -2.1982 -2.0326
  403MOL0     H54384   6.062   0.117   7.180 -1.0595 -1.1394  1.2091
  403MOL0     H54385   6.299   0.270   7.299  0.7959 -0.3833 -2.0141
  403MOL0     H54386   6.132   0.278   7.370  2.1563 -1.6757  0.5663
  403MOL0     H54387   6.926   0.355   6.935  0.3907  0.5453 -0.6294
  403MOL0     H54388   6.985   0.535   6.766  2.0537 -0.3019 -0.7991
  403MOL0     H54389   6.765   0.867   6.512 -0.2747 -3.2406 -1.7181
  403MOL0     H54390   6.855   1.081   6.390 -1.0673 -0.2262 -3.0622
  403MOL0     H54391   7.188   1.131   6.668  0.1726  2.1735 -2.1314
  403MOL0     H54392   7.257   0.909   6.601 -1.7028  3.7675 -1.1772
  403MOL0     H54393   7.714   0.500   6.713 -2.5325  3.6769  1.2641
  403MOL0     H54394   7.691   0.278   6.602  1.4353  0.2099 -3.0698
  403MOL0     H54395   7.664   0.067   6.435 -0.3834 -0.8710 -2.0336
  403MOL0     H54396   7.540   0.110   6.552 -1.9355  0.2126 -1.4361
  403MOL0     H54397   7.493  -0.008   6.283 -0.7578  3.4743 -0.3081
  403MOL0     H54398   7.380  -0.004   6.407 -0.3703  0.3507 -2.5247
  403MOL0     H54399   7.505  -0.167   6.544  1.9167 -1.2132 -0.0203
  403MOL0     H54400   7.646  -0.150   6.444  0.1065 -0.2643 -1.1919
  403MOL0     H54401   7.537  -0.362   6.402  0.7466 -0.0004 -1.0976
  403MOL0     H54402   7.539  -0.257   6.255  0.1158  1.4947  0.2585
  403MOL0     H54403   7.126  -0.295   6.328  0.3685  0.4608  0.2191
  403MOL0     H54404   7.452   0.443   6.299  1.9453 -4.3107 -0.4506
  403MOL0     H54405   7.463   0.669   6.419  2.5358  0.4356 -1.1523
  404MOL0     O54406   5.610   7.642   3.417  0.3675  0.1232 -0.1662
  404MOL0     C54407   5.569   7.530   3.440  0.2073 -0.0954 -0.3268
  404MOL0     O54408   5.643   7.420   3.449 -0.0383 -0.2966  0.3236
  404MOL0     C54409   5.772   7.426   3.426  0.3435  0.8556 -0.5816
  404MOL0     C54410   5.826   7.330   3.337  0.8090  0.7369 -0.0451
  404MOL0     C54411   5.962   7.318   3.320 -0.5952 -0.9599  0.3829
  404MOL0     C54412   6.046   7.408   3.388 -0.7965 -1.1212  0.0753
  404MOL0     O54413   6.179   7.397   3.372  0.1272 -0.3885  0.3230
  404MOL0     C54414   6.237   7.317   3.270 -0.4896  0.8502 -0.0505
  404MOL0     C54415   6.389   7.324   3.278  0.9116 -0.1687 -0.3692
  404MOL0     C54416   6.434   7.466   3.250  0.2848 -0.5313  0.9622
  404MOL0     C54417   6.590   7.476   3.226  0.4025 -0.5395 -0.5872
  404MOL0     C54418   6.636   7.468   3.076  0.4363 -0.1740 -0.0383
  404MOL0     C54419   6.784   7.506   3.064 -0.1982  0.4955 -0.0441
  404MOL0     C54420   6.821   7.516   2.913  0.9829  0.3329 -0.8189
  404MOL0     C54421   6.960   7.557   2.886  0.4069 -0.1891 -0.2977
  404MOL0     N54422   6.981   7.702   2.907 -0.9477 -0.0519  0.5177
  404MOL0     C54423   7.010   7.799   2.801 -0.2580 -0.3757  0.1922
  404MOL0     C54424   7.042   7.905   2.872 -0.3177 -0.0264  0.1664
  404MOL0     C54425   7.085   8.049   2.824  0.0288  0.3736 -0.4762
  404MOL0     C54426   7.231   8.058   2.768 -0.1561 -0.5679 -1.0295
  404MOL0     C54427   7.324   7.948   2.826  0.3249  0.0246  0.4588
  404MOL0     C54428   7.468   7.957   2.769  0.1768  0.3272  0.3696
  404MOL0     O54429   7.559   7.851   2.814  0.2314 -0.3041  0.3175
  404MOL0     C54430   7.693   7.863   2.759  0.2145 -0.2086  0.3584
  404MOL0     C54431   7.797   7.808   2.824 -0.3647 -0.3059 -0.1186
  404MOL0     C54432   7.932   7.815   2.786  0.2789 -0.1715 -0.1499
  404MOL0     C54433   8.034   7.756   2.878 -0.6144 -0.1319 -0.5043
  404MOL0     C54434   7.960   7.877   2.659  0.1260  0.1474 -0.3529
  404MOL0     C54435   8.103   7.899   2.609 -0.5789 -0.2275 -0.1983
  404MOL0     O54436   8.206   7.875   2.691 -0.1245  0.1010 -0.2310
  404MOL0     C54437   8.333   7.875   2.646 -0.0565  0.6511  0.2736
  404MOL0     C54438   8.417   7.782   2.705  0.1279  0.4992 -0.2923
  404MOL0     C54439   8.551   7.783   2.672 -0.7288  0.4861  0.7254
  404MOL0     C54440   8.604   7.858   2.570 -1.0002  0.2482 -0.2453
  404MOL0     O54441   8.734   7.823   2.538  0.1768  0.2570 -0.3785
  404MOL0     C54442   8.805   7.909   2.454 -0.9097  0.2822  0.8854
  404MOL0     C54443   8.950   7.869   2.426  0.3626  0.0976  0.1395
  404MOL0     C54444   9.031   7.965   2.335  0.1066  0.4325 -0.4523
  404MOL0     C54445   9.170   7.895   2.305 -0.8810  0.1021  0.4939
  404MOL0     C54446   9.267   7.937   2.418 -0.5072 -0.3617  0.3174
  404MOL0     C54447   9.416   7.895   2.376 -0.1938  0.2239  0.7719
  404MOL0     C54448   9.505   7.938   2.494  0.2228  1.3783 -1.1152
  404MOL0     C54449   9.629   7.849   2.481 -0.3821 -0.2133  0.2169
  404MOL0    Cl54450   9.739   7.869   2.627  0.6838 -0.0629  0.0264
  404MOL0     C54451   8.525   7.955   2.513 -1.2280 -0.9380  0.7993
  404MOL0     C54452   8.386   7.970   2.551  0.1647 -0.7766  0.0795
  404MOL0     O54453   8.112   7.920   2.494 -0.3026  0.2098  0.2654
  404MOL0     C54454   7.856   7.934   2.590 -0.5596 -0.4007  0.4559
  404MOL0     C54455   7.727   7.931   2.644 -0.9782  0.7823 -0.2056
  404MOL0     N54456   7.028   7.876   3.002  0.7604 -0.1336  0.5210
  404MOL0     N54457   7.004   7.760   3.035  0.8018  0.1061  0.2653
  404MOL0     C54458   5.991   7.500   3.480 -0.3273 -0.3686  0.8124
  404MOL0     C54459   5.855   7.515   3.497  0.5686  0.1516  0.1768
  404MOL0     C54460   5.424   7.519   3.464 -0.6226 -0.9116  0.4644
  404MOL0     C54461   5.366   7.411   3.527  0.6347 -0.2022  0.4949
  404MOL0     C54462   5.230   7.409   3.557 -0.2901  0.2626 -0.2054
  404MOL0     C54463   5.144   7.503   3.513  0.0734 -0.0158 -0.1367
  404MOL0     O54464   5.010   7.493   3.540  0.3649  0.1227 -0.1003
  404MOL0     C54465   4.932   7.618   3.526 -0.0925 -0.2477  0.1658
  404MOL0     C54466   4.794   7.597   3.602 -1.3414 -0.6739 -1.1179
  404MOL0     C54467   4.682   7.531   3.514  0.6173 -0.0804 -0.0267
  404MOL0     C54468   4.600   7.442   3.599 -0.5708 -0.7960 -0.5088
  404MOL0     C54469   4.482   7.416   3.515  1.1110 -0.7349 -0.6901
  404MOL0     C54470   4.395   7.394   3.434  0.6066  0.3698 -0.6328
  404MOL0     C54471   5.196   7.613   3.448  0.2823  0.7567 -0.3981
  404MOL0     C54472   5.335   7.622   3.428  0.9346 -0.3964 -0.0983
  404MOL0     H54473   5.750   7.264   3.297  0.4806  1.6539 -0.9784
  404MOL0     H54474   5.992   7.250   3.242 -0.1099  2.4206 -2.6652
  404MOL0     H54475   6.211   7.212   3.284 -3.1441  1.3258 -0.7340
  404MOL0     H54476   6.197   7.350   3.173  0.0866 -0.6790 -0.8344
  404MOL0     H54477   6.419   7.296   3.380  1.1580 -0.8324 -0.6154
  404MOL0     H54478   6.435   7.258   3.204 -1.0205 -0.6636 -1.1840
  404MOL0     H54479   6.385   7.505   3.161  0.6937  0.0666  0.9920
  404MOL0     H54480   6.405   7.528   3.335 -1.3106  1.1382 -0.7161
  404MOL0     H54481   6.616   7.575   3.264  1.2431 -0.6363 -0.8866
  404MOL0     H54482   6.643   7.400   3.283 -2.4546 -1.8982  0.4467
  404MOL0     H54483   6.615   7.365   3.048 -3.5552  0.2674  0.6998
  404MOL0     H54484   6.586   7.541   3.011  0.5267  1.0721  1.2230
  404MOL0     H54485   6.803   7.598   3.122 -1.4519  1.1755 -0.6665
  404MOL0     H54486   6.851   7.435   3.112  2.3000  2.5738 -0.2271
  404MOL0     H54487   6.797   7.426   2.856 -2.1991  1.0997 -0.8793
  404MOL0     H54488   6.753   7.589   2.868  1.5078  1.1663 -0.2858
  404MOL0     H54489   6.973   7.536   2.780 -0.7020  1.9103 -0.9100
  404MOL0     H54490   7.032   7.498   2.943 -0.2393 -0.9501 -0.2550
  404MOL0     H54491   7.015   7.788   2.693 -0.8807 -1.0740  0.2283
  404MOL0     H54492   7.003   8.070   2.755 -1.3221 -2.8324 -0.0267
  404MOL0     H54493   7.072   8.126   2.901 -0.5321  0.5393 -0.7325
  404MOL0     H54494   7.269   8.155   2.801  3.0248 -1.1380 -2.6311
  404MOL0     H54495   7.222   8.057   2.659 -0.3699  1.3979 -1.0617
  404MOL0     H54496   7.284   7.850   2.796 -0.3931  0.8835 -1.5834
  404MOL0     H54497   7.328   7.961   2.934 -0.4598  1.5715  0.3360
  404MOL0     H54498   7.509   8.052   2.805  1.0160 -0.0152  0.3497
  404MOL0     H54499   7.452   7.966   2.662  1.9214 -0.7536 -0.0248
  404MOL0     H54500   7.773   7.777   2.925 -2.9560 -1.7473 -1.0622
  404MOL0     H54501   7.985   7.681   2.942 -1.0499 -0.2757 -1.0009
  404MOL0     H54502   8.112   7.714   2.814 -1.2926  0.7416 -1.9570
  404MOL0     H54503   8.078   7.835   2.939  1.2730 -0.5413 -1.2684
  404MOL0     H54504   8.390   7.715   2.785 -0.6590 -1.8786 -2.4083
  404MOL0     H54505   8.607   7.718   2.739 -1.0460 -2.6422 -1.8341
  404MOL0     H54506   8.760   7.895   2.356 -1.5785 -1.9834  1.4721
  404MOL0     H54507   8.798   8.011   2.493  1.7302  0.5153  0.9092
  404MOL0     H54508   9.004   7.873   2.522  0.0394 -1.2167  0.4080
  404MOL0     H54509   8.958   7.767   2.388  0.7364 -0.0736  0.6574
  404MOL0     H54510   9.054   8.053   2.396  0.4237  0.1907 -0.2218
  404MOL0     H54511   8.974   7.987   2.245 -1.5595 -1.9938 -0.0875
  404MOL0     H54512   9.160   7.786   2.307  0.1005  0.0096  1.1486
  404MOL0     H54513   9.213   7.933   2.211 -1.2070  2.4190  1.2202
  404MOL0     H54514   9.236   7.908   2.519 -3.2102  1.3879  0.1039
  404MOL0     H54515   9.272   8.047   2.415 -0.6437 -0.3241  1.1465
  404MOL0     H54516   9.424   7.786   2.370 -0.6606  0.2438 -0.5232
  404MOL0     H54517   9.444   7.938   2.279 -1.1467  1.1141  0.8738
  404MOL0     H54518   9.459   7.932   2.593 -0.3749 -2.9251 -1.4724
  404MOL0     H54519   9.537   8.043   2.495 -1.2569  1.9745  2.9509
  404MOL0     H54520   9.673   7.897   2.393 -2.3785  0.2414 -0.5986
  404MOL0     H54521   9.620   7.741   2.472  1.1776 -0.3619  0.1745
  404MOL0     H54522   8.557   8.019   2.432 -3.6853  0.1739  0.6366
  404MOL0     H54523   8.318   8.047   2.516  0.1993 -1.8383 -2.5766
  404MOL0     H54524   7.874   7.996   2.502 -0.7474  2.0255  2.0298
  404MOL0     H54525   7.642   7.969   2.588 -2.3570 -2.6038 -0.6945
  404MOL0     H54526   6.053   7.565   3.541  0.0952 -0.5837  0.6075
  404MOL0     H54527   5.809   7.596   3.552  0.3172  0.4401 -0.4429
  404MOL0     H54528   5.430   7.333   3.567  0.1607  0.6120  3.0736
  404MOL0     H54529   5.181   7.317   3.587  1.3802 -1.3033 -1.9764
  404MOL0     H54530   4.988   7.704   3.565  1.0580 -1.2293  0.7320
  404MOL0     H54531   4.910   7.629   3.419 -4.4110 -0.5421  0.8312
  404MOL0     H54532   4.753   7.699   3.607 -3.3136 -1.3787 -1.9419
  404MOL0     H54533   4.816   7.544   3.695  0.1589 -0.1500 -1.1563
  404MOL0     H54534   4.724   7.469   3.435 -1.3816 -0.4808 -0.8365
  404MOL0     H54535   4.618   7.607   3.467  1.8964 -0.9220 -3.4266
  404MOL0     H54536   4.558   7.484   3.691  1.7464 -1.3245  0.8602
  404MOL0     H54537   4.643   7.345   3.625  0.4611 -0.9014 -2.4857
  404MOL0     H54538   4.315   7.364   3.370 -1.2315  0.2724  1.5883
  404MOL0     H54539   5.136   7.700   3.423 -3.2901 -0.3071  3.3826
  404MOL0     H54540   5.362   7.721   3.392  0.9088  0.7448  2.7658
  405MOL0     O54541   4.734   2.907   0.016  0.1957  0.1868 -0.2796
  405MOL0     C54542   4.720   2.785   0.033  0.1011  0.2257 -0.3063
  405MOL0     O54543   4.591   2.719   0.023  1.3026 -0.2108 -0.7009
  405MOL0     C54544   4.487   2.787  -0.040 -0.1924 -0.5036  0.2423
  405MOL0     C54545   4.420   2.707  -0.130  0.4350  0.6636  0.3377
  405MOL0     C54546   4.303   2.748  -0.200 -0.6450 -0.1001 -0.2095
  405MOL0     C54547   4.248   2.876  -0.174 -0.2815  0.2868  0.2654
  405MOL0     O54548   4.145   2.927  -0.248 -0.0659 -0.2852 -0.4226
  405MOL0     C54549   4.036   2.835  -0.287 -0.6360  0.0738  0.5487
  405MOL0     C54550   3.896   2.901  -0.269  0.2726 -0.1556  0.3793
  405MOL0     C54551   3.876   2.942  -0.123 -0.1849 -0.7954  0.5211
  405MOL0     C54552   3.745   3.020  -0.085  0.4375  0.5050 -0.3907
  405MOL0     C54553   3.751   3.059   0.062 -0.0694 -0.8402  0.5342
  405MOL0     C54554   3.662   3.177   0.099  0.5997 -0.6766 -0.4468
  405MOL0     C54555   3.516   3.128   0.120  0.0165 -0.1425  0.0591
  405MOL0     C54556   3.427   3.257   0.135  0.7707  0.2575  0.2532
  405MOL0     N54557   3.286   3.230   0.141  0.2944  0.0002 -0.2057
  405MOL0     C54558   3.228   3.148   0.237  0.2465 -0.1409 -0.4782
  405MOL0     C54559   3.098   3.150   0.191 -0.3713  0.4977  0.2426
  405MOL0     C54560   2.982   3.068   0.253  0.3189  0.0222 -0.2086
  405MOL0     C54561   3.021   2.917   0.272  0.3390 -1.3040 -0.0453
  405MOL0     C54562   2.922   2.807   0.301  0.1138  0.1489  0.1806
  405MOL0     C54563   2.815   2.802   0.192  0.1326  0.1257 -0.5416
  405MOL0     O54564   2.738   2.686   0.230  0.1718 -0.5901 -0.7281
  405MOL0     C54565   2.609   2.701   0.291 -0.4014  0.0853  0.2358
  405MOL0     C54566   2.534   2.823   0.309 -0.2215  0.6254 -0.5224
  405MOL0     C54567   2.416   2.820   0.377  0.2096 -0.3040 -0.6458
  405MOL0     C54568   2.338   2.945   0.405  0.1923 -0.3017 -0.2078
  405MOL0     C54569   2.354   2.699   0.412  0.3319 -0.8718 -0.0404
  405MOL0     C54570   2.230   2.686   0.491  0.2916 -0.2449 -0.1875
  405MOL0     O54571   2.167   2.567   0.472 -0.2245  0.0934 -0.2454
  405MOL0     C54572   2.046   2.560   0.527  0.7272 -0.2020 -0.6085
  405MOL0     C54573   2.034   2.484   0.648  0.7791  0.6736  0.2083
  405MOL0     C54574   1.914   2.486   0.721 -0.0740  0.3135  0.7476
  405MOL0     C54575   1.804   2.540   0.658  0.3012  0.0103  0.6914
  405MOL0     O54576   1.675   2.553   0.712  0.3910  0.0067 -0.2850
  405MOL0     C54577   1.646   2.450   0.819 -0.1236  0.5192  0.8088
  405MOL0     C54578   1.627   2.305   0.742  1.1443 -0.5737 -0.4535
  405MOL0     C54579   1.498   2.300   0.655 -0.6225  0.0104  0.2898
  405MOL0     C54580   1.367   2.307   0.744 -0.5097 -0.6277 -0.3813
  405MOL0     C54581   1.238   2.276   0.669  0.8367  0.1991 -0.0894
  405MOL0     C54582   1.113   2.253   0.766  0.0819 -0.1161  0.9056
  405MOL0     C54583   0.982   2.234   0.684 -0.1168 -0.8918  0.1742
  405MOL0     C54584   0.967   2.091   0.621 -0.0068 -0.7649  0.5321
  405MOL0    Cl54585   0.930   1.952   0.725 -0.1221  0.0275  0.0011
  405MOL0     C54586   1.813   2.611   0.532  0.1630  0.8030 -0.7799
  405MOL0     C54587   1.935   2.621   0.465  0.2813  0.0914 -0.1681
  405MOL0     O54588   2.190   2.776   0.564 -0.0573 -0.0007  0.5925
  405MOL0     C54589   2.419   2.582   0.374  0.3246 -0.3993 -0.9957
  405MOL0     C54590   2.548   2.583   0.323  0.5932 -0.0912  0.9705
  405MOL0     N54591   3.081   3.221   0.080 -0.0556  0.2830  0.3259
  405MOL0     N54592   3.188   3.279   0.058 -0.6677 -0.1722 -0.0656
  405MOL0     C54593   4.314   2.955  -0.082 -0.2039  0.7856  0.5072
  405MOL0     C54594   4.429   2.913  -0.013 -0.5363 -0.1588  0.6119
  405MOL0     C54595   4.832   2.706   0.095  0.1635  0.0303 -0.1966
  405MOL0     C54596   4.954   2.761   0.138  0.1187 -0.8295  0.0836
  405MOL0     C54597   5.056   2.679   0.179  0.5533  0.8853  0.1531
  405MOL0     C54598   5.031   2.544   0.199  0.1547 -0.0745  0.0866
  405MOL0     O54599   5.121   2.448   0.245 -0.3651  0.8387  0.0173
  405MOL0     C54600   5.256   2.482   0.243 -0.4041 -0.8575 -0.2661
  405MOL0     C54601   5.323   2.493   0.102 -1.0193  0.4029 -0.8660
  405MOL0     C54602   5.475   2.515   0.117 -0.3309  0.2403  0.5646
  405MOL0     C54603   5.528   2.582  -0.015  0.1108  0.1663 -1.2619
  405MOL0     C54604   5.511   2.495  -0.136 -0.6698  0.3413 -1.0608
  405MOL0     C54605   5.516   2.426  -0.233  0.2234 -0.6403 -0.7104
  405MOL0     C54606   4.907   2.498   0.172 -1.1548  0.9616 -0.8373
  405MOL0     C54607   4.806   2.571   0.123 -0.5260 -1.1022  0.8565
  405MOL0     H54608   4.471   2.616  -0.160  2.9658  1.7837  0.9291
  405MOL0     H54609   4.248   2.673  -0.256  0.3606 -1.3680  0.4419
  405MOL0     H54610   4.050   2.819  -0.394  1.4803 -1.2918  0.9582
  405MOL0     H54611   4.037   2.739  -0.235  2.0206 -1.3096 -1.8010
  405MOL0     H54612   3.895   2.995  -0.325 -4.2633 -0.5913 -0.6593
  405MOL0     H54613   3.820   2.828  -0.295 -0.0291  0.3643 -0.2170
  405MOL0     H54614   3.893   2.861  -0.051 -0.7017  0.4285  2.0971
  405MOL0     H54615   3.962   3.008  -0.109 -0.3514 -0.1018 -1.5207
  405MOL0     H54616   3.737   3.112  -0.143  0.0683  1.1184  0.6251
  405MOL0     H54617   3.657   2.957  -0.099  0.9244 -0.2171 -0.2892
  405MOL0     H54618   3.718   2.975   0.125 -1.2314  0.2751  1.4728
  405MOL0     H54619   3.853   3.083   0.093  1.1161 -0.1595 -3.3582
  405MOL0     H54620   3.695   3.216   0.195 -0.6196  0.5999 -0.5196
  405MOL0     H54621   3.654   3.253   0.022 -2.4493 -1.2343 -0.7953
  405MOL0     H54622   3.475   3.066   0.040  1.6524  0.9641 -1.7166
  405MOL0     H54623   3.513   3.060   0.206  0.2494 -0.2941 -0.0515
  405MOL0     H54624   3.441   3.314   0.043  2.4694  0.2889  0.4929
  405MOL0     H54625   3.456   3.327   0.215 -2.3400  4.7471 -2.1490
  405MOL0     H54626   3.272   3.094   0.321  0.3347  0.0452 -0.4029
  405MOL0     H54627   2.968   3.107   0.354 -1.4131  0.4158 -0.5562
  405MOL0     H54628   2.888   3.067   0.196  0.9246  0.8829 -1.2608
  405MOL0     H54629   3.097   2.927   0.350  1.3040  0.1672 -1.1244
  405MOL0     H54630   3.073   2.886   0.181  0.2046  1.1442 -1.0494
  405MOL0     H54631   2.878   2.810   0.401  3.4277 -1.4377  1.8559
  405MOL0     H54632   2.979   2.713   0.304 -1.5501 -0.9636 -0.8886
  405MOL0     H54633   2.862   2.787   0.095  0.9277 -2.5764  0.1808
  405MOL0     H54634   2.756   2.894   0.190 -0.4529 -0.2223  0.0624
  405MOL0     H54635   2.584   2.917   0.289  0.3272  0.0916 -1.7524
  405MOL0     H54636   2.344   2.963   0.513 -0.4464 -1.6489  0.0726
  405MOL0     H54637   2.386   3.036   0.368 -2.7915  1.1546 -0.8040
  405MOL0     H54638   2.237   2.948   0.364  0.4787  2.9478 -0.9792
  405MOL0     H54639   2.118   2.428   0.688 -0.8041 -3.1363 -1.3240
  405MOL0     H54640   1.918   2.437   0.819  2.2444 -0.0655  0.5168
  405MOL0     H54641   1.733   2.442   0.885  0.2144  1.5209  0.4987
  405MOL0     H54642   1.555   2.477   0.873 -1.5411  0.1778 -1.2883
  405MOL0     H54643   1.719   2.277   0.690  1.2468  2.0834 -1.8554
  405MOL0     H54644   1.620   2.234   0.825  0.6409  1.2087  1.0966
  405MOL0     H54645   1.511   2.200   0.614  0.7590  0.0488  0.5584
  405MOL0     H54646   1.501   2.371   0.571  0.4151 -0.9788 -0.5530
  405MOL0     H54647   1.375   2.240   0.831  0.7126 -2.1183 -1.5883
  405MOL0     H54648   1.366   2.400   0.801  0.4953 -0.3411 -0.8204
  405MOL0     H54649   1.244   2.181   0.616 -2.2671 -0.6021  0.7941
  405MOL0     H54650   1.224   2.360   0.601  0.7008  0.4927  0.2984
  405MOL0     H54651   1.129   2.163   0.827  1.6750 -0.9688 -0.6785
  405MOL0     H54652   1.098   2.337   0.833  1.0978 -0.6813  1.8800
  405MOL0     H54653   0.980   2.303   0.599 -1.3506  0.2963  1.1266
  405MOL0     H54654   0.895   2.254   0.747 -0.3978 -0.9044 -0.2032
  405MOL0     H54655   1.045   2.092   0.544 -0.4589  1.4262  0.0180
  405MOL0     H54656   0.884   2.101   0.550  1.0078  3.2828 -0.3738
  405MOL0     H54657   1.723   2.661   0.496 -0.1086  0.4399 -0.6152
  405MOL0     H54658   1.937   2.683   0.376  0.0800  3.2834  1.8939
  405MOL0     H54659   2.381   2.486   0.405 -2.4647  1.2781  1.2401
  405MOL0     H54660   2.603   2.491   0.304 -2.8628 -2.4044  1.3445
  405MOL0     H54661   4.267   3.050  -0.058  1.7361  0.9581  4.2991
  405MOL0     H54662   4.468   2.979   0.064 -1.7089  0.1540  0.9553
  405MOL0     H54663   4.973   2.868   0.131  0.6984 -0.9401 -0.0348
  405MOL0     H54664   5.155   2.721   0.198  1.5338 -1.0930 -0.3148
  405MOL0     H54665   5.264   2.571   0.306 -2.1750 -1.9964  1.6773
  405MOL0     H54666   5.310   2.408   0.302  0.9523 -1.0627 -1.6868
  405MOL0     H54667   5.282   2.582   0.053  1.8057  0.9989 -2.3914
  405MOL0     H54668   5.297   2.407   0.040  0.4939  0.1768 -1.2366
  405MOL0     H54669   5.532   2.423   0.130 -0.6712 -0.1187 -0.3316
  405MOL0     H54670   5.494   2.580   0.202  2.5580  0.3843 -0.0870
  405MOL0     H54671   5.635   2.601  -0.010 -0.1653  1.4592  0.0766
  405MOL0     H54672   5.474   2.675  -0.033 -2.2346 -0.5171  1.4837
  405MOL0     H54673   5.537   2.366  -0.319  0.6975 -1.4493 -0.0449
  405MOL0     H54674   4.872   2.399   0.200  0.8735  0.3155 -0.4625
  405MOL0     H54675   4.708   2.525   0.109 -0.8737 -0.4255  1.0066
  406MOL0     O54676   0.044   9.770   8.919  0.6325 -0.1951  0.5780
  406MOL0     C54677   0.085   9.886   8.931  0.6759 -1.1003  0.1557
  406MOL0     O54678   0.020   9.991   8.966 -0.2336 -0.0788  0.1132
  406MOL0     C54679  -0.115   9.982   8.989 -0.0295 -0.4395 -0.1801
  406MOL0     C54680  -0.178   9.890   9.070 -0.7712  0.3674  0.6083
  406MOL0     C54681  -0.314   9.882   9.090  0.3127 -0.6735 -0.4344
  406MOL0     C54682  -0.402   9.970   9.031 -0.4711  0.4492  0.2039
  406MOL0     O54683  -0.540   9.955   9.034  0.0544  0.0810 -0.1234
  406MOL0     C54684  -0.588   9.896   8.907 -0.0520  0.6223 -0.3660
  406MOL0     C54685  -0.736   9.924   8.921 -0.1511 -0.4231 -0.3721
  406MOL0     C54686  -0.796   9.828   9.030  0.3078  0.1677 -0.5430
  406MOL0     C54687  -0.792   9.675   8.991  0.0052 -0.4773 -0.7106
  406MOL0     C54688  -0.875   9.587   9.085 -0.3106  1.0745  0.4756
  406MOL0     C54689  -0.913   9.456   9.009  0.0133 -0.3394 -0.4606
  406MOL0     C54690  -0.980   9.372   9.119  0.1271 -0.0834 -0.5913
  406MOL0     C54691  -1.071   9.259   9.056  1.1342 -0.0560  0.1083
  406MOL0     N54692  -1.148   9.187   9.162  0.1850  0.3144 -0.0874
  406MOL0     C54693  -1.136   9.046   9.198 -0.0650 -0.5821 -0.4749
  406MOL0     C54694  -1.205   9.032   9.315 -1.4126  0.0007 -0.4946
  406MOL0     C54695  -1.195   8.918   9.410  0.4942  0.7562  0.3093
  406MOL0     C54696  -1.090   8.912   9.510 -1.0869 -0.6168 -0.5434
  406MOL0     C54697  -1.112   8.789   9.611  0.3929 -0.1110  0.3839
  406MOL0     C54698  -0.982   8.761   9.678  0.6665 -0.3687  0.2747
  406MOL0     O54699  -0.887   8.715   9.576  0.7048 -0.0263 -0.5047
  406MOL0     C54700  -0.755   8.694   9.603  0.4852 -0.2573  0.0531
  406MOL0     C54701  -0.686   8.628   9.499 -0.5622  0.0417 -0.2600
  406MOL0     C54702  -0.548   8.589   9.517 -0.4373 -0.1954  0.4131
  406MOL0     C54703  -0.488   8.527   9.398 -0.0340 -0.0030  0.1079
  406MOL0     C54704  -0.494   8.613   9.646 -1.0156 -0.0165  0.0874
  406MOL0     C54705  -0.367   8.541   9.680  0.6763 -0.2985 -0.2347
  406MOL0     O54706  -0.276   8.509   9.596 -0.0258  0.5662 -0.2380
  406MOL0     C54707  -0.192   8.407   9.632  0.4721  0.9299 -0.2706
  406MOL0     C54708  -0.053   8.420   9.598 -0.4099  0.3769 -0.6198
  406MOL0     C54709   0.047   8.330   9.635  0.0548  1.4309 -0.2182
  406MOL0     C54710   0.018   8.201   9.687  0.2744 -0.2650  0.4909
  406MOL0     O54711   0.110   8.105   9.716 -0.3930 -0.4184 -0.1507
  406MOL0     C54712   0.232   8.120   9.632  0.4982  0.7936 -0.4698
  406MOL0     C54713   0.301   7.989   9.616 -0.7934  0.5720 -0.2052
  406MOL0     C54714   0.352   7.938   9.750 -0.2014  0.7524  0.3369
  406MOL0     C54715   0.481   7.995   9.797  0.6713  0.8784 -0.4179
  406MOL0     C54716   0.571   7.909   9.882 -0.1025  0.5436 -0.5986
  406MOL0     C54717   0.687   7.998   9.937 -0.7332 -0.1781  0.1123
  406MOL0     C54718   0.792   7.909  10.014 -0.9071  0.7450  0.4213
  406MOL0     C54719   0.908   7.993  10.078 -0.1914 -0.3345  0.3520
  406MOL0    Cl54720   0.998   7.882  10.189  0.1903 -0.0916  0.2698
  406MOL0     C54721  -0.121   8.186   9.707 -1.0226  1.0585  0.3947
  406MOL0     C54722  -0.221   8.284   9.688  0.2663  0.0907  0.9066
  406MOL0     O54723  -0.350   8.529   9.801  0.1177  0.3768  0.4052
  406MOL0     C54724  -0.567   8.669   9.755 -0.2806 -0.1871  0.1170
  406MOL0     C54725  -0.692   8.721   9.723  0.0664  0.1123 -0.3255
  406MOL0     N54726  -1.259   9.158   9.341  0.1785  0.9724  0.3621
  406MOL0     N54727  -1.234   9.245   9.249 -0.3827 -0.1583 -0.2088
  406MOL0     C54728  -0.344  10.065   8.953 -0.2354 -0.3903 -0.2706
  406MOL0     C54729  -0.200  10.072   8.921  0.0061  0.1852 -0.9421
  406MOL0     C54730   0.221   9.914   8.888 -0.2131 -0.2987 -0.5640
  406MOL0     C54731   0.284  10.034   8.928  0.4026  0.5326 -0.4230
  406MOL0     C54732   0.417  10.068   8.891  0.1665 -0.0735 -0.0596
  406MOL0     C54733   0.487   9.979   8.811 -0.0777  0.2646 -0.9358
  406MOL0     O54734   0.610  10.015   8.756  0.6019  0.0299 -0.4424
  406MOL0     C54735   0.622  10.128   8.670 -0.3546 -0.2371  0.3848
  406MOL0     C54736   0.530  10.141   8.542 -0.6849 -0.6991 -0.6676
  406MOL0     C54737   0.558  10.037   8.438  0.9350 -0.1090  0.8029
  406MOL0     C54738   0.694  10.058   8.378  0.5228 -0.1980 -0.0823
  406MOL0     C54739   0.723   9.960   8.270 -0.3056  0.9632  0.9827
  406MOL0     C54740   0.733   9.857   8.197  0.3429 -0.2178  0.1930
  406MOL0     C54741   0.429   9.858   8.769  0.6239  0.4796  0.4290
  406MOL0     C54742   0.294   9.824   8.804 -0.7202  0.9693 -0.4567
  406MOL0     H54743  -0.117   9.810   9.111 -1.0063 -0.8790 -1.3634
  406MOL0     H54744  -0.371   9.813   9.150 -0.3278  1.4991  1.5698
  406MOL0     H54745  -0.549   9.964   8.830 -0.6599  3.3919  1.5919
  406MOL0     H54746  -0.562   9.792   8.887 -1.0327  0.8086 -2.9563
  406MOL0     H54747  -0.753  10.028   8.950  1.3518  0.9238 -3.7617
  406MOL0     H54748  -0.783   9.905   8.824  1.4415  1.7269 -1.6513
  406MOL0     H54749  -0.744   9.843   9.125  0.6830  0.6907 -0.8235
  406MOL0     H54750  -0.900   9.860   9.039 -0.1564 -1.0600 -1.3213
  406MOL0     H54751  -0.826   9.677   8.887 -0.0015  0.9914 -0.7029
  406MOL0     H54752  -0.689   9.639   8.987 -0.1743 -1.1185  0.1309
  406MOL0     H54753  -0.831   9.567   9.183 -1.7254 -0.4860  0.8354
  406MOL0     H54754  -0.973   9.627   9.113 -0.8103 -0.3831  0.8969
  406MOL0     H54755  -0.976   9.477   8.922  0.5370  1.7397 -0.3883
  406MOL0     H54756  -0.822   9.405   8.979 -0.5111 -0.4667 -1.8915
  406MOL0     H54757  -0.896   9.325   9.171 -0.5102 -0.3094  0.2428
  406MOL0     H54758  -1.039   9.439   9.183 -0.6823  0.8019 -2.1963
  406MOL0     H54759  -1.017   9.177   9.009 -0.2050 -1.3624  0.7459
  406MOL0     H54760  -1.144   9.314   8.996  0.5447 -0.3994  0.4987
  406MOL0     H54761  -1.092   8.963   9.145 -1.4413 -2.6686  1.4845
  406MOL0     H54762  -1.289   8.908   9.465  0.2955  2.3073  0.2949
  406MOL0     H54763  -1.174   8.827   9.352  3.3900  1.8742 -0.5574
  406MOL0     H54764  -1.083   9.009   9.561  0.1417  0.7265 -3.0740
  406MOL0     H54765  -0.996   8.902   9.455  0.0769  0.3318  1.1558
  406MOL0     H54766  -1.157   8.701   9.564  0.6725  0.2416 -0.5577
  406MOL0     H54767  -1.183   8.826   9.685  0.6041 -0.3082  0.6878
  406MOL0     H54768  -0.993   8.679   9.750  0.0087 -1.2070 -0.7430
  406MOL0     H54769  -0.949   8.850   9.731  0.4283  0.7406 -1.3737
  406MOL0     H54770  -0.741   8.583   9.417 -0.4369 -4.0872  1.7257
  406MOL0     H54771  -0.551   8.539   9.309  0.2169 -0.8758 -0.2017
  406MOL0     H54772  -0.397   8.584   9.379  1.2034 -2.4134 -1.7885
  406MOL0     H54773  -0.474   8.422   9.426  1.5011  0.8703  3.0156
  406MOL0     H54774  -0.007   8.505   9.550 -0.1457  0.0929 -0.8801
  406MOL0     H54775   0.153   8.344   9.619  0.8304 -2.1788  1.0396
  406MOL0     H54776   0.210   8.165   9.535  1.4357  0.7480 -0.7111
  406MOL0     H54777   0.298   8.189   9.684 -1.4175  0.7229  2.2448
  406MOL0     H54778   0.227   7.925   9.568  0.2228 -1.4814  0.8426
  406MOL0     H54779   0.375   7.998   9.536  1.4917  0.7818  1.8245
  406MOL0     H54780   0.365   7.830   9.740  0.2702  0.9436 -1.4286
  406MOL0     H54781   0.278   7.965   9.827  0.0035 -0.6777  1.0698
  406MOL0     H54782   0.534   8.039   9.712  0.6755  0.4217 -0.6548
  406MOL0     H54783   0.459   8.082   9.860  0.5448  1.3011 -1.0404
  406MOL0     H54784   0.616   7.825   9.827 -0.5188 -0.0872  0.0020
  406MOL0     H54785   0.516   7.855   9.960  1.1756 -1.6997 -1.1399
  406MOL0     H54786   0.747   8.051   9.862 -2.0688 -0.3837 -1.1670
  406MOL0     H54787   0.642   8.065  10.011 -1.6509  0.0651 -0.6427
  406MOL0     H54788   0.845   7.845   9.944  1.0204 -1.0796  3.3112
  406MOL0     H54789   0.738   7.855  10.092  0.8684  1.1650  2.0124
  406MOL0     H54790   0.852   8.072  10.127 -2.2691 -1.3461 -0.2675
  406MOL0     H54791   0.975   8.023   9.997 -0.6207 -2.0956 -0.7265
  406MOL0     H54792  -0.148   8.095   9.759 -1.6901  1.4201  0.6951
  406MOL0     H54793  -0.325   8.279   9.719 -0.2858  1.1282 -0.6719
  406MOL0     H54794  -0.521   8.671   9.853  0.5243 -1.2400 -0.2143
  406MOL0     H54795  -0.743   8.762   9.809 -3.2447 -0.7749 -1.7332
  406MOL0     H54796  -0.401  10.146   8.907  2.5443  1.3554 -0.9220
  406MOL0     H54797  -0.160  10.150   8.856 -0.8838  1.3784 -0.1044
  406MOL0     H54798   0.229  10.111   8.982 -0.8897  0.3632 -1.4475
  406MOL0     H54799   0.459  10.161   8.928 -0.3236 -0.0934  0.5619
  406MOL0     H54800   0.611  10.223   8.723 -2.0630 -1.7041  2.8643
  406MOL0     H54801   0.728  10.129   8.644 -0.7789 -2.4352 -1.8155
  406MOL0     H54802   0.559  10.237   8.498 -3.3457  1.2989  1.5698
  406MOL0     H54803   0.423  10.140   8.565 -1.4827 -2.7952 -3.8955
  406MOL0     H54804   0.488  10.051   8.355 -0.1437 -2.1459  1.3026
  406MOL0     H54805   0.529   9.937   8.472 -1.2881 -0.2964 -1.3140
  406MOL0     H54806   0.778  10.059   8.448 -0.9080  3.2285  1.8030
  406MOL0     H54807   0.704  10.157   8.332  2.6616  0.6616  2.0274
  406MOL0     H54808   0.752   9.763   8.149  4.0661  1.7438 -2.6960
  406MOL0     H54809   0.497   9.800   8.707  0.2619  0.6353 -0.1218
  406MOL0     H54810   0.243   9.731   8.778 -0.9829  1.1341 -0.5346
  407MOL0     O54811   7.186   6.436   8.388  0.1232 -0.2903  0.3293
  407MOL0     C54812   7.084   6.476   8.336  0.9496 -1.0283 -0.1664
  407MOL0     O54813   7.023   6.601   8.351 -0.8439  0.1436 -0.3824
  407MOL0     C54814   7.079   6.710   8.413 -0.5630  0.8480  0.4198
  407MOL0     C54815   7.000   6.821   8.435  0.4848  0.2203  0.3999
  407MOL0     C54816   7.050   6.938   8.499 -0.2982  0.3447  0.3274
  407MOL0     C54817   7.179   6.933   8.539 -0.5794  0.8983  0.4110
  407MOL0     O54818   7.244   7.036   8.593  0.3250 -0.1062  0.7462
  407MOL0     C54819   7.169   7.163   8.595  1.0514  0.2774 -0.1490
  407MOL0     C54820   7.252   7.277   8.641 -0.2815  0.0442  0.1729
  407MOL0     C54821   7.359   7.313   8.541  0.6326  1.1984 -0.2323
  407MOL0     C54822   7.428   7.447   8.579 -1.2066  0.7361  0.0812
  407MOL0     C54823   7.548   7.494   8.498 -0.2016 -0.3101  0.7840
  407MOL0     C54824   7.669   7.397   8.486 -0.4644  0.0135  0.3139
  407MOL0     C54825   7.802   7.454   8.518 -1.3499 -0.0712 -0.7157
  407MOL0     C54826   7.907   7.348   8.480 -0.7486 -0.8117  0.1345
  407MOL0     N54827   8.047   7.359   8.525 -0.3763 -0.5590 -0.1081
  407MOL0     C54828   8.150   7.292   8.457 -0.5694  0.9931  0.5743
  407MOL0     C54829   8.267   7.349   8.495 -0.4609  0.2306  0.1496
  407MOL0     C54830   8.397   7.292   8.445 -0.1614 -0.3047 -0.0166
  407MOL0     C54831   8.490   7.281   8.570 -0.4558 -0.2965 -0.0435
  407MOL0     C54832   8.609   7.199   8.530 -1.2850  0.4298 -0.5246
  407MOL0     C54833   8.716   7.200   8.642 -0.4383 -0.2158  0.2318
  407MOL0     O54834   8.741   7.330   8.692 -0.1958 -0.3227  0.4942
  407MOL0     C54835   8.861   7.380   8.660  0.7570 -0.7791  0.6524
  407MOL0     C54836   8.866   7.478   8.565 -0.2323  0.5352  0.6207
  407MOL0     C54837   8.988   7.525   8.513 -0.8700  0.2642  0.0820
  407MOL0     C54838   8.988   7.621   8.399 -0.6187  0.2530 -0.1781
  407MOL0     C54839   9.107   7.467   8.564  0.0560 -0.4114  0.2698
  407MOL0     C54840   9.243   7.505   8.524 -0.3263 -0.1854  0.0831
  407MOL0     O54841   9.335   7.407   8.535 -0.5987  1.0374  0.3412
  407MOL0     C54842   9.470   7.442   8.509 -0.7041  0.4994  0.0524
  407MOL0     C54843   9.560   7.408   8.613 -0.0954  0.7290  0.4763
  407MOL0     C54844   9.703   7.439   8.589  0.4155  1.0526  0.4172
  407MOL0     C54845   9.749   7.493   8.471  0.1389  0.6006 -0.1491
  407MOL0     O54846   9.874   7.540   8.444  0.4498  0.6173 -0.4405
  407MOL0     C54847   9.973   7.516   8.547 -0.0574 -0.1462  0.0852
  407MOL0     C54848  10.044   7.379   8.555  0.2766  0.0030  0.4430
  407MOL0     C54849  10.168   7.409   8.644 -0.0968 -0.3496 -0.2938
  407MOL0     C54850  10.221   7.270   8.692 -0.1653 -1.0182  0.5544
  407MOL0     C54851  10.350   7.276   8.783 -0.1725  0.7705  0.4870
  407MOL0     C54852  10.393   7.133   8.824 -0.1308 -0.2580  0.3368
  407MOL0     C54853  10.468   7.132   8.956 -0.0824 -0.1519 -0.0379
  407MOL0     C54854  10.489   6.990   9.007  0.1074  0.0089 -0.3294
  407MOL0    Cl54855  10.582   7.001   9.164  0.0733  0.2082 -0.5127
  407MOL0     C54856   9.651   7.514   8.369 -0.6536 -0.4553 -0.7751
  407MOL0     C54857   9.512   7.491   8.382  0.4011 -0.3685 -0.4544
  407MOL0     O54858   9.267   7.623   8.478  0.5787 -0.5276 -0.2103
  407MOL0     C54859   9.098   7.368   8.665 -0.2377 -0.1942  0.0345
  407MOL0     C54860   8.975   7.324   8.715 -1.1182  0.0035 -0.3357
  407MOL0     N54861   8.241   7.454   8.586 -0.1983  0.5894  0.1017
  407MOL0     N54862   8.110   7.463   8.591 -0.4687 -0.1338 -0.4522
  407MOL0     C54863   7.257   6.818   8.532  0.5745 -0.3252  0.2275
  407MOL0     C54864   7.214   6.709   8.461 -0.0840 -0.5079 -0.1992
  407MOL0     C54865   7.012   6.369   8.262  0.5605  0.1763  0.6874
  407MOL0     C54866   6.902   6.400   8.193 -0.5071 -0.4430 -0.4247
  407MOL0     C54867   6.839   6.312   8.102 -1.0927  0.3104 -0.7420
  407MOL0     C54868   6.892   6.174   8.091 -0.3554 -1.0624 -0.2131
  407MOL0     O54869   6.828   6.082   8.013  0.0754 -0.8027 -0.2714
  407MOL0     C54870   6.836   5.943   8.048  0.8278 -0.6702 -0.2031
  407MOL0     C54871   6.713   5.893   7.966  0.0507  0.0967 -0.2623
  407MOL0     C54872   6.655   5.764   8.025 -0.0245 -0.4006 -0.6620
  407MOL0     C54873   6.542   5.716   7.947 -0.1481  0.1838 -0.1760
  407MOL0     C54874   6.418   5.787   7.990 -1.0247 -0.0418 -0.0390
  407MOL0     C54875   6.317   5.840   8.034  0.1123  0.0958  0.5609
  407MOL0     C54876   6.995   6.139   8.171 -0.4951 -0.2546  0.6015
  407MOL0     C54877   7.053   6.234   8.256  0.3209  0.3084 -0.1629
  407MOL0     H54878   6.897   6.815   8.403  0.6531 -0.7236  0.0016
  407MOL0     H54879   6.981   7.021   8.504 -0.9880 -0.0797 -1.2690
  407MOL0     H54880   7.124   7.183   8.498  1.3279  0.5120 -0.2288
  407MOL0     H54881   7.087   7.151   8.668 -1.1334  0.6588 -2.4120
  407MOL0     H54882   7.191   7.368   8.650 -0.5857 -0.0808 -0.5625
  407MOL0     H54883   7.291   7.244   8.738  3.0172 -0.5321 -1.2223
  407MOL0     H54884   7.431   7.232   8.528 -0.7786 -0.2806  0.7752
  407MOL0     H54885   7.304   7.332   8.448 -0.7313 -1.7763 -0.1391
  407MOL0     H54886   7.352   7.525   8.566 -1.3163  0.9322  1.6070
  407MOL0     H54887   7.455   7.432   8.684 -0.4595  0.1214 -0.1938
  407MOL0     H54888   7.508   7.498   8.397 -0.8836  0.2393  1.0715
  407MOL0     H54889   7.583   7.591   8.535  2.0617 -0.3885 -0.9089
  407MOL0     H54890   7.648   7.323   8.564 -2.4715  2.5581  2.3602
  407MOL0     H54891   7.674   7.359   8.383 -0.4090 -0.8985  0.6468
  407MOL0     H54892   7.824   7.550   8.471 -1.0004 -0.2277 -0.8722
  407MOL0     H54893   7.806   7.463   8.627 -1.0719 -2.0722 -0.5149
  407MOL0     H54894   7.905   7.353   8.371 -1.8388  2.4567  0.1880
  407MOL0     H54895   7.867   7.254   8.519 -1.8880  0.2355  1.5957
  407MOL0     H54896   8.139   7.204   8.396  2.1039 -1.4026  3.2110
  407MOL0     H54897   8.389   7.191   8.405  1.0114 -1.4027  2.3146
  407MOL0     H54898   8.443   7.345   8.361  0.7648 -0.8049  0.1606
  407MOL0     H54899   8.440   7.226   8.650 -0.7355  1.0075  0.7188
  407MOL0     H54900   8.524   7.377   8.611  1.3403 -1.9781  2.7785
  407MOL0     H54901   8.651   7.249   8.442  0.6869  0.5792  0.4427
  407MOL0     H54902   8.581   7.096   8.506  1.2305 -0.2871 -0.6616
  407MOL0     H54903   8.805   7.155   8.597 -0.4042  0.3540 -0.2775
  407MOL0     H54904   8.679   7.136   8.723 -0.1927  2.1243  2.3170
  407MOL0     H54905   8.768   7.490   8.520 -0.4106  0.4532  0.9775
  407MOL0     H54906   9.076   7.604   8.336  0.1272 -1.2673  1.2065
  407MOL0     H54907   8.900   7.623   8.334 -1.9461 -1.6969  1.4302
  407MOL0     H54908   8.995   7.725   8.434 -1.7548 -0.3268  1.9582
  407MOL0     H54909   9.524   7.350   8.697  1.9270  0.5706  1.2905
  407MOL0     H54910   9.768   7.411   8.672  0.8991 -1.3230 -0.6606
  407MOL0     H54911  10.041   7.600   8.531  2.0728 -1.9765 -0.8106
  407MOL0     H54912   9.934   7.542   8.646  1.1239 -0.2603  0.5854
  407MOL0     H54913   9.975   7.304   8.596 -0.3389  0.0720 -0.4202
  407MOL0     H54914  10.086   7.349   8.459  2.1019  0.6696  1.0040
  407MOL0     H54915  10.148   7.472   8.731 -0.6717  0.2185 -0.8249
  407MOL0     H54916  10.249   7.452   8.584  0.7470 -2.1599 -0.5470
  407MOL0     H54917  10.138   7.235   8.753  0.1188  1.9656  2.9131
  407MOL0     H54918  10.237   7.210   8.602  2.7410  0.8590 -0.3242
  407MOL0     H54919  10.333   7.342   8.869  3.3399  1.4252  0.8033
  407MOL0     H54920  10.442   7.306   8.734  2.5873 -4.8244  1.4747
  407MOL0     H54921  10.303   7.075   8.844 -1.0737  1.2977  0.7847
  407MOL0     H54922  10.455   7.091   8.744 -1.6834  1.8645 -2.1563
  407MOL0     H54923  10.407   7.180   9.033  0.1519 -2.5474  1.7418
  407MOL0     H54924  10.557   7.195   8.951 -2.9969  4.3893 -2.1308
  407MOL0     H54925  10.551   6.942   8.931  0.6440  0.0920  0.0516
  407MOL0     H54926  10.396   6.933   9.015 -0.3668  0.3692 -2.6028
  407MOL0     H54927   9.680   7.542   8.269 -1.5916  1.6483 -0.5160
  407MOL0     H54928   9.442   7.504   8.300 -1.5139  0.6151  1.2590
  407MOL0     H54929   9.177   7.313   8.713 -1.6445 -1.4434  1.0063
  407MOL0     H54930   8.966   7.246   8.789 -0.6538 -1.6492 -1.9511
  407MOL0     H54931   7.354   6.815   8.581  0.1638 -2.5606  1.0172
  407MOL0     H54932   7.289   6.630   8.455  1.7930  1.1707 -0.0043
  407MOL0     H54933   6.864   6.501   8.204 -1.3493 -0.8864  1.1159
  407MOL0     H54934   6.762   6.351   8.036  0.2416  2.5175 -1.0918
  407MOL0     H54935   6.933   5.912   8.007  1.4798 -1.1525  1.6083
  407MOL0     H54936   6.841   5.933   8.157  1.5176  1.6114  0.0463
  407MOL0     H54937   6.743   5.884   7.861 -0.8275  1.9448 -0.6985
  407MOL0     H54938   6.631   5.965   7.967  0.5304  0.6522  0.8709
  407MOL0     H54939   6.641   5.778   8.133  3.2185 -2.1162  0.0912
  407MOL0     H54940   6.735   5.691   8.020 -0.3023 -1.2911  3.8867
  407MOL0     H54941   6.538   5.607   7.955 -1.8277  0.1136 -1.4893
  407MOL0     H54942   6.550   5.741   7.841 -1.3978  1.5467  0.0147
  407MOL0     H54943   6.226   5.869   8.082 -0.5950 -0.6901 -0.2555
  407MOL0     H54944   7.029   6.037   8.166  0.8364  0.1783  0.4330
  407MOL0     H54945   7.134   6.208   8.324  0.7263 -0.1103 -0.8069
  408MOL0     O54946   7.572   7.976   7.781  0.0287  0.1422 -0.1024
  408MOL0     C54947   7.584   8.055   7.869 -1.0628 -0.7660 -0.2106
  408MOL0     O54948   7.490   8.110   7.945  0.5166 -0.3511 -0.3365
  408MOL0     C54949   7.366   8.135   7.887  1.5632  0.2380  0.5869
  408MOL0     C54950   7.320   8.270   7.869 -0.2143  0.2474  0.5696
  408MOL0     C54951   7.199   8.296   7.802  0.3543  0.2596 -0.1472
  408MOL0     C54952   7.116   8.192   7.768  0.3028 -0.7637 -0.7809
  408MOL0     O54953   6.996   8.229   7.722  0.4271  0.1122  0.1220
  408MOL0     C54954   6.890   8.216   7.817 -0.4766  0.0904 -0.2761
  408MOL0     C54955   6.759   8.237   7.728  0.2101 -0.0986  0.0889
  408MOL0     C54956   6.752   8.385   7.675  0.0763 -0.7963 -0.6662
  408MOL0     C54957   6.641   8.406   7.570 -0.3315 -0.5521 -1.0801
  408MOL0     C54958   6.492   8.429   7.607  0.3686  0.0698  0.6256
  408MOL0     C54959   6.463   8.553   7.699 -0.3407 -0.3265 -0.1214
  408MOL0     C54960   6.321   8.584   7.710  0.0592  0.4309  0.3684
  408MOL0     C54961   6.250   8.616   7.573 -0.7873 -0.6314  0.4445
  408MOL0     N54962   6.105   8.633   7.589 -0.0149 -0.8877  0.4332
  408MOL0     C54963   6.046   8.704   7.688 -0.2977  0.1978 -0.2562
  408MOL0     C54964   5.928   8.648   7.708 -0.8519  0.5844  0.0734
  408MOL0     C54965   5.845   8.659   7.834 -0.8261  0.0455  0.2179
  408MOL0     C54966   5.710   8.597   7.835 -0.2070  0.0459  0.0852
  408MOL0     C54967   5.654   8.564   7.970  0.3148 -0.0815 -0.1819
  408MOL0     C54968   5.607   8.693   8.030 -0.2557 -0.9512 -0.8694
  408MOL0     O54969   5.592   8.671   8.169  0.4743  0.0823 -0.4959
  408MOL0     C54970   5.583   8.791   8.243 -0.4250  0.2343 -0.8900
  408MOL0     C54971   5.566   8.921   8.183  0.0880 -0.1984 -1.0239
  408MOL0     C54972   5.551   9.040   8.262  0.0978  0.0205  0.7806
  408MOL0     C54973   5.513   9.170   8.189 -0.1028  0.7549 -0.3707
  408MOL0     C54974   5.555   9.037   8.404  0.8531  0.3096  0.8584
  408MOL0     C54975   5.540   9.153   8.500 -0.5078  0.5111  0.9323
  408MOL0     O54976   5.584   9.268   8.442 -1.1765  0.2152 -0.3459
  408MOL0     C54977   5.544   9.383   8.513  0.1589  1.0892 -0.0074
  408MOL0     C54978   5.412   9.443   8.498 -0.3392  0.2710 -0.1698
  408MOL0     C54979   5.383   9.552   8.576 -0.0666 -0.5697  0.0999
  408MOL0     C54980   5.471   9.609   8.675 -0.1302  0.0876 -0.4839
  408MOL0     O54981   5.444   9.720   8.744  0.3982 -0.3427  0.0122
  408MOL0     C54982   5.315   9.777   8.734  0.0876  0.8062  0.9429
  408MOL0     C54983   5.294   9.861   8.860  0.8546  0.3622  0.1938
  408MOL0     C54984   5.355  10.001   8.850 -0.7459 -0.8731  0.3279
  408MOL0     C54985   5.303  10.107   8.748  0.8278 -0.6041 -0.2467
  408MOL0     C54986   5.341  10.249   8.779 -0.7402 -0.1130 -0.1561
  408MOL0     C54987   5.485  10.271   8.734 -0.2669  0.1811 -0.7794
  408MOL0     C54988   5.526  10.417   8.756  1.0684 -0.1239 -0.4328
  408MOL0     C54989   5.483  10.504   8.643  0.3264  0.8456 -0.0822
  408MOL0    Cl54990   5.577  10.464   8.497  0.0882 -0.2078  0.6953
  408MOL0     C54991   5.598   9.546   8.680  0.3701  0.5733  0.1883
  408MOL0     C54992   5.630   9.431   8.610 -0.2322  0.3216  0.8401
  408MOL0     O54993   5.487   9.138   8.610  0.5318  0.1408  0.7600
  408MOL0     C54994   5.565   8.906   8.461 -0.2412 -0.0875  0.3232
  408MOL0     C54995   5.578   8.789   8.384 -0.1567  1.0587  0.1087
  408MOL0     N54996   5.907   8.553   7.606 -0.8596 -0.3716  0.3853
  408MOL0     N54997   6.016   8.536   7.538  1.9643 -1.1480  0.1181
  408MOL0     C54998   7.147   8.067   7.806 -0.4584  0.6458 -0.3363
  408MOL0     C54999   7.272   8.034   7.854 -0.0478  0.1389 -0.4954
  408MOL0     C55000   7.731   8.073   7.912  0.1029 -0.4578 -0.8478
  408MOL0     C55001   7.843   8.035   7.836  0.1368 -0.5133  0.2466
  408MOL0     C55002   7.974   8.037   7.890  0.7449  0.3912 -0.3453
  408MOL0     C55003   7.998   8.087   8.025 -0.2683  0.0192 -0.2713
  408MOL0     O55004   8.118   8.087   8.092 -1.0913 -0.5511 -0.8177
  408MOL0     C55005   8.243   8.061   8.024 -0.1712 -0.3370 -0.4537
  408MOL0     C55006   8.280   8.195   7.952 -0.0844 -0.4193 -0.2258
  408MOL0     C55007   8.417   8.196   7.892 -0.6964 -0.2022  0.0897
  408MOL0     C55008   8.537   8.213   7.996 -0.6718  0.2224 -0.5269
  408MOL0     C55009   8.674   8.186   7.948  0.1076  0.0025  0.2007
  408MOL0     C55010   8.786   8.162   7.904  0.8112 -0.2451 -0.3960
  408MOL0     C55011   7.892   8.127   8.101  0.4550  0.0062  0.6556
  408MOL0     C55012   7.761   8.132   8.041 -0.8091  1.5823  0.4076
  408MOL0     H55013   7.385   8.352   7.896  0.9239  0.7349 -3.0915
  408MOL0     H55014   7.157   8.394   7.781 -1.7200 -0.4324  0.4498
  408MOL0     H55015   6.868   8.116   7.856 -0.8901  0.0834 -0.5229
  408MOL0     H55016   6.902   8.281   7.904  3.1761 -1.4926  0.5791
  408MOL0     H55017   6.756   8.172   7.640  1.3880  2.0872 -1.7103
  408MOL0     H55018   6.671   8.218   7.790 -0.3360 -1.0406 -0.9402
  408MOL0     H55019   6.725   8.454   7.756 -1.8273  1.0299 -2.7128
  408MOL0     H55020   6.849   8.406   7.631  1.3631 -0.1056  2.2732
  408MOL0     H55021   6.664   8.497   7.513 -0.2727 -1.5290 -2.6645
  408MOL0     H55022   6.651   8.326   7.496  1.2453 -2.8265  1.4246
  408MOL0     H55023   6.442   8.436   7.510  0.4775  1.1872  0.6381
  408MOL0     H55024   6.455   8.340   7.658  1.3544 -0.2320  0.8381
  408MOL0     H55025   6.508   8.542   7.798 -0.9267  0.4944  0.2494
  408MOL0     H55026   6.510   8.644   7.659  0.8601  0.1915  2.2981
  408MOL0     H55027   6.272   8.504   7.765 -0.4563  0.0556 -0.6112
  408MOL0     H55028   6.309   8.678   7.764  0.6489  0.8818 -0.2672
  408MOL0     H55029   6.279   8.545   7.495 -0.7480  1.0632 -1.1580
  408MOL0     H55030   6.292   8.712   7.541  0.8957 -1.5524 -0.1884
  408MOL0     H55031   6.097   8.770   7.757  1.3526 -3.6443  2.5827
  408MOL0     H55032   5.911   8.620   7.912 -0.7400 -1.5180 -0.5926
  408MOL0     H55033   5.839   8.768   7.843  3.8106  0.6291 -0.8889
  408MOL0     H55034   5.710   8.504   7.778 -0.7306  0.5319 -0.7305
  408MOL0     H55035   5.634   8.659   7.786 -0.2820  0.7721  1.0866
  408MOL0     H55036   5.735   8.512   8.023  2.9634  2.5816 -1.3162
  408MOL0     H55037   5.568   8.498   7.959 -0.1202  0.4367  0.0983
  408MOL0     H55038   5.519   8.734   7.981 -1.1794 -1.6129  0.1791
  408MOL0     H55039   5.688   8.766   8.023 -0.8828  0.2687  2.5983
  408MOL0     H55040   5.571   8.936   8.076  1.3947 -0.9190 -1.0869
  408MOL0     H55041   5.587   9.250   8.184 -0.6204  1.2233 -0.6516
  408MOL0     H55042   5.486   9.148   8.085  0.3187 -0.7661 -0.1789
  408MOL0     H55043   5.421   9.203   8.237  1.4052  1.5843  2.1532
  408MOL0     H55044   5.334   9.407   8.432 -1.5953 -1.9100  2.3214
  408MOL0     H55045   5.287   9.602   8.564  1.0566  1.6965  0.0484
  408MOL0     H55046   5.319   9.846   8.650  1.2078  0.5267  0.7516
  408MOL0     H55047   5.243   9.695   8.725  2.4859 -1.4894  1.3889
  408MOL0     H55048   5.188   9.885   8.863  1.1813  2.1645 -0.9553
  408MOL0     H55049   5.327   9.796   8.941  0.7473 -2.1670 -1.6612
  408MOL0     H55050   5.462   9.984   8.842 -0.7162 -1.7378  1.9814
  408MOL0     H55051   5.362  10.057   8.944 -3.7504  0.3840 -0.0726
  408MOL0     H55052   5.331  10.085   8.644 -0.6611  2.2740 -1.3566
  408MOL0     H55053   5.194  10.113   8.754  0.7377 -0.6515 -1.5800
  408MOL0     H55054   5.330  10.266   8.886 -0.8381  1.1430 -0.3462
  408MOL0     H55055   5.281  10.315   8.715 -2.6752  0.9245  2.5431
  408MOL0     H55056   5.564  10.213   8.783  2.5244  2.3329 -2.4275
  408MOL0     H55057   5.502  10.245   8.629 -0.4096  0.7800 -0.9563
  408MOL0     H55058   5.633  10.404   8.772  0.5460 -2.1247  2.2828
  408MOL0     H55059   5.486  10.440   8.855  3.5388  0.8560  0.3997
  408MOL0     H55060   5.499  10.602   8.689  1.9193  0.4120  0.3704
  408MOL0     H55061   5.377  10.493   8.621 -0.4699  1.0928  3.0966
  408MOL0     H55062   5.667   9.591   8.751  1.6918 -1.6751  0.4480
  408MOL0     H55063   5.733   9.399   8.619 -0.3532 -0.2760  0.1716
  408MOL0     H55064   5.551   8.898   8.569 -1.8511  1.0705  0.2433
  408MOL0     H55065   5.587   8.694   8.436 -1.7227  1.2125  0.7068
  408MOL0     H55066   7.071   7.992   7.782 -0.9068  0.7415  0.7333
  408MOL0     H55067   7.292   7.929   7.873 -2.7315 -0.7941 -2.1919
  408MOL0     H55068   7.819   7.999   7.736 -0.4441 -2.6333  1.0938
  408MOL0     H55069   8.052   7.992   7.830  1.7252  1.5932 -0.0373
  408MOL0     H55070   8.321   8.028   8.095 -1.7947  1.4474  2.3449
  408MOL0     H55071   8.232   7.966   7.971  0.8173 -3.3175  4.0434
  408MOL0     H55072   8.287   8.270   8.031  1.9516 -1.9502  1.1689
  408MOL0     H55073   8.204   8.220   7.877 -2.0419 -3.3780  0.6169
  408MOL0     H55074   8.424   8.279   7.821  2.5438 -1.4569 -1.2738
  408MOL0     H55075   8.422   8.112   7.822  0.6382  0.0852 -0.1747
  408MOL0     H55076   8.514   8.147   8.081  2.1731  1.9899  1.8064
  408MOL0     H55077   8.531   8.314   8.037 -0.2428 -0.8244  2.2927
  408MOL0     H55078   8.881   8.125   7.871  2.1251  0.8420  1.9436
  408MOL0     H55079   7.887   8.140   8.208  2.3735 -0.5979  0.8687
  408MOL0     H55080   7.682   8.158   8.111 -0.6064 -1.0957  1.7532
  409MOL0     O55081   7.058   8.724   1.489  0.1785  0.3519 -0.8091
  409MOL0     C55082   7.054   8.821   1.409  0.6486 -0.7841 -0.5470
  409MOL0     O55083   6.959   8.845   1.302  0.8069  0.1381 -0.1790
  409MOL0     C55084   6.849   8.760   1.284  0.6327  0.3048 -0.7579
  409MOL0     C55085   6.796   8.659   1.370 -0.6108 -0.3303 -0.3758
  409MOL0     C55086   6.700   8.570   1.332 -0.1600  0.1778 -0.5426
  409MOL0     C55087   6.655   8.573   1.197  0.1521  0.4572 -0.0651
  409MOL0     O55088   6.579   8.471   1.149 -0.3390 -0.9920 -0.2606
  409MOL0     C55089   6.459   8.439   1.224  0.1479  0.0179 -0.2333
  409MOL0     C55090   6.361   8.565   1.216 -0.3255  0.3267 -0.3187
  409MOL0     C55091   6.245   8.541   1.322  0.0769  0.2846  0.7825
  409MOL0     C55092   6.140   8.652   1.320 -1.3031 -0.1725  0.1828
  409MOL0     C55093   6.052   8.651   1.447 -0.2983 -0.5569  0.4485
  409MOL0     C55094   5.960   8.778   1.452 -0.5134 -0.2070  0.0548
  409MOL0     C55095   5.852   8.784   1.567  0.1797 -0.1981  0.1163
  409MOL0     C55096   5.735   8.688   1.548  0.5135  0.4851 -0.0522
  409MOL0     N55097   5.657   8.712   1.423  0.0252 -0.6479  0.0642
  409MOL0     C55098   5.558   8.816   1.407 -0.8918 -0.5285  1.0009
  409MOL0     C55099   5.501   8.789   1.289 -0.7957  0.3175 -0.8433
  409MOL0     C55100   5.387   8.860   1.229 -0.2099 -0.3007  0.1118
  409MOL0     C55101   5.274   8.778   1.164  0.3951 -0.1351 -0.1349
  409MOL0     C55102   5.177   8.717   1.281 -0.3838  0.1135  0.2619
  409MOL0     C55103   5.252   8.620   1.370 -0.7434 -0.8256  0.8921
  409MOL0     O55104   5.164   8.511   1.400 -0.1839  0.7130  0.4790
  409MOL0     C55105   5.220   8.388   1.411  0.1898  0.2558  0.4602
  409MOL0     C55106   5.132   8.277   1.420  0.3240  0.7017  0.1093
  409MOL0     C55107   5.170   8.142   1.448  0.0480  0.5721  0.4998
  409MOL0     C55108   5.055   8.047   1.467 -0.0299  0.0047  0.2917
  409MOL0     C55109   5.313   8.116   1.457 -0.3583 -0.4878 -0.3136
  409MOL0     C55110   5.375   7.984   1.448 -0.2512  0.1260  0.2413
  409MOL0     O55111   5.500   7.966   1.511  0.2467  0.7262  0.4905
  409MOL0     C55112   5.536   7.836   1.514 -0.6346 -0.1342  1.0227
  409MOL0     C55113   5.489   7.754   1.618  0.8006 -0.0416 -1.1036
  409MOL0     C55114   5.542   7.627   1.628  0.4675  0.0975 -0.2125
  409MOL0     C55115   5.625   7.569   1.533  0.3415  0.0631 -0.6105
  409MOL0     O55116   5.672   7.438   1.553  0.2162  0.3968  0.3502
  409MOL0     C55117   5.675   7.377   1.682  0.5489  0.4749 -0.1634
  409MOL0     C55118   5.769   7.256   1.688  0.3674 -0.9452 -0.4492
  409MOL0     C55119   5.695   7.125   1.655  0.8380  0.1821 -0.2286
  409MOL0     C55120   5.775   7.005   1.628  0.0870  0.3456 -0.9407
  409MOL0     C55121   5.684   6.890   1.579 -0.1078 -0.0657 -0.5094
  409MOL0     C55122   5.765   6.775   1.532 -0.1292  0.8417 -0.8531
  409MOL0     C55123   5.686   6.646   1.560  0.4008 -0.3059 -0.8496
  409MOL0     C55124   5.746   6.520   1.504  0.3367  0.7696 -0.4660
  409MOL0    Cl55125   5.627   6.385   1.531  0.1044  0.1348  0.0450
  409MOL0     C55126   5.670   7.656   1.432  0.3873  0.6163 -0.2975
  409MOL0     C55127   5.634   7.793   1.428 -0.5779  0.3802  0.0114
  409MOL0     O55128   5.301   7.898   1.401 -0.3230  0.3859 -0.3988
  409MOL0     C55129   5.403   8.229   1.462  0.0394 -0.1692 -0.5522
  409MOL0     C55130   5.358   8.356   1.441  0.1771 -0.0793  0.4181
  409MOL0     N55131   5.560   8.666   1.246 -1.1841 -0.5546  0.9435
  409MOL0     N55132   5.652   8.630   1.317 -0.1177  0.1948  0.0173
  409MOL0     C55133   6.714   8.658   1.111  0.0332  0.1980  0.1424
  409MOL0     C55134   6.803   8.755   1.156  0.0939 -0.0102  0.6826
  409MOL0     C55135   7.175   8.913   1.416  0.1407  0.2927 -0.2303
  409MOL0     C55136   7.206   9.010   1.320 -0.8436 -0.0123 -0.4508
  409MOL0     C55137   7.315   9.100   1.351  1.1675 -0.0111 -0.4866
  409MOL0     C55138   7.386   9.095   1.475  0.4247  1.4086  0.7701
  409MOL0     O55139   7.486   9.187   1.487 -0.5999 -0.6781 -0.1799
  409MOL0     C55140   7.600   9.161   1.563  0.2071  0.0421 -0.2079
  409MOL0     C55141   7.698   9.277   1.550 -0.0568  0.1272  0.3303
  409MOL0     C55142   7.730   9.305   1.403 -0.5439 -0.4546 -1.8405
  409MOL0     C55143   7.847   9.398   1.373  0.1955  0.5209 -0.1246
  409MOL0     C55144   7.976   9.343   1.411 -0.1866  0.1714  0.2407
  409MOL0     C55145   8.076   9.297   1.456 -0.7446 -1.2081  0.2906
  409MOL0     C55146   7.358   8.983   1.555  0.1138 -0.0587  0.2740
  409MOL0     C55147   7.256   8.892   1.533  0.7516 -1.1897  0.5533
  409MOL0     H55148   6.816   8.664   1.476  1.8211  0.2106 -0.8022
  409MOL0     H55149   6.648   8.509   1.406  3.8122  0.0079  2.4526
  409MOL0     H55150   6.404   8.358   1.176  0.6403 -0.7128  0.4089
  409MOL0     H55151   6.461   8.417   1.331 -2.0950 -0.7012 -0.2789
  409MOL0     H55152   6.408   8.656   1.255  0.0773 -0.6201  1.5181
  409MOL0     H55153   6.322   8.572   1.114  0.3296  1.2316 -0.5162
  409MOL0     H55154   6.200   8.442   1.306  3.2206 -1.4214  1.6608
  409MOL0     H55155   6.300   8.534   1.416  0.9688 -2.3247  0.1699
  409MOL0     H55156   6.198   8.744   1.309 -4.0846  1.5861 -0.8413
  409MOL0     H55157   6.074   8.649   1.232 -4.4231 -1.0873  2.3979
  409MOL0     H55158   5.991   8.560   1.440 -0.6530 -0.4558  1.8957
  409MOL0     H55159   6.118   8.637   1.532 -1.0275 -0.6870  1.0070
  409MOL0     H55160   6.019   8.870   1.462 -2.2039  0.7379  2.3200
  409MOL0     H55161   5.905   8.771   1.358 -3.3700  1.4501  1.4828
  409MOL0     H55162   5.891   8.752   1.664 -1.0385 -0.2228  0.6269
  409MOL0     H55163   5.810   8.885   1.573 -2.1584 -0.8288 -3.2557
  409MOL0     H55164   5.657   8.688   1.626 -0.6024  0.5963 -1.1302
  409MOL0     H55165   5.776   8.588   1.532  0.3787  0.4739 -0.3358
  409MOL0     H55166   5.546   8.900   1.474  1.8948 -0.7948  1.9869
  409MOL0     H55167   5.349   8.919   1.313 -0.1156  1.5080 -1.0775
  409MOL0     H55168   5.431   8.925   1.153 -0.4890 -1.9903 -1.5619
  409MOL0     H55169   5.328   8.704   1.104 -1.0453 -0.0022 -1.6913
  409MOL0     H55170   5.211   8.846   1.106  1.3266  0.9479  0.0917
  409MOL0     H55171   5.095   8.665   1.231 -0.1823  0.4914 -0.4761
  409MOL0     H55172   5.144   8.789   1.357  0.8311 -1.4233  2.3510
  409MOL0     H55173   5.303   8.674   1.450  2.4525 -1.7474 -0.3761
  409MOL0     H55174   5.338   8.578   1.317 -0.6391 -0.0957  0.4685
  409MOL0     H55175   5.027   8.305   1.418 -1.5959 -4.4283  4.4004
  409MOL0     H55176   5.088   7.968   1.535  0.6510 -1.5259 -1.7591
  409MOL0     H55177   4.964   8.106   1.486 -2.9729 -3.1140 -2.8251
  409MOL0     H55178   5.049   8.001   1.369  2.3676 -0.8092  0.4525
  409MOL0     H55179   5.425   7.793   1.697  3.6481 -1.8713  2.3874
  409MOL0     H55180   5.517   7.576   1.721  2.8659  0.4390  0.6958
  409MOL0     H55181   5.716   7.456   1.745  1.3691  0.0125 -0.1054
  409MOL0     H55182   5.572   7.349   1.709 -0.6106  0.3843 -4.0667
  409MOL0     H55183   5.856   7.265   1.624  2.4010  0.5372  2.3142
  409MOL0     H55184   5.801   7.246   1.792 -0.6347  1.3409  0.1456
  409MOL0     H55185   5.641   7.149   1.563  0.4445  1.6543  0.3426
  409MOL0     H55186   5.614   7.114   1.728 -0.4272  1.1928 -1.4151
  409MOL0     H55187   5.837   7.031   1.541 -3.0534 -1.3776 -3.9792
  409MOL0     H55188   5.831   6.989   1.720 -2.1765  0.1026  0.4749
  409MOL0     H55189   5.620   6.933   1.502 -0.0181  2.4740  0.7213
  409MOL0     H55190   5.627   6.854   1.665 -1.0102 -1.1392 -1.5335
  409MOL0     H55191   5.788   6.763   1.426  0.5352 -2.1925 -0.4643
  409MOL0     H55192   5.854   6.766   1.594 -0.8383  0.3995  0.1288
  409MOL0     H55193   5.582   6.657   1.527 -0.2800 -0.3611  1.1287
  409MOL0     H55194   5.674   6.625   1.667 -2.4862 -1.0205 -1.2197
  409MOL0     H55195   5.844   6.502   1.549  0.0649  1.0506  0.2612
  409MOL0     H55196   5.751   6.536   1.396  0.0351  2.1757 -0.2952
  409MOL0     H55197   5.728   7.614   1.351  0.7685  1.6971 -0.5993
  409MOL0     H55198   5.669   7.857   1.348 -0.0847 -0.1989 -0.2416
  409MOL0     H55199   5.511   8.218   1.464  0.4202  2.3317 -2.7977
  409MOL0     H55200   5.434   8.432   1.449 -1.8834  1.9716  1.6669
  409MOL0     H55201   6.713   8.632   1.005 -1.5618 -0.6809  0.3420
  409MOL0     H55202   6.842   8.828   1.086 -1.6922  0.1449 -0.1867
  409MOL0     H55203   7.148   9.023   1.229 -2.5648 -2.7877  0.1208
  409MOL0     H55204   7.346   9.180   1.284  2.3959 -0.7157 -0.7745
  409MOL0     H55205   7.561   9.160   1.665 -1.6592 -0.2501 -0.8833
  409MOL0     H55206   7.654   9.068   1.544  1.1418  0.6297 -0.4901
  409MOL0     H55207   7.791   9.260   1.605 -0.4063 -3.9520 -0.0756
  409MOL0     H55208   7.648   9.364   1.595  0.0286 -0.0152  0.7096
  409MOL0     H55209   7.641   9.349   1.358 -1.6593  1.0561  1.5169
  409MOL0     H55210   7.738   9.208   1.353 -1.0982 -2.0276  0.9080
  409MOL0     H55211   7.838   9.502   1.407  1.5074  0.9019 -0.8759
  409MOL0     H55212   7.849   9.407   1.264 -1.3054  1.5507 -0.1074
  409MOL0     H55213   8.164   9.261   1.506 -1.0801 -0.1355  1.7217
  409MOL0     H55214   7.407   8.975   1.651 -1.0381 -0.6309  0.8307
  409MOL0     H55215   7.234   8.817   1.609  0.8657  1.0142  2.8916
  410MOL0     O55216   3.411   8.804   4.067 -0.5462 -0.3868  0.5588
  410MOL0     C55217   3.481   8.766   4.165 -1.5048  0.4083 -0.3047
  410MOL0     O55218   3.430   8.715   4.281  0.2512 -0.0313  0.0018
  410MOL0     C55219   3.301   8.670   4.287 -0.0326  0.4204  0.1627
  410MOL0     C55220   3.245   8.686   4.411  0.7022 -0.1007  0.2143
  410MOL0     C55221   3.113   8.646   4.431  0.6432 -0.1459 -0.6744
  410MOL0     C55222   3.034   8.597   4.326 -0.0506  0.5992 -0.4080
  410MOL0     O55223   2.911   8.535   4.356  0.0928  0.0703 -0.2142
  410MOL0     C55224   2.855   8.540   4.490  0.9963 -0.9297  0.3062
  410MOL0     C55225   2.736   8.439   4.481  0.4911  0.4454 -0.2103
  410MOL0     C55226   2.612   8.490   4.406 -0.7309 -0.6680 -0.6192
  410MOL0     C55227   2.510   8.566   4.494  0.1810  0.2318  0.5384
  410MOL0     C55228   2.393   8.605   4.412 -0.6187 -0.2240  0.6723
  410MOL0     C55229   2.279   8.673   4.491 -0.3063  0.5071 -0.0889
  410MOL0     C55230   2.197   8.743   4.386  0.0310  0.3267  0.0363
  410MOL0     C55231   2.086   8.832   4.451  0.1483  0.3256 -0.3775
  410MOL0     N55232   2.132   8.927   4.565 -0.3593 -0.4346 -0.8732
  410MOL0     C55233   2.072   8.933   4.692 -0.2290  0.0384  0.0915
  410MOL0     C55234   2.154   9.011   4.764 -0.0795 -0.3056  0.8683
  410MOL0     C55235   2.123   9.034   4.909 -0.2499 -0.5035 -0.0691
  410MOL0     C55236   2.255   9.068   4.995  0.6815  0.8731 -0.4510
  410MOL0     C55237   2.244   9.014   5.145 -0.0976 -0.0622  0.3414
  410MOL0     C55238   2.289   8.865   5.164  0.1766  0.5752 -0.3845
  410MOL0     O55239   2.183   8.775   5.109  0.1700  0.2846  0.6011
  410MOL0     C55240   2.102   8.715   5.197 -0.1730  0.7531  0.3599
  410MOL0     C55241   2.119   8.679   5.332  0.1821 -0.4899 -0.1948
  410MOL0     C55242   2.015   8.623   5.415 -0.0115  0.0619 -0.3907
  410MOL0     C55243   2.032   8.610   5.566  0.4485  0.0671 -0.1147
  410MOL0     C55244   1.898   8.582   5.353 -1.0979  0.5911 -0.2286
  410MOL0     C55245   1.801   8.513   5.429 -0.5661  0.9480 -0.1192
  410MOL0     O55246   1.790   8.380   5.424 -0.9411 -0.4648  0.2148
  410MOL0     C55247   1.690   8.319   5.499 -0.4477 -0.1214 -0.4431
  410MOL0     C55248   1.729   8.287   5.631 -0.0061  0.6072 -0.0748
  410MOL0     C55249   1.642   8.224   5.712 -0.6962 -0.3015  0.5044
  410MOL0     C55250   1.510   8.204   5.675 -0.1104  0.6066 -0.2853
  410MOL0     O55251   1.421   8.171   5.774  0.1702 -0.2132  0.3215
  410MOL0     C55252   1.279   8.207   5.756  0.2013 -0.7847  0.8258
  410MOL0     C55253   1.211   8.244   5.896  0.1697  0.5281 -0.3993
  410MOL0     C55254   1.057   8.265   5.877  0.0395 -0.6696  0.1400
  410MOL0     C55255   0.978   8.129   5.855  0.0092 -0.1536 -1.0337
  410MOL0     C55256   0.825   8.161   5.855  0.5276  0.1790  0.1845
  410MOL0     C55257   0.727   8.041   5.843  0.4480  0.8312  0.5786
  410MOL0     C55258   0.581   8.087   5.859 -0.0530 -0.9638  0.1535
  410MOL0     C55259   0.488   7.977   5.838  0.7136 -0.0245 -0.6271
  410MOL0    Cl55260   0.343   8.025   5.935  0.1502 -0.1386 -0.4857
  410MOL0     C55261   1.473   8.226   5.543  0.4673 -0.6991 -0.5187
  410MOL0     C55262   1.561   8.287   5.453  0.0504  0.1461 -1.1154
  410MOL0     O55263   1.726   8.579   5.495 -0.1445 -0.7425  0.3423
  410MOL0     C55264   1.885   8.601   5.211 -0.3328  0.3881  0.1203
  410MOL0     C55265   1.987   8.663   5.142 -0.2150  0.3429 -0.6726
  410MOL0     N55266   2.259   9.052   4.685  0.8004  0.5737  0.5430
  410MOL0     N55267   2.248   8.998   4.569  0.5278 -0.2807 -0.4709
  410MOL0     C55268   3.093   8.581   4.200  0.1615  0.9363 -0.6517
  410MOL0     C55269   3.233   8.612   4.185  0.2204  0.5839  0.0111
  410MOL0     C55270   3.625   8.783   4.166 -0.1637 -0.3696 -0.0642
  410MOL0     C55271   3.691   8.859   4.067  0.1322  0.2432  0.4361
  410MOL0     C55272   3.833   8.877   4.054 -0.2935  0.3711  0.5705
  410MOL0     C55273   3.917   8.814   4.142 -0.0511 -0.0372 -0.3326
  410MOL0     O55274   4.049   8.824   4.162  0.0361  0.1289  0.5323
  410MOL0     C55275   4.124   8.905   4.068 -0.2931  0.0040 -1.0661
  410MOL0     C55276   4.271   8.935   4.111  0.1816 -0.6196 -0.2426
  410MOL0     C55277   4.374   8.894   4.007  0.1928 -1.3590  1.0495
  410MOL0     C55278   4.342   8.947   3.861  0.6798 -0.8705 -0.3287
  410MOL0     C55279   4.464   8.948   3.783 -0.5045 -1.4004  0.3653
  410MOL0     C55280   4.558   8.932   3.706  0.5264 -0.4635 -1.2145
  410MOL0     C55281   3.852   8.723   4.227  0.7030 -0.1170 -0.6702
  410MOL0     C55282   3.717   8.709   4.245  1.1571  0.1144  0.1002
  410MOL0     H55283   3.290   8.751   4.485  0.0821  2.0262 -1.2089
  410MOL0     H55284   3.061   8.665   4.524 -2.1765  0.2700 -2.2335
  410MOL0     H55285   2.923   8.510   4.571 -0.6706 -3.9865  0.7108
  410MOL0     H55286   2.809   8.638   4.507  0.0721 -1.3675  0.3833
  410MOL0     H55287   2.767   8.336   4.462  0.0648  0.3038 -0.1571
  410MOL0     H55288   2.718   8.444   4.589 -0.6177  2.8258 -0.4496
  410MOL0     H55289   2.649   8.557   4.328  1.8412 -1.5485 -0.2360
  410MOL0     H55290   2.569   8.407   4.349 -1.1422  1.1685 -3.1466
  410MOL0     H55291   2.484   8.517   4.589 -0.4790  0.1220  0.3068
  410MOL0     H55292   2.555   8.663   4.520  1.0250 -0.4447  1.7063
  410MOL0     H55293   2.440   8.669   4.337 -0.2018 -0.7797  0.4562
  410MOL0     H55294   2.347   8.520   4.361  0.2353 -1.1690  1.4343
  410MOL0     H55295   2.215   8.600   4.541  0.4266  0.0830  0.2446
  410MOL0     H55296   2.322   8.748   4.558 -0.4131 -2.2147  3.3329
  410MOL0     H55297   2.270   8.794   4.322 -1.1473  0.3897 -1.2951
  410MOL0     H55298   2.151   8.662   4.330  0.7982  0.4192 -0.7555
  410MOL0     H55299   2.017   8.768   4.506  2.4462 -0.1283  2.1797
  410MOL0     H55300   2.040   8.892   4.372 -1.9105  0.2699  0.7117
  410MOL0     H55301   1.969   8.904   4.708 -0.4001  0.4019 -0.3359
  410MOL0     H55302   2.066   9.126   4.923 -0.6434 -0.5988 -1.0451
  410MOL0     H55303   2.063   8.952   4.948 -3.1184  0.6212 -1.8258
  410MOL0     H55304   2.302   9.167   4.993  2.2740  0.1424 -1.8474
  410MOL0     H55305   2.334   9.005   4.953 -0.7814 -0.2219 -1.6796
  410MOL0     H55306   2.142   9.010   5.182  0.6996  3.9559  3.7940
  410MOL0     H55307   2.300   9.083   5.209  0.2011 -0.7247  0.8045
  410MOL0     H55308   2.308   8.836   5.268 -3.0802 -2.8896 -0.5776
  410MOL0     H55309   2.379   8.851   5.103  0.0561 -1.5270 -0.1262
  410MOL0     H55310   2.211   8.696   5.387 -0.2035 -2.1696  1.0361
  410MOL0     H55311   1.944   8.570   5.616 -0.3112  1.0017 -0.6666
  410MOL0     H55312   2.118   8.543   5.576  1.0460  0.7364 -0.6291
  410MOL0     H55313   2.057   8.703   5.619 -1.4173  0.9764 -0.7643
  410MOL0     H55314   1.827   8.305   5.675  0.5255 -3.1308  0.5743
  410MOL0     H55315   1.676   8.217   5.815 -1.8712 -0.5437  0.8936
  410MOL0     H55316   1.256   8.284   5.683 -0.9963 -2.4551 -0.6418
  410MOL0     H55317   1.227   8.122   5.712  0.5868 -0.6836  0.1545
  410MOL0     H55318   1.235   8.169   5.971  0.8890  0.1384 -1.0066
  410MOL0     H55319   1.255   8.339   5.928  3.6261 -1.5990  1.8392
  410MOL0     H55320   1.039   8.336   5.796  0.3124 -0.3305  0.3716
  410MOL0     H55321   1.028   8.319   5.968 -2.2149 -2.5885  0.6566
  410MOL0     H55322   1.003   8.082   5.759  3.0501  1.0511 -0.9446
  410MOL0     H55323   0.999   8.061   5.939 -2.0246 -1.5364 -1.5573
  410MOL0     H55324   0.824   8.224   5.765  2.1777 -0.5283 -0.3756
  410MOL0     H55325   0.801   8.219   5.944 -0.3582 -0.0004  0.0709
  410MOL0     H55326   0.735   7.988   5.748  1.1655 -0.0973  1.1265
  410MOL0     H55327   0.747   7.962   5.917  0.8022 -0.9882 -1.3475
  410MOL0     H55328   0.568   8.175   5.796 -0.3358  0.1211  1.6884
  410MOL0     H55329   0.571   8.118   5.964 -3.8340 -0.0928 -0.3161
  410MOL0     H55330   0.531   7.885   5.878  1.2123 -0.1347 -1.3852
  410MOL0     H55331   0.476   7.955   5.731 -0.1543 -0.2534 -0.4932
  410MOL0     H55332   1.373   8.202   5.508 -1.0532 -0.8379  3.4136
  410MOL0     H55333   1.558   8.309   5.346  3.9508  0.8943 -1.2031
  410MOL0     H55334   1.796   8.576   5.154  0.2732  0.8533 -1.0718
  410MOL0     H55335   1.992   8.670   5.034  3.0809 -1.3762 -0.7421
  410MOL0     H55336   3.036   8.557   4.110 -0.9097  1.9639 -0.2688
  410MOL0     H55337   3.282   8.605   4.089  0.1651 -0.9448  0.0805
  410MOL0     H55338   3.630   8.912   3.994 -0.4962 -2.3221 -1.0022
  410MOL0     H55339   3.874   8.934   3.971  1.5170 -1.3015  0.2351
  410MOL0     H55340   4.134   8.857   3.970  2.6316  2.0815 -1.9519
  410MOL0     H55341   4.073   8.997   4.038 -2.4090 -0.6604  0.3224
  410MOL0     H55342   4.295   8.887   4.206  1.4952 -1.1601 -0.8295
  410MOL0     H55343   4.287   9.042   4.128 -0.5717 -0.6516  0.8132
  410MOL0     H55344   4.381   8.786   3.994  0.7438 -1.3428  1.2106
  410MOL0     H55345   4.473   8.932   4.033  0.6117 -2.5116  1.1825
  410MOL0     H55346   4.303   9.050   3.864 -0.2516 -1.1611 -1.5051
  410MOL0     H55347   4.260   8.890   3.816  0.4906 -1.0176  0.1941
  410MOL0     H55348   4.646   8.935   3.645  1.4409  2.0785  0.0733
  410MOL0     H55349   3.906   8.668   4.303 -1.1512 -0.5209  0.3915
  410MOL0     H55350   3.681   8.651   4.329 -1.6603  2.9713  1.0908
  411MOL0     O55351  10.524   5.056   8.452 -0.2552  0.3160  0.4015
  411MOL0     C55352  10.446   4.967   8.415  0.0627 -0.0468 -0.5404
  411MOL0     O55353  10.409   4.862   8.504  1.4941 -0.3066  0.5328
  411MOL0     C55354  10.469   4.854   8.629 -0.4782  0.3003  0.0727
  411MOL0     C55355  10.427   4.936   8.731 -0.3323 -0.3516 -0.0834
  411MOL0     C55356  10.480   4.921   8.868  0.2717  0.7724  0.0658
  411MOL0     C55357  10.562   4.816   8.889 -0.2427  1.1899  0.0630
  411MOL0     O55358  10.592   4.778   9.013 -0.2766 -0.4322 -0.0077
  411MOL0     C55359  10.484   4.724   9.087 -0.3594 -0.1117 -1.0429
  411MOL0     C55360  10.551   4.649   9.209  0.8697  0.6132 -0.2503
  411MOL0     C55361  10.671   4.558   9.183  0.3079  0.0669 -0.0820
  411MOL0     C55362  10.623   4.413   9.176  0.3737  0.1410 -0.1473
  411MOL0     C55363  10.732   4.305   9.178 -0.1425 -0.4234  0.1439
  411MOL0     C55364  10.664   4.166   9.214  0.1243 -0.0827 -0.5602
  411MOL0     C55365  10.592   4.086   9.102 -0.1332 -0.9925 -0.0804
  411MOL0     C55366  10.539   3.954   9.152 -1.2645 -0.3697  0.8837
  411MOL0     N55367  10.493   3.871   9.043 -0.0221 -0.7572 -0.0038
  411MOL0     C55368  10.368   3.885   8.986  0.3847 -0.7058  0.2939
  411MOL0     C55369  10.363   3.775   8.904  0.2435  0.0373 -0.4139
  411MOL0     C55370  10.244   3.742   8.820 -0.0836 -0.2363  0.3561
  411MOL0     C55371  10.279   3.772   8.674 -0.0291 -0.6354  0.8528
  411MOL0     C55372  10.186   3.729   8.580  1.5102 -0.5054  0.4979
  411MOL0     C55373  10.227   3.725   8.436  0.6292  0.6802 -0.2722
  411MOL0     O55374  10.302   3.844   8.404  0.4996 -0.6052  0.6094
  411MOL0     C55375  10.360   3.856   8.278 -0.0911  0.0475  0.1717
  411MOL0     C55376  10.393   3.991   8.236 -0.8950 -0.7337 -0.0555
  411MOL0     C55377  10.469   4.007   8.120 -0.4117  0.4404  0.0277
  411MOL0     C55378  10.509   4.147   8.090  0.6168  0.2922  0.2158
  411MOL0     C55379  10.492   3.901   8.032 -0.3018  0.6344 -0.1484
  411MOL0     C55380  10.549   3.920   7.896  0.3323 -0.6326  0.0418
  411MOL0     O55381  10.626   3.814   7.851  0.1050 -0.3029  0.5619
  411MOL0     C55382  10.684   3.818   7.737  0.4951 -1.3576  0.6122
  411MOL0     C55383  10.810   3.897   7.726  0.4504  0.0156 -0.6991
  411MOL0     C55384  10.881   3.909   7.601  0.1679  0.9436 -0.0493
  411MOL0     C55385  10.825   3.832   7.487 -0.8876  0.1739  0.0513
  411MOL0     O55386  10.894   3.830   7.360  0.1714 -0.5373 -0.9660
  411MOL0     C55387  11.023   3.902   7.346 -0.9886 -0.5479 -0.8377
  411MOL0     C55388  11.083   3.883   7.213  0.2220  0.0966  0.4897
  411MOL0     C55389  11.183   3.991   7.193 -0.2604 -0.6278  0.4136
  411MOL0     C55390  11.215   3.985   7.046  0.9183  0.3298  0.0591
  411MOL0     C55391  11.293   4.103   6.999 -0.4090  0.7648 -0.3214
  411MOL0     C55392  11.207   4.235   6.976  1.1819  0.0585  1.1758
  411MOL0     C55393  11.285   4.358   6.959 -0.0612 -1.5569 -0.2460
  411MOL0     C55394  11.337   4.373   6.817  0.0852  0.4037  0.4570
  411MOL0    Cl55395  11.387   4.543   6.791  0.0692 -0.1727 -0.2065
  411MOL0     C55396  10.709   3.755   7.503 -0.0483  0.4916 -0.1007
  411MOL0     C55397  10.644   3.746   7.624  0.5065 -0.1942 -0.5246
  411MOL0     O55398  10.507   4.019   7.830 -0.3416 -0.0558  0.9533
  411MOL0     C55399  10.449   3.770   8.065  0.1664  0.4515 -0.5588
  411MOL0     C55400  10.386   3.745   8.188  0.1459  0.8079  0.3384
  411MOL0     N55401  10.469   3.695   8.916  0.4073 -0.0067 -0.6284
  411MOL0     N55402  10.547   3.752   9.005 -0.1096 -0.3845 -0.0205
  411MOL0     C55403  10.602   4.734   8.786 -0.5229  0.8117  0.1515
  411MOL0     C55404  10.569   4.750   8.651 -0.9239  0.1835 -0.5402
  411MOL0     C55405  10.413   4.942   8.279  0.1993  0.1034  0.3075
  411MOL0     C55406  10.291   4.904   8.235 -0.0452 -0.2910 -0.0993
  411MOL0     C55407  10.270   4.892   8.094 -0.2906  0.0112 -0.1912
  411MOL0     C55408  10.382   4.915   8.009  0.8808  0.6759 -0.1493
  411MOL0     O55409  10.361   4.891   7.875 -0.0404  0.0095  0.6299
  411MOL0     C55410  10.464   4.923   7.778  0.4038  0.0721 -0.4181
  411MOL0     C55411  10.418   4.904   7.637 -0.0393 -0.2469  0.3959
  411MOL0     C55412  10.322   4.793   7.613  0.0828  0.6957 -0.0822
  411MOL0     C55413  10.310   4.762   7.460 -0.7898  0.9092 -0.4858
  411MOL0     C55414  10.223   4.855   7.395  0.0760 -0.5742 -1.0697
  411MOL0     C55415  10.153   4.941   7.345  0.4367 -0.3824 -0.0884
  411MOL0     C55416  10.508   4.958   8.057  0.1474 -0.1466  0.9652
  411MOL0     C55417  10.520   4.971   8.191  0.1153 -0.2291  0.5256
  411MOL0     H55418  10.359   5.020   8.712  0.2532 -0.1692 -1.5057
  411MOL0     H55419  10.454   4.987   8.949 -0.1478  0.8672 -0.1437
  411MOL0     H55420  10.411   4.799   9.120  1.7595  1.2886  0.8629
  411MOL0     H55421  10.425   4.649   9.033 -0.4824 -0.3097 -0.6388
  411MOL0     H55422  10.590   4.729   9.272  3.1684  0.2270 -1.0486
  411MOL0     H55423  10.468   4.606   9.265  1.3008  2.2184  1.7069
  411MOL0     H55424  10.730   4.587   9.096 -0.3165  1.7867  0.0285
  411MOL0     H55425  10.731   4.563   9.275  1.7869 -0.7003 -0.9696
  411MOL0     H55426  10.561   4.406   9.266  1.6871  1.8994  0.9647
  411MOL0     H55427  10.560   4.399   9.087  1.2274 -1.2087 -0.5599
  411MOL0     H55428  10.789   4.296   9.086 -0.1720 -2.3823  0.2795
  411MOL0     H55429  10.814   4.325   9.247  2.0754  1.0144 -2.7223
  411MOL0     H55430  10.749   4.100   9.235  1.8748  1.6799 -1.7009
  411MOL0     H55431  10.602   4.179   9.302 -0.1282  2.9663 -1.0649
  411MOL0     H55432  10.514   4.149   9.059 -1.2065 -1.6540  0.8432
  411MOL0     H55433  10.664   4.064   9.022  2.6708 -2.5680  2.6454
  411MOL0     H55434  10.460   3.977   9.224 -2.5997  0.2603 -0.7153
  411MOL0     H55435  10.618   3.910   9.213 -2.2809  0.7200  3.0967
  411MOL0     H55436  10.293   3.959   9.011  1.4408  0.6180 -0.3072
  411MOL0     H55437  10.199   3.643   8.832  2.5557 -1.6606 -0.8394
  411MOL0     H55438  10.172   3.820   8.849 -0.1923 -0.7449  1.5293
  411MOL0     H55439  10.372   3.727   8.638  1.2800  1.8599  0.8765
  411MOL0     H55440  10.296   3.880   8.669  0.3280 -0.6682  1.2807
  411MOL0     H55441  10.108   3.806   8.589  0.1985 -1.7324  0.0029
  411MOL0     H55442  10.138   3.636   8.610 -0.6496  0.1381 -0.7921
  411MOL0     H55443  10.139   3.727   8.371  0.2058  1.9338  0.3090
  411MOL0     H55444  10.279   3.631   8.416  0.9759  0.7975  0.0627
  411MOL0     H55445  10.371   4.076   8.299 -1.2309 -0.7355 -0.1714
  411MOL0     H55446  10.474   4.216   8.168  0.0737  1.6338 -1.1770
  411MOL0     H55447  10.618   4.163   8.088  0.9269 -1.6678  0.0120
  411MOL0     H55448  10.467   4.177   7.994  1.8862 -1.8653 -1.0957
  411MOL0     H55449  10.838   3.960   7.810 -0.7829 -2.6142  1.8675
  411MOL0     H55450  10.969   3.970   7.585  1.3600 -0.7205 -0.0803
  411MOL0     H55451  10.990   4.005   7.363  1.6476  0.3657 -0.8203
  411MOL0     H55452  11.092   3.873   7.425  0.7278  2.9530 -0.8583
  411MOL0     H55453  11.125   3.782   7.213 -0.0716 -0.1470 -3.0556
  411MOL0     H55454  11.000   3.886   7.141 -1.0112 -0.9800  1.7998
  411MOL0     H55455  11.276   3.969   7.246  0.7532  0.3553 -0.8574
  411MOL0     H55456  11.139   4.084   7.230 -1.6707 -1.8442  1.9089
  411MOL0     H55457  11.279   3.897   7.033  1.1401  0.0694  2.4538
  411MOL0     H55458  11.131   3.977   6.977  1.6941 -1.7645 -0.7056
  411MOL0     H55459  11.342   4.082   6.904 -4.1389 -1.8305 -1.8606
  411MOL0     H55460  11.374   4.116   7.072  0.8235 -0.2761 -1.4605
  411MOL0     H55461  11.137   4.225   6.892  2.0648  0.2783  0.3932
  411MOL0     H55462  11.137   4.240   7.060 -1.6956 -1.2257 -0.9209
  411MOL0     H55463  11.365   4.372   7.033  1.5362  0.4643 -2.2380
  411MOL0     H55464  11.223   4.447   6.975  1.1946 -1.2133  4.2114
  411MOL0     H55465  11.259   4.354   6.742 -0.4941 -1.2456  1.4371
  411MOL0     H55466  11.416   4.301   6.794 -1.6704 -1.2525 -0.7179
  411MOL0     H55467  10.671   3.698   7.419 -1.1653  2.3207 -0.8938
  411MOL0     H55468  10.551   3.691   7.632 -0.6396  1.6001 -0.9888
  411MOL0     H55469  10.459   3.684   8.000 -2.3150 -2.6661  2.8137
  411MOL0     H55470  10.344   3.648   8.213  0.6143  0.6543  0.5347
  411MOL0     H55471  10.668   4.650   8.799  1.6459  2.4345  0.1835
  411MOL0     H55472  10.605   4.690   8.568 -1.1252  0.0753 -0.5505
  411MOL0     H55473  10.220   4.867   8.309  0.1531  0.6236  0.5692
  411MOL0     H55474  10.180   4.842   8.058 -1.8229  1.0426  1.9866
  411MOL0     H55475  10.492   5.028   7.790  0.2533 -0.0888  1.5833
  411MOL0     H55476  10.551   4.861   7.800  3.1932  2.6405 -3.1643
  411MOL0     H55477  10.508   4.887   7.578 -0.6404 -0.8739 -0.3755
  411MOL0     H55478  10.374   5.000   7.612  1.2445 -0.2245 -2.0325
  411MOL0     H55479  10.226   4.816   7.660  0.8884 -0.1095  2.1228
  411MOL0     H55480  10.356   4.704   7.667 -3.1835 -1.1336 -0.8257
  411MOL0     H55481  10.263   4.664   7.452  1.8706 -0.6107  1.1097
  411MOL0     H55482  10.405   4.772   7.407 -1.3425 -1.0820 -1.9604
  411MOL0     H55483  10.101   5.010   7.281  0.4958 -2.9375 -3.1509
  411MOL0     H55484  10.594   4.986   7.997 -0.6696  1.4427  0.4746
  411MOL0     H55485  10.607   5.029   8.219 -0.6622  1.5441 -0.5754
  412MOL0     O55486  10.791   9.836   7.012  0.1899 -0.0291 -0.1079
  412MOL0     C55487  10.872   9.790   7.091 -0.5552 -0.2231  0.0341
  412MOL0     O55488  10.843   9.750   7.217 -0.7198 -0.0736 -0.4139
  412MOL0     C55489  10.720   9.766   7.260 -0.2422 -0.3374 -0.5972
  412MOL0     C55490  10.696   9.838   7.376  0.8999 -0.4186  0.6136
  412MOL0     C55491  10.568   9.836   7.430 -0.1690 -0.0040  0.4381
  412MOL0     C55492  10.472   9.749   7.391  0.2342  0.5543 -0.0927
  412MOL0     O55493  10.366   9.744   7.475 -0.4292 -0.2822  0.2497
  412MOL0     C55494  10.265   9.639   7.466  0.0332 -0.1470 -0.0453
  412MOL0     C55495  10.143   9.718   7.509 -0.5657  0.2226  0.5737
  412MOL0     C55496  10.015   9.632   7.462 -0.1507  0.2409 -0.6307
  412MOL0     C55497   9.880   9.703   7.486  0.4548 -0.3170 -0.8451
  412MOL0     C55498   9.771   9.603   7.492 -0.3389 -0.0225  0.2482
  412MOL0     C55499   9.641   9.659   7.430 -1.3558  0.9193 -0.4581
  412MOL0     C55500   9.596   9.792   7.492 -0.2743 -0.2259 -0.1437
  412MOL0     C55501   9.484   9.846   7.401  0.3703  0.2075 -0.2457
  412MOL0     N55502   9.416   9.970   7.444  0.1584 -0.7822 -0.1067
  412MOL0     C55503   9.490  10.088   7.470 -0.2119 -0.3138  0.4076
  412MOL0     C55504   9.397  10.161   7.539 -0.2950  0.1309  0.7226
  412MOL0     C55505   9.431  10.297   7.603  0.7647  0.6914  0.2833
  412MOL0     C55506   9.408  10.295   7.757  0.3528 -0.1330  0.9073
  412MOL0     C55507   9.270  10.281   7.815  0.3354 -1.2595 -0.2731
  412MOL0     C55508   9.264  10.335   7.964  0.2953  0.0642 -0.3021
  412MOL0     O55509   9.263  10.482   7.975  0.1515 -0.0080 -0.4940
  412MOL0     C55510   9.145  10.547   7.986  0.1515  0.1545 -0.1095
  412MOL0     C55511   9.169  10.671   8.026  0.0656 -0.8079  0.4236
  412MOL0     C55512   9.063  10.771   8.034  0.4367  0.4560 -0.7484
  412MOL0     C55513   9.082  10.902   8.093 -0.0128 -0.3415  0.5766
  412MOL0     C55514   8.926  10.722   8.016  0.5821 -0.2457 -0.3377
  412MOL0     C55515   8.808  10.800   8.028  0.4904 -0.3119  0.0814
  412MOL0     O55516   8.688  10.751   7.979 -0.4285 -0.0348  0.0331
  412MOL0     C55517   8.592  10.842   7.953 -0.0194  0.3721 -0.5158
  412MOL0     C55518   8.611  10.961   7.892  0.2891 -0.0242 -0.4832
  412MOL0     C55519   8.499  11.040   7.854 -0.2783 -0.1623  0.1058
  412MOL0     C55520   8.365  10.997   7.874  0.6331 -0.3342  0.1926
  412MOL0     O55521   8.262  11.080   7.822 -0.3003 -0.3535  0.5685
  412MOL0     C55522   8.138  11.068   7.883 -0.5074  0.0067 -0.6346
  412MOL0     C55523   8.042  11.184   7.860  0.7646 -0.7305 -0.9212
  412MOL0     C55524   8.097  11.319   7.909  0.0759  0.3201  0.7564
  412MOL0     C55525   8.045  11.346   8.058 -0.7342 -0.1935  0.3272
  412MOL0     C55526   8.095  11.481   8.109  0.4328  0.6958  0.7707
  412MOL0     C55527   8.035  11.590   8.026 -0.5815  0.3024 -0.4640
  412MOL0     C55528   8.056  11.730   8.087  0.9353 -0.0657 -0.0943
  412MOL0     C55529   7.974  11.762   8.218  0.3270 -0.3706 -0.5990
  412MOL0    Cl55530   8.008  11.910   8.287  0.1219  0.2152 -0.0484
  412MOL0     C55531   8.348  10.876   7.936 -0.2226  0.2338 -0.8168
  412MOL0     C55532   8.455  10.799   7.970  0.6993 -1.1756 -0.4062
  412MOL0     O55533   8.819  10.905   8.095  0.1081  0.3254 -0.0682
  412MOL0     C55534   8.906  10.588   7.981  1.1072 -0.2476  0.3916
  412MOL0     C55535   9.018  10.505   7.970  0.3409 -0.3885 -0.2645
  412MOL0     N55536   9.268  10.092   7.541  0.3771 -0.1002 -0.7893
  412MOL0     N55537   9.285   9.975   7.491  0.0843 -0.1864  0.5522
  412MOL0     C55538  10.490   9.682   7.272 -0.1623  0.1060 -0.4374
  412MOL0     C55539  10.615   9.681   7.206 -0.0347 -0.0957 -0.3681
  412MOL0     C55540  11.004   9.766   7.040  0.1172  0.0921  0.5060
  412MOL0     C55541  11.085   9.671   7.096 -1.0706  0.7622  0.3519
  412MOL0     C55542  11.213   9.645   7.043 -0.4746  0.0551  0.7552
  412MOL0     C55543  11.261   9.707   6.923  0.1443 -0.4471  0.1588
  412MOL0     O55544  11.382   9.687   6.856  0.2842  0.4181 -0.4956
  412MOL0     C55545  11.489   9.628   6.938  0.1015 -0.5595  0.7456
  412MOL0     C55546  11.629   9.639   6.872 -0.4753 -0.3037  0.7004
  412MOL0     C55547  11.644   9.547   6.745  0.7497  0.0440  0.1623
  412MOL0     C55548  11.758   9.582   6.647 -0.3045 -0.1162  1.3562
  412MOL0     C55549  11.813   9.461   6.585  0.1898  0.2659 -0.2786
  412MOL0     C55550  11.854   9.358   6.540 -0.0853  0.0044 -0.3766
  412MOL0     C55551  11.183   9.804   6.870  0.0814 -0.3116  0.0856
  412MOL0     C55552  11.056   9.843   6.929 -0.0058  0.0110 -0.3581
  412MOL0     H55553  10.770   9.894   7.431 -0.8109  0.3787  2.2079
  412MOL0     H55554  10.559   9.898   7.518 -1.1804  0.2449  0.1619
  412MOL0     H55555  10.242   9.612   7.363 -0.4461 -1.7020  0.4429
  412MOL0     H55556  10.283   9.552   7.529 -2.1808  1.2788  2.7989
  412MOL0     H55557  10.147   9.736   7.616  0.0390 -1.8471  0.9524
  412MOL0     H55558  10.149   9.818   7.465 -2.0784  1.0383  2.1057
  412MOL0     H55559  10.017   9.606   7.355 -1.1135  1.7851 -1.0549
  412MOL0     H55560  10.008   9.538   7.517  0.7761 -0.9163 -2.3722
  412MOL0     H55561   9.888   9.747   7.586  0.5135 -3.4292  0.6595
  412MOL0     H55562   9.852   9.787   7.422 -2.5220  0.5282  1.3426
  412MOL0     H55563   9.798   9.515   7.434  2.2621  0.5471  0.4883
  412MOL0     H55564   9.763   9.573   7.597 -0.3632  0.6302  0.4422
  412MOL0     H55565   9.663   9.672   7.324  1.1796  1.8242  0.0963
  412MOL0     H55566   9.570   9.575   7.434  0.0087 -0.2522 -0.1196
  412MOL0     H55567   9.561   9.790   7.596 -0.7430  2.3848 -0.1977
  412MOL0     H55568   9.676   9.866   7.497  0.5928 -1.0927 -0.7728
  412MOL0     H55569   9.409   9.773   7.369 -0.5831  0.7968  0.5737
  412MOL0     H55570   9.548   9.876   7.318  0.2076  0.8196 -0.1518
  412MOL0     H55571   9.592  10.115   7.448  0.3294 -0.9258  1.9950
  412MOL0     H55572   9.532  10.320   7.570  1.4583 -1.5181  0.6705
  412MOL0     H55573   9.363  10.370   7.558  0.4100  0.6604  0.7723
  412MOL0     H55574   9.437  10.397   7.786  0.5752  0.8149 -2.2329
  412MOL0     H55575   9.466  10.220   7.810  0.4067 -0.6086  0.1830
  412MOL0     H55576   9.235  10.177   7.813 -0.0975 -1.1367 -2.8543
  412MOL0     H55577   9.190  10.331   7.759 -0.8606 -0.4518  2.0472
  412MOL0     H55578   9.341  10.294   8.029  0.9014 -0.7794 -1.5140
  412MOL0     H55579   9.167  10.302   8.003  0.5516  2.2188  2.4878
  412MOL0     H55580   9.268  10.715   8.036 -0.4756  1.2560 -2.1705
  412MOL0     H55581   9.057  10.989   8.032 -2.8699  0.8701  3.1956
  412MOL0     H55582   9.031  10.918   8.189 -1.2894  3.1921 -0.5631
  412MOL0     H55583   9.187  10.923   8.117 -0.1750  1.4356 -0.1837
  412MOL0     H55584   8.708  11.002   7.865  1.9206 -2.3841  1.3996
  412MOL0     H55585   8.520  11.141   7.822  1.9614 -0.0637  1.7294
  412MOL0     H55586   8.085  10.975   7.863  2.1801 -1.4074 -1.6964
  412MOL0     H55587   8.160  11.062   7.990  1.9868 -1.3984 -1.1536
  412MOL0     H55588   8.031  11.196   7.752  0.6779  2.0413 -0.6766
  412MOL0     H55589   7.941  11.161   7.896  0.6016 -1.6413 -1.8962
  412MOL0     H55590   8.064  11.396   7.839  0.8377  0.0287  0.0597
  412MOL0     H55591   8.207  11.319   7.905  0.1876 -1.8894  2.0940
  412MOL0     H55592   7.936  11.343   8.063 -0.7906  0.8602 -0.0014
  412MOL0     H55593   8.092  11.276   8.128 -1.6283  0.5602  1.7285
  412MOL0     H55594   8.202  11.499   8.103  0.6364 -0.9043 -2.6018
  412MOL0     H55595   8.060  11.482   8.213  1.1306  0.7576  1.0075
  412MOL0     H55596   8.094  11.582   7.934  1.7765 -2.6172  1.0878
  412MOL0     H55597   7.929  11.576   8.001 -0.5638 -1.0260  0.1082
  412MOL0     H55598   8.019  11.809   8.021  0.8486 -1.3167 -1.6019
  412MOL0     H55599   8.163  11.739   8.107  0.4180  0.5905  2.7559
  412MOL0     H55600   7.992  11.683   8.291  3.2033  0.7501  0.0427
  412MOL0     H55601   7.866  11.762   8.201 -0.4674  1.1011  3.4668
  412MOL0     H55602   8.250  10.838   7.962  0.2496 -2.0669 -2.1170
  412MOL0     H55603   8.421  10.714   8.030 -2.0316 -0.8056 -1.2680
  412MOL0     H55604   8.811  10.548   7.950  0.5111  0.8017  0.8190
  412MOL0     H55605   9.002  10.403   7.936  0.3030 -0.8654  1.1076
  412MOL0     H55606  10.409   9.615   7.244 -0.1595 -0.0177 -0.1486
  412MOL0     H55607  10.632   9.629   7.112 -0.3857 -0.5341 -0.1959
  412MOL0     H55608  11.049   9.620   7.186 -0.1149  2.3226  1.6812
  412MOL0     H55609  11.273   9.568   7.091 -0.6416 -0.7764 -0.3267
  412MOL0     H55610  11.492   9.680   7.034 -0.3934  0.5423  0.1825
  412MOL0     H55611  11.463   9.523   6.954 -4.5558 -0.4100 -3.2472
  412MOL0     H55612  11.709   9.612   6.942 -0.2885 -2.3746 -0.2219
  412MOL0     H55613  11.645   9.740   6.832  1.3733 -0.8081  0.0285
  412MOL0     H55614  11.549   9.551   6.691  0.8406 -0.2230 -0.0165
  412MOL0     H55615  11.643   9.442   6.776 -2.4462 -0.8567 -2.4372
  412MOL0     H55616  11.839   9.631   6.703  1.9814 -4.0182  1.8649
  412MOL0     H55617  11.714   9.655   6.578  0.7534  0.7962  1.6022
  412MOL0     H55618  11.874   9.253   6.531 -0.1030 -0.5523  4.0048
  412MOL0     H55619  11.232   9.852   6.787  0.7228 -1.7342 -0.3844
  412MOL0     H55620  10.995   9.922   6.885  0.8941  1.5685  1.0501
  413MOL0     O55621   0.033  10.411   2.064 -0.7301  0.1856 -0.0260
  413MOL0     C55622  -0.021  10.341   1.978  0.4328 -0.3895 -0.1003
  413MOL0     O55623   0.043  10.244   1.894 -0.5055  0.1086 -0.5194
  413MOL0     C55624   0.180  10.227   1.905 -0.2020 -0.5057  0.1843
  413MOL0     C55625   0.227  10.090   1.894 -0.3679 -0.3685  0.2722
  413MOL0     C55626   0.367  10.060   1.912  0.1074  0.8919 -0.6525
  413MOL0     C55627   0.461  10.160   1.925 -0.2197 -0.2172 -0.3959
  413MOL0     O55628   0.588  10.114   1.932 -1.2391  0.4292 -0.1333
  413MOL0     C55629   0.673  10.190   2.019 -0.4252  0.5637 -0.0652
  413MOL0     C55630   0.804  10.104   2.038  0.1370 -0.2305  0.1985
  413MOL0     C55631   0.905  10.179   2.125 -1.0353  0.1159  0.1741
  413MOL0     C55632   1.040  10.103   2.110  0.9965  0.3342 -0.7693
  413MOL0     C55633   1.142  10.150   2.216  0.5325 -0.8007 -0.1498
  413MOL0     C55634   1.293  10.112   2.197  0.5444 -0.3626 -0.7629
  413MOL0     C55635   1.373  10.142   2.318 -0.9391 -0.4071  0.8265
  413MOL0     C55636   1.477  10.253   2.289  0.2652 -0.3126 -0.9389
  413MOL0     N55637   1.578  10.210   2.194 -0.1937 -0.3803 -0.2481
  413MOL0     C55638   1.609  10.078   2.151  0.2389 -0.0669 -0.1128
  413MOL0     C55639   1.714  10.094   2.064 -0.1263  0.4995  0.4694
  413MOL0     C55640   1.771   9.991   1.984  0.1229  0.8693  0.2256
  413MOL0     C55641   1.703   9.970   1.848 -0.5624 -1.3103  0.2241
  413MOL0     C55642   1.730  10.099   1.759 -0.2539 -0.3130 -0.0407
  413MOL0     C55643   1.696  10.101   1.611 -1.0208 -0.7309 -0.6046
  413MOL0     O55644   1.585  10.014   1.574 -0.3799  0.2193 -0.1916
  413MOL0     C55645   1.525  10.040   1.452  0.3859  0.2385  0.5807
  413MOL0     C55646   1.417   9.961   1.409 -0.4261 -0.2091 -0.2003
  413MOL0     C55647   1.370   9.959   1.276 -0.4118  0.3306 -0.2613
  413MOL0     C55648   1.267   9.851   1.246 -0.2295 -0.0234  0.5331
  413MOL0     C55649   1.420  10.053   1.184  0.0597  0.7936  0.3343
  413MOL0     C55650   1.381  10.057   1.039  0.0392  0.1216 -0.1505
  413MOL0     O55651   1.255  10.014   0.997 -0.1811  1.0185  0.3944
  413MOL0     C55652   1.221   9.993   0.866  0.7164 -0.2151  0.1903
  413MOL0     C55653   1.078   9.965   0.852 -0.2148 -0.2950 -0.2595
  413MOL0     C55654   1.022   9.929   0.729  0.3673  0.3706  0.7285
  413MOL0     C55655   1.102   9.933   0.608 -0.1888  0.2685 -0.6027
  413MOL0     O55656   1.050   9.905   0.480 -0.0391  0.3142 -0.3393
  413MOL0     C55657   0.919   9.946   0.455  0.4046 -0.1678 -0.2545
  413MOL0     C55658   0.905   9.927   0.305  0.8511  0.9053  0.2364
  413MOL0     C55659   0.769   9.969   0.267 -0.9193  0.1940  0.3232
  413MOL0     C55660   0.658   9.860   0.284 -0.8569 -0.7020 -0.4758
  413MOL0     C55661   0.531   9.900   0.213  0.9655  0.4354 -0.6375
  413MOL0     C55662   0.428   9.784   0.238  0.6181  0.3187 -0.2404
  413MOL0     C55663   0.290   9.808   0.166 -0.3655  1.4347 -0.5400
  413MOL0     C55664   0.196   9.695   0.191  0.6509 -1.0942 -0.7128
  413MOL0    Cl55665   0.032   9.711   0.108  0.3489 -0.0765 -0.8531
  413MOL0     C55666   1.238   9.978   0.621  0.0680  0.2514 -0.2563
  413MOL0     C55667   1.301   9.990   0.753 -0.1941 -0.0469  0.7376
  413MOL0     O55668   1.467  10.111   0.967  0.0585  0.0374 -0.2165
  413MOL0     C55669   1.521  10.140   1.225  0.8254 -0.3106 -0.1420
  413MOL0     C55670   1.570  10.132   1.360 -0.7297 -0.1815  0.7972
  413MOL0     N55671   1.752  10.224   2.056 -0.5517  0.3966  0.3058
  413MOL0     N55672   1.675  10.288   2.138  0.4931 -0.7143  0.0930
  413MOL0     C55673   0.412  10.293   1.933  1.3108  0.5714  0.0396
  413MOL0     C55674   0.274  10.330   1.923 -0.2882 -0.0590 -0.2819
  413MOL0     C55675  -0.172  10.346   1.974  0.4661  0.4437 -0.0341
  413MOL0     C55676  -0.243  10.245   1.898  0.0208  1.1000 -1.2469
  413MOL0     C55677  -0.378  10.261   1.866  0.4538 -0.6586  0.5229
  413MOL0     C55678  -0.445  10.372   1.911  0.4193 -0.3902  0.1492
  413MOL0     O55679  -0.578  10.389   1.871  0.1717 -0.5132 -0.9380
  413MOL0     C55680  -0.648  10.500   1.932 -0.1722  0.4113  0.7457
  413MOL0     C55681  -0.792  10.499   1.872 -0.3547 -0.3989  0.8787
  413MOL0     C55682  -0.881  10.614   1.905 -0.4499 -0.4788  0.2605
  413MOL0     C55683  -1.027  10.607   1.858  0.1048 -1.1553 -0.4659
  413MOL0     C55684  -1.096  10.735   1.858 -0.3324 -0.5627 -1.3111
  413MOL0     C55685  -1.157  10.844   1.867 -0.7696  0.3103 -0.3048
  413MOL0     C55686  -0.375  10.467   1.982 -0.2646 -0.9201 -0.5079
  413MOL0     C55687  -0.240  10.457   2.024 -0.0432  0.2998  0.0232
  413MOL0     H55688   0.145  10.022   1.870 -0.8038  0.7676 -1.6792
  413MOL0     H55689   0.392   9.956   1.893 -0.1407  0.6915  0.1019
  413MOL0     H55690   0.704  10.280   1.965  3.3807 -1.3675 -1.4946
  413MOL0     H55691   0.632  10.211   2.118  5.0826  3.4404  2.0761
  413MOL0     H55692   0.783  10.005   2.079  0.3963 -0.5497 -0.4329
  413MOL0     H55693   0.839  10.089   1.936 -1.3220 -0.0607 -0.3555
  413MOL0     H55694   0.923  10.285   2.105  1.6511  0.2253  2.3912
  413MOL0     H55695   0.871  10.173   2.229  0.0456  0.8460  0.5944
  413MOL0     H55696   1.027   9.995   2.123 -0.0472  0.6966  1.7438
  413MOL0     H55697   1.082  10.117   2.010  0.6001 -1.1253 -1.1604
  413MOL0     H55698   1.131  10.259   2.219 -2.1754 -1.0240  1.9292
  413MOL0     H55699   1.109  10.107   2.311 -0.9454 -1.2591 -0.8435
  413MOL0     H55700   1.298  10.005   2.175  2.0178 -1.0436  2.3171
  413MOL0     H55701   1.334  10.173   2.116  0.0125 -0.7370 -1.3213
  413MOL0     H55702   1.311  10.147   2.408  1.1261 -2.3465  2.4723
  413MOL0     H55703   1.439  10.061   2.352  0.5070  1.2016  2.0528
  413MOL0     H55704   1.522  10.295   2.379 -2.4791 -2.8126  1.8418
  413MOL0     H55705   1.426  10.338   2.243 -1.3487 -0.1934  0.9560
  413MOL0     H55706   1.563   9.983   2.177 -1.3467  0.5950 -0.4345
  413MOL0     H55707   1.878  10.014   1.987  0.2797  0.1193  1.0014
  413MOL0     H55708   1.755   9.900   2.043  0.9962  2.4949  3.2353
  413MOL0     H55709   1.595   9.955   1.859 -0.8050 -0.7012 -1.0901
  413MOL0     H55710   1.750   9.884   1.800  2.0862  0.7574 -1.1445
  413MOL0     H55711   1.832  10.138   1.765 -0.9293  1.6941 -0.8252
  413MOL0     H55712   1.669  10.178   1.804 -2.9263 -0.9454 -2.2363
  413MOL0     H55713   1.783  10.054   1.564 -1.3214 -0.4398 -1.4860
  413MOL0     H55714   1.692  10.205   1.577 -1.0715 -0.1988  0.9563
  413MOL0     H55715   1.374   9.896   1.485 -0.6146  0.1552  0.0123
  413MOL0     H55716   1.183   9.892   1.188  1.1234 -0.2620 -1.7293
  413MOL0     H55717   1.310   9.760   1.204  1.3847  0.1088  1.7923
  413MOL0     H55718   1.216   9.822   1.338  0.1765 -1.9652  0.1695
  413MOL0     H55719   1.013   9.978   0.938  2.3490 -2.9375  2.2695
  413MOL0     H55720   0.916   9.918   0.709  0.3010  1.6268  0.2955
  413MOL0     H55721   0.844   9.884   0.506 -0.9706 -0.5287 -2.5436
  413MOL0     H55722   0.908  10.048   0.491  0.0115 -0.6651  1.0823
  413MOL0     H55723   0.977   9.996   0.260 -0.6420  1.8154 -0.8291
  413MOL0     H55724   0.924   9.821   0.287 -2.1614 -0.4338  3.6447
  413MOL0     H55725   0.773  10.000   0.162  0.3930 -0.9141  0.0138
  413MOL0     H55726   0.724  10.057   0.315 -3.3261 -0.2256 -1.0108
  413MOL0     H55727   0.697   9.767   0.240  1.3548 -0.1410  0.1513
  413MOL0     H55728   0.646   9.830   0.389  1.0762 -1.9701 -0.5493
  413MOL0     H55729   0.539   9.901   0.104  1.1017  0.3145 -0.6286
  413MOL0     H55730   0.484   9.993   0.246 -0.4516 -0.4815  0.0510
  413MOL0     H55731   0.470   9.686   0.210 -0.9001 -0.5350  0.3512
  413MOL0     H55732   0.395   9.778   0.342 -1.1035 -2.9093 -0.8194
  413MOL0     H55733   0.321   9.802   0.061 -3.3681 -0.4684 -1.4192
  413MOL0     H55734   0.254   9.910   0.182 -0.8477  1.2029 -0.1482
  413MOL0     H55735   0.174   9.681   0.297 -1.8955  0.5130 -0.9547
  413MOL0     H55736   0.247   9.604   0.160  0.7145 -0.4424 -2.6599
  413MOL0     H55737   1.300  10.003   0.536  3.6209  0.4611  2.1871
  413MOL0     H55738   1.409  10.005   0.753 -0.2288  0.2561  1.6418
  413MOL0     H55739   1.563  10.208   1.151  0.9826 -0.8595 -0.5574
  413MOL0     H55740   1.646  10.205   1.387 -0.4965 -0.5108  1.0414
  413MOL0     H55741   0.484  10.374   1.930  2.5736 -0.5605 -1.6214
  413MOL0     H55742   0.244  10.435   1.921 -0.4354 -0.0755  0.7366
  413MOL0     H55743  -0.191  10.156   1.865  2.9926  1.7972  1.1332
  413MOL0     H55744  -0.429  10.195   1.797  1.7533 -0.6011 -0.5325
  413MOL0     H55745  -0.637  10.489   2.040 -0.5954 -3.4664  0.5081
  413MOL0     H55746  -0.609  10.597   1.898  1.5793 -0.8283 -0.9839
  413MOL0     H55747  -0.828  10.401   1.905 -0.7959 -0.3315  0.6041
  413MOL0     H55748  -0.778  10.508   1.764 -1.1006 -0.9302  0.7305
  413MOL0     H55749  -0.846  10.695   1.840 -3.2534  1.3540  0.8450
  413MOL0     H55750  -0.876  10.628   2.014  0.3859 -2.5182  0.5324
  413MOL0     H55751  -1.092  10.539   1.913 -1.3194  2.1045  2.2203
  413MOL0     H55752  -1.029  10.572   1.754 -1.9909 -2.0440 -0.1771
  413MOL0     H55753  -1.227  10.924   1.864 -1.7530 -0.5757 -2.0193
  413MOL0     H55754  -0.407  10.565   2.016 -1.6565 -1.5631  0.0981
  413MOL0     H55755  -0.181  10.540   2.060  2.1960  0.5407 -3.7269
  414MOL0     O55756   7.698  10.320   5.913  0.0126  0.0659  0.3182
  414MOL0     C55757   7.751  10.277   5.818 -0.0876 -0.3670 -0.3176
  414MOL0     O55758   7.703  10.269   5.686  0.1533  0.4288 -0.1269
  414MOL0     C55759   7.576  10.308   5.666  0.4709 -0.0927 -1.4810
  414MOL0     C55760   7.534  10.445   5.656 -1.0578 -0.5453  1.1358
  414MOL0     C55761   7.402  10.490   5.645  0.1197  0.2385 -0.4825
  414MOL0     C55762   7.304  10.391   5.627  1.1624  0.4376  0.8999
  414MOL0     O55763   7.163  10.428   5.613  0.2610 -0.1876 -0.6116
  414MOL0     C55764   7.122  10.502   5.496  0.0081 -0.4964 -0.1584
  414MOL0     C55765   6.970  10.541   5.504  0.3923  0.5012 -0.4803
  414MOL0     C55766   6.940  10.634   5.621  0.0630 -0.4442 -0.6921
  414MOL0     C55767   6.792  10.668   5.628  0.1866 -0.4206  0.5665
  414MOL0     C55768   6.758  10.744   5.754  0.2540  1.0385 -0.7481
  414MOL0     C55769   6.611  10.793   5.767 -0.4451  0.1369 -0.1738
  414MOL0     C55770   6.528  10.724   5.876 -0.3695 -0.1582 -0.3921
  414MOL0     C55771   6.384  10.775   5.883 -0.2911 -0.0012 -0.0431
  414MOL0     N55772   6.369  10.917   5.890 -0.1108 -0.0085  0.4006
  414MOL0     C55773   6.358  11.008   5.789  0.5316  0.0775 -0.3180
  414MOL0     C55774   6.333  11.127   5.838 -0.0962 -0.4562  0.1989
  414MOL0     C55775   6.302  11.254   5.764 -0.2959  0.7203  0.6098
  414MOL0     C55776   6.183  11.247   5.657  0.3412 -0.0201 -0.7736
  414MOL0     C55777   6.056  11.166   5.707  0.1776 -0.1552  0.6518
  414MOL0     C55778   5.987  11.236   5.821 -0.0877 -0.0055 -0.1391
  414MOL0     O55779   5.868  11.162   5.857  0.1558 -0.4034  0.0761
  414MOL0     C55780   5.759  11.172   5.777  0.4861 -0.2112 -0.2111
  414MOL0     C55781   5.669  11.071   5.790 -0.0024 -0.0216  0.4901
  414MOL0     C55782   5.550  11.062   5.719  0.0882  0.4404 -0.1639
  414MOL0     C55783   5.471  10.939   5.761 -0.3195  0.6720  0.1865
  414MOL0     C55784   5.507  11.169   5.642  0.5268  0.1642  0.4109
  414MOL0     C55785   5.364  11.191   5.591 -0.2372 -0.6790 -0.0373
  414MOL0     O55786   5.258  11.148   5.667 -0.1035  0.2448 -0.0796
  414MOL0     C55787   5.124  11.182   5.628 -0.1211 -0.5780 -0.1741
  414MOL0     C55788   5.016  11.095   5.649  0.3870  0.0803  1.1930
  414MOL0     C55789   4.889  11.125   5.610  1.0704  0.0662 -0.4979
  414MOL0     C55790   4.847  11.257   5.582  0.3093 -0.8036 -0.3492
  414MOL0     O55791   4.713  11.283   5.564 -0.0617 -0.1198 -0.1502
  414MOL0     C55792   4.669  11.396   5.487 -0.4787  0.4138  0.1378
  414MOL0     C55793   4.512  11.399   5.489 -0.3623 -0.9460  0.3929
  414MOL0     C55794   4.446  11.523   5.405 -0.1776  0.0637  0.2421
  414MOL0     C55795   4.291  11.510   5.403 -0.5302  0.2243  0.2129
  414MOL0     C55796   4.233  11.535   5.545 -0.6728  0.1391  1.1307
  414MOL0     C55797   4.085  11.564   5.535 -0.3183 -1.1525 -0.4796
  414MOL0     C55798   4.018  11.614   5.671 -0.1201  0.3894  0.7007
  414MOL0     C55799   3.867  11.624   5.634  1.3947 -0.2383  0.4156
  414MOL0    Cl55800   3.784  11.464   5.642  0.0746 -0.1580 -0.1883
  414MOL0     C55801   4.956  11.344   5.577  0.3087 -0.1572 -0.0894
  414MOL0     C55802   5.088  11.311   5.594 -0.0008  0.1620 -0.1038
  414MOL0     O55803   5.354  11.250   5.481  0.2064  0.1326 -0.0090
  414MOL0     C55804   5.604  11.267   5.614  0.3285 -0.1828  0.2635
  414MOL0     C55805   5.728  11.267   5.678  0.4290 -0.6585 -0.2742
  414MOL0     N55806   6.341  11.105   5.973  0.6136  0.2088 -0.1361
  414MOL0     N55807   6.365  10.984   6.007 -0.2800  0.0297  0.0440
  414MOL0     C55808   7.336  10.256   5.632 -0.0874  0.0101 -0.6533
  414MOL0     C55809   7.470  10.216   5.647 -0.5910  0.2720  0.0819
  414MOL0     C55810   7.888  10.224   5.849  0.1675  0.2185 -0.4518
  414MOL0     C55811   7.958  10.270   5.964  0.2365  0.4457 -0.2895
  414MOL0     C55812   8.086  10.220   5.992 -0.3792  1.0200 -0.6945
  414MOL0     C55813   8.153  10.133   5.903 -0.0418 -0.0622 -0.1476
  414MOL0     O55814   8.291  10.114   5.919 -0.1710  0.5436 -1.5329
  414MOL0     C55815   8.349  10.009   5.850 -0.9262 -0.0814  0.3027
  414MOL0     C55816   8.468   9.962   5.928  0.2223 -0.2235  0.6952
  414MOL0     C55817   8.592  10.041   5.877 -0.5791  0.8502 -0.7781
  414MOL0     C55818   8.726  10.003   5.934 -0.1912 -0.2214  0.0122
  414MOL0     C55819   8.837  10.045   5.850 -0.2601 -0.0291  0.5304
  414MOL0     C55820   8.925  10.085   5.773  0.7859  0.4178 -0.2034
  414MOL0     C55821   8.082  10.093   5.785  0.8912  0.0482  0.3863
  414MOL0     C55822   7.956  10.144   5.758  0.4750  0.5952 -0.6047
  414MOL0     H55823   7.620  10.510   5.672  2.1931 -4.2531  0.1829
  414MOL0     H55824   7.383  10.596   5.657  2.7229  0.7726 -0.5242
  414MOL0     H55825   7.179  10.596   5.502  1.4206 -1.0475 -3.1636
  414MOL0     H55826   7.145  10.457   5.399  2.2807 -0.8116  0.4670
  414MOL0     H55827   6.950  10.597   5.413 -0.8453  1.1086  0.1425
  414MOL0     H55828   6.916  10.447   5.518  1.0301 -0.5788 -4.2697
  414MOL0     H55829   6.958  10.585   5.717  2.1847 -0.2339 -0.9247
  414MOL0     H55830   7.000  10.726   5.619 -0.9907  0.2768 -0.0430
  414MOL0     H55831   6.770  10.741   5.549  1.4990  0.1001  0.6642
  414MOL0     H55832   6.720  10.586   5.622 -1.8280  0.9838  3.3701
  414MOL0     H55833   6.784  10.672   5.831 -0.3297 -0.0895 -1.5722
  414MOL0     H55834   6.823  10.832   5.760 -0.4784  1.5022  1.1117
  414MOL0     H55835   6.618  10.902   5.774  3.1691  0.1140 -1.6610
  414MOL0     H55836   6.568  10.768   5.670  0.9666  0.4775 -0.8990
  414MOL0     H55837   6.528  10.616   5.863 -3.2819 -0.2093 -0.6310
  414MOL0     H55838   6.571  10.752   5.973  2.2066 -2.5898 -0.7176
  414MOL0     H55839   6.332  10.735   5.970  2.3006 -1.6694  0.8633
  414MOL0     H55840   6.322  10.736   5.801 -0.5112 -0.1479  0.1892
  414MOL0     H55841   6.366  10.971   5.687  2.5003 -2.1098  0.5195
  414MOL0     H55842   6.276  11.334   5.835  1.4062  0.1603  1.9311
  414MOL0     H55843   6.392  11.298   5.721 -0.1671 -0.1281 -0.0038
  414MOL0     H55844   6.225  11.194   5.572  2.1956  0.0935  0.0207
  414MOL0     H55845   6.152  11.348   5.630  0.6911  0.1087 -0.6942
  414MOL0     H55846   6.083  11.063   5.732  1.6627 -0.6996 -2.6626
  414MOL0     H55847   5.982  11.160   5.627  0.8874 -1.9686  0.0823
  414MOL0     H55848   5.967  11.342   5.801 -1.4886  0.1007  1.5578
  414MOL0     H55849   6.057  11.229   5.905  1.2751  0.3764 -1.2145
  414MOL0     H55850   5.698  10.985   5.849  0.1375 -1.9649 -2.2340
  414MOL0     H55851   5.389  10.979   5.821  0.6876  2.6507  0.3048
  414MOL0     H55852   5.420  10.886   5.680  2.2306  1.1031 -1.8483
  414MOL0     H55853   5.534  10.870   5.819  1.7059  1.5640 -0.8417
  414MOL0     H55854   5.030  10.989   5.670  1.9599  0.2603  1.1367
  414MOL0     H55855   4.820  11.041   5.611  3.5684 -2.1423  0.4670
  414MOL0     H55856   4.713  11.491   5.519 -1.1687  1.3301 -1.4925
  414MOL0     H55857   4.706  11.390   5.384  3.0090 -0.0026  1.2638
  414MOL0     H55858   4.475  11.304   5.448  2.2904 -1.8732 -0.0512
  414MOL0     H55859   4.473  11.405   5.591  2.1988 -0.2138  1.3865
  414MOL0     H55860   4.488  11.512   5.305 -0.0406 -1.8392  0.4677
  414MOL0     H55861   4.489  11.613   5.450 -0.5249 -1.5635  4.3091
  414MOL0     H55862   4.252  11.571   5.322  0.3533 -0.5778 -0.8467
  414MOL0     H55863   4.263  11.409   5.371  2.5652 -1.6297  2.7566
  414MOL0     H55864   4.292  11.611   5.597  1.5753 -0.5302 -0.3370
  414MOL0     H55865   4.246  11.443   5.603 -1.2220  0.0538  1.1291
  414MOL0     H55866   4.074  11.634   5.451 -1.4313 -0.6897  0.0240
  414MOL0     H55867   4.042  11.469   5.503 -0.0658 -1.0925 -1.0238
  414MOL0     H55868   4.062  11.714   5.678  0.6370  0.1994 -0.9192
  414MOL0     H55869   4.041  11.555   5.760 -0.4974 -1.9336 -0.6717
  414MOL0     H55870   3.857  11.666   5.534  1.1069 -2.1043 -0.3824
  414MOL0     H55871   3.803  11.682   5.701  2.4617 -2.6872  3.8496
  414MOL0     H55872   4.955  11.449   5.553 -0.2340 -0.0062  0.5658
  414MOL0     H55873   5.164  11.387   5.582  3.0021 -2.3730  1.5086
  414MOL0     H55874   5.586  11.351   5.547 -2.3508 -1.0624 -0.2340
  414MOL0     H55875   5.800  11.342   5.647 -0.6946  0.7173  0.3425
  414MOL0     H55876   7.261  10.178   5.625  1.5966 -1.6237 -1.3552
  414MOL0     H55877   7.500  10.114   5.671 -2.6937  0.0974  2.3318
  414MOL0     H55878   7.911  10.347   6.025  0.4221 -0.5164  1.1050
  414MOL0     H55879   8.138  10.254   6.081 -1.5169 -0.6397  0.6819
  414MOL0     H55880   8.288   9.922   5.824 -1.2175  0.6192 -1.5023
  414MOL0     H55881   8.382  10.046   5.753  0.4385  1.1528  1.1971
  414MOL0     H55882   8.481   9.854   5.916 -2.9877 -0.7893  1.4707
  414MOL0     H55883   8.453   9.977   6.035  0.1542 -1.0087  0.7989
  414MOL0     H55884   8.584  10.149   5.892  2.0124  1.0680 -0.5132
  414MOL0     H55885   8.589  10.024   5.768 -2.8443 -1.2241 -0.4932
  414MOL0     H55886   8.726   9.896   5.954 -1.5309  0.0159  1.5472
  414MOL0     H55887   8.732  10.056   6.030 -2.0681  0.2710 -0.1010
  414MOL0     H55888   9.004  10.107   5.704  1.1455  1.2367  0.4586
  414MOL0     H55889   8.133  10.040   5.706 -2.2414  0.4880 -2.1220
  414MOL0     H55890   7.913  10.109   5.664 -1.1631  1.8227 -0.3657
  415MOL0     O55891   0.050   6.765   8.000  0.3875 -0.3014 -0.5854
  415MOL0     C55892   0.029   6.866   8.068  0.1451  0.2216  0.6831
  415MOL0     O55893  -0.074   6.955   8.063 -0.1352  0.2865 -0.0218
  415MOL0     C55894  -0.188   6.923   7.997 -1.1294  0.1432 -0.0987
  415MOL0     C55895  -0.270   7.031   7.972  0.6478 -1.2895  1.1864
  415MOL0     C55896  -0.398   7.010   7.916  1.5067 -0.3979  0.1620
  415MOL0     C55897  -0.436   6.892   7.858 -1.1448  0.3560  0.9556
  415MOL0     O55898  -0.552   6.889   7.782  0.3336  0.1059 -0.1089
  415MOL0     C55899  -0.569   6.776   7.694 -0.9159 -0.0895  0.0312
  415MOL0     C55900  -0.680   6.789   7.583 -0.5408  0.8901 -0.5825
  415MOL0     C55901  -0.819   6.761   7.634  0.2431 -0.9586 -0.5256
  415MOL0     C55902  -0.939   6.806   7.543 -0.2559 -0.9834  0.3671
  415MOL0     C55903  -1.086   6.801   7.615 -0.5153  0.8027 -0.2125
  415MOL0     C55904  -1.104   6.699   7.724  0.3004 -0.4245  0.2200
  415MOL0     C55905  -1.249   6.659   7.748 -0.7771  0.5558 -0.6109
  415MOL0     C55906  -1.346   6.777   7.770  0.5110 -1.5141  0.3527
  415MOL0     N55907  -1.469   6.737   7.829  0.6093 -0.8706 -0.5706
  415MOL0     C55908  -1.473   6.722   7.964  0.4653 -0.2775  0.6962
  415MOL0     C55909  -1.592   6.681   7.989  0.4076 -0.1836  0.4907
  415MOL0     C55910  -1.648   6.640   8.122  0.8171  0.3469 -0.6050
  415MOL0     C55911  -1.735   6.750   8.184  0.0542 -0.1050 -0.9990
  415MOL0     C55912  -1.666   6.887   8.200 -0.2207  0.0781  0.5423
  415MOL0     C55913  -1.771   6.980   8.264  0.3056 -0.0307  1.1920
  415MOL0     O55914  -1.879   7.018   8.171 -0.0150  0.2102 -0.5861
  415MOL0     C55915  -2.004   7.001   8.218 -0.9628  0.3836 -0.3034
  415MOL0     C55916  -2.044   7.039   8.338 -0.1390  0.8196  0.8393
  415MOL0     C55917  -2.175   7.012   8.377 -0.3760 -0.6708 -0.0291
  415MOL0     C55918  -2.208   7.064   8.522 -0.8900  1.0680  0.3572
  415MOL0     C55919  -2.267   6.945   8.302  0.2815 -0.1457  0.2884
  415MOL0     C55920  -2.415   6.926   8.326  0.0641 -0.4224 -0.2333
  415MOL0     O55921  -2.489   6.867   8.218 -0.0407 -0.0204  0.1945
  415MOL0     C55922  -2.620   6.844   8.253  0.2085 -0.5796 -0.1503
  415MOL0     C55923  -2.637   6.719   8.318 -0.3737  0.3109  0.0364
  415MOL0     C55924  -2.764   6.687   8.363 -0.5875  0.2900  0.2667
  415MOL0     C55925  -2.880   6.760   8.339 -0.5543  0.0383  1.1364
  415MOL0     O55926  -3.012   6.735   8.367 -0.1606  0.0579  0.4570
  415MOL0     C55927  -3.040   6.605   8.433  0.2237 -0.1997  1.2832
  415MOL0     C55928  -3.182   6.553   8.396  1.0965 -0.0804  0.0566
  415MOL0     C55929  -3.278   6.669   8.414  0.3630  1.4757  0.4894
  415MOL0     C55930  -3.417   6.605   8.396  0.1547  0.0724 -0.1427
  415MOL0     C55931  -3.540   6.697   8.427 -0.4972  0.1584  0.3117
  415MOL0     C55932  -3.663   6.669   8.338  0.4373  1.3267 -0.2726
  415MOL0     C55933  -3.789   6.749   8.387  0.1832 -0.0641  0.7453
  415MOL0     C55934  -3.778   6.899   8.397  1.0741 -0.2055 -0.2140
  415MOL0    Cl55935  -3.703   6.966   8.548  0.5497 -0.3096 -0.2083
  415MOL0     C55936  -2.859   6.882   8.270  0.3094  0.5180  0.7631
  415MOL0     C55937  -2.729   6.916   8.222  0.0887 -0.8374 -0.1156
  415MOL0     O55938  -2.461   6.959   8.437  0.6677 -0.0856  0.3565
  415MOL0     C55939  -2.217   6.901   8.173 -0.3683 -0.5118 -0.1534
  415MOL0     C55940  -2.084   6.932   8.132  0.2849  0.0304  0.1431
  415MOL0     N55941  -1.671   6.685   7.874  0.0035  0.8242 -0.7516
  415MOL0     N55942  -1.590   6.720   7.777  0.2939 -0.0326 -0.6402
  415MOL0     C55943  -0.358   6.784   7.895 -0.0429  0.0989  0.4636
  415MOL0     C55944  -0.229   6.799   7.954  0.3408  0.2696 -0.3518
  415MOL0     C55945   0.140   6.885   8.167 -0.5636  0.0654  0.2461
  415MOL0     C55946   0.146   7.006   8.237 -0.2408  0.6326 -0.2554
  415MOL0     C55947   0.257   7.042   8.304  0.5726 -0.0181  0.1494
  415MOL0     C55948   0.366   6.960   8.309  0.0905 -0.2619 -0.5264
  415MOL0     O55949   0.488   7.011   8.348 -0.3679  0.2946  0.3804
  415MOL0     C55950   0.507   7.066   8.480  0.7594 -0.0515  1.1672
  415MOL0     C55951   0.452   6.967   8.584 -0.5051 -0.3549  0.0447
  415MOL0     C55952   0.507   7.002   8.721 -0.1864  0.2179  0.1877
  415MOL0     C55953   0.454   7.132   8.773  0.5757  0.8499  1.0440
  415MOL0     C55954   0.514   7.161   8.901 -0.4057  0.2633  0.2084
  415MOL0     C55955   0.558   7.217   8.998  0.3462  0.2483  0.0883
  415MOL0     C55956   0.361   6.832   8.251  0.5453 -0.5749  0.3078
  415MOL0     C55957   0.244   6.791   8.183 -0.4622 -0.3159 -0.3256
  415MOL0     H55958  -0.260   7.135   8.001 -2.5600 -0.1304 -1.2857
  415MOL0     H55959  -0.456   7.099   7.895  2.2177 -0.0466 -0.3781
  415MOL0     H55960  -0.474   6.751   7.648 -1.4618 -2.4920  0.0513
  415MOL0     H55961  -0.592   6.690   7.758 -0.9649  0.1740  0.3664
  415MOL0     H55962  -0.681   6.893   7.548  1.2239  0.9293 -0.6120
  415MOL0     H55963  -0.655   6.718   7.505 -0.1727  0.2985  0.0628
  415MOL0     H55964  -0.826   6.652   7.635 -0.2670 -1.0075 -2.7256
  415MOL0     H55965  -0.823   6.802   7.735 -2.5408  1.4654 -1.4902
  415MOL0     H55966  -0.908   6.906   7.512  3.4025 -1.0400  3.1283
  415MOL0     H55967  -0.951   6.748   7.452 -0.8739 -0.8262  0.3408
  415MOL0     H55968  -1.125   6.901   7.637 -0.9550  1.0912 -2.1426
  415MOL0     H55969  -1.147   6.761   7.533 -0.0342 -0.5920  0.0740
  415MOL0     H55970  -1.046   6.609   7.700  2.0432  0.6977  0.0741
  415MOL0     H55971  -1.059   6.736   7.817  0.8688  0.6602 -0.4740
  415MOL0     H55972  -1.284   6.589   7.672 -0.4100 -0.6070  0.2686
  415MOL0     H55973  -1.249   6.602   7.841  2.7872 -0.3951 -1.0781
  415MOL0     H55974  -1.348   6.835   7.677  1.0670 -1.2661  0.4942
  415MOL0     H55975  -1.305   6.855   7.834 -0.4248  0.1337 -0.9645
  415MOL0     H55976  -1.391   6.732   8.034  0.7884  1.1061  0.1664
  415MOL0     H55977  -1.709   6.550   8.110  1.2860 -0.5069  2.6945
  415MOL0     H55978  -1.568   6.614   8.191  2.0075  2.9062 -0.8956
  415MOL0     H55979  -1.756   6.713   8.285 -2.2002  0.5558 -1.1732
  415MOL0     H55980  -1.833   6.746   8.136 -2.1594 -1.0711  3.1132
  415MOL0     H55981  -1.647   6.935   8.104  2.3388  0.0214  0.9377
  415MOL0     H55982  -1.576   6.879   8.263 -0.7878  1.4957  1.5839
  415MOL0     H55983  -1.715   7.067   8.299  0.5848 -0.9153  3.0967
  415MOL0     H55984  -1.818   6.929   8.349 -1.5637  1.8312  1.3631
  415MOL0     H55985  -1.978   7.089   8.409 -0.1787  0.7281  0.9404
  415MOL0     H55986  -2.300   7.122   8.539 -1.9435 -0.4165 -0.0389
  415MOL0     H55987  -2.210   6.969   8.576  3.6917 -0.6495 -1.9764
  415MOL0     H55988  -2.124   7.121   8.562  1.8330 -1.7233 -0.9883
  415MOL0     H55989  -2.550   6.661   8.345 -1.5607 -1.6455 -0.2047
  415MOL0     H55990  -2.768   6.583   8.397 -3.9929  0.1569 -0.1723
  415MOL0     H55991  -2.963   6.533   8.405  0.5286 -0.2500  2.1952
  415MOL0     H55992  -3.030   6.631   8.539  0.7715  1.6175  0.8072
  415MOL0     H55993  -3.194   6.535   8.289 -1.8184 -2.4345  0.6453
  415MOL0     H55994  -3.205   6.458   8.446  0.8634  0.5812  1.2505
  415MOL0     H55995  -3.279   6.747   8.338 -0.2098  0.6191 -0.4125
  415MOL0     H55996  -3.275   6.715   8.513 -1.8514  0.6458  1.0077
  415MOL0     H55997  -3.423   6.567   8.294 -1.5514 -0.3561  0.0985
  415MOL0     H55998  -3.421   6.513   8.456  3.7182 -1.1895 -1.5343
  415MOL0     H55999  -3.510   6.800   8.408 -0.7350  1.0627  4.1640
  415MOL0     H56000  -3.561   6.708   8.534 -1.1197  2.7122 -0.0179
  415MOL0     H56001  -3.648   6.692   8.232  0.5914  0.0371 -0.5404
  415MOL0     H56002  -3.688   6.563   8.340  0.9401  1.2174  1.5661
  415MOL0     H56003  -3.818   6.700   8.481  1.1082  0.8719  1.5401
  415MOL0     H56004  -3.860   6.731   8.306  3.2823  0.2435 -2.2822
  415MOL0     H56005  -3.878   6.943   8.392  2.2032  2.5870  0.0027
  415MOL0     H56006  -3.734   6.940   8.306  0.7093 -2.8372 -1.6496
  415MOL0     H56007  -2.946   6.945   8.259 -0.2813 -0.2474  0.9457
  415MOL0     H56008  -2.706   7.009   8.170  4.4168 -0.2866  2.3151
  415MOL0     H56009  -2.287   6.851   8.107  0.7559 -0.2596 -1.5925
  415MOL0     H56010  -2.055   6.907   8.031  1.1088  1.8119 -0.0965
  415MOL0     H56011  -0.379   6.682   7.868  0.7716  0.1684 -0.4987
  415MOL0     H56012  -0.187   6.708   7.997 -3.8344 -1.9369 -0.4347
  415MOL0     H56013   0.065   7.078   8.236 -0.0683  0.9798  2.4568
  415MOL0     H56014   0.260   7.140   8.351 -0.4430  1.5561 -2.7354
  415MOL0     H56015   0.614   7.086   8.497  0.3624  1.6595  1.8660
  415MOL0     H56016   0.455   7.161   8.492  2.5024  1.1780 -0.4733
  415MOL0     H56017   0.483   6.868   8.547  0.8964  1.1819 -3.2864
  415MOL0     H56018   0.343   6.978   8.580 -0.7819 -2.1722  1.2930
  415MOL0     H56019   0.616   7.006   8.711 -0.1848 -0.0018  0.0998
  415MOL0     H56020   0.473   6.921   8.787 -0.1023 -0.3301 -0.4313
  415MOL0     H56021   0.344   7.135   8.772  0.5851  3.2571  0.7248
  415MOL0     H56022   0.478   7.207   8.696  3.2154 -2.4856 -1.7362
  415MOL0     H56023   0.599   7.284   9.070 -0.1933  1.6442 -0.8713
  415MOL0     H56024   0.446   6.767   8.269 -1.9150 -3.3481  2.9788
  415MOL0     H56025   0.228   6.691   8.145 -1.3980 -0.3369  0.0819
  416MOL0     O56026   6.530  10.359   7.160  0.9030 -0.0016  0.2768
  416MOL0     C56027   6.519  10.250   7.218 -0.1240 -0.8599 -0.6015
  416MOL0     O56028   6.405  10.183   7.251 -0.1428  0.1859 -0.3572
  416MOL0     C56029   6.280  10.241   7.251  0.2074 -0.7416 -0.0793
  416MOL0     C56030   6.261  10.380   7.254 -0.7529 -0.2020  0.7851
  416MOL0     C56031   6.128  10.425   7.248  0.4916 -0.1980 -0.1156
  416MOL0     C56032   6.016  10.347   7.229  0.4067  1.5590  0.1096
  416MOL0     O56033   5.907  10.417   7.221  0.7052  0.0494 -0.4427
  416MOL0     C56034   5.783  10.337   7.216  0.1159 -1.0916 -0.0705
  416MOL0     C56035   5.666  10.436   7.240 -0.8983 -0.2736  0.2443
  416MOL0     C56036   5.528  10.367   7.200  1.3063 -0.2397  0.2831
  416MOL0     C56037   5.513  10.324   7.051 -0.6181  0.2484 -0.5959
  416MOL0     C56038   5.371  10.281   7.012 -0.0066 -0.8354 -0.5689
  416MOL0     C56039   5.350  10.278   6.862  1.1465  0.3171  0.1244
  416MOL0     C56040   5.221  10.186   6.836  0.0464  0.2111  0.1554
  416MOL0     C56041   5.094  10.230   6.919  0.3495  0.2166  0.1051
  416MOL0     N56042   4.979  10.164   6.855  0.3938 -0.0848  0.0147
  416MOL0     C56043   4.949  10.023   6.847 -0.1725 -0.7973  0.3053
  416MOL0     C56044   4.835  10.018   6.774  0.1792 -0.6432 -0.5438
  416MOL0     C56045   4.763   9.887   6.741 -0.5182 -0.7974 -0.3044
  416MOL0     C56046   4.667   9.839   6.853  0.8205  0.3612 -1.2903
  416MOL0     C56047   4.721   9.761   6.960  0.0613  0.8778  0.1941
  416MOL0     C56048   4.611   9.716   7.064  0.3413 -0.2359 -0.8269
  416MOL0     O56049   4.491   9.657   7.025  0.9500 -0.4044 -0.0398
  416MOL0     C56050   4.361   9.693   7.052 -0.1867  0.4711  0.0124
  416MOL0     C56051   4.324   9.806   7.118  1.2539 -0.2728 -0.7013
  416MOL0     C56052   4.195   9.825   7.164 -0.0254  0.1844 -0.6380
  416MOL0     C56053   4.165   9.950   7.243 -0.2498  0.1431 -1.5428
  416MOL0     C56054   4.096   9.727   7.137 -0.4993  1.1677 -0.3629
  416MOL0     C56055   3.953   9.731   7.174  0.0062 -0.2929 -0.3262
  416MOL0     O56056   3.879   9.617   7.129  1.2937 -0.2907 -0.0905
  416MOL0     C56057   3.741   9.615   7.152  0.3330 -0.5053 -0.1383
  416MOL0     C56058   3.654   9.725   7.145  0.8014 -1.1314  0.5515
  416MOL0     C56059   3.519   9.719   7.185  1.0449  0.3337  0.5966
  416MOL0     C56060   3.452   9.599   7.200 -0.5866 -0.4721 -1.0231
  416MOL0     O56061   3.311   9.606   7.229 -0.5684 -0.6224  1.0184
  416MOL0     C56062   3.244   9.526   7.130  0.2740  0.3457  0.5392
  416MOL0     C56063   3.090   9.507   7.149  0.5874  0.3643 -0.3988
  416MOL0     C56064   3.054   9.401   7.248 -0.0075 -0.2845  0.0905
  416MOL0     C56065   2.903   9.395   7.289  0.4008  0.3428 -0.3989
  416MOL0     C56066   2.836   9.529   7.330  0.0900 -0.3565  0.2789
  416MOL0     C56067   2.701   9.510   7.422 -0.6375  0.6170 -0.8984
  416MOL0     C56068   2.613   9.639   7.433 -0.4468 -0.3723 -0.6617
  416MOL0     C56069   2.581   9.710   7.299  0.2981  0.2625  0.0050
  416MOL0    Cl56070   2.545   9.588   7.169  0.1172  0.0975  0.0339
  416MOL0     C56071   3.535   9.490   7.192  0.3601 -0.5393 -0.0111
  416MOL0     C56072   3.676   9.494   7.170 -0.5555 -0.2649 -0.3427
  416MOL0     O56073   3.909   9.825   7.245  0.0047  0.3537 -0.4138
  416MOL0     C56074   4.135   9.616   7.062  0.2392  1.4508 -0.6266
  416MOL0     C56075   4.272   9.595   7.023 -0.5805 -0.0251  0.8482
  416MOL0     N56076   4.788  10.146   6.775  0.9073 -0.0632 -0.2570
  416MOL0     N56077   4.869  10.231   6.822 -0.3787 -0.3653 -0.4104
  416MOL0     C56078   6.032  10.212   7.256  0.3612 -1.2985  0.3862
  416MOL0     C56079   6.162  10.164   7.252  0.9079  0.3965 -0.6597
  416MOL0     C56080   6.636  10.179   7.266 -0.6203 -0.3583 -0.4240
  416MOL0     C56081   6.638  10.042   7.292 -0.1963 -0.1162 -0.6402
  416MOL0     C56082   6.756   9.977   7.339 -0.5592 -0.1780 -1.0962
  416MOL0     C56083   6.877  10.047   7.348 -0.3209 -0.3070  0.2806
  416MOL0     O56084   6.991   9.982   7.386 -0.1151 -0.1439 -0.0853
  416MOL0     C56085   7.040   9.853   7.340 -1.1685  0.2042  0.2589
  416MOL0     C56086   7.074   9.862   7.193  0.8715  0.1529  0.1204
  416MOL0     C56087   7.164   9.976   7.151  0.2813 -0.3865 -0.5629
  416MOL0     C56088   7.183   9.995   7.003 -0.2937 -0.2124 -0.5209
  416MOL0     C56089   7.308   9.945   6.968  0.4350 -0.1867  1.1117
  416MOL0     C56090   7.405   9.887   6.925  0.1079 -1.1026  0.2179
  416MOL0     C56091   6.872  10.182   7.335 -0.1892 -0.1276  0.8487
  416MOL0     C56092   6.757  10.251   7.286 -0.2514 -0.5258  0.0035
  416MOL0     H56093   6.344  10.448   7.267 -0.4899  0.1487 -2.0140
  416MOL0     H56094   6.103  10.531   7.258 -0.6150 -0.3709 -0.8927
  416MOL0     H56095   5.781  10.278   7.124  0.7422  0.3038 -1.0029
  416MOL0     H56096   5.782  10.273   7.305  2.0830  0.8597  1.4891
  416MOL0     H56097   5.662  10.472   7.343 -3.2318 -2.4711  1.0393
  416MOL0     H56098   5.682  10.511   7.162 -1.4357 -0.3487  0.0564
  416MOL0     H56099   5.508  10.271   7.249 -3.0965 -2.7207 -5.1906
  416MOL0     H56100   5.441  10.426   7.229  1.9207 -0.3749  2.5890
  416MOL0     H56101   5.557  10.409   6.998  1.1329 -0.8671 -1.0244
  416MOL0     H56102   5.582  10.240   7.037 -1.0570 -0.5088  1.4009
  416MOL0     H56103   5.354  10.185   7.063 -1.5918  0.0899  0.7160
  416MOL0     H56104   5.298  10.346   7.061  1.4573  0.2630  0.2489
  416MOL0     H56105   5.343  10.381   6.825 -1.9324  0.0544 -0.3140
  416MOL0     H56106   5.432  10.237   6.803 -0.6753  3.3449 -5.1949
  416MOL0     H56107   5.189  10.193   6.732 -0.9460  1.3088  0.5263
  416MOL0     H56108   5.241  10.084   6.870 -2.0926 -0.5104 -0.5809
  416MOL0     H56109   5.085  10.339   6.908  0.6188  0.3724  1.3017
  416MOL0     H56110   5.094  10.202   7.024 -2.7559 -3.3139 -0.6167
  416MOL0     H56111   5.007   9.939   6.883  1.1493 -0.7011 -1.4862
  416MOL0     H56112   4.704   9.914   6.653 -1.1402  3.5713  1.1825
  416MOL0     H56113   4.844   9.821   6.709 -0.2825 -0.1062 -1.1854
  416MOL0     H56114   4.584   9.785   6.805 -0.2456  0.9429 -0.1548
  416MOL0     H56115   4.622   9.932   6.888 -1.2472 -1.2641  0.6354
  416MOL0     H56116   4.794   9.827   7.010 -0.1743  0.8647  0.5572
  416MOL0     H56117   4.775   9.677   6.916  0.8423  0.7725  1.3084
  416MOL0     H56118   4.587   9.812   7.111  1.5327 -0.3849  0.1567
  416MOL0     H56119   4.666   9.660   7.141  1.6276 -1.4429 -2.5403
  416MOL0     H56120   4.390   9.889   7.143  2.5191 -1.1001 -1.1764
  416MOL0     H56121   4.067   9.991   7.215  0.4271  3.4748  0.3584
  416MOL0     H56122   4.151   9.927   7.349 -1.6663  2.0492 -1.2668
  416MOL0     H56123   4.238  10.032   7.237  0.4978 -0.4086 -0.4293
  416MOL0     H56124   3.698   9.820   7.116 -3.8194  0.2728 -3.1846
  416MOL0     H56125   3.460   9.810   7.174 -1.1769 -1.3165 -2.5893
  416MOL0     H56126   3.250   9.577   7.033  0.6692 -0.9534 -0.1464
  416MOL0     H56127   3.291   9.429   7.115  0.5333  0.2449  1.8779
  416MOL0     H56128   3.048   9.603   7.183 -1.7203 -0.8162  0.2430
  416MOL0     H56129   3.034   9.490   7.057  0.7545  1.5732 -0.7535
  416MOL0     H56130   3.111   9.423   7.339  0.1091  0.6457 -0.1969
  416MOL0     H56131   3.088   9.304   7.212  1.7420  0.0194  0.7844
  416MOL0     H56132   2.840   9.357   7.208  2.1353 -1.1288 -1.1482
  416MOL0     H56133   2.897   9.325   7.373 -0.0187  1.2089  0.3072
  416MOL0     H56134   2.811   9.585   7.239  0.3661 -1.7912 -0.7227
  416MOL0     H56135   2.907   9.591   7.385  1.4176 -1.4351 -0.1594
  416MOL0     H56136   2.646   9.426   7.379  1.3812 -0.9569 -0.5496
  416MOL0     H56137   2.733   9.478   7.522  0.4870 -0.7568 -1.6527
  416MOL0     H56138   2.660   9.707   7.505 -1.5366  0.8005 -1.0363
  416MOL0     H56139   2.517   9.607   7.475 -0.0991 -0.7170 -0.1007
  416MOL0     H56140   2.669   9.768   7.267 -1.3730  1.3129 -3.0657
  416MOL0     H56141   2.492   9.771   7.317 -1.1420 -1.9395  0.6704
  416MOL0     H56142   3.497   9.393   7.223 -1.7322 -0.2170 -1.3757
  416MOL0     H56143   3.745   9.410   7.165 -2.0905 -1.5328 -1.5442
  416MOL0     H56144   4.065   9.534   7.052 -1.1976  2.7478 -1.9010
  416MOL0     H56145   4.301   9.515   6.956 -3.1074 -0.5613  0.2832
  416MOL0     H56146   5.949  10.143   7.246  0.0520 -0.9604  0.5600
  416MOL0     H56147   6.180  10.057   7.243  1.3433  0.2573  1.3984
  416MOL0     H56148   6.544   9.988   7.285 -1.5130  2.2551 -2.7392
  416MOL0     H56149   6.759   9.870   7.358  1.3455  0.4026  3.0486
  416MOL0     H56150   7.121   9.823   7.407 -0.7953  1.6968  0.5157
  416MOL0     H56151   6.959   9.780   7.347 -2.5618  1.8102  1.6705
  416MOL0     H56152   6.975   9.864   7.145  0.0144 -1.3837  1.7196
  416MOL0     H56153   7.102   9.767   7.147 -0.3970  0.3845 -1.2213
  416MOL0     H56154   7.261   9.975   7.203  0.6714  2.7092 -1.0171
  416MOL0     H56155   7.116  10.063   7.198  1.3400 -0.5874  0.9994
  416MOL0     H56156   7.209  10.099   6.981  0.0762 -0.7684 -3.0011
  416MOL0     H56157   7.101   9.966   6.936  0.3506 -1.8591 -0.6461
  416MOL0     H56158   7.491   9.829   6.898  1.7061  0.5444  1.5282
  416MOL0     H56159   6.971  10.226   7.344  0.2850 -0.8203 -0.6501
  416MOL0     H56160   6.751  10.359   7.278 -0.5468 -0.5653 -0.3420
  417MOL0     O56161  11.205   0.979   2.804 -0.2429  0.1170  0.2473
  417MOL0     C56162  11.236   0.907   2.713  0.0732 -0.6559  0.3214
  417MOL0     O56163  11.178   0.792   2.680 -0.0918  0.1356 -0.2952
  417MOL0     C56164  11.062   0.747   2.740  0.8787 -0.2040 -0.1481
  417MOL0     C56165  11.051   0.672   2.868 -0.2821 -1.2888  0.5894
  417MOL0     C56166  10.931   0.626   2.911  0.4639  0.1305  0.0241
  417MOL0     C56167  10.809   0.642   2.845 -0.1671  0.0792 -0.1882
  417MOL0     O56168  10.695   0.588   2.898 -0.3499 -0.5106  0.4845
  417MOL0     C56169  10.592   0.678   2.934  0.6208 -0.0852  0.1941
  417MOL0     C56170  10.450   0.626   2.895  0.2689  0.0071 -0.3731
  417MOL0     C56171  10.413   0.487   2.949 -0.0297  0.2349 -0.0334
  417MOL0     C56172  10.291   0.499   3.032  0.2130  0.7616 -0.0679
  417MOL0     C56173  10.245   0.365   3.077  0.8376  0.1611  0.0861
  417MOL0     C56174  10.120   0.373   3.156 -0.6846 -0.1913 -0.6323
  417MOL0     C56175  10.021   0.264   3.150 -0.3338 -0.1427  0.4697
  417MOL0     C56176   9.941   0.260   3.014 -0.4772  0.0342  0.1431
  417MOL0     N56177   9.819   0.174   3.036  0.1963 -0.6334 -0.2820
  417MOL0     C56178   9.799   0.047   2.992 -0.2212  0.3992 -0.5061
  417MOL0     C56179   9.674   0.013   3.017  0.1015  0.2959  1.3425
  417MOL0     C56180   9.609  -0.105   2.952  0.5713  0.2982 -0.4099
  417MOL0     C56181   9.457  -0.111   2.985  0.1176  0.2529  0.8555
  417MOL0     C56182   9.386  -0.238   2.921 -0.4887 -0.8180  0.1621
  417MOL0     C56183   9.239  -0.258   2.955  0.5416 -0.4184  0.5564
  417MOL0     O56184   9.168  -0.352   2.880  0.1128 -1.0209 -0.4665
  417MOL0     C56185   9.034  -0.351   2.875  0.7975  0.8757 -0.2317
  417MOL0     C56186   8.974  -0.417   2.771  0.5497  0.1964  0.4517
  417MOL0     C56187   8.834  -0.410   2.750 -0.5073  0.0634  0.2640
  417MOL0     C56188   8.786  -0.466   2.621 -0.2191 -0.6794 -0.3724
  417MOL0     C56189   8.750  -0.351   2.844  0.0717 -0.1848 -0.2076
  417MOL0     C56190   8.603  -0.357   2.845  0.5238  0.0019  0.9766
  417MOL0     O56191   8.534  -0.437   2.759  0.0861  0.1648 -0.1898
  417MOL0     C56192   8.413  -0.486   2.797 -0.2367  0.8246  0.1036
  417MOL0     C56193   8.390  -0.603   2.868  0.4737  0.2252  0.0690
  417MOL0     C56194   8.267  -0.654   2.889 -0.1503  0.8924  1.3293
  417MOL0     C56195   8.157  -0.585   2.838  0.0613 -0.3115 -0.1233
  417MOL0     O56196   8.025  -0.632   2.839  0.4162  0.0089  0.8279
  417MOL0     C56197   7.997  -0.762   2.901 -0.8059 -0.4095  0.7399
  417MOL0     C56198   7.852  -0.750   2.941 -0.1899 -0.2707 -0.6534
  417MOL0     C56199   7.739  -0.753   2.827 -0.9515 -0.2050  0.5270
  417MOL0     C56200   7.598  -0.764   2.893  0.8834  0.6424  0.3465
  417MOL0     C56201   7.509  -0.810   2.781  1.0472  0.1689 -0.3925
  417MOL0     C56202   7.366  -0.835   2.819  0.2564  0.2934 -0.4852
  417MOL0     C56203   7.354  -0.929   2.940 -0.0636 -0.1621 -0.9424
  417MOL0     C56204   7.213  -0.966   2.968  0.7108  0.7634  0.4082
  417MOL0    Cl56205   7.122  -0.814   3.016  0.3225 -0.0882 -0.3082
  417MOL0     C56206   8.173  -0.461   2.771 -0.1044  0.5494 -0.7532
  417MOL0     C56207   8.303  -0.408   2.757  0.1867 -0.9233 -0.4188
  417MOL0     O56208   8.543  -0.290   2.928 -1.0471  0.2594 -0.5285
  417MOL0     C56209   8.816  -0.294   2.958 -0.0972  0.4166 -0.0965
  417MOL0     C56210   8.955  -0.289   2.968 -0.4635 -0.5331 -0.8022
  417MOL0     N56211   9.618   0.115   3.088  0.6764 -0.2738 -0.1436
  417MOL0     N56212   9.699   0.217   3.099  0.0947  0.0930  1.0797
  417MOL0     C56213  10.812   0.709   2.715  0.4007 -0.3841  0.2538
  417MOL0     C56214  10.937   0.755   2.672  0.9539 -1.1380  0.0119
  417MOL0     C56215  11.358   0.959   2.640 -0.0888  0.1093 -1.2461
  417MOL0     C56216  11.390   0.891   2.527 -0.3897  0.3899  0.1740
  417MOL0     C56217  11.508   0.937   2.458  1.2230  0.7053  0.5574
  417MOL0     C56218  11.593   1.046   2.490 -0.8237 -1.2732 -0.5859
  417MOL0     O56219  11.700   1.079   2.410 -0.0458  0.2003 -0.3145
  417MOL0     C56220  11.780   1.194   2.446  0.3812  0.9157  0.5731
  417MOL0     C56221  11.902   1.218   2.342 -1.0037 -0.4219  0.8558
  417MOL0     C56222  11.941   1.368   2.334 -0.4144  0.7057  0.4175
  417MOL0     C56223  12.044   1.416   2.444  0.4230  0.2462  0.3649
  417MOL0     C56224  12.131   1.525   2.407  0.0853 -0.8489  0.0052
  417MOL0     C56225  12.214   1.617   2.383  0.6607 -0.2704 -0.3819
  417MOL0     C56226  11.559   1.104   2.610  0.0411  0.6658  0.9745
  417MOL0     C56227  11.448   1.055   2.687 -0.3102 -0.4282  0.6590
  417MOL0     H56228  11.142   0.655   2.923 -0.5922 -0.9982  1.1998
  417MOL0     H56229  10.925   0.558   2.995  1.7829 -1.2909 -0.9590
  417MOL0     H56230  10.594   0.700   3.042  0.5928  1.0353 -0.0269
  417MOL0     H56231  10.601   0.779   2.894  1.6211  0.0454  0.7019
  417MOL0     H56232  10.380   0.707   2.916  0.9081  0.8764 -1.4045
  417MOL0     H56233  10.446   0.614   2.786 -3.3998 -1.2840 -0.2169
  417MOL0     H56234  10.389   0.410   2.875 -0.3995 -0.9528  1.2873
  417MOL0     H56235  10.494   0.442   3.008  2.1714  2.1030 -1.4229
  417MOL0     H56236  10.318   0.562   3.117  0.1885  2.9539 -1.6133
  417MOL0     H56237  10.215   0.542   2.966 -1.6713 -2.0940  0.0607
  417MOL0     H56238  10.215   0.308   2.988 -1.4466 -0.2474  1.0469
  417MOL0     H56239  10.316   0.311   3.140 -1.3678 -2.2045  0.7368
  417MOL0     H56240  10.152   0.383   3.260  0.6679 -1.1144 -0.9389
  417MOL0     H56241  10.061   0.462   3.128 -3.5728 -1.8756 -0.3466
  417MOL0     H56242  10.061   0.164   3.168 -1.0993 -1.0881 -2.4867
  417MOL0     H56243   9.939   0.283   3.221 -0.5624 -0.8158  0.3987
  417MOL0     H56244  10.009   0.225   2.936  0.9573  0.6957  1.0623
  417MOL0     H56245   9.912   0.362   2.988  0.7603 -0.3495 -3.2855
  417MOL0     H56246   9.864  -0.010   2.926  0.2281  1.8189 -1.3395
  417MOL0     H56247   9.623  -0.104   2.843 -0.8838  0.9427 -0.6063
  417MOL0     H56248   9.653  -0.196   2.992  1.6117  0.8961 -0.1498
  417MOL0     H56249   9.416  -0.015   2.952 -0.5755  1.0253  3.6744
  417MOL0     H56250   9.432  -0.109   3.091 -1.2290  1.3507  0.5437
  417MOL0     H56251   9.442  -0.330   2.941 -0.9981 -1.0427  0.5591
  417MOL0     H56252   9.386  -0.217   2.813 -0.4353 -1.1060  0.1063
  417MOL0     H56253   9.195  -0.159   2.943  2.3599  0.4604  0.7875
  417MOL0     H56254   9.238  -0.283   3.061  3.6883  0.9147  0.9982
  417MOL0     H56255   9.031  -0.470   2.696  0.3737 -2.0981  1.8508
  417MOL0     H56256   8.707  -0.405   2.576  1.3623 -0.3879 -2.9834
  417MOL0     H56257   8.872  -0.460   2.553 -0.3161  1.6993 -0.3655
  417MOL0     H56258   8.762  -0.572   2.637  2.3878 -1.2524  0.1918
  417MOL0     H56259   8.475  -0.650   2.916 -0.3302 -1.1854  0.1793
  417MOL0     H56260   8.261  -0.744   2.948  0.0402  0.3453  0.5319
  417MOL0     H56261   8.017  -0.842   2.830 -0.1702 -0.2834  0.7734
  417MOL0     H56262   8.067  -0.780   2.982  1.3872 -2.9338 -1.5420
  417MOL0     H56263   7.833  -0.841   2.998 -1.3710 -0.5609 -1.4616
  417MOL0     H56264   7.855  -0.665   3.009  0.2167 -1.5087  0.9374
  417MOL0     H56265   7.769  -0.842   2.771  1.1163 -0.9673  2.6471
  417MOL0     H56266   7.740  -0.659   2.771  2.1802  0.8104  2.0288
  417MOL0     H56267   7.603  -0.836   2.975 -0.4131 -1.2335 -1.1140
  417MOL0     H56268   7.566  -0.663   2.918  1.1683  0.4555  1.4937
  417MOL0     H56269   7.544  -0.910   2.755  1.9755 -0.0331  1.4459
  417MOL0     H56270   7.511  -0.745   2.693 -0.5445 -0.1582 -0.6973
  417MOL0     H56271   7.325  -0.735   2.834  0.9214  0.5259 -0.2008
  417MOL0     H56272   7.317  -0.881   2.733 -1.6741 -0.2706  0.8256
  417MOL0     H56273   7.402  -0.888   3.030 -1.3143 -0.8408  0.0732
  417MOL0     H56274   7.394  -1.028   2.920  0.6119 -0.0032 -0.3925
  417MOL0     H56275   7.192  -1.042   3.043 -0.4500  1.8220  1.2040
  417MOL0     H56276   7.171  -1.008   2.876 -1.3667  0.9461  1.2136
  417MOL0     H56277   8.085  -0.406   2.740 -1.1477 -1.6702 -1.9518
  417MOL0     H56278   8.306  -0.312   2.705 -1.9801  0.2741  1.4547
  417MOL0     H56279   8.759  -0.239   3.032  0.7670 -0.8445  1.5595
  417MOL0     H56280   8.997  -0.228   3.047  2.2644 -4.6397  1.3119
  417MOL0     H56281  10.726   0.724   2.651  0.7608  2.3114  0.2866
  417MOL0     H56282  10.942   0.801   2.574  3.0754  0.9044  0.9826
  417MOL0     H56283  11.314   0.828   2.481 -1.3974  1.9286 -0.3659
  417MOL0     H56284  11.535   0.875   2.373  2.2123  1.1587  0.5170
  417MOL0     H56285  11.707   1.274   2.446  1.2501  1.7258  0.3371
  417MOL0     H56286  11.822   1.179   2.546 -1.4607  0.1572  1.2778
  417MOL0     H56287  11.878   1.181   2.242  0.0884 -0.1291  0.4684
  417MOL0     H56288  11.993   1.166   2.371 -0.1511 -0.0259 -0.9740
  417MOL0     H56289  11.850   1.429   2.331  0.0411  1.3674 -0.2951
  417MOL0     H56290  11.984   1.394   2.237 -0.5432  0.1300  0.2033
  417MOL0     H56291  12.108   1.332   2.472 -0.2031 -0.3862 -0.0414
  417MOL0     H56292  11.986   1.442   2.533 -2.8793 -1.6551 -1.0394
  417MOL0     H56293  12.290   1.687   2.357  0.6246 -0.1493 -0.1676
  417MOL0     H56294  11.627   1.174   2.656 -0.6100  2.1629 -0.2624
  417MOL0     H56295  11.428   1.094   2.787 -1.6134  0.2149  0.1735
  418MOL0     O56296   8.677   1.441   9.316 -0.2733  0.0096 -0.7699
  418MOL0     C56297   8.735   1.550   9.321  0.0707 -0.5595 -0.1319
  418MOL0     O56298   8.671   1.674   9.345 -0.0355  0.0976  0.2977
  418MOL0     C56299   8.535   1.661   9.352  0.4735  0.2360 -0.5014
  418MOL0     C56300   8.456   1.690   9.238  0.5672 -0.4851 -0.7042
  418MOL0     C56301   8.318   1.706   9.254 -0.9788  0.6594  0.1096
  418MOL0     C56302   8.265   1.697   9.382  0.9653 -0.9614  0.5819
  418MOL0     O56303   8.132   1.708   9.413 -0.7128  0.7203 -0.2555
  418MOL0     C56304   8.025   1.711   9.307  0.0750  0.3574  0.2171
  418MOL0     C56305   8.004   1.853   9.243 -0.1515  0.1322  0.0103
  418MOL0     C56306   7.978   1.964   9.333 -0.4576  0.0078  0.2049
  418MOL0     C56307   7.844   1.980   9.392 -0.8873 -0.1797  0.0779
  418MOL0     C56308   7.853   2.081   9.502  0.6158 -0.3504 -0.4395
  418MOL0     C56309   7.841   2.022   9.644 -0.8320  0.4395 -0.4546
  418MOL0     C56310   7.976   1.963   9.700  0.1042  0.3946  0.5195
  418MOL0     C56311   8.096   2.056   9.678 -0.9336  0.3775 -0.5312
  418MOL0     N56312   8.224   2.027   9.734  0.2329 -0.3232  0.6321
  418MOL0     C56313   8.322   2.134   9.747  0.2556  0.9946  0.6422
  418MOL0     C56314   8.433   2.065   9.780 -1.2147  0.8235 -0.9090
  418MOL0     C56315   8.566   2.120   9.829  0.2725 -0.0206 -0.2996
  418MOL0     C56316   8.674   2.094   9.729 -0.2689  0.0762  0.1172
  418MOL0     C56317   8.822   2.107   9.778  1.4354 -0.2395 -0.1415
  418MOL0     C56318   8.912   2.040   9.694 -0.1125 -0.0819  0.7750
  418MOL0     O56319   9.034   2.043   9.760  0.3478  0.3618 -0.8541
  418MOL0     C56320   9.157   2.020   9.699  0.7031 -0.1262 -0.5485
  418MOL0     C56321   9.272   2.037   9.775 -0.6371 -1.0281 -0.9303
  418MOL0     C56322   9.403   2.008   9.736 -0.3170  0.1915  0.2012
  418MOL0     C56323   9.502   2.002   9.842 -0.1315 -0.5127 -1.0660
  418MOL0     C56324   9.425   1.963   9.601  0.0456  0.1868  0.7768
  418MOL0     C56325   9.559   1.959   9.534  0.1324 -0.1214  0.2667
  418MOL0     O56326   9.557   1.925   9.404  0.7528  0.2548  0.2312
  418MOL0     C56327   9.665   1.936   9.323  0.0891 -0.4203 -0.0713
  418MOL0     C56328   9.798   1.906   9.362  0.1089  0.3658  0.2409
  418MOL0     C56329   9.901   1.900   9.269  0.8331 -0.1958  0.7983
  418MOL0     C56330   9.879   1.910   9.134 -0.3424 -0.6753 -0.2167
  418MOL0     O56331   9.993   1.897   9.061  0.5899  0.0549 -1.0166
  418MOL0     C56332   9.990   1.863   8.914 -1.0213  1.0453  0.4704
  418MOL0     C56333  10.128   1.875   8.839 -0.6554  0.6664 -0.6304
  418MOL0     C56334  10.238   1.797   8.915 -0.0468  0.4564  0.6040
  418MOL0     C56335  10.383   1.866   8.887 -0.5807  0.1011 -0.0609
  418MOL0     C56336  10.490   1.802   8.967 -0.1466 -0.2502 -1.2634
  418MOL0     C56337  10.624   1.874   8.955 -1.0895  0.5294  0.3862
  418MOL0     C56338  10.729   1.799   9.037 -1.0492 -0.3027 -0.2489
  418MOL0     C56339  10.691   1.791   9.181  0.4488  1.4594  0.2264
  418MOL0    Cl56340  10.833   1.746   9.294  0.0037 -0.1526  0.4593
  418MOL0     C56341   9.749   1.940   9.092 -0.1165  1.0430 -0.2338
  418MOL0     C56342   9.645   1.958   9.183  0.5170 -0.1264 -0.2742
  418MOL0     O56343   9.660   2.000   9.601  0.0929  0.8254 -0.1915
  418MOL0     C56344   9.312   1.966   9.518  0.0779 -0.7642 -0.6172
  418MOL0     C56345   9.178   1.981   9.564  0.4012  1.8810 -0.7090
  418MOL0     N56346   8.405   1.933   9.793 -0.2308 -0.6747 -0.5963
  418MOL0     N56347   8.274   1.909   9.769  0.4740 -0.7909  0.1373
  418MOL0     C56348   8.336   1.659   9.489 -0.2845 -0.8355 -0.0745
  418MOL0     C56349   8.480   1.646   9.476  0.5156 -0.0155 -0.6460
  418MOL0     C56350   8.873   1.552   9.284 -0.9279 -0.8306  0.5281
  418MOL0     C56351   8.953   1.670   9.294  1.1770 -0.8279  0.7787
  418MOL0     C56352   9.083   1.677   9.257 -1.0436 -1.1508 -0.4520
  418MOL0     C56353   9.151   1.576   9.191 -0.2830 -0.1293 -0.6295
  418MOL0     O56354   9.290   1.569   9.148 -0.3174  0.7189  0.2459
  418MOL0     C56355   9.376   1.678   9.172  0.1292  0.4810 -0.4146
  418MOL0     C56356   9.511   1.612   9.168  0.1949 -0.4847  0.1741
  418MOL0     C56357   9.545   1.595   9.023 -0.6703 -0.0701 -0.2121
  418MOL0     C56358   9.693   1.550   9.011 -0.3752  0.2794 -0.3539
  418MOL0     C56359   9.750   1.531   8.876 -0.1930  0.7280  0.7338
  418MOL0     C56360   9.792   1.511   8.763  0.0661  0.0093  0.0964
  418MOL0     C56361   9.078   1.458   9.176  0.8649  0.1313 -0.1613
  418MOL0     C56362   8.943   1.446   9.219  0.7654  0.1084 -0.9411
  418MOL0     H56363   8.497   1.689   9.138  1.5927  0.6762 -0.3206
  418MOL0     H56364   8.256   1.709   9.165  1.8345 -0.8827 -2.0728
  418MOL0     H56365   8.052   1.639   9.229  0.3353  0.6524  0.0312
  418MOL0     H56366   7.938   1.667   9.356 -0.8481 -1.5553 -2.8415
  418MOL0     H56367   8.081   1.881   9.171 -1.3162  0.0793 -1.3093
  418MOL0     H56368   7.911   1.842   9.185  0.7429  0.0706 -1.4625
  418MOL0     H56369   8.060   1.964   9.406  2.3903 -2.4785 -2.6704
  418MOL0     H56370   8.007   2.047   9.269  0.1825 -2.8859 -3.5872
  418MOL0     H56371   7.788   2.016   9.305  1.5888  2.2423 -0.6681
  418MOL0     H56372   7.798   1.885   9.420  0.2742 -0.8361 -0.1634
  418MOL0     H56373   7.937   2.148   9.484 -0.7540  1.7181  0.5813
  418MOL0     H56374   7.762   2.141   9.495 -1.9925 -3.4592  2.7596
  418MOL0     H56375   7.797   2.091   9.716 -2.2502  1.0720 -1.8559
  418MOL0     H56376   7.767   1.942   9.633 -0.5758  0.3212 -1.4045
  418MOL0     H56377   7.961   1.941   9.806  1.2940  0.1074  0.6398
  418MOL0     H56378   7.999   1.866   9.657  0.6659 -0.3244  2.3438
  418MOL0     H56379   8.074   2.155   9.719 -0.4066  1.0574 -1.8359
  418MOL0     H56380   8.108   2.073   9.570 -0.3928  0.6179 -0.4389
  418MOL0     H56381   8.307   2.240   9.730  0.6636  1.3045  2.0702
  418MOL0     H56382   8.553   2.228   9.843  1.1253  0.0405  0.0925
  418MOL0     H56383   8.601   2.080   9.925  0.5652 -0.3957 -0.5563
  418MOL0     H56384   8.658   2.158   9.642 -0.1328 -1.5719 -1.1654
  418MOL0     H56385   8.659   1.996   9.683  3.2262 -0.0016 -1.1647
  418MOL0     H56386   8.839   2.064   9.877  3.9660 -0.5121 -0.6479
  418MOL0     H56387   8.856   2.211   9.785  1.1540 -0.0653 -1.2361
  418MOL0     H56388   8.929   2.105   9.608  1.4513  1.1251  1.9158
  418MOL0     H56389   8.883   1.940   9.661  0.2159 -0.5924  1.9443
  418MOL0     H56390   9.257   2.063   9.880  4.3236  1.6470 -0.5643
  418MOL0     H56391   9.555   1.906   9.849 -1.4274 -1.1198  2.3786
  418MOL0     H56392   9.567   2.089   9.831 -2.0345  1.6449  2.7474
  418MOL0     H56393   9.459   2.022   9.941 -0.0610  0.2304 -1.1777
  418MOL0     H56394   9.819   1.882   9.466 -0.7928  2.0476  0.8465
  418MOL0     H56395  10.002   1.887   9.308  2.6831  3.6591 -2.0753
  418MOL0     H56396   9.964   1.760   8.888 -0.7582  1.4227 -1.4026
  418MOL0     H56397   9.927   1.932   8.858 -2.8465  0.0111  1.1631
  418MOL0     H56398  10.124   1.828   8.740  1.8681 -2.2144  0.4552
  418MOL0     H56399  10.159   1.980   8.839  4.3495 -0.5236  0.0467
  418MOL0     H56400  10.249   1.692   8.887 -3.1405  0.0579  0.5292
  418MOL0     H56401  10.207   1.789   9.020 -1.4972 -0.1172  0.1563
  418MOL0     H56402  10.418   1.864   8.783 -0.1311  1.8255  0.0274
  418MOL0     H56403  10.375   1.973   8.911 -2.5155  0.0330 -0.1968
  418MOL0     H56404  10.508   1.697   8.941  0.9278  0.1973 -2.4571
  418MOL0     H56405  10.454   1.797   9.070  1.5106 -3.6657 -0.7089
  418MOL0     H56406  10.648   1.889   8.849  0.2228  2.8774  0.9547
  418MOL0     H56407  10.623   1.978   8.987 -2.5231  0.7811 -0.3450
  418MOL0     H56408  10.814   1.861   9.008 -1.5777  0.5741  0.0569
  418MOL0     H56409  10.755   1.698   9.003 -1.8859 -0.0544 -1.7392
  418MOL0     H56410  10.616   1.713   9.192  1.0719  0.8480  0.2152
  418MOL0     H56411  10.639   1.884   9.203 -3.8454 -0.8118  0.6552
  418MOL0     H56412   9.721   1.970   8.992 -1.6527  1.1865  0.2275
  418MOL0     H56413   9.549   1.991   9.144  1.2982  1.4386 -0.9220
  418MOL0     H56414   9.316   1.960   9.410 -0.9677  1.7024 -0.8472
  418MOL0     H56415   9.102   1.957   9.491  1.9254  0.6639 -1.9547
  418MOL0     H56416   8.283   1.656   9.584 -0.6238 -0.3897 -0.2413
  418MOL0     H56417   8.544   1.608   9.554 -1.8763 -6.3024 -1.1603
  418MOL0     H56418   8.904   1.759   9.334  1.3145 -0.6830  0.6292
  418MOL0     H56419   9.140   1.770   9.265  1.1550 -1.6005 -5.8909
  418MOL0     H56420   9.363   1.759   9.099  2.4238  1.1773 -0.1183
  418MOL0     H56421   9.358   1.727   9.268 -0.7714  0.6078 -0.6324
  418MOL0     H56422   9.512   1.518   9.224  0.7719  1.1482  3.1246
  418MOL0     H56423   9.587   1.678   9.211  0.4576  0.9318 -2.2417
  418MOL0     H56424   9.536   1.694   8.978  0.9202  2.0061  3.5555
  418MOL0     H56425   9.478   1.516   8.987 -2.1366  1.9308 -2.1178
  418MOL0     H56426   9.718   1.465   9.076  1.0051  1.4762  0.7622
  418MOL0     H56427   9.748   1.628   9.064  0.0794 -3.3106  5.3115
  418MOL0     H56428   9.839   1.505   8.667  1.3790  0.5950  0.6832
  418MOL0     H56429   9.128   1.375   9.128 -0.7410 -1.0317  0.1122
  418MOL0     H56430   8.888   1.354   9.200  3.5044 -2.1976  1.2836
  419MOL0     O56431   9.734   7.782   4.741 -0.1142  0.3599 -0.3031
  419MOL0     C56432   9.746   7.737   4.625  0.5652  0.3157  0.2470
  419MOL0     O56433   9.645   7.668   4.554 -0.7478 -0.9025  0.3160
  419MOL0     C56434   9.520   7.668   4.602  0.7786  0.0317  0.1261
  419MOL0     C56435   9.462   7.545   4.647 -1.5308  0.3249  0.2133
  419MOL0     C56436   9.321   7.531   4.677  0.2923 -0.6183  0.2893
  419MOL0     C56437   9.243   7.656   4.669  0.8491 -0.2007  0.0920
  419MOL0     O56438   9.107   7.650   4.695  0.0112 -0.0832 -0.0204
  419MOL0     C56439   9.028   7.555   4.612 -0.0233  0.0185  0.3542
  419MOL0     C56440   8.894   7.538   4.689 -0.7183 -0.7377 -0.0246
  419MOL0     C56441   8.797   7.455   4.616 -0.3662  1.0376 -0.2795
  419MOL0     C56442   8.672   7.419   4.694 -0.0384  0.4439  0.5707
  419MOL0     C56443   8.558   7.364   4.603  0.4149  0.2981  0.0320
  419MOL0     C56444   8.600   7.226   4.536 -0.5756  0.0679 -0.6034
  419MOL0     C56445   8.484   7.153   4.481 -0.4152 -0.5602 -0.3586
  419MOL0     C56446   8.382   7.102   4.589  0.1566 -0.6080  0.0055
  419MOL0     N56447   8.289   7.000   4.543 -1.3294  0.2977  0.4392
  419MOL0     C56448   8.170   7.029   4.472 -1.1789  0.5599 -0.1787
  419MOL0     C56449   8.130   6.905   4.446 -0.2716 -0.5751 -0.3767
  419MOL0     C56450   8.012   6.861   4.354 -0.0686  0.6999 -0.5553
  419MOL0     C56451   7.888   6.846   4.430  0.2604 -0.0277 -0.9723
  419MOL0     C56452   7.888   6.716   4.513 -0.4581  0.1091  0.3933
  419MOL0     C56453   7.759   6.717   4.600  0.6388 -0.0811  0.6908
  419MOL0     O56454   7.630   6.725   4.538 -0.2350  0.1263 -0.2697
  419MOL0     C56455   7.514   6.754   4.613 -0.9067  0.4704  0.0177
  419MOL0     C56456   7.487   6.712   4.749 -0.6378 -1.4594  0.1768
  419MOL0     C56457   7.368   6.747   4.807  0.3487  0.7187  0.5360
  419MOL0     C56458   7.344   6.684   4.941  1.1988  0.1309 -0.1513
  419MOL0     C56459   7.276   6.832   4.745  0.2808  0.2222  1.4658
  419MOL0     C56460   7.147   6.882   4.795 -1.2034  0.1637 -0.9792
  419MOL0     O56461   7.096   6.994   4.740  0.7940  0.3748 -0.7225
  419MOL0     C56462   6.982   7.040   4.800 -0.1813 -1.2228 -0.1717
  419MOL0     C56463   6.983   7.168   4.854 -0.6848 -0.7448 -0.9567
  419MOL0     C56464   6.872   7.231   4.911  0.2636 -0.4127  0.4730
  419MOL0     C56465   6.752   7.171   4.904  0.2799  0.2525  0.5120
  419MOL0     O56466   6.645   7.235   4.957 -1.2761  0.2386 -0.0025
  419MOL0     C56467   6.510   7.178   4.963  0.1317  0.3413 -0.2738
  419MOL0     C56468   6.423   7.273   5.041 -0.3129 -0.7486  0.7759
  419MOL0     C56469   6.296   7.219   5.118 -0.8417 -0.8214  0.8649
  419MOL0     C56470   6.165   7.243   5.046 -0.7438 -0.1291  1.5097
  419MOL0     C56471   6.038   7.179   5.099 -0.4071  0.4425 -0.8340
  419MOL0     C56472   5.980   7.257   5.210 -0.4716  0.0752  0.7380
  419MOL0     C56473   5.912   7.176   5.323 -0.1147 -0.1177 -0.8948
  419MOL0     C56474   5.864   7.249   5.443 -0.0666  0.5931  0.2805
  419MOL0    Cl56475   5.817   7.129   5.564 -0.0662  0.3783  0.3440
  419MOL0     C56476   6.743   7.048   4.829 -0.7490  0.3954 -0.1581
  419MOL0     C56477   6.855   6.986   4.768 -0.0822  0.3041  0.4785
  419MOL0     O56478   7.106   6.827   4.901  0.0150  0.7168 -0.1007
  419MOL0     C56479   7.317   6.886   4.615  0.2870  0.1602 -0.5503
  419MOL0     C56480   7.429   6.837   4.550  0.6538 -0.6085 -0.1897
  419MOL0     N56481   8.215   6.809   4.498  0.4685  0.0791 -0.0914
  419MOL0     N56482   8.312   6.864   4.557 -0.1622  0.2425 -0.8509
  419MOL0     C56483   9.306   7.776   4.637  0.4224  0.0449 -0.3578
  419MOL0     C56484   9.434   7.783   4.607  0.2775  0.6825  0.7430
  419MOL0     C56485   9.884   7.761   4.561  0.6908 -0.2268  0.4548
  419MOL0     C56486   9.987   7.810   4.641  0.3858 -0.1524  1.1838
  419MOL0     C56487  10.112   7.814   4.589  0.2557  0.0475 -0.4911
  419MOL0     C56488  10.145   7.745   4.472  0.1476 -0.9065 -0.5043
  419MOL0     O56489  10.275   7.746   4.442 -0.0356 -0.1825 -0.0645
  419MOL0     C56490  10.330   7.687   4.325  0.3696  0.1879  0.5214
  419MOL0     C56491  10.327   7.541   4.364 -0.0997  0.0245 -0.1096
  419MOL0     C56492  10.400   7.462   4.262 -1.1151  0.6561  0.4042
  419MOL0     C56493  10.347   7.480   4.123 -1.1121  0.7438  1.0982
  419MOL0     C56494  10.199   7.460   4.109  0.6640  1.4131 -0.0904
  419MOL0     C56495  10.084   7.427   4.100  0.4647 -0.5057 -0.0849
  419MOL0     C56496  10.044   7.703   4.389  0.0623 -0.5227  0.7595
  419MOL0     C56497   9.912   7.704   4.434 -1.6957 -0.3655 -0.0073
  419MOL0     H56498   9.522   7.455   4.649  1.2423  2.0458 -0.8983
  419MOL0     H56499   9.285   7.438   4.720 -0.0490 -0.0966  1.1783
  419MOL0     H56500   9.012   7.591   4.510  1.6581 -2.3622 -0.8630
  419MOL0     H56501   9.079   7.459   4.604  0.9463  0.6981 -3.4891
  419MOL0     H56502   8.917   7.487   4.783  3.3978 -1.3608 -1.1490
  419MOL0     H56503   8.863   7.642   4.703  2.8954  0.5510 -0.4542
  419MOL0     H56504   8.781   7.494   4.515  6.0933 -3.6256 -3.8312
  419MOL0     H56505   8.840   7.357   4.592  0.0099  0.7203  1.5556
  419MOL0     H56506   8.695   7.343   4.770  0.2100 -1.1337 -1.0135
  419MOL0     H56507   8.633   7.505   4.748  0.3927  1.8822 -1.3094
  419MOL0     H56508   8.477   7.351   4.676  0.2509  1.3827  0.0668
  419MOL0     H56509   8.528   7.440   4.530 -4.2050 -1.3580 -0.1161
  419MOL0     H56510   8.666   7.250   4.453 -0.7026 -0.8512 -0.9879
  419MOL0     H56511   8.640   7.159   4.613 -3.0937  1.0373  1.7064
  419MOL0     H56512   8.445   7.206   4.394  4.6045  0.3613 -2.4062
  419MOL0     H56513   8.531   7.069   4.428  1.6998 -0.0439  0.6245
  419MOL0     H56514   8.331   7.191   4.629 -0.2887 -1.2387  0.8706
  419MOL0     H56515   8.443   7.056   4.668  0.1016 -1.5416 -0.4805
  419MOL0     H56516   8.118   7.118   4.437 -3.1299 -1.3149 -2.3859
  419MOL0     H56517   7.989   6.939   4.281  1.1602  2.0744  0.4643
  419MOL0     H56518   8.030   6.764   4.307 -1.4447 -2.5383  4.7231
  419MOL0     H56519   7.796   6.832   4.372 -1.6929 -3.2828  2.4951
  419MOL0     H56520   7.876   6.931   4.498 -0.5860 -1.9798  1.4965
  419MOL0     H56521   7.978   6.689   4.568 -0.4719  0.1325  0.4279
  419MOL0     H56522   7.880   6.637   4.437  0.6046 -0.8863  1.2994
  419MOL0     H56523   7.770   6.803   4.666 -1.3530 -0.7641  2.0142
  419MOL0     H56524   7.751   6.624   4.656  2.1679 -0.8797 -0.3271
  419MOL0     H56525   7.566   6.653   4.793  1.0000  0.1192 -0.4880
  419MOL0     H56526   7.317   6.768   5.007 -2.1624  0.2980 -1.5616
  419MOL0     H56527   7.253   6.624   4.942  0.0881  1.7021  1.5278
  419MOL0     H56528   7.422   6.625   4.990  1.5062  1.7842  1.4981
  419MOL0     H56529   7.079   7.212   4.878 -1.7983  0.5650  1.3826
  419MOL0     H56530   6.891   7.316   4.976  3.6677 -0.3265 -0.4566
  419MOL0     H56531   6.461   7.166   4.866 -2.6919 -0.5421  1.1631
  419MOL0     H56532   6.519   7.076   5.002 -0.2822 -0.3087 -1.7989
  419MOL0     H56533   6.486   7.329   5.111  1.2159  1.6014 -2.2469
  419MOL0     H56534   6.396   7.357   4.977  0.3532  1.1880  2.8627
  419MOL0     H56535   6.291   7.260   5.220 -1.5645  1.2965  0.0269
  419MOL0     H56536   6.317   7.112   5.127  2.1756 -0.4642 -0.8820
  419MOL0     H56537   6.154   7.352   5.039  0.2297 -0.0788  0.5371
  419MOL0     H56538   6.164   7.216   4.940 -2.9879  0.5497  1.3024
  419MOL0     H56539   6.054   7.074   5.127 -1.9726  0.0495 -1.2736
  419MOL0     H56540   5.977   7.174   5.008  0.7609 -0.6400 -1.5986
  419MOL0     H56541   6.064   7.312   5.254 -0.1229  0.2417 -0.1238
  419MOL0     H56542   5.902   7.324   5.172 -1.1336 -0.3550  1.3080
  419MOL0     H56543   5.966   7.086   5.350 -1.3245 -1.0851 -1.5712
  419MOL0     H56544   5.822   7.141   5.271  0.4162  1.1409 -2.7473
  419MOL0     H56545   5.790   7.326   5.421  0.5802  1.9768  2.5081
  419MOL0     H56546   5.947   7.311   5.480 -0.7217  3.4236 -2.5854
  419MOL0     H56547   6.644   7.004   4.824 -0.1352 -0.8714 -2.2233
  419MOL0     H56548   6.837   6.884   4.734 -0.3145  0.0594  1.3024
  419MOL0     H56549   7.255   6.952   4.555  0.9814 -1.3547 -3.0815
  419MOL0     H56550   7.448   6.867   4.447 -0.3653 -0.0053 -0.2164
  419MOL0     H56551   9.246   7.866   4.643 -0.3488 -0.3323 -1.9282
  419MOL0     H56552   9.476   7.878   4.576 -1.6909  1.0884 -0.9058
  419MOL0     H56553   9.962   7.845   4.740 -1.7554 -1.6877  1.2521
  419MOL0     H56554  10.179   7.856   4.664 -0.3132  2.8033 -1.4149
  419MOL0     H56555  10.266   7.703   4.237  0.1289 -0.0820  0.6449
  419MOL0     H56556  10.433   7.705   4.293  1.0248 -3.3027  0.2472
  419MOL0     H56557  10.224   7.510   4.382  0.3040 -0.1116  2.2297
  419MOL0     H56558  10.374   7.515   4.459 -3.7508 -1.9802  1.3438
  419MOL0     H56559  10.383   7.359   4.292 -0.3580  0.5346  0.4386
  419MOL0     H56560  10.508   7.480   4.261 -0.5496 -2.2060 -1.1638
  419MOL0     H56561  10.387   7.396   4.066 -1.2576 -2.5294  5.3224
  419MOL0     H56562  10.383   7.577   4.086  2.5453 -0.9043 -0.1333
  419MOL0     H56563   9.982   7.397   4.092  0.8370 -1.6908 -0.6340
  419MOL0     H56564  10.068   7.675   4.287 -1.5103  0.6521  0.0258
  419MOL0     H56565   9.845   7.658   4.363  0.2345 -2.1143 -0.8298
  420MOL0     O56566   7.710  10.130   6.534  0.3304  0.4705  0.1371
  420MOL0     C56567   7.781  10.087   6.442  0.2182  0.9092  0.2371
  420MOL0     O56568   7.732  10.050   6.326  0.8874  0.0399  0.6599
  420MOL0     C56569   7.606  10.080   6.278 -0.3129  1.0776  0.5734
  420MOL0     C56570   7.597  10.182   6.182 -0.0945 -0.1582 -0.3407
  420MOL0     C56571   7.475  10.226   6.120  0.4426  0.6475 -0.9130
  420MOL0     C56572   7.352  10.166   6.163 -1.0784 -0.3204 -0.3053
  420MOL0     O56573   7.229  10.192   6.109  0.1307 -0.2238 -0.6430
  420MOL0     C56574   7.221  10.284   6.006  0.3632 -0.9076 -0.7320
  420MOL0     C56575   7.086  10.337   5.975  0.5848 -0.0631  0.0768
  420MOL0     C56576   6.997  10.231   5.924  0.4057 -0.0837  0.4066
  420MOL0     C56577   6.866  10.296   5.866 -0.6771 -0.1064  0.0426
  420MOL0     C56578   6.763  10.183   5.843 -0.5172  0.1391 -0.5617
  420MOL0     C56579   6.632  10.237   5.796 -0.6460 -0.0807  0.7758
  420MOL0     C56580   6.539  10.114   5.784  0.4724 -0.4803 -0.3922
  420MOL0     C56581   6.401  10.167   5.734 -0.0762 -0.3730  0.3372
  420MOL0     N56582   6.355  10.287   5.809  0.1119 -0.3327 -0.6918
  420MOL0     C56583   6.308  10.273   5.940  0.0308  0.3537  0.0376
  420MOL0     C56584   6.286  10.407   5.973  0.5532 -1.0602 -0.5769
  420MOL0     C56585   6.243  10.465   6.101 -0.3406  0.1392 -0.0714
  420MOL0     C56586   6.107  10.400   6.144 -0.2744  0.1688  0.1917
  420MOL0     C56587   6.062  10.444   6.285 -0.2987  0.6551 -0.0604
  420MOL0     C56588   5.929  10.367   6.332  0.0383 -0.1566 -0.3993
  420MOL0     O56589   5.821  10.388   6.231 -0.1718  0.7772  0.0919
  420MOL0     C56590   5.690  10.357   6.264 -0.1382 -0.7563 -0.4648
  420MOL0     C56591   5.640  10.325   6.385  0.4984  0.6434  0.3890
  420MOL0     C56592   5.497  10.284   6.399  0.1042  0.1131 -0.1012
  420MOL0     C56593   5.456  10.243   6.541 -0.1527  0.3992 -0.2675
  420MOL0     C56594   5.414  10.279   6.282 -0.1450 -0.1715  0.5378
  420MOL0     C56595   5.279  10.213   6.281 -0.5526  0.1533  0.7548
  420MOL0     O56596   5.170  10.283   6.225 -0.0882  0.4510  0.0265
  420MOL0     C56597   5.042  10.236   6.251 -0.4670  0.0551 -0.0104
  420MOL0     C56598   5.004  10.202   6.381  0.3612 -0.0962 -0.0384
  420MOL0     C56599   4.876  10.168   6.407  0.7630 -0.0017 -0.6957
  420MOL0     C56600   4.772  10.172   6.313 -0.1451 -0.0886  0.5001
  420MOL0     O56601   4.639  10.153   6.352 -1.0585 -0.3174  0.1972
  420MOL0     C56602   4.616  10.017   6.343  0.0321  0.0628  0.2561
  420MOL0     C56603   4.485   9.971   6.396  0.9705  1.1439  0.5204
  420MOL0     C56604   4.468   9.826   6.349 -0.3066 -0.3876  0.3829
  420MOL0     C56605   4.336   9.767   6.421  1.2091  0.6495  0.2268
  420MOL0     C56606   4.303   9.623   6.363 -0.0918  1.0391 -0.5294
  420MOL0     C56607   4.418   9.521   6.362 -0.5584  0.2441 -0.0332
  420MOL0     C56608   4.470   9.474   6.496  0.0773  1.0743 -0.3973
  420MOL0     C56609   4.580   9.369   6.465 -0.2590 -1.3596 -0.6630
  420MOL0    Cl56610   4.686   9.355   6.614  0.2287 -0.1726  0.0306
  420MOL0     C56611   4.816  10.206   6.183 -0.7214 -0.2938  0.8136
  420MOL0     C56612   4.951  10.235   6.149 -0.3978  0.6399 -0.0990
  420MOL0     O56613   5.286  10.099   6.317  0.5845  0.0074 -0.4190
  420MOL0     C56614   5.477  10.326   6.164  0.4495  0.6005 -0.5902
  420MOL0     C56615   5.608  10.378   6.161 -0.4952 -0.4872 -0.1976
  420MOL0     N56616   6.311  10.487   5.864 -1.3187 -0.0734 -0.6205
  420MOL0     N56617   6.348  10.418   5.763  0.2057 -0.1686  0.2909
  420MOL0     C56618   7.360  10.079   6.275  0.6302  0.4450 -0.1819
  420MOL0     C56619   7.482  10.029   6.321 -0.1096 -0.8076 -0.4143
  420MOL0     C56620   7.924  10.102   6.440 -0.8285 -0.0886  0.2808
  420MOL0     C56621   8.005  10.046   6.329  0.1225 -0.1543  0.1539
  420MOL0     C56622   8.144  10.084   6.327 -0.0535  0.4139  0.2386
  420MOL0     C56623   8.202  10.131   6.436 -0.0567  0.5198 -0.3116
  420MOL0     O56624   8.342  10.121   6.421 -0.8274  0.2266 -0.5237
  420MOL0     C56625   8.418  10.169   6.525 -0.3972  0.3961 -0.2216
  420MOL0     C56626   8.563  10.201   6.483  0.5591  0.5017 -0.4920
  420MOL0     C56627   8.654  10.226   6.602 -0.1397 -0.0228  0.3476
  420MOL0     C56628   8.666  10.365   6.663  0.7457 -0.4941 -1.2410
  420MOL0     C56629   8.764  10.362   6.766  0.3049 -0.7864  0.5073
  420MOL0     C56630   8.842  10.374   6.852  0.4661 -0.0972 -0.2588
  420MOL0     C56631   8.130  10.174   6.551 -0.2647 -0.0714  0.7288
  420MOL0     C56632   7.996  10.155   6.555  1.6242  0.1282 -0.5665
  420MOL0     H56633   7.684  10.240   6.153 -1.5591  0.6159 -3.6041
  420MOL0     H56634   7.483  10.302   6.043 -1.7067  0.8366 -1.0064
  420MOL0     H56635   7.285  10.370   6.029  1.3148 -1.3737 -1.6119
  420MOL0     H56636   7.275  10.235   5.925  0.9065 -2.2709  0.4335
  420MOL0     H56637   7.037  10.384   6.060 -0.5856  0.0947 -0.6547
  420MOL0     H56638   7.106  10.414   5.900  0.2670 -2.4627 -2.6869
  420MOL0     H56639   7.053  10.178   5.847  1.3069 -0.5948  1.3837
  420MOL0     H56640   6.981  10.166   6.010 -1.3957  1.1361  1.0496
  420MOL0     H56641   6.825  10.361   5.943 -0.3647  1.7970 -1.3235
  420MOL0     H56642   6.886  10.362   5.780  1.6542  0.9013  1.2783
  420MOL0     H56643   6.808  10.098   5.792  1.2930  0.4979  0.3556
  420MOL0     H56644   6.743  10.149   5.945  1.1645 -1.3137 -0.6754
  420MOL0     H56645   6.601  10.317   5.864  1.4137 -0.0462  1.7565
  420MOL0     H56646   6.638  10.285   5.698  0.3764  1.6455  1.6240
  420MOL0     H56647   6.584  10.036   5.723  1.6473 -1.9548  2.1885
  420MOL0     H56648   6.535  10.058   5.878  2.0483 -0.0230 -0.0245
  420MOL0     H56649   6.318  10.097   5.737 -0.1260 -0.4958 -1.8786
  420MOL0     H56650   6.421  10.190   5.628  1.4692 -3.3695 -0.1167
  420MOL0     H56651   6.300  10.185   6.005 -3.8870  0.1223 -0.5278
  420MOL0     H56652   6.312  10.449   6.183 -0.5370  2.4265  0.6283
  420MOL0     H56653   6.238  10.574   6.084  1.3509  0.4060  0.9888
  420MOL0     H56654   6.118  10.291   6.139  1.8969  0.2298  2.2012
  420MOL0     H56655   6.032  10.425   6.068 -0.1104 -1.1353 -0.4382
  420MOL0     H56656   6.046  10.551   6.303  0.5552  0.2758  3.7733
  420MOL0     H56657   6.145  10.420   6.352  1.7613  4.2307 -1.0432
  420MOL0     H56658   5.903  10.407   6.431  3.8478  0.8683  0.3262
  420MOL0     H56659   5.950  10.260   6.341 -0.3793 -0.2203 -0.1160
  420MOL0     H56660   5.709  10.307   6.467  0.5534  1.5553  0.5540
  420MOL0     H56661   5.546  10.232   6.602  0.1147  1.1019 -0.5357
  420MOL0     H56662   5.397  10.323   6.588  3.0381  2.3370  0.7024
  420MOL0     H56663   5.397  10.153   6.561 -0.7443  0.8885  0.2757
  420MOL0     H56664   5.063  10.199   6.472  0.4451  0.8305 -0.0570
  420MOL0     H56665   4.863  10.157   6.514  1.0520 -0.7228 -0.7299
  420MOL0     H56666   4.631   9.983   6.240  1.0103  0.8316  0.1284
  420MOL0     H56667   4.691   9.963   6.401  1.9997 -0.4937 -2.6007
  420MOL0     H56668   4.497   9.980   6.504 -0.4000 -0.1536  0.8062
  420MOL0     H56669   4.404  10.030   6.352  0.5641  1.6167  1.8632
  420MOL0     H56670   4.551   9.756   6.366 -0.5116 -1.2003 -1.6459
  420MOL0     H56671   4.458   9.841   6.241  1.7981  0.7447  0.2891
  420MOL0     H56672   4.356   9.766   6.528 -0.1946 -2.9696  0.6077
  420MOL0     H56673   4.247   9.828   6.404  1.0338  0.3766  0.1439
  420MOL0     H56674   4.278   9.649   6.260 -0.0922  1.4185 -0.4341
  420MOL0     H56675   4.215   9.585   6.416  0.3459 -0.3119 -0.7341
  420MOL0     H56676   4.378   9.435   6.308 -2.7888  0.2119  1.5462
  420MOL0     H56677   4.504   9.570   6.315  1.9315 -1.7567  2.1206
  420MOL0     H56678   4.386   9.436   6.554 -0.2882  0.8068 -1.0820
  420MOL0     H56679   4.520   9.556   6.548  2.5496 -0.7783  0.3503
  420MOL0     H56680   4.644   9.392   6.380  2.2069 -1.6558  1.0179
  420MOL0     H56681   4.532   9.272   6.448  0.2614 -1.3808 -2.2332
  420MOL0     H56682   4.738  10.203   6.108 -1.3035  0.7218  1.3508
  420MOL0     H56683   4.978  10.268   6.050  0.8189 -1.8982 -0.6883
  420MOL0     H56684   5.409  10.341   6.081  0.2789 -0.9423 -0.7600
  420MOL0     H56685   5.648  10.414   6.067 -1.5090 -2.2605 -1.3888
  420MOL0     H56686   7.267  10.049   6.322  1.5642  0.0663  1.4894
  420MOL0     H56687   7.467   9.965   6.408 -0.0681 -0.8733 -0.4556
  420MOL0     H56688   7.954   9.996   6.248 -0.5240  1.3296 -0.3981
  420MOL0     H56689   8.191  10.066   6.232 -0.0395  0.7096  0.1902
  420MOL0     H56690   8.378  10.263   6.563 -0.9703 -0.1129  0.4722
  420MOL0     H56691   8.415  10.092   6.603 -0.1903  1.5312  0.9217
  420MOL0     H56692   8.547  10.288   6.419 -2.5595  0.2969 -0.1071
  420MOL0     H56693   8.599  10.117   6.422 -0.3315 -0.9027  0.8487
  420MOL0     H56694   8.752  10.192   6.566 -0.1031 -0.8707  1.2250
  420MOL0     H56695   8.621  10.166   6.687 -1.4597 -0.6485 -0.5762
  420MOL0     H56696   8.572  10.404   6.704  0.6058 -0.2693 -1.7702
  420MOL0     H56697   8.695  10.435   6.585  2.1642  2.4724  1.6951
  420MOL0     H56698   8.918  10.386   6.927 -0.0129 -1.3489  0.4395
  420MOL0     H56699   8.185  10.214   6.636  2.7104  1.1073 -1.5356
  420MOL0     H56700   7.945  10.183   6.647 -0.0885 -2.1832 -0.7201
  421MOL0     O56701   5.087   7.724  10.685  0.2910  0.4738 -0.4355
  421MOL0     C56702   5.130   7.676  10.577 -0.2336 -0.4651  0.5750
  421MOL0     O56703   5.060   7.618  10.481  0.7994 -0.7366  0.2173
  421MOL0     C56704   4.927   7.614  10.491 -0.1807 -0.6423  0.9358
  421MOL0     C56705   4.846   7.722  10.460  1.1406 -1.0750  0.5962
  421MOL0     C56706   4.703   7.720  10.466  0.2688  0.1802 -1.0349
  421MOL0     C56707   4.648   7.605  10.521  0.8490  0.0707  0.3883
  421MOL0     O56708   4.508   7.598  10.534  0.1139 -0.0773 -0.5413
  421MOL0     C56709   4.447   7.498  10.628 -1.4759  0.0170  1.2080
  421MOL0     C56710   4.300   7.509  10.636 -0.1492 -1.3881  0.4407
  421MOL0     C56711   4.229   7.475  10.504  0.3227  0.4510  0.2548
  421MOL0     C56712   4.079   7.529  10.519  1.6166 -0.4411 -0.1932
  421MOL0     C56713   3.988   7.489  10.411 -0.2538  0.1048  0.0339
  421MOL0     C56714   3.956   7.337  10.415  0.0685 -0.2185 -0.1241
  421MOL0     C56715   3.853   7.281  10.310  0.4307  0.1157  0.9230
  421MOL0     C56716   3.921   7.280  10.168 -0.3236 -0.1372  0.0496
  421MOL0     N56717   3.839   7.188  10.081 -0.7172 -0.0954  0.3129
  421MOL0     C56718   3.850   7.056  10.069  0.3446  0.1981  0.3088
  421MOL0     C56719   3.765   7.018   9.969 -0.2888  0.1728  0.5093
  421MOL0     C56720   3.746   6.893   9.884  0.8415  0.6832 -0.5934
  421MOL0     C56721   3.629   6.805   9.938 -0.0673 -0.3291  0.6676
  421MOL0     C56722   3.649   6.777  10.087 -0.5037 -1.4114 -0.2276
  421MOL0     C56723   3.595   6.637  10.127  0.9431 -0.1819  0.3061
  421MOL0     O56724   3.674   6.526  10.076 -0.7401  0.2414 -0.4021
  421MOL0     C56725   3.794   6.492  10.121 -0.0968  0.3293  0.7315
  421MOL0     C56726   3.855   6.384  10.049  0.7585 -0.7030 -0.3127
  421MOL0     C56727   3.975   6.322  10.094 -0.4958  0.5845  0.0390
  421MOL0     C56728   4.037   6.209  10.019  0.6456  0.2292  0.3286
  421MOL0     C56729   4.044   6.381  10.203 -1.2010 -0.4904  0.2776
  421MOL0     C56730   4.183   6.351  10.241 -0.3372 -0.6561  0.8694
  421MOL0     O56731   4.228   6.222  10.241  0.8958  0.5381  0.1291
  421MOL0     C56732   4.350   6.180  10.292 -0.1481  0.4677  0.0017
  421MOL0     C56733   4.339   6.085  10.387  0.0405  0.1816 -0.1918
  421MOL0     C56734   4.455   6.038  10.446 -0.3172 -0.0273 -0.2455
  421MOL0     C56735   4.583   6.104  10.406  0.3396  0.4159 -0.6550
  421MOL0     O56736   4.700   6.067  10.461 -0.0027  0.2782 -0.3138
  421MOL0     C56737   4.709   5.950  10.528 -0.0186  1.8762  0.4463
  421MOL0     C56738   4.850   5.893  10.549 -0.4629  0.4439  0.1963
  421MOL0     C56739   4.937   5.998  10.609  0.3813 -0.7818  0.5251
  421MOL0     C56740   5.058   5.937  10.683  0.0778  0.7389  0.2552
  421MOL0     C56741   5.133   6.033  10.771  0.2407  0.4101  0.0818
  421MOL0     C56742   5.218   5.955  10.870  0.2455  0.4047 -0.0539
  421MOL0     C56743   5.329   6.027  10.943 -0.1417 -0.3636 -0.1788
  421MOL0     C56744   5.432   5.946  11.034 -0.6168 -0.9756  0.0102
  421MOL0    Cl56745   5.528   5.837  10.933  0.4393 -0.0767  0.1730
  421MOL0     C56746   4.591   6.198  10.304  0.1269  0.2779  0.0891
  421MOL0     C56747   4.474   6.237  10.245  0.4208 -0.6662 -0.6219
  421MOL0     O56748   4.245   6.441  10.293  0.2428 -0.5242 -0.8371
  421MOL0     C56749   3.978   6.490  10.263 -0.9684 -0.4038 -0.3089
  421MOL0     C56750   3.856   6.542  10.225 -0.4359 -0.0402  0.2961
  421MOL0     N56751   3.696   7.132   9.933  0.3375 -0.3502  0.4395
  421MOL0     N56752   3.737   7.233  10.003  0.4341 -0.2289 -0.5112
  421MOL0     C56753   4.727   7.493  10.552  0.1111 -0.3033 -0.4570
  421MOL0     C56754   4.857   7.498  10.545 -0.0181 -0.2165 -0.3753
  421MOL0     C56755   5.269   7.690  10.545  0.1252 -0.1017 -0.5287
  421MOL0     C56756   5.321   7.659  10.415 -0.3506  0.5040  0.6226
  421MOL0     C56757   5.450   7.683  10.387  0.7551 -0.1729  0.7585
  421MOL0     C56758   5.538   7.747  10.480 -0.4004  0.2192  0.5003
  421MOL0     O56759   5.670   7.780  10.459  0.3483  0.3012  0.1429
  421MOL0     C56760   5.738   7.719  10.342 -0.2578 -0.1740  0.7608
  421MOL0     C56761   5.901   7.703  10.360  0.7115  0.0511 -0.2677
  421MOL0     C56762   5.963   7.844  10.383 -0.2640  0.1839 -0.8661
  421MOL0     C56763   6.104   7.847  10.439 -0.4189  0.0881  0.3664
  421MOL0     C56764   6.207   7.775  10.357 -0.0745 -0.2653  0.4390
  421MOL0     C56765   6.271   7.706  10.278 -0.4088  0.3501 -0.0564
  421MOL0     C56766   5.489   7.764  10.608  0.0446 -0.4197 -0.8411
  421MOL0     C56767   5.357   7.744  10.645 -0.1069  0.4413  0.4195
  421MOL0     H56768   4.898   7.811  10.427 -2.9411  0.7978 -1.5474
  421MOL0     H56769   4.634   7.799  10.439 -3.4319 -1.6854  2.0277
  421MOL0     H56770   4.464   7.403  10.576  2.3722  1.2831 -0.2349
  421MOL0     H56771   4.495   7.499  10.727 -0.7331 -0.5332  0.8632
  421MOL0     H56772   4.255   7.439  10.707 -0.8071  0.3894  1.8593
  421MOL0     H56773   4.292   7.612  10.672  1.9313 -0.4710 -1.4766
  421MOL0     H56774   4.269   7.536  10.422  1.1818  1.5770  1.4670
  421MOL0     H56775   4.235   7.370  10.474 -2.4493  0.6990 -1.5929
  421MOL0     H56776   4.024   7.497  10.607 -1.4595 -1.6812 -2.3909
  421MOL0     H56777   4.092   7.637  10.512 -0.0539 -0.2742 -1.4019
  421MOL0     H56778   3.899   7.551  10.420 -0.5368 -0.2072 -0.6000
  421MOL0     H56779   4.027   7.508  10.311 -1.5382  1.1241 -0.2991
  421MOL0     H56780   4.046   7.274  10.414  0.1602 -0.1812 -2.9232
  421MOL0     H56781   3.905   7.313  10.509 -1.5924  2.1362 -0.3350
  421MOL0     H56782   3.835   7.176  10.336  0.3032 -0.3647 -0.9914
  421MOL0     H56783   3.765   7.346  10.298  2.6374  3.3420  0.9142
  421MOL0     H56784   4.019   7.237  10.191 -0.7069 -0.0139  2.1289
  421MOL0     H56785   3.930   7.376  10.118  0.2915 -0.3618 -0.2688
  421MOL0     H56786   3.929   6.988  10.100  1.2064  1.1564  0.2750
  421MOL0     H56787   3.725   6.925   9.781 -1.1532 -1.1140 -0.8138
  421MOL0     H56788   3.841   6.840   9.893  0.9217  0.7806 -0.8487
  421MOL0     H56789   3.626   6.710   9.886 -2.8325 -1.7560  3.0840
  421MOL0     H56790   3.531   6.845   9.908 -0.0908 -1.6229 -1.0555
  421MOL0     H56791   3.601   6.860  10.139 -0.4854 -1.0019 -0.8496
  421MOL0     H56792   3.751   6.785  10.126 -1.1184 -0.9636  1.3593
  421MOL0     H56793   3.489   6.630  10.100  0.3608  3.7854  0.9500
  421MOL0     H56794   3.593   6.647  10.236 -0.3377  4.0067  0.1010
  421MOL0     H56795   3.806   6.339   9.963  1.4045 -5.9216  1.7003
  421MOL0     H56796   3.984   6.176   9.929  1.0740 -0.8010  0.4411
  421MOL0     H56797   4.139   6.234   9.989  0.6515 -2.8118 -2.7216
  421MOL0     H56798   4.049   6.130  10.094  3.7362  1.1033  0.8922
  421MOL0     H56799   4.240   6.041  10.395 -0.6210  0.8756 -3.1993
  421MOL0     H56800   4.437   5.964  10.523 -0.6582  2.0280  1.7635
  421MOL0     H56801   4.653   5.944  10.622  0.5015 -0.8861  0.6664
  421MOL0     H56802   4.663   5.877  10.461  0.6078  1.6534  0.2501
  421MOL0     H56803   4.844   5.804  10.612 -1.0011 -0.5059 -1.1557
  421MOL0     H56804   4.896   5.862  10.455  1.8148  3.0096  0.3399
  421MOL0     H56805   4.890   6.075  10.672  0.0035  0.5997 -1.3431
  421MOL0     H56806   4.979   6.067  10.535  1.7145 -0.4791  1.5220
  421MOL0     H56807   5.020   5.859  10.749  0.0469  1.9116  1.6611
  421MOL0     H56808   5.132   5.901  10.611 -0.5948 -1.5264  0.6289
  421MOL0     H56809   5.069   6.098  10.832  2.1223  4.1926 -1.6436
  421MOL0     H56810   5.197   6.096  10.709  1.6518 -0.9363  0.1209
  421MOL0     H56811   5.159   5.902  10.945 -1.7123  4.5031  1.6112
  421MOL0     H56812   5.260   5.879  10.804  0.6347  1.0715 -0.5811
  421MOL0     H56813   5.277   6.106  10.997  1.0459 -0.3091  0.9290
  421MOL0     H56814   5.389   6.078  10.867 -0.4615  2.6911  1.4761
  421MOL0     H56815   5.374   5.895  11.111 -0.1140 -0.0988  1.0024
  421MOL0     H56816   5.496   6.018  11.086  0.4638 -3.0301  1.6690
  421MOL0     H56817   4.683   6.236  10.259  0.0285 -1.2224 -1.4735
  421MOL0     H56818   4.464   6.314  10.169 -2.0572  0.0331  0.3223
  421MOL0     H56819   4.006   6.548  10.350 -0.2760 -0.6360 -0.3748
  421MOL0     H56820   3.820   6.628  10.281  0.3042  0.4424  0.0490
  421MOL0     H56821   4.697   7.396  10.592 -0.7861  0.0146 -0.3247
  421MOL0     H56822   4.918   7.410  10.567  0.8165  0.3786 -0.2565
  421MOL0     H56823   5.257   7.629  10.333 -0.2118  1.2810  0.2277
  421MOL0     H56824   5.486   7.674  10.285 -0.8359 -1.5917  0.2817
  421MOL0     H56825   5.695   7.620  10.325  0.2901 -0.3810  0.5449
  421MOL0     H56826   5.727   7.788  10.258  2.3611 -0.3591  0.1619
  421MOL0     H56827   5.934   7.659  10.265  0.0138 -1.1300  0.0165
  421MOL0     H56828   5.915   7.646  10.452 -1.0506  3.4660  2.3255
  421MOL0     H56829   5.895   7.892  10.455 -0.6805 -0.8906 -0.5266
  421MOL0     H56830   5.960   7.910  10.296  0.4296  0.0192 -1.0174
  421MOL0     H56831   6.104   7.792  10.534 -0.3192 -1.6705 -0.5951
  421MOL0     H56832   6.146   7.946  10.455  0.9295 -0.4263  0.1832
  421MOL0     H56833   6.325   7.631  10.224 -1.2801 -1.9450  2.0764
  421MOL0     H56834   5.539   7.824  10.684 -2.3110 -0.6943  1.0545
  421MOL0     H56835   5.316   7.784  10.738 -0.4765 -1.0966  0.9448
  422MOL0     O56836   4.939   9.810  10.798 -0.2317  0.2910 -0.1836
  422MOL0     C56837   4.865   9.726  10.852 -0.2527 -0.2901 -0.7187
  422MOL0     O56838   4.839   9.721  10.986 -0.6311  0.0521 -0.0923
  422MOL0     C56839   4.875   9.836  11.049  0.6416  0.0144  0.4760
  422MOL0     C56840   4.794   9.954  11.032 -0.6701 -0.2011  0.0673
  422MOL0     C56841   4.829  10.067  11.103  0.4113  0.5082 -0.2773
  422MOL0     C56842   4.935  10.070  11.185  0.0840 -0.0952 -0.8393
  422MOL0     O56843   4.969  10.194  11.232 -0.2621 -0.5833 -0.2170
  422MOL0     C56844   5.101  10.239  11.254  0.1711 -0.6483 -0.5048
  422MOL0     C56845   5.118  10.369  11.185 -0.8468  0.0744  0.2810
  422MOL0     C56846   5.012  10.471  11.217  0.6605  0.2471 -0.0534
  422MOL0     C56847   5.076  10.612  11.224  0.5825  0.1119 -0.5376
  422MOL0     C56848   4.956  10.709  11.248  0.4509  0.3477 -0.5059
  422MOL0     C56849   4.999  10.862  11.255 -0.4192 -0.5430 -0.2805
  422MOL0     C56850   4.917  10.935  11.369 -0.9986 -0.0131  0.8953
  422MOL0     C56851   4.770  10.943  11.360  0.0525  0.1641  0.6930
  422MOL0     N56852   4.718  11.041  11.253 -0.6799  0.0881 -0.3333
  422MOL0     C56853   4.732  11.179  11.242 -0.3963  0.1624  0.2740
  422MOL0     C56854   4.683  11.219  11.122 -0.6168 -0.7284 -0.4029
  422MOL0     C56855   4.683  11.355  11.057  0.3215  0.1741  0.1197
  422MOL0     C56856   4.724  11.469  11.148 -0.0636 -0.4227 -0.4241
  422MOL0     C56857   4.879  11.472  11.159  0.4856  0.3631  0.0687
  422MOL0     C56858   4.930  11.520  11.289 -0.3963  0.1209  0.0530
  422MOL0     O56859   4.924  11.406  11.376 -0.0255  0.1901 -0.0686
  422MOL0     C56860   4.996  11.402  11.498 -0.6630 -0.5943 -0.2532
  422MOL0     C56861   5.052  11.514  11.556 -0.2973  0.2268 -0.5939
  422MOL0     C56862   5.131  11.497  11.676  0.0996  0.2606  0.1176
  422MOL0     C56863   5.180  11.618  11.753  0.1587  0.2753  0.6409
  422MOL0     C56864   5.160  11.366  11.728  1.0828  0.7025  0.3144
  422MOL0     C56865   5.247  11.335  11.840  0.5166 -0.2924 -0.0565
  422MOL0     O56866   5.207  11.239  11.922 -0.0793  0.2070 -0.7210
  422MOL0     C56867   5.291  11.188  12.016 -0.6321  0.3246 -0.6260
  422MOL0     C56868   5.431  11.158  11.999  0.8306  0.2604 -0.1256
  422MOL0     C56869   5.521  11.135  12.108 -0.1434  0.3945 -0.2685
  422MOL0     C56870   5.471  11.128  12.240  0.4444 -0.5654 -0.1090
  422MOL0     O56871   5.561  11.094  12.348 -0.4083  0.1065  0.3069
  422MOL0     C56872   5.519  11.117  12.476  0.6367  0.4500  0.5073
  422MOL0     C56873   5.644  11.124  12.574  0.2560 -0.7282 -0.8787
  422MOL0     C56874   5.719  10.988  12.578  0.3658  0.6142 -0.1331
  422MOL0     C56875   5.638  10.873  12.639  0.2665 -0.7478 -0.6446
  422MOL0     C56876   5.610  10.874  12.787  0.2020 -0.5648 -0.6615
  422MOL0     C56877   5.504  10.752  12.822  0.6636 -0.4882  0.5252
  422MOL0     C56878   5.471  10.749  12.970 -0.0154  0.1345 -0.3358
  422MOL0     C56879   5.385  10.631  13.012 -0.0694 -0.6042 -0.7642
  422MOL0    Cl56880   5.358  10.639  13.186  0.0016  0.0514 -0.0610
  422MOL0     C56881   5.321  11.142  12.259  0.0420  0.1861 -0.0694
  422MOL0     C56882   5.242  11.177  12.150 -0.0283 -0.7301 -0.3618
  422MOL0     O56883   5.355  11.389  11.841 -0.6856 -0.0720 -0.2178
  422MOL0     C56884   5.112  11.255  11.658  1.4655  0.2036  0.0491
  422MOL0     C56885   5.029  11.278  11.543  0.5145  0.4925 -0.9890
  422MOL0     N56886   4.642  11.104  11.053 -0.9331  0.1554 -0.1963
  422MOL0     N56887   4.672  10.996  11.131  0.3019  0.2973  0.3430
  422MOL0     C56888   5.010   9.953  11.214  0.0262  0.0581  0.2628
  422MOL0     C56889   4.977   9.834  11.149 -0.3497  0.4916  0.8703
  422MOL0     C56890   4.811   9.618  10.757  0.4525  0.2083  0.1529
  422MOL0     C56891   4.718   9.522  10.804  0.1405  0.8731 -0.5545
  422MOL0     C56892   4.645   9.445  10.709 -0.1101  1.0204  0.0630
  422MOL0     C56893   4.676   9.451  10.574  0.5343 -0.4227  0.2764
  422MOL0     O56894   4.606   9.382  10.477  1.0857 -0.7046  0.0531
  422MOL0     C56895   4.519   9.269  10.517 -0.6619 -0.6742  0.4070
  422MOL0     C56896   4.456   9.226  10.385 -1.2010  0.2465 -0.5958
  422MOL0     C56897   4.375   9.099  10.409  0.6650 -0.0986  0.9800
  422MOL0     C56898   4.238   9.126  10.451  0.8229 -0.7969 -0.4247
  422MOL0     C56899   4.160   9.009  10.452 -0.6520  0.2078  0.5177
  422MOL0     C56900   4.111   8.901  10.443  0.1685 -0.1596  0.3673
  422MOL0     C56901   4.775   9.539  10.532  0.2178  0.0530 -0.1200
  422MOL0     C56902   4.842   9.629  10.620  0.6673 -0.3407 -0.3041
  422MOL0     H56903   4.711   9.974  10.964  0.3614  2.4427 -0.5382
  422MOL0     H56904   4.770  10.157  11.088  1.0910  0.7238 -1.9491
  422MOL0     H56905   5.121  10.241  11.361  1.0720  1.2331 -0.6648
  422MOL0     H56906   5.169  10.161  11.217 -0.8947 -0.6573 -2.5924
  422MOL0     H56907   5.210  10.406  11.231 -0.6085  0.5729 -0.5755
  422MOL0     H56908   5.128  10.357  11.076  1.5571  1.0239  0.3282
  422MOL0     H56909   4.930  10.457  11.146  0.8743  0.3327 -0.3172
  422MOL0     H56910   4.971  10.455  11.317 -2.1464 -0.1675 -1.1865
  422MOL0     H56911   5.136  10.608  11.315 -3.2768 -3.9917  2.2407
  422MOL0     H56912   5.141  10.641  11.141 -0.7918 -1.0236 -2.0854
  422MOL0     H56913   4.875  10.693  11.176  0.6951  0.7989 -0.8824
  422MOL0     H56914   4.909  10.684  11.344 -1.4106 -3.1050 -2.1123
  422MOL0     H56915   5.107  10.872  11.270 -0.2655  2.3973 -2.4451
  422MOL0     H56916   4.985  10.907  11.157 -0.2529 -1.3174 -0.6663
  422MOL0     H56917   4.946  10.884  11.461  1.2578 -1.7603 -0.6484
  422MOL0     H56918   4.960  11.036  11.365 -1.5933  0.2330  0.5633
  422MOL0     H56919   4.730  10.973  11.457 -2.1253 -0.4214  0.0349
  422MOL0     H56920   4.719  10.849  11.337 -1.3987  1.3571 -1.3582
  422MOL0     H56921   4.782  11.246  11.311 -0.6776 -1.0938  1.7502
  422MOL0     H56922   4.733  11.341  10.961  0.3821 -0.5097  0.2470
  422MOL0     H56923   4.578  11.373  11.031  0.2004 -0.8582 -0.1426
  422MOL0     H56924   4.666  11.466  11.241 -0.9442 -1.0344 -0.9808
  422MOL0     H56925   4.689  11.564  11.108 -0.5134 -0.6686 -0.6252
  422MOL0     H56926   4.900  11.544  11.080  0.2024 -0.9885 -1.2996
  422MOL0     H56927   4.926  11.377  11.131 -0.6252  0.3139 -1.7915
  422MOL0     H56928   4.858  11.598  11.316  0.9620  1.6853 -0.6035
  422MOL0     H56929   5.027  11.571  11.282 -1.2194  1.8182  0.3792
  422MOL0     H56930   5.029  11.617  11.534 -2.2840  0.5641  2.4069
  422MOL0     H56931   5.168  11.709  11.692  1.4385  0.1816  0.2173
  422MOL0     H56932   5.112  11.643  11.835 -0.0756  1.7137  0.0402
  422MOL0     H56933   5.285  11.607  11.780  0.4535 -1.9815 -1.1415
  422MOL0     H56934   5.474  11.154  11.899  1.9214  2.7106  0.1717
  422MOL0     H56935   5.624  11.119  12.076  0.4021  2.0502  0.5285
  422MOL0     H56936   5.484  11.219  12.494  1.3108  0.0871  5.3334
  422MOL0     H56937   5.452  11.035  12.503  2.2846 -0.4792  1.9957
  422MOL0     H56938   5.713  11.203  12.544  1.3083 -1.7168 -1.1165
  422MOL0     H56939   5.611  11.144  12.677  1.0501  0.3846 -0.8192
  422MOL0     H56940   5.807  10.998  12.642 -0.8713  0.2509  1.6737
  422MOL0     H56941   5.757  10.963  12.478  0.0692  2.3321 -0.7204
  422MOL0     H56942   5.542  10.881  12.585  0.7033 -0.4801 -1.4044
  422MOL0     H56943   5.681  10.781  12.599  0.3697 -0.3910 -1.3852
  422MOL0     H56944   5.568  10.968  12.821 -0.7999 -1.2693  0.0949
  422MOL0     H56945   5.707  10.845  12.829  0.8078  1.1536 -0.7885
  422MOL0     H56946   5.412  10.766  12.765  1.4194  2.8144 -0.0976
  422MOL0     H56947   5.528  10.649  12.795 -1.0560 -0.9220  0.5177
  422MOL0     H56948   5.405  10.834  12.987 -2.8355 -1.6821 -1.4335
  422MOL0     H56949   5.567  10.749  13.023 -0.8185 -1.3111  1.2501
  422MOL0     H56950   5.430  10.532  12.998  2.8985  0.7286 -1.4566
  422MOL0     H56951   5.285  10.638  12.968 -0.6138 -0.4511  0.4658
  422MOL0     H56952   5.274  11.141  12.357 -2.7879 -2.3942 -1.3268
  422MOL0     H56953   5.137  11.205  12.152 -0.2928 -1.6395 -1.3192
  422MOL0     H56954   5.149  11.159  11.691  3.7462  0.7179 -0.8769
  422MOL0     H56955   5.008  11.187  11.487  0.0036 -0.8588  1.2778
  422MOL0     H56956   5.096   9.944  11.280  0.3563  1.2189  0.0181
  422MOL0     H56957   5.025   9.738  11.160 -2.7920 -0.8721  0.2082
  422MOL0     H56958   4.701   9.503  10.909  0.9443 -3.6948 -1.0642
  422MOL0     H56959   4.567   9.379  10.747  1.1700 -0.9710 -0.6312
  422MOL0     H56960   4.585   9.188  10.549 -0.4809 -1.2920 -1.4091
  422MOL0     H56961   4.436   9.292  10.585  0.6388  0.0475  1.8247
  422MOL0     H56962   4.535   9.219  10.310  0.8820  0.6940  1.4260
  422MOL0     H56963   4.385   9.304  10.355  1.1877  2.8799  0.1808
  422MOL0     H56964   4.409   9.032  10.489  0.0609 -1.6596 -0.0140
  422MOL0     H56965   4.379   9.026  10.328  0.5004 -1.8753  2.4979
  422MOL0     H56966   4.186   9.196  10.384  0.3641  0.4109  1.1358
  422MOL0     H56967   4.226   9.167  10.551  0.8897 -0.8609 -0.3899
  422MOL0     H56968   4.091   8.797  10.429 -1.1057  0.0141  0.7064
  422MOL0     H56969   4.800   9.537  10.426  0.4280  0.1435 -0.0715
  422MOL0     H56970   4.911   9.702  10.579  1.2832  2.0812  4.3656
  423MOL0     O56971   9.226   0.440   2.836  0.1624 -0.1751 -0.7671
  423MOL0     C56972   9.306   0.351   2.841 -0.4269  0.0750  0.6621
  423MOL0     O56973   9.296   0.235   2.911 -0.1459  0.5051  0.2509
  423MOL0     C56974   9.173   0.194   2.968 -0.2170  0.0641 -0.7992
  423MOL0     C56975   9.191   0.102   3.071  1.1760  0.3150  0.2950
  423MOL0     C56976   9.077   0.043   3.136  0.8381  0.3956  0.6318
  423MOL0     C56977   8.944   0.085   3.106  0.3501 -0.7917  0.6086
  423MOL0     O56978   8.842   0.036   3.181  1.0991 -0.2762  0.1537
  423MOL0     C56979   8.711   0.068   3.147  0.4776 -0.4140 -0.3843
  423MOL0     C56980   8.597   0.032   3.255 -0.1440  0.5177  0.3183
  423MOL0     C56981   8.463   0.027   3.182  0.3132 -0.3945 -0.1365
  423MOL0     C56982   8.333   0.035   3.276 -0.0216 -0.6170  0.3290
  423MOL0     C56983   8.205   0.115   3.225 -1.2520 -0.4694  0.2767
  423MOL0     C56984   8.084   0.094   3.304 -0.6049  0.1534 -0.3506
  423MOL0     C56985   7.977   0.196   3.273 -0.0706 -0.8918  0.4918
  423MOL0     C56986   7.844   0.197   3.341 -0.3151  0.7719 -0.3751
  423MOL0     N56987   7.737   0.219   3.244 -0.1947 -0.1784 -0.1153
  423MOL0     C56988   7.644   0.129   3.203  0.1624  0.7789 -0.2375
  423MOL0     C56989   7.556   0.196   3.127 -0.9040 -0.3924 -0.2781
  423MOL0     C56990   7.449   0.147   3.034  0.2666 -0.0110  0.0684
  423MOL0     C56991   7.316   0.117   3.108 -0.6978 -0.6002  1.2024
  423MOL0     C56992   7.216   0.047   3.018 -0.0046  0.7570  0.5531
  423MOL0     C56993   7.107  -0.015   3.096 -0.3028 -0.4786 -0.6322
  423MOL0     O56994   7.026   0.091   3.158  0.0714  0.6422  0.1728
  423MOL0     C56995   6.911   0.043   3.221  0.2417  0.2925  0.7035
  423MOL0     C56996   6.906   0.040   3.368 -0.0819 -0.0889  0.3051
  423MOL0     C56997   6.789   0.016   3.440  0.3351  0.3710  0.9521
  423MOL0     C56998   6.800   0.011   3.585  0.5315 -0.4757 -0.0675
  423MOL0     C56999   6.666  -0.014   3.372 -0.5722 -0.7936 -0.2894
  423MOL0     C57000   6.541  -0.051   3.441 -0.6095 -0.2861  0.2448
  423MOL0     O57001   6.489  -0.180   3.421  0.3948 -0.5184 -1.0467
  423MOL0     C57002   6.362  -0.210   3.476 -1.2178  0.1874  0.3719
  423MOL0     C57003   6.337  -0.228   3.612  0.4952  0.4310  0.4651
  423MOL0     C57004   6.203  -0.247   3.654  0.3806  0.0147 -0.6875
  423MOL0     C57005   6.107  -0.269   3.551 -0.3507 -0.7333 -0.3543
  423MOL0     O57006   5.978  -0.290   3.595 -1.0232  0.7495 -0.1645
  423MOL0     C57007   5.864  -0.304   3.505 -0.2862  0.1054  0.4337
  423MOL0     C57008   5.815  -0.441   3.499  0.4820 -0.0626 -0.3281
  423MOL0     C57009   5.928  -0.535   3.437 -0.4833 -1.2677  0.4497
  423MOL0     C57010   5.864  -0.671   3.418 -0.1130  0.2018  0.4937
  423MOL0     C57011   5.840  -0.765   3.536 -1.1818 -0.3091  0.5111
  423MOL0     C57012   5.794  -0.896   3.481 -0.2108 -0.2996 -0.3685
  423MOL0     C57013   5.763  -1.000   3.591 -0.4143  0.3909  0.1732
  423MOL0     C57014   5.727  -1.131   3.536  0.2968  0.4933 -0.2453
  423MOL0    Cl57015   5.868  -1.207   3.467  0.0373  0.1092 -0.3708
  423MOL0     C57016   6.143  -0.256   3.415  0.5412  0.5009  1.0067
  423MOL0     C57017   6.269  -0.217   3.380 -0.9271 -0.5150  0.2870
  423MOL0     O57018   6.495   0.031   3.513  0.4439  0.4929 -0.4043
  423MOL0     C57019   6.669  -0.004   3.231  0.7713  0.0030 -0.4227
  423MOL0     C57020   6.784   0.020   3.163 -0.3687 -0.0204  0.4817
  423MOL0     N57021   7.592   0.335   3.124 -0.1424  0.6315  0.2390
  423MOL0     N57022   7.695   0.341   3.208  0.7501 -0.0827 -0.1121
  423MOL0     C57023   8.936   0.178   3.000 -0.4139  0.6139  0.3228
  423MOL0     C57024   9.044   0.227   2.926 -0.4886  0.1731 -0.5960
  423MOL0     C57025   9.425   0.370   2.752 -0.8322  0.1584  0.6485
  423MOL0     C57026   9.449   0.478   2.661  0.4583  0.8433 -0.6405
  423MOL0     C57027   9.572   0.497   2.597 -0.5047  0.0578  0.1643
  423MOL0     C57028   9.672   0.404   2.605  0.5270 -0.0701 -0.3419
  423MOL0     O57029   9.796   0.410   2.555 -0.0678  0.4805 -0.5080
  423MOL0     C57030   9.829   0.530   2.476 -0.3109 -0.3961  0.7620
  423MOL0     C57031   9.958   0.535   2.406 -0.2108  0.4192 -0.4291
  423MOL0     C57032  10.078   0.491   2.491 -0.2864 -0.4997 -0.3919
  423MOL0     C57033  10.207   0.501   2.419 -0.7068  0.2047 -0.0038
  423MOL0     C57034  10.316   0.451   2.513  0.5392 -0.1523 -0.2883
  423MOL0     C57035  10.406   0.405   2.580 -0.3671 -0.2879 -0.3143
  423MOL0     C57036   9.650   0.291   2.689  0.1213 -0.0226 -0.5334
  423MOL0     C57037   9.527   0.268   2.766 -0.3402 -0.8123  0.5662
  423MOL0     H57038   9.293   0.088   3.105  0.7654  1.2535  2.0772
  423MOL0     H57039   9.073  -0.032   3.214 -2.4920  1.0044  1.1531
  423MOL0     H57040   8.701   0.177   3.135 -4.4607 -0.3112  1.9627
  423MOL0     H57041   8.692  -0.002   3.066 -0.5731 -0.8169  0.1853
  423MOL0     H57042   8.625  -0.066   3.293 -0.4947 -0.1427 -1.0753
  423MOL0     H57043   8.596   0.101   3.339 -0.1013  0.4095  0.4070
  423MOL0     H57044   8.452   0.104   3.105 -1.3820 -1.2215 -0.7727
  423MOL0     H57045   8.452  -0.067   3.128 -0.3626  0.2077 -1.0919
  423MOL0     H57046   8.318  -0.072   3.289  2.7657 -0.9183  1.8124
  423MOL0     H57047   8.369   0.072   3.372  0.3870 -1.1469  0.3811
  423MOL0     H57048   8.227   0.222   3.219 -0.8989 -0.6184 -1.9709
  423MOL0     H57049   8.175   0.092   3.122 -0.6495 -2.5094  0.5103
  423MOL0     H57050   8.054  -0.010   3.286  0.7839 -0.0414 -1.6640
  423MOL0     H57051   8.121   0.103   3.407  0.9740 -4.1649 -0.3384
  423MOL0     H57052   8.023   0.295   3.285  0.3379 -0.7775 -1.7384
  423MOL0     H57053   7.960   0.194   3.165 -1.3218 -0.8438  0.6693
  423MOL0     H57054   7.847   0.282   3.410  0.8436  1.1085 -0.8123
  423MOL0     H57055   7.832   0.103   3.397 -3.0548  1.7550  0.8474
  423MOL0     H57056   7.650   0.022   3.223  0.4354  0.6236 -1.1357
  423MOL0     H57057   7.426   0.239   2.979  1.5477  0.0699 -0.3821
  423MOL0     H57058   7.493   0.080   2.960  3.6455 -0.3620  2.1543
  423MOL0     H57059   7.275   0.204   3.159 -1.9871 -0.0767 -0.6582
  423MOL0     H57060   7.350   0.052   3.189  3.7359  0.6468  0.6131
  423MOL0     H57061   7.268  -0.025   2.954  3.5370  4.2192 -0.9462
  423MOL0     H57062   7.166   0.124   2.959  1.6738 -0.1854 -2.2970
  423MOL0     H57063   7.147  -0.087   3.168  3.2178 -1.8348 -3.6123
  423MOL0     H57064   7.039  -0.068   3.028 -1.2606  1.2679 -1.0990
  423MOL0     H57065   6.990   0.080   3.424 -0.2044 -0.0426  0.4611
  423MOL0     H57066   6.741  -0.073   3.624 -0.9120  1.4742  2.1749
  423MOL0     H57067   6.903  -0.008   3.616 -0.4525 -1.4038  3.0179
  423MOL0     H57068   6.770   0.104   3.634  3.1078 -0.7517  2.2970
  423MOL0     H57069   6.423  -0.231   3.678  0.2282 -1.4551  0.7671
  423MOL0     H57070   6.177  -0.264   3.757 -1.0929  0.8943 -0.8872
  423MOL0     H57071   5.786  -0.229   3.522 -2.4489 -2.6972  4.4301
  423MOL0     H57072   5.882  -0.281   3.400  0.2508  0.6597  0.6401
  423MOL0     H57073   5.790  -0.463   3.603  0.5587  0.8251 -0.1162
  423MOL0     H57074   5.722  -0.451   3.443  0.9273 -0.8819 -0.9372
  423MOL0     H57075   6.023  -0.541   3.491 -0.6121 -0.3188  0.8046
  423MOL0     H57076   5.948  -0.485   3.342 -0.1072  2.2053  2.2013
  423MOL0     H57077   5.773  -0.656   3.358 -0.1316 -0.1082  0.4428
  423MOL0     H57078   5.928  -0.733   3.354 -1.1703 -1.2199  0.7488
  423MOL0     H57079   5.762  -0.729   3.604  1.2756  1.3296  2.6564
  423MOL0     H57080   5.931  -0.774   3.595  1.2937  0.4964 -2.8576
  423MOL0     H57081   5.703  -0.872   3.426  1.0904  1.8142 -1.7156
  423MOL0     H57082   5.865  -0.943   3.413 -0.4923 -0.5667 -0.4829
  423MOL0     H57083   5.680  -0.978   3.659 -0.7828 -5.9486  2.4930
  423MOL0     H57084   5.851  -1.011   3.656  1.2971 -2.4432 -2.3418
  423MOL0     H57085   5.643  -1.123   3.466 -0.5020 -0.4684  0.5631
  423MOL0     H57086   5.691  -1.204   3.609 -0.7492 -1.8275 -2.8905
  423MOL0     H57087   6.069  -0.285   3.341  0.1706  0.9291  1.2048
  423MOL0     H57088   6.299  -0.199   3.278  1.4253  1.4705  1.2380
  423MOL0     H57089   6.584  -0.034   3.172  2.5265 -3.5887 -1.4393
  423MOL0     H57090   6.793   0.028   3.055  1.2924 -1.4590  0.4667
  423MOL0     H57091   8.843   0.192   2.944 -0.0785  0.3459 -0.3081
  423MOL0     H57092   9.029   0.279   2.832 -0.2631  0.0265 -0.7148
  423MOL0     H57093   9.372   0.553   2.647 -2.0044 -1.5342 -0.6234
  423MOL0     H57094   9.584   0.578   2.526  0.6337 -0.3160 -0.0923
  423MOL0     H57095   9.750   0.564   2.408 -0.3508 -0.4860  0.7645
  423MOL0     H57096   9.835   0.614   2.547 -0.2616  1.6575 -1.5288
  423MOL0     H57097   9.962   0.636   2.365 -0.6163  0.1018 -1.2590
  423MOL0     H57098   9.954   0.457   2.330  0.8876 -3.0497  2.7882
  423MOL0     H57099  10.072   0.384   2.514 -2.0296  0.0141  1.8775
  423MOL0     H57100  10.087   0.547   2.584  1.8132 -1.4278  0.0315
  423MOL0     H57101  10.230   0.606   2.399  2.4604  0.0208  2.0900
  423MOL0     H57102  10.203   0.454   2.320 -0.6440 -2.2430  1.1069
  423MOL0     H57103  10.490   0.375   2.639 -0.7572  0.1084  0.4537
  423MOL0     H57104   9.736   0.225   2.694  1.3892  1.5729 -0.5190
  423MOL0     H57105   9.517   0.189   2.839 -2.5110 -1.1304 -0.0004
  424MOL0     O57106  10.751  10.309   5.850 -0.0018 -0.3057 -0.8760
  424MOL0     C57107  10.774  10.402   5.928 -0.2044 -0.6662  0.4940
  424MOL0     O57108  10.679  10.480   5.984  0.2918  0.0040  0.0297
  424MOL0     C57109  10.543  10.447   5.971 -0.7292  0.0274 -0.5517
  424MOL0     C57110  10.464  10.465   5.853 -0.7615  0.0058  0.2309
  424MOL0     C57111  10.322  10.444   5.864 -0.6466 -0.3626  0.7461
  424MOL0     C57112  10.261  10.389   5.979  0.9057 -0.2527  0.6809
  424MOL0     O57113  10.123  10.365   5.982 -0.5876 -0.4391  0.0356
  424MOL0     C57114  10.052  10.468   5.904 -0.4879  0.6849 -0.1240
  424MOL0     C57115   9.902  10.458   5.939  0.0584  0.8512  0.1225
  424MOL0     C57116   9.851  10.324   5.887 -0.2879 -0.1769  0.9168
  424MOL0     C57117   9.695  10.314   5.891 -0.2895 -0.9419  0.7177
  424MOL0     C57118   9.645  10.172   5.838  0.9013 -0.7425 -0.8039
  424MOL0     C57119   9.489  10.169   5.850 -0.2982  0.5757  0.2018
  424MOL0     C57120   9.422  10.027   5.836  0.0795 -0.0449 -0.0422
  424MOL0     C57121   9.271  10.038   5.868  0.4064 -0.0570  0.0381
  424MOL0     N57122   9.211   9.919   5.926  0.3302 -0.4566  0.0360
  424MOL0     C57123   9.170   9.804   5.859 -0.6643  0.3134  0.8903
  424MOL0     C57124   9.123   9.728   5.956 -0.6702  0.5458 -0.1634
  424MOL0     C57125   9.039   9.609   5.930  0.0323  0.2107  0.0579
  424MOL0     C57126   8.906   9.648   5.856 -1.2668  0.0585 -0.4670
  424MOL0     C57127   8.783   9.553   5.869 -0.5479 -0.2787 -0.0988
  424MOL0     C57128   8.814   9.406   5.902 -0.0456  0.2223  0.3714
  424MOL0     O57129   8.693   9.341   5.917 -0.2222  0.1360  0.1033
  424MOL0     C57130   8.635   9.299   5.795  0.7454 -0.2613 -0.0808
  424MOL0     C57131   8.683   9.313   5.660 -0.1768  0.0739  1.1612
  424MOL0     C57132   8.612   9.267   5.548  0.4235  0.2066 -0.0844
  424MOL0     C57133   8.668   9.308   5.411 -0.6831  0.2895 -0.1594
  424MOL0     C57134   8.497   9.184   5.563  0.4644  0.0577  0.2151
  424MOL0     C57135   8.427   9.128   5.447  0.1798  0.1938 -0.2893
  424MOL0     O57136   8.342   9.036   5.488  0.0539 -0.3190  0.1110
  424MOL0     C57137   8.255   8.980   5.395  1.0616  0.2767 -1.3436
  424MOL0     C57138   8.145   9.054   5.366  0.5453 -0.8748  0.6514
  424MOL0     C57139   8.065   9.013   5.264  0.3154  0.4495 -0.4786
  424MOL0     C57140   8.103   8.902   5.180  0.1189 -0.5259  0.2113
  424MOL0     O57141   8.012   8.854   5.080 -0.1173  0.0389  0.3449
  424MOL0     C57142   7.885   8.807   5.130 -0.8387 -0.2367  0.3677
  424MOL0     C57143   7.791   8.717   5.038 -0.2810  0.7582 -0.5428
  424MOL0     C57144   7.851   8.588   4.975  0.2831 -0.2999 -0.4799
  424MOL0     C57145   7.751   8.501   4.897  0.3596  0.3888 -0.2093
  424MOL0     C57146   7.821   8.369   4.855  0.3875  0.5693 -0.3318
  424MOL0     C57147   7.725   8.275   4.775  0.1121  0.4044  0.8358
  424MOL0     C57148   7.675   8.321   4.632  0.1860  0.2357  0.3776
  424MOL0     C57149   7.594   8.210   4.561 -0.0027 -0.5322  0.7266
  424MOL0    Cl57150   7.501   8.289   4.424 -0.2866  0.1012 -0.5198
  424MOL0     C57151   8.203   8.822   5.215 -0.5289  0.6450  0.0131
  424MOL0     C57152   8.283   8.860   5.322  0.0733  0.0713 -0.1714
  424MOL0     O57153   8.428   9.173   5.332 -0.2912  0.0542 -0.8457
  424MOL0     C57154   8.455   9.157   5.695 -0.0553 -0.0214  0.5725
  424MOL0     C57155   8.512   9.219   5.806 -0.5663  0.0676  0.4434
  424MOL0     N57156   9.127   9.792   6.078  0.2460  0.6945  1.2369
  424MOL0     N57157   9.182   9.912   6.053  0.3524 -0.4405 -0.3009
  424MOL0     C57158  10.336  10.364   6.090 -0.4182 -0.3470 -1.2094
  424MOL0     C57159  10.481  10.392   6.082 -0.5144  0.0149  0.4518
  424MOL0     C57160  10.911  10.437   5.964  0.4631  0.5715 -0.1582
  424MOL0     C57161  11.011  10.337   5.959 -0.6505  0.6401 -1.3697
  424MOL0     C57162  11.144  10.367   6.000  0.3084  0.5863 -0.2713
  424MOL0     C57163  11.186  10.490   6.036 -0.2790  0.0091 -0.4374
  424MOL0     O57164  11.320  10.506   6.081 -0.7458  0.4215  0.0915
  424MOL0     C57165  11.368  10.631   6.127 -0.0428 -0.1772 -0.2280
  424MOL0     C57166  11.467  10.588   6.233  0.0571  1.2856  0.9860
  424MOL0     C57167  11.587  10.523   6.172 -0.1174  0.6024  0.0915
  424MOL0     C57168  11.652  10.418   6.262  0.1977 -0.0194 -1.4208
  424MOL0     C57169  11.773  10.379   6.194  0.1228 -0.0408 -0.3608
  424MOL0     C57170  11.873  10.367   6.133  0.8982  0.0201  0.4852
  424MOL0     C57171  11.085  10.586   6.037  0.3227  0.1052  0.1461
  424MOL0     C57172  10.952  10.559   6.012  0.4984 -0.4200 -0.4056
  424MOL0     H57173  10.506  10.511   5.765 -0.6351  1.5971  1.0947
  424MOL0     H57174  10.267  10.465   5.773  0.6444 -1.2898 -0.2859
  424MOL0     H57175  10.083  10.573   5.914 -3.2647  1.5970 -0.1507
  424MOL0     H57176  10.055  10.442   5.797  2.1914 -0.6234  0.1716
  424MOL0     H57177   9.886  10.460   6.047 -0.8569  0.1173  0.0159
  424MOL0     H57178   9.840  10.537   5.896  0.0639 -0.3592 -2.2995
  424MOL0     H57179   9.873  10.309   5.781 -1.4095 -0.1057  0.6516
  424MOL0     H57180   9.894  10.249   5.953  0.2251 -1.2207 -0.5483
  424MOL0     H57181   9.655  10.329   5.992 -0.9139 -1.7786  0.6135
  424MOL0     H57182   9.661  10.398   5.830  1.5778 -0.2971  0.4987
  424MOL0     H57183   9.674  10.168   5.733 -0.1681  0.1307 -1.1474
  424MOL0     H57184   9.686  10.092   5.901 -2.7469  0.5221  3.7882
  424MOL0     H57185   9.458  10.210   5.946  0.5930  1.1086  0.2775
  424MOL0     H57186   9.453  10.233   5.770  0.3109 -0.3558 -0.8529
  424MOL0     H57187   9.437   9.981   5.738  0.7465  0.2426 -0.0828
  424MOL0     H57188   9.460   9.963   5.916 -2.3412 -0.5241  0.8055
  424MOL0     H57189   9.223  10.053   5.770 -0.3604 -1.5228  0.1694
  424MOL0     H57190   9.249  10.121   5.936  1.2504  0.1697  0.0439
  424MOL0     H57191   9.170   9.784   5.752 -1.6585  3.5749  0.1805
  424MOL0     H57192   9.099   9.536   5.874 -0.8291 -0.1334 -0.4398
  424MOL0     H57193   9.011   9.570   6.028 -3.2300  0.5165 -0.6509
  424MOL0     H57194   8.929   9.677   5.753 -1.3695 -0.1361 -0.5469
  424MOL0     H57195   8.879   9.743   5.903  1.9963  2.5035 -3.0592
  424MOL0     H57196   8.721   9.551   5.779  3.5615 -1.7492 -3.2096
  424MOL0     H57197   8.726   9.600   5.950  1.6419  1.1860  0.6852
  424MOL0     H57198   8.868   9.396   5.996 -0.8188  1.4501  0.9776
  424MOL0     H57199   8.885   9.360   5.833  3.1379  1.7289  2.4539
  424MOL0     H57200   8.775   9.366   5.637 -0.0670  0.2208  1.9315
  424MOL0     H57201   8.757   9.371   5.421 -0.2944 -0.2224 -0.3529
  424MOL0     H57202   8.699   9.219   5.354  1.1283  1.5740 -1.3035
  424MOL0     H57203   8.594   9.369   5.359 -1.4982  0.8919  1.6279
  424MOL0     H57204   8.114   9.139   5.425 -1.1793 -1.7015  1.0233
  424MOL0     H57205   7.972   9.062   5.237 -1.2700 -2.2799 -0.3113
  424MOL0     H57206   7.912   8.752   5.221 -2.6546  0.6333  1.5040
  424MOL0     H57207   7.835   8.899   5.160  1.6549  0.8702  1.4630
  424MOL0     H57208   7.701   8.694   5.096 -0.7311  2.9539 -0.2946
  424MOL0     H57209   7.759   8.780   4.955  0.0365  1.8099  0.1192
  424MOL0     H57210   7.889   8.526   5.056  0.0673 -1.1079 -0.9824
  424MOL0     H57211   7.938   8.625   4.919 -1.6195  2.1995 -1.9787
  424MOL0     H57212   7.667   8.465   4.957  0.4149  1.3393  0.4751
  424MOL0     H57213   7.714   8.561   4.813 -1.3664  3.0125  2.2078
  424MOL0     H57214   7.845   8.305   4.941 -0.1799 -3.7549 -3.0877
  424MOL0     H57215   7.913   8.388   4.799  1.0140  1.7231  1.0217
  424MOL0     H57216   7.777   8.180   4.763 -1.8801 -0.4634 -2.0209
  424MOL0     H57217   7.634   8.258   4.834 -0.2754  1.6497  0.6243
  424MOL0     H57218   7.761   8.354   4.573 -0.1135 -0.5787 -0.5458
  424MOL0     H57219   7.615   8.410   4.652  1.5879  0.8659  2.0026
  424MOL0     H57220   7.518   8.167   4.627 -4.2400  2.1419 -1.9785
  424MOL0     H57221   7.656   8.135   4.511  1.8825  2.6764 -2.1756
  424MOL0     H57222   8.244   8.737   5.160 -0.6127  0.8524 -0.3690
  424MOL0     H57223   8.370   8.801   5.347 -0.3717  0.3813  2.4801
  424MOL0     H57224   8.356   9.112   5.702  0.2439 -0.8519 -0.3219
  424MOL0     H57225   8.471   9.203   5.905 -0.1900  0.2536  0.6298
  424MOL0     H57226  10.301  10.327   6.186  1.5208 -0.1073 -0.3654
  424MOL0     H57227  10.550  10.386   6.165  0.0061 -1.3358 -0.0410
  424MOL0     H57228  10.979  10.236   5.937 -1.5308  0.6904 -0.3889
  424MOL0     H57229  11.219  10.289   5.995  1.0836  1.3649 -1.3819
  424MOL0     H57230  11.422  10.686   6.049  1.6762 -3.4099 -1.4896
  424MOL0     H57231  11.286  10.689   6.170  1.4876  0.8829  1.4132
  424MOL0     H57232  11.416  10.526   6.306 -2.9629  2.5613  0.1033
  424MOL0     H57233  11.492  10.687   6.275  1.1122  1.4848 -0.0609
  424MOL0     H57234  11.658  10.603   6.149 -1.2313  1.7357  0.5048
  424MOL0     H57235  11.557  10.471   6.081  1.6137  0.4105 -0.4042
  424MOL0     H57236  11.584  10.336   6.285 -0.1310  0.6084 -0.0640
  424MOL0     H57237  11.678  10.465   6.357 -1.9674 -1.4977  0.0089
  424MOL0     H57238  11.957  10.367   6.066 -1.3627 -0.7645 -2.5425
  424MOL0     H57239  11.101  10.687   6.074 -1.7231  0.0867  1.1780
  424MOL0     H57240  10.879  10.638   6.025 -0.1249 -1.1668  0.8295
  425MOL0     O57241   0.057  10.568   5.383  0.3156  0.5104 -0.1988
  425MOL0     C57242   0.155  10.635   5.373 -0.4515  0.2036  0.6164
  425MOL0     O57243   0.159  10.768   5.348  0.8361 -0.0463 -0.1095
  425MOL0     C57244   0.033  10.829   5.350  0.4442  0.3981 -0.3031
  425MOL0     C57245  -0.064  10.816   5.449  1.0774 -0.3151 -0.4099
  425MOL0     C57246  -0.186  10.883   5.429 -0.4526 -0.2065 -0.0259
  425MOL0     C57247  -0.201  10.964   5.317 -0.3617  0.1253  0.4567
  425MOL0     O57248  -0.309  11.049   5.292 -0.3005  0.0487 -0.7220
  425MOL0     C57249  -0.382  11.103   5.403  0.4710 -0.4491  0.5488
  425MOL0     C57250  -0.495  11.010   5.458  0.7183  0.7773  0.2952
  425MOL0     C57251  -0.631  11.063   5.425 -0.4725  0.1174  0.2054
  425MOL0     C57252  -0.732  10.944   5.426 -0.8518 -0.3893  0.2983
  425MOL0     C57253  -0.866  11.003   5.369 -0.2647  0.0511 -0.0027
  425MOL0     C57254  -0.965  10.879   5.369 -0.0637 -0.1254 -0.1619
  425MOL0     C57255  -1.092  10.916   5.312  0.1712 -0.3797 -1.0038
  425MOL0     C57256  -1.208  10.825   5.334 -0.7189 -0.5709  0.2808
  425MOL0     N57257  -1.328  10.888   5.294 -0.3043 -0.2547  0.6517
  425MOL0     C57258  -1.414  10.937   5.383  0.1576  0.9065 -0.9379
  425MOL0     C57259  -1.537  10.960   5.324 -0.5658 -0.5897  0.6223
  425MOL0     C57260  -1.649  11.025   5.389  0.0827  0.8523 -0.4306
  425MOL0     C57261  -1.766  10.929   5.416  0.9923 -0.4196 -0.1230
  425MOL0     C57262  -1.849  10.893   5.292 -0.7454  0.2801  0.7099
  425MOL0     C57263  -1.964  10.803   5.330 -0.2297 -0.2276 -0.1519
  425MOL0     O57264  -2.068  10.779   5.230  0.3047 -0.2869 -0.6084
  425MOL0     C57265  -2.120  10.897   5.181 -0.4079  0.0400 -0.7946
  425MOL0     C57266  -2.151  10.909   5.051  0.3556 -0.8610 -0.4637
  425MOL0     C57267  -2.233  11.003   4.991  0.2334  0.5639  0.0355
  425MOL0     C57268  -2.260  10.993   4.839 -0.0990 -0.2123 -0.9530
  425MOL0     C57269  -2.291  11.103   5.075  0.2618 -1.4517 -0.2280
  425MOL0     C57270  -2.396  11.204   5.033  0.2022 -0.0670 -0.7387
  425MOL0     O57271  -2.412  11.310   5.116 -0.5951 -0.1535 -0.6337
  425MOL0     C57272  -2.529  11.386   5.121  0.0256 -0.5177 -1.1988
  425MOL0     C57273  -2.661  11.371   5.063  0.4727  0.2132 -0.1796
  425MOL0     C57274  -2.766  11.455   5.099 -0.6072 -0.1022  0.7760
  425MOL0     C57275  -2.743  11.566   5.193  0.0451 -0.2008  0.2956
  425MOL0     O57276  -2.850  11.640   5.215  0.5039  0.2948  0.5015
  425MOL0     C57277  -2.847  11.752   5.308 -0.4418  0.6089 -0.1537
  425MOL0     C57278  -2.994  11.769   5.362 -0.4863  1.0004  0.4691
  425MOL0     C57279  -2.995  11.803   5.509 -0.2760  0.3204  0.7295
  425MOL0     C57280  -3.132  11.832   5.579 -0.9425  0.8478  0.8527
  425MOL0     C57281  -3.229  11.713   5.579 -0.0971 -0.8638 -0.1546
  425MOL0     C57282  -3.347  11.735   5.680 -0.3265  0.6758 -0.2667
  425MOL0     C57283  -3.437  11.616   5.686  0.8851 -0.4812  0.0550
  425MOL0     C57284  -3.575  11.635   5.740  0.1763 -1.4708 -0.0876
  425MOL0    Cl57285  -3.547  11.659   5.915  0.5679 -0.1903  0.5071
  425MOL0     C57286  -2.616  11.579   5.245 -0.4035 -0.6678 -0.7476
  425MOL0     C57287  -2.514  11.493   5.220 -0.8511  0.2546 -0.4248
  425MOL0     O57288  -2.456  11.188   4.932  0.9152  0.2986 -0.4736
  425MOL0     C57289  -2.241  11.113   5.206 -0.0827 -0.4657 -0.1546
  425MOL0     C57290  -2.156  11.013   5.257 -0.0826 -0.6138 -0.4102
  425MOL0     N57291  -1.523  10.913   5.189 -0.0561 -0.8485 -0.4939
  425MOL0     N57292  -1.398  10.883   5.174 -0.1474 -0.4670  0.3642
  425MOL0     C57293  -0.100  10.984   5.220  0.4978 -0.2318  0.1965
  425MOL0     C57294   0.014  10.912   5.239 -0.2187  0.5283  0.6975
  425MOL0     C57295   0.290  10.573   5.396 -0.3063  0.5710 -0.3656
  425MOL0     C57296   0.312  10.436   5.393  0.1326  0.3246 -0.5095
  425MOL0     C57297   0.433  10.374   5.427  0.5611  0.2400 -0.1814
  425MOL0     C57298   0.534  10.460   5.467  0.2179  0.8047 -1.2835
  425MOL0     O57299   0.655  10.411   5.508  0.2475  0.2253  0.7108
  425MOL0     C57300   0.770  10.447   5.427 -0.3025  0.1267  0.9407
  425MOL0     C57301   0.820  10.316   5.343  0.2822  0.5441 -0.4020
  425MOL0     C57302   0.936  10.340   5.244  0.1313 -0.8774  0.7960
  425MOL0     C57303   0.981  10.194   5.198  0.0186  0.3584 -0.1281
  425MOL0     C57304   0.912  10.145   5.074  0.7983 -0.4727  0.2072
  425MOL0     C57305   0.840  10.106   4.981 -0.1552 -0.4453 -0.2596
  425MOL0     C57306   0.517  10.600   5.478 -0.1574 -0.0556  0.7375
  425MOL0     C57307   0.392  10.652   5.451  0.8871 -0.7140  0.4868
  425MOL0     H57308  -0.046  10.753   5.535  1.7033  2.9603  2.0374
  425MOL0     H57309  -0.259  10.878   5.509 -1.6825  1.6834 -0.9550
  425MOL0     H57310  -0.308  11.126   5.481 -0.4538 -0.6596  1.5127
  425MOL0     H57311  -0.426  11.199   5.375  0.6583 -0.8350 -1.1575
  425MOL0     H57312  -0.474  10.917   5.404 -3.1660 -0.0562 -0.0342
  425MOL0     H57313  -0.492  10.991   5.566 -0.1456 -0.3643  0.1329
  425MOL0     H57314  -0.662  11.144   5.491  0.7874  0.4621  0.4015
  425MOL0     H57315  -0.636  11.102   5.323 -0.2485  2.5527  1.0716
  425MOL0     H57316  -0.701  10.854   5.372  1.3477 -0.4033  1.4725
  425MOL0     H57317  -0.752  10.903   5.525  2.0830 -2.2136  0.2538
  425MOL0     H57318  -0.908  11.092   5.416  0.9974  1.0281 -0.6622
  425MOL0     H57319  -0.845  11.037   5.267  0.5722 -1.7938 -0.4951
  425MOL0     H57320  -0.919  10.798   5.313  1.1922  0.5429 -0.1444
  425MOL0     H57321  -0.995  10.845   5.468 -0.0017  2.8899  1.0131
  425MOL0     H57322  -1.126  11.018   5.334 -1.4761 -1.1472  0.1992
  425MOL0     H57323  -1.068  10.911   5.205  1.6948 -0.9016 -0.6612
  425MOL0     H57324  -1.208  10.797   5.440  0.7516 -2.7348 -0.2333
  425MOL0     H57325  -1.207  10.738   5.268  0.4491 -1.3584  1.2936
  425MOL0     H57326  -1.385  10.967   5.483 -0.4650  2.2569 -1.1424
  425MOL0     H57327  -1.606  11.067   5.481  0.3720  0.0528 -0.1985
  425MOL0     H57328  -1.668  11.111   5.323  1.2132 -0.7706 -3.0336
  425MOL0     H57329  -1.819  10.976   5.499  1.0293 -2.1858  0.9677
  425MOL0     H57330  -1.732  10.834   5.459 -2.0619 -1.2642  0.6580
  425MOL0     H57331  -1.786  10.826   5.234  0.0503 -0.7966  2.6966
  425MOL0     H57332  -1.885  10.983   5.241 -4.1093 -2.3739 -2.0693
  425MOL0     H57333  -2.012  10.855   5.413 -3.3989 -0.6041 -1.6057
  425MOL0     H57334  -1.932  10.707   5.370 -2.4589  0.2891  3.2728
  425MOL0     H57335  -2.113  10.826   4.991  0.7235 -1.1456  0.1551
  425MOL0     H57336  -2.215  10.906   4.791  1.7648  0.1913 -0.0449
  425MOL0     H57337  -2.368  10.979   4.828 -0.5359 -0.1016  2.2610
  425MOL0     H57338  -2.218  11.075   4.780  0.7094  0.2694  0.2458
  425MOL0     H57339  -2.681  11.286   4.998 -1.6459 -0.0572  0.7369
  425MOL0     H57340  -2.864  11.436   5.056 -0.5677  2.0445 -0.4091
  425MOL0     H57341  -2.772  11.735   5.385 -0.9797 -2.4095 -0.1845
  425MOL0     H57342  -2.814  11.848   5.266  2.3935  0.9353  2.4788
  425MOL0     H57343  -3.048  11.845   5.306 -2.3112 -2.3286 -2.7363
  425MOL0     H57344  -3.039  11.670   5.351 -2.1022  1.2041  3.7842
  425MOL0     H57345  -2.931  11.892   5.512 -0.1530  0.2534  0.1627
  425MOL0     H57346  -2.947  11.721   5.563 -1.0538 -0.0074  0.9439
  425MOL0     H57347  -3.115  11.871   5.679 -3.3026 -0.2055  1.7350
  425MOL0     H57348  -3.178  11.912   5.520  0.9278 -0.3132 -2.4890
  425MOL0     H57349  -3.173  11.620   5.594  1.8666  0.3371  0.3037
  425MOL0     H57350  -3.275  11.695   5.481 -0.4188 -1.4980  0.1046
  425MOL0     H57351  -3.317  11.756   5.782  1.7343  0.3985 -0.7813
  425MOL0     H57352  -3.395  11.830   5.655 -3.0537  0.2472  2.6549
  425MOL0     H57353  -3.389  11.542   5.751 -0.2002  0.4285  1.9657
  425MOL0     H57354  -3.453  11.588   5.582  1.6443 -3.4926  0.6535
  425MOL0     H57355  -3.642  11.553   5.710 -0.8047 -0.7447  0.0725
  425MOL0     H57356  -3.613  11.729   5.699  2.7470  1.0500  2.8451
  425MOL0     H57357  -2.574  11.649   5.317 -0.9996 -1.1961  0.1345
  425MOL0     H57358  -2.413  11.508   5.259 -0.3867  1.5318 -2.0089
  425MOL0     H57359  -2.266  11.191   5.277  2.3824 -1.5926  2.0961
  425MOL0     H57360  -2.131  11.006   5.363 -0.8054  0.1992 -0.1797
  425MOL0     H57361  -0.095  11.057   5.140  2.0311  1.4683  1.7593
  425MOL0     H57362   0.102  10.919   5.176  0.6032  0.1552  1.7740
  425MOL0     H57363   0.233  10.368   5.364 -2.0828  3.1020 -1.4682
  425MOL0     H57364   0.439  10.266   5.420 -1.2601 -0.1048  2.2992
  425MOL0     H57365   0.735  10.523   5.356 -1.7357 -3.0925 -2.1163
  425MOL0     H57366   0.848  10.492   5.489  0.2712 -2.0996  1.8957
  425MOL0     H57367   0.743  10.272   5.278  1.6223  0.9199 -2.3501
  425MOL0     H57368   0.849  10.245   5.420 -1.1179  1.5164  1.0945
  425MOL0     H57369   1.018  10.382   5.302  0.4510 -2.8080  1.8446
  425MOL0     H57370   0.913  10.418   5.172  0.4480  2.4880  4.0445
  425MOL0     H57371   0.949  10.126   5.277 -1.6526  0.5681 -0.5890
  425MOL0     H57372   1.087  10.170   5.184 -0.7370 -2.5792 -1.5847
  425MOL0     H57373   0.777  10.064   4.905  1.5429 -0.7042 -1.5850
  425MOL0     H57374   0.607  10.658   5.493  1.3428 -2.3409  1.1503
  425MOL0     H57375   0.369  10.758   5.464  1.3399 -0.7086  1.3363
  426MOL0     O57376   0.541   3.626   2.427  0.2354  0.0256 -1.0902
  426MOL0     C57377   0.656   3.581   2.448 -0.2915 -0.2857 -0.6311
  426MOL0     O57378   0.689   3.452   2.442 -0.3712  0.0206  0.2022
  426MOL0     C57379   0.600   3.357   2.407  0.2810 -0.1346  0.8506
  426MOL0     C57380   0.636   3.269   2.302  0.0315  0.5875 -0.2586
  426MOL0     C57381   0.545   3.169   2.258  0.4812 -0.1709 -0.4411
  426MOL0     C57382   0.425   3.147   2.334  0.5109  0.0718  0.2247
  426MOL0     O57383   0.331   3.046   2.300 -0.1220 -0.6098  0.4105
  426MOL0     C57384   0.382   2.928   2.238 -0.5852  0.7302 -0.7702
  426MOL0     C57385   0.268   2.832   2.247 -0.1245 -0.1542  1.5299
  426MOL0     C57386   0.306   2.694   2.189 -0.5982 -0.1983 -0.1310
  426MOL0     C57387   0.307   2.677   2.039  0.0113  0.0775  0.3247
  426MOL0     C57388   0.382   2.554   1.985 -1.2119 -0.2426  0.1422
  426MOL0     C57389   0.328   2.426   2.054  0.7758 -0.0558 -0.3790
  426MOL0     C57390   0.194   2.381   1.988  1.0070  0.6959 -0.3472
  426MOL0     C57391   0.140   2.261   2.077 -0.6549 -0.1936  0.6491
  426MOL0     N57392   0.083   2.317   2.195  0.3291  0.0356 -0.2555
  426MOL0     C57393  -0.038   2.395   2.194  0.2858  0.0540 -0.2154
  426MOL0     C57394  -0.037   2.455   2.316  0.6992 -0.4637 -0.1599
  426MOL0     C57395  -0.138   2.552   2.354 -0.1778 -0.5368  0.0723
  426MOL0     C57396  -0.243   2.493   2.437 -0.4525 -0.0793  0.2735
  426MOL0     C57397  -0.361   2.588   2.447  0.4856  1.3740 -0.3111
  426MOL0     C57398  -0.492   2.512   2.478  0.4967  0.3658  0.4722
  426MOL0     O57399  -0.606   2.611   2.483 -1.0385 -0.3938  0.2457
  426MOL0     C57400  -0.729   2.559   2.501  1.3987 -0.4675  0.2483
  426MOL0     C57401  -0.763   2.429   2.506  0.1824  1.3067  0.3852
  426MOL0     C57402  -0.876   2.378   2.568  0.9145  0.1976  0.0855
  426MOL0     C57403  -0.886   2.227   2.580 -0.5008  0.4401 -0.2966
  426MOL0     C57404  -0.977   2.465   2.604 -0.5381 -0.4031  0.1246
  426MOL0     C57405  -1.108   2.413   2.659 -0.0612 -0.3758  0.1546
  426MOL0     O57406  -1.164   2.301   2.598 -0.0661  0.1743 -0.7025
  426MOL0     C57407  -1.297   2.272   2.641 -0.3237  0.5447  0.0675
  426MOL0     C57408  -1.329   2.153   2.718 -0.6907  0.5616 -0.5860
  426MOL0     C57409  -1.453   2.121   2.752  0.3019  0.1422  0.6262
  426MOL0     C57410  -1.563   2.192   2.699 -0.1735  0.3124 -0.3767
  426MOL0     O57411  -1.699   2.160   2.714  0.5899 -0.2917 -0.1119
  426MOL0     C57412  -1.743   2.033   2.768 -0.8391 -0.2133  0.0001
  426MOL0     C57413  -1.794   1.936   2.655 -0.6535  0.7834  0.8255
  426MOL0     C57414  -1.842   1.799   2.703 -1.1279 -0.8780 -0.1299
  426MOL0     C57415  -1.979   1.792   2.748 -0.3034 -0.4533  0.7757
  426MOL0     C57416  -2.012   1.654   2.817  0.5426 -0.1254 -0.2003
  426MOL0     C57417  -2.154   1.677   2.875  0.2416  0.4358  0.3553
  426MOL0     C57418  -2.205   1.543   2.938  0.0182 -0.3267  0.5715
  426MOL0     C57419  -2.341   1.569   3.000 -0.1462 -0.0330  0.6431
  426MOL0    Cl57420  -2.353   1.714   3.106 -0.4934 -0.2967  0.1091
  426MOL0     C57421  -1.542   2.302   2.621 -0.6029  0.0615  0.4367
  426MOL0     C57422  -1.406   2.340   2.583 -0.1775  0.2062 -0.1108
  426MOL0     O57423  -1.155   2.466   2.758 -0.2071 -0.0095 -0.2813
  426MOL0     C57424  -0.960   2.604   2.577 -0.3810  0.1637 -0.1576
  426MOL0     C57425  -0.837   2.648   2.528  0.4253 -0.6970  0.3052
  426MOL0     N57426   0.073   2.407   2.391  0.0578 -1.2498  0.2241
  426MOL0     N57427   0.147   2.329   2.314  0.3061 -0.3625 -0.5636
  426MOL0     C57428   0.395   3.230   2.442  0.0657  0.6520  1.2267
  426MOL0     C57429   0.476   3.332   2.475 -0.1573 -0.8259 -0.1463
  426MOL0     C57430   0.765   3.677   2.482 -0.4065  0.7092  0.6248
  426MOL0     C57431   0.888   3.651   2.421 -0.3782 -1.0349 -1.2291
  426MOL0     C57432   0.991   3.753   2.440  0.3661  0.2730  0.4620
  426MOL0     C57433   0.979   3.861   2.526  0.3669  0.1498  0.7152
  426MOL0     O57434   1.080   3.953   2.536  0.5868 -0.0676 -0.1683
  426MOL0     C57435   1.115   4.018   2.655  0.0924  0.6378 -0.1751
  426MOL0     C57436   1.250   3.966   2.714 -0.5771  0.0824 -0.3532
  426MOL0     C57437   1.371   4.004   2.639  0.6523  0.0063  0.2978
  426MOL0     C57438   1.397   4.148   2.635  0.1371  0.2404  0.0415
  426MOL0     C57439   1.533   4.174   2.589 -1.2717 -0.0622 -0.1053
  426MOL0     C57440   1.643   4.206   2.558  0.1759 -0.0083  0.4442
  426MOL0     C57441   0.856   3.876   2.594  0.1676  0.5141 -0.7881
  426MOL0     C57442   0.748   3.787   2.572  0.2502  0.0199 -0.7077
  426MOL0     H57443   0.725   3.295   2.246  1.6274 -0.4894  1.6426
  426MOL0     H57444   0.565   3.105   2.173  0.8428  1.1629 -1.3857
  426MOL0     H57445   0.405   2.947   2.133 -1.2433  1.6797 -0.7579
  426MOL0     H57446   0.469   2.892   2.294 -0.1060  1.9735 -0.6916
  426MOL0     H57447   0.248   2.828   2.355 -2.0158 -0.3590  1.1960
  426MOL0     H57448   0.181   2.871   2.195 -1.1030 -0.4196  2.8999
  426MOL0     H57449   0.405   2.668   2.228 -2.8275 -5.2737  3.2579
  426MOL0     H57450   0.242   2.615   2.228  1.0498 -0.9524  1.1974
  426MOL0     H57451   0.200   2.661   2.019 -0.0188 -0.7851  1.1254
  426MOL0     H57452   0.341   2.765   1.984  1.2395  0.1208  1.1261
  426MOL0     H57453   0.359   2.544   1.879 -3.9191 -0.7351  0.6955
  426MOL0     H57454   0.491   2.556   1.997 -1.1273 -0.8449 -0.4703
  426MOL0     H57455   0.401   2.344   2.045  0.8689 -0.3430  2.2718
  426MOL0     H57456   0.326   2.436   2.163 -0.3435 -0.7690 -0.3243
  426MOL0     H57457   0.128   2.468   1.986  2.3970  1.8102 -2.8855
  426MOL0     H57458   0.196   2.345   1.884 -0.7178 -0.1732 -0.1125
  426MOL0     H57459   0.221   2.190   2.098  2.4690  3.3478  1.7180
  426MOL0     H57460   0.071   2.205   2.013 -1.1920  0.3595  0.7287
  426MOL0     H57461  -0.114   2.412   2.118 -0.9408 -2.2174  0.4213
  426MOL0     H57462  -0.078   2.618   2.418 -3.7284  2.7279  0.3904
  426MOL0     H57463  -0.184   2.590   2.262 -1.2437  0.5620  1.0204
  426MOL0     H57464  -0.209   2.461   2.536  1.7369 -0.5412 -0.5777
  426MOL0     H57465  -0.280   2.403   2.386 -1.2565  0.5396 -0.2647
  426MOL0     H57466  -0.370   2.645   2.354  1.0312  1.0024 -0.5981
  426MOL0     H57467  -0.350   2.661   2.528 -2.7889  0.2645  1.3154
  426MOL0     H57468  -0.477   2.470   2.577 -2.4651 -3.4563 -0.4586
  426MOL0     H57469  -0.522   2.430   2.413 -1.0382  1.2920 -0.0642
  426MOL0     H57470  -0.694   2.355   2.468 -2.4977 -0.5410 -1.1625
  426MOL0     H57471  -0.802   2.181   2.528 -1.5991 -0.9185 -0.9310
  426MOL0     H57472  -0.887   2.193   2.684 -1.6053  0.4328 -0.3052
  426MOL0     H57473  -0.973   2.193   2.525  1.2767 -2.0469 -1.7687
  426MOL0     H57474  -1.247   2.088   2.747 -0.1070  0.5731 -2.1061
  426MOL0     H57475  -1.471   2.040   2.822  1.3337 -0.5450  0.1130
  426MOL0     H57476  -1.668   1.999   2.840  2.0529 -1.3592 -3.2395
  426MOL0     H57477  -1.839   2.060   2.812 -1.5011  2.5259 -2.7402
  426MOL0     H57478  -1.877   1.969   2.593  0.2609 -0.3770 -1.1210
  426MOL0     H57479  -1.722   1.916   2.575 -1.7383  0.3988 -0.0787
  426MOL0     H57480  -1.779   1.770   2.788  0.0024 -0.8985 -0.9451
  426MOL0     H57481  -1.829   1.727   2.621  2.6127  0.4185 -0.9015
  426MOL0     H57482  -1.980   1.870   2.826 -1.3622 -1.4941  1.8500
  426MOL0     H57483  -2.052   1.812   2.669 -0.3689 -2.1536  0.3562
  426MOL0     H57484  -1.940   1.630   2.896 -0.4820 -0.1679  0.7549
  426MOL0     H57485  -2.012   1.578   2.739  1.2355 -0.9989  0.6178
  426MOL0     H57486  -2.148   1.757   2.949  1.9303  0.5397  0.1624
  426MOL0     H57487  -2.224   1.714   2.800  0.1439 -0.8245 -0.2068
  426MOL0     H57488  -2.146   1.509   3.023 -0.0598 -2.2805 -0.1118
  426MOL0     H57489  -2.211   1.462   2.866  1.1373  0.5704 -0.5732
  426MOL0     H57490  -2.371   1.473   3.044 -0.7581 -0.2006 -0.1426
  426MOL0     H57491  -2.413   1.588   2.921 -1.7947  3.2238  2.6802
  426MOL0     H57492  -1.625   2.365   2.591 -0.8636  0.2019  1.4228
  426MOL0     H57493  -1.387   2.429   2.524 -0.3414 -0.8369 -1.8070
  426MOL0     H57494  -1.039   2.673   2.603 -1.9924 -0.7502 -2.2883
  426MOL0     H57495  -0.826   2.756   2.521 -4.0338  0.0262  1.3571
  426MOL0     H57496   0.301   3.205   2.490 -0.0920 -3.1287 -0.7307
  426MOL0     H57497   0.448   3.397   2.556 -1.7073 -0.7005 -0.7512
  426MOL0     H57498   0.904   3.565   2.358  2.3721 -2.3873  1.1347
  426MOL0     H57499   1.070   3.744   2.367 -1.6421  0.1580 -1.8163
  426MOL0     H57500   1.106   4.125   2.636  2.7644  1.0443  0.4069
  426MOL0     H57501   1.037   3.983   2.724  0.3175 -3.6506 -1.8366
  426MOL0     H57502   1.244   3.856   2.717  0.2973 -0.1935 -3.8938
  426MOL0     H57503   1.265   3.994   2.818  1.1534 -1.4223 -0.1528
  426MOL0     H57504   1.368   3.960   2.539  2.0109 -1.4511  0.8615
  426MOL0     H57505   1.460   3.962   2.685  2.2798  0.3899 -2.3128
  426MOL0     H57506   1.384   4.190   2.736 -0.5543 -2.1379  0.9954
  426MOL0     H57507   1.324   4.197   2.569  1.3482  0.5211 -1.1243
  426MOL0     H57508   1.742   4.231   2.529 -1.0988  2.1866 -2.4544
  426MOL0     H57509   0.839   3.950   2.672  1.1476  1.1016 -1.1172
  426MOL0     H57510   0.653   3.814   2.616  1.0746 -0.3125  1.4009
  427MOL0     O57511   1.839  11.347   8.123 -0.5153 -0.3464 -0.1419
  427MOL0     C57512   1.882  11.260   8.197  0.8530  0.8097  0.7108
  427MOL0     O57513   1.814  11.141   8.228  0.4356  0.8851  0.5134
  427MOL0     C57514   1.695  11.104   8.168 -0.8198 -0.4847  0.2848
  427MOL0     C57515   1.584  11.186   8.177 -0.2958 -0.1583 -0.2930
  427MOL0     C57516   1.471  11.153   8.117  0.5077 -0.4719 -0.6403
  427MOL0     C57517   1.463  11.033   8.044 -0.0730  0.1418  0.2966
  427MOL0     O57518   1.331  10.991   8.018 -0.3685 -0.1222  0.2080
  427MOL0     C57519   1.326  10.881   7.923 -0.2012 -0.0705 -0.1596
  427MOL0     C57520   1.192  10.875   7.852  0.5912  0.2452  0.3133
  427MOL0     C57521   1.195  10.767   7.732 -0.2648 -0.6841 -0.4070
  427MOL0     C57522   1.085  10.800   7.621 -0.0117  0.5841 -0.2835
  427MOL0     C57523   1.097  10.693   7.505  0.4048 -0.2191 -0.5732
  427MOL0     C57524   0.986  10.694   7.398  0.3456 -0.0449  0.1156
  427MOL0     C57525   0.851  10.672   7.455 -0.2048  0.0238 -0.4775
  427MOL0     C57526   0.750  10.636   7.352  0.9039 -0.0234  0.3344
  427MOL0     N57527   0.618  10.618   7.404  0.3082  0.4839  0.5535
  427MOL0     C57528   0.586  10.568   7.533  0.0462 -0.5877  0.2818
  427MOL0     C57529   0.451  10.565   7.530  0.5780 -0.4466 -0.4388
  427MOL0     C57530   0.365  10.525   7.647  0.0036  0.3614  0.2435
  427MOL0     C57531   0.244  10.615   7.702 -0.5886  0.3787  0.5331
  427MOL0     C57532   0.292  10.761   7.693 -0.3581 -0.4473 -1.0855
  427MOL0     C57533   0.190  10.856   7.753 -0.3870  0.2873  0.1971
  427MOL0     O57534   0.180  10.836   7.894  0.3013  0.8287 -0.0171
  427MOL0     C57535   0.060  10.870   7.951  0.8724 -0.4006 -0.4023
  427MOL0     C57536  -0.011  10.990   7.931 -0.1074  0.6185 -0.4992
  427MOL0     C57537  -0.141  11.006   7.976 -0.6009 -0.0214 -0.5416
  427MOL0     C57538  -0.206  11.140   7.947  0.6046  0.3026  0.2470
  427MOL0     C57539  -0.188  10.910   8.065 -0.1308 -0.5732  0.2015
  427MOL0     C57540  -0.321  10.915   8.121  0.0042  0.2245 -0.5893
  427MOL0     O57541  -0.419  10.960   8.027  0.4411  1.3056  0.2665
  427MOL0     C57542  -0.548  10.989   8.070 -0.1868  0.3198 -0.8644
  427MOL0     C57543  -0.569  11.086   8.173  0.8575 -0.0251 -0.2759
  427MOL0     C57544  -0.698  11.112   8.230 -0.2783  0.0147 -0.1383
  427MOL0     C57545  -0.807  11.039   8.180  0.3020 -0.2047  0.5113
  427MOL0     O57546  -0.941  11.055   8.211  0.5542 -0.5456  0.2127
  427MOL0     C57547  -0.973  11.166   8.284 -0.0806 -0.3376 -0.1354
  427MOL0     C57548  -1.126  11.169   8.274  0.3523 -0.1314 -0.0951
  427MOL0     C57549  -1.173  11.278   8.371  0.5998  0.0718  0.5565
  427MOL0     C57550  -1.324  11.307   8.353 -0.8913  0.3521  0.9329
  427MOL0     C57551  -1.377  11.384   8.468 -0.2287  0.5045 -0.6821
  427MOL0     C57552  -1.526  11.412   8.447 -0.6640 -1.3978 -0.3653
  427MOL0     C57553  -1.567  11.547   8.527  0.0522 -0.1042 -0.1678
  427MOL0     C57554  -1.536  11.669   8.434  0.0384  0.1557 -0.5040
  427MOL0    Cl57555  -1.560  11.802   8.547 -0.4380  0.1509 -0.4602
  427MOL0     C57556  -0.789  10.930   8.094  0.0819 -0.3057  0.4333
  427MOL0     C57557  -0.663  10.911   8.036  0.2685 -0.7218 -0.4272
  427MOL0     O57558  -0.344  10.873   8.229 -1.3515  0.4569 -0.0618
  427MOL0     C57559  -0.115  10.794   8.088 -0.7012  0.7465 -0.3580
  427MOL0     C57560   0.011  10.775   8.033 -0.1716 -0.1304 -0.1376
  427MOL0     N57561   0.402  10.604   7.401  0.5617  1.1712 -0.3356
  427MOL0     N57562   0.504  10.637   7.329 -0.2682 -0.5734  0.3953
  427MOL0     C57563   1.570  10.943   8.042  0.0512  0.0274  0.1712
  427MOL0     C57564   1.688  10.984   8.099  0.0820 -0.2554  0.5378
  427MOL0     C57565   2.008  11.294   8.264 -0.1664  0.3080  0.4531
  427MOL0     C57566   2.075  11.195   8.329 -0.8977  0.7820 -0.3179
  427MOL0     C57567   2.201  11.224   8.388 -0.1273  0.3152  0.6513
  427MOL0     C57568   2.266  11.349   8.368  0.3309 -0.8028  0.4181
  427MOL0     O57569   2.389  11.375   8.425  0.1529  0.2223 -0.2303
  427MOL0     C57570   2.487  11.464   8.375  0.0560  0.0827 -0.0052
  427MOL0     C57571   2.596  11.482   8.487  0.1361 -0.4713  0.3151
  427MOL0     C57572   2.626  11.373   8.577  0.0656  0.6363  0.5608
  427MOL0     C57573   2.701  11.416   8.706  0.8583  0.7547  0.7596
  427MOL0     C57574   2.820  11.494   8.673 -0.2340  0.2487 -0.5749
  427MOL0     C57575   2.916  11.558   8.649  0.9946 -0.2607 -0.3216
  427MOL0     C57576   2.190  11.452   8.308 -0.5291  0.1886  0.0362
  427MOL0     C57577   2.063  11.422   8.258  0.3055  0.3043 -0.4616
  427MOL0     H57578   1.588  11.282   8.228  0.3097  0.6696 -1.8483
  427MOL0     H57579   1.382  11.213   8.136  0.1041 -2.0380  3.1870
  427MOL0     H57580   1.404  10.884   7.847 -0.1199  3.9538 -0.1376
  427MOL0     H57581   1.333  10.792   7.987 -3.2004  1.1308  2.1053
  427MOL0     H57582   1.116  10.849   7.926  1.1424 -2.1710  0.1062
  427MOL0     H57583   1.167  10.965   7.795  3.0597  0.0737 -1.1921
  427MOL0     H57584   1.296  10.757   7.691  0.6849  1.3784  1.2036
  427MOL0     H57585   1.156  10.677   7.780  0.6888 -0.3886  1.0012
  427MOL0     H57586   0.982  10.811   7.654  0.5102 -0.4869  1.8837
  427MOL0     H57587   1.112  10.894   7.571  2.3553  0.3779  0.4678
  427MOL0     H57588   1.193  10.711   7.457  0.7995  4.5905  1.4168
  427MOL0     H57589   1.106  10.600   7.561  1.3365  0.4742  0.4691
  427MOL0     H57590   0.988  10.797   7.362  0.3155  0.1830  0.7399
  427MOL0     H57591   1.009  10.622   7.320 -1.0138 -0.3486 -0.0358
  427MOL0     H57592   0.847  10.591   7.528  1.2258  0.5249  0.1754
  427MOL0     H57593   0.819  10.768   7.496 -0.4632 -0.4236  0.3806
  427MOL0     H57594   0.774  10.540   7.303  0.7124  0.8933 -1.6692
  427MOL0     H57595   0.746  10.703   7.265 -0.8561 -1.7338 -0.9981
  427MOL0     H57596   0.661  10.538   7.606  1.3342 -0.8128 -1.0713
  427MOL0     H57597   0.339  10.422   7.624 -0.2841  0.5105 -0.1077
  427MOL0     H57598   0.431  10.521   7.735 -0.4468  0.3808  0.5882
  427MOL0     H57599   0.219  10.589   7.805  0.3820 -0.6778  0.5239
  427MOL0     H57600   0.155  10.602   7.640 -1.6569  1.1777  1.8354
  427MOL0     H57601   0.305  10.785   7.587  3.3750 -0.1545 -0.6994
  427MOL0     H57602   0.381  10.780   7.754 -0.3954 -0.4129 -1.0420
  427MOL0     H57603   0.095  10.845   7.701  0.6571  2.5280 -2.4370
  427MOL0     H57604   0.225  10.956   7.725  3.4469 -1.5004 -2.2654
  427MOL0     H57605   0.034  11.068   7.871 -1.2135  2.1382  0.5720
  427MOL0     H57606  -0.233  11.181   8.045 -0.9024 -2.7424  1.2345
  427MOL0     H57607  -0.138  11.205   7.892  0.7680 -2.8434 -3.7404
  427MOL0     H57608  -0.293  11.135   7.881  1.6066 -2.8745 -1.0004
  427MOL0     H57609  -0.485  11.150   8.201 -0.8991  2.3747 -0.2531
  427MOL0     H57610  -0.713  11.199   8.293 -1.5647  0.1829 -0.6393
  427MOL0     H57611  -0.932  11.166   8.385  1.0934  5.2192 -0.2971
  427MOL0     H57612  -0.927  11.249   8.229  3.4470  0.1048  3.1099
  427MOL0     H57613  -1.160  11.179   8.170  0.1574 -1.6738 -0.1944
  427MOL0     H57614  -1.162  11.075   8.317  0.6868 -0.4232 -0.4515
  427MOL0     H57615  -1.111  11.368   8.359  1.7560 -0.8691 -0.8455
  427MOL0     H57616  -1.156  11.236   8.470 -1.0400  0.1275  0.8792
  427MOL0     H57617  -1.343  11.365   8.262  1.0917 -1.1822 -0.5561
  427MOL0     H57618  -1.383  11.215   8.347 -3.8031  2.1340 -0.1603
  427MOL0     H57619  -1.338  11.486   8.470 -1.3904  0.9687 -0.6873
  427MOL0     H57620  -1.357  11.343   8.567  1.5820  2.7916 -0.0065
  427MOL0     H57621  -1.556  11.433   8.343 -1.0256  0.8896  0.1490
  427MOL0     H57622  -1.586  11.324   8.474  0.5443 -1.5372  2.0797
  427MOL0     H57623  -1.508  11.564   8.617  1.4922  0.5758 -1.2060
  427MOL0     H57624  -1.674  11.544   8.551 -0.5786 -0.9188 -2.7264
  427MOL0     H57625  -1.606  11.671   8.351  1.7950  1.6728 -2.0383
  427MOL0     H57626  -1.434  11.663   8.394  0.4017 -0.6783  0.5056
  427MOL0     H57627  -0.870  10.861   8.069  1.9596 -1.6966 -2.3378
  427MOL0     H57628  -0.637  10.820   7.982 -1.0848 -1.1061 -0.4891
  427MOL0     H57629  -0.143  10.710   8.151  2.9312  0.9407  1.7952
  427MOL0     H57630   0.068  10.686   8.057 -1.0711 -0.6921 -0.0167
  427MOL0     H57631   1.552  10.843   8.005 -1.9041 -0.1904  1.5510
  427MOL0     H57632   1.775  10.919   8.094  1.5469  1.2651  3.3706
  427MOL0     H57633   2.035  11.094   8.323 -0.9310  0.8069 -0.5289
  427MOL0     H57634   2.258  11.141   8.430  2.0906  0.6606 -1.4403
  427MOL0     H57635   2.537  11.417   8.289  1.3233  1.5410 -0.1201
  427MOL0     H57636   2.443  11.559   8.345  0.0359  0.3986  0.9943
  427MOL0     H57637   2.567  11.568   8.548  1.0883  0.4019 -0.4277
  427MOL0     H57638   2.690  11.499   8.433  1.8398  2.2796  3.7242
  427MOL0     H57639   2.704  11.314   8.527  1.2980  0.8205  2.1808
  427MOL0     H57640   2.542  11.308   8.602  0.5677 -0.8291 -1.2836
  427MOL0     H57641   2.719  11.328   8.768  0.6822 -1.1349 -1.7148
  427MOL0     H57642   2.636  11.486   8.759 -2.6421 -1.2994 -0.4500
  427MOL0     H57643   3.003  11.615   8.626  0.6896 -0.0006 -0.8388
  427MOL0     H57644   2.232  11.552   8.308  3.0826 -1.1695  0.0403
  427MOL0     H57645   1.996  11.497   8.216 -2.2918 -1.4585  0.3430
  428MOL0     O57646   4.590   8.402   4.500  0.6761  0.3638 -0.0645
  428MOL0     C57647   4.576   8.518   4.460  0.0215 -1.3472  0.9723
  428MOL0     O57648   4.467   8.590   4.469  0.1268 -0.5162  0.7237
  428MOL0     C57649   4.350   8.546   4.530  0.0006 -0.0434 -0.1898
  428MOL0     C57650   4.341   8.434   4.615  0.3284 -0.3392  0.0819
  428MOL0     C57651   4.212   8.392   4.657  0.2269  0.3282 -0.5225
  428MOL0     C57652   4.100   8.458   4.612 -0.3162  0.7816  0.4509
  428MOL0     O57653   3.968   8.431   4.642 -0.3754  1.2082 -0.4254
  428MOL0     C57654   3.955   8.421   4.788 -0.4407 -0.2477 -0.7520
  428MOL0     C57655   3.820   8.482   4.842  0.3237  0.8281  0.0006
  428MOL0     C57656   3.799   8.456   4.992 -0.4101 -0.1077  0.1839
  428MOL0     C57657   3.659   8.466   5.038  0.3518 -0.6295  0.7046
  428MOL0     C57658   3.635   8.431   5.191 -0.7437 -0.3059 -0.1327
  428MOL0     C57659   3.485   8.422   5.221  0.6266  0.8325 -0.1647
  428MOL0     C57660   3.444   8.386   5.366 -0.3603 -0.0443 -0.1541
  428MOL0     C57661   3.488   8.246   5.395 -0.9304  0.0364 -0.1558
  428MOL0     N57662   3.458   8.195   5.531  0.4123  0.1648  0.4826
  428MOL0     C57663   3.346   8.220   5.602  0.4961 -0.4552  0.0564
  428MOL0     C57664   3.352   8.140   5.711  0.2733  0.8101  0.6902
  428MOL0     C57665   3.275   8.124   5.847  0.3179  0.0090 -0.1576
  428MOL0     C57666   3.372   8.137   5.959  0.1315 -0.2899 -0.3342
  428MOL0     C57667   3.293   8.136   6.093  0.0230 -0.0215 -0.4150
  428MOL0     C57668   3.241   8.277   6.128 -0.3538 -0.1004  0.6273
  428MOL0     O57669   3.332   8.386   6.099  0.1640 -0.2482 -0.4207
  428MOL0     C57670   3.417   8.433   6.200 -1.3061  1.0356 -0.0929
  428MOL0     C57671   3.497   8.543   6.172 -0.0954  0.2872 -0.0875
  428MOL0     C57672   3.590   8.599   6.263  0.8273  0.4802  0.6650
  428MOL0     C57673   3.657   8.731   6.223 -0.1278  0.1375 -0.3437
  428MOL0     C57674   3.622   8.527   6.379 -0.1818 -0.2317 -0.1761
  428MOL0     C57675   3.734   8.557   6.470  0.3557 -0.2828  0.6108
  428MOL0     O57676   3.851   8.595   6.420 -0.2276  0.2837  0.0812
  428MOL0     C57677   3.953   8.644   6.501 -0.0032 -0.8907  0.0707
  428MOL0     C57678   4.062   8.564   6.524  0.2628  0.0326  1.2239
  428MOL0     C57679   4.167   8.602   6.605 -0.0803  0.1803 -0.6609
  428MOL0     C57680   4.159   8.732   6.671 -0.3529 -0.5795  0.3514
  428MOL0     O57681   4.258   8.785   6.745  0.3274  0.1740 -0.4361
  428MOL0     C57682   4.304   8.700   6.849 -0.3602  0.2321 -0.3909
  428MOL0     C57683   4.437   8.763   6.896  0.2665 -0.0451 -0.9160
  428MOL0     C57684   4.500   8.693   7.013 -0.2094  0.2627  0.2644
  428MOL0     C57685   4.641   8.753   7.052  0.0709 -0.0325  0.6067
  428MOL0     C57686   4.693   8.677   7.180 -0.8428  0.3489 -0.1761
  428MOL0     C57687   4.812   8.741   7.240  0.0920  0.1498  0.2328
  428MOL0     C57688   4.939   8.703   7.163  0.8281 -0.9668  0.5832
  428MOL0     C57689   5.069   8.778   7.192  0.2902 -0.7435  0.6755
  428MOL0    Cl57690   5.018   8.956   7.203 -0.3341  0.0651  0.3439
  428MOL0     C57691   4.043   8.816   6.634  0.0164 -0.9155 -0.0188
  428MOL0     C57692   3.945   8.769   6.557 -0.5839  0.3241 -0.6388
  428MOL0     O57693   3.693   8.552   6.590 -0.2107  0.2541  0.4087
  428MOL0     C57694   3.537   8.422   6.412 -0.1462 -0.1521 -0.5958
  428MOL0     C57695   3.439   8.371   6.320  0.5771  0.2716  0.0845
  428MOL0     N57696   3.465   8.059   5.694  0.1985 -0.1420  0.3930
  428MOL0     N57697   3.527   8.095   5.592 -0.1535  0.3134  0.1476
  428MOL0     C57698   4.114   8.569   4.522  0.9686 -0.0339  0.1838
  428MOL0     C57699   4.233   8.616   4.483 -0.6028  0.5155  0.6803
  428MOL0     C57700   4.692   8.591   4.385  1.0836  1.1431 -0.0242
  428MOL0     C57701   4.677   8.717   4.327 -0.1664 -0.6060 -0.3407
  428MOL0     C57702   4.784   8.783   4.263 -0.3022  0.4807  0.1522
  428MOL0     C57703   4.906   8.716   4.246 -0.5000 -0.1716  0.7166
  428MOL0     O57704   4.999   8.776   4.160 -0.0294 -0.5511 -0.4216
  428MOL0     C57705   5.102   8.818   4.249 -0.0143  0.0850 -0.2763
  428MOL0     C57706   5.200   8.883   4.157  0.0539 -0.1007 -0.0610
  428MOL0     C57707   5.158   9.006   4.069  0.1596  0.4770 -0.5027
  428MOL0     C57708   5.287   9.074   4.000  0.0140  0.3233  0.1613
  428MOL0     C57709   5.251   9.157   3.882 -0.1833  0.0814 -0.6580
  428MOL0     C57710   5.210   9.227   3.792 -0.4850 -0.1100  0.4393
  428MOL0     C57711   4.918   8.584   4.290  0.3113  0.6153  1.0069
  428MOL0     C57712   4.817   8.531   4.369  1.0886  0.4270  0.7445
  428MOL0     H57713   4.422   8.383   4.667 -1.6784 -2.4164  1.3696
  428MOL0     H57714   4.187   8.311   4.725 -0.6209  0.4683 -0.6488
  428MOL0     H57715   3.958   8.318   4.824 -3.0133 -0.1688 -0.0840
  428MOL0     H57716   4.038   8.481   4.827 -0.1135  1.0930 -3.2787
  428MOL0     H57717   3.817   8.590   4.827  0.0862  1.0128  1.2382
  428MOL0     H57718   3.736   8.432   4.794 -0.5954  3.1026 -0.9214
  428MOL0     H57719   3.843   8.364   5.031 -1.1207  1.1953  4.5981
  428MOL0     H57720   3.845   8.540   5.046 -0.4521  1.6073 -2.2912
  428MOL0     H57721   3.619   8.563   5.007 -0.7859 -1.2411  0.1880
  428MOL0     H57722   3.603   8.389   4.984  0.9034  0.0056 -0.8424
  428MOL0     H57723   3.687   8.341   5.225 -3.7661 -1.0069  3.2490
  428MOL0     H57724   3.676   8.515   5.247 -0.4969  0.6734 -1.7046
  428MOL0     H57725   3.440   8.516   5.188 -2.0571 -0.2208  0.2088
  428MOL0     H57726   3.444   8.343   5.157 -1.2923 -0.3810  2.3769
  428MOL0     H57727   3.509   8.448   5.429  0.6450 -1.1490 -0.0630
  428MOL0     H57728   3.336   8.387   5.381 -0.8399  1.3123 -3.0338
  428MOL0     H57729   3.591   8.220   5.369 -1.2670  0.1584 -1.6639
  428MOL0     H57730   3.441   8.180   5.322  2.7123 -1.9544 -0.9644
  428MOL0     H57731   3.277   8.303   5.592 -0.9060 -1.7851 -2.0491
  428MOL0     H57732   3.200   8.203   5.836  0.8729  0.6279  0.3682
  428MOL0     H57733   3.223   8.028   5.858 -1.0074  0.5018 -1.7329
  428MOL0     H57734   3.427   8.232   5.956 -2.8343  1.5650 -1.6731
  428MOL0     H57735   3.449   8.060   5.960 -0.1365 -0.5587  0.4354
  428MOL0     H57736   3.360   8.111   6.176  1.4988  4.0754 -0.1602
  428MOL0     H57737   3.213   8.061   6.094  0.3018 -0.3385 -1.2837
  428MOL0     H57738   3.214   8.261   6.232  0.8068 -2.0674  0.6944
  428MOL0     H57739   3.154   8.302   6.067  1.0374 -0.3475 -1.6154
  428MOL0     H57740   3.494   8.583   6.071  0.8159 -3.1501 -1.6546
  428MOL0     H57741   3.696   8.796   6.302  2.3975 -0.3594 -1.1017
  428MOL0     H57742   3.753   8.710   6.176  1.1207 -0.2698  2.1989
  428MOL0     H57743   3.589   8.784   6.156  0.2515  1.3314  0.1859
  428MOL0     H57744   4.049   8.472   6.468 -0.4420  1.1768 -0.5918
  428MOL0     H57745   4.250   8.532   6.614 -0.7221 -0.4128  1.3152
  428MOL0     H57746   4.234   8.702   6.934  2.9949  3.3779  2.6397
  428MOL0     H57747   4.319   8.600   6.810 -1.5338 -0.3996  0.6840
  428MOL0     H57748   4.512   8.771   6.817  2.8068  0.4918  1.4051
  428MOL0     H57749   4.412   8.865   6.925 -3.2619 -0.5543 -1.6816
  428MOL0     H57750   4.506   8.587   6.985  0.9152 -0.0437  1.6047
  428MOL0     H57751   4.434   8.701   7.099 -0.9012 -1.2818 -0.0790
  428MOL0     H57752   4.709   8.737   6.968  1.0586 -1.4105  1.6222
  428MOL0     H57753   4.624   8.860   7.072  0.1629 -0.1277  1.2202
  428MOL0     H57754   4.725   8.574   7.166  1.6445  0.9585  0.4339
  428MOL0     H57755   4.624   8.677   7.265 -1.0019  1.0048 -0.2967
  428MOL0     H57756   4.792   8.848   7.245  1.7061  0.4999 -0.3484
  428MOL0     H57757   4.821   8.695   7.339  2.2474  0.2733  0.1285
  428MOL0     H57758   4.918   8.728   7.058 -0.0566 -0.0311  0.9626
  428MOL0     H57759   4.956   8.595   7.172  1.5758 -0.9988 -0.8605
  428MOL0     H57760   5.141   8.771   7.109 -1.2249 -0.3045 -0.7448
  428MOL0     H57761   5.115   8.739   7.283 -0.8891  0.9563  2.0761
  428MOL0     H57762   4.027   8.912   6.682  0.0889 -1.2936  0.7818
  428MOL0     H57763   3.853   8.823   6.538 -0.2815  1.2070  0.3182
  428MOL0     H57764   3.551   8.370   6.506 -1.9358 -0.3220 -0.3855
  428MOL0     H57765   3.391   8.278   6.348  0.7044 -0.8696 -3.0758
  428MOL0     H57766   4.024   8.624   4.496  0.7124 -0.4038  0.2893
  428MOL0     H57767   4.247   8.701   4.417 -1.1720  0.5285  0.5719
  428MOL0     H57768   4.592   8.782   4.346  0.4234 -0.3344  1.5606
  428MOL0     H57769   4.760   8.883   4.231 -2.5309 -0.3621 -0.9540
  428MOL0     H57770   5.064   8.888   4.324  0.8092 -2.3099  2.5592
  428MOL0     H57771   5.142   8.738   4.312 -0.8172 -1.0622 -1.1654
  428MOL0     H57772   5.222   8.805   4.083 -3.7483 -0.6357 -0.8391
  428MOL0     H57773   5.288   8.918   4.211  1.7359 -0.0429 -2.6409
  428MOL0     H57774   5.120   9.083   4.137 -0.8131  0.5270 -1.0715
  428MOL0     H57775   5.073   8.975   4.006  0.9254 -3.5564  0.1989
  428MOL0     H57776   5.356   9.002   3.955 -0.4686  2.0411 -3.7192
  428MOL0     H57777   5.336   9.139   4.073  3.8036 -3.8823  1.8147
  428MOL0     H57778   5.165   9.294   3.722 -0.6516 -1.4726 -0.8011
  428MOL0     H57779   5.012   8.534   4.269 -0.2479 -0.7821  1.6723
  428MOL0     H57780   4.832   8.437   4.421  0.9864 -2.3787 -3.7741
  429MOL0     O57781  10.710   5.860   5.854  0.2807 -0.2379 -0.7115
  429MOL0     C57782  10.725   5.766   5.933  0.6352  0.1417 -0.3894
  429MOL0     O57783  10.636   5.726   6.022  0.2520 -0.2476  0.6529
  429MOL0     C57784  10.501   5.766   6.009 -0.0516  0.2678 -0.9070
  429MOL0     C57785  10.431   5.813   6.124  0.0439  0.7862  0.0689
  429MOL0     C57786  10.293   5.827   6.121 -0.1916  0.0631  0.2894
  429MOL0     C57787  10.220   5.819   5.997 -0.8435  0.1663 -0.1809
  429MOL0     O57788  10.084   5.841   5.999 -1.0023  0.9835  0.2642
  429MOL0     C57789  10.007   5.745   5.927  0.4058  0.6104 -0.4258
  429MOL0     C57790   9.855   5.777   5.963  0.0143 -0.2305  0.4467
  429MOL0     C57791   9.836   5.921   6.006  0.3839  0.5506 -0.0987
  429MOL0     C57792   9.693   5.959   6.019  0.0618 -0.1936  0.4456
  429MOL0     C57793   9.677   6.113   6.004 -0.2119 -0.0990  0.5442
  429MOL0     C57794   9.535   6.167   6.037  0.0728 -0.3613  0.6403
  429MOL0     C57795   9.447   6.147   5.917  0.5262  0.5689 -0.0973
  429MOL0     C57796   9.356   6.261   5.886  0.5424  0.3491 -0.2053
  429MOL0     N57797   9.243   6.265   5.982  0.9980  0.4355 -0.1942
  429MOL0     C57798   9.123   6.185   5.975 -0.1532  0.3859 -0.4898
  429MOL0     C57799   9.050   6.232   6.075 -0.1121  1.1240 -0.0693
  429MOL0     C57800   8.913   6.187   6.128  0.9154  0.3601 -0.0527
  429MOL0     C57801   8.912   6.034   6.150  0.1724  0.3562 -0.3196
  429MOL0     C57802   8.778   5.986   6.215  0.3531  0.6701  0.4041
  429MOL0     C57803   8.657   6.085   6.194  0.0239 -0.3086  0.5302
  429MOL0     O57804   8.544   6.012   6.248  0.1112 -0.0022  0.1329
  429MOL0     C57805   8.417   6.077   6.268  0.9769 -0.0832 -0.7768
  429MOL0     C57806   8.337   6.046   6.383 -0.0775  0.2589  0.0246
  429MOL0     C57807   8.223   6.121   6.423  0.5704  0.4764  0.7188
  429MOL0     C57808   8.132   6.079   6.531 -0.0498 -0.0146  0.4384
  429MOL0     C57809   8.188   6.235   6.355  0.6002 -0.1858  0.5418
  429MOL0     C57810   8.085   6.327   6.407 -0.1620  0.3022  0.3016
  429MOL0     O57811   7.956   6.308   6.374  0.4447 -0.3121  0.4101
  429MOL0     C57812   7.868   6.384   6.451 -0.4282 -0.7350 -0.0294
  429MOL0     C57813   7.793   6.480   6.392  0.4305 -0.7415 -0.1285
  429MOL0     C57814   7.725   6.573   6.472  0.3464  0.2924 -0.5960
  429MOL0     C57815   7.725   6.564   6.611  0.3978 -0.4404  0.2329
  429MOL0     O57816   7.663   6.668   6.673  0.3175  0.2633  0.1678
  429MOL0     C57817   7.614   6.646   6.805  0.3913  0.0863  0.0342
  429MOL0     C57818   7.596   6.782   6.861  0.1233  0.9981 -0.2715
  429MOL0     C57819   7.536   6.785   7.002 -0.1482  0.2084  1.1602
  429MOL0     C57820   7.391   6.821   7.002 -0.1348 -0.3956 -0.4570
  429MOL0     C57821   7.348   6.791   7.150 -0.9023 -0.6760 -0.3424
  429MOL0     C57822   7.213   6.844   7.170 -0.5394  0.5221 -0.1652
  429MOL0     C57823   7.172   6.834   7.320  0.0703 -0.5973  0.4187
  429MOL0     C57824   7.061   6.941   7.353  0.7810 -0.4221 -0.3103
  429MOL0    Cl57825   6.915   6.877   7.276  0.5892 -0.4096 -0.1602
  429MOL0     C57826   7.772   6.447   6.669 -0.2945 -0.6175  0.2657
  429MOL0     C57827   7.852   6.360   6.591  0.1748 -0.0623  0.5683
  429MOL0     O57828   8.128   6.406   6.495 -0.3988 -0.2213  0.4789
  429MOL0     C57829   8.265   6.263   6.242 -0.0931  0.1413  0.3002
  429MOL0     C57830   8.376   6.192   6.200 -0.0417  0.3361 -0.9007
  429MOL0     N57831   9.125   6.331   6.147 -0.0632  0.3017  0.7811
  429MOL0     N57832   9.236   6.353   6.084 -0.1016 -0.2710 -1.1944
  429MOL0     C57833  10.289   5.775   5.881  0.1184 -0.3080  0.0902
  429MOL0     C57834  10.424   5.752   5.891 -0.3100 -0.0132 -0.4249
  429MOL0     C57835  10.853   5.689   5.917 -0.0593  0.1161  0.6136
  429MOL0     C57836  10.875   5.564   5.972 -0.0790  0.5843 -0.9049
  429MOL0     C57837  10.997   5.490   5.968 -0.2626  0.4111 -0.3152
  429MOL0     C57838  11.103   5.546   5.882  1.1947  0.6377 -0.0573
  429MOL0     O57839  11.216   5.470   5.862  0.3380  0.1931  0.2241
  429MOL0     C57840  11.336   5.541   5.836 -0.3970 -0.4184 -0.1182
  429MOL0     C57841  11.374   5.589   5.970  1.5052 -0.3687  0.8291
  429MOL0     C57842  11.506   5.654   5.955  0.5694  0.2668 -0.3644
  429MOL0     C57843  11.567   5.670   6.095  0.5278  0.3148 -1.0202
  429MOL0     C57844  11.682   5.768   6.083 -1.1381 -1.2320 -0.1345
  429MOL0     C57845  11.793   5.825   6.058  0.5422  0.3988  0.0118
  429MOL0     C57846  11.070   5.666   5.813 -0.0062 -0.0474 -0.1970
  429MOL0     C57847  10.950   5.735   5.836  0.3753  0.3027  0.7541
  429MOL0     H57848  10.506   5.827   6.202  1.5647 -1.6151 -0.8371
  429MOL0     H57849  10.244   5.836   6.217  0.7627 -3.4165  1.2489
  429MOL0     H57850  10.018   5.767   5.820  0.3535 -0.2794 -0.6164
  429MOL0     H57851  10.027   5.641   5.951 -0.7232  0.1248 -1.4741
  429MOL0     H57852   9.792   5.755   5.876 -2.3920  0.4886  1.9269
  429MOL0     H57853   9.813   5.709   6.038  0.6356  1.1809  2.1378
  429MOL0     H57854   9.878   5.932   6.106  0.8292 -0.7499 -0.1259
  429MOL0     H57855   9.886   5.998   5.945  2.4345 -0.6030  0.0262
  429MOL0     H57856   9.647   5.909   5.933  2.4771 -2.7891  0.4987
  429MOL0     H57857   9.653   5.907   6.106  0.4846  1.6157  1.7648
  429MOL0     H57858   9.739   6.166   6.076 -0.9649  1.0156  0.3919
  429MOL0     H57859   9.715   6.150   5.908 -0.3332  1.7170  1.1507
  429MOL0     H57860   9.493   6.123   6.128  1.2698  2.0095  2.4602
  429MOL0     H57861   9.541   6.273   6.064 -2.4308 -0.4274  1.7570
  429MOL0     H57862   9.504   6.144   5.823  0.6927 -0.6147  0.0231
  429MOL0     H57863   9.408   6.045   5.913  2.3448 -0.1750  0.1148
  429MOL0     H57864   9.308   6.256   5.788  0.9047 -0.7274 -0.3397
  429MOL0     H57865   9.411   6.355   5.893 -0.7933  1.0870  0.9447
  429MOL0     H57866   9.119   6.099   5.909 -1.7530  0.5316 -0.6244
  429MOL0     H57867   8.885   6.243   6.218  0.5186  2.1277 -1.2339
  429MOL0     H57868   8.847   6.200   6.042  1.5338 -2.9920 -1.1830
  429MOL0     H57869   8.996   5.993   6.207  0.7048  0.3740 -1.0730
  429MOL0     H57870   8.929   5.985   6.053 -1.2329 -3.8085  1.2979
  429MOL0     H57871   8.793   5.982   6.324  0.7410 -1.7340  0.3016
  429MOL0     H57872   8.760   5.885   6.180 -2.4656  1.6783 -1.3862
  429MOL0     H57873   8.658   6.112   6.088 -0.8683  2.4374  1.1517
  429MOL0     H57874   8.668   6.181   6.245  3.2660  0.5011 -1.4218
  429MOL0     H57875   8.373   5.963   6.443 -0.8941  0.9877  1.5761
  429MOL0     H57876   8.173   5.990   6.581 -1.4672 -2.5042 -2.5037
  429MOL0     H57877   8.120   6.154   6.610  3.9183  1.2279  0.0656
  429MOL0     H57878   8.031   6.061   6.492  0.1999  1.8823 -1.2263
  429MOL0     H57879   7.807   6.515   6.290  3.0847  1.6329  0.9019
  429MOL0     H57880   7.664   6.655   6.433 -0.5634  0.4050  0.9953
  429MOL0     H57881   7.517   6.596   6.812 -0.0652  0.9469  0.0282
  429MOL0     H57882   7.684   6.592   6.869 -0.4644 -0.0435  0.8699
  429MOL0     H57883   7.689   6.839   6.856 -0.0208  1.2511 -0.1068
  429MOL0     H57884   7.525   6.832   6.794  0.1144 -0.4576 -1.3958
  429MOL0     H57885   7.598   6.854   7.060  2.6713 -0.6166 -0.6373
  429MOL0     H57886   7.557   6.688   7.049 -0.2919  1.4367  3.9403
  429MOL0     H57887   7.366   6.926   6.980 -2.0779 -0.7058  0.0440
  429MOL0     H57888   7.350   6.758   6.923  0.5329  1.7713 -2.6776
  429MOL0     H57889   7.419   6.833   7.222  0.6132 -1.5381 -1.2989
  429MOL0     H57890   7.341   6.683   7.165 -0.4722 -0.7870 -0.9288
  429MOL0     H57891   7.202   6.949   7.141  1.0272  0.0552 -2.7332
  429MOL0     H57892   7.135   6.787   7.118 -4.7324  4.0976  1.5215
  429MOL0     H57893   7.265   6.851   7.376  0.4140 -0.2877 -0.2282
  429MOL0     H57894   7.138   6.733   7.343 -2.3695 -0.0297 -0.4239
  429MOL0     H57895   7.082   7.037   7.306 -2.5816  1.6913  2.0284
  429MOL0     H57896   7.052   6.950   7.462 -1.3713 -0.5346 -0.4304
  429MOL0     H57897   7.755   6.430   6.775 -0.0103 -0.0403  0.4077
  429MOL0     H57898   7.905   6.278   6.639  0.2648 -0.5039 -0.2728
  429MOL0     H57899   8.228   6.349   6.186  0.0803  0.1340  0.1729
  429MOL0     H57900   8.443   6.233   6.125 -0.0249  1.8460 -0.0971
  429MOL0     H57901  10.234   5.758   5.789  2.0433  2.0231 -1.6230
  429MOL0     H57902  10.473   5.736   5.796 -0.7268  1.4071 -0.9094
  429MOL0     H57903  10.788   5.529   6.027  0.5710  0.2712 -0.0573
  429MOL0     H57904  11.015   5.395   6.018 -1.4823  1.4503  2.2999
  429MOL0     H57905  11.405   5.472   5.785 -0.8440 -2.3507  1.7291
  429MOL0     H57906  11.334   5.622   5.762  4.1381 -1.5037 -1.7171
  429MOL0     H57907  11.377   5.502   6.036 -1.3535 -2.0028 -0.9782
  429MOL0     H57908  11.298   5.660   6.004  2.2619 -0.4072  2.7143
  429MOL0     H57909  11.482   5.753   5.916 -2.6200  1.7204  4.4049
  429MOL0     H57910  11.580   5.605   5.891 -0.7016  2.7083 -4.0890
  429MOL0     H57911  11.601   5.575   6.136 -2.2375 -0.7870 -1.0683
  429MOL0     H57912  11.496   5.707   6.170  0.6449  1.5810 -1.5030
  429MOL0     H57913  11.881   5.886   6.060 -0.6326  2.1463  0.9544
  429MOL0     H57914  11.143   5.702   5.741  1.8565 -1.3007  1.0233
  429MOL0     H57915  10.929   5.827   5.782  0.4055  0.3148  0.7629
  430MOL0     O57916   8.525   2.049  10.291  0.0849 -0.5501 -1.1305
  430MOL0     C57917   8.496   1.945  10.238 -0.5012 -0.0078  0.0997
  430MOL0     O57918   8.377   1.869  10.240  0.7728  0.2865 -0.6568
  430MOL0     C57919   8.281   1.923  10.323  0.1504 -0.5664  0.2165
  430MOL0     C57920   8.162   1.991  10.274 -0.3353  0.9091 -0.4337
  430MOL0     C57921   8.066   2.037  10.359  0.9851 -0.5650 -1.1201
  430MOL0     C57922   8.070   2.015  10.500 -0.5965  0.0986  0.3553
  430MOL0     O57923   7.979   2.064  10.581  0.0332 -0.0465  0.8072
  430MOL0     C57924   7.934   2.199  10.546 -0.9115 -0.7155 -0.5104
  430MOL0     C57925   7.784   2.205  10.508 -0.1476  0.3922 -1.2249
  430MOL0     C57926   7.684   2.177  10.628 -0.0534  0.2321 -0.3419
  430MOL0     C57927   7.539   2.174  10.567  0.6608  0.4795 -0.1963
  430MOL0     C57928   7.427   2.164  10.668 -0.7814  0.7740 -0.4839
  430MOL0     C57929   7.399   2.023  10.736  0.4356 -0.0682  0.2376
  430MOL0     C57930   7.327   2.046  10.862  0.0930 -0.1194  0.4053
  430MOL0     C57931   7.284   1.909  10.915 -0.8961 -1.0767  0.2198
  430MOL0     N57932   7.229   1.921  11.050  0.2413 -0.7627  0.3291
  430MOL0     C57933   7.293   1.897  11.161  0.4271  0.1211  0.5533
  430MOL0     C57934   7.203   1.919  11.259  0.0597 -0.5608  0.3428
  430MOL0     C57935   7.215   1.883  11.399 -0.3344 -0.3901 -0.1461
  430MOL0     C57936   7.139   1.989  11.495 -0.7482  0.4447 -0.1396
  430MOL0     C57937   7.030   1.916  11.571  0.2438 -0.9971  0.4144
  430MOL0     C57938   6.935   2.013  11.637 -0.4363 -0.7307 -0.4006
  430MOL0     O57939   6.801   1.962  11.628 -0.6838  0.5018  0.5605
  430MOL0     C57940   6.758   1.867  11.714  0.4762  0.3856  0.9503
  430MOL0     C57941   6.828   1.816  11.830  0.2336 -0.3280  0.3491
  430MOL0     C57942   6.772   1.724  11.914  0.4557  0.9175 -0.4490
  430MOL0     C57943   6.858   1.666  12.020 -0.3750  0.4446 -0.8985
  430MOL0     C57944   6.636   1.679  11.897 -0.2437 -0.6935  0.5330
  430MOL0     C57945   6.556   1.594  11.983  0.4592  0.5759  0.0024
  430MOL0     O57946   6.439   1.544  11.928  0.0533  0.1034  0.6186
  430MOL0     C57947   6.348   1.465  11.984  0.5568 -0.8515 -0.6502
  430MOL0     C57948   6.276   1.365  11.909 -0.6637 -0.1247 -0.0608
  430MOL0     C57949   6.165   1.306  11.963  0.4893  0.6481 -1.1225
  430MOL0     C57950   6.117   1.339  12.087 -0.3114 -0.3786 -0.1108
  430MOL0     O57951   6.007   1.265  12.128  0.5933 -0.1919 -0.8549
  430MOL0     C57952   5.908   1.334  12.207 -0.5398 -0.2272  0.0432
  430MOL0     C57953   5.801   1.242  12.263  0.4426 -0.1581  0.3537
  430MOL0     C57954   5.722   1.306  12.375 -0.0762 -0.2726  0.8768
  430MOL0     C57955   5.684   1.453  12.343 -0.0965  0.1149 -0.1991
  430MOL0     C57956   5.583   1.517  12.438  0.2461  0.0359  0.0934
  430MOL0     C57957   5.493   1.604  12.354  1.1768  0.9596  0.0355
  430MOL0     C57958   5.385   1.666  12.449  0.0112 -0.0687 -0.3218
  430MOL0     C57959   5.436   1.776  12.546 -0.1098 -0.0359  0.6560
  430MOL0    Cl57960   5.288   1.805  12.657  0.1409  0.3359  0.6199
  430MOL0     C57961   6.195   1.423  12.165 -0.1278 -0.7952 -0.4616
  430MOL0     C57962   6.309   1.482  12.117 -0.0110 -0.7043  0.3880
  430MOL0     O57963   6.592   1.567  12.098  1.3130 -0.3012  0.1530
  430MOL0     C57964   6.575   1.737  11.781  0.0757 -0.2933 -0.3367
  430MOL0     C57965   6.628   1.823  11.697 -0.9555  0.0013  0.1743
  430MOL0     N57966   7.082   1.962  11.201 -0.5610 -0.6355  0.2217
  430MOL0     N57967   7.096   1.958  11.071 -0.0524 -0.4084 -0.1682
  430MOL0     C57968   8.188   1.950  10.551  0.6477 -0.0343  0.1265
  430MOL0     C57969   8.283   1.901  10.469  0.1455 -0.5888  0.0563
  430MOL0     C57970   8.601   1.901  10.144 -0.6306  0.3341  0.5849
  430MOL0     C57971   8.743   1.921  10.170  0.3249  0.4516 -0.3246
  430MOL0     C57972   8.843   1.891  10.070 -0.5618  0.2172  0.0943
  430MOL0     C57973   8.816   1.814   9.961  0.1043  0.5544 -0.7634
  430MOL0     O57974   8.921   1.765   9.890  0.4000 -0.0901 -0.0062
  430MOL0     C57975   8.891   1.670   9.795  0.0580 -0.2112  0.9643
  430MOL0     C57976   9.014   1.661   9.694  0.2742 -1.4863  0.7176
  430MOL0     C57977   9.145   1.639   9.763  0.1443 -0.1402 -0.0882
  430MOL0     C57978   9.252   1.629   9.653 -1.3838 -0.0268  0.2504
  430MOL0     C57979   9.385   1.619   9.719  0.9327  0.3650 -0.4027
  430MOL0     C57980   9.488   1.598   9.774 -0.9625 -0.3906  0.4665
  430MOL0     C57981   8.677   1.788   9.935 -0.3478 -0.4003 -0.0634
  430MOL0     C57982   8.574   1.833  10.025 -0.7445  0.3299  0.5834
  430MOL0     H57983   8.149   2.010  10.168  0.0997 -0.0433 -0.6656
  430MOL0     H57984   7.985   2.091  10.310  1.1783  1.3802  0.5705
  430MOL0     H57985   7.926   2.255  10.640 -1.8716  0.1989 -1.1168
  430MOL0     H57986   7.988   2.252  10.468  1.3397 -2.8151 -0.5105
  430MOL0     H57987   7.766   2.308  10.475 -2.2433 -0.4742 -3.0320
  430MOL0     H57988   7.753   2.143  10.423 -3.1462  1.4498 -1.0235
  430MOL0     H57989   7.703   2.095  10.697 -3.0834  1.1909  1.8597
  430MOL0     H57990   7.684   2.273  10.681  0.8816  2.8329 -4.5950
  430MOL0     H57991   7.522   2.259  10.500 -1.8173 -0.2710 -0.6365
  430MOL0     H57992   7.532   2.085  10.505 -0.2515  1.2891 -1.2970
  430MOL0     H57993   7.459   2.237  10.743 -1.5947  0.9508 -0.3047
  430MOL0     H57994   7.337   2.205  10.621 -0.0287  1.0847 -1.6870
  430MOL0     H57995   7.339   1.955  10.676 -1.4816  0.0222  1.9618
  430MOL0     H57996   7.494   1.984  10.775 -0.5125  1.1221  4.2278
  430MOL0     H57997   7.393   2.088  10.938  2.1143 -0.9932 -0.7864
  430MOL0     H57998   7.241   2.114  10.853 -0.5527 -0.7138  1.7272
  430MOL0     H57999   7.356   1.827  10.914 -0.3562 -0.6076 -0.2985
  430MOL0     H58000   7.207   1.881  10.842 -0.4990 -0.1051 -0.5971
  430MOL0     H58001   7.396   1.864  11.171 -0.4917 -2.2442  3.3780
  430MOL0     H58002   7.173   1.783  11.413 -2.9098  0.1223 -3.2091
  430MOL0     H58003   7.324   1.887  11.414 -0.5576  0.9623  1.3799
  430MOL0     H58004   7.093   2.070  11.437  1.0582  3.0939  1.8393
  430MOL0     H58005   7.217   2.032  11.559  0.9227 -2.2819 -0.1523
  430MOL0     H58006   7.071   1.838  11.636 -1.4700 -1.7509  0.6695
  430MOL0     H58007   6.970   1.865  11.495  2.5566 -0.1179 -2.1588
  430MOL0     H58008   6.945   2.109  11.586  1.5095 -0.5272  0.2881
  430MOL0     H58009   6.965   2.032  11.741  2.8277  0.5453 -1.4632
  430MOL0     H58010   6.932   1.848  11.840  0.7236 -1.9853  0.7987
  430MOL0     H58011   6.810   1.698  12.113 -0.7863 -0.7308 -0.6905
  430MOL0     H58012   6.875   1.558  12.018  1.9241  0.7715 -2.1464
  430MOL0     H58013   6.962   1.700  12.026 -0.4911  1.0551 -2.0527
  430MOL0     H58014   6.297   1.343  11.804  1.5621 -0.5104  0.4038
  430MOL0     H58015   6.107   1.240  11.899 -2.0316  0.2948  1.3249
  430MOL0     H58016   5.957   1.374  12.296  1.6473  1.1396 -1.6734
  430MOL0     H58017   5.863   1.415  12.149  1.3532  0.7093 -0.1959
  430MOL0     H58018   5.722   1.220  12.191  1.2707  2.1965 -1.4017
  430MOL0     H58019   5.841   1.146  12.295  0.1804  0.3118  2.2427
  430MOL0     H58020   5.782   1.307  12.467  3.0822 -0.6793 -1.0546
  430MOL0     H58021   5.626   1.260  12.400 -1.1966  0.8044 -1.1695
  430MOL0     H58022   5.773   1.516  12.341  1.0787 -1.4492  0.5608
  430MOL0     H58023   5.631   1.453  12.248 -0.2488 -0.1771 -0.1173
  430MOL0     H58024   5.640   1.581  12.507 -2.0573  2.4809 -0.1110
  430MOL0     H58025   5.522   1.454  12.504  0.1404 -0.8098 -0.7884
  430MOL0     H58026   5.559   1.675  12.303  2.8383 -0.4754  0.1006
  430MOL0     H58027   5.446   1.545  12.274  1.2230  1.4103 -0.3296
  430MOL0     H58028   5.323   1.596  12.507 -1.6875  0.3043 -1.5901
  430MOL0     H58029   5.317   1.717  12.380 -0.8851 -0.1141  0.4930
  430MOL0     H58030   5.457   1.868  12.490  0.9020 -1.1348 -0.8779
  430MOL0     H58031   5.528   1.754  12.601  0.2663 -1.0576 -0.3372
  430MOL0     H58032   6.161   1.462  12.261 -2.1448  1.1321 -1.8428
  430MOL0     H58033   6.347   1.552  12.190 -3.0290 -1.3301  2.7471
  430MOL0     H58034   6.470   1.716  11.765  0.1104 -0.8608  0.1636
  430MOL0     H58035   6.574   1.871  11.616 -1.9726 -1.8536 -0.3095
  430MOL0     H58036   8.205   1.948  10.658  3.0826 -0.9087 -0.2117
  430MOL0     H58037   8.371   1.848  10.503 -1.0038 -2.0187  0.9352
  430MOL0     H58038   8.773   1.988  10.250  0.4063  1.8011 -1.4503
  430MOL0     H58039   8.946   1.910  10.098 -0.8138 -1.6489  2.6601
  430MOL0     H58040   8.872   1.568   9.831  1.1207 -1.3441 -1.4592
  430MOL0     H58041   8.807   1.693   9.730 -0.2015 -3.3404  0.0357
  430MOL0     H58042   9.028   1.753   9.638  0.0902 -1.5481  0.5690
  430MOL0     H58043   8.991   1.589   9.614 -0.2032  0.0606 -0.5772
  430MOL0     H58044   9.137   1.551   9.827  0.2755 -0.2925 -0.2787
  430MOL0     H58045   9.143   1.728   9.825 -3.3426  0.4544 -0.8680
  430MOL0     H58046   9.246   1.721   9.594 -1.7013 -0.7824 -0.9029
  430MOL0     H58047   9.240   1.540   9.592 -2.8840 -0.6070  1.3301
  430MOL0     H58048   9.578   1.580   9.829  0.3829  2.1154 -0.7019
  430MOL0     H58049   8.642   1.738   9.845  2.8147 -3.2642  0.0601
  430MOL0     H58050   8.472   1.823   9.990  0.0715  1.1101 -2.2935
  431MOL0     O58051   3.386   0.592  11.051 -0.0976  0.5777  0.1723
  431MOL0     C58052   3.474   0.652  10.991  0.5723 -1.2130 -1.3706
  431MOL0     O58053   3.475   0.790  10.981  1.2474 -0.2688  0.1622
  431MOL0     C58054   3.363   0.859  11.027  0.5502 -0.8363  0.2177
  431MOL0     C58055   3.348   0.893  11.166 -0.0864  0.4821 -0.0072
  431MOL0     C58056   3.236   0.959  11.208 -0.0883 -1.0538 -0.0556
  431MOL0     C58057   3.144   1.013  11.119  0.2005  0.1307 -0.2993
  431MOL0     O58058   3.030   1.074  11.172  0.5766  0.2580 -0.1680
  431MOL0     C58059   2.972   1.182  11.099  0.4080  0.6528  0.7749
  431MOL0     C58060   2.831   1.172  11.126 -0.2664  0.8241 -0.3921
  431MOL0     C58061   2.749   1.275  11.049  0.7401 -0.2222  1.5786
  431MOL0     C58062   2.730   1.231  10.901 -0.2869  0.2069  0.3232
  431MOL0     C58063   2.625   1.322  10.838  0.4886 -0.8242 -0.0740
  431MOL0     C58064   2.628   1.322  10.683 -1.1248  0.7487  0.0296
  431MOL0     C58065   2.522   1.415  10.627 -0.7122  0.5441 -0.7955
  431MOL0     C58066   2.384   1.358  10.616  0.2440  0.3434  0.4669
  431MOL0     N58067   2.290   1.464  10.558 -0.5610  0.2414 -0.0865
  431MOL0     C58068   2.241   1.585  10.598  0.2887  0.0785 -0.2609
  431MOL0     C58069   2.156   1.619  10.497  0.7776 -0.0472  0.4914
  431MOL0     C58070   2.055   1.736  10.481 -0.4056  0.4292 -1.3716
  431MOL0     C58071   1.916   1.714  10.427 -0.1704 -0.1760 -0.0600
  431MOL0     C58072   1.900   1.728  10.283  0.6393 -0.3704  0.1744
  431MOL0     C58073   1.747   1.727  10.249  0.8669  0.8046  0.6413
  431MOL0     O58074   1.711   1.732  10.112  0.6259  0.1941 -0.7494
  431MOL0     C58075   1.571   1.738  10.080 -0.6559  0.0813  0.2341
  431MOL0     C58076   1.470   1.753  10.173  1.5891 -0.3792  0.2713
  431MOL0     C58077   1.330   1.769  10.137 -0.1107  0.0019  0.6238
  431MOL0     C58078   1.231   1.798  10.247  0.1252 -0.5345  0.5350
  431MOL0     C58079   1.297   1.760   9.996 -0.1158  0.0752 -0.3404
  431MOL0     C58080   1.167   1.773   9.931 -0.3644 -1.1303  0.5942
  431MOL0     O58081   1.058   1.771  10.006  0.1003  0.7274  0.1237
  431MOL0     C58082   0.944   1.797   9.942  0.8547 -0.0692 -0.1102
  431MOL0     C58083   0.869   1.911   9.965 -0.7046 -0.3067  0.9735
  431MOL0     C58084   0.740   1.919   9.927 -0.3038  0.6941 -0.3844
  431MOL0     C58085   0.679   1.819   9.856  0.3650  0.7603  1.0396
  431MOL0     O58086   0.548   1.812   9.826  0.2329 -0.6272  0.1911
  431MOL0     C58087   0.451   1.917   9.861  0.1570 -0.2987 -0.2633
  431MOL0     C58088   0.310   1.866   9.852 -0.0597  0.1353  0.9041
  431MOL0     C58089   0.215   1.983   9.877  0.3519  0.5566  0.6267
  431MOL0     C58090   0.075   1.926   9.916 -0.9240 -0.9057  0.4080
  431MOL0     C58091  -0.019   2.044   9.935 -0.4719 -0.7562 -0.0921
  431MOL0     C58092  -0.024   2.096  10.079 -0.3993 -0.4781 -0.6752
  431MOL0     C58093  -0.116   2.222  10.099 -0.2640  0.7343 -0.7727
  431MOL0     C58094  -0.122   2.249  10.249 -0.1654 -0.1875 -0.1250
  431MOL0    Cl58095  -0.204   2.417  10.265 -0.5760  0.1591  0.1671
  431MOL0     C58096   0.752   1.703   9.825 -0.7258 -0.2361  0.5091
  431MOL0     C58097   0.881   1.691   9.870 -0.6312 -0.5047  0.1862
  431MOL0     O58098   1.165   1.788   9.810  0.0625 -0.6304 -0.0465
  431MOL0     C58099   1.415   1.729   9.901  0.2906 -0.3288 -0.5491
  431MOL0     C58100   1.549   1.730   9.944 -0.7411  0.4629 -0.5166
  431MOL0     N58101   2.175   1.532  10.388 -0.2344  1.2417  0.3037
  431MOL0     N58102   2.269   1.449  10.426 -0.0453 -1.0895  0.6271
  431MOL0     C58103   3.165   0.990  10.984  0.1098  0.3116 -0.0366
  431MOL0     C58104   3.271   0.912  10.938 -0.6302  0.2904 -0.0832
  431MOL0     C58105   3.576   0.583  10.917 -0.3451  0.0679 -0.9259
  431MOL0     C58106   3.599   0.446  10.952 -0.6721 -0.5803 -0.6534
  431MOL0     C58107   3.698   0.379  10.890 -0.0287  0.3653  0.4139
  431MOL0     C58108   3.783   0.444  10.799 -0.6218 -0.5196 -0.1203
  431MOL0     O58109   3.886   0.381  10.735  0.5703 -0.1014 -0.2609
  431MOL0     C58110   3.905   0.241  10.763  0.5978  0.0958  1.1063
  431MOL0     C58111   4.004   0.185  10.671 -0.7377 -0.0484  0.9660
  431MOL0     C58112   3.981   0.215  10.520  0.9638  0.1731  0.0208
  431MOL0     C58113   3.898   0.113  10.441 -0.1377 -0.3845  0.1066
  431MOL0     C58114   3.831   0.187  10.334 -0.7687  0.0966 -0.6687
  431MOL0     C58115   3.778   0.248  10.241  0.6009 -0.6522 -0.2787
  431MOL0     C58116   3.756   0.577  10.766 -0.2876  0.3773 -0.8209
  431MOL0     C58117   3.653   0.651  10.821 -1.2101 -1.0064  0.1107
  431MOL0     H58118   3.421   0.839  11.226  0.3940 -0.7539 -1.6275
  431MOL0     H58119   3.218   0.969  11.315  1.3411 -3.4101  0.4910
  431MOL0     H58120   3.005   1.280  11.135  2.3605  0.0188  0.8238
  431MOL0     H58121   2.975   1.160  10.992 -1.5617  0.2142  0.7612
  431MOL0     H58122   2.804   1.069  11.100  1.5025  0.7917 -2.4150
  431MOL0     H58123   2.819   1.183  11.234  0.1660 -2.0434  0.0127
  431MOL0     H58124   2.651   1.278  11.098 -0.3786 -1.5385 -0.4373
  431MOL0     H58125   2.787   1.377  11.063 -2.3460  1.3311 -0.2120
  431MOL0     H58126   2.818   1.243  10.838 -1.5774 -2.6019 -2.2360
  431MOL0     H58127   2.700   1.126  10.899 -1.9206  0.5928  1.6315
  431MOL0     H58128   2.530   1.286  10.878  1.0509  0.3690  2.5587
  431MOL0     H58129   2.652   1.423  10.870 -0.1545 -0.6888  0.0595
  431MOL0     H58130   2.726   1.354  10.645 -1.5746  2.2340  0.0717
  431MOL0     H58131   2.614   1.217  10.655  0.8103  0.7819 -1.2710
  431MOL0     H58132   2.516   1.509  10.683  0.0108  1.0160 -1.4834
  431MOL0     H58133   2.545   1.434  10.522 -2.9928  2.4543 -1.0245
  431MOL0     H58134   2.349   1.326  10.715 -0.1936 -0.4379  0.0665
  431MOL0     H58135   2.374   1.271  10.552 -3.8118  1.3210 -0.4874
  431MOL0     H58136   2.257   1.635  10.694  2.5145 -0.6224 -0.2177
  431MOL0     H58137   2.046   1.760  10.587 -3.9827 -1.5473 -1.0535
  431MOL0     H58138   2.105   1.816  10.426 -3.2511  1.3322 -2.8525
  431MOL0     H58139   1.848   1.785  10.477  0.5844  0.4673  0.0778
  431MOL0     H58140   1.873   1.615  10.443 -0.6183 -0.4027 -2.3840
  431MOL0     H58141   1.953   1.647  10.231 -1.3246 -1.7576  0.2539
  431MOL0     H58142   1.943   1.822  10.246  0.9460  0.0875  1.6360
  431MOL0     H58143   1.702   1.812  10.301  2.3942  0.3709  2.8189
  431MOL0     H58144   1.701   1.638  10.293 -0.7545  1.8561  1.1609
  431MOL0     H58145   1.484   1.774  10.279 -1.3078  1.3675  0.4339
  431MOL0     H58146   1.175   1.709  10.275  1.2859 -0.4825  3.2522
  431MOL0     H58147   1.286   1.850  10.326  1.6146 -0.3860 -0.5492
  431MOL0     H58148   1.165   1.873  10.201  1.5315  2.2611  2.7429
  431MOL0     H58149   0.902   1.996  10.024 -1.4261  0.4199  0.3546
  431MOL0     H58150   0.690   2.011   9.955  1.4707  1.7935 -0.6139
  431MOL0     H58151   0.467   1.960   9.960  1.8242 -0.9907 -0.1953
  431MOL0     H58152   0.456   2.000   9.789  0.1462 -0.5175 -0.5199
  431MOL0     H58153   0.297   1.828   9.750  4.3119 -0.5211  0.4115
  431MOL0     H58154   0.289   1.786   9.924 -1.1758  1.3282  1.9421
  431MOL0     H58155   0.211   2.050   9.791  0.3482  1.4269  1.2894
  431MOL0     H58156   0.257   2.040   9.960  1.5856 -0.7601  0.9460
  431MOL0     H58157   0.047   1.858   9.836  1.5674 -0.5312 -0.8872
  431MOL0     H58158   0.074   1.875  10.013 -0.5056 -0.5642  0.5976
  431MOL0     H58159  -0.116   1.998   9.916  0.1001 -2.8479  1.6516
  431MOL0     H58160   0.003   2.126   9.866  5.7117 -2.2208 -0.4538
  431MOL0     H58161  -0.059   2.020  10.150  0.1162  1.6257  2.0171
  431MOL0     H58162   0.082   2.112  10.098 -0.0175 -3.1074 -0.1681
  431MOL0     H58163  -0.217   2.212  10.058 -0.2676 -2.7048 -0.1734
  431MOL0     H58164  -0.068   2.307  10.050  1.5306 -0.7611 -1.7211
  431MOL0     H58165  -0.021   2.250  10.291 -0.6542 -1.6308  1.1521
  431MOL0     H58166  -0.187   2.172  10.292 -0.9540  1.3120  1.5270
  431MOL0     H58167   0.701   1.623   9.773 -0.2813  0.0853 -0.4320
  431MOL0     H58168   0.926   1.592   9.863 -2.0634 -1.1716  0.1799
  431MOL0     H58169   1.389   1.716   9.797 -1.6881  5.1052 -1.0894
  431MOL0     H58170   1.629   1.706   9.875 -1.5142 -1.1156 -0.9284
  431MOL0     H58171   3.094   1.027  10.911  0.7693 -0.9523 -1.3678
  431MOL0     H58172   3.282   0.906  10.830 -3.0518 -0.7873 -0.3259
  431MOL0     H58173   3.545   0.397  11.032  0.3403  0.6735  0.8569
  431MOL0     H58174   3.710   0.274  10.916 -0.3803  0.2593  0.1574
  431MOL0     H58175   3.944   0.223  10.863  0.3739 -0.4190  1.1053
  431MOL0     H58176   3.811   0.186  10.751  0.5220  0.1894  1.2727
  431MOL0     H58177   4.023   0.080  10.694  1.6110  0.1101  0.0874
  431MOL0     H58178   4.103   0.229  10.689 -0.9440  2.4774 -2.8112
  431MOL0     H58179   4.083   0.218  10.480  0.8134  0.7923 -0.3328
  431MOL0     H58180   3.938   0.315  10.513 -0.8320 -0.5846 -0.3274
  431MOL0     H58181   3.821   0.074  10.508  1.6277 -1.2437  1.7061
  431MOL0     H58182   3.969   0.036  10.409 -0.0787  0.1660 -1.1495
  431MOL0     H58183   3.742   0.293  10.151 -0.5582 -0.7538  0.1209
  431MOL0     H58184   3.830   0.621  10.701  0.8331  0.7682  0.6486
  431MOL0     H58185   3.633   0.757  10.804 -1.3550 -0.9194  0.7862
  432MOL0     O58186  10.481   9.604   0.842  0.0846  0.0647 -0.2167
  432MOL0     C58187  10.449   9.506   0.906  0.5871  0.6093  0.7034
  432MOL0     O58188  10.517   9.387   0.927 -0.5388 -0.6216 -0.1853
  432MOL0     C58189  10.657   9.405   0.901  1.2148  0.6299  0.0259
  432MOL0     C58190  10.737   9.476   0.983  0.9570 -1.3476 -0.1396
  432MOL0     C58191  10.872   9.506   0.951  0.2498  0.1859 -0.1363
  432MOL0     C58192  10.924   9.448   0.841  0.3718 -0.6603 -0.8973
  432MOL0     O58193  11.054   9.447   0.794  0.3030  0.3660 -0.3025
  432MOL0     C58194  11.141   9.541   0.853  0.4111 -1.2563 -0.1267
  432MOL0     C58195  11.280   9.553   0.782  0.2572 -0.6124  0.4299
  432MOL0     C58196  11.349   9.420   0.779  0.3068 -0.2084 -0.4881
  432MOL0     C58197  11.493   9.421   0.739 -0.0634  0.4160 -0.4958
  432MOL0     C58198  11.594   9.471   0.845 -0.3225  0.8271  0.1309
  432MOL0     C58199  11.737   9.471   0.801 -0.6677 -0.2507 -0.7110
  432MOL0     C58200  11.831   9.525   0.915 -0.1686 -0.0409  0.1567
  432MOL0     C58201  11.971   9.502   0.853  0.9157 -0.1990  0.9960
  432MOL0     N58202  12.080   9.568   0.918  0.4030 -0.8186 -0.2279
  432MOL0     C58203  12.113   9.554   1.050  0.0037 -0.4034 -0.1321
  432MOL0     C58204  12.221   9.634   1.070 -0.4358 -0.1892  0.2786
  432MOL0     C58205  12.304   9.629   1.195 -0.7744  0.0567  0.0214
  432MOL0     C58206  12.223   9.599   1.322  0.5201 -0.7590 -0.4325
  432MOL0     C58207  12.133   9.715   1.365  0.0932  0.0946  0.5540
  432MOL0     C58208  12.013   9.736   1.288  1.0392  0.3059  0.3842
  432MOL0     O58209  11.905   9.638   1.313 -0.9281  0.2790 -0.3653
  432MOL0     C58210  11.775   9.660   1.279 -0.7176 -0.1564 -0.4559
  432MOL0     C58211  11.722   9.785   1.240 -0.0004 -0.2357 -0.4033
  432MOL0     C58212  11.587   9.807   1.190  1.6707 -0.1973 -0.1988
  432MOL0     C58213  11.539   9.950   1.161 -0.3747 -0.0513  0.0070
  432MOL0     C58214  11.505   9.693   1.192  0.5446  0.6971 -0.4830
  432MOL0     C58215  11.366   9.683   1.137 -0.7334 -0.6993 -0.3912
  432MOL0     O58216  11.310   9.793   1.071 -0.3920 -1.0535 -0.3568
  432MOL0     C58217  11.180   9.820   1.075 -0.0408  0.3976 -0.5058
  432MOL0     C58218  11.089   9.772   1.171  0.0177 -0.1754 -0.0441
  432MOL0     C58219  10.953   9.805   1.159  0.5520 -0.1047 -0.2093
  432MOL0     C58220  10.901   9.880   1.053 -0.4250  0.1444  0.9604
  432MOL0     O58221  10.765   9.906   1.021 -0.1739 -0.2106  0.0114
  432MOL0     C58222  10.668   9.846   1.112 -0.0747  0.3820  0.4629
  432MOL0     C58223  10.529   9.866   1.077 -0.4230  0.6767 -0.0564
  432MOL0     C58224  10.487  10.008   1.063  0.3693  0.9780 -0.1835
  432MOL0     C58225  10.339  10.028   1.072  0.5414  0.6525  0.3456
  432MOL0     C58226  10.289  10.131   0.969 -0.2864  0.0215 -0.7018
  432MOL0     C58227  10.141  10.102   0.939 -0.6354  0.5204  0.5485
  432MOL0     C58228  10.093  10.189   0.820  0.0336  0.1305 -0.3888
  432MOL0     C58229   9.960  10.256   0.843  0.6161 -0.7044 -0.2141
  432MOL0    Cl58230   9.832  10.139   0.870  0.1151 -0.4718  0.3421
  432MOL0     C58231  10.996   9.930   0.959 -0.3122  0.4215 -0.4795
  432MOL0     C58232  11.135   9.908   0.973  0.3486  0.3400  0.3372
  432MOL0     O58233  11.306   9.580   1.165 -0.4559  0.0014  0.3164
  432MOL0     C58234  11.567   9.567   1.225  0.2599  0.3394  0.4337
  432MOL0     C58235  11.697   9.552   1.265  0.3460  0.3604 -0.0838
  432MOL0     N58236  12.252   9.695   0.954 -0.1630 -0.4290  0.0334
  432MOL0     N58237  12.162   9.651   0.862  0.5572 -0.2693 -0.4307
  432MOL0     C58238  10.843   9.376   0.753 -0.2704  0.1616 -0.4626
  432MOL0     C58239  10.704   9.359   0.781  0.3757 -0.6847  0.0695
  432MOL0     C58240  10.304   9.507   0.937  0.8719 -0.0965 -0.9467
  432MOL0     C58241  10.237   9.392   0.982 -0.3290  0.0891 -0.5752
  432MOL0     C58242  10.102   9.399   1.020  0.4893  0.2513  0.2695
  432MOL0     C58243  10.033   9.520   1.031 -0.4389  0.7233  0.6458
  432MOL0     O58244   9.901   9.529   1.076  0.3554  0.0818  0.1751
  432MOL0     C58245   9.823   9.409   1.118 -0.0306 -0.9184 -0.3241
  432MOL0     C58246   9.676   9.442   1.139  0.8374 -1.2222 -1.1268
  432MOL0     C58247   9.645   9.557   1.237  0.3652  0.0768  0.5201
  432MOL0     C58248   9.504   9.545   1.295 -0.1133 -0.5759 -0.2592
  432MOL0     C58249   9.394   9.567   1.202 -0.5805  0.1854 -0.1432
  432MOL0     C58250   9.295   9.580   1.141  0.0031 -0.1346 -0.2830
  432MOL0     C58251  10.099   9.635   0.987  0.0536  0.2224  0.5049
  432MOL0     C58252  10.228   9.627   0.939 -0.5054 -0.8652 -0.3518
  432MOL0     H58253  10.691   9.516   1.073  0.0910  0.6355 -1.3822
  432MOL0     H58254  10.934   9.558   1.024  1.2652 -1.4342  0.2100
  432MOL0     H58255  11.096   9.641   0.853  2.7801 -0.0826  1.7094
  432MOL0     H58256  11.167   9.506   0.953 -1.5367 -2.1533  0.1267
  432MOL0     H58257  11.255   9.582   0.679  1.0229  0.0860  0.4316
  432MOL0     H58258  11.342   9.628   0.832  0.0065 -0.0850 -0.0336
  432MOL0     H58259  11.331   9.382   0.880  0.6636  0.2164 -0.2650
  432MOL0     H58260  11.303   9.356   0.703  0.9246  1.2873 -2.1962
  432MOL0     H58261  11.521   9.319   0.711  0.7772  0.5379 -0.1435
  432MOL0     H58262  11.508   9.490   0.656  1.6738  3.1198  1.8606
  432MOL0     H58263  11.576   9.576   0.870  2.2475  1.0908  1.1526
  432MOL0     H58264  11.596   9.409   0.935  0.2950  1.5754  0.6489
  432MOL0     H58265  11.762   9.367   0.781  2.1793  0.3790 -0.7365
  432MOL0     H58266  11.742   9.531   0.709 -2.2284 -0.7418 -1.1512
  432MOL0     H58267  11.817   9.633   0.927  0.8677  0.2182 -0.7450
  432MOL0     H58268  11.831   9.482   1.015 -1.8378  2.4714  1.3491
  432MOL0     H58269  11.969   9.538   0.750 -0.3966 -1.9437  0.3759
  432MOL0     H58270  12.004   9.398   0.858  2.5677  0.3019  1.0490
  432MOL0     H58271  12.064   9.490   1.123 -0.8761 -0.5963 -0.8729
  432MOL0     H58272  12.391   9.562   1.192 -0.0678  0.5283  4.1918
  432MOL0     H58273  12.349   9.728   1.182 -1.6342  0.3748 -0.6094
  432MOL0     H58274  12.290   9.579   1.406  2.3293  1.9829 -1.0848
  432MOL0     H58275  12.158   9.514   1.297 -1.2090  0.3316  0.2211
  432MOL0     H58276  12.184   9.812   1.363 -0.0276  0.1534  0.3146
  432MOL0     H58277  12.117   9.695   1.471  2.5795  0.5933  1.0970
  432MOL0     H58278  12.027   9.739   1.179  0.9844 -0.7934  0.3373
  432MOL0     H58279  11.971   9.834   1.312 -4.0847 -0.9707 -1.8407
  432MOL0     H58280  11.778   9.875   1.262  0.3261 -0.1705 -1.4460
  432MOL0     H58281  11.553   9.973   1.055 -0.5470 -0.3012 -0.0701
  432MOL0     H58282  11.437   9.983   1.184 -0.3488  0.9895 -1.2117
  432MOL0     H58283  11.609  10.014   1.217 -0.4612  0.2601 -0.2320
  432MOL0     H58284  11.125   9.716   1.257  1.3328 -0.0081 -0.4628
  432MOL0     H58285  10.888   9.755   1.229  0.6074  3.5218  2.7373
  432MOL0     H58286  10.687   9.738   1.111 -1.7420  0.0287 -1.9035
  432MOL0     H58287  10.687   9.890   1.210  1.9501 -1.3099  0.9090
  432MOL0     H58288  10.498   9.812   0.987  0.7749 -1.3547  0.6988
  432MOL0     H58289  10.472   9.817   1.157 -1.9344 -0.6062 -1.8166
  432MOL0     H58290  10.525  10.039   0.965  1.2829 -0.9515 -0.4990
  432MOL0     H58291  10.538  10.065   1.141 -0.9455  0.2048  1.2711
  432MOL0     H58292  10.290   9.930   1.060  1.7168 -0.4931  3.8178
  432MOL0     H58293  10.316  10.082   1.164 -1.8319  2.3194 -1.1119
  432MOL0     H58294  10.343  10.125   0.874 -0.6697 -2.6037 -0.8317
  432MOL0     H58295  10.294  10.233   1.008 -1.9842  0.0912 -0.5992
  432MOL0     H58296  10.133   9.998   0.909 -1.0736  1.6895 -4.0633
  432MOL0     H58297  10.074  10.116   1.025 -0.8593 -0.3375  0.5193
  432MOL0     H58298  10.070  10.123   0.736 -1.3096 -3.0029  2.1907
  432MOL0     H58299  10.169  10.262   0.792  0.4020  0.6416  1.7356
  432MOL0     H58300   9.938  10.319   0.756  0.6020  0.9132  0.9224
  432MOL0     H58301   9.969  10.335   0.918  2.7043 -0.4666 -0.6408
  432MOL0     H58302  10.950   9.977   0.873 -1.9035 -1.5088 -0.7720
  432MOL0     H58303  11.215   9.939   0.906  0.8498 -0.6726  0.4448
  432MOL0     H58304  11.505   9.477   1.225 -0.5686  0.8894  1.2638
  432MOL0     H58305  11.742   9.453   1.266  1.0554  0.5995 -2.4428
  432MOL0     H58306  10.894   9.332   0.668  0.1307 -3.1553  1.3182
  432MOL0     H58307  10.638   9.300   0.719  0.3132 -2.1909  1.5107
  432MOL0     H58308  10.287   9.298   1.005 -0.8800 -0.0763 -0.0201
  432MOL0     H58309  10.056   9.307   1.055  0.9388 -0.2459 -0.4308
  432MOL0     H58310   9.838   9.327   1.046  0.8373 -0.6763 -0.4328
  432MOL0     H58311   9.873   9.365   1.204  1.3612  0.6055 -0.3111
  432MOL0     H58312   9.618   9.355   1.172 -1.3409  0.8353  0.7755
  432MOL0     H58313   9.628   9.470   1.045  2.8037  0.6503 -1.6396
  432MOL0     H58314   9.654   9.650   1.178 -1.2828  2.5462  3.8226
  432MOL0     H58315   9.716   9.556   1.320  0.0530  0.8721  0.8124
  432MOL0     H58316   9.491   9.625   1.369 -4.1416  0.1370 -1.4644
  432MOL0     H58317   9.484   9.446   1.338  1.7966 -1.0567 -0.4031
  432MOL0     H58318   9.206   9.575   1.081  0.8787 -1.0859 -1.5726
  432MOL0     H58319  10.040   9.725   0.990 -1.0929 -0.4981  0.1278
  432MOL0     H58320  10.272   9.721   0.907 -1.5815 -0.8633 -1.9386
  433MOL0     O58321  11.272  10.213   0.518  0.7863 -0.4580 -0.0932
  433MOL0     C58322  11.258  10.110   0.578  0.1539 -0.6919  0.1427
  433MOL0     O58323  11.137  10.068   0.637 -0.6078  0.1184  0.1942
  433MOL0     C58324  11.023  10.126   0.601  0.5456  0.1682 -0.5598
  433MOL0     C58325  10.942  10.180   0.701 -0.1598 -0.3725 -0.2459
  433MOL0     C58326  10.816  10.222   0.667  0.0763 -0.2890 -0.3863
  433MOL0     C58327  10.763  10.215   0.534  0.3947 -0.1894  0.4481
  433MOL0     O58328  10.636  10.277   0.523  0.9985  0.3193  0.3292
  433MOL0     C58329  10.598  10.305   0.387  0.0415  0.0813  0.1650
  433MOL0     C58330  10.476  10.397   0.383 -0.3808  0.5516 -0.1422
  433MOL0     C58331  10.357  10.341   0.463  0.3999 -0.3436 -0.2479
  433MOL0     C58332  10.236  10.440   0.437 -0.5919 -0.2507 -0.9848
  433MOL0     C58333  10.104  10.389   0.490 -0.0434  0.6161  0.2974
  433MOL0     C58334   9.986  10.469   0.426 -0.4821  0.2899 -0.1544
  433MOL0     C58335   9.845  10.438   0.494 -0.5954 -0.4555  0.1292
  433MOL0     C58336   9.804  10.296   0.474 -0.2333 -0.5859  0.7248
  433MOL0     N58337   9.664  10.277   0.510  0.7859  0.0189 -0.0952
  433MOL0     C58338   9.596  10.165   0.478  0.3897  0.0249 -0.5930
  433MOL0     C58339   9.479  10.172   0.548  0.5418 -0.5030  0.1381
  433MOL0     C58340   9.354  10.081   0.531 -0.6271 -1.0945 -0.6151
  433MOL0     C58341   9.310  10.061   0.381 -0.4995  0.3116  0.1921
  433MOL0     C58342   9.160  10.035   0.378  0.3660  0.7672  0.6532
  433MOL0     C58343   9.107  10.018   0.236 -0.3504 -0.6246 -0.1927
  433MOL0     O58344   8.971   9.969   0.243 -0.0620 -0.5089 -1.2549
  433MOL0     C58345   8.867  10.059   0.233  0.5215 -0.4835  0.1010
  433MOL0     C58346   8.871  10.180   0.293  0.5667  0.1618  0.9266
  433MOL0     C58347   8.756  10.269   0.306  0.1132 -0.2464  0.3140
  433MOL0     C58348   8.778  10.392   0.395  0.1888  0.2363  0.1216
  433MOL0     C58349   8.626  10.217   0.271 -0.1575  0.0904 -0.5959
  433MOL0     C58350   8.492  10.274   0.293 -1.0339  0.4147 -0.3619
  433MOL0     O58351   8.500  10.391   0.377  0.1895  0.2734  0.6043
  433MOL0     C58352   8.387  10.430   0.429  0.0697  0.4856 -0.1563
  433MOL0     C58353   8.313  10.532   0.366 -0.1150 -0.2196 -0.0504
  433MOL0     C58354   8.188  10.562   0.410  0.7946 -0.0853 -0.6516
  433MOL0     C58355   8.121  10.501   0.516  0.8573 -0.6406  0.0673
  433MOL0     O58356   7.991  10.537   0.534  0.7159  0.8293 -0.2150
  433MOL0     C58357   7.924  10.488   0.655 -0.1419  0.2620  0.1066
  433MOL0     C58358   7.775  10.527   0.641 -0.4462 -0.5423  0.0871
  433MOL0     C58359   7.703  10.442   0.543  0.6356  0.2746  0.6132
  433MOL0     C58360   7.554  10.480   0.543  0.6094  1.2873 -0.6131
  433MOL0     C58361   7.477  10.370   0.473  1.1057  0.1394  0.0880
  433MOL0     C58362   7.481  10.377   0.319 -0.5799 -0.2220 -0.0462
  433MOL0     C58363   7.425  10.250   0.254 -0.0956  0.0906 -0.0081
  433MOL0     C58364   7.400  10.261   0.101 -0.6889 -0.4380 -0.0494
  433MOL0    Cl58365   7.549  10.282   0.006 -0.1341  0.0333  0.2763
  433MOL0     C58366   8.190  10.404   0.582 -0.5286 -0.1706 -0.3176
  433MOL0     C58367   8.324  10.369   0.539  0.2281 -0.0182  0.0195
  433MOL0     O58368   8.396  10.217   0.248  1.0356 -1.2944  0.2906
  433MOL0     C58369   8.623  10.095   0.205 -0.0664  0.9927 -0.5516
  433MOL0     C58370   8.741  10.025   0.193 -0.5802  0.3716  0.1509
  433MOL0     N58371   9.485  10.285   0.629 -0.8730  0.5473 -0.0515
  433MOL0     N58372   9.591  10.343   0.605 -0.0463  0.3577 -0.3127
  433MOL0     C58373  10.844  10.153   0.434 -0.3164  0.3648  0.0681
  433MOL0     C58374  10.978  10.114   0.473 -0.8222  0.2644  0.0605
  433MOL0     C58375  11.377  10.018   0.594 -0.2255 -0.2159 -0.5353
  433MOL0     C58376  11.384   9.898   0.655 -0.4619  0.0630  0.1274
  433MOL0     C58377  11.499   9.810   0.653 -0.5580 -1.2611 -0.5432
  433MOL0     C58378  11.617   9.861   0.590  1.2951  0.8471  0.2950
  433MOL0     O58379  11.720   9.775   0.596  0.2064  0.1194  0.2001
  433MOL0     C58380  11.846   9.833   0.622 -0.4688 -0.4730 -0.1168
  433MOL0     C58381  11.860   9.886   0.770 -0.1151 -0.1606  0.2405
  433MOL0     C58382  12.008   9.937   0.783  0.0911 -0.7980 -0.1260
  433MOL0     C58383  12.038   9.992   0.920 -0.4016  0.2151  0.4590
  433MOL0     C58384  11.966  10.109   0.961  0.7412  0.2190 -0.0343
  433MOL0     C58385  11.888  10.203   0.998  0.0187 -0.0359  0.2641
  433MOL0     C58386  11.609   9.985   0.516 -0.4595  1.2279 -0.4458
  433MOL0     C58387  11.489  10.056   0.511 -0.6894  0.1485  0.8845
  433MOL0     H58388  10.998  10.176   0.794  0.0858  0.0859 -0.3740
  433MOL0     H58389  10.757  10.256   0.751 -0.7278 -0.5563 -0.8364
  433MOL0     H58390  10.679  10.345   0.325 -2.0728 -0.7463 -3.4058
  433MOL0     H58391  10.564  10.212   0.340 -1.6223  0.3085  0.8729
  433MOL0     H58392  10.489  10.496   0.427 -0.6940  0.1925  0.7612
  433MOL0     H58393  10.456  10.415   0.276 -0.1110  0.3184 -0.2342
  433MOL0     H58394  10.337  10.236   0.437  1.3959 -0.4601 -0.5766
  433MOL0     H58395  10.384  10.344   0.569  3.6984 -0.4691 -0.9948
  433MOL0     H58396  10.268  10.524   0.498  2.0177  0.0796 -2.6048
  433MOL0     H58397  10.236  10.465   0.330  3.3872 -1.2716 -1.3921
  433MOL0     H58398  10.102  10.282   0.466  0.3374  0.7545 -0.3546
  433MOL0     H58399  10.094  10.411   0.597 -2.4763 -1.6914  0.6669
  433MOL0     H58400  10.006  10.577   0.429 -2.0238  0.5858  0.1156
  433MOL0     H58401   9.980  10.451   0.318  2.4026 -1.0261 -0.1943
  433MOL0     H58402   9.850  10.480   0.595  1.7818  3.7492 -1.4542
  433MOL0     H58403   9.781  10.502   0.432  0.4702  1.3115  0.7828
  433MOL0     H58404   9.864  10.223   0.528  0.7767  0.9341  1.7417
  433MOL0     H58405   9.812  10.279   0.366 -1.4204  0.9959  0.3462
  433MOL0     H58406   9.612  10.091   0.400  0.1015 -1.2113  0.4852
  433MOL0     H58407   9.370   9.988   0.586 -1.4111 -0.1246  1.3513
  433MOL0     H58408   9.276  10.123   0.595 -0.7022 -2.4044  0.1954
  433MOL0     H58409   9.358   9.971   0.342 -0.0397 -0.2969  2.0420
  433MOL0     H58410   9.338  10.145   0.317 -0.1716 -0.5344 -0.7993
  433MOL0     H58411   9.098  10.095   0.446 -1.8855 -0.3857 -0.2895
  433MOL0     H58412   9.145   9.933   0.413  2.3618 -0.4679 -1.7541
  433MOL0     H58413   9.164   9.937   0.190 -2.3169 -1.3121 -1.5436
  433MOL0     H58414   9.129  10.115   0.191 -1.3025 -0.6346 -0.7046
  433MOL0     H58415   8.968  10.212   0.330  1.0341  0.0619 -0.1670
  433MOL0     H58416   8.732  10.481   0.352 -0.2644 -1.6615 -3.6746
  433MOL0     H58417   8.739  10.362   0.493 -0.3058 -1.2142 -0.4986
  433MOL0     H58418   8.884  10.416   0.407 -0.0904  0.9892  1.3381
  433MOL0     H58419   8.345  10.579   0.273 -0.4043  0.0532 -0.0174
  433MOL0     H58420   8.125  10.637   0.363  2.0728  0.9936 -0.7114
  433MOL0     H58421   7.929  10.379   0.664 -1.7877  0.0973 -0.6714
  433MOL0     H58422   7.975  10.527   0.743  2.1428  2.5312 -2.0297
  433MOL0     H58423   7.732  10.514   0.740  1.5379  0.5775  1.1715
  433MOL0     H58424   7.759  10.634   0.621 -0.2815 -0.5435 -0.0553
  433MOL0     H58425   7.710  10.338   0.578 -4.4720  0.3638  2.8135
  433MOL0     H58426   7.735  10.459   0.440  2.9208  2.0654  1.5393
  433MOL0     H58427   7.517  10.490   0.646 -1.0646  0.1812 -1.0567
  433MOL0     H58428   7.535  10.578   0.499  1.4669  1.0655 -1.4967
  433MOL0     H58429   7.373  10.379   0.507  1.5135  0.1303  1.3763
  433MOL0     H58430   7.507  10.271   0.508 -2.4661 -0.0270  3.4366
  433MOL0     H58431   7.444  10.471   0.276  0.8630 -1.4567 -4.5053
  433MOL0     H58432   7.588  10.371   0.297 -0.7359 -0.3482 -0.7990
  433MOL0     H58433   7.328  10.239   0.303 -0.5845  1.7719 -0.5348
  433MOL0     H58434   7.483  10.157   0.264  0.9557  0.6980 -0.3644
  433MOL0     H58435   7.329  10.342   0.082  0.7492  1.3848  1.8648
  433MOL0     H58436   7.356  10.164   0.076  2.0945 -2.1422  1.1955
  433MOL0     H58437   8.141  10.348   0.661 -3.3610  0.2098 -1.7215
  433MOL0     H58438   8.370  10.291   0.598 -0.4878 -0.4298  0.0511
  433MOL0     H58439   8.529  10.050   0.175 -0.9262 -0.3941  3.6016
  433MOL0     H58440   8.736   9.922   0.161  2.2600 -0.9967  3.5005
  433MOL0     H58441  10.799  10.136   0.337 -2.1235  0.8392  0.7649
  433MOL0     H58442  11.051  10.075   0.404  1.7325  2.6820  1.1890
  433MOL0     H58443  11.300   9.867   0.717  0.7135  0.7831  2.2037
  433MOL0     H58444  11.486   9.717   0.708 -0.1347 -0.6226  0.6643
  433MOL0     H58445  11.919   9.754   0.602 -0.8097 -0.4006 -1.7786
  433MOL0     H58446  11.864   9.916   0.552 -0.1095  1.2023  1.8666
  433MOL0     H58447  11.827   9.811   0.843  1.3371 -1.6076 -0.5175
  433MOL0     H58448  11.795   9.972   0.785  1.1866  0.5036  2.7393
  433MOL0     H58449  12.027  10.012   0.705  2.7588 -1.7535 -0.4915
  433MOL0     H58450  12.072   9.849   0.772  0.2486 -0.5362 -1.5140
  433MOL0     H58451  12.144  10.016   0.928 -0.1715 -0.0135 -1.4486
  433MOL0     H58452  12.010   9.917   0.995  1.2926 -1.2887 -0.3410
  433MOL0     H58453  11.847  10.299   1.022 -0.2860 -0.1646  0.2665
  433MOL0     H58454  11.692  10.013   0.452 -0.5115  3.5203  0.3779
  433MOL0     H58455  11.485  10.140   0.443 -0.6782  0.3548  1.1402
  434MOL0     O58456   5.382   9.465   5.377 -1.3397 -0.9886 -0.0339
  434MOL0     C58457   5.477   9.457   5.294 -0.1173  0.5247 -0.1115
  434MOL0     O58458   5.474   9.497   5.166 -0.8821  0.3162  0.3061
  434MOL0     C58459   5.374   9.561   5.112 -0.3684 -0.2101 -0.0687
  434MOL0     C58460   5.351   9.532   4.974  0.4361 -0.0999 -0.6477
  434MOL0     C58461   5.230   9.565   4.909  1.0321  0.5649  0.3213
  434MOL0     C58462   5.138   9.647   4.977  0.2118  0.7802 -0.0196
  434MOL0     O58463   5.011   9.668   4.930  0.5445  0.2188 -0.0923
  434MOL0     C58464   4.930   9.555   4.926 -0.2811  0.2343  0.5356
  434MOL0     C58465   4.839   9.582   4.808 -0.5212 -1.0729 -0.1370
  434MOL0     C58466   4.739   9.468   4.785 -0.1214  0.1534  0.2450
  434MOL0     C58467   4.646   9.433   4.907 -0.8537 -0.5061 -0.1306
  434MOL0     C58468   4.535   9.322   4.877 -0.7252 -0.1748 -0.0942
  434MOL0     C58469   4.465   9.291   5.017 -0.9295 -0.3463 -0.0369
  434MOL0     C58470   4.378   9.159   5.021  0.1198  0.4896 -0.1688
  434MOL0     C58471   4.297   9.123   5.152  0.3917  0.1846  0.9482
  434MOL0     N58472   4.178   9.206   5.164  0.5429 -0.4885 -0.1134
  434MOL0     C58473   4.184   9.337   5.206  0.4146  0.4038  0.7805
  434MOL0     C58474   4.054   9.382   5.201 -0.0275  0.1264  1.1815
  434MOL0     C58475   4.003   9.513   5.253 -0.1045  0.2892  0.3044
  434MOL0     C58476   3.851   9.525   5.260 -0.5703 -0.5353  0.0884
  434MOL0     C58477   3.781   9.549   5.126  0.0116  0.1554  0.8063
  434MOL0     C58478   3.648   9.482   5.110 -0.3013 -0.4678  0.0981
  434MOL0     O58479   3.552   9.549   5.195 -0.2611 -0.2379 -0.2792
  434MOL0     C58480   3.447   9.476   5.233 -0.5934 -0.4063 -0.0353
  434MOL0     C58481   3.314   9.502   5.186 -0.0515  0.1976  0.1457
  434MOL0     C58482   3.201   9.429   5.233 -0.4042 -0.6658  0.6563
  434MOL0     C58483   3.072   9.467   5.170  0.2642  0.1731 -0.2948
  434MOL0     C58484   3.224   9.339   5.343  0.5829  0.4127  0.0356
  434MOL0     C58485   3.113   9.259   5.394  0.3616  0.2041 -0.3515
  434MOL0     O58486   2.983   9.316   5.416 -0.7502  0.3748 -0.2793
  434MOL0     C58487   2.885   9.222   5.444  0.2526 -0.3794  0.0574
  434MOL0     C58488   2.856   9.186   5.574 -0.4244  0.6662 -0.2882
  434MOL0     C58489   2.750   9.099   5.602 -0.0943  0.4174 -0.3820
  434MOL0     C58490   2.669   9.043   5.500 -0.2781  0.3920  0.3356
  434MOL0     O58491   2.565   8.968   5.521  0.4816  0.5397 -0.1337
  434MOL0     C58492   2.508   8.948   5.655 -0.4710  0.8335  0.2890
  434MOL0     C58493   2.372   8.891   5.650  0.1654  0.3423  0.3149
  434MOL0     C58494   2.300   8.859   5.794 -0.3602 -0.2688  0.6266
  434MOL0     C58495   2.244   8.981   5.852  0.0731  0.3475 -0.1096
  434MOL0     C58496   2.167   8.979   5.994 -0.4470  0.0622  0.0614
  434MOL0     C58497   2.023   8.942   5.973  0.9507  0.8693 -0.1805
  434MOL0     C58498   1.952   8.916   6.108 -0.0071 -0.2373 -0.6626
  434MOL0     C58499   2.023   8.815   6.195  0.0052  0.0618 -0.1779
  434MOL0    Cl58500   2.027   8.656   6.119  0.2809  0.5273 -0.2217
  434MOL0     C58501   2.693   9.096   5.374 -0.1105  0.0017  0.6421
  434MOL0     C58502   2.795   9.178   5.342 -0.3487 -0.6379  0.8952
  434MOL0     O58503   3.146   9.157   5.438 -0.0595  0.1510  0.2477
  434MOL0     C58504   3.357   9.321   5.391  0.2806  0.7040  0.6521
  434MOL0     C58505   3.464   9.390   5.338 -0.7429 -0.3251  1.1920
  434MOL0     N58506   3.976   9.291   5.135  0.3014  0.6697  0.4752
  434MOL0     N58507   4.053   9.188   5.112  0.3175 -0.1472  0.0520
  434MOL0     C58508   5.173   9.693   5.106 -0.4651  0.4731 -0.4452
  434MOL0     C58509   5.289   9.656   5.169 -0.3762  1.0315 -0.7423
  434MOL0     C58510   5.599   9.413   5.360 -0.1414  0.5559 -0.5409
  434MOL0     C58511   5.614   9.360   5.488 -0.6113  0.2638  0.6084
  434MOL0     C58512   5.730   9.314   5.544  0.2962  0.4686  0.3425
  434MOL0     C58513   5.841   9.324   5.464 -0.3100 -0.5196  0.1111
  434MOL0     O58514   5.972   9.290   5.511  0.2160  0.3762  0.0778
  434MOL0     C58515   5.978   9.234   5.643  0.1259 -1.0956 -0.4907
  434MOL0     C58516   5.932   9.084   5.659 -0.1226 -0.2684  0.3301
  434MOL0     C58517   5.948   9.026   5.801  0.0774  0.0785 -0.6123
  434MOL0     C58518   6.101   9.018   5.841  0.3749 -0.2295 -0.8367
  434MOL0     C58519   6.178   8.957   5.731 -0.1321 -0.1633 -0.0266
  434MOL0     C58520   6.248   8.909   5.645  0.5612  0.2204  0.4665
  434MOL0     C58521   5.844   9.373   5.331  0.0797 -0.7933  0.4242
  434MOL0     C58522   5.722   9.414   5.279 -0.2628 -0.3541 -0.0328
  434MOL0     H58523   5.425   9.462   4.936  2.5775 -0.0578  2.9502
  434MOL0     H58524   5.205   9.537   4.807 -0.1246  3.8358 -0.4054
  434MOL0     H58525   4.985   9.461   4.918 -3.2670 -1.6539  0.5640
  434MOL0     H58526   4.871   9.551   5.018 -0.6346 -1.5214  0.2720
  434MOL0     H58527   4.796   9.679   4.835  2.2903  0.0173  0.8229
  434MOL0     H58528   4.896   9.600   4.717 -2.0349  1.7354 -0.6286
  434MOL0     H58529   4.689   9.487   4.690  1.6069 -1.0234 -0.9734
  434MOL0     H58530   4.795   9.375   4.769 -0.6761 -0.3236  1.0029
  434MOL0     H58531   4.708   9.392   4.988 -2.0813 -3.0836 -0.3847
  434MOL0     H58532   4.598   9.528   4.934 -0.0555  0.8885 -3.1748
  434MOL0     H58533   4.461   9.342   4.799  0.0867 -3.8574 -2.0604
  434MOL0     H58534   4.579   9.229   4.839  0.3361 -1.1932  3.2584
  434MOL0     H58535   4.545   9.278   5.090  0.9315 -1.2826 -2.1153
  434MOL0     H58536   4.400   9.374   5.046 -2.0964 -0.4958 -2.0212
  434MOL0     H58537   4.303   9.153   4.942 -1.1802  0.1728  1.0417
  434MOL0     H58538   4.450   9.078   5.006  1.8863  1.8133  0.8060
  434MOL0     H58539   4.356   9.117   5.243  1.7142 -1.0004  0.0492
  434MOL0     H58540   4.256   9.023   5.136  1.1633 -0.1659  1.1252
  434MOL0     H58541   4.266   9.384   5.259 -0.3057  0.3388  1.9856
  434MOL0     H58542   4.050   9.536   5.348  1.6604  1.7769 -0.8522
  434MOL0     H58543   4.047   9.584   5.182  0.7837 -3.0059 -2.7539
  434MOL0     H58544   3.826   9.608   5.328 -1.6465  1.2721 -2.3645
  434MOL0     H58545   3.813   9.435   5.310  0.9697 -0.6131  1.1963
  434MOL0     H58546   3.840   9.511   5.043 -2.5890 -0.8637 -0.6890
  434MOL0     H58547   3.756   9.654   5.109  0.4782 -0.0884 -1.7061
  434MOL0     H58548   3.641   9.373   5.105 -1.0706 -0.3628 -2.2248
  434MOL0     H58549   3.614   9.514   5.011 -1.3000 -2.1019 -0.1156
  434MOL0     H58550   3.306   9.574   5.106 -3.3903  2.2478  2.0830
  434MOL0     H58551   3.082   9.523   5.077 -0.2521  3.6766  1.5771
  434MOL0     H58552   3.009   9.378   5.162  0.5050 -0.2404  1.7582
  434MOL0     H58553   3.027   9.537   5.241  0.2984  0.0766 -0.1757
  434MOL0     H58554   2.914   9.232   5.652 -1.3803  1.2409  0.0999
  434MOL0     H58555   2.726   9.072   5.704  0.4368  0.8348 -0.1406
  434MOL0     H58556   2.572   8.871   5.700 -0.3872  1.0931  0.6169
  434MOL0     H58557   2.505   9.044   5.707  1.1192  0.9849  0.1492
  434MOL0     H58558   2.310   8.966   5.600  0.7853  1.3959  1.0879
  434MOL0     H58559   2.366   8.792   5.603 -0.0954 -1.3609  3.6526
  434MOL0     H58560   2.368   8.808   5.863  1.3213 -1.8421 -2.0409
  434MOL0     H58561   2.211   8.800   5.773 -1.2543  0.7688  1.3914
  434MOL0     H58562   2.322   9.054   5.873 -1.8100  2.1897  0.9079
  434MOL0     H58563   2.182   9.028   5.775 -0.3999 -0.3449 -0.1586
  434MOL0     H58564   2.179   9.078   6.039  1.1719 -1.4645  3.3628
  434MOL0     H58565   2.223   8.915   6.063 -1.2799 -0.4906  0.2426
  434MOL0     H58566   1.979   9.023   5.914 -1.3405 -0.6343 -0.6530
  434MOL0     H58567   2.008   8.859   5.903  1.2451 -1.2170  2.0845
  434MOL0     H58568   1.853   8.870   6.098 -0.6469  1.3143 -1.8159
  434MOL0     H58569   1.939   9.010   6.162  0.2572 -0.2362 -0.5981
  434MOL0     H58570   1.967   8.819   6.289  0.4034 -0.0077  0.0677
  434MOL0     H58571   2.122   8.845   6.230  0.4134 -1.3275 -0.0647
  434MOL0     H58572   2.621   9.071   5.297  1.2748  1.5017 -1.2416
  434MOL0     H58573   2.807   9.215   5.240  1.7638 -1.8344  0.6510
  434MOL0     H58574   3.376   9.258   5.478  1.6445  1.1218  0.6784
  434MOL0     H58575   3.564   9.375   5.378 -0.6908  5.2438  4.1314
  434MOL0     H58576   5.104   9.764   5.151  2.2518  1.3684  2.7720
  434MOL0     H58577   5.306   9.698   5.268 -3.3929  3.3566 -1.0411
  434MOL0     H58578   5.528   9.358   5.555 -0.0711  0.9538  1.3390
  434MOL0     H58579   5.746   9.287   5.647  1.1445  0.6707  0.2681
  434MOL0     H58580   6.084   9.244   5.668 -0.4680  2.3504  1.2401
  434MOL0     H58581   5.930   9.302   5.715  0.3499 -2.3155  0.8614
  434MOL0     H58582   5.988   9.022   5.588 -0.0323 -0.1108  0.2633
  434MOL0     H58583   5.830   9.078   5.618 -0.3509 -1.0051  0.9711
  434MOL0     H58584   5.905   8.925   5.797 -1.6824  0.8342 -1.5357
  434MOL0     H58585   5.881   9.074   5.872 -2.3665 -4.4170  0.5089
  434MOL0     H58586   6.126   8.970   5.936  3.0898 -0.5664 -1.6172
  434MOL0     H58587   6.139   9.120   5.858 -1.0380 -0.0694  1.8317
  434MOL0     H58588   6.292   8.846   5.569 -0.6365 -1.2936  0.9741
  434MOL0     H58589   5.939   9.378   5.278  0.8472 -0.7178  1.7480
  434MOL0     H58590   5.701   9.447   5.178 -0.8646  1.2052  0.5664
  435MOL0     O58591   4.997   8.301   5.713  0.4105 -0.3752 -0.0246
  435MOL0     C58592   5.002   8.217   5.805 -0.1181 -1.2100 -1.0739
  435MOL0     O58593   4.912   8.114   5.831 -0.1734 -1.1185  0.6629
  435MOL0     C58594   4.830   8.085   5.723  0.3502 -0.0361  0.5704
  435MOL0     C58595   4.839   7.954   5.673  0.1399  0.2993 -0.0885
  435MOL0     C58596   4.735   7.914   5.578  0.2114 -0.5403 -0.1945
  435MOL0     C58597   4.621   8.002   5.545 -0.1453  0.0818 -0.0056
  435MOL0     O58598   4.525   7.946   5.470 -0.1276 -0.5430 -0.5858
  435MOL0     C58599   4.436   8.032   5.398  0.6941 -0.2157 -0.6805
  435MOL0     C58600   4.359   7.966   5.286 -0.0152  0.5990  0.2820
  435MOL0     C58601   4.255   7.862   5.341  0.1296 -0.1266 -0.2993
  435MOL0     C58602   4.163   7.795   5.243  0.8016 -0.7702 -0.2980
  435MOL0     C58603   4.066   7.689   5.296  0.2119 -0.7377  0.8681
  435MOL0     C58604   3.974   7.633   5.183  0.6418 -0.6345 -0.1495
  435MOL0     C58605   3.846   7.573   5.241 -0.5501 -0.9048  1.1691
  435MOL0     C58606   3.741   7.556   5.129  0.0087 -0.1021  0.0294
  435MOL0     N58607   3.630   7.462   5.170  0.1337  0.2415  0.1298
  435MOL0     C58608   3.498   7.483   5.131 -0.4365  0.6019 -0.1720
  435MOL0     C58609   3.437   7.360   5.155  0.5226  0.0419 -0.2377
  435MOL0     C58610   3.281   7.353   5.139 -0.0366 -1.3928 -0.4835
  435MOL0     C58611   3.216   7.264   5.247  0.2868 -0.2995  0.0849
  435MOL0     C58612   3.270   7.297   5.391  0.2925 -0.2097  0.3057
  435MOL0     C58613   3.209   7.204   5.495  0.5825 -0.2458 -0.3928
  435MOL0     O58614   3.061   7.188   5.487 -0.2588 -0.3771 -0.2470
  435MOL0     C58615   2.992   7.213   5.600  0.3733  0.0494 -0.9479
  435MOL0     C58616   2.909   7.325   5.604  0.0881  0.3955  0.1579
  435MOL0     C58617   2.852   7.365   5.721 -1.0814 -0.3530  0.3178
  435MOL0     C58618   2.781   7.493   5.725  0.9377  0.1280  0.2079
  435MOL0     C58619   2.873   7.284   5.836 -0.6387 -0.8847  0.4515
  435MOL0     C58620   2.825   7.326   5.971  0.3282  0.3355 -0.0428
  435MOL0     O58621   2.737   7.234   6.029  0.0992  0.5645 -0.6163
  435MOL0     C58622   2.690   7.246   6.155 -0.2144 -0.6489 -0.2550
  435MOL0     C58623   2.555   7.228   6.179  0.4826 -0.5307  0.2072
  435MOL0     C58624   2.491   7.228   6.308 -0.5398 -0.2478 -0.1198
  435MOL0     C58625   2.573   7.251   6.418 -0.5217 -0.3198 -1.0157
  435MOL0     O58626   2.508   7.266   6.544 -0.6803 -0.0827  0.4853
  435MOL0     C58627   2.607   7.286   6.651 -0.0080  0.2545 -0.5217
  435MOL0     C58628   2.533   7.303   6.777  0.6823 -0.3488  0.1251
  435MOL0     C58629   2.522   7.445   6.811 -0.0328  0.1460  1.4990
  435MOL0     C58630   2.437   7.542   6.720  0.6688  0.6269 -0.7680
  435MOL0     C58631   2.375   7.655   6.792  0.3631  0.1206  0.5672
  435MOL0     C58632   2.472   7.745   6.865  0.4333 -0.1484  0.2852
  435MOL0     C58633   2.414   7.883   6.909  0.0006 -0.8771  0.0774
  435MOL0     C58634   2.505   7.972   6.992 -0.5823  0.2060 -0.7817
  435MOL0    Cl58635   2.663   7.994   6.908  0.3191 -0.4362 -0.4076
  435MOL0     C58636   2.710   7.257   6.401  0.3000 -0.3095 -0.5901
  435MOL0     C58637   2.774   7.264   6.273 -0.8455 -0.1165 -0.4801
  435MOL0     O58638   2.840   7.440   6.011 -0.0371 -0.2256  0.5893
  435MOL0     C58639   2.939   7.165   5.827 -0.1671  0.5705  0.7746
  435MOL0     C58640   2.997   7.123   5.712 -0.2556 -0.6502  0.2702
  435MOL0     N58641   3.530   7.261   5.190 -0.0160  0.0732  0.2993
  435MOL0     N58642   3.639   7.330   5.204 -0.8292  0.0073  0.0177
  435MOL0     C58643   4.622   8.126   5.599 -0.2616 -0.7724  0.4227
  435MOL0     C58644   4.725   8.161   5.682  0.8429  0.0154 -0.2645
  435MOL0     C58645   5.108   8.244   5.909  0.4941  0.2177  0.1005
  435MOL0     C58646   5.210   8.337   5.888  0.0917 -0.5175 -0.3645
  435MOL0     C58647   5.303   8.357   5.991  0.5822  0.3898  0.2041
  435MOL0     C58648   5.305   8.279   6.107  0.8010 -0.7015 -1.3336
  435MOL0     O58649   5.403   8.277   6.204  0.8188  0.2521  0.0007
  435MOL0     C58650   5.447   8.406   6.258  0.1589  0.0954 -0.2401
  435MOL0     C58651   5.589   8.398   6.313 -0.0982 -0.2228  0.1279
  435MOL0     C58652   5.690   8.376   6.200 -0.0493  0.5523  0.4489
  435MOL0     C58653   5.706   8.493   6.092  0.4238 -0.2074 -0.1660
  435MOL0     C58654   5.812   8.456   5.993 -0.0338  0.9105 -0.3406
  435MOL0     C58655   5.888   8.424   5.909  0.5701  0.2254  0.2534
  435MOL0     C58656   5.206   8.180   6.125 -0.0668 -0.3734 -0.5662
  435MOL0     C58657   5.108   8.171   6.030  0.0394  0.0978 -0.0539
  435MOL0     H58658   4.904   7.875   5.708 -0.1187  0.7038  1.3953
  435MOL0     H58659   4.748   7.812   5.544  0.5333 -0.2571 -0.9213
  435MOL0     H58660   4.360   8.070   5.466  0.8892 -1.0766  0.0401
  435MOL0     H58661   4.486   8.123   5.365 -0.9716  0.2499 -2.0426
  435MOL0     H58662   4.309   8.043   5.226  0.0644  0.4701  0.0532
  435MOL0     H58663   4.417   7.906   5.215 -0.2270  2.3027 -1.4139
  435MOL0     H58664   4.319   7.782   5.380  4.0951  3.0904  0.4381
  435MOL0     H58665   4.201   7.902   5.426  0.9565 -1.4918  0.9169
  435MOL0     H58666   4.111   7.878   5.194  0.5271 -1.7391 -1.7107
  435MOL0     H58667   4.236   7.752   5.174  0.6389 -2.8145  0.7369
  435MOL0     H58668   4.128   7.608   5.335 -1.0895 -1.0596  2.3684
  435MOL0     H58669   4.014   7.727   5.385 -2.1054  0.9533 -1.0800
  435MOL0     H58670   3.951   7.713   5.112 -0.9836 -0.6481  0.3156
  435MOL0     H58671   4.029   7.567   5.116 -1.0369 -0.4774 -1.7684
  435MOL0     H58672   3.884   7.485   5.294  4.1286  1.4869  2.2763
  435MOL0     H58673   3.796   7.637   5.314  2.7268  1.1597  1.8450
  435MOL0     H58674   3.790   7.523   5.037 -0.5397  1.8025 -0.9950
  435MOL0     H58675   3.694   7.651   5.100 -0.7931 -0.5927 -0.2911
  435MOL0     H58676   3.449   7.578   5.116 -1.2659  0.8812  3.4333
  435MOL0     H58677   3.237   7.453   5.137  3.0659  0.1125  0.3597
  435MOL0     H58678   3.268   7.310   5.039  1.4111  2.3557 -2.4663
  435MOL0     H58679   3.251   7.161   5.232  3.1658  0.6588 -0.4363
  435MOL0     H58680   3.107   7.264   5.248  0.2028 -0.2075  3.2506
  435MOL0     H58681   3.232   7.399   5.406 -2.2806 -1.3215  2.1537
  435MOL0     H58682   3.380   7.296   5.398  0.2597 -2.2190  1.1133
  435MOL0     H58683   3.241   7.259   5.585  0.6362  1.6043 -1.4824
  435MOL0     H58684   3.272   7.115   5.508  1.5774  0.4536 -0.2382
  435MOL0     H58685   2.889   7.385   5.516  1.7366  3.9623  1.9600
  435MOL0     H58686   2.830   7.560   5.797 -1.6036  1.6637  0.6696
  435MOL0     H58687   2.762   7.542   5.629  1.5698  1.2123  0.6193
  435MOL0     H58688   2.681   7.465   5.760  0.2503 -1.1439 -2.5138
  435MOL0     H58689   2.489   7.204   6.096  2.4674  0.4366 -1.7319
  435MOL0     H58690   2.383   7.216   6.306 -0.6652  0.9218 -1.3251
  435MOL0     H58691   2.671   7.197   6.653  1.1402  1.0614 -0.6740
  435MOL0     H58692   2.674   7.367   6.622 -1.5694  0.3990 -4.3831
  435MOL0     H58693   2.435   7.260   6.756  0.8174 -1.3915  1.4755
  435MOL0     H58694   2.571   7.239   6.858 -0.9136  0.9924  2.0236
  435MOL0     H58695   2.626   7.481   6.813 -0.0764  0.6345 -1.2773
  435MOL0     H58696   2.483   7.433   6.912 -0.8420  1.7847  1.4048
  435MOL0     H58697   2.476   7.573   6.622 -0.7282 -0.0055 -1.5563
  435MOL0     H58698   2.349   7.482   6.695  1.1758 -0.2205 -0.6033
  435MOL0     H58699   2.307   7.610   6.865  0.2613 -0.4654  0.1225
  435MOL0     H58700   2.318   7.711   6.717 -2.9223 -4.5584 -0.9158
  435MOL0     H58701   2.514   7.702   6.956  0.4147  0.9109  0.8163
  435MOL0     H58702   2.562   7.763   6.806  0.3763  0.8782  0.4904
  435MOL0     H58703   2.323   7.857   6.964 -2.3397  2.0379 -2.0714
  435MOL0     H58704   2.390   7.944   6.822  0.1116  1.1826  1.4107
  435MOL0     H58705   2.517   7.928   7.091 -1.6658  0.8261 -0.3591
  435MOL0     H58706   2.449   8.065   7.004  2.1619  1.5684  4.6679
  435MOL0     H58707   2.774   7.262   6.488  0.5797  0.4864 -0.8352
  435MOL0     H58708   2.881   7.281   6.268 -0.4592 -2.0863  0.1615
  435MOL0     H58709   2.957   7.106   5.916 -0.3798  0.1892  0.5639
  435MOL0     H58710   3.051   7.031   5.691 -0.9301 -0.8910 -0.4278
  435MOL0     H58711   4.541   8.197   5.598 -1.9548 -2.6151  0.7314
  435MOL0     H58712   4.699   8.252   5.734 -1.3065 -0.7893  0.2121
  435MOL0     H58713   5.213   8.394   5.795  0.1309 -0.3666 -0.2709
  435MOL0     H58714   5.379   8.433   5.975 -1.7291  2.7065 -0.5476
  435MOL0     H58715   5.438   8.494   6.193  1.5670  0.9523  0.6783
  435MOL0     H58716   5.379   8.433   6.340 -0.1986 -2.9613  0.5690
  435MOL0     H58717   5.597   8.305   6.370 -0.9699 -0.5321 -0.2360
  435MOL0     H58718   5.617   8.478   6.382 -0.0231 -2.5460  2.9981
  435MOL0     H58719   5.646   8.292   6.145 -0.4935  0.8797  0.3083
  435MOL0     H58720   5.790   8.340   6.228  0.4066 -0.1955 -1.9205
  435MOL0     H58721   5.729   8.589   6.140 -1.4960  1.4335 -2.3089
  435MOL0     H58722   5.624   8.528   6.029  1.4623  3.7604  0.3768
  435MOL0     H58723   5.935   8.381   5.823 -1.5701  0.0245 -0.8712
  435MOL0     H58724   5.211   8.124   6.218 -0.9373  0.4438 -0.0034
  435MOL0     H58725   5.023   8.105   6.047  0.9942 -1.8553 -2.2156
  436MOL0     O58726   7.648  11.309   3.473  0.4526 -0.5664  0.1349
  436MOL0     C58727   7.698  11.364   3.575  0.1235 -0.1097  0.5637
  436MOL0     O58728   7.643  11.470   3.648 -0.0686  0.1988 -0.4129
  436MOL0     C58729   7.529  11.522   3.603 -0.3526  0.1879 -0.4449
  436MOL0     C58730   7.410  11.457   3.644 -0.7468  0.1940  0.0773
  436MOL0     C58731   7.289  11.518   3.615 -0.4178 -0.4603 -0.2590
  436MOL0     C58732   7.280  11.631   3.537  1.0096 -0.7725 -0.4207
  436MOL0     O58733   7.150  11.677   3.525 -0.0295  0.1143 -0.0472
  436MOL0     C58734   7.106  11.765   3.413 -0.3466 -0.2871  0.3018
  436MOL0     C58735   6.955  11.783   3.415 -0.0062 -0.2992  0.4953
  436MOL0     C58736   6.894  11.863   3.296  0.2657  0.3461  0.1319
  436MOL0     C58737   6.829  11.764   3.201  0.5168  0.3399 -0.0344
  436MOL0     C58738   6.763  11.831   3.078 -0.0331  0.1878  0.4828
  436MOL0     C58739   6.655  11.940   3.101 -0.8816 -0.0084 -0.3668
  436MOL0     C58740   6.535  11.891   3.189 -0.0913 -0.2050  0.4760
  436MOL0     C58741   6.473  11.758   3.128 -0.4612 -0.0818  0.0483
  436MOL0     N58742   6.345  11.727   3.202  0.3393 -0.2823 -0.0494
  436MOL0     C58743   6.340  11.653   3.310  0.6345 -0.0615  0.6069
  436MOL0     C58744   6.212  11.620   3.330  0.2785 -1.3195  0.5839
  436MOL0     C58745   6.165  11.534   3.434  0.8570 -0.6875 -0.2802
  436MOL0     C58746   6.177  11.592   3.568 -0.0516 -0.0770  0.5455
  436MOL0     C58747   6.133  11.492   3.669  0.4714 -0.5892 -0.3567
  436MOL0     C58748   5.982  11.446   3.663  0.2899 -0.5739  0.8687
  436MOL0     O58749   5.884  11.556   3.659  0.3498 -0.5933  0.2822
  436MOL0     C58750   5.756  11.512   3.685 -0.4541 -0.0477  0.3639
  436MOL0     C58751   5.715  11.388   3.751 -0.3227  0.1403  0.2157
  436MOL0     C58752   5.580  11.354   3.752  0.8901  0.4901  0.0410
  436MOL0     C58753   5.537  11.248   3.851 -0.3458  0.0304  0.0580
  436MOL0     C58754   5.477  11.437   3.690 -0.3745 -0.7481  0.1316
  436MOL0     C58755   5.333  11.417   3.708  0.2439  1.7228  0.3248
  436MOL0     O58756   5.247  11.519   3.737  0.9872  0.0402 -0.3274
  436MOL0     C58757   5.112  11.486   3.746 -0.2801  0.0689 -0.4724
  436MOL0     C58758   5.062  11.492   3.873  0.1586 -0.5442  0.0366
  436MOL0     C58759   4.921  11.476   3.890 -0.0130  0.0116  0.0837
  436MOL0     C58760   4.839  11.476   3.783 -0.7948  0.7488 -0.0096
  436MOL0     O58761   4.705  11.480   3.816  0.4798  0.3189  0.0196
  436MOL0     C58762   4.611  11.509   3.708  0.2892  0.6395 -0.1805
  436MOL0     C58763   4.469  11.524   3.765 -0.2227 -0.0200  0.8140
  436MOL0     C58764   4.403  11.394   3.801  0.3743 -0.3614  0.5638
  436MOL0     C58765   4.251  11.419   3.832  0.0869 -1.1055 -0.1699
  436MOL0     C58766   4.182  11.288   3.888 -0.6330  0.3805 -1.7371
  436MOL0     C58767   4.150  11.182   3.790 -0.2689 -0.1773  0.9086
  436MOL0     C58768   4.091  11.057   3.858  0.0888 -0.8649 -0.5094
  436MOL0     C58769   4.034  10.970   3.750 -0.2100  0.1357  0.4556
  436MOL0    Cl58770   3.913  11.037   3.651  0.0044 -0.2616 -0.1699
  436MOL0     C58771   4.895  11.477   3.657  0.3760  0.5144  0.2778
  436MOL0     C58772   5.035  11.485   3.636  0.5091  0.5287 -0.1704
  436MOL0     O58773   5.300  11.297   3.680 -0.5584 -0.7888  0.0802
  436MOL0     C58774   5.523  11.561   3.640  0.2244  0.5167 -0.4251
  436MOL0     C58775   5.657  11.596   3.647  0.5225  0.0836  0.3941
  436MOL0     N58776   6.134  11.686   3.233  0.0346  0.1019  0.1994
  436MOL0     N58777   6.217  11.751   3.159  0.3614 -0.5390  0.4290
  436MOL0     C58778   7.393  11.695   3.488 -0.1217 -0.2479  0.0656
  436MOL0     C58779   7.515  11.640   3.520  0.3659 -0.0407 -0.4245
  436MOL0     C58780   7.838  11.342   3.609 -0.2996  0.5855 -0.9788
  436MOL0     C58781   7.916  11.423   3.696 -0.1334 -0.0954  0.5306
  436MOL0     C58782   8.060  11.404   3.708 -0.4217  0.0837  0.2978
  436MOL0     C58783   8.122  11.303   3.632  0.3975 -0.1805  1.3739
  436MOL0     O58784   8.253  11.273   3.620  0.9138 -0.5952 -0.2053
  436MOL0     C58785   8.337  11.306   3.738  0.2110  0.3992  0.0269
  436MOL0     C58786   8.413  11.436   3.722 -0.6908  0.1855 -0.6124
  436MOL0     C58787   8.542  11.412   3.648 -0.6876 -1.4040  0.0822
  436MOL0     C58788   8.655  11.499   3.702 -0.4022 -0.0343  0.0151
  436MOL0     C58789   8.783  11.484   3.617  0.2766  0.2879 -0.5610
  436MOL0     C58790   8.889  11.493   3.563 -0.9689  0.5469  0.5846
  436MOL0     C58791   8.038  11.227   3.547  0.1510 -0.0530  0.0431
  436MOL0     C58792   7.900  11.238   3.540  0.2753  0.4892 -0.7602
  436MOL0     H58793   7.424  11.372   3.709  1.0047  0.4287  0.0498
  436MOL0     H58794   7.198  11.470   3.649  2.0241 -3.3450  2.8868
  436MOL0     H58795   7.151  11.865   3.423 -2.4859  0.8274 -0.5232
  436MOL0     H58796   7.136  11.714   3.321 -0.6998 -0.3741  0.2345
  436MOL0     H58797   6.907  11.685   3.424 -1.3504  0.3564  0.5959
  436MOL0     H58798   6.950  11.850   3.501  1.4847  2.9196 -1.7203
  436MOL0     H58799   6.824  11.934   3.341  0.6451  0.6855  0.1934
  436MOL0     H58800   6.973  11.915   3.242  0.4945 -2.8318 -3.0017
  436MOL0     H58801   6.912  11.699   3.170  0.1955 -0.2936  0.4405
  436MOL0     H58802   6.749  11.712   3.252 -1.6917 -0.6069 -4.0382
  436MOL0     H58803   6.831  11.868   3.000  0.1761 -1.6978 -0.2780
  436MOL0     H58804   6.716  11.744   3.032 -0.4674  0.2272  0.8512
  436MOL0     H58805   6.689  12.035   3.144 -1.2213  1.9666 -4.0489
  436MOL0     H58806   6.633  11.980   3.002  2.9648  0.9698 -1.0122
  436MOL0     H58807   6.576  11.877   3.289  0.3261 -0.2921  0.2948
  436MOL0     H58808   6.457  11.967   3.183 -1.8791 -1.8890  1.2206
  436MOL0     H58809   6.535  11.670   3.143 -0.3570 -0.1919 -0.9493
  436MOL0     H58810   6.447  11.769   3.022 -0.4626 -1.4486 -0.1029
  436MOL0     H58811   6.416  11.605   3.372 -0.0584  1.3570  2.6610
  436MOL0     H58812   6.057  11.531   3.422  0.8185  0.9123 -0.5678
  436MOL0     H58813   6.219  11.439   3.430  0.0634 -1.1197 -1.0258
  436MOL0     H58814   6.126  11.689   3.574  0.0525  0.0295 -0.1961
  436MOL0     H58815   6.283  11.602   3.593 -0.3352 -0.8350  2.1681
  436MOL0     H58816   6.149  11.535   3.768  1.2339  0.5311 -0.9410
  436MOL0     H58817   6.201  11.407   3.657 -0.9828 -1.6769 -1.1768
  436MOL0     H58818   5.967  11.368   3.738  1.3414 -0.3891  1.2849
  436MOL0     H58819   5.968  11.400   3.565  2.1213  1.8508 -0.6383
  436MOL0     H58820   5.787  11.331   3.809 -1.9994 -1.5640  0.7004
  436MOL0     H58821   5.519  11.156   3.794  2.1966 -0.6252  0.1866
  436MOL0     H58822   5.629  11.231   3.907 -0.2900  0.1278 -0.0038
  436MOL0     H58823   5.449  11.275   3.909 -1.1792  0.2850 -1.2824
  436MOL0     H58824   5.123  11.502   3.963 -1.1099 -0.7783  0.9466
  436MOL0     H58825   4.872  11.460   3.985  0.5622  0.9850  0.5641
  436MOL0     H58826   4.644  11.598   3.655 -0.4786  0.9221 -0.2064
  436MOL0     H58827   4.604  11.425   3.639 -4.4247  0.5658  0.0378
  436MOL0     H58828   4.481  11.575   3.861 -0.6128  1.2577  0.2162
  436MOL0     H58829   4.405  11.585   3.700 -1.0943  1.3492  2.8670
  436MOL0     H58830   4.460  11.349   3.882  1.7557 -3.2944 -1.8230
  436MOL0     H58831   4.412  11.321   3.720 -1.4176 -0.9984  0.8890
  436MOL0     H58832   4.246  11.493   3.913  0.9523 -0.3614 -0.7716
  436MOL0     H58833   4.196  11.472   3.754 -0.6867  1.5990  2.0438
  436MOL0     H58834   4.088  11.331   3.922 -1.0652 -2.2814  0.7937
  436MOL0     H58835   4.234  11.244   3.974  1.5199  0.6856 -2.8127
  436MOL0     H58836   4.085  11.225   3.714 -3.4473 -2.8638  1.8358
  436MOL0     H58837   4.243  11.148   3.743 -1.0056  1.7193 -2.2228
  436MOL0     H58838   4.011  11.083   3.928  2.8223 -1.6019  3.1931
  436MOL0     H58839   4.170  11.010   3.916 -0.9449 -0.7662  1.0367
  436MOL0     H58840   3.978  10.890   3.800  0.8577 -0.3757  0.8700
  436MOL0     H58841   4.111  10.932   3.683 -0.7086  2.0882 -1.3356
  436MOL0     H58842   4.835  11.480   3.568 -2.2172  0.9931  1.9360
  436MOL0     H58843   5.075  11.491   3.535  1.9587 -0.1593  0.3305
  436MOL0     H58844   5.459  11.637   3.598  0.9613  1.2556 -0.2328
  436MOL0     H58845   5.681  11.687   3.594 -1.0403  1.0903  1.3368
  436MOL0     H58846   7.390  11.798   3.456  1.6479  0.0450  0.7202
  436MOL0     H58847   7.604  11.700   3.503  0.8216 -0.0612  1.6125
  436MOL0     H58848   7.848  11.491   3.747 -1.5269 -1.3890  0.4773
  436MOL0     H58849   8.114  11.454   3.787  2.0741 -1.0109 -0.6235
  436MOL0     H58850   8.270  11.315   3.824 -1.2026 -2.3597 -0.6834
  436MOL0     H58851   8.400  11.224   3.773 -1.1661 -0.8083 -0.2233
  436MOL0     H58852   8.436  11.476   3.821 -2.6300  2.7301 -1.0899
  436MOL0     H58853   8.344  11.507   3.675  0.4953  0.2461 -2.3476
  436MOL0     H58854   8.525  11.438   3.543 -1.2481  0.6509  0.6330
  436MOL0     H58855   8.569  11.306   3.647 -0.7539 -1.4426 -1.7197
  436MOL0     H58856   8.659  11.471   3.807  1.9286 -1.1697 -0.3210
  436MOL0     H58857   8.607  11.597   3.700 -1.7843 -0.6900  0.3655
  436MOL0     H58858   8.988  11.507   3.525  0.1252  1.5767  3.5441
  436MOL0     H58859   8.079  11.144   3.492  0.2505 -1.4118  2.0439
  436MOL0     H58860   7.852  11.176   3.464 -0.7975  1.5272 -0.9718
  437MOL0     O58861   2.847   1.074   7.456 -0.7436 -0.9958  0.1257
  437MOL0     C58862   2.858   1.086   7.332  0.2514 -0.8110 -0.1499
  437MOL0     O58863   2.758   1.082   7.241  0.1327  0.6914 -0.7451
  437MOL0     C58864   2.630   1.052   7.277 -0.4897 -1.1587  1.0382
  437MOL0     C58865   2.546   1.001   7.179 -0.6077  0.3358 -0.0611
  437MOL0     C58866   2.423   0.945   7.208  0.0186  0.1244  0.5888
  437MOL0     C58867   2.363   0.966   7.332  1.6835 -0.4036  0.3193
  437MOL0     O58868   2.249   0.904   7.373 -0.3084  0.3496 -0.3868
  437MOL0     C58869   2.131   0.937   7.295 -0.1270 -0.0109  0.0374
  437MOL0     C58870   2.084   1.079   7.314  0.0172 -0.2824 -0.0877
  437MOL0     C58871   1.978   1.081   7.429 -1.0234 -0.0130 -0.2299
  437MOL0     C58872   1.912   1.229   7.434 -0.0221  0.4851  0.2295
  437MOL0     C58873   1.786   1.232   7.346 -0.4468  0.0884  0.3921
  437MOL0     C58874   1.697   1.357   7.351 -0.2761  0.6046 -0.2627
  437MOL0     C58875   1.596   1.340   7.247  0.3178 -0.8071 -0.3977
  437MOL0     C58876   1.509   1.465   7.228 -0.4522  0.3877  0.3266
  437MOL0     N58877   1.591   1.576   7.183 -0.3304  0.9412 -0.4269
  437MOL0     C58878   1.665   1.654   7.263 -0.0068 -1.2464 -0.4680
  437MOL0     C58879   1.732   1.739   7.187 -0.3003 -0.8028 -0.4276
  437MOL0     C58880   1.821   1.846   7.245 -1.0962  0.0143  0.2137
  437MOL0     C58881   1.958   1.796   7.290 -0.9181  0.1833 -0.2444
  437MOL0     C58882   2.056   1.770   7.171 -0.1954  0.7022 -0.5575
  437MOL0     C58883   2.190   1.686   7.211 -0.2859 -0.6826 -0.0556
  437MOL0     O58884   2.271   1.761   7.303  0.7433  0.3292 -0.4056
  437MOL0     C58885   2.396   1.711   7.346 -0.2675 -0.0400  0.3334
  437MOL0     C58886   2.434   1.581   7.317  0.7215  0.1425  0.1467
  437MOL0     C58887   2.556   1.524   7.350 -0.5262  0.6710  0.3518
  437MOL0     C58888   2.589   1.393   7.297 -0.7568 -0.2680 -0.0017
  437MOL0     C58889   2.640   1.604   7.438  0.1145  0.1659 -0.1489
  437MOL0     C58890   2.777   1.567   7.482 -0.3470 -0.3322 -0.3048
  437MOL0     O58891   2.837   1.640   7.578  0.4634 -0.0261 -0.8176
  437MOL0     C58892   2.954   1.604   7.629  0.4251 -0.4566 -1.3413
  437MOL0     C58893   3.055   1.695   7.612  0.6069 -0.1069  0.5774
  437MOL0     C58894   3.184   1.666   7.658 -0.3823 -0.5683 -0.5181
  437MOL0     C58895   3.205   1.543   7.729 -0.3562  0.4081  1.1350
  437MOL0     O58896   3.327   1.516   7.773  0.3206 -0.2388  0.2332
  437MOL0     C58897   3.369   1.380   7.781 -0.1363 -0.0698 -0.6457
  437MOL0     C58898   3.512   1.382   7.823  0.2660 -0.9186  1.2494
  437MOL0     C58899   3.557   1.240   7.848  0.3353 -0.7120  0.5236
  437MOL0     C58900   3.704   1.226   7.864 -0.3600  1.2964 -0.2568
  437MOL0     C58901   3.731   1.074   7.864  0.1136 -0.0030  0.5184
  437MOL0     C58902   3.701   1.013   7.996 -0.1842 -0.3262  0.0586
  437MOL0     C58903   3.679   0.862   7.988  0.5185 -0.8784  0.0623
  437MOL0     C58904   3.788   0.780   7.915  0.4757  0.3400 -0.4458
  437MOL0    Cl58905   3.935   0.809   8.007 -0.1275 -0.2183  0.0778
  437MOL0     C58906   3.094   1.462   7.763 -0.1921 -0.1657 -0.0267
  437MOL0     C58907   2.974   1.486   7.703 -1.0151 -0.1869 -0.4772
  437MOL0     O58908   2.820   1.454   7.453 -0.1290  0.0213  0.1845
  437MOL0     C58909   2.592   1.731   7.481 -0.0678  0.3801 -0.1835
  437MOL0     C58910   2.482   1.792   7.423  0.4731 -0.5853  1.2326
  437MOL0     N58911   1.696   1.715   7.057  0.3624  0.5848 -0.5128
  437MOL0     N58912   1.621   1.606   7.056  0.9363 -0.1875 -0.3228
  437MOL0     C58913   2.438   1.031   7.431  0.3608  0.7550 -0.5934
  437MOL0     C58914   2.571   1.066   7.401  0.0218  0.8883  0.5216
  437MOL0     C58915   3.007   1.098   7.286  0.9190  0.3471  1.1047
  437MOL0     C58916   3.030   1.061   7.158 -0.1982 -0.4227  1.3249
  437MOL0     C58917   3.150   1.078   7.090 -0.1741 -0.1963 -0.4680
  437MOL0     C58918   3.263   1.133   7.161  0.5360  0.6086 -1.3867
  437MOL0     O58919   3.378   1.154   7.092  0.6412  0.1525  0.3094
  437MOL0     C58920   3.484   1.078   7.153 -0.2636  0.2198  1.0696
  437MOL0     C58921   3.574   1.021   7.041  0.3619  0.0153 -0.2210
  437MOL0     C58922   3.655   1.112   6.948 -0.2106  0.1950 -0.4354
  437MOL0     C58923   3.778   1.165   7.022 -0.0121 -0.8600  0.6054
  437MOL0     C58924   3.841   1.267   6.937  0.4219  0.5057  1.1716
  437MOL0     C58925   3.895   1.352   6.875  0.3915 -0.1448 -0.1301
  437MOL0     C58926   3.237   1.175   7.294  0.3596  0.0911 -0.2500
  437MOL0     C58927   3.112   1.154   7.353 -0.0545 -0.6310 -0.5928
  437MOL0     H58928   2.587   0.983   7.080 -1.7906  2.9733 -1.1308
  437MOL0     H58929   2.354   0.890   7.144  0.6109 -0.5965  0.5635
  437MOL0     H58930   2.140   0.920   7.188 -1.1759 -2.5999  0.3019
  437MOL0     H58931   2.063   0.857   7.327 -1.5409 -0.5050 -3.7106
  437MOL0     H58932   2.171   1.144   7.328 -0.2460 -0.2405  1.5764
  437MOL0     H58933   2.035   1.113   7.222 -0.2477  4.2899  1.4782
  437MOL0     H58934   1.901   1.013   7.391 -1.4422  0.8442 -0.9770
  437MOL0     H58935   2.021   1.058   7.527 -1.7019  4.7972  1.4683
  437MOL0     H58936   1.893   1.269   7.533 -0.7709 -0.4769  0.4947
  437MOL0     H58937   1.985   1.296   7.387  0.7518 -0.4144  0.1045
  437MOL0     H58938   1.823   1.202   7.248  3.9144  1.7779  1.2964
  437MOL0     H58939   1.716   1.157   7.384 -0.4104 -0.6872 -1.0132
  437MOL0     H58940   1.647   1.364   7.448 -0.2695 -1.4493 -0.0711
  437MOL0     H58941   1.771   1.436   7.341  0.3447 -0.1253 -1.6694
  437MOL0     H58942   1.645   1.304   7.156  0.4094 -0.8014 -0.3501
  437MOL0     H58943   1.524   1.268   7.289 -1.9348  1.1600 -0.6405
  437MOL0     H58944   1.473   1.497   7.327 -0.8236  3.0105 -0.5681
  437MOL0     H58945   1.425   1.444   7.162 -0.5743  2.0642 -0.1067
  437MOL0     H58946   1.664   1.645   7.371 -1.8230  0.4326 -0.3083
  437MOL0     H58947   1.827   1.927   7.171 -0.3677 -1.8194 -1.8455
  437MOL0     H58948   1.771   1.889   7.332 -0.1304  1.8932 -0.1036
  437MOL0     H58949   1.944   1.706   7.351 -1.5166 -0.0748 -0.7517
  437MOL0     H58950   1.991   1.884   7.345  0.2703  0.4763 -1.3733
  437MOL0     H58951   2.084   1.864   7.124 -0.7747  1.3399  0.3371
  437MOL0     H58952   2.005   1.707   7.097  1.5515  0.8312 -1.9463
  437MOL0     H58953   2.249   1.664   7.121  1.2767  1.6565  0.3067
  437MOL0     H58954   2.165   1.588   7.252 -0.6368 -0.5853 -0.0363
  437MOL0     H58955   2.371   1.513   7.261  1.3487  0.3631 -0.8551
  437MOL0     H58956   2.696   1.381   7.279 -1.0264  1.6591 -4.2277
  437MOL0     H58957   2.552   1.317   7.367 -0.3879  0.7878  1.3773
  437MOL0     H58958   2.558   1.386   7.192 -0.7357  0.4552 -0.0585
  437MOL0     H58959   3.034   1.777   7.544 -0.4875 -2.1600 -1.6849
  437MOL0     H58960   3.263   1.738   7.642 -1.2938  1.5577  3.2665
  437MOL0     H58961   3.307   1.333   7.858  0.7156  2.1768  1.5692
  437MOL0     H58962   3.350   1.327   7.687 -0.0524 -1.2008 -0.0379
  437MOL0     H58963   3.559   1.434   7.739  0.9679 -0.9115  1.6383
  437MOL0     H58964   3.524   1.451   7.907 -1.7837  0.8504  0.1879
  437MOL0     H58965   3.532   1.181   7.759  0.4754  1.4002 -0.9860
  437MOL0     H58966   3.518   1.212   7.947  2.7181  2.9653  2.7286
  437MOL0     H58967   3.751   1.278   7.781  2.8593  2.1312  1.8971
  437MOL0     H58968   3.753   1.276   7.949 -1.5709  1.7917  0.1715
  437MOL0     H58969   3.835   1.051   7.839  0.3567  0.6024  0.9439
  437MOL0     H58970   3.666   1.018   7.796  1.4448 -0.8316 -0.0944
  437MOL0     H58971   3.784   1.034   8.064  2.1547  3.1584 -3.4023
  437MOL0     H58972   3.613   1.055   8.047  0.7698  3.9922 -1.3808
  437MOL0     H58973   3.578   0.840   7.952 -0.1874  0.7497  0.9338
  437MOL0     H58974   3.681   0.830   8.092  0.5430  1.2367  0.7715
  437MOL0     H58975   3.794   0.813   7.811  1.9541 -0.5969 -0.6817
  437MOL0     H58976   3.755   0.676   7.914  0.2135  0.4144 -2.1723
  437MOL0     H58977   3.100   1.375   7.827 -0.2223  1.8583  2.9244
  437MOL0     H58978   2.896   1.413   7.720  0.1691 -1.1850  1.0094
  437MOL0     H58979   2.647   1.803   7.542  0.7428  0.9599 -1.5383
  437MOL0     H58980   2.469   1.899   7.436  2.1803 -0.4630  2.1682
  437MOL0     H58981   2.403   1.025   7.534  2.2946  0.6341  0.0992
  437MOL0     H58982   2.622   1.108   7.488 -2.0118  0.8441  1.7947
  437MOL0     H58983   2.942   1.026   7.106 -0.8476 -1.4337  3.0165
  437MOL0     H58984   3.152   1.057   6.983 -0.3790 -0.1338 -0.4841
  437MOL0     H58985   3.540   1.137   7.225  2.4553 -1.6738  0.6431
  437MOL0     H58986   3.448   0.996   7.216  1.9400 -1.7759 -0.1180
  437MOL0     H58987   3.494   0.974   6.982 -0.7257 -0.3765  1.4793
  437MOL0     H58988   3.651   0.950   7.071 -0.5117 -1.9634 -2.3284
  437MOL0     H58989   3.584   1.193   6.928 -1.6969 -0.7139  0.8836
  437MOL0     H58990   3.687   1.065   6.855  1.2697 -2.2540  1.1754
  437MOL0     H58991   3.856   1.087   7.026 -0.6941 -1.5068  1.8702
  437MOL0     H58992   3.762   1.204   7.123 -1.3314 -0.9318  0.4399
  437MOL0     H58993   3.928   1.431   6.811 -2.6447  2.0921  0.8669
  437MOL0     H58994   3.314   1.220   7.355 -0.0566 -2.0672  2.0401
  437MOL0     H58995   3.094   1.193   7.453  2.8210 -0.0548 -0.2291
  438MOL0     O58996   1.206   0.634   6.348 -0.1607 -0.5701 -0.3339
  438MOL0     C58997   1.148   0.676   6.446 -0.7327  0.5568 -0.0791
  438MOL0     O58998   1.143   0.801   6.494 -0.0891 -0.1102 -0.0582
  438MOL0     C58999   1.212   0.899   6.444  0.5975  0.7358  0.0307
  438MOL0     C59000   1.352   0.884   6.424  0.1386 -0.0215  0.3388
  438MOL0     C59001   1.433   0.992   6.378 -0.2892 -0.0073  0.0955
  438MOL0     C59002   1.378   1.115   6.367  0.3961  0.4294 -0.0948
  438MOL0     O59003   1.449   1.210   6.302 -0.2304 -0.4909 -0.2947
  438MOL0     C59004   1.590   1.220   6.346  0.7313 -0.1698  0.0401
  438MOL0     C59005   1.642   1.363   6.346 -0.3147  0.2745 -0.1052
  438MOL0     C59006   1.636   1.421   6.207  0.0045 -0.0595 -0.7091
  438MOL0     C59007   1.629   1.575   6.224  0.3055 -0.1530 -0.2781
  438MOL0     C59008   1.626   1.645   6.095 -0.7340  0.1733  1.0905
  438MOL0     C59009   1.687   1.787   6.100  0.8725  0.1356 -0.3605
  438MOL0     C59010   1.587   1.908   6.089 -0.2993  1.4345 -0.3259
  438MOL0     C59011   1.629   2.040   6.156 -0.1452  0.4707 -0.2406
  438MOL0     N59012   1.533   2.145   6.143 -0.0949 -0.4124  0.2031
  438MOL0     C59013   1.517   2.195   6.018  0.2139 -0.0922 -0.0323
  438MOL0     C59014   1.456   2.316   6.045 -0.1044  0.8395 -0.6509
  438MOL0     C59015   1.410   2.408   5.942  0.3309 -0.2441  0.1356
  438MOL0     C59016   1.310   2.350   5.847  0.1439 -0.1095 -0.1219
  438MOL0     C59017   1.290   2.419   5.716 -0.0064 -0.5324  0.9391
  438MOL0     C59018   1.169   2.367   5.637 -0.6694 -0.7956 -0.3300
  438MOL0     O59019   1.049   2.391   5.712 -0.7302  0.2393  0.3989
  438MOL0     C59020   0.927   2.344   5.660  0.6244 -0.0219 -0.7684
  438MOL0     C59021   0.900   2.326   5.531  0.1095  0.3093  0.5793
  438MOL0     C59022   0.779   2.268   5.491  0.9100 -0.4913  0.4883
  438MOL0     C59023   0.771   2.254   5.344  0.1406 -0.0971 -0.0408
  438MOL0     C59024   0.676   2.240   5.578  0.2684 -0.4944 -0.2062
  438MOL0     C59025   0.546   2.173   5.538 -0.5156  0.0491 -0.6518
  438MOL0     O59026   0.465   2.164   5.647 -0.3903  0.0625  0.0055
  438MOL0     C59027   0.337   2.108   5.627 -0.4293  0.2190 -0.7258
  438MOL0     C59028   0.218   2.177   5.592  0.4856  0.6746 -0.2436
  438MOL0     C59029   0.097   2.096   5.591 -0.0202  0.2560  0.5454
  438MOL0     C59030   0.103   1.955   5.592  0.5182 -0.7551 -0.0156
  438MOL0     O59031  -0.006   1.872   5.577 -0.3089  0.3699 -0.1896
  438MOL0     C59032  -0.107   1.906   5.481 -0.1816 -0.0297 -0.3406
  438MOL0     C59033  -0.196   1.787   5.444 -0.3383 -0.5353 -0.1224
  438MOL0     C59034  -0.298   1.833   5.341  0.5905  0.5756 -0.1318
  438MOL0     C59035  -0.358   1.709   5.265 -0.4855 -0.9916  0.2780
  438MOL0     C59036  -0.455   1.763   5.157 -0.0905  0.8641  0.1278
  438MOL0     C59037  -0.476   1.645   5.048  0.0605  0.1304 -0.3312
  438MOL0     C59038  -0.591   1.681   4.961  0.1615  0.6878 -0.3756
  438MOL0     C59039  -0.604   1.589   4.846  0.4180  0.1115 -0.4103
  438MOL0    Cl59040  -0.465   1.614   4.731 -0.2842 -0.3448  0.0264
  438MOL0     C59041   0.222   1.898   5.621  0.1454  0.0099 -0.4682
  438MOL0     C59042   0.335   1.969   5.644 -0.1148 -0.7102  0.6883
  438MOL0     O59043   0.522   2.133   5.427  0.6431 -0.0947  0.3667
  438MOL0     C59044   0.699   2.292   5.708 -0.5100 -0.6961  0.0349
  438MOL0     C59045   0.826   2.332   5.749 -0.3698 -0.2025 -0.3072
  438MOL0     N59046   1.452   2.331   6.181 -0.6174  0.0805 -0.2709
  438MOL0     N59047   1.497   2.231   6.245 -0.3362  0.4589  0.4836
  438MOL0     C59048   1.242   1.135   6.379  0.8953 -0.3067  1.3282
  438MOL0     C59049   1.160   1.025   6.412 -0.0726  0.5380  0.5174
  438MOL0     C59050   1.074   0.565   6.516  0.0418 -0.3644 -0.1906
  438MOL0     C59051   1.090   0.425   6.483 -0.4647  0.1348  0.6152
  438MOL0     C59052   1.025   0.338   6.563 -1.0987 -1.2659  0.6891
  438MOL0     C59053   0.950   0.364   6.671 -0.5591 -0.1640  0.1427
  438MOL0     O59054   0.919   0.252   6.746  0.4182  0.1000  0.7666
  438MOL0     C59055   0.805   0.269   6.824  0.1660  0.2985  0.6040
  438MOL0     C59056   0.708   0.162   6.791 -1.1850 -0.0413  0.3484
  438MOL0     C59057   0.575   0.181   6.867  0.7210 -0.4545 -0.1376
  438MOL0     C59058   0.479   0.069   6.821 -0.5186 -0.2011  0.4923
  438MOL0     C59059   0.374   0.055   6.920  0.4979 -0.1396  0.0638
  438MOL0     C59060   0.274   0.040   6.994  0.0472  0.2080 -0.3113
  438MOL0     C59061   0.934   0.497   6.707  0.7961  0.8018 -0.0950
  438MOL0     C59062   1.003   0.602   6.632 -0.7135 -0.8987 -0.3137
  438MOL0     H59063   1.409   0.792   6.440 -0.7002 -1.0208 -1.9130
  438MOL0     H59064   1.538   0.966   6.365 -0.0142  0.8803  0.4591
  438MOL0     H59065   1.603   1.185   6.448  1.7567  0.5970  0.1892
  438MOL0     H59066   1.651   1.150   6.288 -0.9598 -1.8995  0.2697
  438MOL0     H59067   1.580   1.422   6.414 -0.4956  0.9639 -0.8449
  438MOL0     H59068   1.737   1.373   6.398  1.0742 -1.5757 -2.0818
  438MOL0     H59069   1.737   1.404   6.169 -0.1874 -0.0257 -1.2468
  438MOL0     H59070   1.554   1.387   6.143 -0.0582 -2.0543  0.3567
  438MOL0     H59071   1.548   1.611   6.288 -0.9559  0.1551 -1.9662
  438MOL0     H59072   1.731   1.594   6.259  0.0463  1.0357 -0.1198
  438MOL0     H59073   1.702   1.595   6.033 -1.1152  0.2273  0.5737
  438MOL0     H59074   1.533   1.665   6.042  0.6965  3.3869 -0.4982
  438MOL0     H59075   1.746   1.806   6.190  1.6037 -1.9397 -0.3434
  438MOL0     H59076   1.761   1.789   6.019 -0.0059  1.4048 -1.1517
  438MOL0     H59077   1.568   1.922   5.982 -1.9724  3.0570  0.1306
  438MOL0     H59078   1.501   1.871   6.145 -0.7722  0.2795 -1.7541
  438MOL0     H59079   1.725   2.082   6.126  1.6654 -2.4055  1.1152
  438MOL0     H59080   1.643   2.022   6.263  1.2464  1.6409 -0.1996
  438MOL0     H59081   1.555   2.153   5.925  1.1095  0.2720  0.1579
  438MOL0     H59082   1.354   2.483   6.000  1.4824  1.2057 -0.5727
  438MOL0     H59083   1.492   2.464   5.896 -2.7660  2.8570 -2.2282
  438MOL0     H59084   1.212   2.340   5.894  0.9898 -3.4801  1.2244
  438MOL0     H59085   1.338   2.246   5.829 -0.6717 -0.1895 -0.9612
  438MOL0     H59086   1.378   2.396   5.656  0.3942 -0.8007  1.6181
  438MOL0     H59087   1.274   2.526   5.729  0.2377 -0.4372  0.4770
  438MOL0     H59088   1.178   2.258   5.638  1.0545 -0.6742 -0.2086
  438MOL0     H59089   1.167   2.399   5.532  1.4072 -1.1952 -0.5343
  438MOL0     H59090   0.987   2.335   5.466  0.9280 -1.0205  1.4461
  438MOL0     H59091   0.677   2.297   5.311  0.2763  0.7113  0.6025
  438MOL0     H59092   0.852   2.301   5.287 -1.6801  1.8811 -1.1212
  438MOL0     H59093   0.775   2.149   5.313 -0.7903  0.4126 -2.0694
  438MOL0     H59094   0.202   2.284   5.586 -0.4839  0.4489 -2.6691
  438MOL0     H59095   0.007   2.156   5.582  0.0559  0.5508  1.6610
  438MOL0     H59096  -0.167   1.989   5.519  1.5620  1.7733 -1.3713
  438MOL0     H59097  -0.058   1.941   5.390  0.7387  0.3815  0.2923
  438MOL0     H59098  -0.129   1.712   5.400  0.4277 -1.2812  2.2041
  438MOL0     H59099  -0.257   1.741   5.521  0.9192 -2.3418 -0.1523
  438MOL0     H59100  -0.262   1.909   5.270 -2.4796  1.5974 -0.7536
  438MOL0     H59101  -0.378   1.887   5.392  0.4333  0.0051  0.2196
  438MOL0     H59102  -0.273   1.663   5.214  0.9834  4.0909 -2.4625
  438MOL0     H59103  -0.401   1.637   5.336 -1.2750 -0.6121  0.1924
  438MOL0     H59104  -0.411   1.857   5.123 -0.1169  0.7425 -0.2443
  438MOL0     H59105  -0.539   1.778   5.226  1.6595  1.7240  2.2103
  438MOL0     H59106  -0.381   1.628   4.996  0.3681  5.0128 -1.8331
  438MOL0     H59107  -0.501   1.549   5.094 -0.6941 -0.3079 -1.6015
  438MOL0     H59108  -0.591   1.784   4.924 -0.0662  0.8646  0.1131
  438MOL0     H59109  -0.684   1.669   5.018  0.7018  1.9089  0.8185
  438MOL0     H59110  -0.697   1.614   4.794  0.7988 -0.2192 -1.2718
  438MOL0     H59111  -0.606   1.494   4.901  0.4320 -0.5688 -1.5526
  438MOL0     H59112   0.223   1.791   5.603  1.8315  0.3296 -2.8436
  438MOL0     H59113   0.421   1.907   5.666 -1.0015 -2.1390  0.2544
  438MOL0     H59114   0.619   2.304   5.780 -1.8431 -0.2667 -1.4665
  438MOL0     H59115   0.839   2.356   5.854  1.6696 -0.4526 -0.4618
  438MOL0     H59116   1.212   1.234   6.346  3.5576  1.5608  4.0253
  438MOL0     H59117   1.052   1.036   6.416  0.0347  2.0988 -0.1582
  438MOL0     H59118   1.152   0.402   6.397 -1.2749  2.8736 -0.7974
  438MOL0     H59119   1.039   0.233   6.540  0.0261 -1.6611  2.9066
  438MOL0     H59120   0.838   0.264   6.928  2.4649 -1.8241 -0.1351
  438MOL0     H59121   0.753   0.363   6.802 -1.4230 -0.2902  1.6413
  438MOL0     H59122   0.753   0.067   6.820 -0.5245  0.5103  1.2106
  438MOL0     H59123   0.691   0.161   6.683  1.1747  1.1043 -0.1105
  438MOL0     H59124   0.542   0.281   6.839  1.7190 -0.1986 -0.4572
  438MOL0     H59125   0.589   0.186   6.976  2.2071  2.7047 -0.3602
  438MOL0     H59126   0.530  -0.027   6.811 -2.6329 -1.1490 -2.4800
  438MOL0     H59127   0.434   0.092   6.724 -0.9753 -2.3973  0.1302
  438MOL0     H59128   0.193   0.011   7.056  0.8150  0.8254  1.0220
  438MOL0     H59129   0.889   0.535   6.799  0.6933  2.6534 -0.8593
  438MOL0     H59130   0.996   0.706   6.661  1.5469 -0.6479 -0.5263
  439MOL0     O59131   1.246   5.411   3.211  0.8254 -0.2099  0.6957
  439MOL0     C59132   1.255   5.478   3.314  0.1123 -0.8612  0.6310
  439MOL0     O59133   1.149   5.533   3.376  1.5796  0.1595  0.3944
  439MOL0     C59134   1.022   5.517   3.322  0.6455  0.5752  0.1385
  439MOL0     C59135   0.923   5.440   3.389  0.0357  0.1728 -0.1797
  439MOL0     C59136   0.791   5.433   3.332 -0.6860  0.1747 -0.0972
  439MOL0     C59137   0.761   5.486   3.198  0.0318 -0.1537 -0.7828
  439MOL0     O59138   0.642   5.466   3.129  0.1236  0.1125  0.3926
  439MOL0     C59139   0.527   5.514   3.187  0.5192 -0.7799 -0.9991
  439MOL0     C59140   0.404   5.480   3.091 -0.1552 -0.2330  0.1528
  439MOL0     C59141   0.380   5.332   3.101  0.6249 -0.4865 -1.0668
  439MOL0     C59142   0.244   5.296   3.034  0.1881  0.3354  0.1861
  439MOL0     C59143   0.258   5.144   2.980  0.1693  0.3252 -0.3050
  439MOL0     C59144   0.126   5.111   2.906 -0.0110 -0.1844 -0.8465
  439MOL0     C59145   0.127   4.957   2.877  1.0564 -0.8163 -0.6660
  439MOL0     C59146   0.025   4.911   2.771  0.2757 -0.0034  0.4157
  439MOL0     N59147  -0.114   4.942   2.810  0.0007 -0.4646  0.0787
  439MOL0     C59148  -0.178   5.058   2.805  0.7051 -0.5009  0.5696
  439MOL0     C59149  -0.308   5.031   2.800  0.7958  0.1465 -0.1085
  439MOL0     C59150  -0.427   5.128   2.812  0.0482  0.3348 -0.3683
  439MOL0     C59151  -0.544   5.054   2.877  0.0867  0.0463  0.1072
  439MOL0     C59152  -0.646   5.152   2.919  0.0114  0.7372  0.3009
  439MOL0     C59153  -0.760   5.079   3.001 -0.3347 -0.1607  1.1135
  439MOL0     O59154  -0.764   5.126   3.137  0.0369 -0.1796  0.2503
  439MOL0     C59155  -0.861   5.217   3.171 -0.5220  0.3555 -0.8427
  439MOL0     C59156  -0.896   5.223   3.306 -0.5007 -0.3428  0.2115
  439MOL0     C59157  -0.991   5.317   3.357  0.6080 -0.9278  0.2516
  439MOL0     C59158  -1.007   5.329   3.502  0.1850 -0.1620  0.4286
  439MOL0     C59159  -1.038   5.415   3.266 -0.1448  0.8747  0.0547
  439MOL0     C59160  -1.129   5.516   3.304  0.6248 -0.4628  0.0846
  439MOL0     O59161  -1.244   5.485   3.374  0.3980  0.1061  1.1040
  439MOL0     C59162  -1.356   5.555   3.355 -0.3954 -0.4902  0.2782
  439MOL0     C59163  -1.478   5.489   3.310  0.4093 -0.3006 -0.2984
  439MOL0     C59164  -1.595   5.561   3.303 -0.1541  0.7462 -1.1536
  439MOL0     C59165  -1.601   5.691   3.352  0.3556  0.6730  0.5625
  439MOL0     O59166  -1.724   5.747   3.371 -0.0198  0.2583 -0.8801
  439MOL0     C59167  -1.750   5.815   3.500  0.7420  0.0496  0.0763
  439MOL0     C59168  -1.847   5.719   3.582 -0.5053  0.1347  0.2804
  439MOL0     C59169  -1.862   5.773   3.720  0.0226 -0.1350 -0.2237
  439MOL0     C59170  -1.975   5.720   3.804 -1.1837 -0.3462  0.1489
  439MOL0     C59171  -1.947   5.571   3.833  0.0426  0.2964  0.5041
  439MOL0     C59172  -2.047   5.503   3.939 -0.5728  0.0157  0.8781
  439MOL0     C59173  -2.190   5.480   3.884  0.3770  0.0528 -0.0974
  439MOL0     C59174  -2.260   5.414   3.999  0.8804 -0.0459  0.7987
  439MOL0    Cl59175  -2.214   5.240   4.004 -0.3728 -0.0868 -0.1143
  439MOL0     C59176  -1.481   5.753   3.391  0.9159 -0.5816  0.0152
  439MOL0     C59177  -1.364   5.688   3.389 -0.6780 -0.6710 -1.0651
  439MOL0     O59178  -1.094   5.634   3.275 -0.2728  0.4984  0.3423
  439MOL0     C59179  -1.002   5.411   3.127  0.1261 -0.9888  0.3891
  439MOL0     C59180  -0.911   5.314   3.085  0.6264  0.1559  0.3924
  439MOL0     N59181  -0.322   4.894   2.798 -0.1795 -0.6756 -0.3576
  439MOL0     N59182  -0.205   4.844   2.813  0.6715  0.7280  0.5989
  439MOL0     C59183   0.864   5.547   3.129  0.0661  0.7194  0.1160
  439MOL0     C59184   0.990   5.558   3.192  1.7004  0.4387  0.8561
  439MOL0     C59185   1.391   5.520   3.379  0.3232 -0.1216  0.6986
  439MOL0     C59186   1.405   5.625   3.466 -0.0032  0.2710 -0.3009
  439MOL0     C59187   1.525   5.656   3.527 -0.2482  0.7645 -0.2772
  439MOL0     C59188   1.638   5.575   3.492 -0.7979 -0.2024 -0.2600
  439MOL0     O59189   1.762   5.574   3.560  0.0583 -0.2936  0.0625
  439MOL0     C59190   1.775   5.667   3.670 -0.4216  0.3070  0.5009
  439MOL0     C59191   1.924   5.671   3.714 -0.3218 -0.1812 -0.4312
  439MOL0     C59192   1.975   5.796   3.773  0.7945 -0.0443  0.2712
  439MOL0     C59193   2.093   5.779   3.874 -0.9145 -0.1810 -0.2942
  439MOL0     C59194   2.183   5.899   3.893  0.1121 -1.0898  0.4685
  439MOL0     C59195   2.239   6.010   3.905 -0.2094  0.5072  1.0101
  439MOL0     C59196   1.625   5.486   3.391 -0.7748  0.1912  0.1845
  439MOL0     C59197   1.506   5.458   3.336  0.3708 -0.3884  0.8282
  439MOL0     H59198   0.945   5.397   3.486  1.0577  0.8268 -0.1096
  439MOL0     H59199   0.715   5.370   3.378 -1.3096  0.7495 -0.3219
  439MOL0     H59200   0.509   5.482   3.290 -1.3005  0.4458 -0.8969
  439MOL0     H59201   0.532   5.623   3.191  0.8999 -0.7221 -2.3854
  439MOL0     H59202   0.314   5.526   3.135 -0.9212 -1.3787 -0.1591
  439MOL0     H59203   0.442   5.508   2.993  2.0513 -0.1784  0.9758
  439MOL0     H59204   0.456   5.275   3.046 -0.6679 -2.1769 -1.2012
  439MOL0     H59205   0.373   5.305   3.207 -1.2264  2.2856 -0.3596
  439MOL0     H59206   0.158   5.311   3.099 -0.6616 -1.7827 -0.3532
  439MOL0     H59207   0.230   5.370   2.955  0.7156  0.0070 -0.2290
  439MOL0     H59208   0.349   5.124   2.923  0.5622 -1.4063  0.8431
  439MOL0     H59209   0.268   5.080   3.069  0.8444 -0.6316 -1.0471
  439MOL0     H59210   0.031   5.132   2.957 -0.0069  0.9563 -1.2708
  439MOL0     H59211   0.125   5.162   2.809  1.8538 -1.1367 -1.4065
  439MOL0     H59212   0.224   4.912   2.852  0.8922 -0.8075 -1.3293
  439MOL0     H59213   0.097   4.916   2.974 -1.3611  1.8017 -0.1726
  439MOL0     H59214   0.031   4.802   2.773  4.8522  0.1024  1.7932
  439MOL0     H59215   0.031   4.968   2.677 -0.9896  1.2756  1.0649
  439MOL0     H59216  -0.133   5.157   2.808  1.0509 -0.6705  1.7518
  439MOL0     H59217  -0.393   5.210   2.875 -0.7347  1.3180 -1.1866
  439MOL0     H59218  -0.458   5.169   2.715  1.0157  0.2599 -0.7242
  439MOL0     H59219  -0.514   4.999   2.967  0.4326  1.0001  0.5915
  439MOL0     H59220  -0.591   4.984   2.807 -1.0605  0.2174  0.6889
  439MOL0     H59221  -0.694   5.205   2.836  2.9242 -0.7489 -2.5128
  439MOL0     H59222  -0.597   5.221   2.989  0.1080 -1.2982  2.3754
  439MOL0     H59223  -0.754   4.970   2.995  2.1178  0.0022 -1.8923
  439MOL0     H59224  -0.856   5.090   2.949  0.0606 -0.9217  0.2013
  439MOL0     H59225  -0.834   5.168   3.376  0.1417  1.4111  1.0912
  439MOL0     H59226  -0.974   5.426   3.541  0.5032  0.0572 -0.3603
  439MOL0     H59227  -1.111   5.310   3.529  0.9548 -0.9914  3.1722
  439MOL0     H59228  -0.945   5.258   3.558  2.9598  1.5160 -0.2946
  439MOL0     H59229  -1.470   5.385   3.279 -1.2201 -0.2878 -0.8003
  439MOL0     H59230  -1.682   5.501   3.283  1.4122 -1.9723 -0.3239
  439MOL0     H59231  -1.660   5.834   3.560  0.7159  2.6574 -0.6267
  439MOL0     H59232  -1.805   5.909   3.496 -2.3791 -1.6027  0.5023
  439MOL0     H59233  -1.940   5.721   3.525 -0.0084  2.3682 -0.5575
  439MOL0     H59234  -1.808   5.618   3.595 -2.9965 -0.7571  1.4530
  439MOL0     H59235  -1.874   5.881   3.707  3.6368  0.2519 -1.4376
  439MOL0     H59236  -1.771   5.755   3.777 -2.3267 -1.0556  3.5670
  439MOL0     H59237  -1.955   5.772   3.898  1.8418  0.4226 -0.8041
  439MOL0     H59238  -2.074   5.740   3.762  0.0107 -1.2937 -3.5939
  439MOL0     H59239  -1.846   5.568   3.874  0.8980  1.3901 -1.4082
  439MOL0     H59240  -1.956   5.523   3.736 -3.5675  1.4356  0.1145
  439MOL0     H59241  -1.994   5.408   3.952  0.3429 -0.1555 -2.9110
  439MOL0     H59242  -2.059   5.552   4.036  0.2171 -4.0323  3.2978
  439MOL0     H59243  -2.192   5.423   3.790 -1.6135  1.4974 -0.9906
  439MOL0     H59244  -2.247   5.572   3.868  0.7291 -0.0459 -2.2402
  439MOL0     H59245  -2.368   5.422   3.980  0.9056 -1.5043 -0.1167
  439MOL0     H59246  -2.245   5.471   4.091 -2.7800  1.5556  0.5972
  439MOL0     H59247  -1.486   5.858   3.420 -2.7508 -0.3979 -0.8694
  439MOL0     H59248  -1.275   5.735   3.428 -1.5614  0.4707 -0.3751
  439MOL0     H59249  -1.046   5.471   3.049  4.0791 -2.5033 -3.3700
  439MOL0     H59250  -0.877   5.319   2.982  0.0174  0.6132  0.2110
  439MOL0     H59251   0.834   5.570   3.027 -0.0347 -1.6560 -0.4585
  439MOL0     H59252   1.072   5.595   3.132  0.4390 -1.8323 -2.5283
  439MOL0     H59253   1.335   5.703   3.495 -0.9649 -1.2536  1.7518
  439MOL0     H59254   1.528   5.730   3.607 -0.9928  1.7096 -1.0967
  439MOL0     H59255   1.743   5.771   3.656  2.9328  1.4802  0.5059
  439MOL0     H59256   1.719   5.620   3.751  1.2248 -1.8490  0.4699
  439MOL0     H59257   1.992   5.642   3.634  1.4616 -2.8062  1.8831
  439MOL0     H59258   1.937   5.589   3.784  1.1106 -0.7770 -1.3458
  439MOL0     H59259   1.901   5.852   3.830  0.5653 -1.8894  1.8814
  439MOL0     H59260   2.004   5.852   3.683  1.6816 -0.6058  0.1890
  439MOL0     H59261   2.150   5.687   3.857  0.3113  0.1898  1.5377
  439MOL0     H59262   2.036   5.773   3.967 -0.9565  0.4780 -0.2714
  439MOL0     H59263   2.264   6.114   3.913  0.5508  0.6100 -1.7442
  439MOL0     H59264   1.712   5.433   3.355 -0.7181 -0.3188  1.0438
  439MOL0     H59265   1.500   5.388   3.253  0.0385 -0.3569  0.8250
  440MOL0     O59266   0.949   3.660   7.283 -0.1778 -0.0538 -0.3320
  440MOL0     C59267   0.967   3.637   7.402 -0.3932  1.3477  0.3543
  440MOL0     O59268   1.058   3.698   7.484  0.2050  0.2290  0.4002
  440MOL0     C59269   1.114   3.812   7.448  0.6850  0.4596 -0.8201
  440MOL0     C59270   1.071   3.930   7.504  0.3805  0.6891 -0.0967
  440MOL0     C59271   1.150   4.057   7.479  0.8208  0.4795 -0.0945
  440MOL0     C59272   1.264   4.053   7.404  0.0085 -0.3658  0.5380
  440MOL0     O59273   1.338   4.171   7.395 -0.6907 -0.8141 -0.0421
  440MOL0     C59274   1.481   4.147   7.379 -0.2090 -0.3025  0.0305
  440MOL0     C59275   1.552   4.251   7.464 -0.9471  0.0052  0.6057
  440MOL0     C59276   1.708   4.241   7.447 -0.8621  0.2218  0.3118
  440MOL0     C59277   1.767   4.333   7.566  0.3420  0.6051 -0.5818
  440MOL0     C59278   1.914   4.293   7.571 -0.3774 -0.1876 -0.8200
  440MOL0     C59279   1.981   4.376   7.681 -0.3453 -0.9455  0.7750
  440MOL0     C59280   2.121   4.330   7.689 -0.3211 -0.3453  0.2346
  440MOL0     C59281   2.210   4.414   7.786  0.7992  0.0923 -0.6619
  440MOL0     N59282   2.345   4.418   7.742 -0.2410 -0.5106 -0.5596
  440MOL0     C59283   2.387   4.487   7.636 -1.0617 -0.4649 -0.0135
  440MOL0     C59284   2.527   4.466   7.640 -0.6636 -0.4398  0.4926
  440MOL0     C59285   2.625   4.524   7.531  0.3440  0.8129 -0.5444
  440MOL0     C59286   2.720   4.428   7.459  0.2727 -0.9379 -0.5434
  440MOL0     C59287   2.651   4.337   7.361  0.1615  0.2679  0.4993
  440MOL0     C59288   2.588   4.211   7.429  0.2563  0.0413  0.7445
  440MOL0     O59289   2.511   4.137   7.339 -0.0743  0.4778 -0.0952
  440MOL0     C59290   2.400   4.069   7.377  0.1102  0.4602 -0.1778
  440MOL0     C59291   2.376   3.966   7.283  0.0984 -0.4251 -1.1392
  440MOL0     C59292   2.264   3.882   7.300 -0.1130 -0.2509  0.1194
  440MOL0     C59293   2.239   3.795   7.178  0.2707  0.5255  0.5468
  440MOL0     C59294   2.170   3.904   7.404 -0.8344 -0.3494  0.1566
  440MOL0     C59295   2.036   3.848   7.415 -0.1294  0.7759 -0.4162
  440MOL0     O59296   1.958   3.864   7.302  0.1098 -0.1378 -0.0304
  440MOL0     C59297   1.839   3.798   7.313  0.3184  0.5554  0.2505
  440MOL0     C59298   1.727   3.850   7.375 -0.1668  0.1249  0.2586
  440MOL0     C59299   1.615   3.767   7.397  0.1808  0.1239 -0.5332
  440MOL0     C59300   1.605   3.643   7.342  0.2594 -0.2602  0.4607
  440MOL0     O59301   1.488   3.571   7.368 -0.0348 -0.2260  0.1774
  440MOL0     C59302   1.472   3.465   7.274  1.1184  0.4080  0.2198
  440MOL0     C59303   1.333   3.418   7.299 -0.9321 -0.0894 -0.3568
  440MOL0     C59304   1.280   3.315   7.197 -0.0627  0.2780 -0.0867
  440MOL0     C59305   1.125   3.304   7.221 -0.8014  0.2020 -1.0203
  440MOL0     C59306   1.059   3.235   7.102 -0.6288 -0.0946 -0.6101
  440MOL0     C59307   0.913   3.195   7.142  0.0696  0.7984  0.3805
  440MOL0     C59308   0.826   3.158   7.022 -0.2561  0.0782  0.0573
  440MOL0     C59309   0.675   3.144   7.063  0.2614  0.6300 -0.8271
  440MOL0    Cl59310   0.579   3.075   6.922 -0.4105 -0.0214 -0.6582
  440MOL0     C59311   1.710   3.594   7.256  0.7682 -0.0429 -0.5030
  440MOL0     C59312   1.827   3.666   7.253  0.2610 -0.8561  0.0829
  440MOL0     O59313   2.004   3.794   7.523  1.0301 -0.4356 -0.2783
  440MOL0     C59314   2.209   4.004   7.497  0.2762 -0.0843  0.8386
  440MOL0     C59315   2.309   4.091   7.484  0.7248  0.2208  0.1152
  440MOL0     N59316   2.557   4.396   7.753  0.5727  0.0097 -0.2951
  440MOL0     N59317   2.451   4.368   7.814 -0.8399  0.4849  0.2853
  440MOL0     C59318   1.298   3.927   7.344  0.7821 -0.2880  0.5002
  440MOL0     C59319   1.224   3.810   7.363 -0.1141  0.7975  0.2566
  440MOL0     C59320   0.902   3.506   7.462 -0.8542 -0.0766  0.4776
  440MOL0     C59321   0.936   3.452   7.595  0.1684 -0.7164  0.7887
  440MOL0     C59322   0.872   3.343   7.645  0.8990  0.5168 -0.7477
  440MOL0     C59323   0.770   3.274   7.570 -1.0005  0.1985 -0.1620
  440MOL0     O59324   0.725   3.157   7.627  0.5835  0.0748  0.0523
  440MOL0     C59325   0.602   3.114   7.572  0.0777  0.2655 -0.7802
  440MOL0     C59326   0.558   2.980   7.644  0.4030 -0.4680 -0.2386
  440MOL0     C59327   0.406   2.960   7.664 -0.5068  0.6443 -0.3421
  440MOL0     C59328   0.328   2.991   7.533 -0.8353  0.0665  0.7251
  440MOL0     C59329   0.209   2.905   7.524 -0.4823 -0.4560  0.4409
  440MOL0     C59330   0.118   2.828   7.523  0.5981  0.3894  0.5622
  440MOL0     C59331   0.743   3.331   7.444 -0.0752  0.1743  0.1263
  440MOL0     C59332   0.806   3.440   7.389  0.4432  0.4657 -0.6730
  440MOL0     H59333   0.979   3.937   7.561  0.4475  2.2592 -0.1403
  440MOL0     H59334   1.111   4.152   7.515  2.1063 -0.0102  2.8338
  440MOL0     H59335   1.503   4.045   7.414  1.0721  0.4683  1.6244
  440MOL0     H59336   1.498   4.152   7.271  1.1576 -0.2261  0.2242
  440MOL0     H59337   1.523   4.352   7.433  3.4554  0.7926 -1.8773
  440MOL0     H59338   1.530   4.239   7.570 -3.2405  1.1602  0.3142
  440MOL0     H59339   1.733   4.135   7.462  2.2325  0.5974 -1.2776
  440MOL0     H59340   1.739   4.270   7.346 -0.2685  0.0782  0.4495
  440MOL0     H59341   1.748   4.438   7.544  1.8483  0.9010 -0.5554
  440MOL0     H59342   1.719   4.308   7.661  1.5659  3.6080  0.9551
  440MOL0     H59343   1.910   4.190   7.609 -4.2517  0.8848  2.3775
  440MOL0     H59344   1.969   4.284   7.477 -1.5101 -2.0415 -1.3516
  440MOL0     H59345   1.959   4.482   7.665 -0.4139 -0.3634  4.0524
  440MOL0     H59346   1.931   4.351   7.775 -0.4945  3.4793  2.0839
  440MOL0     H59347   2.117   4.224   7.717 -0.7438 -0.1137  1.0673
  440MOL0     H59348   2.163   4.342   7.589 -1.1947  2.3637  0.1197
  440MOL0     H59349   2.213   4.365   7.884  0.2618  0.0265 -0.6765
  440MOL0     H59350   2.177   4.518   7.794  0.4748 -0.1418  3.0922
  440MOL0     H59351   2.335   4.550   7.565  2.8118  1.4459 -1.4359
  440MOL0     H59352   2.578   4.594   7.461  0.5750  2.1376  0.5793
  440MOL0     H59353   2.687   4.596   7.586  0.7096  0.5913 -0.6646
  440MOL0     H59354   2.785   4.379   7.533  1.5933  0.3590 -0.8047
  440MOL0     H59355   2.779   4.498   7.401  1.6602 -1.3124  0.3545
  440MOL0     H59356   2.730   4.305   7.293 -1.5326 -0.7546 -1.0928
  440MOL0     H59357   2.581   4.395   7.300  0.4807  0.0888 -0.0444
  440MOL0     H59358   2.524   4.230   7.516  0.2740 -1.6784  1.1584
  440MOL0     H59359   2.674   4.148   7.453 -0.0520  0.0466  1.9295
  440MOL0     H59360   2.451   3.943   7.208  2.3930  3.7157 -0.3987
  440MOL0     H59361   2.194   3.701   7.211  2.8312 -0.5233  1.2886
  440MOL0     H59362   2.177   3.852   7.108  0.7388  0.7154  0.2839
  440MOL0     H59363   2.334   3.773   7.130 -1.3492 -0.5679 -2.4181
  440MOL0     H59364   1.735   3.955   7.401 -1.1028  1.2515 -3.5041
  440MOL0     H59365   1.542   3.803   7.469  2.3597 -1.9883  3.0372
  440MOL0     H59366   1.474   3.519   7.178  2.3442  0.9122  0.5071
  440MOL0     H59367   1.545   3.385   7.287  0.8548 -0.2118 -1.8228
  440MOL0     H59368   1.340   3.382   7.403  3.8375 -4.1280 -1.6698
  440MOL0     H59369   1.270   3.507   7.295  2.2622  2.3709 -0.5382
  440MOL0     H59370   1.332   3.220   7.207 -0.5639  0.0673  0.5957
  440MOL0     H59371   1.304   3.353   7.097  3.1873  2.2384  1.2692
  440MOL0     H59372   1.102   3.245   7.310 -1.6648  1.1976 -0.5624
  440MOL0     H59373   1.065   3.394   7.237 -1.6430 -0.5410  0.1862
  440MOL0     H59374   1.120   3.146   7.083  0.6565  0.5261  0.4280
  440MOL0     H59375   1.059   3.306   7.018  2.3197  2.1413  1.0568
  440MOL0     H59376   0.930   3.109   7.209 -1.2922  1.8090  2.1044
  440MOL0     H59377   0.862   3.281   7.186 -1.0855 -0.3963  1.4877
  440MOL0     H59378   0.851   3.057   6.986  1.1287 -1.0357  3.6594
  440MOL0     H59379   0.846   3.243   6.956  3.3526 -1.2839 -0.8807
  440MOL0     H59380   0.632   3.240   7.094  0.5230  0.1161  1.2843
  440MOL0     H59381   0.669   3.074   7.147 -1.4828  2.5340  0.7659
  440MOL0     H59382   1.716   3.495   7.213 -1.4953 -0.9752  1.1039
  440MOL0     H59383   1.905   3.615   7.197 -1.5565 -2.6742 -0.9195
  440MOL0     H59384   2.137   4.035   7.572 -0.1253  1.4569 -0.1323
  440MOL0     H59385   2.324   4.178   7.548 -0.3681  0.2203  0.3848
  440MOL0     H59386   1.384   3.891   7.287 -0.4621 -2.7432  0.0450
  440MOL0     H59387   1.268   3.716   7.331  2.6762  1.9152  0.6038
  440MOL0     H59388   1.021   3.498   7.644 -0.4664 -0.4581  1.6641
  440MOL0     H59389   0.903   3.304   7.742  0.1836  0.8936 -0.3575
  440MOL0     H59390   0.530   3.190   7.603 -0.4462 -0.2817 -0.6351
  440MOL0     H59391   0.596   3.100   7.463 -0.1025 -3.4923 -0.4029
  440MOL0     H59392   0.610   2.988   7.740 -3.3299  0.6586  1.9073
  440MOL0     H59393   0.592   2.891   7.591 -0.8911 -0.4473 -1.1615
  440MOL0     H59394   0.371   3.030   7.741  0.5897 -0.3799  1.1512
  440MOL0     H59395   0.393   2.860   7.707  0.0314  1.1616  1.0958
  440MOL0     H59396   0.385   2.965   7.443 -0.1332  3.9295 -0.1254
  440MOL0     H59397   0.293   3.095   7.531 -2.6999 -0.5345 -0.3901
  440MOL0     H59398   0.039   2.756   7.518 -1.1335  1.8764  3.5330
  440MOL0     H59399   0.668   3.288   7.379  0.1861 -1.5134  0.8883
  440MOL0     H59400   0.781   3.479   7.291  1.8999 -2.1605 -2.2024
  441MOL0     O59401   5.577   5.076  10.396 -0.3440 -0.0401  0.7764
  441MOL0     C59402   5.490   5.108  10.476 -0.7712 -0.6322  0.4877
  441MOL0     O59403   5.356   5.091  10.455  0.6400 -0.6834  0.0547
  441MOL0     C59404   5.309   5.022  10.343  0.2960  0.8516  0.2203
  441MOL0     C59405   5.188   5.070  10.296 -0.0733 -0.2491  0.7170
  441MOL0     C59406   5.130   5.011  10.180  0.0433  0.3497 -0.9328
  441MOL0     C59407   5.191   4.897  10.116  0.1906  0.7360  1.1311
  441MOL0     O59408   5.152   4.851   9.999 -0.2997  0.1463 -0.3966
  441MOL0     C59409   5.058   4.929   9.922  0.0291 -0.1552  0.7398
  441MOL0     C59410   5.025   4.854   9.791  0.7663 -0.4501 -0.2094
  441MOL0     C59411   4.935   4.943   9.703  0.2146 -0.4059  0.2078
  441MOL0     C59412   4.922   4.880   9.560  0.2135  0.8028 -0.8110
  441MOL0     C59413   4.830   4.955   9.452 -0.1225 -0.4729 -0.6870
  441MOL0     C59414   4.681   4.955   9.507 -0.2377 -0.3078  0.6362
  441MOL0     C59415   4.585   4.987   9.393 -0.8146 -0.1571  0.3726
  441MOL0     C59416   4.609   5.142   9.350 -0.4576 -0.6007  0.0912
  441MOL0     N59417   4.503   5.191   9.259 -0.2821  0.0237 -0.5130
  441MOL0     C59418   4.410   5.284   9.299 -0.4008  0.0890 -0.0923
  441MOL0     C59419   4.305   5.274   9.216  0.4488  0.4246 -0.8506
  441MOL0     C59420   4.169   5.331   9.249  0.0684  1.1195 -0.3973
  441MOL0     C59421   4.128   5.420   9.139  0.0684 -0.3913  0.2707
  441MOL0     C59422   3.995   5.496   9.156  0.4271  0.0426 -0.2920
  441MOL0     C59423   3.971   5.578   9.034 -0.0941 -1.2923 -0.5188
  441MOL0     O59424   3.843   5.646   9.041 -0.8826  0.2415  0.2572
  441MOL0     C59425   3.781   5.647   8.922  0.4227 -0.4871 -0.1270
  441MOL0     C59426   3.850   5.688   8.801 -0.3795  0.5701 -0.5589
  441MOL0     C59427   3.781   5.700   8.679  0.0657  0.2422 -0.0533
  441MOL0     C59428   3.866   5.772   8.575  0.6037 -0.1098  0.8000
  441MOL0     C59429   3.645   5.655   8.673 -0.5355 -0.6024  0.2103
  441MOL0     C59430   3.566   5.678   8.553 -0.3606  0.1684  0.1208
  441MOL0     O59431   3.438   5.724   8.582  0.3149 -0.8883  1.5367
  441MOL0     C59432   3.355   5.782   8.482  0.5170  0.3337  0.6524
  441MOL0     C59433   3.210   5.771   8.491  0.0537 -0.9200  1.0059
  441MOL0     C59434   3.122   5.816   8.388 -0.5588  0.1931 -0.0121
  441MOL0     C59435   3.176   5.871   8.273 -0.4560 -0.3013  0.1314
  441MOL0     O59436   3.099   5.918   8.174 -0.2559 -0.4278 -0.4125
  441MOL0     C59437   3.129   6.051   8.120  0.2048 -0.0017 -0.3020
  441MOL0     C59438   3.018   6.095   8.030 -0.8048 -0.9544 -0.6713
  441MOL0     C59439   2.870   6.080   8.069 -0.6612 -0.0363 -1.1397
  441MOL0     C59440   2.786   6.099   7.946  0.1961 -0.3912 -0.1276
  441MOL0     C59441   2.652   6.156   7.988  0.2284 -0.3176  0.9704
  441MOL0     C59442   2.578   6.216   7.874 -0.7649 -0.4314  0.3666
  441MOL0     C59443   2.665   6.334   7.811 -0.1424  0.4177 -0.1440
  441MOL0     C59444   2.587   6.432   7.733 -0.0972  0.1717  0.2785
  441MOL0    Cl59445   2.463   6.351   7.635 -0.2499 -0.1898  0.0969
  441MOL0     C59446   3.314   5.885   8.263  0.5398 -0.2477  0.5560
  441MOL0     C59447   3.401   5.842   8.361  1.0037  0.2932 -0.4196
  441MOL0     O59448   3.618   5.656   8.452 -0.6230  0.1378  0.3620
  441MOL0     C59449   3.577   5.604   8.789  0.2588  0.2763  1.2986
  441MOL0     C59450   3.651   5.590   8.909  0.2538  0.8097  0.5472
  441MOL0     N59451   4.339   5.181   9.120  0.1857  0.6164  0.5566
  441MOL0     N59452   4.457   5.125   9.152  0.1369 -1.1586  0.0823
  441MOL0     C59453   5.311   4.848  10.168 -0.8034  0.0904  0.0445
  441MOL0     C59454   5.370   4.908  10.282 -0.3959  0.0974 -0.0913
  441MOL0     C59455   5.538   5.161  10.608  0.0753 -0.0600  0.3894
  441MOL0     C59456   5.670   5.199  10.646 -0.3345  0.5956  0.2778
  441MOL0     C59457   5.700   5.252  10.772  0.6138  0.0814 -0.2164
  441MOL0     C59458   5.595   5.267  10.868 -0.2145  0.2275 -0.0648
  441MOL0     O59459   5.643   5.295  10.993 -0.2685 -0.1468 -0.4523
  441MOL0     C59460   5.592   5.414  11.048 -0.2297  0.2489  0.5826
  441MOL0     C59461   5.688   5.462  11.157  0.0420 -0.1846  0.4225
  441MOL0     C59462   5.680   5.616  11.162 -0.2195 -0.3463 -0.1817
  441MOL0     C59463   5.800   5.670  11.249 -0.1597  0.6374  0.0842
  441MOL0     C59464   5.810   5.813  11.241  0.1608  0.8075 -0.7246
  441MOL0     C59465   5.805   5.933  11.240 -0.4380  0.6014  0.5560
  441MOL0     C59466   5.461   5.234  10.835 -1.2293  1.2406 -0.3942
  441MOL0     C59467   5.438   5.182  10.709  0.2317 -0.5149  0.0373
  441MOL0     H59468   5.137   5.153  10.344 -0.1629 -0.9740  1.9186
  441MOL0     H59469   5.039   5.054  10.140 -1.3897 -2.0481 -0.4245
  441MOL0     H59470   4.958   4.941   9.965 -0.3888  1.9176 -0.6511
  441MOL0     H59471   5.088   5.033   9.905 -1.4999  0.0166 -1.2674
  441MOL0     H59472   5.124   4.832   9.750  1.8227 -1.3633  2.6056
  441MOL0     H59473   4.972   4.759   9.802  3.0164 -1.9732 -1.6749
  441MOL0     H59474   4.834   4.955   9.742 -0.9518  0.6249 -2.7979
  441MOL0     H59475   4.982   5.042   9.694  0.4163 -0.5312 -0.1314
  441MOL0     H59476   5.022   4.863   9.518 -0.5156 -0.3348 -2.1494
  441MOL0     H59477   4.879   4.780   9.572 -0.2764  1.0474 -0.4956
  441MOL0     H59478   4.853   5.062   9.452 -0.3541 -0.4225 -0.9362
  441MOL0     H59479   4.844   4.911   9.353  0.0015 -1.9182 -0.0575
  441MOL0     H59480   4.657   4.857   9.550  1.1663 -1.7814 -1.7262
  441MOL0     H59481   4.661   5.029   9.586  1.5235 -1.0301  1.8328
  441MOL0     H59482   4.609   4.919   9.311  0.2697  0.9576 -0.2900
  441MOL0     H59483   4.487   4.974   9.438 -0.5950  1.6767  1.4920
  441MOL0     H59484   4.702   5.144   9.292 -0.4870 -0.1142  0.0588
  441MOL0     H59485   4.613   5.206   9.438 -0.2061  0.9001 -0.9699
  441MOL0     H59486   4.404   5.319   9.402  0.8547  0.4852 -0.1438
  441MOL0     H59487   4.103   5.245   9.261  0.7117  0.4998 -1.1780
  441MOL0     H59488   4.181   5.393   9.339  1.1362 -2.0900  1.8596
  441MOL0     H59489   4.111   5.359   9.050 -2.0790 -0.0366  0.3938
  441MOL0     H59490   4.206   5.493   9.115  1.4438 -2.1395 -0.8195
  441MOL0     H59491   3.996   5.555   9.249 -2.8810 -1.4197  0.8201
  441MOL0     H59492   3.916   5.422   9.172 -2.8900  2.5686 -3.5558
  441MOL0     H59493   3.976   5.509   8.949 -0.1166  0.2516 -1.8222
  441MOL0     H59494   4.049   5.654   9.022 -0.5695 -1.0708 -2.9135
  441MOL0     H59495   3.956   5.708   8.812 -0.1469 -0.4227 -0.9265
  441MOL0     H59496   3.966   5.799   8.612  1.0148 -0.3784 -0.0853
  441MOL0     H59497   3.887   5.697   8.498  1.2972  1.8633 -1.0437
  441MOL0     H59498   3.824   5.865   8.537  2.3470  0.8472  1.1013
  441MOL0     H59499   3.169   5.712   8.572 -0.1255  2.3949  3.4911
  441MOL0     H59500   3.016   5.793   8.400 -0.7506 -0.7158 -2.6619
  441MOL0     H59501   3.125   6.118   8.206  0.6700 -0.8133  0.3733
  441MOL0     H59502   3.226   6.059   8.071  0.8634  0.4114  1.0162
  441MOL0     H59503   3.042   6.197   7.997 -2.4233 -0.2162  0.2839
  441MOL0     H59504   3.029   6.038   7.937  0.0936  1.6839 -2.3367
  441MOL0     H59505   2.841   6.143   8.153  1.1496  0.8376 -1.1185
  441MOL0     H59506   2.865   5.976   8.102 -0.2582  1.0346  2.7497
  441MOL0     H59507   2.848   6.158   7.877  3.2863 -3.0531  0.1028
  441MOL0     H59508   2.766   5.996   7.915  2.0856 -1.4348  1.8558
  441MOL0     H59509   2.667   6.235   8.062  0.5425 -0.5626  1.1726
  441MOL0     H59510   2.593   6.083   8.044 -0.3839  0.8440  1.8793
  441MOL0     H59511   2.553   6.145   7.794  0.6856  0.1276 -0.6130
  441MOL0     H59512   2.488   6.262   7.916 -0.8691  1.5391 -1.8144
  441MOL0     H59513   2.749   6.291   7.756  1.3656  1.3129  1.3503
  441MOL0     H59514   2.721   6.389   7.888  0.0930  0.4090 -0.3071
  441MOL0     H59515   2.651   6.500   7.675 -1.8372 -1.5063 -4.0572
  441MOL0     H59516   2.530   6.504   7.792  0.0981  0.1462  0.5000
  441MOL0     H59517   3.355   5.925   8.171 -1.3756 -1.0007 -0.7017
  441MOL0     H59518   3.507   5.858   8.347  1.2254 -1.3415 -0.8465
  441MOL0     H59519   3.477   5.561   8.791  0.9788 -1.4739  1.4866
  441MOL0     H59520   3.611   5.539   8.996 -0.2749 -0.8823 -0.6462
  441MOL0     H59521   5.377   4.781  10.114  0.7681  1.1608  0.5927
  441MOL0     H59522   5.458   4.870  10.333 -0.9882  0.4905  1.2618
  441MOL0     H59523   5.759   5.182  10.587 -1.1164 -3.0876 -0.0823
  441MOL0     H59524   5.796   5.279  10.815  0.5054  0.0873  0.0239
  441MOL0     H59525   5.564   5.473  10.960  1.9169 -1.3497 -1.2884
  441MOL0     H59526   5.499   5.395  11.102 -0.2279  3.6630  2.0536
  441MOL0     H59527   5.790   5.431  11.134  0.6762  0.6646  1.9588
  441MOL0     H59528   5.668   5.421  11.256  0.1191 -1.5560 -0.1143
  441MOL0     H59529   5.589   5.645  11.216 -0.6853  1.3011 -1.7544
  441MOL0     H59530   5.667   5.649  11.059  0.0455  0.3856  0.0124
  441MOL0     H59531   5.895   5.630  11.212 -0.0620  0.2254  0.7544
  441MOL0     H59532   5.792   5.649  11.356  2.4538  1.0813  0.4232
  441MOL0     H59533   5.807   6.040  11.247  0.6033  0.6292  0.0451
  441MOL0     H59534   5.384   5.249  10.910 -2.3290  3.0908 -1.8240
  441MOL0     H59535   5.337   5.163  10.673  0.9329  0.2054 -2.5237
  442MOL0     O59536   7.768   5.157   6.866 -0.2256 -0.0333  0.3374
  442MOL0     C59537   7.727   5.158   6.980 -0.3969 -0.9304  0.8061
  442MOL0     O59538   7.609   5.196   7.035 -0.3976  0.7374 -0.0625
  442MOL0     C59539   7.510   5.227   6.940 -1.0459 -0.4335  1.0380
  442MOL0     C59540   7.503   5.355   6.888 -0.2357 -0.2376 -0.0426
  442MOL0     C59541   7.416   5.403   6.799 -0.0643  0.9626  0.2785
  442MOL0     C59542   7.309   5.318   6.770  0.6057  0.2800 -0.3028
  442MOL0     O59543   7.225   5.370   6.678  0.1510 -0.0292  0.1646
  442MOL0     C59544   7.103   5.311   6.646 -0.8021  0.6202 -0.7101
  442MOL0     C59545   7.035   5.394   6.530  0.4127  0.9523  0.1970
  442MOL0     C59546   6.911   5.327   6.472  0.1496 -0.2900  0.3720
  442MOL0     C59547   6.799   5.312   6.575 -0.3903 -0.7436 -0.3773
  442MOL0     C59548   6.687   5.231   6.530  0.0909  0.4968 -0.4124
  442MOL0     C59549   6.621   5.173   6.663 -0.3080  0.0036  0.2741
  442MOL0     C59550   6.468   5.147   6.648  0.0497  0.0280 -0.4928
  442MOL0     C59551   6.423   5.073   6.524  0.0554 -0.2396 -0.0562
  442MOL0     N59552   6.481   4.941   6.515 -0.1618 -0.3029 -0.1548
  442MOL0     C59553   6.446   4.840   6.591 -0.1568  0.2962 -0.0928
  442MOL0     C59554   6.536   4.739   6.562 -0.7210 -0.5324  0.9343
  442MOL0     C59555   6.532   4.601   6.619 -0.2787 -0.1941 -0.1103
  442MOL0     C59556   6.538   4.578   6.771  0.0622 -0.5212  0.0819
  442MOL0     C59557   6.676   4.606   6.840 -0.1340 -0.3687  0.8629
  442MOL0     C59558   6.705   4.753   6.857  0.1597 -0.8183 -0.0101
  442MOL0     O59559   6.638   4.797   6.970  0.5836  0.3316 -0.4645
  442MOL0     C59560   6.709   4.870   7.062 -0.2240 -0.4807 -0.0942
  442MOL0     C59561   6.800   4.973   7.027 -0.0512  0.7019 -0.3032
  442MOL0     C59562   6.864   5.056   7.119  0.1614 -0.0884 -0.0020
  442MOL0     C59563   6.972   5.156   7.054  0.4657  0.4197  0.5622
  442MOL0     C59564   6.847   5.030   7.263  0.0998  0.0635  0.1768
  442MOL0     C59565   6.929   5.098   7.363 -0.2505  0.2495  0.7025
  442MOL0     O59566   7.057   5.125   7.327  0.1444  0.6928 -0.0968
  442MOL0     C59567   7.148   5.206   7.391 -0.3325 -0.3922 -0.2639
  442MOL0     C59568   7.252   5.254   7.314  0.9923 -0.6919 -0.1811
  442MOL0     C59569   7.345   5.341   7.368  0.1591 -0.0610 -0.1364
  442MOL0     C59570   7.341   5.387   7.498 -0.6429 -0.1634 -0.2894
  442MOL0     O59571   7.445   5.447   7.565  0.2261  0.2513 -0.5128
  442MOL0     C59572   7.565   5.492   7.508  0.2112  0.1597 -0.3806
  442MOL0     C59573   7.670   5.504   7.617 -0.1328  0.0242  0.2178
  442MOL0     C59574   7.801   5.580   7.584  0.3307 -0.1363  0.5844
  442MOL0     C59575   7.878   5.526   7.451  0.4771 -0.6858  0.5487
  442MOL0     C59576   8.020   5.601   7.416  0.9404 -0.4268 -0.3069
  442MOL0     C59577   8.093   5.578   7.283  0.2225 -0.5564  0.1523
  442MOL0     C59578   8.113   5.436   7.239  0.1640  0.1477 -0.2244
  442MOL0     C59579   8.202   5.398   7.117 -0.0229 -1.0838 -0.2881
  442MOL0    Cl59580   8.107   5.452   6.973  0.1008 -0.3999 -0.0683
  442MOL0     C59581   7.229   5.347   7.565  0.2432  0.3225  0.3375
  442MOL0     C59582   7.131   5.262   7.515 -0.2289  0.0475 -0.9933
  442MOL0     O59583   6.866   5.137   7.460  0.3053 -0.4864  0.3982
  442MOL0     C59584   6.743   4.944   7.295  0.5103 -0.4930  0.2683
  442MOL0     C59585   6.666   4.868   7.198 -1.6650 -0.0275  0.1695
  442MOL0     N59586   6.617   4.772   6.461  0.3199 -0.7947  0.3118
  442MOL0     N59587   6.585   4.898   6.436 -0.7214  0.3334 -0.2798
  442MOL0     C59588   7.308   5.186   6.817  0.0326  0.4816 -0.3905
  442MOL0     C59589   7.401   5.141   6.910 -0.2793  0.0141 -0.2894
  442MOL0     C59590   7.821   5.114   7.081  0.4246 -0.3634 -0.4629
  442MOL0     C59591   7.793   5.127   7.221 -0.1711 -0.9709  0.1669
  442MOL0     C59592   7.890   5.092   7.315 -0.7985  0.0819  0.4170
  442MOL0     C59593   8.017   5.043   7.267 -0.2381 -0.4160 -0.1610
  442MOL0     O59594   8.115   4.999   7.352 -0.3528  0.2928  0.5367
  442MOL0     C59595   8.080   4.920   7.461  0.2156 -0.0297 -0.0572
  442MOL0     C59596   8.199   4.856   7.536  0.1945 -0.5436 -0.4561
  442MOL0     C59597   8.325   4.945   7.566  0.0857 -0.1564  0.1568
  442MOL0     C59598   8.435   4.884   7.662  0.5519  0.3188  0.4928
  442MOL0     C59599   8.374   4.857   7.792 -0.3743 -0.2641  1.1426
  442MOL0     C59600   8.330   4.840   7.902 -1.2392 -0.3774  0.0343
  442MOL0     C59601   8.047   5.053   7.136  0.1845 -0.1398  0.7774
  442MOL0     C59602   7.949   5.077   7.042  0.3763 -0.7014  0.2773
  442MOL0     H59603   7.589   5.402   6.935  0.6713 -2.1433  0.3162
  442MOL0     H59604   7.434   5.500   6.754  3.9431 -0.3848 -1.4735
  442MOL0     H59605   7.118   5.209   6.610  0.3500  1.0638 -1.5331
  442MOL0     H59606   7.036   5.306   6.733  0.9136 -0.4326  0.6140
  442MOL0     H59607   7.008   5.496   6.557 -0.6691  0.7448 -0.0280
  442MOL0     H59608   7.104   5.404   6.446 -0.8969  0.8011 -0.9463
  442MOL0     H59609   6.868   5.371   6.381 -0.3699  1.4162  1.3908
  442MOL0     H59610   6.948   5.229   6.439  3.8210  1.4440 -1.2394
  442MOL0     H59611   6.841   5.260   6.662  0.0642 -0.6000 -0.5122
  442MOL0     H59612   6.763   5.412   6.601  1.8794  0.6609 -2.2605
  442MOL0     H59613   6.618   5.283   6.464 -0.6156 -0.0584 -0.1301
  442MOL0     H59614   6.731   5.146   6.477  2.0084 -0.9808  3.1616
  442MOL0     H59615   6.664   5.077   6.692  1.2677  0.5660 -0.0874
  442MOL0     H59616   6.629   5.244   6.746  0.6862 -3.3217  3.2783
  442MOL0     H59617   6.430   5.096   6.737 -1.0626  2.6895  0.6647
  442MOL0     H59618   6.404   5.236   6.644 -3.5306 -2.3849 -1.6782
  442MOL0     H59619   6.436   5.135   6.435  0.1694 -0.9787 -0.5671
  442MOL0     H59620   6.316   5.052   6.526 -0.9161  3.7932  2.3081
  442MOL0     H59621   6.362   4.829   6.660 -0.0344 -0.8238 -0.0906
  442MOL0     H59622   6.431   4.562   6.606 -0.4465  0.0440  0.4444
  442MOL0     H59623   6.611   4.533   6.585 -1.2383 -0.4293 -2.0002
  442MOL0     H59624   6.498   4.479   6.798 -1.7903  0.8734  2.8669
  442MOL0     H59625   6.461   4.638   6.819 -2.4566 -2.3317 -1.4814
  442MOL0     H59626   6.752   4.565   6.775 -0.3974  0.1839  0.1920
  442MOL0     H59627   6.684   4.565   6.941  0.6814 -0.5246  0.7353
  442MOL0     H59628   6.672   4.800   6.764  0.0750  1.4204  1.0821
  442MOL0     H59629   6.812   4.768   6.878 -0.0016  0.0162  0.2259
  442MOL0     H59630   6.818   4.989   6.921  0.7651 -0.9425 -0.4312
  442MOL0     H59631   7.071   5.124   7.089  0.5209 -0.2964 -0.2086
  442MOL0     H59632   6.959   5.166   6.946 -2.1463 -1.9427  0.5493
  442MOL0     H59633   6.966   5.263   7.076  1.1143  0.9488 -1.5582
  442MOL0     H59634   7.252   5.215   7.213 -0.7699  0.2913 -0.6147
  442MOL0     H59635   7.427   5.375   7.306  1.1093  1.9682  2.1054
  442MOL0     H59636   7.601   5.427   7.429 -0.9858  0.6779 -1.3915
  442MOL0     H59637   7.559   5.592   7.463  0.4517 -0.2383 -1.3217
  442MOL0     H59638   7.632   5.566   7.699  1.9325 -0.9584  2.0201
  442MOL0     H59639   7.687   5.406   7.663  0.1392  0.0244  0.1138
  442MOL0     H59640   7.866   5.577   7.672  0.2259  2.1613  0.7996
  442MOL0     H59641   7.768   5.683   7.566 -0.4046 -0.7477 -1.9696
  442MOL0     H59642   7.894   5.419   7.464 -0.0001 -0.5987  2.0707
  442MOL0     H59643   7.824   5.547   7.358  3.6725 -0.6848 -1.4558
  442MOL0     H59644   8.088   5.577   7.499  1.8368  1.5365 -0.4135
  442MOL0     H59645   8.013   5.709   7.430 -0.4924 -0.1429 -2.7146
  442MOL0     H59646   8.028   5.621   7.207  0.7978 -1.6366 -0.9995
  442MOL0     H59647   8.190   5.629   7.284  0.1813 -0.2938  3.9257
  442MOL0     H59648   8.013   5.401   7.211 -0.2422  2.3634 -1.7705
  442MOL0     H59649   8.158   5.383   7.324 -4.2364  0.9242  2.9594
  442MOL0     H59650   8.212   5.289   7.123 -0.9191 -1.3225 -2.1587
  442MOL0     H59651   8.304   5.436   7.107  0.0184 -0.1538  2.6565
  442MOL0     H59652   7.215   5.381   7.667  0.4203  0.4521  0.3201
  442MOL0     H59653   7.056   5.226   7.585  0.7001 -2.9310 -1.3736
  442MOL0     H59654   6.733   4.924   7.401  2.0504  0.0257  0.5421
  442MOL0     H59655   6.591   4.793   7.218 -1.0034 -1.3804 -2.0533
  442MOL0     H59656   7.235   5.115   6.779  1.4147 -0.8809 -0.5959
  442MOL0     H59657   7.406   5.045   6.960 -0.8414  2.2398  4.7202
  442MOL0     H59658   7.695   5.162   7.250 -0.3502 -1.0250 -0.3598
  442MOL0     H59659   7.857   5.092   7.418  1.3773 -0.0431  1.1566
  442MOL0     H59660   8.028   4.980   7.536 -1.6489 -1.2295 -0.3218
  442MOL0     H59661   8.017   4.839   7.424 -0.4473  1.1530 -1.6491
  442MOL0     H59662   8.234   4.776   7.471 -1.4315  0.8717 -3.2856
  442MOL0     H59663   8.160   4.814   7.629 -0.4226 -1.9767 -1.3336
  442MOL0     H59664   8.286   5.039   7.606 -0.7958  0.1214 -1.3057
  442MOL0     H59665   8.368   4.967   7.468 -2.0874 -0.9437 -1.0347
  442MOL0     H59666   8.526   4.945   7.663  0.5778  0.4059 -1.7414
  442MOL0     H59667   8.465   4.785   7.624 -0.3940 -0.9148  2.7911
  442MOL0     H59668   8.302   4.837   8.005 -2.6588  2.8450 -0.1278
  442MOL0     H59669   8.148   5.038   7.097 -0.7218  1.3302 -2.4772
  442MOL0     H59670   7.987   5.074   6.940  0.6225 -2.5162  0.3906
  443MOL0     O59671   2.460  11.217   0.850  0.0923 -0.2976  0.1024
  443MOL0     C59672   2.425  11.280   0.944  0.6157  0.3627 -0.0418
  443MOL0     O59673   2.304  11.278   0.999  0.0742  0.2767  0.3611
  443MOL0     C59674   2.207  11.214   0.924 -1.3124 -0.2363 -0.4608
  443MOL0     C59675   2.093  11.285   0.902 -0.3167  0.1000 -1.1205
  443MOL0     C59676   1.990  11.231   0.825  0.5629  0.2076  0.4666
  443MOL0     C59677   1.999  11.108   0.765  0.3664  1.2076 -0.3929
  443MOL0     O59678   1.906  11.055   0.679 -0.0993  0.1555  0.2978
  443MOL0     C59679   1.858  11.142   0.570 -0.4306  1.0362 -0.4474
  443MOL0     C59680   1.741  11.233   0.615  0.4339 -0.1435 -0.5338
  443MOL0     C59681   1.597  11.191   0.565  0.6385  0.4221 -0.9831
  443MOL0     C59682   1.497  11.282   0.645  0.1425  0.1795  0.2272
  443MOL0     C59683   1.353  11.252   0.603  0.0503  0.4658 -0.2901
  443MOL0     C59684   1.254  11.327   0.702 -0.5727  0.9122  0.0983
  443MOL0     C59685   1.128  11.247   0.734  0.1679 -0.2509  0.4593
  443MOL0     C59686   1.062  11.276   0.869  0.4083 -0.3540 -0.3833
  443MOL0     N59687   0.917  11.301   0.857 -0.7703 -0.0630  0.1789
  443MOL0     C59688   0.833  11.202   0.814 -0.0339 -0.2826  0.3644
  443MOL0     C59689   0.709  11.252   0.841  0.4627 -0.1543  1.1417
  443MOL0     C59690   0.585  11.171   0.809 -0.1520  0.3805 -0.1307
  443MOL0     C59691   0.523  11.225   0.683 -0.2321  0.1822 -0.3450
  443MOL0     C59692   0.392  11.291   0.713  0.1738 -0.0237  0.1303
  443MOL0     C59693   0.356  11.364   0.591 -0.9320 -0.3155  0.1265
  443MOL0     O59694   0.304  11.266   0.503  0.1776 -0.4087 -0.6415
  443MOL0     C59695   0.171  11.268   0.468  0.6573  0.4830  0.4977
  443MOL0     C59696   0.127  11.149   0.415  0.3746 -0.1677 -0.6221
  443MOL0     C59697  -0.007  11.130   0.379 -0.2366 -0.5312  0.7505
  443MOL0     C59698  -0.039  10.998   0.320 -1.0251 -0.1851 -0.1659
  443MOL0     C59699  -0.100  11.235   0.385 -0.1705  0.6098 -0.5560
  443MOL0     C59700  -0.243  11.222   0.339 -0.6161 -0.1005  0.3121
  443MOL0     O59701  -0.319  11.328   0.370 -0.3189 -0.7097 -0.0392
  443MOL0     C59702  -0.437  11.338   0.299 -0.5052 -0.5646  0.1501
  443MOL0     C59703  -0.551  11.266   0.332 -0.1327 -0.3561 -1.2192
  443MOL0     C59704  -0.665  11.273   0.247 -1.5755 -0.7084 -0.4134
  443MOL0     C59705  -0.672  11.368   0.149 -0.4636  0.8623  0.6128
  443MOL0     O59706  -0.787  11.370   0.074 -0.0220 -0.5876  0.2844
  443MOL0     C59707  -0.784  11.459  -0.044  1.1139  1.0936 -0.1647
  443MOL0     C59708  -0.917  11.430  -0.123 -0.3577 -0.6876  0.1068
  443MOL0     C59709  -1.029  11.512  -0.053 -0.3984 -0.2378 -0.2527
  443MOL0     C59710  -1.051  11.490   0.097 -0.3789  0.3241 -0.3993
  443MOL0     C59711  -1.185  11.544   0.139 -0.8779  0.3595 -0.5169
  443MOL0     C59712  -1.229  11.525   0.278  0.2994  0.7593 -0.1500
  443MOL0     C59713  -1.265  11.378   0.309  0.3242  0.3098 -0.2528
  443MOL0     C59714  -1.324  11.371   0.450  0.9454  0.0620  0.7005
  443MOL0    Cl59715  -1.201  11.429   0.564 -0.1540 -0.3613 -0.3409
  443MOL0     C59716  -0.561  11.449   0.133 -0.4111  0.3885 -0.4093
  443MOL0     C59717  -0.443  11.436   0.207  0.1714 -0.6314 -0.3936
  443MOL0     O59718  -0.281  11.132   0.268 -0.3806 -0.1698 -0.8075
  443MOL0     C59719  -0.057  11.361   0.438  0.4740  0.1440  0.7163
  443MOL0     C59720   0.074  11.377   0.474  0.5296  0.1946  0.1617
  443MOL0     N59721   0.715  11.375   0.893 -0.3618 -1.4803 -0.4405
  443MOL0     N59722   0.848  11.406   0.896 -0.2233  0.4648 -1.0987
  443MOL0     C59723   2.111  11.033   0.796  0.0157  0.0906  0.2101
  443MOL0     C59724   2.212  11.083   0.878  0.8179 -0.5094 -0.3166
  443MOL0     C59725   2.520  11.383   0.997  0.1113 -0.6322  0.3215
  443MOL0     C59726   2.466  11.490   1.068 -0.3386 -1.2026  0.1890
  443MOL0     C59727   2.556  11.600   1.100  0.2884 -1.1981 -0.2022
  443MOL0     C59728   2.695  11.582   1.080  0.0961  0.3839 -0.0398
  443MOL0     O59729   2.766  11.679   1.154  0.4364  0.1389 -0.1130
  443MOL0     C59730   2.910  11.661   1.188  0.5734 -0.0045 -0.0105
  443MOL0     C59731   2.970  11.788   1.242  0.5783  0.7198 -0.4959
  443MOL0     C59732   2.974  11.908   1.145  0.5605  0.5803  0.5607
  443MOL0     C59733   3.100  11.988   1.165  0.3631 -0.4689 -0.3724
  443MOL0     C59734   3.095  12.080   1.283 -0.4353 -0.5711  0.2936
  443MOL0     C59735   3.095  12.143   1.380 -0.2928 -0.6402  0.3193
  443MOL0     C59736   2.739  11.480   1.007 -0.2792 -0.0948  0.2182
  443MOL0     C59737   2.652  11.389   0.954  0.5254  0.1894  0.2481
  443MOL0     H59738   2.104  11.388   0.936  1.6124  1.1442 -4.3901
  443MOL0     H59739   1.912  11.305   0.810  1.1801  0.7574 -0.0779
  443MOL0     H59740   1.926  11.211   0.519 -1.9636 -0.2495 -4.5908
  443MOL0     H59741   1.818  11.072   0.496 -2.5852 -0.1043  1.6607
  443MOL0     H59742   1.739  11.233   0.724  1.6879 -0.0423 -0.4967
  443MOL0     H59743   1.767  11.331   0.574  3.8252 -1.5345 -2.1670
  443MOL0     H59744   1.589  11.198   0.456  0.7040 -4.0005 -1.4891
  443MOL0     H59745   1.572  11.085   0.582 -1.9808  0.5353 -3.3397
  443MOL0     H59746   1.510  11.271   0.753 -3.4159  0.4791  0.7857
  443MOL0     H59747   1.514  11.388   0.620  1.0425 -0.4400 -2.0118
  443MOL0     H59748   1.335  11.296   0.504  1.8076 -0.3453 -1.0233
  443MOL0     H59749   1.326  11.146   0.605  2.0360 -0.1427  3.4893
  443MOL0     H59750   1.306  11.365   0.790  1.2774  0.6899 -0.8684
  443MOL0     H59751   1.221  11.419   0.653  1.1351 -0.2266 -3.5853
  443MOL0     H59752   1.065  11.277   0.650  2.0275 -0.1472 -0.9495
  443MOL0     H59753   1.144  11.141   0.713  0.6194 -0.0649 -0.1641
  443MOL0     H59754   1.114  11.364   0.907  1.6721 -0.2386 -2.2758
  443MOL0     H59755   1.077  11.186   0.929 -1.2575 -0.4861 -0.1144
  443MOL0     H59756   0.864  11.102   0.784  2.2064  0.5046 -0.1572
  443MOL0     H59757   0.611  11.068   0.785 -1.4897  0.0307 -0.1535
  443MOL0     H59758   0.518  11.181   0.895 -0.3932  2.5379 -0.5140
  443MOL0     H59759   0.517  11.139   0.615 -1.1835  0.0467 -0.0960
  443MOL0     H59760   0.591  11.293   0.631 -0.4887  2.0500  1.6276
  443MOL0     H59761   0.402  11.372   0.786 -1.9282  0.0586  0.3715
  443MOL0     H59762   0.315  11.220   0.742  0.7750 -0.3030  1.0890
  443MOL0     H59763   0.440  11.410   0.540 -1.3162  0.2945  0.0370
  443MOL0     H59764   0.279  11.440   0.610 -2.2767 -1.7155  0.5445
  443MOL0     H59765   0.206  11.074   0.411  4.6507  3.7882  0.2926
  443MOL0     H59766  -0.089  11.010   0.223  1.0381  0.1153 -1.2577
  443MOL0     H59767   0.057  10.954   0.292  0.3688  1.0397  2.4168
  443MOL0     H59768  -0.094  10.946   0.399  2.1041  0.0529  2.3637
  443MOL0     H59769  -0.547  11.204   0.422 -0.2673  2.0920  0.5792
  443MOL0     H59770  -0.750  11.214   0.282  0.6320 -1.6976  3.9822
  443MOL0     H59771  -0.788  11.564  -0.013  0.1158  0.2316  2.9827
  443MOL0     H59772  -0.706  11.426  -0.114  0.1491 -1.8757  0.0399
  443MOL0     H59773  -0.905  11.453  -0.229 -2.0720 -0.7837 -0.1369
  443MOL0     H59774  -0.941  11.324  -0.111  1.9594 -0.9891  3.4741
  443MOL0     H59775  -1.121  11.504  -0.113  0.5853 -0.6788 -1.7789
  443MOL0     H59776  -0.994  11.614  -0.073  2.2719 -1.1591 -0.6215
  443MOL0     H59777  -1.050  11.381   0.112 -1.2770  0.3702  0.0505
  443MOL0     H59778  -0.979  11.531   0.168 -0.7939 -1.6961  1.3098
  443MOL0     H59779  -1.260  11.493   0.078 -0.2087 -1.7322  0.3113
  443MOL0     H59780  -1.180  11.652   0.121 -0.4604  0.3166 -0.6749
  443MOL0     H59781  -1.159  11.565   0.352 -2.0100  4.6870  0.1766
  443MOL0     H59782  -1.319  11.588   0.281  2.4175  3.9571  0.8823
  443MOL0     H59783  -1.181  11.308   0.300  0.1112  0.3161 -3.5132
  443MOL0     H59784  -1.328  11.330   0.234  1.7730 -1.2393 -0.5423
  443MOL0     H59785  -1.358  11.272   0.482  0.1693  0.6784  1.8383
  443MOL0     H59786  -1.409  11.439   0.442  1.3802  0.4244 -1.5522
  443MOL0     H59787  -0.571  11.534   0.066 -0.5143 -0.3429 -1.3343
  443MOL0     H59788  -0.367  11.508   0.180  0.1519 -0.8816 -1.1348
  443MOL0     H59789  -0.123  11.446   0.449  2.2707  1.8293 -0.8688
  443MOL0     H59790   0.108  11.473   0.511  0.1501  1.0344 -1.5579
  443MOL0     H59791   2.123  10.931   0.762 -0.8935  0.5085 -1.4899
  443MOL0     H59792   2.296  11.015   0.893  1.9263  0.9434  0.2484
  443MOL0     H59793   2.362  11.496   1.098  0.0138  1.8383  1.1718
  443MOL0     H59794   2.518  11.688   1.151 -1.6083 -0.8299 -2.1229
  443MOL0     H59795   2.908  11.595   1.275 -2.1680  2.0553  1.6008
  443MOL0     H59796   2.960  11.623   1.098  1.0152  0.3920  0.0655
  443MOL0     H59797   3.069  11.753   1.274 -0.2663 -0.2681  1.1467
  443MOL0     H59798   2.916  11.813   1.334 -0.6229 -2.2108 -0.2979
  443MOL0     H59799   2.885  11.971   1.159 -0.1751  0.1051 -1.6445
  443MOL0     H59800   2.978  11.865   1.045  0.9626 -0.1793  0.8973
  443MOL0     H59801   3.110  12.050   1.075 -0.4627  1.3838  0.7397
  443MOL0     H59802   3.188  11.924   1.173  2.2152  2.1205  1.6427
  443MOL0     H59803   3.081  12.195   1.473 -0.0019 -0.1246  0.0757
  443MOL0     H59804   2.844  11.462   0.985 -0.7873 -3.3083 -0.1660
  443MOL0     H59805   2.677  11.308   0.886 -3.3103 -0.3574 -0.7765
  444MOL0     O59806  10.341   5.393   1.577  0.0124 -0.7064 -0.0710
  444MOL0     C59807  10.369   5.410   1.700  0.1932 -0.9277  0.3815
  444MOL0     O59808  10.278   5.399   1.803 -0.2796 -0.2475  0.2729
  444MOL0     C59809  10.143   5.375   1.770 -0.0465 -0.0380 -1.8767
  444MOL0     C59810  10.072   5.454   1.685  0.4958  0.9155 -0.4921
  444MOL0     C59811   9.939   5.438   1.652  1.2961  0.2008  0.1226
  444MOL0     C59812   9.873   5.322   1.693 -0.5867  1.0097 -0.3002
  444MOL0     O59813   9.748   5.279   1.652  0.0355  0.1194 -0.1382
  444MOL0     C59814   9.704   5.300   1.522 -0.3232  0.6488  0.6553
  444MOL0     C59815   9.566   5.228   1.513 -0.2561 -0.0747  0.0047
  444MOL0     C59816   9.579   5.082   1.553 -0.8074 -0.4852  0.8310
  444MOL0     C59817   9.444   5.024   1.558  0.9247  0.2614  0.1508
  444MOL0     C59818   9.446   4.866   1.575 -0.4532 -0.5132  0.0370
  444MOL0     C59819   9.306   4.814   1.614 -0.0657  0.5865  0.0766
  444MOL0     C59820   9.207   4.834   1.502 -0.5386  0.6501  0.6451
  444MOL0     C59821   9.058   4.796   1.548  0.7724 -0.1019  0.0858
  444MOL0     N59822   8.945   4.830   1.451  0.7487 -0.2749 -0.4086
  444MOL0     C59823   8.914   4.761   1.335  0.7604  0.6929 -0.9682
  444MOL0     C59824   8.826   4.841   1.274  0.6649  0.1172  0.8016
  444MOL0     C59825   8.774   4.807   1.135  0.7163 -0.2651 -0.2128
  444MOL0     C59826   8.646   4.713   1.133  1.3439 -0.8001  0.2705
  444MOL0     C59827   8.586   4.701   0.995 -0.4637 -1.2837  0.7685
  444MOL0     C59828   8.446   4.635   1.007 -0.4418 -0.5413  0.2002
  444MOL0     O59829   8.376   4.630   0.879  0.0237  0.0710 -0.0146
  444MOL0     C59830   8.249   4.573   0.882  0.6040  0.1506 -0.5236
  444MOL0     C59831   8.189   4.509   0.991  0.6267  0.4240  0.6801
  444MOL0     C59832   8.068   4.434   0.979 -0.0894  0.7177 -0.4175
  444MOL0     C59833   8.001   4.375   1.105  0.3488 -0.4460  0.1303
  444MOL0     C59834   8.009   4.436   0.857  0.6342  1.0150  0.8603
  444MOL0     C59835   7.899   4.354   0.822  0.2572  0.2059 -0.2894
  444MOL0     O59836   7.807   4.403   0.741 -0.3206 -0.2085  0.5357
  444MOL0     C59837   7.708   4.316   0.704  0.2316 -0.9711 -0.0949
  444MOL0     C59838   7.594   4.315   0.782  0.9699 -0.4035  0.0542
  444MOL0     C59839   7.484   4.242   0.739 -0.7444  0.0388 -0.5736
  444MOL0     C59840   7.479   4.183   0.616 -0.2068 -0.1269  0.7281
  444MOL0     O59841   7.360   4.124   0.583  0.9265 -0.2219  0.0401
  444MOL0     C59842   7.317   4.130   0.443 -0.0195 -0.5506  0.3756
  444MOL0     C59843   7.162   4.130   0.430 -0.4125 -0.2123  0.4604
  444MOL0     C59844   7.117   4.066   0.289 -0.1087  0.5396 -0.3926
  444MOL0     C59845   6.970   4.086   0.255 -0.4797 -0.2406 -1.5994
  444MOL0     C59846   6.924   4.009   0.131  0.1146 -0.2067 -0.0822
  444MOL0     C59847   6.780   4.053   0.104  0.3549 -0.1762  0.4652
  444MOL0     C59848   6.759   4.004  -0.034  0.7270 -0.1509 -0.6132
  444MOL0     C59849   6.635   4.051  -0.105  0.2189  0.8086 -0.1200
  444MOL0    Cl59850   6.639   4.057  -0.275  0.1957 -0.1548 -0.0613
  444MOL0     C59851   7.592   4.180   0.534 -0.3330  0.3067  0.3870
  444MOL0     C59852   7.705   4.249   0.574 -0.1101  0.4050 -0.1970
  444MOL0     O59853   7.891   4.244   0.880 -0.0578 -0.4728  0.1386
  444MOL0     C59854   8.066   4.502   0.752 -0.7092  0.0041 -0.2346
  444MOL0     C59855   8.185   4.573   0.764 -0.1972 -0.4507  0.4014
  444MOL0     N59856   8.788   4.942   1.360  0.8358 -0.0836 -0.0999
  444MOL0     N59857   8.857   4.937   1.468 -0.4259 -0.2555 -1.1594
  444MOL0     C59858   9.940   5.241   1.796  0.7827 -0.5507  0.8172
  444MOL0     C59859  10.075   5.266   1.825 -0.6577 -0.1008 -0.1123
  444MOL0     C59860  10.503   5.452   1.745  0.4188 -0.1150  0.6717
  444MOL0     C59861  10.599   5.498   1.654  0.0286  0.0937 -0.3873
  444MOL0     C59862  10.714   5.557   1.698 -0.4835 -0.1417  0.3599
  444MOL0     C59863  10.743   5.558   1.841 -0.8449  0.4386 -0.1861
  444MOL0     O59864  10.861   5.607   1.890  0.2983 -0.4256 -0.2527
  444MOL0     C59865  10.971   5.677   1.815  0.0102 -0.5460  0.3043
  444MOL0     C59866  10.918   5.821   1.787 -0.4715  0.5191 -0.7996
  444MOL0     C59867  10.911   5.912   1.908  0.1311  0.7456 -0.2207
  444MOL0     C59868  11.037   5.999   1.904  0.4885 -0.2100  0.2247
  444MOL0     C59869  11.158   5.938   1.958  0.4842  0.9154  0.1531
  444MOL0     C59870  11.253   5.866   1.985  0.2097  0.0806 -0.9401
  444MOL0     C59871  10.645   5.524   1.932  0.0639  0.2351  0.1391
  444MOL0     C59872  10.529   5.465   1.882 -0.9474  0.0569  0.3062
  444MOL0     H59873  10.119   5.544   1.646  1.0859  0.7981 -0.0639
  444MOL0     H59874   9.896   5.503   1.577  1.4516 -1.3563 -1.4016
  444MOL0     H59875   9.699   5.408   1.508 -0.2740  0.9484  2.6617
  444MOL0     H59876   9.774   5.266   1.445  1.3169  3.7821  0.6176
  444MOL0     H59877   9.497   5.286   1.575 -1.9039 -1.2942 -0.6569
  444MOL0     H59878   9.525   5.224   1.412 -2.6423 -2.0055  0.9651
  444MOL0     H59879   9.647   5.031   1.484  1.6475  4.4227 -0.7952
  444MOL0     H59880   9.625   5.065   1.651  0.1062 -0.0353  0.4856
  444MOL0     H59881   9.391   5.058   1.647 -1.2125 -1.0395 -0.5351
  444MOL0     H59882   9.393   5.043   1.463  2.5315  0.7915 -0.6411
  444MOL0     H59883   9.483   4.822   1.483 -1.9303  1.7268 -1.7544
  444MOL0     H59884   9.524   4.849   1.650  0.0911 -1.1885 -0.6588
  444MOL0     H59885   9.319   4.707   1.635 -0.4936  1.3715  6.0534
  444MOL0     H59886   9.272   4.856   1.709 -1.4016 -0.5471  0.1402
  444MOL0     H59887   9.205   4.936   1.462  1.8278  0.1427 -0.9987
  444MOL0     H59888   9.239   4.763   1.426 -0.2354  0.8161  0.6150
  444MOL0     H59889   9.033   4.843   1.643 -1.1861 -2.4838  0.8481
  444MOL0     H59890   9.055   4.688   1.567 -1.6374 -1.3295 -5.2926
  444MOL0     H59891   8.944   4.668   1.286 -1.7946 -0.1879 -1.0171
  444MOL0     H59892   8.764   4.895   1.071  0.5442 -0.9988 -1.2197
  444MOL0     H59893   8.853   4.746   1.090  0.0029 -0.4788 -1.1982
  444MOL0     H59894   8.565   4.741   1.200 -1.3231 -0.2869 -2.9062
  444MOL0     H59895   8.660   4.612   1.171 -1.4394 -1.3413  0.0164
  444MOL0     H59896   8.638   4.637   0.923  1.1732  1.7172 -0.9077
  444MOL0     H59897   8.579   4.804   0.960 -1.1986 -0.8697  2.0696
  444MOL0     H59898   8.386   4.693   1.077  0.9122 -0.2924  1.1963
  444MOL0     H59899   8.464   4.534   1.045 -1.8789 -0.9574 -0.1566
  444MOL0     H59900   8.234   4.509   1.090 -2.0896 -0.9082  2.0362
  444MOL0     H59901   8.007   4.266   1.094  4.2018 -0.2592 -1.5490
  444MOL0     H59902   8.054   4.403   1.196  0.0573 -3.8605  1.4769
  444MOL0     H59903   7.899   4.413   1.110  1.4176  3.0032 -1.1339
  444MOL0     H59904   7.585   4.362   0.879 -1.5046 -0.2574 -0.1885
  444MOL0     H59905   7.400   4.224   0.806  0.8949  0.1672  1.6107
  444MOL0     H59906   7.365   4.214   0.391  2.5721 -1.6008  0.9254
  444MOL0     H59907   7.362   4.050   0.383  0.3580  1.2764 -1.9114
  444MOL0     H59908   7.119   4.066   0.507  0.6767  0.2881  1.5225
  444MOL0     H59909   7.135   4.236   0.440  0.8181  0.1757 -0.0436
  444MOL0     H59910   7.128   3.958   0.304 -2.2821  0.6205  2.6137
  444MOL0     H59911   7.189   4.095   0.212 -1.2853  0.4594 -1.5663
  444MOL0     H59912   6.910   4.055   0.341  0.9026 -1.6643 -1.1025
  444MOL0     H59913   6.972   4.194   0.235 -0.5369 -0.2844 -1.8487
  444MOL0     H59914   6.942   3.904   0.155  3.5562  0.2631 -0.0568
  444MOL0     H59915   6.990   4.044   0.051 -1.0092  1.0418 -0.4924
  444MOL0     H59916   6.703   4.018   0.174 -0.3538  2.7907  1.3358
  444MOL0     H59917   6.776   4.162   0.108 -0.8624 -0.0820 -1.4562
  444MOL0     H59918   6.756   3.895  -0.036 -0.8665 -0.1316 -2.3020
  444MOL0     H59919   6.838   4.044  -0.098  1.0156  0.2819  0.0031
  444MOL0     H59920   6.613   4.155  -0.078 -2.4675  0.6561 -1.4029
  444MOL0     H59921   6.552   3.993  -0.063  2.5250 -2.0753  0.7346
  444MOL0     H59922   7.575   4.130   0.439 -3.1855  0.8482  0.5261
  444MOL0     H59923   7.795   4.245   0.513  0.2477  1.9331  0.1897
  444MOL0     H59924   8.023   4.491   0.652  1.3263  0.5621 -1.2175
  444MOL0     H59925   8.231   4.622   0.679  2.5438 -0.9476  1.4997
  444MOL0     H59926   9.912   5.142   1.830 -1.0239  0.0808  1.2575
  444MOL0     H59927  10.123   5.197   1.893  2.1534  0.7822 -1.0685
  444MOL0     H59928  10.588   5.487   1.546  1.3294  0.8040 -0.6143
  444MOL0     H59929  10.791   5.586   1.628  1.0475 -2.7334  0.8392
  444MOL0     H59930  11.061   5.680   1.877 -0.0507 -2.7246  0.5631
  444MOL0     H59931  10.988   5.636   1.715  0.5147  1.0946 -0.3278
  444MOL0     H59932  10.826   5.819   1.729 -1.2238 -2.1890  0.3358
  444MOL0     H59933  10.979   5.869   1.709  0.8327 -0.9996 -0.7679
  444MOL0     H59934  10.918   5.863   2.005 -0.6534 -0.7780 -0.8843
  444MOL0     H59935  10.820   5.972   1.901 -2.9392 -3.2906  0.7682
  444MOL0     H59936  11.024   6.093   1.959 -4.9125  0.3341 -1.4456
  444MOL0     H59937  11.049   6.032   1.800 -2.2917 -1.3304 -0.5408
  444MOL0     H59938  11.344   5.810   1.991 -0.2683 -0.5984  4.2996
  444MOL0     H59939  10.659   5.528   2.040  0.0728  4.0777  0.1251
  444MOL0     H59940  10.455   5.443   1.958  0.1315  0.2529  1.4405
  445MOL0     O59941   4.986   2.128  10.476 -0.1021  1.1902 -0.3141
  445MOL0     C59942   5.050   2.231  10.462 -0.0893  0.2038  0.1347
  445MOL0     O59943   4.992   2.359  10.434  0.5743  0.5182  0.4393
  445MOL0     C59944   4.851   2.359  10.411  0.5522  0.6505 -0.3046
  445MOL0     C59945   4.779   2.469  10.469 -0.0924  0.3726  0.4379
  445MOL0     C59946   4.639   2.476  10.466  0.7342  0.0977 -0.0971
  445MOL0     C59947   4.564   2.368  10.415  0.4399  0.2098 -0.6120
  445MOL0     O59948   4.431   2.356  10.438  0.0036 -0.2474 -0.1743
  445MOL0     C59949   4.353   2.258  10.368 -0.3073  0.9591 -0.8451
  445MOL0     C59950   4.207   2.290  10.382  0.3366 -0.4121 -1.0594
  445MOL0     C59951   4.163   2.439  10.376  0.0912  0.7268  0.0971
  445MOL0     C59952   4.009   2.465  10.394 -0.2588 -0.5456 -0.7206
  445MOL0     C59953   3.975   2.619  10.385  1.0311 -1.2992 -0.2101
  445MOL0     C59954   3.825   2.625  10.418  0.0244 -0.1331 -0.7561
  445MOL0     C59955   3.759   2.764  10.417 -0.1425  0.4953 -0.1252
  445MOL0     C59956   3.604   2.740  10.426  0.4860 -0.3650  0.9958
  445MOL0     N59957   3.549   2.709  10.298 -0.1441 -0.1277 -0.0988
  445MOL0     C59958   3.472   2.604  10.254  0.6275  0.1170 -0.1955
  445MOL0     C59959   3.414   2.641  10.142  0.0042 -0.3465  0.9443
  445MOL0     C59960   3.317   2.552  10.072 -0.6405  1.2602  0.0288
  445MOL0     C59961   3.201   2.620  10.009 -0.3287 -0.1234  0.3026
  445MOL0     C59962   3.086   2.528   9.977  0.5093 -0.5296 -0.3977
  445MOL0     C59963   2.959   2.610   9.938  0.5076 -1.5522  0.1434
  445MOL0     O59964   2.977   2.675   9.814 -0.2191 -0.0029  0.0861
  445MOL0     C59965   2.864   2.744   9.761 -0.5009 -0.3824 -0.2864
  445MOL0     C59966   2.892   2.825   9.652  0.5324  0.4964 -0.0273
  445MOL0     C59967   2.799   2.904   9.587 -0.3986  0.2701 -0.6326
  445MOL0     C59968   2.860   3.004   9.487  0.1525  0.2168 -0.4883
  445MOL0     C59969   2.663   2.902   9.620 -0.7197  0.2093  1.1770
  445MOL0     C59970   2.560   2.989   9.563  0.1526 -0.0845  0.8935
  445MOL0     O59971   2.443   2.990   9.635 -0.4100  0.4261 -0.4295
  445MOL0     C59972   2.339   3.053   9.571  1.4103 -0.6645 -0.9874
  445MOL0     C59973   2.291   3.174   9.615  0.4191 -0.2905 -0.6931
  445MOL0     C59974   2.176   3.225   9.553 -0.3607 -0.2578 -0.0082
  445MOL0     C59975   2.116   3.171   9.442 -0.8990 -0.2214  0.0177
  445MOL0     O59976   2.007   3.228   9.382 -0.6536 -1.0147 -0.2197
  445MOL0     C59977   2.000   3.227   9.235 -0.1785  0.5943 -0.4088
  445MOL0     C59978   1.895   3.128   9.189 -0.0242  1.3578  0.7074
  445MOL0     C59979   1.755   3.170   9.230 -0.6006  0.2186 -0.6009
  445MOL0     C59980   1.650   3.078   9.172  0.1438  0.3373  0.5618
  445MOL0     C59981   1.507   3.151   9.182  0.7511 -0.2981  0.4711
  445MOL0     C59982   1.401   3.074   9.106 -0.2004  0.4267  0.2816
  445MOL0     C59983   1.382   2.932   9.177  0.1014 -0.0226  0.0635
  445MOL0     C59984   1.251   2.867   9.137  0.2894  0.6770 -0.8751
  445MOL0    Cl59985   1.106   2.967   9.173  0.3107  0.2873  0.1293
  445MOL0     C59986   2.167   3.046   9.397  1.0058 -0.2099  0.1518
  445MOL0     C59987   2.277   2.990   9.461 -0.1387 -0.1153 -0.6864
  445MOL0     O59988   2.571   3.031   9.445 -0.1850 -0.0809  0.3211
  445MOL0     C59989   2.633   2.822   9.725  1.0544 -0.7288 -1.0968
  445MOL0     C59990   2.734   2.746   9.797 -0.2358 -0.2921 -0.1636
  445MOL0     N59991   3.462   2.763  10.105 -0.4829 -0.0303  0.5441
  445MOL0     N59992   3.549   2.798  10.197  0.1428  0.0051  0.0343
  445MOL0     C59993   4.635   2.273  10.344  0.6597  0.2233 -0.6469
  445MOL0     C59994   4.770   2.269  10.338 -0.0627 -0.6597 -0.5960
  445MOL0     C59995   5.202   2.220  10.475  0.2144  0.3025 -0.5912
  445MOL0     C59996   5.273   2.337  10.474 -0.5586 -0.3886  0.2397
  445MOL0     C59997   5.412   2.340  10.491  0.2032  0.0173 -0.7271
  445MOL0     C59998   5.474   2.213  10.518 -0.3678 -0.2547 -0.0826
  445MOL0     O59999   5.613   2.218  10.544 -0.4345  0.1680  0.5197
  445MOL0     C60000   5.693   2.101  10.545 -0.2988 -0.1508  0.7239
  445MOL0     C60001   5.842   2.149  10.547 -0.6511 -0.0956 -0.5733
  445MOL0     C60002   5.931   2.031  10.582  1.0886 -0.6610  0.2672
  445MOL0     C60003   6.077   2.058  10.590  0.1993  0.1696 -0.2444
  445MOL0     C60004   6.139   2.072  10.462 -0.2967  0.1375  0.3877
  445MOL0     C60005   6.200   2.084  10.359  0.3928  0.3568  0.9091
  445MOL0     C60006   5.403   2.091  10.524  0.8123  0.1883  0.3666
  445MOL0     C60007   5.264   2.095  10.497 -0.5789  0.6935 -0.3700
  445MOL0     H60008   4.844   2.553  10.491  1.5207 -0.5201 -0.7218
  445MOL0     H60009   4.596   2.563  10.515  1.3039  0.2982  0.0553
  445MOL0     H60010   4.374   2.248  10.262 -1.1006 -0.6564 -0.8842
  445MOL0     H60011   4.380   2.166  10.421 -1.0047  1.6172  0.7079
  445MOL0     H60012   4.149   2.237  10.306 -0.3840 -1.2162  0.0075
  445MOL0     H60013   4.181   2.253  10.482  0.0718  5.3166  1.3796
  445MOL0     H60014   4.226   2.495  10.446  1.9986 -0.0186 -0.9626
  445MOL0     H60015   4.194   2.477  10.278 -0.0982  2.9905  0.8407
  445MOL0     H60016   3.957   2.409  10.316  0.1786 -0.5565 -1.0050
  445MOL0     H60017   3.985   2.425  10.493 -1.4566 -0.2418 -0.8746
  445MOL0     H60018   4.032   2.679  10.457 -0.1486  1.2400 -1.2550
  445MOL0     H60019   3.994   2.655  10.284 -1.4177  0.4647 -0.1214
  445MOL0     H60020   3.776   2.567  10.339 -1.9982  0.8328 -0.2744
  445MOL0     H60021   3.809   2.578  10.515 -0.4317 -0.2826 -0.9038
  445MOL0     H60022   3.788   2.818  10.508  0.5379 -0.1208  0.0290
  445MOL0     H60023   3.799   2.815  10.329  1.7973  1.0762  1.0182
  445MOL0     H60024   3.551   2.829  10.461 -1.4194 -2.0725  2.6831
  445MOL0     H60025   3.591   2.663  10.503  0.5358  2.0223  3.5435
  445MOL0     H60026   3.465   2.511  10.310  0.0247 -1.3445 -2.5301
  445MOL0     H60027   3.358   2.487   9.994 -4.5284  0.5444 -1.6222
  445MOL0     H60028   3.280   2.491  10.155 -1.4329  0.1994 -1.0838
  445MOL0     H60029   3.230   2.680   9.922 -0.4805  1.2201  1.1492
  445MOL0     H60030   3.164   2.683  10.090  1.0857 -1.4792  2.0991
  445MOL0     H60031   3.066   2.468  10.066  2.5511  0.8561  1.1081
  445MOL0     H60032   3.095   2.450   9.901 -0.9956 -1.2147  0.0855
  445MOL0     H60033   2.940   2.681  10.019 -1.3895 -0.8175 -0.8865
  445MOL0     H60034   2.873   2.543   9.940  0.9408 -2.1442  2.7941
  445MOL0     H60035   2.994   2.827   9.616  0.5687 -0.2478  0.0220
  445MOL0     H60036   2.834   2.981   9.383  1.1052  1.3104 -0.9912
  445MOL0     H60037   2.847   3.109   9.514 -0.0354 -0.4369  2.3263
  445MOL0     H60038   2.969   3.001   9.497  0.1496  0.1000 -0.4786
  445MOL0     H60039   2.329   3.221   9.705  1.3209 -0.6490 -0.8842
  445MOL0     H60040   2.124   3.310   9.595  1.3100  0.6365  0.3458
  445MOL0     H60041   1.980   3.327   9.195  2.3482  1.2235 -0.2070
  445MOL0     H60042   2.098   3.200   9.197 -1.5653 -2.8060 -1.9928
  445MOL0     H60043   1.903   3.117   9.080  0.0723 -3.1969  0.9845
  445MOL0     H60044   1.918   3.030   9.232 -1.9039  0.4967 -0.1201
  445MOL0     H60045   1.743   3.262   9.173 -2.1201  0.5433  0.1908
  445MOL0     H60046   1.752   3.171   9.340  2.8849 -0.5390 -0.3737
  445MOL0     H60047   1.670   3.065   9.065  1.4093  0.4136  0.7689
  445MOL0     H60048   1.655   2.980   9.221 -0.0813 -0.8855 -1.7515
  445MOL0     H60049   1.509   3.253   9.143  1.5142 -0.7123 -0.6429
  445MOL0     H60050   1.469   3.155   9.284  1.3281 -2.8456  0.8660
  445MOL0     H60051   1.306   3.127   9.100  0.4113  1.4140 -1.4120
  445MOL0     H60052   1.438   3.056   9.005  1.6811 -0.9173  1.1321
  445MOL0     H60053   1.390   2.933   9.286 -0.5968 -0.9572  0.1263
  445MOL0     H60054   1.459   2.866   9.135 -0.6295 -0.6784 -0.2648
  445MOL0     H60055   1.242   2.763   9.172  1.4213 -0.1418 -2.8888
  445MOL0     H60056   1.260   2.853   9.029  0.1183  1.0760 -0.9437
  445MOL0     H60057   2.116   2.996   9.316 -1.1940  1.5644  0.3332
  445MOL0     H60058   2.318   2.893   9.435  0.2749  0.3683 -1.9527
  445MOL0     H60059   2.532   2.815   9.763  1.2827  1.7221  0.1040
  445MOL0     H60060   2.694   2.700   9.887 -1.2050 -0.4366 -0.6596
  445MOL0     H60061   4.584   2.190  10.295 -1.2612  2.0635 -1.9792
  445MOL0     H60062   4.822   2.183  10.297  3.2701  1.0965 -0.3973
  445MOL0     H60063   5.223   2.430  10.452  2.7162  1.2513 -0.8657
  445MOL0     H60064   5.464   2.435  10.492  1.1623 -0.4379 -2.4331
  445MOL0     H60065   5.672   2.046  10.637 -3.0046 -2.8446 -1.2939
  445MOL0     H60066   5.673   2.035  10.460 -1.4238 -0.0024  0.8574
  445MOL0     H60067   5.863   2.225  10.622  0.9586 -0.1773 -0.9082
  445MOL0     H60068   5.875   2.204  10.458 -1.3353  1.7812  0.2735
  445MOL0     H60069   5.917   1.958  10.502  2.2920 -0.8189  0.1762
  445MOL0     H60070   5.907   1.988  10.680 -4.3603  0.7664 -0.1141
  445MOL0     H60071   6.125   1.983  10.654 -2.5090 -2.0778 -0.6577
  445MOL0     H60072   6.079   2.155  10.641  0.7037 -0.6583  1.3859
  445MOL0     H60073   6.266   2.083  10.274  1.1379 -1.2454  1.4712
  445MOL0     H60074   5.466   2.003  10.527 -0.0316 -0.4314 -0.0268
  445MOL0     H60075   5.206   2.003  10.492  0.6116 -0.0863 -0.3809
  446MOL0     O60076   8.047   2.109   2.466 -0.1617 -0.4498 -0.3352
  446MOL0     C60077   8.130   2.144   2.377 -0.4653 -0.0152 -0.8327
  446MOL0     O60078   8.111   2.245   2.282  0.1126  0.2806 -0.4967
  446MOL0     C60079   7.989   2.299   2.286  0.8434  0.1753  1.1052
  446MOL0     C60080   7.893   2.228   2.208  0.0222  0.4070 -0.6372
  446MOL0     C60081   7.757   2.281   2.204 -0.6783  0.4360 -0.1215
  446MOL0     C60082   7.725   2.397   2.268  0.0078 -0.1226 -0.0977
  446MOL0     O60083   7.600   2.456   2.265 -0.4215 -0.1004  0.5271
  446MOL0     C60084   7.493   2.377   2.318 -0.1157 -0.9114  0.6072
  446MOL0     C60085   7.372   2.423   2.234 -0.0789 -0.3992 -0.0664
  446MOL0     C60086   7.322   2.565   2.268 -0.5332  0.2192  0.2799
  446MOL0     C60087   7.186   2.600   2.202 -0.3657 -0.9436  0.7286
  446MOL0     C60088   7.160   2.754   2.220  0.5370 -0.3833  0.8822
  446MOL0     C60089   7.035   2.785   2.146  0.4699 -0.5356  0.5886
  446MOL0     C60090   6.960   2.910   2.196 -0.6907  0.3202 -0.4921
  446MOL0     C60091   6.837   2.939   2.114  0.6196  0.2988  0.0402
  446MOL0     N60092   6.710   2.866   2.138  0.1368 -0.1219 -0.1497
  446MOL0     C60093   6.588   2.905   2.174  0.3795 -1.3405  0.4622
  446MOL0     C60094   6.498   2.804   2.147  0.1400 -0.4890 -0.1659
  446MOL0     C60095   6.348   2.815   2.170 -0.0650  0.6464  0.0939
  446MOL0     C60096   6.277   2.762   2.043 -0.4403 -0.2518  0.2872
  446MOL0     C60097   6.134   2.815   2.026 -0.2869  0.8730 -0.2592
  446MOL0     C60098   6.040   2.760   2.133 -0.0140  0.4566  0.3701
  446MOL0     O60099   5.979   2.629   2.098 -0.0777 -0.2848  0.5411
  446MOL0     C60100   5.870   2.619   2.018  0.3740 -0.5571 -0.5218
  446MOL0     C60101   5.824   2.486   1.995 -0.3800 -0.3316 -0.1990
  446MOL0     C60102   5.724   2.457   1.902  0.2862 -1.0603 -0.2261
  446MOL0     C60103   5.691   2.323   1.864  0.4376  0.1804 -0.7622
  446MOL0     C60104   5.646   2.558   1.850 -0.3740 -0.1387  0.5596
  446MOL0     C60105   5.537   2.536   1.755  0.6742 -0.5152  0.0009
  446MOL0     O60106   5.530   2.619   1.645  0.1341  0.2422 -0.5778
  446MOL0     C60107   5.428   2.600   1.550  0.1141  0.1017 -0.6753
  446MOL0     C60108   5.404   2.489   1.466  0.5486  0.3251 -0.0225
  446MOL0     C60109   5.310   2.488   1.358 -0.2630 -0.4142  0.7116
  446MOL0     C60110   5.246   2.610   1.333  0.6751  0.7374  0.6903
  446MOL0     O60111   5.163   2.622   1.226  0.0325 -0.0668  0.0995
  446MOL0     C60112   5.041   2.702   1.234 -0.3281 -0.5098  0.0019
  446MOL0     C60113   4.946   2.641   1.125 -0.9385  0.3949 -0.0308
  446MOL0     C60114   4.804   2.701   1.126 -0.0116  0.4274 -0.3298
  446MOL0     C60115   4.701   2.605   1.203  0.3290  1.0270  0.5400
  446MOL0     C60116   4.564   2.670   1.199  0.2923 -0.0850  0.1338
  446MOL0     C60117   4.459   2.593   1.269 -0.5515  0.6577 -0.7839
  446MOL0     C60118   4.325   2.645   1.219  0.3667 -0.3121  0.7611
  446MOL0     C60119   4.206   2.577   1.294  0.3976 -0.6552  0.4620
  446MOL0    Cl60120   4.054   2.652   1.247  0.2477 -0.1612 -0.0574
  446MOL0     C60121   5.274   2.719   1.418  0.0239  0.5156 -0.0498
  446MOL0     C60122   5.366   2.713   1.513  0.0775  0.7307  0.3865
  446MOL0     O60123   5.449   2.463   1.792  0.6872 -0.7701  0.6710
  446MOL0     C60124   5.700   2.692   1.873  0.4661  0.0424  0.5380
  446MOL0     C60125   5.811   2.721   1.948 -0.0161 -0.2609  0.8717
  446MOL0     N60126   6.571   2.686   2.121 -0.9234 -1.0101  0.0096
  446MOL0     N60127   6.692   2.729   2.124  0.0613  0.5348  0.4166
  446MOL0     C60128   7.821   2.473   2.333 -0.2251  0.3226  0.2992
  446MOL0     C60129   7.953   2.421   2.346  0.0790  0.2582 -0.2779
  446MOL0     C60130   8.260   2.076   2.375  0.0696 -0.3860 -1.3888
  446MOL0     C60131   8.325   2.029   2.496  0.3813 -0.6645  0.5331
  446MOL0     C60132   8.449   1.968   2.481 -0.3715  0.5258  0.6962
  446MOL0     C60133   8.505   1.940   2.357 -0.3535  1.4114  0.4640
  446MOL0     O60134   8.630   1.895   2.342  1.0684 -0.3798  0.0879
  446MOL0     C60135   8.720   1.920   2.451  0.5584 -0.0404 -0.3743
  446MOL0     C60136   8.866   1.918   2.404  0.7848 -0.1036  1.1960
  446MOL0     C60137   8.891   2.048   2.324 -0.4629  0.2039 -0.3557
  446MOL0     C60138   9.019   2.036   2.241 -0.8866 -1.0152 -0.1447
  446MOL0     C60139   9.133   1.985   2.325  0.1779  1.1377 -0.9756
  446MOL0     C60140   9.216   1.934   2.397  0.0798  0.0545  0.2464
  446MOL0     C60141   8.442   1.989   2.243 -0.5185 -1.1577  0.3406
  446MOL0     C60142   8.314   2.052   2.250 -0.6346  0.9947  0.8254
  446MOL0     H60143   7.923   2.143   2.147 -1.1576  0.5680 -1.4756
  446MOL0     H60144   7.674   2.234   2.153  1.6399 -1.5358 -2.3418
  446MOL0     H60145   7.508   2.269   2.327  0.5564 -1.0025 -1.2633
  446MOL0     H60146   7.461   2.413   2.417  0.4606  2.3130 -0.2661
  446MOL0     H60147   7.386   2.427   2.125 -1.2970  3.5150 -0.2179
  446MOL0     H60148   7.293   2.349   2.250  1.6550 -2.7138 -1.4185
  446MOL0     H60149   7.297   2.576   2.374 -1.4117 -1.2405  0.2452
  446MOL0     H60150   7.389   2.644   2.233 -1.1036 -0.5958 -2.8980
  446MOL0     H60151   7.194   2.572   2.097  0.4838  3.0263 -0.4484
  446MOL0     H60152   7.099   2.546   2.240 -0.1880 -0.7573  1.4287
  446MOL0     H60153   7.166   2.782   2.326 -1.6082 -1.4239  1.3208
  446MOL0     H60154   7.247   2.805   2.177  1.0865 -0.8299  1.4336
  446MOL0     H60155   7.066   2.801   2.043 -0.3104 -3.5763 -0.2004
  446MOL0     H60156   6.967   2.699   2.149  0.5307 -0.6174 -0.3062
  446MOL0     H60157   6.925   2.889   2.298  1.6998  1.7026  0.7229
  446MOL0     H60158   7.034   2.990   2.212 -0.2813 -0.3548  1.2220
  446MOL0     H60159   6.854   2.919   2.008  1.8537  1.3246  0.0200
  446MOL0     H60160   6.817   3.047   2.120 -0.4067  0.0604  1.7330
  446MOL0     H60161   6.558   3.006   2.200  1.2211 -0.1400 -2.7438
  446MOL0     H60162   6.321   2.751   2.254 -1.7881 -1.5311 -1.9688
  446MOL0     H60163   6.328   2.921   2.190  1.9628  1.3808 -1.3387
  446MOL0     H60164   6.292   2.654   2.033 -0.6562 -0.2972  0.4429
  446MOL0     H60165   6.328   2.799   1.954 -0.9992 -1.2789 -0.4914
  446MOL0     H60166   6.097   2.775   1.932 -0.6200 -1.9743  0.9795
  446MOL0     H60167   6.143   2.924   2.029  3.0886  0.6858  0.2553
  446MOL0     H60168   5.964   2.832   2.164 -0.7885  0.0310 -0.4879
  446MOL0     H60169   6.099   2.734   2.222  0.0941  0.9558  0.4487
  446MOL0     H60170   5.868   2.411   2.060  0.3066  0.3702  0.1612
  446MOL0     H60171   5.719   2.289   1.763 -1.4219  0.0467 -1.2824
  446MOL0     H60172   5.754   2.254   1.921  1.3999  1.9361  0.3801
  446MOL0     H60173   5.587   2.291   1.875  0.2224  0.6696 -1.3560
  446MOL0     H60174   5.466   2.403   1.486  1.6367  1.2044  0.4733
  446MOL0     H60175   5.298   2.396   1.302  0.0334 -1.9744  3.0877
  446MOL0     H60176   4.997   2.692   1.334  1.7124 -0.9087  0.9091
  446MOL0     H60177   5.055   2.809   1.220  0.8212 -0.3619  1.9434
  446MOL0     H60178   4.987   2.658   1.026  0.4950 -0.2774  0.4196
  446MOL0     H60179   4.937   2.532   1.134 -0.6035  0.3797  0.1295
  446MOL0     H60180   4.773   2.716   1.022  3.6371 -1.3726 -1.8381
  446MOL0     H60181   4.811   2.798   1.177  1.6709  0.1726 -0.0283
  446MOL0     H60182   4.704   2.502   1.168  2.0216  1.2362 -0.0600
  446MOL0     H60183   4.734   2.601   1.307  0.2455  0.0247  0.5381
  446MOL0     H60184   4.548   2.677   1.092  2.8480  2.1077 -0.2087
  446MOL0     H60185   4.560   2.778   1.217  1.3046  0.2389 -1.3993
  446MOL0     H60186   4.481   2.489   1.245  2.7887  0.3955  2.6438
  446MOL0     H60187   4.455   2.601   1.378  0.5169 -1.7786 -0.5067
  446MOL0     H60188   4.314   2.622   1.113  2.6569 -2.4528  0.8932
  446MOL0     H60189   4.324   2.753   1.238  3.4977  0.1840 -1.1976
  446MOL0     H60190   4.214   2.595   1.401  2.9581  1.0510  0.0831
  446MOL0     H60191   4.202   2.472   1.262 -0.0606 -0.1654 -1.2171
  446MOL0     H60192   5.219   2.811   1.399 -3.8111 -1.3514  1.1127
  446MOL0     H60193   5.388   2.801   1.574  2.2300  1.2728 -1.0896
  446MOL0     H60194   5.645   2.776   1.832 -4.3133 -1.9887  2.1509
  446MOL0     H60195   5.837   2.824   1.968  1.9356 -0.7016  0.8124
  446MOL0     H60196   7.785   2.566   2.376 -0.4612 -0.7582  2.5842
  446MOL0     H60197   8.018   2.480   2.409 -3.3163  2.3459  1.6051
  446MOL0     H60198   8.280   2.046   2.593  0.9860  0.8654  0.5724
  446MOL0     H60199   8.494   1.942   2.577 -0.9421  2.1598  1.4298
  446MOL0     H60200   8.696   2.013   2.503  0.9272 -0.3602  0.3851
  446MOL0     H60201   8.705   1.843   2.527 -1.4029 -0.9460 -1.5802
  446MOL0     H60202   8.888   1.822   2.357  1.4781  0.7378 -0.2723
  446MOL0     H60203   8.940   1.921   2.485  0.0146  0.9949  1.8957
  446MOL0     H60204   8.911   2.130   2.394  2.4142  0.2346 -1.0856
  446MOL0     H60205   8.805   2.065   2.258  0.5655 -1.8662 -2.3692
  446MOL0     H60206   9.053   2.137   2.216 -0.3883 -0.9188  0.8697
  446MOL0     H60207   9.019   1.976   2.150  0.3778  1.7793 -2.1572
  446MOL0     H60208   9.287   1.893   2.466  0.6013  0.8354  0.1873
  446MOL0     H60209   8.476   1.977   2.141 -1.2970 -0.5732  0.0093
  446MOL0     H60210   8.262   2.075   2.158  0.2841 -3.0151 -0.9380
  447MOL0     O60211   8.805   8.736  10.727  0.0951  0.4862 -0.6328
  447MOL0     C60212   8.827   8.670  10.629 -0.5438 -0.7964 -0.1315
  447MOL0     O60213   8.738   8.578  10.582  0.1711  0.2872  0.4250
  447MOL0     C60214   8.626   8.559  10.657 -0.7777  0.8445  0.1928
  447MOL0     C60215   8.627   8.505  10.784 -0.5241  0.5198 -0.4137
  447MOL0     C60216   8.505   8.479  10.854  0.2158 -0.2592 -0.2298
  447MOL0     C60217   8.386   8.511  10.797  0.4578 -0.3373 -0.0474
  447MOL0     O60218   8.263   8.489  10.861  0.3423  0.0669  0.1351
  447MOL0     C60219   8.167   8.593  10.866  0.1719  0.0064 -0.6901
  447MOL0     C60220   8.038   8.556  10.787  0.2943  0.1348  0.2028
  447MOL0     C60221   7.974   8.437  10.851 -0.3620 -0.9331 -0.4496
  447MOL0     C60222   7.855   8.394  10.767  0.6621 -0.3449 -0.7096
  447MOL0     C60223   7.763   8.298  10.849 -0.0758  0.0601  0.0615
  447MOL0     C60224   7.636   8.239  10.785  0.0107  0.0641 -0.0971
  447MOL0     C60225   7.578   8.132  10.875  0.7214 -0.7893 -0.5726
  447MOL0     C60226   7.489   8.030  10.815  0.9042 -0.0636 -0.2160
  447MOL0     N60227   7.402   7.962  10.918  0.4444 -0.6132  0.1976
  447MOL0     C60228   7.444   7.890  11.026  0.2739 -0.2539 -0.0772
  447MOL0     C60229   7.339   7.873  11.107 -0.3977  0.0109  0.8013
  447MOL0     C60230   7.347   7.814  11.241  0.0598  0.0252  0.5270
  447MOL0     C60231   7.266   7.690  11.236  0.5724  0.0688  1.0100
  447MOL0     C60232   7.252   7.618  11.368  0.4051  0.1154  0.0488
  447MOL0     C60233   7.198   7.697  11.494 -1.0861 -0.1713  0.3380
  447MOL0     O60234   7.057   7.675  11.509  0.3961  0.0841  0.0393
  447MOL0     C60235   6.975   7.768  11.569  0.2764  0.5295 -0.7285
  447MOL0     C60236   7.014   7.896  11.606  0.5945 -0.4913 -0.4651
  447MOL0     C60237   6.931   7.993  11.670  0.2367  0.2675 -0.0620
  447MOL0     C60238   6.997   8.136  11.690 -0.2896  0.7767 -0.0998
  447MOL0     C60239   6.794   7.955  11.686  0.2960 -0.4334 -0.6875
  447MOL0     C60240   6.682   8.040  11.728  0.1082  0.1510  0.0298
  447MOL0     O60241   6.558   8.002  11.683  0.2920  0.5789  0.7372
  447MOL0     C60242   6.432   8.062  11.723 -0.8135 -0.1776 -0.4410
  447MOL0     C60243   6.317   7.991  11.670  0.4620 -0.5525  1.1917
  447MOL0     C60244   6.191   8.017  11.710 -0.1322 -0.5768 -0.4052
  447MOL0     C60245   6.163   8.121  11.802  0.0270 -0.2986  0.5579
  447MOL0     O60246   6.033   8.133  11.834  1.0409  0.0754 -0.1870
  447MOL0     C60247   5.992   8.218  11.948 -0.6326  0.0244 -0.5303
  447MOL0     C60248   5.834   8.186  11.960 -0.5987  0.0880  0.2779
  447MOL0     C60249   5.798   8.044  12.004  0.5729 -0.3431  0.8580
  447MOL0     C60250   5.650   8.004  11.970  0.7054  0.4519  0.6987
  447MOL0     C60251   5.534   8.116  11.992  0.6378 -0.5045  0.1667
  447MOL0     C60252   5.383   8.078  11.968 -0.7528  0.0514 -0.2510
  447MOL0     C60253   5.332   7.997  12.084 -0.2320  0.1794 -0.9538
  447MOL0     C60254   5.180   7.987  12.103  0.2431 -0.0118  0.2622
  447MOL0    Cl60255   5.092   8.126  12.164 -0.0840 -0.5325  0.1500
  447MOL0     C60256   6.272   8.193  11.851 -0.1053  0.0782 -0.9075
  447MOL0     C60257   6.405   8.149  11.827  0.2419 -0.1275  0.7542
  447MOL0     O60258   6.707   8.134  11.801  0.4533  0.9209 -0.5216
  447MOL0     C60259   6.755   7.822  11.651 -0.0260 -0.4358  0.4229
  447MOL0     C60260   6.846   7.728  11.601 -0.8179  0.5746  0.2377
  447MOL0     N60261   7.230   7.931  11.039  0.4905  1.0121  0.1991
  447MOL0     N60262   7.267   7.981  10.929 -0.5231 -0.1911 -0.4771
  447MOL0     C60263   8.384   8.551  10.664  0.6376 -0.2651 -0.3923
  447MOL0     C60264   8.501   8.571  10.586 -0.3356  0.0638 -1.0934
  447MOL0     C60265   8.960   8.683  10.570 -0.2957  0.1018 -0.0940
  447MOL0     C60266   9.001   8.585  10.470  0.6199  0.2903 -0.1278
  447MOL0     C60267   9.119   8.589  10.396  0.1844  0.1837  0.0389
  447MOL0     C60268   9.212   8.681  10.438 -0.1206 -0.8261 -0.3610
  447MOL0     O60269   9.335   8.670  10.378  0.0388 -0.8126  0.2656
  447MOL0     C60270   9.441   8.768  10.397  0.9683 -0.5316 -0.3859
  447MOL0     C60271   9.541   8.763  10.286 -0.4719  0.2215  0.0924
  447MOL0     C60272   9.683   8.694  10.312  0.2215  0.7078  0.5098
  447MOL0     C60273   9.674   8.561  10.389  0.3194 -0.1438 -0.6881
  447MOL0     C60274   9.612   8.457  10.309  0.1094 -0.3170  0.4256
  447MOL0     C60275   9.559   8.377  10.235 -0.9615  0.1135 -0.2909
  447MOL0     C60276   9.188   8.776  10.539  0.0919 -0.6342  0.4119
  447MOL0     C60277   9.063   8.779  10.604 -0.6782 -0.2530 -0.5099
  447MOL0     H60278   8.725   8.489  10.829 -0.2638 -1.1384 -1.4947
  447MOL0     H60279   8.501   8.438  10.955  0.9279 -2.2611 -0.9685
  447MOL0     H60280   8.130   8.613  10.967 -1.9937 -2.8677 -0.7744
  447MOL0     H60281   8.210   8.686  10.829 -0.0606 -0.4592 -2.2127
  447MOL0     H60282   7.972   8.644  10.799 -0.3495 -0.4632  1.2673
  447MOL0     H60283   8.064   8.549  10.681 -1.5173 -0.5634 -0.2334
  447MOL0     H60284   8.043   8.358  10.882 -1.5244 -1.4296  0.9937
  447MOL0     H60285   7.953   8.470  10.954  2.5735 -0.1345 -0.0141
  447MOL0     H60286   7.793   8.481  10.746 -0.9704 -0.4332  2.8727
  447MOL0     H60287   7.885   8.343  10.675  0.2116  0.2156 -1.1741
  447MOL0     H60288   7.822   8.211  10.881  2.3224  2.3670  2.3204
  447MOL0     H60289   7.728   8.349  10.939 -3.7557 -0.3856 -0.9719
  447MOL0     H60290   7.568   8.315  10.746 -0.3240  1.7769  3.4464
  447MOL0     H60291   7.668   8.181  10.698 -2.5295  0.7794 -1.6284
  447MOL0     H60292   7.657   8.094  10.939 -2.0583 -3.1000  1.7654
  447MOL0     H60293   7.515   8.184  10.948  1.7279 -0.4091  0.0534
  447MOL0     H60294   7.549   7.953  10.766 -0.2341 -1.9789  1.2762
  447MOL0     H60295   7.430   8.073  10.733 -1.8123 -2.3156  0.4113
  447MOL0     H60296   7.549   7.874  11.049  0.4166 -1.1176 -1.2650
  447MOL0     H60297   7.450   7.789  11.267  0.1595  2.0232  2.2854
  447MOL0     H60298   7.307   7.894  11.304  2.3923  1.0346  0.8272
  447MOL0     H60299   7.316   7.608  11.183 -0.2833  0.5124 -0.5279
  447MOL0     H60300   7.181   7.702  11.169  1.9263  0.2003 -0.7665
  447MOL0     H60301   7.349   7.581  11.401  0.7762 -1.2483 -2.3880
  447MOL0     H60302   7.194   7.529  11.343 -0.3733  0.5107  0.3856
  447MOL0     H60303   7.219   7.802  11.472  0.0383 -0.7125 -1.4910
  447MOL0     H60304   7.266   7.668  11.574 -0.7564  4.1224  1.8611
  447MOL0     H60305   7.116   7.931  11.594  0.9594 -0.7964  1.5004
  447MOL0     H60306   6.952   8.199  11.613  2.4552  0.6851 -1.9109
  447MOL0     H60307   6.958   8.166  11.788 -0.1127 -0.1096  0.2601
  447MOL0     H60308   7.105   8.147  11.681 -0.3561  0.5848 -1.2816
  447MOL0     H60309   6.323   7.907  11.602  1.0365 -0.2982  0.9152
  447MOL0     H60310   6.101   7.964  11.680 -0.1987 -0.2290 -0.8273
  447MOL0     H60311   6.050   8.187  12.035  4.7758  0.7443 -3.4518
  447MOL0     H60312   6.014   8.323  11.927  1.7374 -0.5449 -1.1564
  447MOL0     H60313   5.784   8.247  12.036 -1.3612 -0.7615  0.4710
  447MOL0     H60314   5.794   8.204  11.861 -0.5834  0.3816  0.3256
  447MOL0     H60315   5.812   8.037  12.112  0.0462 -0.9274  0.8973
  447MOL0     H60316   5.865   7.969  11.961  0.3257  0.9932 -2.1327
  447MOL0     H60317   5.653   7.980  11.863  0.0161  1.9824  0.3222
  447MOL0     H60318   5.616   7.920  12.030 -0.5206  0.5400  0.1475
  447MOL0     H60319   5.549   8.191  11.914 -2.1649 -0.4157 -0.4017
  447MOL0     H60320   5.545   8.160  12.091 -1.3998  1.7367 -0.4950
  447MOL0     H60321   5.324   8.168  11.950 -2.3702 -0.4807  1.9463
  447MOL0     H60322   5.369   8.021  11.875 -3.0574  0.7516 -0.4084
  447MOL0     H60323   5.381   8.042  12.171  0.7399 -1.9827 -0.3318
  447MOL0     H60324   5.375   7.897  12.073 -0.0927  0.1009  0.2066
  447MOL0     H60325   5.174   7.908  12.178  1.4809 -0.7751 -0.4063
  447MOL0     H60326   5.135   7.970  12.004 -0.9257  0.9413  0.6094
  447MOL0     H60327   6.256   8.256  11.938 -2.2001  0.0119 -1.1896
  447MOL0     H60328   6.488   8.182  11.889  0.6251  4.3084 -1.7181
  447MOL0     H60329   6.654   7.787  11.669  0.7853 -1.4561  3.6365
  447MOL0     H60330   6.817   7.625  11.588  0.7005 -0.2783  2.8494
  447MOL0     H60331   8.286   8.578  10.627  0.3482 -0.3002  0.3369
  447MOL0     H60332   8.508   8.601  10.482  1.1704  2.1793 -0.4352
  447MOL0     H60333   8.938   8.502  10.443  0.5543  0.1997  0.2979
  447MOL0     H60334   9.135   8.512  10.321  0.9105 -0.6735  1.0447
  447MOL0     H60335   9.393   8.865  10.381  1.3889 -0.2459  0.0748
  447MOL0     H60336   9.495   8.769  10.492  0.2696  2.6905  0.1029
  447MOL0     H60337   9.558   8.865  10.248  2.7560 -0.1542  0.1782
  447MOL0     H60338   9.488   8.713  10.204  1.1779  0.4374 -1.1886
  447MOL0     H60339   9.755   8.761  10.361  1.8037 -0.6700  0.1494
  447MOL0     H60340   9.733   8.672  10.217  1.6542  0.7335  1.2179
  447MOL0     H60341   9.641   8.568  10.493 -0.0475 -0.0012 -0.8135
  447MOL0     H60342   9.778   8.527  10.400  0.3427 -1.7308 -4.2917
  447MOL0     H60343   9.502   8.295  10.196  0.8734 -1.9683  1.1496
  447MOL0     H60344   9.260   8.850  10.571  0.9133  0.7147 -3.8622
  447MOL0     H60345   9.046   8.859  10.675 -0.6333 -0.7829  0.1082
  448MOL0     O60346   8.247   3.260   1.928 -0.4620 -0.9204  0.8447
  448MOL0     C60347   8.246   3.225   2.042 -0.5858  0.2055  0.4670
  448MOL0     O60348   8.129   3.202   2.102  0.5412 -0.3933 -0.1402
  448MOL0     C60349   8.011   3.220   2.025  0.3469 -0.9956 -0.3462
  448MOL0     C60350   7.944   3.116   1.974  0.6701  0.1423 -0.7669
  448MOL0     C60351   7.821   3.130   1.919  0.4353  0.0648 -0.2547
  448MOL0     C60352   7.753   3.254   1.916  0.2874 -0.2457 -0.6479
  448MOL0     O60353   7.628   3.255   1.860  0.4220  0.2952 -0.2511
  448MOL0     C60354   7.619   3.351   1.753 -0.1381 -0.5542  0.3593
  448MOL0     C60355   7.500   3.329   1.656  0.1277  0.2799 -0.2780
  448MOL0     C60356   7.363   3.326   1.707 -0.9661  0.9775 -0.3182
  448MOL0     C60357   7.324   3.186   1.760  0.2350 -0.5756  0.0475
  448MOL0     C60358   7.206   3.176   1.860 -0.0277 -0.2767 -0.5622
  448MOL0     C60359   7.093   3.272   1.816  0.0967  0.0386  0.3404
  448MOL0     C60360   6.963   3.248   1.880 -0.2358 -0.1943  0.4012
  448MOL0     C60361   6.849   3.317   1.801  1.0850 -0.1441 -0.1001
  448MOL0     N60362   6.721   3.272   1.857  0.4541  0.2050  0.5469
  448MOL0     C60363   6.622   3.349   1.907  0.6451 -0.6750  0.0410
  448MOL0     C60364   6.520   3.263   1.948 -0.3169 -0.9246  0.0140
  448MOL0     C60365   6.390   3.311   2.015  0.1405  0.0894 -0.0268
  448MOL0     C60366   6.269   3.216   2.003 -0.0259  0.1180 -0.5160
  448MOL0     C60367   6.148   3.298   1.952 -0.7404  0.0607  1.1631
  448MOL0     C60368   6.049   3.356   2.062  0.8788 -1.1627 -0.3296
  448MOL0     O60369   5.977   3.259   2.137  0.0187  0.4650 -0.0038
  448MOL0     C60370   5.863   3.203   2.076  0.8284  0.2212  1.0459
  448MOL0     C60371   5.808   3.226   1.952 -0.0513  0.7705 -0.0111
  448MOL0     C60372   5.700   3.152   1.891  0.0823  1.1130  0.8291
  448MOL0     C60373   5.663   3.193   1.760  1.1230 -0.2286  0.3604
  448MOL0     C60374   5.633   3.062   1.976  0.2883  0.3822 -0.1542
  448MOL0     C60375   5.506   2.982   1.939 -0.0385  0.2326 -0.5299
  448MOL0     O60376   5.465   2.961   1.816  0.5413 -0.2867  0.2513
  448MOL0     C60377   5.335   2.914   1.791 -1.1672  0.8049  0.1669
  448MOL0     C60378   5.243   2.994   1.716 -0.5875  0.2194  0.6447
  448MOL0     C60379   5.122   2.932   1.682 -0.1951 -0.0151 -0.4545
  448MOL0     C60380   5.094   2.798   1.729  0.4106 -0.3842  0.0324
  448MOL0     O60381   4.982   2.740   1.678  0.2198  0.2465 -0.3585
  448MOL0     C60382   4.949   2.604   1.718  0.2870  0.1178 -0.7843
  448MOL0     C60383   4.810   2.568   1.654  0.0783  0.0461 -0.6711
  448MOL0     C60384   4.766   2.429   1.685  1.7057 -0.1971  0.2296
  448MOL0     C60385   4.635   2.398   1.612  0.1565  0.1261  0.0519
  448MOL0     C60386   4.602   2.242   1.604 -0.0628 -0.3476  0.4562
  448MOL0     C60387   4.459   2.199   1.608  0.1677  0.1164  0.4169
  448MOL0     C60388   4.356   2.254   1.498 -0.8414  0.1579 -0.6950
  448MOL0     C60389   4.341   2.164   1.372  0.1981 -0.6335  0.1769
  448MOL0    Cl60390   4.485   2.123   1.296 -0.3037 -0.4758  0.5193
  448MOL0     C60391   5.182   2.729   1.808  0.4323  0.3914 -0.5877
  448MOL0     C60392   5.301   2.791   1.838  0.2276 -0.0876 -0.0057
  448MOL0     O60393   5.434   2.959   2.036  0.0202  0.3195  0.6229
  448MOL0     C60394   5.680   3.044   2.107  0.0820 -0.3508 -0.4055
  448MOL0     C60395   5.792   3.105   2.150 -0.2247  0.1891  0.4961
  448MOL0     N60396   6.566   3.142   1.915 -0.1961  0.1910 -0.6175
  448MOL0     N60397   6.686   3.147   1.861 -0.0015 -1.4028  0.1429
  448MOL0     C60398   7.820   3.363   1.962  0.6617  1.0617 -1.0134
  448MOL0     C60399   7.948   3.348   2.016 -0.7657  1.1484 -0.2023
  448MOL0     C60400   8.385   3.204   2.114  0.6604 -0.4406 -1.1836
  448MOL0     C60401   8.388   3.148   2.240  0.6653 -0.0696 -0.2330
  448MOL0     C60402   8.510   3.133   2.301 -1.4120 -0.4882 -0.0157
  448MOL0     C60403   8.628   3.187   2.247  0.5433 -0.5552 -0.4238
  448MOL0     O60404   8.737   3.193   2.325  0.3186 -0.1912  0.0122
  448MOL0     C60405   8.859   3.160   2.254  0.8023  0.5878  0.3512
  448MOL0     C60406   8.938   3.280   2.221  0.5068 -0.4050 -0.4350
  448MOL0     C60407   8.967   3.358   2.347 -0.3740 -0.3243  0.1594
  448MOL0     C60408   9.047   3.276   2.459 -0.4898 -0.8640  0.2161
  448MOL0     C60409   9.122   3.361   2.553 -0.4196  0.2605 -0.4636
  448MOL0     C60410   9.184   3.435   2.638  0.6988  0.3885  0.1650
  448MOL0     C60411   8.625   3.231   2.118  0.5279 -0.2217  0.2827
  448MOL0     C60412   8.506   3.237   2.050 -0.7670  0.4818  0.7305
  448MOL0     H60413   7.976   3.013   1.978  0.8161  0.2344  1.4089
  448MOL0     H60414   7.770   3.038   1.892  3.0597 -1.1099 -1.5380
  448MOL0     H60415   7.620   3.449   1.801 -0.7813 -0.0432 -0.6438
  448MOL0     H60416   7.702   3.347   1.682  0.0061 -0.5917  0.5293
  448MOL0     H60417   7.505   3.410   1.582  0.4388  2.1610  1.6771
  448MOL0     H60418   7.523   3.238   1.600  1.7088  0.8918 -0.6723
  448MOL0     H60419   7.351   3.404   1.783  0.8969  0.4743  0.5455
  448MOL0     H60420   7.294   3.364   1.631  1.1878  2.2036 -1.7696
  448MOL0     H60421   7.298   3.124   1.674 -0.5810  2.0458 -1.6885
  448MOL0     H60422   7.413   3.140   1.805  1.1029 -0.5849 -1.6096
  448MOL0     H60423   7.175   3.072   1.856 -0.8547 -0.0497 -0.2256
  448MOL0     H60424   7.236   3.199   1.963 -0.2765  3.1263 -1.1131
  448MOL0     H60425   7.111   3.377   1.839 -4.4309  0.9081  0.7971
  448MOL0     H60426   7.080   3.262   1.708 -1.4530  0.4268  0.4767
  448MOL0     H60427   6.958   3.139   1.884  0.1118 -0.2215  0.1581
  448MOL0     H60428   6.965   3.285   1.983 -2.4575 -0.4879  0.6116
  448MOL0     H60429   6.849   3.281   1.698 -2.5714  1.1805 -0.7081
  448MOL0     H60430   6.863   3.425   1.803 -3.4682  0.6364  0.1086
  448MOL0     H60431   6.630   3.455   1.929  2.3736 -1.1360  2.0086
  448MOL0     H60432   6.408   3.326   2.122  0.3195  2.3738 -0.3397
  448MOL0     H60433   6.371   3.411   1.977  2.6407 -0.0307 -1.8421
  448MOL0     H60434   6.244   3.178   2.103 -0.1247  2.7610  0.5545
  448MOL0     H60435   6.288   3.135   1.932 -0.6957 -1.1274  0.6700
  448MOL0     H60436   6.084   3.236   1.889 -2.4806  2.2734  0.6181
  448MOL0     H60437   6.178   3.379   1.885 -0.2921  0.7533  2.1683
  448MOL0     H60438   5.976   3.418   2.007  0.8705 -1.8566 -1.1310
  448MOL0     H60439   6.097   3.427   2.129 -2.2903  2.8500 -1.8262
  448MOL0     H60440   5.832   3.310   1.888 -3.3757  1.6835 -0.2659
  448MOL0     H60441   5.664   3.302   1.750 -0.5252 -0.0398  1.7001
  448MOL0     H60442   5.734   3.147   1.691 -0.7432 -1.3864 -0.8903
  448MOL0     H60443   5.562   3.161   1.732  1.3958  1.2328 -2.7373
  448MOL0     H60444   5.276   3.090   1.678 -0.7846  0.2759  0.6123
  448MOL0     H60445   5.047   2.973   1.615 -2.9425 -0.0972  2.3262
  448MOL0     H60446   5.016   2.537   1.662 -0.7272  1.2863 -3.5824
  448MOL0     H60447   4.953   2.576   1.824 -0.1545  2.1273 -0.1882
  448MOL0     H60448   4.734   2.636   1.693  1.2383  0.7705  0.4463
  448MOL0     H60449   4.819   2.590   1.547  1.1610  2.3563 -0.1719
  448MOL0     H60450   4.736   2.407   1.788  3.3563 -1.2285  0.5220
  448MOL0     H60451   4.840   2.364   1.638  0.6293  0.9832 -3.4517
  448MOL0     H60452   4.551   2.454   1.653  0.7802  1.3337 -0.2913
  448MOL0     H60453   4.645   2.440   1.511  1.5475  1.1243  0.5778
  448MOL0     H60454   4.648   2.193   1.691  1.8785  0.7803  0.1136
  448MOL0     H60455   4.646   2.212   1.509 -0.6789  2.0872 -0.6667
  448MOL0     H60456   4.448   2.090   1.602 -1.5930  0.3309 -0.9148
  448MOL0     H60457   4.413   2.235   1.701 -1.3625  1.8243 -0.9049
  448MOL0     H60458   4.399   2.351   1.472 -0.6060  0.7252  1.6021
  448MOL0     H60459   4.256   2.269   1.540 -0.3497  1.3206  0.1171
  448MOL0     H60460   4.281   2.218   1.298  2.7589  1.8080 -0.2885
  448MOL0     H60461   4.291   2.069   1.395 -1.5179 -0.2138 -1.6053
  448MOL0     H60462   5.162   2.634   1.858  2.5909  1.2655  2.2170
  448MOL0     H60463   5.370   2.743   1.907 -0.3611 -0.9100  0.0234
  448MOL0     H60464   5.634   2.974   2.177  3.7973 -1.2713  1.3242
  448MOL0     H60465   5.841   3.086   2.245  2.1265 -1.6715 -0.9732
  448MOL0     H60466   7.771   3.459   1.968 -2.0397 -0.2225 -0.9632
  448MOL0     H60467   8.018   3.420   2.056  0.8057 -0.5292  0.1883
  448MOL0     H60468   8.302   3.127   2.303  1.1317  0.3220  0.5635
  448MOL0     H60469   8.522   3.096   2.402  2.7927  2.4516  0.8248
  448MOL0     H60470   8.916   3.087   2.312  1.2979  1.0550  0.4632
  448MOL0     H60471   8.836   3.120   2.155  1.2243  1.6648 -0.2005
  448MOL0     H60472   8.881   3.348   2.157 -1.2499 -1.6263 -0.2465
  448MOL0     H60473   9.032   3.239   2.183  0.1335 -0.1373 -1.7059
  448MOL0     H60474   8.873   3.392   2.392 -0.3254  0.7174 -0.4890
  448MOL0     H60475   9.017   3.445   2.304 -0.4783 -0.0185  0.6509
  448MOL0     H60476   9.116   3.204   2.415  0.1598 -1.7025  2.4728
  448MOL0     H60477   8.972   3.216   2.513 -0.4915 -2.0643 -1.0656
  448MOL0     H60478   9.237   3.483   2.717  0.2165  0.2046  0.6092
  448MOL0     H60479   8.719   3.262   2.072  1.0702 -0.5360  1.1524
  448MOL0     H60480   8.500   3.276   1.949 -1.0041  2.0365  1.3151
  449MOL0     O60481  11.312   9.612   9.576 -0.5065 -0.3370  0.8944
  449MOL0     C60482  11.335   9.629   9.453 -0.1752  0.3372  0.3670
  449MOL0     O60483  11.299   9.740   9.384 -0.1332 -0.0852  0.2620
  449MOL0     C60484  11.228   9.832   9.461  0.5123 -1.1248  0.7699
  449MOL0     C60485  11.091   9.808   9.484  0.0286  0.0139 -0.1605
  449MOL0     C60486  11.020   9.900   9.568  0.0166  0.4494 -0.3629
  449MOL0     C60487  11.087  10.000   9.636  0.0167 -1.1670  0.7508
  449MOL0     O60488  11.014  10.067   9.733  0.0006  0.0455  0.4028
  449MOL0     C60489  11.071  10.145   9.839  0.3134  0.1532  1.2125
  449MOL0     C60490  10.959  10.237   9.884  0.2980  0.5387  0.1028
  449MOL0     C60491  10.827  10.166   9.900 -0.5079  0.6373 -0.4606
  449MOL0     C60492  10.725  10.254   9.964 -0.1336 -0.6972  0.2236
  449MOL0     C60493  10.592  10.192   9.973 -0.1069  0.2849  0.6174
  449MOL0     C60494  10.480  10.288  10.008 -0.1465  0.6045 -0.8486
  449MOL0     C60495  10.353  10.217  10.021  0.5549 -0.4720  0.0696
  449MOL0     C60496  10.226  10.311  10.015 -0.1103 -0.2903  0.8258
  449MOL0     N60497  10.205  10.409  10.126  0.5125  0.0667  0.1427
  449MOL0     C60498  10.092  10.415  10.201  0.0849 -0.2809  0.0644
  449MOL0     C60499  10.107  10.523  10.292 -0.1273 -0.8275  0.4285
  449MOL0     C60500  10.029  10.561  10.408 -0.2562  0.8036  0.5219
  449MOL0     C60501  10.039  10.704  10.449 -0.0709 -0.8171 -0.8260
  449MOL0     C60502   9.968  10.748  10.585  0.0141  0.2890 -0.5160
  449MOL0     C60503   9.829  10.692  10.609  0.3492  0.4704  0.5578
  449MOL0     O60504   9.749  10.711  10.486  0.3369  0.1023 -0.2663
  449MOL0     C60505   9.622  10.663  10.494 -0.5002  0.1622  0.3263
  449MOL0     C60506   9.527  10.700  10.587 -0.1574  0.7634 -0.2188
  449MOL0     C60507   9.394  10.649  10.586 -0.4517  0.2475  0.3633
  449MOL0     C60508   9.310  10.679  10.710  0.0169  0.4068  0.1861
  449MOL0     C60509   9.354  10.569  10.472 -0.8209  0.0752  0.0502
  449MOL0     C60510   9.223  10.516  10.447 -1.0540  0.1232 -0.3088
  449MOL0     O60511   9.152  10.496  10.565 -0.0201  0.8351 -0.4356
  449MOL0     C60512   9.019  10.464  10.571  0.1178 -0.1467 -0.4375
  449MOL0     C60513   8.973  10.474  10.702  0.3206 -0.0914  0.5760
  449MOL0     C60514   8.839  10.444  10.735  1.4940  0.3710  0.0157
  449MOL0     C60515   8.743  10.401  10.635 -0.2120 -0.8408 -0.2057
  449MOL0     O60516   8.613  10.377  10.670 -0.2379  0.1594  0.0657
  449MOL0     C60517   8.589  10.267  10.757  0.1915 -0.1114  0.7104
  449MOL0     C60518   8.449  10.290  10.821  0.3297 -0.1023  0.4837
  449MOL0     C60519   8.346  10.330  10.714 -0.3319  0.7729 -0.0165
  449MOL0     C60520   8.332  10.232  10.595 -0.7133 -0.4439  0.3843
  449MOL0     C60521   8.207  10.244  10.508 -0.3405 -0.0053 -0.1417
  449MOL0     C60522   8.203  10.124  10.420 -0.1010 -0.6465  0.5360
  449MOL0     C60523   8.076  10.120  10.331  0.3492 -0.0532 -0.3144
  449MOL0     C60524   8.097  10.031  10.210  0.4990  0.7506 -0.3431
  449MOL0    Cl60525   7.978  10.044  10.079  0.3535  0.4589  0.1164
  449MOL0     C60526   8.794  10.390  10.503  0.2446 -0.1492 -0.0788
  449MOL0     C60527   8.933  10.411  10.475  0.4354  0.0521 -0.2987
  449MOL0     O60528   9.177  10.519  10.330  0.6458  0.1498  0.0136
  449MOL0     C60529   9.449  10.547  10.379  0.1579 -1.0688  0.3720
  449MOL0     C60530   9.579  10.587  10.380 -0.1476 -0.3504  0.2297
  449MOL0     N60531  10.240  10.577  10.265  0.3231  0.0937  0.3770
  449MOL0     N60532  10.289  10.507  10.161  0.1189 -0.8485  0.3626
  449MOL0     C60533  11.219  10.029   9.602 -1.1402 -0.6373  0.0123
  449MOL0     C60534  11.285   9.944   9.525 -0.1528  0.6425  0.6202
  449MOL0     C60535  11.402   9.518   9.379  0.9133  0.2742  0.3264
  449MOL0     C60536  11.424   9.534   9.243  0.2546  0.3132 -0.4763
  449MOL0     C60537  11.486   9.433   9.178  0.0512 -0.0238 -0.4759
  449MOL0     C60538  11.533   9.311   9.235  0.2890 -0.1343 -0.3030
  449MOL0     O60539  11.610   9.211   9.185  0.4743 -0.0331 -0.1323
  449MOL0     C60540  11.616   9.192   9.039 -0.6429  0.1764  0.1273
  449MOL0     C60541  11.744   9.234   8.985 -0.4440 -0.0698 -0.2220
  449MOL0     C60542  11.858   9.139   9.038 -0.0031 -0.4573 -0.2674
  449MOL0     C60543  11.985   9.200   9.031 -0.4949  0.5174  0.6256
  449MOL0     C60544  12.030   9.257   9.158 -1.1407  0.0503 -0.4862
  449MOL0     C60545  12.074   9.313   9.255 -0.1317 -0.1255 -0.4659
  449MOL0     C60546  11.487   9.296   9.367 -0.2425 -0.0159 -0.1656
  449MOL0     C60547  11.417   9.394   9.439 -0.0932 -0.8265  0.9450
  449MOL0     H60548  11.054   9.716   9.439 -0.5706  0.0741  0.2067
  449MOL0     H60549  10.913   9.885   9.580  0.3011 -1.4188  0.1969
  449MOL0     H60550  11.111  10.074   9.912  2.6246 -0.1313 -0.2048
  449MOL0     H60551  11.148  10.213   9.800  1.9838 -3.0875 -1.6640
  449MOL0     H60552  10.996  10.277   9.979  1.7071 -1.1097  0.2972
  449MOL0     H60553  10.943  10.322   9.817  1.7633  2.5823  2.1808
  449MOL0     H60554  10.786  10.140   9.802 -0.2862 -2.2466  0.1177
  449MOL0     H60555  10.845  10.080   9.964 -1.9858  3.1640  3.7634
  449MOL0     H60556  10.765  10.287  10.060  0.2013  2.1130 -0.7768
  449MOL0     H60557  10.721  10.340   9.897 -2.8430 -0.3162  0.7365
  449MOL0     H60558  10.568  10.152   9.875 -0.2983 -0.3313  0.9119
  449MOL0     H60559  10.605  10.107  10.040 -0.6882  0.6220  1.1675
  449MOL0     H60560  10.508  10.323  10.108  0.4416  1.1298 -1.1935
  449MOL0     H60561  10.480  10.374   9.941  0.2722  0.2917 -1.2593
  449MOL0     H60562  10.332  10.159   9.930  0.8749  1.0389 -1.0214
  449MOL0     H60563  10.352  10.146  10.104  3.4836 -2.0227 -1.0499
  449MOL0     H60564  10.139  10.245  10.023 -2.2748  2.3533  0.6453
  449MOL0     H60565  10.234  10.361   9.918  0.3575 -2.8936 -0.5656
  449MOL0     H60566  10.014  10.341  10.185  2.1889 -2.1993 -2.1850
  449MOL0     H60567   9.926  10.534  10.384  0.3696  0.3626 -1.9711
  449MOL0     H60568  10.072  10.496  10.485  0.9331  0.0676 -0.7267
  449MOL0     H60569  10.000  10.771  10.371 -1.0999 -0.9112 -0.4073
  449MOL0     H60570  10.143  10.733  10.466 -0.6668  0.3982  1.2392
  449MOL0     H60571   9.960  10.857  10.588 -1.6242  0.1933 -0.1283
  449MOL0     H60572  10.030  10.727  10.673 -0.8992  0.8619  0.2814
  449MOL0     H60573   9.775  10.743  10.690  1.0156  3.3734 -0.6760
  449MOL0     H60574   9.827  10.585  10.631  0.1686  0.6142  1.2697
  449MOL0     H60575   9.556  10.761  10.673 -3.2038  0.0538  1.4412
  449MOL0     H60576   9.299  10.589  10.771  0.7541  0.7975  0.9281
  449MOL0     H60577   9.366  10.746  10.776  2.0420 -1.9869  1.0675
  449MOL0     H60578   9.208  10.714  10.696 -1.8552 -3.7092  2.0098
  449MOL0     H60579   9.043  10.520  10.771  2.0307  1.0232 -1.7501
  449MOL0     H60580   8.809  10.454  10.838  3.0924  1.2349  0.4432
  449MOL0     H60581   8.592  10.175  10.697 -0.8554 -0.2109  0.7968
  449MOL0     H60582   8.667  10.252  10.831  0.2465 -3.4203  0.1365
  449MOL0     H60583   8.429  10.199  10.878 -0.1822  0.6081  1.4672
  449MOL0     H60584   8.451  10.367  10.898  2.1108  2.4377 -1.8748
  449MOL0     H60585   8.368  10.435  10.696 -2.4356  1.2507 -0.1363
  449MOL0     H60586   8.249  10.340  10.765  0.1563  0.8808  0.9124
  449MOL0     H60587   8.418  10.249  10.529 -2.8127 -0.6109 -2.6380
  449MOL0     H60588   8.328  10.130  10.634  0.2692 -1.4856 -1.9961
  449MOL0     H60589   8.201  10.328  10.437  2.5603  0.8339  0.4861
  449MOL0     H60590   8.121  10.241  10.576  1.5515  0.1248  2.3678
  449MOL0     H60591   8.294  10.116  10.359 -0.4631 -0.6194 -0.0116
  449MOL0     H60592   8.213  10.029  10.475  0.8533 -0.4153  0.7840
  449MOL0     H60593   8.050  10.221  10.297  0.5244  0.9295  2.2649
  449MOL0     H60594   7.993  10.081  10.390 -1.7611  3.4139 -0.6727
  449MOL0     H60595   8.097   9.929  10.251  0.7048  1.0877  0.5221
  449MOL0     H60596   8.185  10.050  10.147 -0.9187  1.4721 -2.1851
  449MOL0     H60597   8.726  10.356  10.425 -0.2918  0.5220  0.0887
  449MOL0     H60598   8.968  10.398  10.373  0.1676  0.3585 -0.4312
  449MOL0     H60599   9.415  10.478  10.302 -0.8942  0.3639 -0.5185
  449MOL0     H60600   9.649  10.558  10.303  1.4161  1.0726  1.0396
  449MOL0     H60601  11.268  10.115   9.646 -1.8720  0.5170 -1.3212
  449MOL0     H60602  11.390   9.970   9.514  0.2503 -0.3190  1.9281
  449MOL0     H60603  11.413   9.631   9.195 -1.8850  0.9781  1.2156
  449MOL0     H60604  11.513   9.455   9.075 -3.7255 -0.7312 -1.7670
  449MOL0     H60605  11.600   9.086   9.015 -1.6339  1.0901 -3.9463
  449MOL0     H60606  11.533   9.236   8.983  0.6441 -0.8140 -2.7706
  449MOL0     H60607  11.761   9.335   9.023  1.9262 -0.4050 -0.2385
  449MOL0     H60608  11.747   9.241   8.876 -0.8953  0.5010 -0.2010
  449MOL0     H60609  11.863   9.048   8.979 -1.1936 -0.4656 -0.3916
  449MOL0     H60610  11.831   9.118   9.142 -0.2247  0.6486 -0.0840
  449MOL0     H60611  11.984   9.274   8.950  1.9751 -1.0617 -1.0239
  449MOL0     H60612  12.052   9.116   9.007 -0.4416  1.5769 -3.8333
  449MOL0     H60613  12.104   9.355   9.349 -0.3374 -0.0513 -0.4335
  449MOL0     H60614  11.499   9.197   9.411  2.5151 -0.5370 -1.8173
  449MOL0     H60615  11.380   9.378   9.540  0.1624  0.2493  1.2306
  450MOL0     O60616   7.871   7.263   5.393 -0.2080 -0.4763  0.5376
  450MOL0     C60617   7.865   7.145   5.358  0.3148  0.3556 -0.1930
  450MOL0     O60618   7.751   7.078   5.344  0.8346  0.6314 -0.4261
  450MOL0     C60619   7.635   7.144   5.331  0.5117  0.0803  0.3863
  450MOL0     C60620   7.554   7.106   5.223  0.0594 -0.2393  0.0460
  450MOL0     C60621   7.426   7.171   5.203 -0.0704 -0.0589 -0.1382
  450MOL0     C60622   7.382   7.273   5.281  0.0476 -0.0807  0.0522
  450MOL0     O60623   7.255   7.318   5.264  0.3884 -0.1048  0.3050
  450MOL0     C60624   7.155   7.297   5.372  0.5684 -0.5280  0.1818
  450MOL0     C60625   7.021   7.254   5.315 -0.5626 -0.3530  0.2017
  450MOL0     C60626   7.038   7.110   5.248  0.8779 -0.0679 -0.4553
  450MOL0     C60627   6.893   7.057   5.232 -0.5350  0.1712  0.3185
  450MOL0     C60628   6.878   6.916   5.162  0.2509  0.4764 -0.1948
  450MOL0     C60629   6.908   6.808   5.269  0.0589  0.6491  0.5904
  450MOL0     C60630   6.852   6.673   5.216 -0.3625 -0.0993  0.3149
  450MOL0     C60631   6.860   6.545   5.299 -0.1460  0.4118  0.6007
  450MOL0     N60632   6.773   6.556   5.418 -0.1688  0.4700 -0.2034
  450MOL0     C60633   6.637   6.587   5.420 -0.2728  0.4794 -0.2177
  450MOL0     C60634   6.608   6.568   5.553  0.2087  0.3320 -0.0427
  450MOL0     C60635   6.470   6.573   5.616 -0.3749  0.5889  0.0566
  450MOL0     C60636   6.374   6.454   5.584  0.4906 -0.9540  0.5461
  450MOL0     C60637   6.252   6.454   5.677  0.7274  1.0174 -0.1221
  450MOL0     C60638   6.166   6.325   5.662 -0.6929 -0.4691 -1.1073
  450MOL0     O60639   6.078   6.304   5.550 -0.4160 -0.8231 -0.5759
  450MOL0     C60640   5.999   6.194   5.557 -0.2237  0.6003 -0.5675
  450MOL0     C60641   5.909   6.168   5.451  0.4325 -0.3841  0.1858
  450MOL0     C60642   5.828   6.057   5.443  0.6734 -0.8731  0.0937
  450MOL0     C60643   5.756   6.042   5.309  0.1030 -0.4544 -0.3525
  450MOL0     C60644   5.813   5.967   5.556  0.4572  0.7513  0.1100
  450MOL0     C60645   5.727   5.836   5.563 -0.4917  0.4250 -0.1544
  450MOL0     O60646   5.688   5.784   5.428  0.1405 -0.2842  0.5535
  450MOL0     C60647   5.600   5.678   5.429  0.8838 -0.3310 -0.1741
  450MOL0     C60648   5.618   5.595   5.319  0.0677  0.3808  0.0968
  450MOL0     C60649   5.540   5.475   5.309 -0.9359 -0.0222  0.3291
  450MOL0     C60650   5.438   5.449   5.401 -0.0860  0.3436 -0.0296
  450MOL0     O60651   5.360   5.341   5.375  0.1152  0.3325 -0.0263
  450MOL0     C60652   5.251   5.302   5.458  0.3997 -0.6938 -0.2672
  450MOL0     C60653   5.193   5.172   5.412 -0.0160 -0.1826  0.9567
  450MOL0     C60654   5.130   5.181   5.269 -0.0786 -0.9085 -0.2564
  450MOL0     C60655   5.047   5.060   5.207  0.2467 -0.2563 -0.6141
  450MOL0     C60656   4.989   5.090   5.067 -0.3252 -0.1609 -0.3601
  450MOL0     C60657   4.851   5.014   5.039 -0.3959  0.6716 -0.5372
  450MOL0     C60658   4.782   5.073   4.926 -0.1611 -1.3563 -0.1870
  450MOL0     C60659   4.649   5.014   4.892 -0.4432  0.3240 -1.0420
  450MOL0    Cl60660   4.621   5.071   4.720 -0.4200  0.3334 -0.2741
  450MOL0     C60661   5.409   5.554   5.492  0.0515 -0.1681  0.6155
  450MOL0     C60662   5.483   5.667   5.502  0.6505 -0.5618  0.3438
  450MOL0     O60663   5.720   5.765   5.671 -0.0339 -1.1557  0.2392
  450MOL0     C60664   5.898   5.998   5.666  0.4218 -0.0625 -0.2393
  450MOL0     C60665   5.983   6.101   5.679  0.0131 -0.5707  0.1342
  450MOL0     N60666   6.719   6.532   5.616 -0.5307  0.0197 -0.7117
  450MOL0     N60667   6.819   6.520   5.540 -0.3049  0.1924 -0.9076
  450MOL0     C60668   7.454   7.293   5.407  0.4438 -0.6171  0.2865
  450MOL0     C60669   7.581   7.235   5.425 -0.1815  0.9241  0.9802
  450MOL0     C60670   7.985   7.071   5.326 -0.4521  0.7087  0.3272
  450MOL0     C60671   8.096   7.066   5.407  0.0276 -0.3801  0.5774
  450MOL0     C60672   8.200   6.978   5.383  0.4846 -0.4133  0.0012
  450MOL0     C60673   8.215   6.900   5.278 -0.5649 -0.7080  0.4832
  450MOL0     O60674   8.325   6.816   5.266 -0.2641 -0.2357  0.1644
  450MOL0     C60675   8.316   6.715   5.156  0.1157 -0.7513 -0.6210
  450MOL0     C60676   8.228   6.602   5.208 -0.2148  0.2529  0.2972
  450MOL0     C60677   8.326   6.499   5.271 -0.6333 -0.9753  0.3918
  450MOL0     C60678   8.247   6.396   5.350 -0.2671  0.3318  0.0927
  450MOL0     C60679   8.177   6.438   5.471  1.1964 -0.0280  0.8856
  450MOL0     C60680   8.098   6.455   5.560 -0.4053  0.0620 -0.6496
  450MOL0     C60681   8.104   6.908   5.179 -0.5746  0.8913 -0.1145
  450MOL0     C60682   7.992   6.981   5.215  0.6502 -0.3026 -0.0799
  450MOL0     H60683   7.582   7.029   5.152  2.0910  1.8617 -1.5537
  450MOL0     H60684   7.362   7.137   5.122 -0.0122 -0.1655 -0.1395
  450MOL0     H60685   7.191   7.219   5.440 -1.9215 -0.6102  1.5341
  450MOL0     H60686   7.133   7.385   5.434  2.3525 -0.5101  0.8477
  450MOL0     H60687   6.958   7.248   5.404  0.3804  1.8269  1.0965
  450MOL0     H60688   6.990   7.325   5.237  1.3445  0.1774 -0.1293
  450MOL0     H60689   7.083   7.126   5.150  2.0143 -0.9690 -0.1102
  450MOL0     H60690   7.109   7.041   5.296  0.7108  0.9273  1.3220
  450MOL0     H60691   6.854   7.060   5.334  0.9513 -1.3083  0.9808
  450MOL0     H60692   6.834   7.127   5.173 -0.5788 -0.6233 -0.6151
  450MOL0     H60693   6.779   6.905   5.117  0.2227  0.0230 -0.0193
  450MOL0     H60694   6.951   6.901   5.082 -1.3352 -2.3477 -1.2475
  450MOL0     H60695   7.012   6.813   5.302  0.0785 -1.3574  0.9511
  450MOL0     H60696   6.854   6.825   5.362 -1.1152 -3.8111  0.9641
  450MOL0     H60697   6.749   6.688   5.182  0.0334  1.7187 -0.1948
  450MOL0     H60698   6.907   6.658   5.123 -0.2027 -0.6459  0.4947
  450MOL0     H60699   6.965   6.528   5.323 -0.3160 -0.3593  0.8163
  450MOL0     H60700   6.830   6.459   5.239 -0.8705  0.6763  0.5698
  450MOL0     H60701   6.576   6.607   5.333  1.3132  0.2224 -1.4405
  450MOL0     H60702   6.482   6.580   5.724  1.9107  4.6941 -0.2501
  450MOL0     H60703   6.430   6.673   5.594 -0.0449  1.3390  2.6228
  450MOL0     H60704   6.435   6.363   5.593  0.8846 -0.6879  0.5922
  450MOL0     H60705   6.336   6.468   5.482 -1.9093  1.1353  1.5968
  450MOL0     H60706   6.178   6.535   5.666 -1.1741 -0.3993  1.6251
  450MOL0     H60707   6.294   6.457   5.778  1.2830  0.3651 -0.3309
  450MOL0     H60708   6.116   6.320   5.759  2.4454 -0.2201  0.6942
  450MOL0     H60709   6.240   6.244   5.667 -1.1052 -0.7703  1.0614
  450MOL0     H60710   5.935   6.226   5.363  0.4059 -1.5990 -0.6459
  450MOL0     H60711   5.663   5.984   5.311  0.4939 -1.0921 -0.7618
  450MOL0     H60712   5.738   6.146   5.279  0.3278  0.5866  2.6950
  450MOL0     H60713   5.827   5.997   5.240 -0.5983  0.8876 -2.0203
  450MOL0     H60714   5.694   5.639   5.254 -0.7940  1.0981 -0.4539
  450MOL0     H60715   5.573   5.411   5.228 -1.7772 -0.1489  0.0760
  450MOL0     H60716   5.299   5.289   5.555  0.1582  2.5183  0.3828
  450MOL0     H60717   5.180   5.385   5.463  1.6587  0.7185 -3.2248
  450MOL0     H60718   5.277   5.102   5.401  0.1424  0.0180  0.9025
  450MOL0     H60719   5.126   5.131   5.488  0.1924 -2.1886  0.1412
  450MOL0     H60720   5.201   5.208   5.190  0.6993  0.4943  0.8852
  450MOL0     H60721   5.061   5.266   5.269 -2.7127 -2.9000  0.9889
  450MOL0     H60722   5.108   4.970   5.193  0.5441 -0.0810 -0.4404
  450MOL0     H60723   4.979   5.029   5.287 -0.3240 -2.7044 -1.9394
  450MOL0     H60724   5.063   5.075   4.988 -0.0578  2.3060 -0.6634
  450MOL0     H60725   4.969   5.198   5.070 -0.1807 -0.1498  1.1109
  450MOL0     H60726   4.884   4.914   5.007 -1.4083  0.3824 -0.7184
  450MOL0     H60727   4.788   5.018   5.128 -1.4417 -3.2379 -0.8981
  450MOL0     H60728   4.854   5.058   4.845  1.5688  0.4007  0.9443
  450MOL0     H60729   4.764   5.178   4.950 -1.6625 -1.7438  0.5176
  450MOL0     H60730   4.581   5.038   4.974  2.1044 -1.9986  2.0059
  450MOL0     H60731   4.647   4.905   4.891 -3.1119  0.2908 -2.5089
  450MOL0     H60732   5.318   5.539   5.549 -0.7034  0.1580 -0.4767
  450MOL0     H60733   5.455   5.745   5.571 -0.5771  0.9209 -1.7462
  450MOL0     H60734   5.884   5.933   5.752 -1.5208  1.9823  1.1042
  450MOL0     H60735   6.037   6.100   5.773  0.0646 -1.7410  0.1102
  450MOL0     H60736   7.421   7.360   5.485  0.3989  0.0197 -0.2687
  450MOL0     H60737   7.628   7.245   5.522  0.6691 -0.0671  0.6898
  450MOL0     H60738   8.103   7.133   5.492 -4.0366 -0.3385  1.0809
  450MOL0     H60739   8.285   6.961   5.448  0.9615 -0.5387 -0.6390
  450MOL0     H60740   8.270   6.761   5.068 -0.5134 -0.6684 -0.2568
  450MOL0     H60741   8.417   6.681   5.131  0.1947 -2.0086  1.2187
  450MOL0     H60742   8.181   6.569   5.115 -0.0933  0.2366  0.2421
  450MOL0     H60743   8.150   6.636   5.276  0.1352  0.6740  0.4886
  450MOL0     H60744   8.399   6.549   5.335 -0.3375 -0.9386  0.0353
  450MOL0     H60745   8.375   6.445   5.189 -1.8972 -0.2894 -0.8693
  450MOL0     H60746   8.304   6.307   5.377  0.9569  1.0808  0.0565
  450MOL0     H60747   8.170   6.353   5.285 -0.6952 -1.2301  1.5657
  450MOL0     H60748   8.036   6.465   5.647 -0.0064  0.3951 -0.4027
  450MOL0     H60749   8.105   6.858   5.083 -0.3029  1.8079 -0.6030
  450MOL0     H60750   7.898   6.979   5.160 -0.5091  1.5832  1.6717
  451MOL0     O60751   6.154  10.694   7.622 -0.8287 -0.1469  0.1874
  451MOL0     C60752   6.198  10.745   7.518  0.4696  1.0806 -0.8546
  451MOL0     O60753   6.125  10.800   7.415  0.1328  0.1393  0.3513
  451MOL0     C60754   5.989  10.801   7.447 -0.2060  0.5932  0.7033
  451MOL0     C60755   5.934  10.865   7.557 -0.0983  0.5830  0.7496
  451MOL0     C60756   5.795  10.866   7.568  0.6377  0.3354 -0.4146
  451MOL0     C60757   5.705  10.815   7.466 -0.4999 -1.3020  0.2164
  451MOL0     O60758   5.570  10.822   7.493  0.9639 -0.0554 -0.8899
  451MOL0     C60759   5.477  10.790   7.386  0.2032 -0.8993 -0.1228
  451MOL0     C60760   5.326  10.808   7.427  0.2714 -0.8967  0.7409
  451MOL0     C60761   5.258  10.707   7.336  0.0030  0.0764  0.2265
  451MOL0     C60762   5.112  10.743   7.326 -0.9180 -0.2578 -0.0997
  451MOL0     C60763   5.027  10.665   7.223 -1.2180  0.3069 -0.0966
  451MOL0     C60764   4.881  10.706   7.222  0.2143 -0.5558 -0.1956
  451MOL0     C60765   4.814  10.675   7.084 -0.7356 -0.1978  0.4096
  451MOL0     C60766   4.659  10.669   7.084 -0.1917 -0.1836  1.1815
  451MOL0     N60767   4.618  10.645   6.932 -0.2134 -0.7348  0.6714
  451MOL0     C60768   4.628  10.526   6.879 -0.2290  0.5576  0.3501
  451MOL0     C60769   4.566  10.544   6.763 -0.1679 -0.3074  0.3712
  451MOL0     C60770   4.528  10.433   6.677  0.7436 -0.1135  0.7723
  451MOL0     C60771   4.398  10.374   6.737 -0.0548  0.5473  0.0642
  451MOL0     C60772   4.413  10.225   6.691  0.6851  0.2604 -0.7544
  451MOL0     C60773   4.284  10.148   6.715  0.4672 -0.6555  0.3518
  451MOL0     O60774   4.287  10.018   6.667 -0.3322  0.3328  0.5134
  451MOL0     C60775   4.168   9.950   6.664 -0.6617  0.4871  0.0280
  451MOL0     C60776   4.049  10.008   6.597 -0.1303  0.3949 -0.1430
  451MOL0     C60777   3.944   9.922   6.574  0.4003 -0.8237  0.3165
  451MOL0     C60778   3.840   9.978   6.493  0.5303 -0.6523 -0.0616
  451MOL0     C60779   3.925   9.803   6.653  0.3200 -0.5866  0.4616
  451MOL0     C60780   3.806   9.719   6.641  0.3714 -0.3611 -0.0408
  451MOL0     O60781   3.760   9.680   6.772 -0.0320 -0.1855 -0.1822
  451MOL0     C60782   3.640   9.614   6.773  0.3533  0.2412  0.4583
  451MOL0     C60783   3.653   9.476   6.787  0.1130  0.6268 -0.4814
  451MOL0     C60784   3.536   9.391   6.779 -0.9557 -0.1447  0.0843
  451MOL0     C60785   3.414   9.458   6.756 -0.3892 -0.4207  0.1287
  451MOL0     O60786   3.295   9.395   6.730  1.2084  0.9430  0.1343
  451MOL0     C60787   3.296   9.259   6.687  0.6329  0.3325  0.0283
  451MOL0     C60788   3.150   9.219   6.687  0.2652  0.7377 -0.2418
  451MOL0     C60789   3.103   9.204   6.832  0.2975  0.6065 -0.2245
  451MOL0     C60790   2.969   9.133   6.820 -0.9014  1.1442  0.2242
  451MOL0     C60791   2.867   9.163   6.931  0.0018 -0.9811  1.4437
  451MOL0     C60792   2.732   9.082   6.914  0.6434 -0.0299 -0.3298
  451MOL0     C60793   2.634   9.142   7.010  0.0838 -1.2460 -0.1438
  451MOL0     C60794   2.552   9.263   6.949  0.1436  0.6052  0.4870
  451MOL0    Cl60795   2.427   9.186   6.829 -0.1867  0.1435 -0.2090
  451MOL0     C60796   3.407   9.599   6.751 -0.4574 -0.8067  0.5087
  451MOL0     C60797   3.521   9.679   6.761 -0.3991  0.7288 -0.7372
  451MOL0     O60798   3.777   9.664   6.531  0.6912  0.2956  0.6351
  451MOL0     C60799   4.036   9.757   6.737  0.6348 -0.6602  0.0883
  451MOL0     C60800   4.162   9.822   6.731 -0.1324  0.7109  0.4268
  451MOL0     N60801   4.529  10.680   6.749 -0.0023 -0.8253  0.0776
  451MOL0     N60802   4.568  10.740   6.852 -0.3226 -0.5731 -0.3029
  451MOL0     C60803   5.766  10.769   7.353  0.5280  0.8025 -0.4279
  451MOL0     C60804   5.905  10.756   7.344  0.0367 -0.1245 -1.4667
  451MOL0     C60805   6.347  10.743   7.495 -0.5734  0.9848 -0.5688
  451MOL0     C60806   6.380  10.749   7.361 -0.4363 -0.3103  0.4392
  451MOL0     C60807   6.515  10.744   7.310 -1.2207 -0.0803 -0.5147
  451MOL0     C60808   6.616  10.729   7.405  0.1349 -0.5411 -0.1968
  451MOL0     O60809   6.738  10.693   7.363 -0.5027 -0.0908  0.1369
  451MOL0     C60810   6.846  10.762   7.415 -0.1505  0.1473  0.0144
  451MOL0     C60811   6.958  10.673   7.460 -0.1702  0.2031 -0.7678
  451MOL0     C60812   6.911  10.555   7.562 -0.5711 -0.6041 -1.1318
  451MOL0     C60813   7.010  10.445   7.576 -0.2125  1.1496  0.3763
  451MOL0     C60814   7.145  10.498   7.548  0.8538  0.1145 -0.0709
  451MOL0     C60815   7.262  10.523   7.526 -0.1481  0.4085  0.0513
  451MOL0     C60816   6.578  10.703   7.539 -0.6543 -0.3830  0.3470
  451MOL0     C60817   6.447  10.716   7.590 -0.2628 -0.8274  0.6938
  451MOL0     H60818   6.001  10.909   7.631 -0.0382  2.1993 -0.2241
  451MOL0     H60819   5.753  10.890   7.666 -1.2629 -0.6384 -0.9279
  451MOL0     H60820   5.498  10.857   7.301 -0.8185  2.4162  2.0413
  451MOL0     H60821   5.489  10.684   7.363  0.9625 -0.9689  0.5636
  451MOL0     H60822   5.311  10.791   7.534  0.3966 -0.3595  0.8482
  451MOL0     H60823   5.298  10.910   7.400 -0.3453 -1.6702 -1.8875
  451MOL0     H60824   5.303  10.702   7.236  2.2139 -1.2535  1.1940
  451MOL0     H60825   5.261  10.613   7.393 -1.5480  0.6172  1.2700
  451MOL0     H60826   5.064  10.729   7.424  0.4677 -0.0021  0.6362
  451MOL0     H60827   5.106  10.845   7.288  1.4905 -0.2810 -0.6673
  451MOL0     H60828   5.071  10.690   7.126 -0.9432  0.3623  0.0424
  451MOL0     H60829   5.031  10.556   7.236 -0.6972  0.4010  0.5716
  451MOL0     H60830   4.826  10.655   7.302 -3.9184  0.8537 -1.8723
  451MOL0     H60831   4.868  10.811   7.248  1.2746 -1.0919  2.7987
  451MOL0     H60832   4.842  10.752   7.012  0.2823 -1.3230 -0.4245
  451MOL0     H60833   4.844  10.572   7.064 -0.5420 -0.2084  0.7418
  451MOL0     H60834   4.630  10.770   7.113  4.8041  2.7263 -2.2983
  451MOL0     H60835   4.629  10.584   7.146 -3.0249  0.5226  0.8968
  451MOL0     H60836   4.665  10.434   6.924 -1.1015 -0.8118 -1.5859
  451MOL0     H60837   4.512  10.468   6.575 -1.0124  0.1851  1.1306
  451MOL0     H60838   4.613  10.363   6.678 -0.1741 -1.2516  0.6015
  451MOL0     H60839   4.311  10.416   6.687 -0.5694 -0.3996  0.1497
  451MOL0     H60840   4.384  10.371   6.846 -0.7750  0.3914 -0.0301
  451MOL0     H60841   4.496  10.179   6.746  0.7458  0.3893 -0.7381
  451MOL0     H60842   4.422  10.224   6.582 -0.4854 -2.5918 -0.9099
  451MOL0     H60843   4.205  10.205   6.665 -0.7023 -1.8463  0.7840
  451MOL0     H60844   4.268  10.150   6.823  1.7878  1.9386  0.5577
  451MOL0     H60845   4.050  10.106   6.551 -0.3623  0.6817  0.4565
  451MOL0     H60846   3.753   9.913   6.483 -0.4439  0.6181 -0.0282
  451MOL0     H60847   3.797  10.055   6.557  2.2325  1.8506 -1.7238
  451MOL0     H60848   3.876  10.022   6.399  0.4119  2.9900  1.4223
  451MOL0     H60849   3.750   9.432   6.807 -0.8383 -0.8737  1.1527
  451MOL0     H60850   3.550   9.286   6.802 -2.8764  0.0819  2.7128
  451MOL0     H60851   3.340   9.251   6.587 -1.0965 -0.7734 -0.6970
  451MOL0     H60852   3.345   9.202   6.766  2.1861  0.9145 -0.4822
  451MOL0     H60853   3.089   9.280   6.619 -0.0230  0.9281  0.1831
  451MOL0     H60854   3.147   9.122   6.637 -4.1777  1.4006 -1.7060
  451MOL0     H60855   3.086   9.299   6.884  0.2544 -1.4201  3.9525
  451MOL0     H60856   3.166   9.144   6.898  3.1546  2.5251 -1.0148
  451MOL0     H60857   2.914   9.157   6.729 -2.8422 -1.0278  0.7359
  451MOL0     H60858   2.979   9.025   6.806  1.3000  0.9715  2.4435
  451MOL0     H60859   2.853   9.271   6.922 -0.8025 -1.2405 -1.9035
  451MOL0     H60860   2.911   9.149   7.030 -0.4571 -0.5097  1.7176
  451MOL0     H60861   2.699   9.082   6.810  1.9219 -1.1479 -0.7664
  451MOL0     H60862   2.754   8.980   6.946  0.3190  0.6553  2.2719
  451MOL0     H60863   2.680   9.182   7.100 -0.3737  2.4476 -1.3751
  451MOL0     H60864   2.555   9.076   7.048 -2.0852  1.5113  0.4282
  451MOL0     H60865   2.613   9.330   6.887 -1.5269 -1.6917 -4.1282
  451MOL0     H60866   2.498   9.315   7.029 -0.8854  1.9699 -1.0256
  451MOL0     H60867   3.311   9.651   6.748 -0.1849 -0.3186  0.0983
  451MOL0     H60868   3.521   9.787   6.773  2.1962  0.5509  2.5156
  451MOL0     H60869   4.036   9.658   6.782  1.1713 -1.0709 -0.7859
  451MOL0     H60870   4.254   9.786   6.776  1.0397  0.0789 -2.2792
  451MOL0     H60871   5.715  10.719   7.271  2.2049 -0.4862 -0.7473
  451MOL0     H60872   5.949  10.708   7.257 -2.6003 -1.0118 -2.3982
  451MOL0     H60873   6.308  10.758   7.280  0.2686  0.7423 -0.0802
  451MOL0     H60874   6.540  10.762   7.206 -0.8669  2.5698 -0.0451
  451MOL0     H60875   6.883  10.834   7.342 -0.6381  1.6399  1.1947
  451MOL0     H60876   6.818  10.812   7.508  0.5556 -1.3599  1.0991
  451MOL0     H60877   7.030  10.741   7.507 -0.5372  1.1625 -1.5440
  451MOL0     H60878   7.014  10.636   7.374 -1.3967 -1.1683 -1.0194
  451MOL0     H60879   6.817  10.512   7.527 -0.2903 -0.1490 -2.4763
  451MOL0     H60880   6.900  10.600   7.662 -1.7493 -0.9967 -1.0697
  451MOL0     H60881   6.986  10.372   7.498 -0.2700 -0.1511  1.5596
  451MOL0     H60882   7.001  10.386   7.668 -1.0756 -1.0254 -1.0193
  451MOL0     H60883   7.366  10.545   7.537 -0.3706  1.1335  0.7605
  451MOL0     H60884   6.656  10.682   7.611 -1.5795 -2.5456  0.8161
  451MOL0     H60885   6.438  10.696   7.696 -0.9821 -1.7419  0.4767
  452MOL0     O60886   7.505   5.637   6.136  0.2874 -0.4144  0.2001
  452MOL0     C60887   7.518   5.606   6.251 -0.2041  0.6970 -0.7303
  452MOL0     O60888   7.443   5.661   6.363 -0.3362 -0.1329 -0.0488
  452MOL0     C60889   7.341   5.745   6.337  0.5184 -0.1298  0.0160
  452MOL0     C60890   7.361   5.867   6.269  0.3307  0.6746 -0.6482
  452MOL0     C60891   7.252   5.950   6.247  0.4166  1.2949  0.0386
  452MOL0     C60892   7.125   5.913   6.281  1.1003 -0.1624  0.0818
  452MOL0     O60893   7.024   6.006   6.256 -0.1464  0.6400  0.4122
  452MOL0     C60894   6.904   6.000   6.329 -0.3894 -0.1970  0.4065
  452MOL0     C60895   6.800   6.099   6.280  0.5666 -0.9835  0.1407
  452MOL0     C60896   6.662   6.052   6.323 -0.4380 -0.3881  0.9083
  452MOL0     C60897   6.557   6.155   6.284 -0.0127  0.8406  0.7771
  452MOL0     C60898   6.413   6.128   6.336  0.0194 -1.0744  0.7624
  452MOL0     C60899   6.401   6.170   6.480 -0.1021  0.0150 -0.2371
  452MOL0     C60900   6.271   6.090   6.532  0.5086 -0.6293  0.4638
  452MOL0     C60901   6.240   6.138   6.673 -0.1211 -0.2062 -0.4692
  452MOL0     N60902   6.105   6.104   6.716  0.1190  0.3368 -0.2447
  452MOL0     C60903   6.001   6.101   6.632  0.5706  0.9003  0.7470
  452MOL0     C60904   5.894   6.046   6.696  0.5280  0.2181  0.0741
  452MOL0     C60905   5.770   6.017   6.636 -0.9091 -0.4820  0.3806
  452MOL0     C60906   5.660   6.127   6.624 -0.1295  0.1866  0.3955
  452MOL0     C60907   5.698   6.221   6.514 -0.0457  0.0820  0.2956
  452MOL0     C60908   5.601   6.341   6.509  0.0855  0.4137  0.1819
  452MOL0     O60909   5.642   6.452   6.425 -0.2969 -0.2249  0.4873
  452MOL0     C60910   5.584   6.477   6.297 -0.8344  0.6642  0.1145
  452MOL0     C60911   5.438   6.466   6.290 -0.6712  0.9107  0.4853
  452MOL0     C60912   5.373   6.500   6.175 -0.3889  0.5170  0.2084
  452MOL0     C60913   5.229   6.489   6.188  0.2164  0.1857  0.5525
  452MOL0     C60914   5.449   6.558   6.069  0.6889  0.3153  0.0735
  452MOL0     C60915   5.381   6.607   5.945  0.0655 -0.1777  0.5330
  452MOL0     O60916   5.456   6.694   5.870 -0.0794 -0.1475 -0.5224
  452MOL0     C60917   5.397   6.781   5.781 -1.0559  0.1971 -0.9301
  452MOL0     C60918   5.271   6.772   5.724  0.1319 -0.3269  0.8041
  452MOL0     C60919   5.225   6.871   5.638  0.1216  0.3301 -0.5050
  452MOL0     C60920   5.301   6.981   5.600 -0.7627 -0.9298 -0.1626
  452MOL0     O60921   5.261   7.088   5.523  0.0419  0.5711  0.7564
  452MOL0     C60922   5.121   7.107   5.539  0.4981 -0.6488  1.0219
  452MOL0     C60923   5.087   7.253   5.485 -0.0682  0.8396  0.1362
  452MOL0     C60924   4.937   7.280   5.520  0.7472  0.3481 -0.6014
  452MOL0     C60925   4.828   7.216   5.425  0.1553  0.5160 -0.0506
  452MOL0     C60926   4.694   7.195   5.495 -0.0208  0.1115 -0.6338
  452MOL0     C60927   4.694   7.094   5.614 -0.2942 -0.8979  1.0127
  452MOL0     C60928   4.756   6.955   5.577  1.1633  0.2071  1.1375
  452MOL0     C60929   4.658   6.869   5.495  0.5524  0.6813  0.2837
  452MOL0    Cl60930   4.562   6.787   5.628  0.0346  0.2891 -0.1890
  452MOL0     C60931   5.435   6.979   5.644  0.3965  0.5644 -0.3620
  452MOL0     C60932   5.482   6.877   5.733  0.1345 -0.7970  0.4673
  452MOL0     O60933   5.272   6.563   5.913 -0.7250 -0.1047 -0.0988
  452MOL0     C60934   5.586   6.575   6.075  0.1753  0.7012  0.1401
  452MOL0     C60935   5.654   6.540   6.195 -0.3581  0.1137 -0.1444
  452MOL0     N60936   5.946   6.014   6.819  0.4702  0.2698 -0.2448
  452MOL0     N60937   6.072   6.036   6.829  0.1441 -0.6318  0.1032
  452MOL0     C60938   7.101   5.787   6.345  0.4584 -1.5033 -0.3356
  452MOL0     C60939   7.210   5.708   6.385 -0.0364 -0.5006  0.5701
  452MOL0     C60940   7.614   5.505   6.290  0.5493 -0.1837 -0.1799
  452MOL0     C60941   7.600   5.428   6.412 -0.8168 -0.0555  0.5265
  452MOL0     C60942   7.700   5.341   6.449 -0.9109 -1.0917 -0.3461
  452MOL0     C60943   7.817   5.317   6.364  0.3605  0.7162 -0.6089
  452MOL0     O60944   7.912   5.235   6.391 -0.1038  0.7234  0.2966
  452MOL0     C60945   7.882   5.131   6.492 -1.0625  0.2537  0.1933
  452MOL0     C60946   7.783   5.021   6.436  0.4648 -0.3548  0.2899
  452MOL0     C60947   7.773   4.907   6.522 -0.3300  0.2120  0.3083
  452MOL0     C60948   7.684   4.794   6.476 -0.2327 -0.7673 -0.8186
  452MOL0     C60949   7.740   4.664   6.509  0.2913  0.4327  0.7922
  452MOL0     C60950   7.794   4.559   6.536 -0.4422 -0.3316 -0.1384
  452MOL0     C60951   7.826   5.392   6.248  0.1477 -0.4351  0.4962
  452MOL0     C60952   7.731   5.489   6.218 -0.3489  0.4004  0.0160
  452MOL0     H60953   7.456   5.887   6.221 -0.3362  3.2878 -1.0337
  452MOL0     H60954   7.260   6.046   6.196 -3.6558  1.4589 -0.6262
  452MOL0     H60955   6.868   5.897   6.342  3.5191 -1.8031 -0.3118
  452MOL0     H60956   6.923   6.029   6.433  1.7135  1.2397 -0.3273
  452MOL0     H60957   6.822   6.195   6.327 -0.3334 -0.2756 -0.8280
  452MOL0     H60958   6.800   6.110   6.171 -4.4179 -0.4894 -0.0449
  452MOL0     H60959   6.654   5.957   6.270 -1.7117  0.7060 -0.9568
  452MOL0     H60960   6.670   6.042   6.432  0.7241 -0.3848  0.8382
  452MOL0     H60961   6.591   6.257   6.308  2.0969 -0.0418  1.7938
  452MOL0     H60962   6.554   6.137   6.176  0.5801 -1.0414  1.0519
  452MOL0     H60963   6.347   6.177   6.264 -0.2415  0.5010  2.0323
  452MOL0     H60964   6.395   6.020   6.338  0.7625 -1.2253 -0.0662
  452MOL0     H60965   6.486   6.147   6.544  1.0110  1.4098 -1.1333
  452MOL0     H60966   6.392   6.279   6.480 -0.6976  0.0140 -2.2911
  452MOL0     H60967   6.190   6.136   6.475 -0.2552  1.2321  2.8700
  452MOL0     H60968   6.284   5.982   6.519 -0.4481 -0.7095  0.0885
  452MOL0     H60969   6.252   6.246   6.687  1.7415 -0.6231  1.6642
  452MOL0     H60970   6.313   6.090   6.739  1.4364  1.6713 -0.7376
  452MOL0     H60971   6.000   6.157   6.539  3.1516 -0.1617 -0.0164
  452MOL0     H60972   5.798   5.988   6.535 -0.7458 -2.2689  0.9059
  452MOL0     H60973   5.719   5.933   6.684 -2.8831 -1.2642 -2.8185
  452MOL0     H60974   5.651   6.184   6.717 -0.7612 -1.4272  1.3759
  452MOL0     H60975   5.565   6.079   6.598  0.5541 -1.2717  0.4720
  452MOL0     H60976   5.688   6.162   6.422  0.1326 -0.8274  0.8386
  452MOL0     H60977   5.800   6.261   6.514  0.7923 -1.8287 -2.1024
  452MOL0     H60978   5.592   6.375   6.613  1.8346  0.8059  0.2366
  452MOL0     H60979   5.510   6.295   6.470  0.1515  2.1751 -2.3313
  452MOL0     H60980   5.384   6.415   6.369 -3.6791  0.5045 -1.6808
  452MOL0     H60981   5.172   6.444   6.105  1.0589  2.5205 -1.4266
  452MOL0     H60982   5.195   6.426   6.271  0.3399 -2.2335 -1.1216
  452MOL0     H60983   5.183   6.587   6.198  0.4377  0.3639 -0.0796
  452MOL0     H60984   5.197   6.693   5.734 -0.4450  0.3417  2.0154
  452MOL0     H60985   5.119   6.878   5.615 -0.4685  1.6926  2.1415
  452MOL0     H60986   5.061   7.032   5.488 -0.0451  0.7023 -0.4256
  452MOL0     H60987   5.086   7.107   5.643  2.4106 -3.5156  1.7531
  452MOL0     H60988   5.154   7.328   5.528  0.3500  2.0664 -2.4609
  452MOL0     H60989   5.103   7.256   5.377  0.3323  0.7149  0.1888
  452MOL0     H60990   4.920   7.388   5.525 -0.0415  0.1984 -0.0460
  452MOL0     H60991   4.933   7.236   5.619  2.9074  0.7173 -0.2836
  452MOL0     H60992   4.808   7.297   5.354 -1.8310  1.3147  1.3221
  452MOL0     H60993   4.871   7.134   5.367  0.8254  1.7901 -1.4200
  452MOL0     H60994   4.613   7.161   5.429 -2.0595 -0.5691  2.0591
  452MOL0     H60995   4.655   7.286   5.541 -1.4850 -1.2542  1.0144
  452MOL0     H60996   4.756   7.142   5.691 -0.2874  3.3597 -1.2961
  452MOL0     H60997   4.596   7.067   5.655 -0.2902 -1.6206  0.5608
  452MOL0     H60998   4.795   6.902   5.664  0.9204 -1.2480  0.3924
  452MOL0     H60999   4.848   6.971   5.520  1.4644  0.3960  1.6716
  452MOL0     H61000   4.714   6.793   5.439  0.6321  0.8297  0.1608
  452MOL0     H61001   4.597   6.925   5.423  0.6547  1.4330  0.7727
  452MOL0     H61002   5.514   7.053   5.633 -0.0746  1.2843  0.8074
  452MOL0     H61003   5.584   6.883   5.769  0.3728  2.0578 -0.4594
  452MOL0     H61004   5.646   6.635   6.007  2.7982 -2.2669 -0.4012
  452MOL0     H61005   5.756   6.561   6.223 -0.9367 -1.7662  4.0949
  452MOL0     H61006   7.004   5.761   6.387 -1.4920  2.4752 -1.8531
  452MOL0     H61007   7.205   5.619   6.447  2.4502 -1.3864 -0.4026
  452MOL0     H61008   7.517   5.433   6.481  0.8759  2.3984  2.5370
  452MOL0     H61009   7.692   5.311   6.553  3.6537  1.9892  1.2102
  452MOL0     H61010   7.976   5.082   6.518 -0.7539 -0.0179 -1.3465
  452MOL0     H61011   7.851   5.166   6.591  0.4796 -3.0588  2.0400
  452MOL0     H61012   7.809   4.998   6.333 -2.2296  0.6717 -0.7022
  452MOL0     H61013   7.681   5.058   6.425  0.1577 -1.2389  0.0929
  452MOL0     H61014   7.727   4.944   6.613  1.8696  5.0424 -0.1844
  452MOL0     H61015   7.877   4.880   6.546  0.1929  0.9640 -0.9580
  452MOL0     H61016   7.658   4.793   6.370  2.1158 -0.1377 -1.4520
  452MOL0     H61017   7.591   4.804   6.533  0.4575  1.2705  0.0502
  452MOL0     H61018   7.836   4.465   6.563 -0.3342 -0.2148  0.0961
  452MOL0     H61019   7.916   5.385   6.188  2.7614 -0.6469  4.1011
  452MOL0     H61020   7.757   5.554   6.135  1.9923  0.6413  0.8453
  453MOL0     O61021   7.195   6.231   1.688 -0.0842  0.0909 -0.1369
  453MOL0     C61022   7.234   6.127   1.636  0.6119 -0.0374 -0.3895
  453MOL0     O61023   7.159   6.001   1.633 -0.3302 -0.2999  0.4225
  453MOL0     C61024   7.028   6.002   1.683 -1.1911 -0.1549 -0.5410
  453MOL0     C61025   6.980   6.066   1.802  0.4664 -0.2305  0.3261
  453MOL0     C61026   6.849   6.059   1.849  0.8285  0.5458  0.1501
  453MOL0     C61027   6.762   5.977   1.784 -0.1318  0.7069  0.0609
  453MOL0     O61028   6.639   5.961   1.840 -0.2611 -0.8091  0.5007
  453MOL0     C61029   6.574   6.085   1.871 -0.1348 -0.7357  0.8074
  453MOL0     C61030   6.422   6.067   1.852 -0.4948 -0.6351  0.1730
  453MOL0     C61031   6.355   5.962   1.938  0.1763  0.6827  0.1584
  453MOL0     C61032   6.227   5.917   1.874 -0.1150 -0.5650 -1.3346
  453MOL0     C61033   6.248   5.790   1.784  0.4092 -0.3339 -0.2602
  453MOL0     C61034   6.114   5.733   1.713  0.4877 -0.1742 -0.3905
  453MOL0     C61035   6.144   5.656   1.593  0.0355 -0.7440  0.2233
  453MOL0     C61036   6.034   5.610   1.494  0.0082 -0.5792  0.0771
  453MOL0     N61037   5.960   5.724   1.437  0.3758 -0.0721 -0.1843
  453MOL0     C61038   5.872   5.814   1.495 -0.2687  0.1721  1.0286
  453MOL0     C61039   5.835   5.904   1.394  0.9476  0.0975 -0.2070
  453MOL0     C61040   5.743   6.024   1.402 -0.5545 -0.3283 -0.8342
  453MOL0     C61041   5.610   5.959   1.426  0.4037 -0.3592 -0.2136
  453MOL0     C61042   5.517   6.070   1.475  0.4371 -0.2410 -0.5083
  453MOL0     C61043   5.365   6.024   1.469 -0.2299 -0.4922 -0.3305
  453MOL0     O61044   5.361   5.890   1.517  0.5692  0.1219 -0.3711
  453MOL0     C61045   5.247   5.824   1.556  0.0705 -0.8655 -0.0220
  453MOL0     C61046   5.267   5.691   1.588 -0.3984 -0.7857 -0.2043
  453MOL0     C61047   5.173   5.609   1.646  0.1458  0.9803  0.2984
  453MOL0     C61048   5.224   5.471   1.698  0.8674 -0.2713 -0.4288
  453MOL0     C61049   5.042   5.665   1.652  1.2830  0.5873  0.1119
  453MOL0     C61050   4.914   5.593   1.697 -0.3263  0.0358 -0.1136
  453MOL0     O61051   4.913   5.454   1.677  0.6804  0.3488  0.6206
  453MOL0     C61052   4.790   5.395   1.681  0.1982 -0.4415 -0.0676
  453MOL0     C61053   4.668   5.448   1.635 -0.6742  0.5797  0.4408
  453MOL0     C61054   4.556   5.363   1.640  0.2330 -1.3379 -0.0062
  453MOL0     C61055   4.551   5.234   1.673 -0.5343 -0.3758 -1.0179
  453MOL0     O61056   4.434   5.162   1.653  0.3541 -0.6376 -0.9716
  453MOL0     C61057   4.399   5.055   1.740  0.4030 -0.1282  0.2713
  453MOL0     C61058   4.258   5.010   1.741 -0.2793 -0.4839  0.8404
  453MOL0     C61059   4.236   4.890   1.817  0.1191 -0.2553  0.4045
  453MOL0     C61060   4.095   4.831   1.789 -0.1190  0.5269 -0.0056
  453MOL0     C61061   4.063   4.719   1.887  0.2119 -0.2284 -0.2914
  453MOL0     C61062   4.130   4.589   1.861 -0.2490 -0.0022 -0.9316
  453MOL0     C61063   4.044   4.510   1.757 -0.6092  0.3596 -0.7033
  453MOL0     C61064   4.097   4.364   1.728  0.4839 -0.5057 -0.2312
  453MOL0    Cl61065   4.059   4.269   1.872 -0.2104  0.2719 -0.0130
  453MOL0     C61066   4.671   5.181   1.729  0.6690  0.2281 -0.5082
  453MOL0     C61067   4.786   5.261   1.736 -0.0161  0.4232 -0.6288
  453MOL0     O61068   4.817   5.666   1.718 -0.0411  0.2455  0.2701
  453MOL0     C61069   5.019   5.800   1.608 -0.4324  0.1016 -0.2782
  453MOL0     C61070   5.123   5.880   1.564  0.8777  0.7071  1.0972
  453MOL0     N61071   5.908   5.879   1.284 -0.2359  0.1740 -0.4960
  453MOL0     N61072   5.980   5.771   1.316  0.0069 -0.4129  0.3306
  453MOL0     C61073   6.800   5.904   1.669 -0.0581 -0.3743  0.0172
  453MOL0     C61074   6.932   5.919   1.619  0.0066  0.9680 -0.7779
  453MOL0     C61075   7.368   6.133   1.570  0.3499  0.3646  0.0933
  453MOL0     C61076   7.458   6.233   1.597 -0.3732 -0.1123 -0.7440
  453MOL0     C61077   7.587   6.234   1.548 -0.6818  0.6507  0.8063
  453MOL0     C61078   7.631   6.130   1.467  0.7922  0.7635 -1.1684
  453MOL0     O61079   7.750   6.119   1.410  0.0539 -0.3048 -0.2209
  453MOL0     C61080   7.849   6.220   1.434 -0.0983 -0.1984  0.0205
  453MOL0     C61081   7.976   6.157   1.370  0.7814 -0.3061  0.2555
  453MOL0     C61082   8.103   6.241   1.401  0.4089  0.2280  0.0214
  453MOL0     C61083   8.233   6.165   1.376 -0.0087  0.0163 -0.4342
  453MOL0     C61084   8.243   6.142   1.230  0.6583  0.1575  0.7970
  453MOL0     C61085   8.266   6.121   1.110  0.0435 -0.2157  0.2674
  453MOL0     C61086   7.538   6.029   1.437  0.0836 -0.4067 -0.2658
  453MOL0     C61087   7.411   6.030   1.486  0.4557 -0.0834  0.7765
  453MOL0     H61088   7.047   6.127   1.862 -0.2691 -2.0413  3.2199
  453MOL0     H61089   6.813   6.108   1.939 -3.2973 -2.0832  0.2063
  453MOL0     H61090   6.600   6.112   1.974  1.0162  0.5868  0.2052
  453MOL0     H61091   6.617   6.172   1.821 -1.6395 -1.0045 -1.1012
  453MOL0     H61092   6.375   6.165   1.863  0.4915 -0.1241 -0.0112
  453MOL0     H61093   6.416   6.037   1.747  2.5244  3.2891 -1.3906
  453MOL0     H61094   6.428   5.882   1.951 -0.3402  0.3242  0.8506
  453MOL0     H61095   6.344   6.006   2.037 -2.9648 -2.2718  1.3031
  453MOL0     H61096   6.153   5.894   1.952 -0.1457  0.3196 -1.0858
  453MOL0     H61097   6.189   6.000   1.813 -0.5765 -0.4799 -0.9427
  453MOL0     H61098   6.329   5.812   1.714  0.9992 -1.3862  0.0699
  453MOL0     H61099   6.286   5.708   1.845  1.0879 -0.5537 -0.9811
  453MOL0     H61100   6.063   5.673   1.789  1.8216  1.6665  2.0656
  453MOL0     H61101   6.054   5.822   1.695  2.2714  0.9282 -1.2311
  453MOL0     H61102   6.210   5.725   1.540 -0.4121  0.0508  0.6827
  453MOL0     H61103   6.205   5.569   1.618  1.7998  0.3426 -0.1631
  453MOL0     H61104   5.963   5.540   1.538 -2.0663  0.5605 -1.3127
  453MOL0     H61105   6.083   5.554   1.414  1.3122  1.7331 -0.8547
  453MOL0     H61106   5.830   5.802   1.594  1.5115  1.7551  2.0440
  453MOL0     H61107   5.775   6.087   1.486  1.7904  0.6841 -2.3870
  453MOL0     H61108   5.735   6.079   1.308  0.2487  0.1961 -0.6080
  453MOL0     H61109   5.621   5.877   1.497  1.3588 -0.4750 -0.4749
  453MOL0     H61110   5.567   5.920   1.333  2.6521  1.2822 -2.0780
  453MOL0     H61111   5.521   6.165   1.421  0.3493  2.0445  3.1766
  453MOL0     H61112   5.531   6.101   1.579  0.5536  1.4106 -0.9876
  453MOL0     H61113   5.326   6.033   1.367 -2.6948  1.4791  0.6912
  453MOL0     H61114   5.306   6.094   1.530  1.7398  1.8057 -0.8821
  453MOL0     H61115   5.372   5.664   1.578 -0.6300 -1.8769  0.1170
  453MOL0     H61116   5.331   5.464   1.720  1.0876 -0.3004 -1.4345
  453MOL0     H61117   5.179   5.454   1.796  2.3494  2.8035  0.9287
  453MOL0     H61118   5.199   5.395   1.623 -1.4413 -0.8364  0.8331
  453MOL0     H61119   4.667   5.553   1.607  4.0618  1.0019  1.0687
  453MOL0     H61120   4.466   5.414   1.608 -0.6091 -2.2670  0.7961
  453MOL0     H61121   4.463   4.974   1.706  3.1579  0.5603  3.3221
  453MOL0     H61122   4.425   5.071   1.845 -2.4083  2.0373  0.7714
  453MOL0     H61123   4.196   5.093   1.773  0.1391  0.2126 -0.1015
  453MOL0     H61124   4.248   4.992   1.633  0.4128  1.8412  0.3351
  453MOL0     H61125   4.238   4.913   1.923 -0.7535 -2.2082  0.8901
  453MOL0     H61126   4.310   4.816   1.783 -1.3510 -0.8616 -1.7655
  453MOL0     H61127   4.014   4.904   1.790 -0.2135  0.4138  1.4956
  453MOL0     H61128   4.091   4.775   1.695 -3.6345 -1.6003  1.2417
  453MOL0     H61129   3.954   4.710   1.881  0.1060  0.6204  0.1572
  453MOL0     H61130   4.102   4.742   1.987  4.2584 -3.1432 -0.9816
  453MOL0     H61131   4.235   4.606   1.836  0.0840  2.1025  1.4244
  453MOL0     H61132   4.127   4.533   1.956  0.0903 -0.2345 -1.0539
  453MOL0     H61133   4.052   4.569   1.665  2.9536  0.1496 -0.6765
  453MOL0     H61134   3.942   4.507   1.796 -0.7203 -0.5482 -1.0523
  453MOL0     H61135   4.203   4.377   1.706  1.0667 -1.9798  1.4753
  453MOL0     H61136   4.048   4.312   1.646 -0.5823 -2.2292  1.4079
  453MOL0     H61137   4.681   5.077   1.759  2.6271  0.1061 -1.4211
  453MOL0     H61138   4.877   5.220   1.777 -0.7831  0.3946  1.1202
  453MOL0     H61139   4.920   5.845   1.614  0.3418  2.0297 -1.3138
  453MOL0     H61140   5.114   5.987   1.549 -0.6313  0.4835  0.1712
  453MOL0     H61141   6.729   5.843   1.614  0.1539  0.7098 -1.5052
  453MOL0     H61142   6.958   5.852   1.537  3.8002  1.9624 -0.5893
  453MOL0     H61143   7.435   6.321   1.657  0.1850  1.5457 -2.7991
  453MOL0     H61144   7.662   6.310   1.570 -1.2421  1.6969 -0.7393
  453MOL0     H61145   7.832   6.320   1.392  1.3193 -0.0969 -0.3657
  453MOL0     H61146   7.861   6.232   1.542 -0.8172  1.1327 -0.0265
  453MOL0     H61147   7.970   6.164   1.261  0.6988  2.1005  0.3652
  453MOL0     H61148   7.989   6.053   1.404  2.1116  0.4063  2.0831
  453MOL0     H61149   8.093   6.265   1.507  2.1705  3.5429 -0.4180
  453MOL0     H61150   8.090   6.331   1.341 -1.6721 -1.2660 -1.9895
  453MOL0     H61151   8.246   6.070   1.428 -0.6244  0.3132  0.2955
  453MOL0     H61152   8.316   6.225   1.414  0.3394 -0.8354  0.1790
  453MOL0     H61153   8.276   6.084   1.010 -1.8525  0.1687 -0.0837
  453MOL0     H61154   7.576   5.953   1.370 -1.1404  0.6066 -2.2160
  453MOL0     H61155   7.345   5.949   1.457  1.8932 -0.7303 -0.9199
  454MOL0     O61156   0.509   7.099   4.507  0.7450  0.3995 -0.1845
  454MOL0     C61157   0.575   7.081   4.406  0.0848 -0.6633 -0.8194
  454MOL0     O61158   0.536   7.039   4.281  0.4682  0.0645 -1.1050
  454MOL0     C61159   0.404   7.044   4.245  0.1628  0.6964  0.4518
  454MOL0     C61160   0.374   7.086   4.120 -0.3595 -0.5565  0.1631
  454MOL0     C61161   0.245   7.094   4.070  0.1650 -0.9476 -0.1257
  454MOL0     C61162   0.143   7.040   4.154 -0.7756  0.7748 -0.3443
  454MOL0     O61163   0.010   7.015   4.131 -0.4534  0.0322 -0.0095
  454MOL0     C61164  -0.006   6.983   3.993 -0.2872 -0.1618  0.4307
  454MOL0     C61165  -0.143   6.941   3.956  0.5130 -0.0960  0.5517
  454MOL0     C61166  -0.156   6.899   3.805 -0.3959  0.2470  0.1898
  454MOL0     C61167  -0.303   6.911   3.757 -0.0560  0.5482  0.2432
  454MOL0     C61168  -0.312   6.858   3.612  0.3939 -0.9515  0.2155
  454MOL0     C61169  -0.256   6.943   3.495  0.4829  0.0408  0.8210
  454MOL0     C61170  -0.340   7.074   3.491 -0.0756  0.6678 -0.3316
  454MOL0     C61171  -0.293   7.156   3.380 -0.0235  0.0946 -0.0656
  454MOL0     N61172  -0.361   7.278   3.352 -0.0691  0.2524  0.4075
  454MOL0     C61173  -0.303   7.403   3.372  0.1149  0.2316  0.4232
  454MOL0     C61174  -0.377   7.483   3.284  0.2481  0.6665 -0.2193
  454MOL0     C61175  -0.344   7.629   3.279 -1.0516 -0.0527  0.5686
  454MOL0     C61176  -0.462   7.722   3.247 -0.3665  0.3788  0.1199
  454MOL0     C61177  -0.559   7.730   3.360 -0.1206 -0.0611 -1.1984
  454MOL0     C61178  -0.658   7.857   3.357  0.4895 -0.4436 -0.6061
  454MOL0     O61179  -0.728   7.860   3.240  0.3987  1.3422  0.1707
  454MOL0     C61180  -0.841   7.929   3.233 -0.1177 -0.5945 -0.6104
  454MOL0     C61181  -0.852   8.032   3.137 -0.0525 -0.1998  1.2392
  454MOL0     C61182  -0.960   8.123   3.139  0.8430  0.1312 -0.1246
  454MOL0     C61183  -0.962   8.234   3.037 -0.9848 -0.5311 -0.4244
  454MOL0     C61184  -1.073   8.092   3.221  0.6780  0.3561 -0.6695
  454MOL0     C61185  -1.193   8.182   3.240  0.3070  0.2527 -0.4614
  454MOL0     O61186  -1.279   8.147   3.346 -0.1795 -0.0464 -0.1835
  454MOL0     C61187  -1.390   8.235   3.365 -0.3756 -0.2055  0.0158
  454MOL0     C61188  -1.387   8.334   3.455  0.3466  0.0796 -0.8665
  454MOL0     C61189  -1.499   8.409   3.494 -0.0086 -0.2196  0.3136
  454MOL0     C61190  -1.620   8.394   3.421  0.2463  0.4716  0.3147
  454MOL0     O61191  -1.739   8.441   3.465  0.2875 -0.1010  0.0130
  454MOL0     C61192  -1.755   8.577   3.503  0.2053 -0.2316 -0.1043
  454MOL0     C61193  -1.890   8.623   3.441 -0.2270  0.4677 -0.4596
  454MOL0     C61194  -2.018   8.559   3.512  0.0635 -0.6009  0.0394
  454MOL0     C61195  -2.135   8.662   3.500 -0.6061 -1.3540  0.1641
  454MOL0     C61196  -2.251   8.626   3.592 -0.5572  0.3738  0.3793
  454MOL0     C61197  -2.368   8.722   3.576  1.2729 -0.4811  0.1644
  454MOL0     C61198  -2.482   8.709   3.678 -1.1331  0.1863  0.5701
  454MOL0     C61199  -2.569   8.578   3.669 -0.2306  0.0279  0.8022
  454MOL0    Cl61200  -2.617   8.546   3.504  0.1684 -0.4628 -0.4753
  454MOL0     C61201  -1.618   8.317   3.304  0.3019  0.4154  0.2024
  454MOL0     C61202  -1.506   8.230   3.289  0.6659  0.5597  0.1859
  454MOL0     O61203  -1.202   8.285   3.174  0.6332  0.7763  0.3911
  454MOL0     C61204  -1.064   7.976   3.297  0.1119  1.0106 -0.0683
  454MOL0     C61205  -0.943   7.901   3.313  0.3294  0.7622 -0.5294
  454MOL0     N61206  -0.491   7.411   3.242 -0.4795 -0.4627 -0.2848
  454MOL0     N61207  -0.481   7.287   3.281 -0.2843 -0.9271 -0.6343
  454MOL0     C61208   0.179   6.992   4.286 -0.8486  0.1266  0.0931
  454MOL0     C61209   0.307   7.000   4.327  0.0113  0.2129 -0.7508
  454MOL0     C61210   0.713   7.131   4.406 -0.0564  0.2163 -0.4204
  454MOL0     C61211   0.795   7.085   4.308 -0.5194 -0.2226 -0.2885
  454MOL0     C61212   0.927   7.127   4.302  1.0567  0.4351 -0.4032
  454MOL0     C61213   0.979   7.210   4.397 -0.5416  0.0885 -0.0493
  454MOL0     O61214   1.116   7.233   4.416  1.1049 -0.3030  0.5901
  454MOL0     C61215   1.175   7.194   4.543  0.1824 -0.4321 -0.3102
  454MOL0     C61216   1.255   7.066   4.535 -0.6014  0.4308  1.1234
  454MOL0     C61217   1.168   6.950   4.468  0.2242  0.8597 -0.5626
  454MOL0     C61218   1.251   6.825   4.428 -0.6366  0.6595  0.0986
  454MOL0     C61219   1.160   6.718   4.376 -0.5096  0.1873  0.4982
  454MOL0     C61220   1.075   6.646   4.324 -0.2604  0.7892 -0.4039
  454MOL0     C61221   0.894   7.263   4.493 -0.9082  1.0969 -0.6375
  454MOL0     C61222   0.761   7.222   4.498  0.1642 -0.5379  0.1395
  454MOL0     H61223   0.465   7.097   4.062  0.1870  0.5630  1.1701
  454MOL0     H61224   0.234   7.128   3.968  0.9700 -1.3521 -0.3505
  454MOL0     H61225   0.006   7.079   3.940  0.4977  1.1917  2.9229
  454MOL0     H61226   0.060   6.908   3.948 -2.1211 -0.6065 -1.7458
  454MOL0     H61227  -0.152   6.848   4.012  0.1898 -2.0888 -2.5520
  454MOL0     H61228  -0.218   7.017   3.980  1.4095  0.8965  0.2759
  454MOL0     H61229  -0.094   6.967   3.747  3.2626  0.1937  3.6412
  454MOL0     H61230  -0.112   6.799   3.798 -0.1074  0.3700  0.2569
  454MOL0     H61231  -0.384   6.862   3.812 -1.3021 -0.7344 -2.5461
  454MOL0     H61232  -0.342   7.013   3.765 -1.3729  0.2097 -1.2647
  454MOL0     H61233  -0.257   6.765   3.603  2.0924 -0.1734  1.9364
  454MOL0     H61234  -0.415   6.838   3.580 -0.0632 -1.4740  1.9279
  454MOL0     H61235  -0.150   6.961   3.513  0.3067  1.8324  0.1991
  454MOL0     H61236  -0.263   6.896   3.397 -0.2107  4.3338 -1.3911
  454MOL0     H61237  -0.440   7.044   3.460 -0.0338  1.0785 -0.8795
  454MOL0     H61238  -0.338   7.128   3.586  0.0451  0.6158 -0.3035
  454MOL0     H61239  -0.289   7.099   3.287 -0.8826  0.1339 -0.1303
  454MOL0     H61240  -0.190   7.179   3.411  0.4759 -1.5714 -0.4008
  454MOL0     H61241  -0.218   7.427   3.435  1.7386  0.1312 -1.6245
  454MOL0     H61242  -0.291   7.650   3.373 -0.7984 -0.3911  0.5018
  454MOL0     H61243  -0.280   7.653   3.194  1.8875  2.5440  3.2030
  454MOL0     H61244  -0.510   7.695   3.153  0.6877 -0.1298 -0.2822
  454MOL0     H61245  -0.425   7.825   3.234 -0.7057  0.6243  1.0176
  454MOL0     H61246  -0.505   7.736   3.455 -1.1248  0.2972 -0.6280
  454MOL0     H61247  -0.615   7.637   3.368  0.6496 -0.4837 -0.5016
  454MOL0     H61248  -0.602   7.948   3.378 -2.9523  1.6581  0.1066
  454MOL0     H61249  -0.724   7.844   3.443  0.5776 -0.3956 -0.5310
  454MOL0     H61250  -0.762   8.039   3.076  0.6018  1.8391  2.3248
  454MOL0     H61251  -0.927   8.325   3.086 -1.0410  0.0860 -1.5004
  454MOL0     H61252  -0.882   8.218   2.964 -0.6134  2.2989 -0.7354
  454MOL0     H61253  -1.058   8.262   2.993 -2.0792  1.2139  2.7722
  454MOL0     H61254  -1.294   8.366   3.501  0.0341  2.2062 -1.6149
  454MOL0     H61255  -1.485   8.491   3.564  0.3707  0.4017 -0.4773
  454MOL0     H61256  -1.769   8.585   3.611 -1.7343 -1.0869 -0.2563
  454MOL0     H61257  -1.677   8.643   3.463  0.2279 -0.8298 -1.0745
  454MOL0     H61258  -1.889   8.732   3.450 -0.3621  0.3633  1.0694
  454MOL0     H61259  -1.882   8.594   3.336  1.7761 -2.6268  0.4331
  454MOL0     H61260  -1.994   8.536   3.616  2.3781  0.0051 -0.2921
  454MOL0     H61261  -2.044   8.468   3.457  0.1683 -1.2355  1.0232
  454MOL0     H61262  -2.092   8.760   3.525 -0.9330 -1.2469  0.3205
  454MOL0     H61263  -2.162   8.665   3.394  1.5031 -0.6072 -0.4079
  454MOL0     H61264  -2.223   8.632   3.697 -0.9939  0.1960  0.5046
  454MOL0     H61265  -2.278   8.523   3.567  2.0737 -0.3019  0.0094
  454MOL0     H61266  -2.337   8.824   3.598  0.4612  0.3398 -2.2786
  454MOL0     H61267  -2.404   8.719   3.473  0.4668  1.5135  0.3538
  454MOL0     H61268  -2.548   8.795   3.666 -1.5396 -0.1822  0.1234
  454MOL0     H61269  -2.438   8.705   3.779 -2.2533  1.6859  1.1529
  454MOL0     H61270  -2.657   8.601   3.730 -0.8535 -0.3384  0.0557
  454MOL0     H61271  -2.526   8.490   3.718  1.7811  1.9853  2.8394
  454MOL0     H61272  -1.708   8.308   3.243  0.3688  1.0429  0.0028
  454MOL0     H61273  -1.509   8.160   3.206  2.5696 -1.1944  1.5381
  454MOL0     H61274  -1.140   7.958   3.373  1.2551  1.8529  1.3380
  454MOL0     H61275  -0.929   7.821   3.385 -0.6624  0.9052 -0.1721
  454MOL0     H61276   0.110   6.946   4.356  0.0967  1.3558  1.9110
  454MOL0     H61277   0.328   6.954   4.423 -0.6172  1.8192  0.1929
  454MOL0     H61278   0.771   7.008   4.236  1.1003 -0.8455 -0.1979
  454MOL0     H61279   0.994   7.101   4.221  0.8791  1.7505 -0.9803
  454MOL0     H61280   1.237   7.273   4.586 -1.6000 -0.2136  2.0535
  454MOL0     H61281   1.099   7.181   4.620 -3.6226  0.5276 -3.5827
  454MOL0     H61282   1.296   7.030   4.629 -0.4241  0.7116  1.1573
  454MOL0     H61283   1.347   7.086   4.478  0.5598 -1.2629  2.3319
  454MOL0     H61284   1.127   6.980   4.371 -0.6359 -0.5828 -0.6668
  454MOL0     H61285   1.094   6.917   4.541  0.4078  3.8662  1.1580
  454MOL0     H61286   1.319   6.785   4.505  1.1509 -0.3132 -1.8741
  454MOL0     H61287   1.312   6.852   4.342  2.3871 -1.5197  1.3375
  454MOL0     H61288   1.005   6.580   4.278  0.4799 -0.3390  0.0227
  454MOL0     H61289   0.928   7.324   4.576 -2.2181  1.1169 -0.0989
  454MOL0     H61290   0.703   7.283   4.566 -0.1249  0.1779 -0.7309
  455MOL0     O61291   5.251   5.409   4.234  0.7120  0.5369  0.1128
  455MOL0     C61292   5.270   5.286   4.248  0.5366  0.4127 -0.3272
  455MOL0     O61293   5.376   5.231   4.313 -0.3990  0.9242  0.0218
  455MOL0     C61294   5.462   5.299   4.404 -0.2850  0.5546 -0.2840
  455MOL0     C61295   5.466   5.435   4.431 -0.3787 -0.4500 -0.6301
  455MOL0     C61296   5.569   5.494   4.506 -0.7558  0.5063  0.6887
  455MOL0     C61297   5.665   5.410   4.576  0.0477 -0.3074 -0.7164
  455MOL0     O61298   5.771   5.458   4.638  0.3370  0.5026  0.2746
  455MOL0     C61299   5.766   5.583   4.713 -0.1605 -1.1260  0.0915
  455MOL0     C61300   5.653   5.585   4.802  0.5431 -0.2265 -0.4013
  455MOL0     C61301   5.680   5.684   4.907 -0.5879 -0.1265 -0.6464
  455MOL0     C61302   5.691   5.824   4.873  0.0012 -0.7754 -0.0513
  455MOL0     C61303   5.724   5.909   4.997 -0.9054  0.5022  0.4717
  455MOL0     C61304   5.773   6.046   4.952  0.1601 -0.2705  0.1666
  455MOL0     C61305   5.668   6.127   4.884  0.1197 -0.3398 -0.4406
  455MOL0     C61306   5.711   6.274   4.862 -0.3712  0.4337 -0.1836
  455MOL0     N61307   5.732   6.353   4.991 -0.1467 -0.0946  0.3804
  455MOL0     C61308   5.845   6.391   5.062 -0.2971 -0.0400 -0.3345
  455MOL0     C61309   5.811   6.460   5.176  0.4446 -0.1656 -0.9266
  455MOL0     C61310   5.903   6.517   5.276 -0.1069 -0.3977  0.8129
  455MOL0     C61311   5.947   6.659   5.226 -0.7000  0.5237 -0.1277
  455MOL0     C61312   5.989   6.742   5.350  0.1367  0.5684 -0.0951
  455MOL0     C61313   6.115   6.679   5.410  0.2210 -0.8094 -0.0002
  455MOL0     O61314   6.225   6.735   5.335  0.2557 -0.1508 -0.3360
  455MOL0     C61315   6.282   6.850   5.392 -0.1978 -0.6236 -0.2199
  455MOL0     C61316   6.219   6.950   5.487 -0.0964  0.2216 -0.2521
  455MOL0     C61317   6.279   7.064   5.529 -0.1792  0.0654 -0.3568
  455MOL0     C61318   6.209   7.149   5.625  0.1913  0.1252  0.8261
  455MOL0     C61319   6.402   7.096   5.478 -0.3133  1.2428 -0.1080
  455MOL0     C61320   6.480   7.217   5.517  0.3680 -0.8898 -0.2984
  455MOL0     O61321   6.588   7.239   5.444  0.1294  0.0771  0.1781
  455MOL0     C61322   6.655   7.351   5.471 -0.3905  0.3169 -0.1278
  455MOL0     C61323   6.640   7.452   5.382 -0.0682  0.4335 -0.1538
  455MOL0     C61324   6.724   7.568   5.393 -0.3485  0.2923  0.2619
  455MOL0     C61325   6.819   7.580   5.496  0.5902 -1.0784 -0.7666
  455MOL0     O61326   6.891   7.695   5.508 -0.4135  0.1731 -0.1334
  455MOL0     C61327   7.035   7.683   5.515 -0.1482  0.5612 -0.2460
  455MOL0     C61328   7.112   7.808   5.548  0.5742 -0.5284 -0.6273
  455MOL0     C61329   7.085   7.860   5.689 -0.4420 -0.9582 -0.5738
  455MOL0     C61330   7.194   7.959   5.741 -0.4590 -0.5238  0.4969
  455MOL0     C61331   7.194   7.980   5.888 -0.1818  1.0158  0.7907
  455MOL0     C61332   7.298   8.084   5.927  0.0694 -0.2732  0.6532
  455MOL0     C61333   7.323   8.088   6.073 -0.0485 -0.1642  0.2238
  455MOL0     C61334   7.447   8.181   6.098 -0.6631 -0.5052  0.3880
  455MOL0    Cl61335   7.592   8.096   6.057 -0.3095  0.8554  0.2151
  455MOL0     C61336   6.840   7.472   5.580 -0.1290  0.5791  0.3850
  455MOL0     C61337   6.747   7.364   5.576 -0.6597  1.2797  0.0998
  455MOL0     O61338   6.444   7.295   5.605 -0.9668 -0.1387  0.9388
  455MOL0     C61339   6.463   7.011   5.382  0.2480 -0.3196 -0.3021
  455MOL0     C61340   6.410   6.890   5.352 -0.3163 -0.0751  0.2045
  455MOL0     N61341   5.672   6.442   5.183  0.0278 -0.6242  0.4093
  455MOL0     N61342   5.632   6.374   5.081  0.4061  0.2194  0.1963
  455MOL0     C61343   5.661   5.276   4.549 -0.7846 -0.4455 -0.0554
  455MOL0     C61344   5.560   5.223   4.464 -0.8007 -0.7677  0.4907
  455MOL0     C61345   5.167   5.192   4.201  0.4086  0.3170  0.3950
  455MOL0     C61346   5.072   5.232   4.104  0.0767  0.1388  0.3852
  455MOL0     C61347   4.988   5.133   4.052  0.0213 -0.4781  0.4565
  455MOL0     C61348   4.989   5.002   4.107 -0.5235 -0.4090  0.3753
  455MOL0     O61349   4.905   4.909   4.051 -0.3494  0.1749 -0.4409
  455MOL0     C61350   4.921   4.765   4.053 -0.1149 -0.6712 -0.6956
  455MOL0     C61351   4.834   4.711   4.165  0.7893 -0.6853 -0.2817
  455MOL0     C61352   4.689   4.750   4.152 -0.6675  0.6090 -1.0875
  455MOL0     C61353   4.659   4.858   4.261  0.0297 -0.6884  0.0200
  455MOL0     C61354   4.525   4.910   4.240  0.0885  0.3501 -0.1280
  455MOL0     C61355   4.406   4.920   4.219  0.9830 -0.9668 -0.7982
  455MOL0     C61356   5.068   4.971   4.218 -0.3910 -0.2205 -0.0033
  455MOL0     C61357   5.165   5.062   4.252 -0.2511 -0.1336 -0.7320
  455MOL0     H61358   5.393   5.502   4.385  0.2252  2.8777  2.7149
  455MOL0     H61359   5.583   5.600   4.522  1.6868  0.1377  1.5806
  455MOL0     H61360   5.862   5.593   4.765 -0.0938  1.9899 -0.4479
  455MOL0     H61361   5.767   5.668   4.644 -0.2506 -1.7710 -0.7165
  455MOL0     H61362   5.562   5.617   4.750 -0.1782  0.1566  1.0560
  455MOL0     H61363   5.635   5.490   4.853  0.2448  0.8383  1.5832
  455MOL0     H61364   5.596   5.688   4.977 -0.4247  1.1483 -0.4884
  455MOL0     H61365   5.772   5.654   4.959 -1.1675 -2.0520 -0.6722
  455MOL0     H61366   5.758   5.854   4.793  2.1139 -0.6750  1.6465
  455MOL0     H61367   5.586   5.845   4.853  0.3763 -0.8457 -2.2786
  455MOL0     H61368   5.636   5.912   5.062 -1.2865  3.0409 -0.0616
  455MOL0     H61369   5.807   5.855   5.044  0.7262  1.5959 -1.0279
  455MOL0     H61370   5.796   6.099   5.045  2.1078  2.7280 -1.8582
  455MOL0     H61371   5.860   6.038   4.885  0.1177  0.3716  0.0343
  455MOL0     H61372   5.639   6.068   4.796 -1.4469 -1.4765  0.7721
  455MOL0     H61373   5.575   6.130   4.941  0.2805  1.4919 -0.2182
  455MOL0     H61374   5.628   6.326   4.813 -1.5432 -1.2255 -0.0303
  455MOL0     H61375   5.800   6.267   4.798 -0.6795 -0.1150 -0.5663
  455MOL0     H61376   5.950   6.373   5.043  0.0969  0.3984  1.2362
  455MOL0     H61377   5.857   6.529   5.375  0.4028 -1.4792  1.1942
  455MOL0     H61378   5.987   6.450   5.294 -0.1003 -0.5177  0.3378
  455MOL0     H61379   5.859   6.702   5.176 -1.9320 -0.0407  1.4820
  455MOL0     H61380   6.025   6.647   5.151 -0.2513 -1.8182  0.6497
  455MOL0     H61381   5.907   6.743   5.422  0.7238 -0.5229  0.6237
  455MOL0     H61382   6.007   6.849   5.335 -0.1872  0.6453  0.0745
  455MOL0     H61383   6.109   6.570   5.399 -0.0725 -0.7401 -0.5285
  455MOL0     H61384   6.117   6.688   5.519 -1.5465 -0.6446  0.0446
  455MOL0     H61385   6.119   6.919   5.518 -0.6911  0.9827 -1.3254
  455MOL0     H61386   6.163   7.239   5.584 -1.9598 -2.2696 -2.5950
  455MOL0     H61387   6.118   7.104   5.668  0.4026  0.7139  1.9179
  455MOL0     H61388   6.265   7.174   5.716 -0.7246 -1.1643  1.7932
  455MOL0     H61389   6.570   7.442   5.300 -1.8633  0.9220  1.2485
  455MOL0     H61390   6.715   7.657   5.332 -2.2245 -2.7837 -4.5083
  455MOL0     H61391   7.056   7.613   5.596 -0.4521  0.8896  0.1248
  455MOL0     H61392   7.075   7.634   5.426 -0.7580 -1.1924  0.4055
  455MOL0     H61393   7.219   7.792   5.532  0.9621  0.2268  0.9888
  455MOL0     H61394   7.077   7.885   5.479 -0.0983 -0.7281 -0.5242
  455MOL0     H61395   7.071   7.778   5.761 -0.5843 -0.5837 -0.1691
  455MOL0     H61396   6.989   7.911   5.689 -0.4671 -1.0038 -1.0292
  455MOL0     H61397   7.291   7.924   5.704 -0.2455  1.3459 -0.8712
  455MOL0     H61398   7.170   8.057   5.698 -0.8001 -0.3838  0.9901
  455MOL0     H61399   7.215   7.884   5.937 -1.1404  1.3385  1.8742
  455MOL0     H61400   7.095   8.011   5.921 -0.4219  1.9180 -0.6726
  455MOL0     H61401   7.391   8.051   5.881 -0.2011 -1.8374  1.1395
  455MOL0     H61402   7.259   8.183   5.902 -0.8909 -0.6662  0.5533
  455MOL0     H61403   7.344   7.986   6.106 -0.0616 -0.8696 -1.8065
  455MOL0     H61404   7.233   8.118   6.127 -1.0412 -2.3901 -0.0739
  455MOL0     H61405   7.460   8.214   6.201  1.9009  0.4546 -0.1745
  455MOL0     H61406   7.444   8.270   6.035 -0.4247 -0.9499 -0.2647
  455MOL0     H61407   6.916   7.465   5.657 -1.4492  0.7123  1.7465
  455MOL0     H61408   6.754   7.286   5.652 -0.5182  1.9400  0.7716
  455MOL0     H61409   6.558   7.036   5.335  0.6868 -1.6958 -0.1980
  455MOL0     H61410   6.463   6.820   5.287 -0.7368 -1.0670  0.9093
  455MOL0     H61411   5.739   5.213   4.592  2.2981  3.4216  0.5545
  455MOL0     H61412   5.557   5.116   4.443  0.1092 -0.5929 -0.6258
  455MOL0     H61413   5.067   5.330   4.058 -2.4441 -0.2977 -0.4322
  455MOL0     H61414   4.931   5.156   3.963 -0.2332 -1.2152  0.4291
  455MOL0     H61415   4.896   4.720   3.957  0.8723 -0.0697 -1.2578
  455MOL0     H61416   5.027   4.750   4.079  0.6697  1.2368 -2.5117
  455MOL0     H61417   4.864   4.741   4.266 -2.4099  1.0216  0.3177
  455MOL0     H61418   4.841   4.602   4.174  0.9794 -0.7212 -0.8182
  455MOL0     H61419   4.631   4.660   4.173  1.5802 -1.0705 -1.6984
  455MOL0     H61420   4.659   4.793   4.056  1.6188  1.8567 -1.3181
  455MOL0     H61421   4.723   4.947   4.266  1.7353 -1.8508  0.0450
  455MOL0     H61422   4.679   4.815   4.360 -1.7727 -0.6045  0.4440
  455MOL0     H61423   4.298   4.924   4.217  0.7849 -0.3721  2.9878
  455MOL0     H61424   5.061   4.879   4.276  3.2798 -1.0365 -0.6251
  455MOL0     H61425   5.229   5.049   4.338 -0.3886  0.1803 -0.5817
  456MOL0     O61426   9.798   4.253   4.258 -0.8529  1.0162 -0.3568
  456MOL0     C61427   9.822   4.369   4.228  0.2766  0.0916 -0.3308
  456MOL0     O61428   9.738   4.476   4.254  0.0939  0.5363 -0.2823
  456MOL0     C61429   9.629   4.468   4.343 -0.5782 -0.0800  0.0051
  456MOL0     C61430   9.518   4.400   4.293  0.6003 -0.4520 -0.0660
  456MOL0     C61431   9.403   4.392   4.375 -1.0111 -0.2420  0.6121
  456MOL0     C61432   9.394   4.466   4.487  0.7854 -0.6888 -0.0993
  456MOL0     O61433   9.280   4.446   4.556 -1.2252  0.6477 -0.1406
  456MOL0     C61434   9.263   4.494   4.691 -0.0081  1.0012  0.8406
  456MOL0     C61435   9.126   4.438   4.753  0.7221 -0.7739  0.7567
  456MOL0     C61436   9.105   4.498   4.899  0.2770 -0.1792  0.1664
  456MOL0     C61437   8.991   4.432   4.976  0.4174 -0.6222  0.4323
  456MOL0     C61438   8.863   4.441   4.888 -0.1363  0.0537 -0.1746
  456MOL0     C61439   8.747   4.409   4.975  0.0709  0.0385 -0.3891
  456MOL0     C61440   8.612   4.410   4.907 -0.6400  0.3698 -0.1650
  456MOL0     C61441   8.608   4.293   4.798  0.2755 -0.3950  0.3509
  456MOL0     N61442   8.488   4.319   4.713 -1.0128  0.3261 -0.2058
  456MOL0     C61443   8.499   4.406   4.606  0.2458 -0.2531 -0.1896
  456MOL0     C61444   8.371   4.418   4.563 -0.0007  0.9229 -0.6011
  456MOL0     C61445   8.314   4.500   4.451 -0.0778 -0.2582  0.2066
  456MOL0     C61446   8.432   4.553   4.359  0.1809 -0.1041 -0.2667
  456MOL0     C61447   8.366   4.671   4.288  0.2352 -0.4882  0.0157
  456MOL0     C61448   8.462   4.742   4.197 -0.1628 -0.4398  0.6566
  456MOL0     O61449   8.394   4.853   4.139 -0.5033 -0.7672 -0.3579
  456MOL0     C61450   8.467   4.939   4.058 -0.3647 -1.0425 -0.5985
  456MOL0     C61451   8.598   4.922   4.010 -0.4768  0.3907  0.2648
  456MOL0     C61452   8.670   5.021   3.951  0.2193  0.2420  0.3397
  456MOL0     C61453   8.811   4.988   3.894 -0.1846  1.4014 -0.7040
  456MOL0     C61454   8.621   5.155   3.928 -0.0480 -0.8537  0.1714
  456MOL0     C61455   8.703   5.268   3.877  1.0539 -0.3525 -0.2590
  456MOL0     O61456   8.660   5.338   3.772  0.0882 -0.5730 -0.3697
  456MOL0     C61457   8.736   5.450   3.749 -0.0260  0.2684  0.0596
  456MOL0     C61458   8.681   5.571   3.775  0.2994  0.5637 -1.0246
  456MOL0     C61459   8.748   5.683   3.751 -0.0548 -0.0038  0.9326
  456MOL0     C61460   8.880   5.686   3.703  0.1805 -0.9827  0.8567
  456MOL0     O61461   8.937   5.812   3.686 -0.0226  0.4295 -0.3637
  456MOL0     C61462   9.076   5.834   3.702 -0.0720 -0.1649 -0.5765
  456MOL0     C61463   9.108   5.978   3.654  0.4071 -0.6454  0.0801
  456MOL0     C61464   9.252   6.024   3.687  0.4701 -0.7291 -0.5897
  456MOL0     C61465   9.268   6.175   3.707  0.3629  0.3978  0.3100
  456MOL0     C61466   9.400   6.207   3.774  0.0645 -0.7100  0.2378
  456MOL0     C61467   9.437   6.363   3.768 -0.3037 -0.4497 -0.3469
  456MOL0     C61468   9.321   6.447   3.824  0.1112 -0.4908 -0.6550
  456MOL0     C61469   9.358   6.579   3.894 -0.0577  0.5620  0.0024
  456MOL0    Cl61470   9.469   6.679   3.803 -0.4219 -0.3628  0.2016
  456MOL0     C61471   8.941   5.563   3.672  0.3861  0.3826 -0.0346
  456MOL0     C61472   8.867   5.442   3.697 -0.3218  0.5120  0.7778
  456MOL0     O61473   8.796   5.298   3.953 -0.2516 -0.0101 -0.5500
  456MOL0     C61474   8.484   5.174   3.972  0.8505 -0.3454  0.2709
  456MOL0     C61475   8.407   5.064   4.032  0.7602  0.0418  1.0449
  456MOL0     N61476   8.296   4.339   4.648 -0.2947 -0.1034 -0.1124
  456MOL0     N61477   8.365   4.288   4.744  0.0657 -0.2543  0.0909
  456MOL0     C61478   9.500   4.543   4.534 -0.2341 -0.3224 -1.1979
  456MOL0     C61479   9.615   4.541   4.467 -0.5297  0.0126  0.4936
  456MOL0     C61480   9.943   4.381   4.139  0.2032  0.2102 -0.2312
  456MOL0     C61481  10.004   4.265   4.079  0.1439 -0.6676 -0.0540
  456MOL0     C61482  10.121   4.272   4.001  0.0626 -0.6002  0.3385
  456MOL0     C61483  10.180   4.394   3.990  0.2066  0.2820 -0.3190
  456MOL0     O61484  10.296   4.413   3.917 -0.6345 -0.3444 -0.1687
  456MOL0     C61485  10.391   4.307   3.904 -0.2156 -0.7716  0.1868
  456MOL0     C61486  10.526   4.356   3.853  0.4160  0.0424  0.2840
  456MOL0     C61487  10.628   4.240   3.828  0.0277 -0.2166 -0.8474
  456MOL0     C61488  10.645   4.187   3.965 -1.0786  0.6620  0.5187
  456MOL0     C61489  10.595   4.050   3.990 -0.0013 -0.5152 -0.7699
  456MOL0     C61490  10.546   3.950   4.024 -0.0723  0.8003  0.1522
  456MOL0     C61491  10.120   4.512   4.038  0.9795  0.4169  0.4198
  456MOL0     C61492   9.998   4.501   4.110 -0.9404 -0.2079  0.1707
  456MOL0     H61493   9.534   4.350   4.198  2.5312  3.0096 -1.7732
  456MOL0     H61494   9.318   4.340   4.332 -0.5402  1.9911 -3.5056
  456MOL0     H61495   9.350   4.464   4.750 -1.5325 -1.2469  2.1320
  456MOL0     H61496   9.264   4.603   4.686 -2.4139  1.0469 -1.3417
  456MOL0     H61497   9.047   4.473   4.686  1.0963 -0.5951  0.4069
  456MOL0     H61498   9.121   4.329   4.760 -1.4598 -0.7059  0.9233
  456MOL0     H61499   9.199   4.483   4.953  1.1912  2.9291 -0.3853
  456MOL0     H61500   9.089   4.605   4.909 -1.5713 -0.4893  0.7608
  456MOL0     H61501   9.006   4.326   5.000 -4.9155 -2.4688 -2.5700
  456MOL0     H61502   8.971   4.497   5.061 -1.1998  0.1954 -0.5218
  456MOL0     H61503   8.857   4.533   4.829 -2.9135 -1.6129 -2.8011
  456MOL0     H61504   8.863   4.371   4.803 -2.4680 -0.4417  0.1669
  456MOL0     H61505   8.767   4.306   5.005  0.7349  0.6613  1.3935
  456MOL0     H61506   8.735   4.469   5.065  4.3725  0.3599  0.2064
  456MOL0     H61507   8.542   4.389   4.989 -1.1764 -1.4577 -1.0358
  456MOL0     H61508   8.594   4.506   4.859 -1.2917  0.2825 -0.1047
  456MOL0     H61509   8.591   4.196   4.846  3.2643 -1.4295 -0.4611
  456MOL0     H61510   8.699   4.297   4.738 -0.3324  2.1102 -0.5089
  456MOL0     H61511   8.578   4.475   4.576  0.5827  0.7927  2.7599
  456MOL0     H61512   8.241   4.446   4.390 -0.1154 -1.0371  0.9277
  456MOL0     H61513   8.250   4.576   4.498 -1.1151 -1.0173  0.0517
  456MOL0     H61514   8.447   4.476   4.283  1.3568  0.1689 -0.3202
  456MOL0     H61515   8.524   4.586   4.408 -0.6397 -0.0044  1.2767
  456MOL0     H61516   8.330   4.741   4.364 -0.7805 -0.5132 -0.4230
  456MOL0     H61517   8.274   4.644   4.236  0.3595  1.2574 -1.1866
  456MOL0     H61518   8.488   4.666   4.123 -1.3556 -0.7108  0.4923
  456MOL0     H61519   8.544   4.774   4.262 -0.6142  1.3837  0.3806
  456MOL0     H61520   8.645   4.825   4.019  0.4370  0.9732  2.2087
  456MOL0     H61521   8.838   4.888   3.931 -3.9516  1.0217  1.5674
  456MOL0     H61522   8.811   4.981   3.785 -0.7711 -2.3300 -0.6050
  456MOL0     H61523   8.889   5.061   3.918 -1.2229  2.0607  0.8053
  456MOL0     H61524   8.579   5.575   3.814  0.6308 -0.5997  0.0213
  456MOL0     H61525   8.698   5.775   3.779  0.1949  1.1333 -1.9621
  456MOL0     H61526   9.098   5.824   3.808 -0.6003 -0.8398 -0.5289
  456MOL0     H61527   9.133   5.761   3.644  1.1177  0.0802  0.2462
  456MOL0     H61528   9.099   5.977   3.545  2.4456 -0.5132 -0.1255
  456MOL0     H61529   9.041   6.045   3.708 -0.0359  1.1726 -2.5304
  456MOL0     H61530   9.323   5.996   3.609  0.7653 -2.3566  0.2151
  456MOL0     H61531   9.282   5.976   3.781 -0.5129 -1.1105 -0.4530
  456MOL0     H61532   9.261   6.230   3.613  1.2651 -1.8289 -1.1529
  456MOL0     H61533   9.188   6.215   3.770  1.2790  0.5286  1.4426
  456MOL0     H61534   9.480   6.147   3.732  0.6076 -1.4131  2.1723
  456MOL0     H61535   9.388   6.167   3.875 -0.6449 -4.3607 -1.1559
  456MOL0     H61536   9.521   6.374   3.838 -0.5458 -0.0887 -0.1124
  456MOL0     H61537   9.454   6.401   3.667 -3.4319  1.0324 -0.4143
  456MOL0     H61538   9.258   6.388   3.892 -3.5578  0.3823 -2.9849
  456MOL0     H61539   9.254   6.468   3.740 -2.1804 -1.1145  0.8976
  456MOL0     H61540   9.401   6.555   3.992 -1.1909  0.7014  0.5584
  456MOL0     H61541   9.261   6.624   3.919 -0.5775 -1.1864  1.4259
  456MOL0     H61542   9.043   5.553   3.636 -0.6011  0.0551 -3.1185
  456MOL0     H61543   8.912   5.343   3.688  0.0329  0.4264  2.8611
  456MOL0     H61544   8.435   5.269   3.955  1.4309  0.4326  2.5342
  456MOL0     H61545   8.304   5.077   4.064  0.1562 -2.0133  0.1588
  456MOL0     H61546   9.496   4.610   4.619 -0.6224 -2.8718  0.9153
  456MOL0     H61547   9.704   4.592   4.503  1.9893 -2.0849 -2.2769
  456MOL0     H61548   9.958   4.171   4.107 -0.6064  0.9261  5.2673
  456MOL0     H61549  10.168   4.180   3.969 -0.6952 -1.4995  1.7119
  456MOL0     H61550  10.411   4.264   4.003  4.0685 -0.9778 -0.5859
  456MOL0     H61551  10.349   4.226   3.844 -1.7257  0.0870  0.0412
  456MOL0     H61552  10.570   4.420   3.930  2.6577  1.9088 -2.3311
  456MOL0     H61553  10.508   4.414   3.762 -3.2446 -2.9208 -1.1825
  456MOL0     H61554  10.728   4.278   3.803 -0.4937  1.9391  0.1059
  456MOL0     H61555  10.604   4.160   3.758  1.2522  0.2829 -1.8726
  456MOL0     H61556  10.594   4.239   4.046 -3.4185 -1.9491  0.8874
  456MOL0     H61557  10.753   4.196   3.982 -0.0067  3.8191 -5.3271
  456MOL0     H61558  10.503   3.862   4.068  1.5078 -0.3069 -0.3930
  456MOL0     H61559  10.155   4.614   4.024  1.9853  0.0184 -0.0622
  456MOL0     H61560   9.954   4.590   4.154  2.3023  1.2939  0.6814
  457MOL0     O61561   1.937   1.579   2.698 -0.1955  0.0344  0.1257
  457MOL0     C61562   2.062   1.566   2.698 -0.4920 -0.2684  0.1969
  457MOL0     O61563   2.154   1.646   2.768  0.9698 -0.7959  0.0941
  457MOL0     C61564   2.118   1.745   2.858  0.3305  0.1231 -0.9149
  457MOL0     C61565   2.203   1.855   2.858 -0.0565  0.0144 -1.2630
  457MOL0     C61566   2.166   1.977   2.925  0.2667 -0.2996  0.3955
  457MOL0     C61567   2.057   1.982   2.999  0.4954 -0.2732 -0.2172
  457MOL0     O61568   2.031   2.101   3.063 -0.7242  0.7550 -1.0005
  457MOL0     C61569   1.903   2.129   3.133 -0.2770  0.3255  0.0756
  457MOL0     C61570   1.906   2.257   3.209 -0.1548  0.9378 -0.1326
  457MOL0     C61571   1.839   2.254   3.341 -0.1501 -0.0395 -0.8324
  457MOL0     C61572   1.899   2.360   3.437  0.3391  0.5403  0.3687
  457MOL0     C61573   1.854   2.329   3.580 -1.1363 -0.0257 -0.8293
  457MOL0     C61574   1.707   2.370   3.606 -0.0552  0.5841 -0.4443
  457MOL0     C61575   1.664   2.509   3.555  0.7548 -0.2436 -0.2085
  457MOL0     C61576   1.574   2.585   3.659  0.4511  0.5204  0.4653
  457MOL0     N61577   1.467   2.668   3.591 -0.5903  0.0824 -0.0728
  457MOL0     C61578   1.505   2.757   3.491  0.4257 -0.1496 -0.0686
  457MOL0     C61579   1.386   2.796   3.439 -1.0082  0.3336 -0.0434
  457MOL0     C61580   1.360   2.922   3.343  0.7123  0.2306  0.2705
  457MOL0     C61581   1.251   2.902   3.238 -0.5298 -0.1612 -0.6920
  457MOL0     C61582   1.286   2.784   3.147  0.1912 -0.0208  0.3263
  457MOL0     C61583   1.186   2.767   3.030  0.2557  0.7791 -0.2762
  457MOL0     O61584   1.061   2.702   3.073 -0.1340 -0.5391  1.0711
  457MOL0     C61585   0.949   2.779   3.089 -0.3143  0.5539 -0.2342
  457MOL0     C61586   0.837   2.704   3.134 -0.6640 -0.3490  1.0532
  457MOL0     C61587   0.714   2.777   3.159 -0.0062  0.2088 -0.4071
  457MOL0     C61588   0.604   2.691   3.224 -0.7019 -0.5176 -0.2321
  457MOL0     C61589   0.698   2.915   3.132  1.7115 -0.5943  0.4686
  457MOL0     C61590   0.572   2.997   3.139  0.1854  0.0964  0.6949
  457MOL0     O61591   0.569   3.115   3.061  0.4649  0.3410 -0.1332
  457MOL0     C61592   0.469   3.199   3.076 -0.4534  0.0516  0.8086
  457MOL0     C61593   0.362   3.207   2.989  0.2925  0.4184 -0.4669
  457MOL0     C61594   0.266   3.304   2.997 -0.2268 -0.2807 -0.3621
  457MOL0     C61595   0.267   3.392   3.101  0.3119 -0.6184 -0.5062
  457MOL0     O61596   0.177   3.493   3.107  0.1660  0.3481  0.2759
  457MOL0     C61597   0.095   3.505   3.229  0.4083 -0.3459  0.9218
  457MOL0     C61598   0.089   3.648   3.285 -1.1787 -0.2507 -0.4777
  457MOL0     C61599   0.023   3.747   3.199 -0.7268 -0.7771 -0.2237
  457MOL0     C61600  -0.034   3.864   3.273  0.2928 -0.1836  0.0073
  457MOL0     C61601  -0.172   3.898   3.212  0.7170  0.0055  0.0583
  457MOL0     C61602  -0.241   4.025   3.269 -0.4226 -0.6888  0.1498
  457MOL0     C61603  -0.362   4.056   3.179  0.5233  0.1334  0.5786
  457MOL0     C61604  -0.409   4.204   3.207  0.8798  0.5511 -1.0104
  457MOL0    Cl61605  -0.306   4.313   3.119  0.0975  0.0684  0.1738
  457MOL0     C61606   0.379   3.392   3.189 -0.2242  0.1924 -0.3033
  457MOL0     C61607   0.479   3.291   3.181  1.1414  0.4237 -0.1293
  457MOL0     O61608   0.477   2.951   3.202  0.5592 -0.2329 -0.4399
  457MOL0     C61609   0.813   2.986   3.083 -0.3872  0.0058 -0.2902
  457MOL0     C61610   0.930   2.914   3.058  0.6190 -0.3008 -0.0450
  457MOL0     N61611   1.288   2.719   3.494  0.8267  0.0099  0.5403
  457MOL0     N61612   1.335   2.643   3.582 -0.4498  0.6579 -0.2897
  457MOL0     C61613   1.976   1.861   3.006  0.0826 -0.0055  0.4383
  457MOL0     C61614   1.999   1.747   2.931  0.1708  0.0723 -0.2956
  457MOL0     C61615   2.118   1.467   2.595  0.2180 -0.5345 -0.3676
  457MOL0     C61616   2.046   1.389   2.502  0.3546 -0.2164 -0.3907
  457MOL0     C61617   2.100   1.298   2.410  0.2757  0.5944 -1.2456
  457MOL0     C61618   2.232   1.278   2.411 -0.0231  0.1352 -1.1923
  457MOL0     O61619   2.300   1.187   2.332 -0.0725 -0.4731  0.0084
  457MOL0     C61620   2.241   1.156   2.203 -0.0961  0.7482  0.3600
  457MOL0     C61621   2.291   1.249   2.092 -0.1434 -0.7080 -0.5478
  457MOL0     C61622   2.426   1.309   2.115  0.6627  0.4706 -0.1129
  457MOL0     C61623   2.503   1.331   1.981 -0.2230 -0.2326  0.3630
  457MOL0     C61624   2.532   1.197   1.930 -0.0289  0.2488  0.4331
  457MOL0     C61625   2.566   1.092   1.873 -0.0598 -0.5595  0.1710
  457MOL0     C61626   2.312   1.348   2.511  0.2541  0.2629  0.6298
  457MOL0     C61627   2.255   1.441   2.597 -0.2137 -0.1018  1.1218
  457MOL0     H61628   2.305   1.855   2.821  1.1593 -0.2827  1.8104
  457MOL0     H61629   2.230   2.065   2.928 -3.1825  2.4815 -0.9130
  457MOL0     H61630   1.818   2.120   3.064  1.3225  1.4841 -2.1802
  457MOL0     H61631   1.891   2.049   3.207 -2.0351 -0.1379 -0.6581
  457MOL0     H61632   2.012   2.283   3.218  0.2990  0.4494 -3.0748
  457MOL0     H61633   1.853   2.320   3.136 -1.1239  0.3639  0.0649
  457MOL0     H61634   1.731   2.271   3.334 -1.1597 -2.4171  4.0334
  457MOL0     H61635   1.845   2.154   3.385 -1.2899  0.3675  0.3220
  457MOL0     H61636   2.007   2.348   3.438  0.4215  0.8704 -1.5206
  457MOL0     H61637   1.892   2.462   3.399  0.0596  0.3401 -0.1229
  457MOL0     H61638   1.869   2.223   3.600 -0.6473  0.4413  1.5432
  457MOL0     H61639   1.912   2.387   3.652 -1.8244 -0.9025  0.4583
  457MOL0     H61640   1.654   2.297   3.544 -0.4456  1.5501 -1.2773
  457MOL0     H61641   1.695   2.363   3.714  0.5645  2.0124 -0.2589
  457MOL0     H61642   1.753   2.572   3.540  0.2118  0.9319  1.2253
  457MOL0     H61643   1.613   2.504   3.459  0.4555 -0.2005 -0.0537
  457MOL0     H61644   1.633   2.637   3.735  1.4979 -2.5278  1.9079
  457MOL0     H61645   1.524   2.508   3.719 -0.1809 -1.0128 -1.8902
  457MOL0     H61646   1.596   2.816   3.489  0.0726  0.5043  1.4907
  457MOL0     H61647   1.331   3.006   3.408 -1.5312 -0.7759  0.6312
  457MOL0     H61648   1.452   2.947   3.289  0.2681  0.3858 -0.4093
  457MOL0     H61649   1.233   2.994   3.181 -0.0283  0.9162  0.8230
  457MOL0     H61650   1.159   2.880   3.292 -1.3162 -2.4371 -2.7693
  457MOL0     H61651   1.279   2.694   3.208  0.5976 -0.3206 -0.0685
  457MOL0     H61652   1.388   2.794   3.110  1.8355  1.4089  4.6960
  457MOL0     H61653   1.221   2.706   2.947 -1.0572  0.5298 -0.6708
  457MOL0     H61654   1.177   2.867   2.988  2.7526  2.0958  1.9795
  457MOL0     H61655   0.858   2.598   3.147  1.7688 -0.3054 -1.4327
  457MOL0     H61656   0.573   2.738   3.317  4.7258  0.6371  1.2885
  457MOL0     H61657   0.529   2.683   3.144 -0.3620 -1.1770 -0.4925
  457MOL0     H61658   0.637   2.588   3.237  0.0271 -0.6733 -2.7756
  457MOL0     H61659   0.350   3.143   2.902 -1.4226 -0.0261  0.0673
  457MOL0     H61660   0.186   3.323   2.926 -1.3019 -1.2271  0.5574
  457MOL0     H61661  -0.006   3.477   3.195  0.8022  0.9896 -1.4970
  457MOL0     H61662   0.124   3.427   3.301  1.8193 -1.6457 -0.9672
  457MOL0     H61663   0.024   3.637   3.373 -0.1505 -0.9324  0.2164
  457MOL0     H61664   0.187   3.681   3.320 -0.4031  0.6530 -3.2808
  457MOL0     H61665  -0.048   3.704   3.128  0.2906 -2.6503 -0.1647
  457MOL0     H61666   0.099   3.795   3.136 -0.9436  0.5451  0.5010
  457MOL0     H61667  -0.042   3.837   3.378  1.9467  0.8433  0.4326
  457MOL0     H61668   0.024   3.956   3.267  0.0347  0.0548  1.0061
  457MOL0     H61669  -0.249   3.821   3.226 -0.3645  1.2031  0.9725
  457MOL0     H61670  -0.165   3.913   3.104 -1.5121 -1.1057 -0.2978
  457MOL0     H61671  -0.271   3.999   3.371 -2.0044  1.5417  0.3359
  457MOL0     H61672  -0.176   4.113   3.276  1.4923 -2.0450  0.1680
  457MOL0     H61673  -0.444   3.990   3.209 -0.2251  0.1542 -1.2841
  457MOL0     H61674  -0.339   4.039   3.074 -0.1633 -0.0179  0.4448
  457MOL0     H61675  -0.435   4.212   3.313 -4.2741  0.4542 -1.9898
  457MOL0     H61676  -0.507   4.218   3.160  0.2690  0.7168  0.2841
  457MOL0     H61677   0.387   3.469   3.265 -0.8302 -0.6419  0.6339
  457MOL0     H61678   0.558   3.294   3.255  1.7267  1.0233 -0.7656
  457MOL0     H61679   0.819   3.091   3.057 -2.7452 -0.0033 -1.0978
  457MOL0     H61680   1.021   2.970   3.038  1.2344 -0.9595  0.8375
  457MOL0     H61681   1.882   1.864   3.061 -0.7694 -2.1066 -0.8097
  457MOL0     H61682   1.922   1.671   2.935 -0.4322  0.5824 -1.5221
  457MOL0     H61683   1.938   1.393   2.509  0.2887 -0.0260 -1.3977
  457MOL0     H61684   2.034   1.245   2.342  0.7935 -1.0836 -0.4704
  457MOL0     H61685   2.287   1.061   2.174 -0.0386  0.7937  0.3037
  457MOL0     H61686   2.135   1.129   2.207  0.2403 -3.2247 -5.3179
  457MOL0     H61687   2.218   1.330   2.092 -1.9570 -2.2890  0.0107
  457MOL0     H61688   2.284   1.199   1.995  1.5856 -0.2567 -0.9420
  457MOL0     H61689   2.480   1.243   2.182  3.3872  1.2479 -1.4104
  457MOL0     H61690   2.410   1.404   2.167 -1.3978  0.2830 -0.3136
  457MOL0     H61691   2.599   1.383   1.983 -0.0493 -0.5680  1.5790
  457MOL0     H61692   2.442   1.394   1.914  0.1645  0.3663  0.5649
  457MOL0     H61693   2.585   0.999   1.823 -0.8795  0.8016 -2.9475
  457MOL0     H61694   2.414   1.311   2.521  0.0295 -0.0675  1.9294
  457MOL0     H61695   2.324   1.502   2.654 -3.3704  1.4244  3.6043
  458MOL0     O61696   5.471   1.038   8.947 -0.2669 -0.3643  0.0105
  458MOL0     C61697   5.456   0.980   9.051 -0.4480  0.0053  0.0115
  458MOL0     O61698   5.353   0.990   9.138  0.1682 -0.7374 -1.1347
  458MOL0     C61699   5.269   1.094   9.115 -0.0262  0.0156 -0.5458
  458MOL0     C61700   5.132   1.059   9.115 -0.4253  0.4613 -0.3721
  458MOL0     C61701   5.039   1.153   9.084 -0.5054 -0.3355  0.1033
  458MOL0     C61702   5.078   1.296   9.081 -0.0220  0.6311 -0.6901
  458MOL0     O61703   4.975   1.390   9.077 -0.2021 -0.3379  0.2342
  458MOL0     C61704   4.980   1.501   9.165  0.0162  0.3476  0.1318
  458MOL0     C61705   4.912   1.621   9.092  0.3196  0.2774 -0.4549
  458MOL0     C61706   4.911   1.731   9.194 -1.0022 -0.0637  0.2080
  458MOL0     C61707   4.852   1.864   9.145  0.2386  0.6302 -0.0283
  458MOL0     C61708   4.699   1.853   9.121  1.2680  0.3821  0.5897
  458MOL0     C61709   4.648   1.987   9.087 -0.5047 -0.0241  0.0166
  458MOL0     C61710   4.497   1.980   9.055 -0.1312  0.2312 -0.4010
  458MOL0     C61711   4.437   2.118   9.021  0.2034 -0.3520  0.1269
  458MOL0     N61712   4.304   2.093   8.962 -0.0097  0.4726 -0.3013
  458MOL0     C61713   4.277   2.055   8.829 -0.0891  0.0112 -0.1650
  458MOL0     C61714   4.142   2.024   8.819 -0.4235  1.1619  0.5728
  458MOL0     C61715   4.049   1.983   8.706 -0.1044 -1.0399 -0.8148
  458MOL0     C61716   3.909   2.044   8.713  0.0177 -0.1798 -0.0224
  458MOL0     C61717   3.919   2.195   8.716  0.0482 -0.4346 -1.6020
  458MOL0     C61718   3.789   2.268   8.744  0.3386  0.2602 -0.2088
  458MOL0     O61719   3.732   2.222   8.867  0.3128 -0.1733  0.1757
  458MOL0     C61720   3.608   2.263   8.903  0.0895  0.9236  0.3920
  458MOL0     C61721   3.564   2.243   9.031 -0.9507 -1.0502  0.5119
  458MOL0     C61722   3.434   2.266   9.069  0.5245 -0.0242 -0.2912
  458MOL0     C61723   3.395   2.211   9.207  0.7321 -0.2180  0.2551
  458MOL0     C61724   3.341   2.317   8.967  0.0487  0.7348 -0.5265
  458MOL0     C61725   3.201   2.344   8.997  0.4717 -0.9421  0.3607
  458MOL0     O61726   3.126   2.417   8.892 -0.4284  0.4178 -0.0958
  458MOL0     C61727   2.993   2.407   8.901  0.1137 -0.2866 -0.4862
  458MOL0     C61728   2.925   2.342   8.795  0.1393  0.5541  0.2999
  458MOL0     C61729   2.787   2.350   8.796 -0.0258  0.1723 -0.9888
  458MOL0     C61730   2.714   2.410   8.889  1.4375  0.1553  0.2768
  458MOL0     O61731   2.575   2.388   8.878  0.6567  0.0087  0.4070
  458MOL0     C61732   2.522   2.346   9.001 -0.1863 -0.3306 -0.1442
  458MOL0     C61733   2.376   2.312   8.989 -0.5180 -0.3623 -0.7972
  458MOL0     C61734   2.284   2.406   8.900  0.4440 -0.1161  0.4373
  458MOL0     C61735   2.146   2.358   8.900  0.0371  0.4970  0.6779
  458MOL0     C61736   2.069   2.441   8.802 -0.5051  0.5183  0.3566
  458MOL0     C61737   1.923   2.414   8.803 -1.0676  0.6528  0.8679
  458MOL0     C61738   1.860   2.492   8.687 -0.0768 -0.6298  0.2096
  458MOL0     C61739   1.709   2.437   8.692  1.4475 -0.5333  0.6798
  458MOL0    Cl61740   1.607   2.572   8.610 -0.3103 -0.1691 -0.3184
  458MOL0     C61741   2.772   2.480   8.990 -0.5814 -0.6862 -0.0106
  458MOL0     C61742   2.916   2.473   8.995 -0.5334 -0.6778  0.3414
  458MOL0     O61743   3.143   2.297   9.099 -0.2787  0.2683  0.2223
  458MOL0     C61744   3.388   2.357   8.841 -0.0430 -0.0098  1.2107
  458MOL0     C61745   3.515   2.312   8.808  0.1864 -0.3256  0.4160
  458MOL0     N61746   4.097   2.035   8.944  0.4725 -0.0079  0.4004
  458MOL0     N61747   4.184   2.087   9.027 -0.1086  0.7220  0.2844
  458MOL0     C61748   5.212   1.328   9.089 -0.3937  0.2145  0.5966
  458MOL0     C61749   5.303   1.227   9.112 -0.3083  0.8921  0.0139
  458MOL0     C61750   5.569   0.886   9.086 -0.7006  0.2886  0.1834
  458MOL0     C61751   5.597   0.865   9.222 -0.5632  0.1727 -0.3616
  458MOL0     C61752   5.708   0.775   9.253  0.1304 -1.3380 -0.5145
  458MOL0     C61753   5.787   0.717   9.155  0.1572  0.0357  0.6252
  458MOL0     O61754   5.898   0.645   9.194  0.7963 -0.8852 -0.7002
  458MOL0     C61755   5.998   0.582   9.124  0.4508  0.2418 -0.3436
  458MOL0     C61756   6.089   0.672   9.048 -0.2223 -0.8517 -0.0254
  458MOL0     C61757   6.175   0.749   9.150  0.5359 -0.3460  0.6535
  458MOL0     C61758   6.188   0.898   9.116 -0.2123 -0.4139 -0.3349
  458MOL0     C61759   6.207   0.923   8.971  0.4817  0.8264  0.3208
  458MOL0     C61760   6.212   0.932   8.853 -0.3948 -0.3217 -0.1487
  458MOL0     C61761   5.748   0.728   9.021 -0.3539  0.4773  0.2787
  458MOL0     C61762   5.642   0.812   8.992  0.4937 -0.0391  0.4034
  458MOL0     H61763   5.104   0.964   9.159 -0.4545  0.2218 -0.8915
  458MOL0     H61764   4.935   1.124   9.073 -1.1340  1.7227  0.3123
  458MOL0     H61765   4.914   1.493   9.252 -1.0934  0.7156 -0.6403
  458MOL0     H61766   5.082   1.523   9.198 -0.2529 -0.0823  1.2985
  458MOL0     H61767   4.974   1.655   9.009  1.3908 -2.7571 -1.0095
  458MOL0     H61768   4.811   1.596   9.059 -0.8162 -2.7322  4.3264
  458MOL0     H61769   4.863   1.705   9.288 -1.1840 -1.0293 -0.1396
  458MOL0     H61770   5.015   1.753   9.218 -0.4189 -1.2487 -1.1142
  458MOL0     H61771   4.867   1.949   9.211 -0.9408  1.4384 -0.7670
  458MOL0     H61772   4.901   1.889   9.050  1.8497 -0.6332  0.4161
  458MOL0     H61773   4.664   1.782   9.046  2.1464  0.0401  0.4891
  458MOL0     H61774   4.652   1.812   9.211  0.6275 -1.5660 -0.5756
  458MOL0     H61775   4.675   2.043   9.177 -0.2324  0.0237 -0.0924
  458MOL0     H61776   4.703   2.021   8.999 -1.0646 -2.9031 -1.5621
  458MOL0     H61777   4.485   1.903   8.978 -0.3547 -1.4204  1.1926
  458MOL0     H61778   4.456   1.939   9.148  2.5459 -1.3204  0.2146
  458MOL0     H61779   4.489   2.178   8.945 -0.9801  2.9860  1.7406
  458MOL0     H61780   4.431   2.189   9.104 -2.2284  0.6183 -0.7969
  458MOL0     H61781   4.348   2.043   8.747 -1.8065  1.2457 -1.9271
  458MOL0     H61782   4.086   2.023   8.611  1.5920  0.3128  0.3461
  458MOL0     H61783   4.045   1.874   8.693  4.7758 -1.1737 -3.4729
  458MOL0     H61784   3.864   1.998   8.801  2.1189 -0.4362  0.9595
  458MOL0     H61785   3.842   2.020   8.629  0.5699  1.7175 -1.0462
  458MOL0     H61786   3.948   2.234   8.619  2.6899  1.4169 -0.1806
  458MOL0     H61787   3.988   2.217   8.798 -2.9158  0.9688  0.7377
  458MOL0     H61788   3.721   2.243   8.662 -0.1369 -1.8223  0.7431
  458MOL0     H61789   3.794   2.377   8.750  1.6705  0.1252  2.4928
  458MOL0     H61790   3.635   2.206   9.103  1.6300 -2.1434 -2.3986
  458MOL0     H61791   3.312   2.259   9.259  2.0043  1.2776  0.9793
  458MOL0     H61792   3.382   2.102   9.208 -0.4437 -0.0882  1.7447
  458MOL0     H61793   3.475   2.228   9.279  1.1877  0.2400 -0.3513
  458MOL0     H61794   2.989   2.294   8.721 -3.2811 -1.3075 -1.6840
  458MOL0     H61795   2.738   2.306   8.709  1.1326 -0.0063 -1.5825
  458MOL0     H61796   2.579   2.262   9.043 -0.5672 -0.2694  0.5110
  458MOL0     H61797   2.527   2.417   9.085  1.2162 -0.9990  0.3823
  458MOL0     H61798   2.372   2.209   8.952 -0.5502 -0.6971  0.1112
  458MOL0     H61799   2.342   2.333   9.091 -3.3823  3.4968 -2.2705
  458MOL0     H61800   2.310   2.400   8.793 -1.0571  2.4938 -0.1793
  458MOL0     H61801   2.285   2.509   8.938  0.1075  0.8647 -2.0174
  458MOL0     H61802   2.146   2.256   8.860 -3.7465 -0.2986  2.2387
  458MOL0     H61803   2.098   2.353   8.998  0.7976  1.9696  1.1450
  458MOL0     H61804   2.114   2.426   8.703  0.8211 -1.6567  1.2191
  458MOL0     H61805   2.073   2.545   8.836 -1.6963  0.4483  0.7498
  458MOL0     H61806   1.906   2.307   8.786 -0.3421  0.7133 -0.4029
  458MOL0     H61807   1.881   2.445   8.899 -0.9258 -0.3508  1.2628
  458MOL0     H61808   1.908   2.465   8.592 -4.0894 -0.3115 -2.1397
  458MOL0     H61809   1.856   2.600   8.703  0.1012 -0.3119 -1.6809
  458MOL0     H61810   1.670   2.411   8.790 -0.6962  1.4615  0.4310
  458MOL0     H61811   1.702   2.347   8.629 -0.3788 -2.4331  3.3652
  458MOL0     H61812   2.707   2.533   9.059 -2.7483 -1.2516 -1.5002
  458MOL0     H61813   2.978   2.514   9.074 -1.0921 -0.8384  0.8669
  458MOL0     H61814   3.322   2.408   8.771  1.5567  0.5233  0.0332
  458MOL0     H61815   3.540   2.335   8.705  0.3715  0.8068  0.6978
  458MOL0     H61816   5.242   1.432   9.090 -0.4831  0.2559  2.7296
  458MOL0     H61817   5.407   1.252   9.124  0.0117 -0.8084  1.0644
  458MOL0     H61818   5.546   0.919   9.301  0.3178  1.0201 -0.3410
  458MOL0     H61819   5.736   0.787   9.357 -1.5317  1.6246 -0.2967
  458MOL0     H61820   6.056   0.520   9.193 -2.1784  0.1227  1.9447
  458MOL0     H61821   5.953   0.512   9.052  1.7606 -0.9063 -0.0851
  458MOL0     H61822   6.033   0.738   8.983  1.5034 -0.0854 -0.8074
  458MOL0     H61823   6.142   0.606   8.978 -2.2794 -2.6455  0.0318
  458MOL0     H61824   6.275   0.706   9.152  1.0778  0.2005 -3.6015
  458MOL0     H61825   6.131   0.728   9.248 -2.5305 -1.9534 -0.9184
  458MOL0     H61826   6.273   0.932   9.175 -0.7047  0.4490 -0.1127
  458MOL0     H61827   6.104   0.954   9.159  0.1670 -0.7351  0.8770
  458MOL0     H61828   6.227   0.944   8.747  0.4655  1.1960  0.1134
  458MOL0     H61829   5.795   0.680   8.936  3.6646  0.5093  2.2611
  458MOL0     H61830   5.618   0.816   8.886 -1.2942 -1.4936  0.7155
  459MOL0     O61831   6.008   6.672   4.238  0.0601  0.0324  0.3553
  459MOL0     C61832   6.046   6.720   4.131 -0.9810 -0.9416  0.4949
  459MOL0     O61833   5.966   6.756   4.028 -0.2786 -0.6785 -0.2702
  459MOL0     C61834   5.830   6.730   4.032  0.7011 -0.0769  0.2458
  459MOL0     C61835   5.751   6.825   4.099  0.8543 -0.2232  0.4639
  459MOL0     C61836   5.613   6.802   4.093  0.2133 -0.0027  1.3140
  459MOL0     C61837   5.553   6.702   4.027  0.5910  0.5021 -0.2097
  459MOL0     O61838   5.414   6.702   4.039 -0.0528 -0.4617 -0.2179
  459MOL0     C61839   5.343   6.607   3.969  0.4940 -1.4110  0.2321
  459MOL0     C61840   5.213   6.603   4.038  0.3933  1.0130 -0.2118
  459MOL0     C61841   5.119   6.510   3.980 -0.0306 -0.5099  0.4689
  459MOL0     C61842   4.985   6.525   4.048  0.3779  0.2983  0.0032
  459MOL0     C61843   4.878   6.428   3.993  0.4881  0.6064 -0.1406
  459MOL0     C61844   4.908   6.275   3.985  0.6882  0.7764  0.3588
  459MOL0     C61845   4.796   6.201   3.894  0.1892 -1.1486 -0.6600
  459MOL0     C61846   4.799   6.049   3.896  0.2366 -0.1218  0.5023
  459MOL0     N61847   4.698   5.989   3.811  0.0722 -0.1911 -0.3915
  459MOL0     C61848   4.566   5.982   3.837 -0.4286 -0.1910 -0.4709
  459MOL0     C61849   4.520   5.885   3.763 -0.7155  0.9451 -0.4049
  459MOL0     C61850   4.373   5.832   3.754  1.0260 -0.7305 -0.2198
  459MOL0     C61851   4.327   5.722   3.856  0.0026 -0.8136 -0.1263
  459MOL0     C61852   4.186   5.728   3.884  0.6331  0.7642 -1.2390
  459MOL0     C61853   4.130   5.628   3.990  0.3852 -0.0229 -0.5852
  459MOL0     O61854   4.000   5.670   4.039 -0.3196 -0.2041  0.6008
  459MOL0     C61855   3.889   5.652   3.958  0.7639  0.8376 -0.0782
  459MOL0     C61856   3.781   5.714   4.017  0.2869 -0.4721  0.9292
  459MOL0     C61857   3.659   5.735   3.948  0.1343 -0.0751  0.0535
  459MOL0     C61858   3.548   5.823   4.013  0.0652 -0.5691  0.3071
  459MOL0     C61859   3.639   5.659   3.828  0.1053  0.1548 -0.4445
  459MOL0     C61860   3.501   5.633   3.774 -0.0948 -0.2938  0.1576
  459MOL0     O61861   3.394   5.672   3.851 -0.1924  0.9946  0.3854
  459MOL0     C61862   3.270   5.654   3.799  0.8261  0.7853  0.6864
  459MOL0     C61863   3.212   5.716   3.689 -0.8396  0.1096 -0.3373
  459MOL0     C61864   3.080   5.680   3.652  0.4286  0.2402  0.0713
  459MOL0     C61865   3.002   5.587   3.712  1.2735  0.1064 -0.2859
  459MOL0     O61866   2.874   5.557   3.680 -0.3547  0.4824  0.2739
  459MOL0     C61867   2.891   5.491   3.554  0.3178  0.2193  0.0590
  459MOL0     C61868   2.758   5.486   3.481 -0.0359 -0.4010 -0.6792
  459MOL0     C61869   2.761   5.401   3.359  0.6967 -0.4916 -0.0262
  459MOL0     C61870   2.623   5.381   3.286 -0.7266 -0.0068 -0.1319
  459MOL0     C61871   2.530   5.288   3.359  0.5872  0.6339 -0.3697
  459MOL0     C61872   2.385   5.329   3.318  1.0011 -1.1179  0.4303
  459MOL0     C61873   2.274   5.261   3.401  0.5550  0.0615 -1.0535
  459MOL0     C61874   2.155   5.358   3.453  0.0855 -0.5770 -0.1364
  459MOL0    Cl61875   2.224   5.496   3.556 -0.1247  0.2180  0.3280
  459MOL0     C61876   3.057   5.531   3.828 -0.0340 -0.0344 -0.0349
  459MOL0     C61877   3.183   5.566   3.866 -0.0970 -0.6483  0.2148
  459MOL0     O61878   3.502   5.570   3.664  0.2186 -0.4543  0.6855
  459MOL0     C61879   3.753   5.597   3.776  0.4149  0.5906  1.2978
  459MOL0     C61880   3.879   5.598   3.832 -0.1829  0.6933  0.1781
  459MOL0     N61881   4.624   5.822   3.695 -0.6451 -0.5107  0.6779
  459MOL0     N61882   4.729   5.892   3.724  0.1578  0.2049 -0.0264
  459MOL0     C61883   5.633   6.610   3.960 -0.2524  0.4381 -0.5370
  459MOL0     C61884   5.777   6.619   3.969  0.6235 -0.6006  0.4420
  459MOL0     C61885   6.194   6.746   4.109 -0.6605  0.8537  0.0523
  459MOL0     C61886   6.230   6.843   4.014  0.8004 -0.6356  0.0818
  459MOL0     C61887   6.364   6.866   3.997 -0.0290 -0.3098 -0.1284
  459MOL0     C61888   6.463   6.811   4.075 -1.1258  0.3280 -1.0630
  459MOL0     O61889   6.602   6.838   4.050  0.2662  0.1743 -0.0447
  459MOL0     C61890   6.640   6.963   4.005 -0.0604  0.1821 -0.1490
  459MOL0     C61891   6.797   6.969   3.993 -0.3020 -0.4920  0.8301
  459MOL0     C61892   6.838   7.100   3.925 -1.1507 -0.1486 -1.3940
  459MOL0     C61893   6.965   7.079   3.852  0.1640 -0.7043 -0.4833
  459MOL0     C61894   7.009   7.195   3.779  0.7308 -0.1935 -0.5385
  459MOL0     C61895   7.027   7.304   3.733  0.5895 -0.2946 -0.2767
  459MOL0     C61896   6.426   6.727   4.180  0.2258 -0.4726  0.5133
  459MOL0     C61897   6.287   6.690   4.189 -0.6943  0.0357 -0.6067
  459MOL0     H61898   5.802   6.907   4.149  0.9552 -0.3648  0.5940
  459MOL0     H61899   5.551   6.867   4.153  2.3153  0.6150  2.9517
  459MOL0     H61900   5.336   6.640   3.865  0.7593 -0.3635  0.5379
  459MOL0     H61901   5.387   6.508   3.984 -1.3509 -2.0185  2.2178
  459MOL0     H61902   5.217   6.570   4.142  1.1881  0.2799 -0.4707
  459MOL0     H61903   5.168   6.703   4.041 -1.6736  0.1488 -0.5268
  459MOL0     H61904   5.101   6.534   3.874 -2.0513  0.5982  0.9969
  459MOL0     H61905   5.160   6.409   3.986  1.4393 -0.2414 -2.9311
  459MOL0     H61906   4.992   6.502   4.155  1.3222  0.5674  0.0033
  459MOL0     H61907   4.952   6.628   4.034 -1.2271 -0.4256 -1.9972
  459MOL0     H61908   4.777   6.446   4.032  1.1527 -1.7974  3.1902
  459MOL0     H61909   4.868   6.465   3.891 -2.1856 -0.9773 -0.5509
  459MOL0     H61910   5.012   6.254   3.959  0.3223 -2.7441  1.2164
  459MOL0     H61911   4.889   6.245   4.089  0.3894  0.0184  0.0905
  459MOL0     H61912   4.700   6.236   3.931  1.8103  2.7736  0.3456
  459MOL0     H61913   4.820   6.246   3.798 -1.7447  3.6826  0.8120
  459MOL0     H61914   4.803   6.006   3.997 -0.5731 -2.1047 -0.2649
  459MOL0     H61915   4.897   6.020   3.856 -0.4481 -1.2471 -0.4181
  459MOL0     H61916   4.522   6.036   3.920  0.4937  2.0731 -1.3515
  459MOL0     H61917   4.318   5.924   3.772  0.0098 -1.4960  0.7431
  459MOL0     H61918   4.341   5.806   3.653 -0.5103  1.7835 -0.4450
  459MOL0     H61919   4.386   5.731   3.947  0.4156  1.2706 -0.5480
  459MOL0     H61920   4.353   5.623   3.816  1.6002 -0.9092  1.0785
  459MOL0     H61921   4.129   5.705   3.794  2.5328 -3.4146 -1.6146
  459MOL0     H61922   4.170   5.825   3.931  1.0580 -0.5640  1.9321
  459MOL0     H61923   4.189   5.605   4.079 -0.7953 -1.4141 -0.1337
  459MOL0     H61924   4.111   5.535   3.935  2.9401  0.5232 -2.6025
  459MOL0     H61925   3.802   5.752   4.116  0.3484 -0.5076  0.9295
  459MOL0     H61926   3.466   5.766   4.058 -1.2537  0.5012 -0.6529
  459MOL0     H61927   3.586   5.896   4.086 -2.1882  0.6007  0.3956
  459MOL0     H61928   3.504   5.884   3.933  1.1067  1.4690  1.1954
  459MOL0     H61929   3.274   5.781   3.628 -2.3677 -1.0233 -3.2981
  459MOL0     H61930   3.041   5.721   3.560  1.2700 -1.7619 -1.2599
  459MOL0     H61931   2.954   5.550   3.487  0.3361 -0.0148 -0.1301
  459MOL0     H61932   2.936   5.392   3.557 -1.0561 -0.6305 -2.8927
  459MOL0     H61933   2.679   5.454   3.551  0.3212  0.3618  0.0896
  459MOL0     H61934   2.741   5.593   3.467  1.8967  0.1811  0.8957
  459MOL0     H61935   2.807   5.302   3.370 -1.5710 -1.3011  4.5688
  459MOL0     H61936   2.822   5.456   3.287 -0.4162  0.8576  0.0204
  459MOL0     H61937   2.582   5.482   3.280 -1.2474 -0.1499  0.8058
  459MOL0     H61938   2.651   5.345   3.186 -0.3459  0.5736 -0.2389
  459MOL0     H61939   2.547   5.310   3.465  5.3266  3.4856 -1.4443
  459MOL0     H61940   2.549   5.182   3.341  1.8955  0.9555 -0.9429
  459MOL0     H61941   2.382   5.439   3.320  2.9383 -1.0445  0.5854
  459MOL0     H61942   2.366   5.302   3.214  3.0779  0.4747 -0.4420
  459MOL0     H61943   2.320   5.215   3.489 -3.8803  2.0534  2.6910
  459MOL0     H61944   2.232   5.184   3.336  3.3899 -2.6267  0.0374
  459MOL0     H61945   2.089   5.295   3.513  0.5164 -1.1858 -0.2919
  459MOL0     H61946   2.097   5.401   3.372  1.8206 -1.1665 -1.7783
  459MOL0     H61947   3.003   5.465   3.895  2.7718 -0.3539  2.0930
  459MOL0     H61948   3.218   5.528   3.961 -0.8140  1.3001  1.3215
  459MOL0     H61949   3.746   5.546   3.681  0.7100 -0.4000  1.7987
  459MOL0     H61950   3.961   5.545   3.784 -1.8565 -1.7262 -0.2278
  459MOL0     H61951   5.592   6.524   3.908 -5.6293 -0.0706  3.6705
  459MOL0     H61952   5.843   6.549   3.918  1.3863  0.7195 -0.4278
  459MOL0     H61953   6.152   6.891   3.955  1.0524 -1.7724 -1.2436
  459MOL0     H61954   6.384   6.938   3.918  0.4501 -1.3420 -0.9591
  459MOL0     H61955   6.597   6.973   3.904 -2.4155 -2.2359  0.4962
  459MOL0     H61956   6.597   7.046   4.062 -0.5813 -0.0543 -0.1926
  459MOL0     H61957   6.841   6.891   3.931 -1.0708 -1.3154  1.2910
  459MOL0     H61958   6.843   6.970   4.093  3.3465 -5.1704 -0.4665
  459MOL0     H61959   6.851   7.170   4.008 -0.6602 -0.9976 -0.7235
  459MOL0     H61960   6.759   7.137   3.860 -0.7051  3.0471 -0.3024
  459MOL0     H61961   6.949   6.999   3.779 -0.4945 -0.7036 -0.3448
  459MOL0     H61962   7.052   7.053   3.913 -1.3860 -0.0302  2.1590
  459MOL0     H61963   7.041   7.398   3.685 -0.6802 -1.0379 -2.2134
  459MOL0     H61964   6.510   6.672   4.222 -0.6334  0.1476  3.2782
  459MOL0     H61965   6.268   6.628   4.276 -1.8784 -2.8673 -2.7640
  460MOL0     O61966   7.766   7.377   0.168 -0.4956 -0.3507  0.1049
  460MOL0     C61967   7.686   7.382   0.074  0.7259  0.2261 -0.2193
  460MOL0     O61968   7.585   7.299   0.061 -0.2146 -0.1038  0.0129
  460MOL0     C61969   7.552   7.228   0.167 -0.1966 -0.2185 -0.4486
  460MOL0     C61970   7.423   7.249   0.222 -0.4157  0.5983  0.2713
  460MOL0     C61971   7.384   7.177   0.334 -0.5058 -0.1159  0.1611
  460MOL0     C61972   7.475   7.089   0.400 -0.3468 -0.2421 -0.1351
  460MOL0     O61973   7.457   7.003   0.500  0.1275  0.0797 -0.0981
  460MOL0     C61974   7.342   7.015   0.586  0.2265  0.3611 -0.5042
  460MOL0     C61975   7.339   6.897   0.687 -0.0751  0.4270  0.8753
  460MOL0     C61976   7.198   6.858   0.738  0.4717 -0.4008  0.3139
  460MOL0     C61977   7.190   6.728   0.803 -0.1895 -0.7718 -0.0540
  460MOL0     C61978   7.055   6.684   0.856 -0.3620 -1.0500 -1.0631
  460MOL0     C61979   7.035   6.530   0.850  0.0025 -0.7171  0.0960
  460MOL0     C61980   6.901   6.466   0.900 -0.9797 -0.2898  0.4066
  460MOL0     C61981   6.846   6.512   1.039 -0.1970 -0.0248  0.6426
  460MOL0     N61982   6.822   6.652   1.046  0.0061  0.8080 -0.0475
  460MOL0     C61983   6.836   6.730   1.161 -0.0681  0.5792  0.8292
  460MOL0     C61984   6.758   6.837   1.147 -0.1044 -0.2541  1.0765
  460MOL0     C61985   6.757   6.949   1.247  0.3925  0.0508 -0.6298
  460MOL0     C61986   6.754   7.086   1.172 -0.1776  0.8259 -0.6861
  460MOL0     C61987   6.896   7.113   1.135 -0.2755 -0.9661 -0.2011
  460MOL0     C61988   6.923   7.251   1.067  0.2107 -0.0829 -0.9788
  460MOL0     O61989   7.057   7.308   1.097  0.3298 -0.1582  0.1147
  460MOL0     C61990   7.063   7.447   1.087  0.6856  0.4139 -0.7124
  460MOL0     C61991   6.955   7.526   1.053  0.9443 -1.3343  0.0822
  460MOL0     C61992   6.960   7.669   1.067 -0.0409  0.0758 -0.0919
  460MOL0     C61993   6.830   7.736   1.054 -0.0731 -0.7998  0.3636
  460MOL0     C61994   7.083   7.746   1.088  0.2559 -0.0146 -0.1470
  460MOL0     C61995   7.108   7.892   1.101  0.3555  0.4108 -0.1720
  460MOL0     O61996   7.009   7.983   1.081  0.1376 -0.0257  0.2162
  460MOL0     C61997   7.024   8.114   1.052  0.0703  0.1966  0.5627
  460MOL0     C61998   6.908   8.187   1.064  1.4657  0.4334  0.2079
  460MOL0     C61999   6.917   8.329   1.060 -0.5577  0.1579 -0.5845
  460MOL0     C62000   7.039   8.396   1.034  0.0964 -0.4815 -0.5388
  460MOL0     O62001   7.040   8.537   1.031  0.5268  0.3544  0.3063
  460MOL0     C62002   7.128   8.603   0.941  0.4498  1.1106  0.3947
  460MOL0     C62003   7.162   8.740   0.988 -0.4373  0.1554  0.6301
  460MOL0     C62004   7.266   8.742   1.098 -0.4270 -0.1811 -0.2370
  460MOL0     C62005   7.367   8.854   1.080 -0.0493 -0.4763 -1.0579
  460MOL0     C62006   7.474   8.842   1.190  0.2605  0.3311 -0.8936
  460MOL0     C62007   7.592   8.750   1.143  0.5615  0.8641  0.4086
  460MOL0     C62008   7.674   8.695   1.260 -0.7426  0.2786  0.0444
  460MOL0     C62009   7.759   8.573   1.227 -0.6432  0.1598  0.4888
  460MOL0    Cl62010   7.853   8.604   1.074 -0.2219  0.3395 -0.9323
  460MOL0     C62011   7.147   8.319   1.013 -0.4186  0.7268  0.7287
  460MOL0     C62012   7.148   8.179   1.027  0.0709  0.4531 -0.4328
  460MOL0     O62013   7.226   7.914   1.112 -0.2231 -0.5266 -0.3071
  460MOL0     C62014   7.190   7.654   1.111 -0.7737 -0.0805  0.2997
  460MOL0     C62015   7.182   7.510   1.106  0.7213  0.5786  0.6184
  460MOL0     N62016   6.691   6.820   1.024 -0.0298  0.0393  0.3752
  460MOL0     N62017   6.729   6.712   0.966  0.1950 -0.1922  0.9554
  460MOL0     C62018   7.606   7.079   0.356 -0.3855 -0.0139 -0.2545
  460MOL0     C62019   7.637   7.138   0.231  0.2241  0.3477  0.9442
  460MOL0     C62020   7.709   7.497  -0.024 -0.4542  0.3605  0.3460
  460MOL0     C62021   7.644   7.509  -0.147  0.5501  0.3798 -0.0744
  460MOL0     C62022   7.678   7.615  -0.234 -0.3116  0.5893  0.8963
  460MOL0     C62023   7.780   7.703  -0.208 -0.1748  0.8209  0.7677
  460MOL0     O62024   7.809   7.794  -0.304  0.4957  1.0282  0.0550
  460MOL0     C62025   7.944   7.822  -0.330  0.0634 -0.0334 -1.5481
  460MOL0     C62026   7.943   7.884  -0.468 -0.6027 -0.9822 -0.3225
  460MOL0     C62027   7.879   7.806  -0.588 -0.0346 -0.2705  0.6951
  460MOL0     C62028   7.973   7.693  -0.644 -0.3664  1.3450  0.3048
  460MOL0     C62029   8.111   7.725  -0.669  0.6950 -0.1478 -0.4412
  460MOL0     C62030   8.223   7.756  -0.682 -0.1292 -0.9133 -0.1325
  460MOL0     C62031   7.853   7.685  -0.093  0.2568 -1.1456 -0.0471
  460MOL0     C62032   7.814   7.594   0.001 -0.3856  0.1956  0.1757
  460MOL0     H62033   7.350   7.322   0.188 -0.0234  0.9429  0.1631
  460MOL0     H62034   7.284   7.190   0.375 -0.4870  0.6226 -0.0059
  460MOL0     H62035   7.360   7.097   0.656 -1.6634 -2.6860  3.9936
  460MOL0     H62036   7.247   7.018   0.533 -0.6418 -1.7744  0.8066
  460MOL0     H62037   7.369   6.806   0.633 -3.4521 -0.2654 -0.0635
  460MOL0     H62038   7.402   6.913   0.775  2.6134 -1.1578 -0.6026
  460MOL0     H62039   7.165   6.939   0.803  0.8567 -0.7785  0.9931
  460MOL0     H62040   7.128   6.846   0.655 -1.5864 -0.6278  2.0065
  460MOL0     H62041   7.222   6.655   0.727 -1.6322 -1.1842 -0.3023
  460MOL0     H62042   7.266   6.726   0.881 -0.1389 -0.8862 -0.1055
  460MOL0     H62043   7.063   6.708   0.963  3.1061 -2.4681 -0.8605
  460MOL0     H62044   6.980   6.745   0.805  0.9421  1.5009 -0.1124
  460MOL0     H62045   7.036   6.507   0.743  0.9015 -0.0742 -0.0428
  460MOL0     H62046   7.120   6.491   0.906  1.6693  1.3224 -0.8492
  460MOL0     H62047   6.829   6.504   0.827 -2.8200  1.0816  2.7939
  460MOL0     H62048   6.911   6.357   0.893 -1.3409 -0.3958  1.3990
  460MOL0     H62049   6.918   6.483   1.116  0.1371 -1.8895 -0.3153
  460MOL0     H62050   6.756   6.452   1.056 -0.5082  0.6563  1.4535
  460MOL0     H62051   6.896   6.706   1.249  1.2149  0.2952 -0.0973
  460MOL0     H62052   6.656   6.948   1.289  1.1842  0.2746  1.3443
  460MOL0     H62053   6.831   6.946   1.326  0.3177  2.3367 -0.4097
  460MOL0     H62054   6.717   7.167   1.236  1.3764  0.4504  0.7707
  460MOL0     H62055   6.699   7.082   1.078  2.5686 -2.8662 -2.4072
  460MOL0     H62056   6.942   7.035   1.075 -1.1893  0.0187 -2.2638
  460MOL0     H62057   6.929   7.120   1.240 -5.2401 -0.8930  1.6316
  460MOL0     H62058   6.847   7.310   1.118  1.1056  0.5640 -0.3683
  460MOL0     H62059   6.909   7.253   0.959 -0.8606 -0.3797 -0.8559
  460MOL0     H62060   6.875   7.486   0.992  1.5882 -0.1718 -1.6212
  460MOL0     H62061   6.853   7.824   0.993  2.1801 -1.1896  0.5411
  460MOL0     H62062   6.753   7.683   0.999 -0.1394  1.1147 -1.5320
  460MOL0     H62063   6.790   7.757   1.154 -0.0126  2.4611 -0.1740
  460MOL0     H62064   6.815   8.135   1.086  1.4685 -0.1166 -0.9947
  460MOL0     H62065   6.823   8.382   1.073 -1.6329 -1.9563  0.8335
  460MOL0     H62066   7.217   8.539   0.949 -0.6093 -0.3496  1.0884
  460MOL0     H62067   7.094   8.614   0.838  3.1663  0.2687 -0.6838
  460MOL0     H62068   7.195   8.788   0.895 -4.2193  1.9081 -0.0164
  460MOL0     H62069   7.073   8.796   1.020  1.4801  1.4482  4.1375
  460MOL0     H62070   7.320   8.647   1.109 -1.4528 -0.7539 -0.0651
  460MOL0     H62071   7.228   8.752   1.200  0.5673 -2.4720  0.4192
  460MOL0     H62072   7.412   8.845   0.980  0.1998  0.1680 -1.0095
  460MOL0     H62073   7.326   8.954   1.094 -1.0552 -0.8560 -1.2144
  460MOL0     H62074   7.436   8.805   1.286 -0.1082 -1.6199 -1.7319
  460MOL0     H62075   7.523   8.938   1.208  2.2311 -0.3231 -2.4424
  460MOL0     H62076   7.561   8.662   1.085  0.0266 -0.8905  3.1909
  460MOL0     H62077   7.655   8.815   1.081  0.9920  2.8966  2.8399
  460MOL0     H62078   7.615   8.677   1.351  0.0504 -1.1421  0.3176
  460MOL0     H62079   7.737   8.778   1.295 -0.1262  0.0604 -0.5181
  460MOL0     H62080   7.700   8.484   1.205 -1.8511  1.4019 -1.6899
  460MOL0     H62081   7.834   8.554   1.304 -0.8760 -2.5424  0.1526
  460MOL0     H62082   7.245   8.357   0.984 -0.6355  1.1411  0.5362
  460MOL0     H62083   7.243   8.126   1.026  0.6813  1.5117 -1.5043
  460MOL0     H62084   7.288   7.688   1.142 -0.5634 -0.5743  0.1842
  460MOL0     H62085   7.274   7.458   1.132  0.1440 -0.7235  0.1343
  460MOL0     H62086   7.675   7.013   0.407 -0.6004 -0.1152 -0.0940
  460MOL0     H62087   7.734   7.119   0.185 -0.6063  0.1118 -0.7921
  460MOL0     H62088   7.570   7.436  -0.177 -2.5720  3.3041 -0.1410
  460MOL0     H62089   7.643   7.624  -0.337  1.5246 -0.8485  0.0890
  460MOL0     H62090   7.992   7.892  -0.261 -0.8287  1.7338 -2.6393
  460MOL0     H62091   8.002   7.729  -0.333 -0.3747 -0.5008  1.3793
  460MOL0     H62092   8.046   7.914  -0.490 -0.8213  2.2074  2.1715
  460MOL0     H62093   7.895   7.982  -0.458  1.2893 -0.1548  1.4703
  460MOL0     H62094   7.873   7.872  -0.674 -1.0799  1.6030  2.1396
  460MOL0     H62095   7.778   7.770  -0.564  0.3608 -2.3598 -0.4618
  460MOL0     H62096   7.931   7.648  -0.734  0.4351  2.8195 -0.8372
  460MOL0     H62097   7.961   7.622  -0.561 -1.0502  1.1363  0.0343
  460MOL0     H62098   8.328   7.770  -0.694 -0.3555  2.0587  0.5695
  460MOL0     H62099   7.937   7.751  -0.074  0.4149 -0.7358 -1.9769
  460MOL0     H62100   7.868   7.593   0.095  0.0609 -2.6776 -0.0253
  461MOL0     O62101   4.515   0.358   3.413 -0.1855  0.1634 -0.8112
  461MOL0     C62102   4.482   0.386   3.297  0.0970  0.3885 -0.1617
  461MOL0     O62103   4.570   0.411   3.197 -0.0882  0.4464  0.3934
  461MOL0     C62104   4.703   0.399   3.218 -0.5893 -1.1520 -0.6887
  461MOL0     C62105   4.766   0.287   3.268  0.2514  0.9434 -0.9162
  461MOL0     C62106   4.906   0.298   3.285  0.2299 -0.5247  0.7316
  461MOL0     C62107   4.973   0.407   3.242 -0.2358 -0.4872 -0.2526
  461MOL0     O62108   5.107   0.415   3.234 -0.6504 -0.4674 -0.8459
  461MOL0     C62109   5.195   0.300   3.253 -0.3006 -0.5102 -0.0781
  461MOL0     C62110   5.332   0.353   3.272  0.2117 -0.5309  0.3022
  461MOL0     C62111   5.441   0.240   3.260  0.1694  0.6229  0.8586
  461MOL0     C62112   5.581   0.287   3.305  0.6201 -0.5225  0.8284
  461MOL0     C62113   5.653   0.372   3.197  0.5451 -0.1359 -0.2133
  461MOL0     C62114   5.799   0.419   3.221 -0.3850 -0.5082  0.2580
  461MOL0     C62115   5.874   0.466   3.101 -0.0706 -0.3184 -0.7950
  461MOL0     C62116   5.889   0.373   2.978 -0.6677  0.4448 -0.5987
  461MOL0     N62117   5.948   0.459   2.872  0.8778  0.3149  0.5456
  461MOL0     C62118   6.072   0.514   2.875  0.7470 -1.2057 -0.1583
  461MOL0     C62119   6.071   0.614   2.786  0.1859 -0.3881 -1.0922
  461MOL0     C62120   6.201   0.685   2.749 -0.5875 -0.7482  0.4342
  461MOL0     C62121   6.297   0.610   2.648  0.6493  0.0908  0.1780
  461MOL0     C62122   6.444   0.638   2.673  0.0328  0.3100  0.7373
  461MOL0     C62123   6.478   0.786   2.645  0.9644  0.3622 -0.9873
  461MOL0     O62124   6.619   0.807   2.617 -0.0265  0.3953  0.2280
  461MOL0     C62125   6.707   0.821   2.717  0.5390 -0.4947 -0.1247
  461MOL0     C62126   6.833   0.855   2.677 -0.5761  0.3937  0.4272
  461MOL0     C62127   6.939   0.885   2.769  0.7339 -0.6041  2.1108
  461MOL0     C62128   7.082   0.913   2.708 -0.2876  0.5887 -0.6426
  461MOL0     C62129   6.907   0.892   2.906 -0.4762  0.6443 -0.7233
  461MOL0     C62130   7.003   0.934   3.014  0.9921 -0.4906 -0.5071
  461MOL0     O62131   6.950   0.924   3.145  0.1254 -0.7183 -0.4471
  461MOL0     C62132   7.036   0.913   3.253 -0.2278  0.2154 -0.8364
  461MOL0     C62133   7.150   0.828   3.248  0.2306  0.3619 -0.1932
  461MOL0     C62134   7.237   0.800   3.353 -0.0954  0.5353 -0.2883
  461MOL0     C62135   7.205   0.862   3.471 -0.4528 -0.3866  0.1874
  461MOL0     O62136   7.281   0.825   3.575 -0.2988 -1.0640  0.4021
  461MOL0     C62137   7.330   0.948   3.647  0.2507  0.3250  0.0908
  461MOL0     C62138   7.449   0.915   3.742 -0.1616  0.7099  0.8443
  461MOL0     C62139   7.571   0.857   3.665  0.7710 -0.1647 -0.1176
  461MOL0     C62140   7.682   0.848   3.765  0.8983  0.3003 -0.3400
  461MOL0     C62141   7.814   0.886   3.702 -0.5033 -0.1910 -0.2817
  461MOL0     C62142   7.934   0.874   3.809 -0.5100  0.5190  0.3935
  461MOL0     C62143   7.931   0.980   3.916 -0.5604  0.5258 -0.1731
  461MOL0     C62144   8.018   0.940   4.039  0.3272  0.0486  0.1943
  461MOL0    Cl62145   8.190   0.906   3.998 -0.6723  0.3568 -0.1783
  461MOL0     C62146   7.097   0.952   3.480  0.2453  0.3496 -0.1557
  461MOL0     C62147   7.008   0.970   3.371 -0.7688  0.4720  0.6229
  461MOL0     O62148   7.109   0.975   2.984 -1.0497 -0.1451  0.8400
  461MOL0     C62149   6.779   0.850   2.945 -0.1653 -0.7030  0.3695
  461MOL0     C62150   6.685   0.804   2.852 -0.1899  0.0865  0.5655
  461MOL0     N62151   5.952   0.603   2.710 -0.1681  0.4843 -0.2476
  461MOL0     N62152   5.879   0.522   2.775  0.2604  0.0293  0.1273
  461MOL0     C62153   4.906   0.516   3.195  0.6581  0.7684  0.0789
  461MOL0     C62154   4.765   0.518   3.184  0.3937  0.2760 -0.0695
  461MOL0     C62155   4.344   0.397   3.266  0.6670  0.0959 -0.7455
  461MOL0     C62156   4.298   0.427   3.138 -0.3829 -0.6062 -0.3568
  461MOL0     C62157   4.164   0.447   3.112 -0.3556  0.5401 -0.6016
  461MOL0     C62158   4.071   0.428   3.215 -0.0134 -0.2897  0.0800
  461MOL0     O62159   3.941   0.449   3.193  0.2990 -1.0738 -0.4623
  461MOL0     C62160   3.881   0.456   3.059  0.2108 -0.4425  0.0852
  461MOL0     C62161   3.886   0.324   2.973 -0.2402 -0.1408  0.7552
  461MOL0     C62162   3.862   0.205   3.056  0.5792  0.5922 -0.5928
  461MOL0     C62163   3.854   0.074   2.980 -0.0398  0.6912 -0.0895
  461MOL0     C62164   3.988   0.042   2.936  0.5713  0.3864 -0.5406
  461MOL0     C62165   4.107   0.016   2.920 -0.7618  0.0631  0.5820
  461MOL0     C62166   4.112   0.405   3.344  0.2230 -0.5845  0.0932
  461MOL0     C62167   4.250   0.391   3.371  0.0462  0.9259  0.6553
  461MOL0     H62168   4.706   0.205   3.305 -2.8845  2.0767 -3.1060
  461MOL0     H62169   4.954   0.214   3.333 -2.2921 -1.2019  2.2367
  461MOL0     H62170   5.173   0.246   3.346  0.0086 -0.8534 -0.2069
  461MOL0     H62171   5.186   0.236   3.165  2.3543  1.5669 -2.0362
  461MOL0     H62172   5.349   0.419   3.187  1.6467 -2.4677 -1.0147
  461MOL0     H62173   5.340   0.393   3.373  2.3810  0.8527 -0.3415
  461MOL0     H62174   5.423   0.151   3.320  0.2597 -1.1433 -1.5747
  461MOL0     H62175   5.453   0.207   3.156  0.3074 -0.6788  1.2765
  461MOL0     H62176   5.567   0.344   3.398  1.0504 -1.1640  1.2937
  461MOL0     H62177   5.642   0.198   3.316  1.5757 -0.0468 -0.4185
  461MOL0     H62178   5.661   0.313   3.106  0.9491 -0.6293  0.1382
  461MOL0     H62179   5.591   0.461   3.180  2.3205  2.0181  3.3304
  461MOL0     H62180   5.805   0.494   3.300 -0.1349 -1.8351  1.5477
  461MOL0     H62181   5.847   0.330   3.264  0.5418 -0.1381  0.0039
  461MOL0     H62182   5.810   0.552   3.076 -1.0335 -0.7909 -0.0215
  461MOL0     H62183   5.973   0.495   3.137  0.2371 -1.3607 -0.7925
  461MOL0     H62184   5.798   0.321   2.947  0.2715  0.5293 -3.9686
  461MOL0     H62185   5.964   0.297   3.001  3.3119  4.1062 -0.0799
  461MOL0     H62186   6.154   0.489   2.941  1.2277 -1.2705 -0.7722
  461MOL0     H62187   6.154   0.771   2.700 -2.9279 -1.2210  1.6748
  461MOL0     H62188   6.250   0.731   2.835 -0.7142  2.0521 -0.8756
  461MOL0     H62189   6.269   0.627   2.544 -1.7454 -0.7226  0.6232
  461MOL0     H62190   6.275   0.504   2.662  4.0367 -0.5258  1.6716
  461MOL0     H62191   6.501   0.572   2.607 -0.0161  0.0697  0.9336
  461MOL0     H62192   6.480   0.610   2.772  1.2686  1.6785  0.6995
  461MOL0     H62193   6.441   0.852   2.724  0.3128 -0.8172 -0.2734
  461MOL0     H62194   6.427   0.819   2.554  2.7355 -0.3130 -2.2766
  461MOL0     H62195   6.853   0.842   2.571 -1.2462  0.5539  0.2769
  461MOL0     H62196   7.079   0.903   2.599  0.6866 -0.9432 -0.5582
  461MOL0     H62197   7.112   1.016   2.725  0.9055 -0.0487  1.4374
  461MOL0     H62198   7.155   0.845   2.753 -1.7787 -0.6505  0.0094
  461MOL0     H62199   7.160   0.769   3.158  1.2028  0.3604 -0.0882
  461MOL0     H62200   7.319   0.731   3.337  0.2186  1.1063 -1.2619
  461MOL0     H62201   7.359   1.020   3.570  0.9520 -2.3051 -2.2516
  461MOL0     H62202   7.245   0.989   3.703  0.6000  1.6667 -0.3218
  461MOL0     H62203   7.475   1.014   3.781 -4.3343  2.1868  0.3444
  461MOL0     H62204   7.413   0.848   3.820 -0.2245 -0.7683 -0.3930
  461MOL0     H62205   7.581   0.918   3.574  1.4365 -0.5543 -0.3181
  461MOL0     H62206   7.545   0.756   3.633  0.9470 -0.8821  1.8759
  461MOL0     H62207   7.660   0.910   3.853 -1.3080  0.3628 -0.8920
  461MOL0     H62208   7.687   0.744   3.799 -0.6741  0.0722 -0.7216
  461MOL0     H62209   7.821   0.991   3.672  3.1266  0.8112  3.1223
  461MOL0     H62210   7.827   0.825   3.612 -1.7676 -0.0499 -0.5829
  461MOL0     H62211   7.940   0.776   3.858  1.6648  0.9636  1.1473
  461MOL0     H62212   8.028   0.883   3.755 -1.7771 -1.5362 -2.3866
  461MOL0     H62213   7.827   0.990   3.948 -1.2580 -3.5036 -0.6469
  461MOL0     H62214   7.962   1.076   3.876 -1.0031 -0.3890 -2.8757
  461MOL0     H62215   7.966   0.857   4.088  0.3066 -0.7045 -1.0599
  461MOL0     H62216   8.015   1.017   4.117 -0.2954 -1.6094  1.8965
  461MOL0     H62217   7.073   1.009   3.570 -0.9169 -2.4015  1.4032
  461MOL0     H62218   6.926   1.041   3.372 -2.3420 -1.1843 -1.6400
  461MOL0     H62219   6.755   0.848   3.050 -0.5580 -2.7898  0.2843
  461MOL0     H62220   6.585   0.787   2.892 -1.3174 -0.1331 -2.1136
  461MOL0     H62221   4.947   0.615   3.176  3.5079  0.7341  4.5056
  461MOL0     H62222   4.722   0.608   3.142 -0.2283 -0.6239 -1.4247
  461MOL0     H62223   4.366   0.437   3.054  0.0620 -2.0133 -0.1758
  461MOL0     H62224   4.139   0.474   3.010 -1.3486 -0.2717 -0.5936
  461MOL0     H62225   3.776   0.480   3.076  0.0147 -0.2422 -1.3332
  461MOL0     H62226   3.922   0.535   2.994  1.7357  0.8449  2.4585
  461MOL0     H62227   3.984   0.323   2.926  1.1632  0.3464  3.4452
  461MOL0     H62228   3.803   0.327   2.902  0.0643 -2.7999  0.1997
  461MOL0     H62229   3.763   0.220   3.099 -0.5322  1.4841 -3.2588
  461MOL0     H62230   3.936   0.182   3.133 -0.5366  0.4277  0.4621
  461MOL0     H62231   3.784   0.074   2.896 -0.1690  0.2837  0.0184
  461MOL0     H62232   3.818  -0.001   3.051  0.1012  0.0324 -0.7061
  461MOL0     H62233   4.209  -0.007   2.898 -1.2808  0.7764 -3.0744
  461MOL0     H62234   4.045   0.430   3.426 -0.8947  4.0458 -1.9136
  461MOL0     H62235   4.276   0.368   3.474  0.3149 -3.0997 -0.1246
  462MOL0     O62236   8.721   8.214   8.530  0.3031  0.3926 -0.4373
  462MOL0     C62237   8.747   8.256   8.418  0.6724  0.0992 -0.6174
  462MOL0     O62238   8.674   8.338   8.334  0.5926  0.0534 -0.3651
  462MOL0     C62239   8.552   8.376   8.386 -1.1208 -0.4578 -0.2634
  462MOL0     C62240   8.532   8.513   8.415  0.1287 -0.2686 -0.9180
  462MOL0     C62241   8.418   8.559   8.476  0.2268  0.1530 -0.3318
  462MOL0     C62242   8.317   8.463   8.515  0.1805  0.3701  0.4098
  462MOL0     O62243   8.196   8.497   8.575 -0.5897  0.8494  0.3098
  462MOL0     C62244   8.185   8.630   8.625  0.0312 -0.0726  0.2874
  462MOL0     C62245   8.072   8.627   8.723  0.0484 -0.4243 -0.1397
  462MOL0     C62246   8.034   8.764   8.780  0.6216 -0.3812  0.8999
  462MOL0     C62247   7.958   8.852   8.686 -1.4034 -0.3740  0.4890
  462MOL0     C62248   7.909   8.983   8.763  0.3168  0.7165  0.1948
  462MOL0     C62249   7.799   9.063   8.695  0.1683 -0.4108 -0.4295
  462MOL0     C62250   7.678   8.977   8.655 -0.0582  0.3593 -0.3255
  462MOL0     C62251   7.560   9.067   8.631  0.1686  0.0162 -0.4935
  462MOL0     N62252   7.508   9.123   8.759 -0.8072  0.3593 -0.6918
  462MOL0     C62253   7.422   9.069   8.854 -0.0200 -0.2258 -0.0732
  462MOL0     C62254   7.405   9.167   8.949 -0.1179 -0.0526 -0.5719
  462MOL0     C62255   7.339   9.141   9.079 -0.6890 -0.2156 -0.6251
  462MOL0     C62256   7.192   9.200   9.084 -0.4056  0.0781 -0.9326
  462MOL0     C62257   7.125   9.235   9.220 -0.4913  0.1003 -1.4106
  462MOL0     C62258   7.209   9.332   9.305  0.8802  1.1492  0.5365
  462MOL0     O62259   7.123   9.373   9.419  0.1977  0.0536  0.1319
  462MOL0     C62260   7.172   9.465   9.504  0.7699 -0.0161  0.4332
  462MOL0     C62261   7.236   9.579   9.455  0.0583  0.6833  0.0263
  462MOL0     C62262   7.283   9.682   9.534 -0.1645  0.0260  0.7551
  462MOL0     C62263   7.343   9.804   9.462 -0.1123 -0.3771 -0.2255
  462MOL0     C62264   7.266   9.666   9.676 -0.4738 -0.9138  0.9478
  462MOL0     C62265   7.308   9.774   9.770  0.6015  0.0892  0.7121
  462MOL0     O62266   7.242   9.785   9.891 -0.4707 -0.4888 -0.0995
  462MOL0     C62267   7.261   9.879   9.986  0.2328 -0.2313  0.6185
  462MOL0     C62268   7.388   9.931  10.014 -0.4872  0.0209  0.2360
  462MOL0     C62269   7.395  10.013  10.126 -0.1905  0.2966 -0.0508
  462MOL0     C62270   7.286  10.061  10.196 -0.6455  0.4629  0.2481
  462MOL0     O62271   7.316  10.148  10.293 -0.8842 -0.0506  0.2196
  462MOL0     C62272   7.229  10.251  10.310  1.0111 -0.6204 -0.6560
  462MOL0     C62273   7.283  10.363  10.396  0.2838  0.1980 -0.6340
  462MOL0     C62274   7.411  10.426  10.337  0.8016 -0.1295  0.6684
  462MOL0     C62275   7.469  10.545  10.411  0.6104  1.2289  0.1198
  462MOL0     C62276   7.574  10.626  10.341 -0.7270 -0.2936  0.4259
  462MOL0     C62277   7.659  10.711  10.434  0.2038 -0.2877 -0.1360
  462MOL0     C62278   7.592  10.821  10.514  0.1651  0.0980 -0.9157
  462MOL0     C62279   7.698  10.895  10.601  0.3915 -0.4106 -0.6104
  462MOL0    Cl62280   7.630  11.050  10.669  0.1662 -0.0590  0.4593
  462MOL0     C62281   7.159  10.012  10.165 -0.5731  0.2427  1.0146
  462MOL0     C62282   7.147   9.923  10.058  0.5144 -0.1775 -0.1694
  462MOL0     O62283   7.410   9.829   9.740  0.0719 -0.1738 -0.5908
  462MOL0     C62284   7.194   9.560   9.728 -0.5607  0.3911  0.6618
  462MOL0     C62285   7.154   9.455   9.645  0.0700  1.4751  0.2556
  462MOL0     N62286   7.491   9.267   8.919  0.1476 -0.6750  0.1522
  462MOL0     N62287   7.550   9.246   8.807 -0.0448  0.4655 -0.2979
  462MOL0     C62288   8.349   8.332   8.493  0.6140  0.3669  0.7550
  462MOL0     C62289   8.456   8.289   8.423  0.4342 -1.4045  0.0632
  462MOL0     C62290   8.872   8.219   8.358 -0.7175 -0.7197  0.0871
  462MOL0     C62291   8.907   8.256   8.221  0.3254  1.1702  0.6735
  462MOL0     C62292   9.018   8.203   8.155  0.7094 -0.0380  0.0855
  462MOL0     C62293   9.103   8.118   8.229  0.6611 -0.2796  0.2380
  462MOL0     O62294   9.200   8.055   8.161  0.1169 -0.2077 -1.1316
  462MOL0     C62295   9.265   7.944   8.229  0.0338  0.1260  0.5666
  462MOL0     C62296   9.341   7.846   8.134 -0.1636 -0.1491  0.5116
  462MOL0     C62297   9.253   7.751   8.051  0.1973  0.6648 -0.0360
  462MOL0     C62298   9.151   7.829   7.965 -0.0740 -0.1488 -0.2305
  462MOL0     C62299   9.121   7.747   7.843 -0.5717 -0.0697 -0.2030
  462MOL0     C62300   9.117   7.673   7.745  2.2671 -0.8350 -0.2934
  462MOL0     C62301   9.074   8.095   8.369  0.3920 -0.4700  0.2363
  462MOL0     C62302   8.958   8.142   8.429 -0.4584  0.1159  0.2483
  462MOL0     H62303   8.612   8.575   8.376  1.1108 -1.7814 -1.3898
  462MOL0     H62304   8.415   8.667   8.491  3.6072  0.1755  1.1461
  462MOL0     H62305   8.279   8.661   8.673  1.0389  0.2317 -1.7925
  462MOL0     H62306   8.163   8.698   8.542 -0.3280 -1.9714 -1.2339
  462MOL0     H62307   7.987   8.587   8.668 -2.2555 -1.6490  3.9197
  462MOL0     H62308   8.084   8.559   8.808 -0.0408 -0.2056  0.0498
  462MOL0     H62309   7.963   8.740   8.860  2.4035 -0.4759  2.5377
  462MOL0     H62310   8.121   8.808   8.829  0.7399 -0.5426  0.8359
  462MOL0     H62311   8.016   8.869   8.595  0.5459  1.6126  2.0209
  462MOL0     H62312   7.873   8.787   8.661 -0.6438 -1.2082  0.0364
  462MOL0     H62313   7.873   8.940   8.858  6.4713 -3.7606  1.1010
  462MOL0     H62314   8.002   9.029   8.798  1.4040 -2.5714  2.1470
  462MOL0     H62315   7.765   9.145   8.760 -1.8730 -2.3779  1.1268
  462MOL0     H62316   7.840   9.114   8.607  0.7646  0.6012  0.4128
  462MOL0     H62317   7.698   8.915   8.568  0.2200  0.1304 -0.1004
  462MOL0     H62318   7.647   8.928   8.748  0.6658  0.6791  0.0991
  462MOL0     H62319   7.477   9.010   8.588 -0.6808  1.0781 -0.3032
  462MOL0     H62320   7.593   9.156   8.576 -0.9318 -0.0810 -1.3325
  462MOL0     H62321   7.384   8.967   8.852  0.7223 -0.5358  0.7740
  462MOL0     H62322   7.339   9.037   9.112 -3.3119  0.1949  0.9564
  462MOL0     H62323   7.399   9.196   9.152  0.4716  1.7902 -2.9318
  462MOL0     H62324   7.123   9.133   9.031 -1.3871  0.9061 -0.7384
  462MOL0     H62325   7.189   9.292   9.025 -1.7232  0.9979  0.4974
  462MOL0     H62326   7.121   9.141   9.275  2.2868 -1.3388 -3.3945
  462MOL0     H62327   7.027   9.278   9.200 -0.6599  2.2727  2.9437
  462MOL0     H62328   7.237   9.419   9.246  1.3296  0.8946  0.3683
  462MOL0     H62329   7.300   9.280   9.337  0.5374 -1.0889 -1.8099
  462MOL0     H62330   7.231   9.598   9.348  5.1964 -1.6417 -0.9214
  462MOL0     H62331   7.312   9.901   9.501  2.2184 -0.0081  0.8870
  462MOL0     H62332   7.450   9.788   9.451 -0.3021 -1.4814 -0.6356
  462MOL0     H62333   7.309   9.804   9.358  0.5970  2.8067 -0.5413
  462MOL0     H62334   7.475   9.897   9.959  0.5784  2.4304  0.3354
  462MOL0     H62335   7.488  10.045  10.173 -0.4744  0.9149  0.1040
  462MOL0     H62336   7.193  10.298  10.218  1.6188  0.8206 -0.1903
  462MOL0     H62337   7.141  10.215  10.363  2.2279  0.6160  2.4366
  462MOL0     H62338   7.206  10.438  10.419  0.5763  0.2655  0.1548
  462MOL0     H62339   7.316  10.330  10.495  0.0371  1.3028 -0.1629
  462MOL0     H62340   7.383  10.448  10.234  0.8607 -2.5705  0.0668
  462MOL0     H62341   7.494  10.355  10.337  0.6656 -0.5081 -3.2418
  462MOL0     H62342   7.387  10.614  10.433 -2.5786 -2.2510  0.2123
  462MOL0     H62343   7.505  10.506  10.507  1.7481 -1.2251 -1.2280
  462MOL0     H62344   7.528  10.686  10.262  0.5361 -0.5100 -0.4922
  462MOL0     H62345   7.649  10.558  10.301 -0.3305  0.8771 -0.9005
  462MOL0     H62346   7.699  10.645  10.511 -1.6872 -2.8810 -1.2253
  462MOL0     H62347   7.738  10.763  10.380 -2.6636  4.5276 -0.3513
  462MOL0     H62348   7.513  10.777  10.575  2.6988 -1.8941  1.1978
  462MOL0     H62349   7.552  10.895  10.445 -1.5776  2.0564  1.9918
  462MOL0     H62350   7.774  10.926  10.530  1.6895  2.0116  1.6516
  462MOL0     H62351   7.739  10.828  10.678  2.8082  0.7867 -0.7781
  462MOL0     H62352   7.072  10.042  10.222 -2.1097 -1.8292 -0.0983
  462MOL0     H62353   7.046   9.889  10.039 -0.9731  2.4300  2.3206
  462MOL0     H62354   7.172   9.534   9.831 -2.3123 -0.2011  0.1811
  462MOL0     H62355   7.110   9.365   9.685  1.8546  0.8012  0.7737
  462MOL0     H62356   8.279   8.256   8.526  0.5467  0.8497  1.7692
  462MOL0     H62357   8.462   8.183   8.403  0.6698 -1.9327  2.5439
  462MOL0     H62358   8.844   8.318   8.158  0.7536 -1.8550 -3.1166
  462MOL0     H62359   9.037   8.227   8.051 -0.1816  2.6524  0.4582
  462MOL0     H62360   9.338   7.984   8.300  0.5060 -1.4608  1.0176
  462MOL0     H62361   9.198   7.871   8.276 -1.7044 -1.4925 -3.9036
  462MOL0     H62362   9.406   7.784   8.196 -2.2468 -3.2979 -0.2136
  462MOL0     H62363   9.395   7.916   8.070  3.7881 -2.1850  1.3368
  462MOL0     H62364   9.215   7.680   8.125  0.8268  0.1773 -0.1689
  462MOL0     H62365   9.313   7.692   7.981 -3.9599 -1.2529 -2.4310
  462MOL0     H62366   9.188   7.926   7.930  2.5351  0.5201  3.7810
  462MOL0     H62367   9.062   7.862   8.019 -0.0626  3.9267 -2.3036
  462MOL0     H62368   9.097   7.624   7.653  1.7355 -0.0584 -0.6096
  462MOL0     H62369   9.140   8.030   8.425  0.7469 -0.5888 -0.3068
  462MOL0     H62370   8.933   8.111   8.530 -1.0773  1.6528  0.5949
  463MOL0     O62371   1.807   5.588   1.130 -1.1129  1.1748 -0.7627
  463MOL0     C62372   1.866   5.633   1.038 -0.2015 -0.0318  0.8392
  463MOL0     O62373   1.812   5.643   0.913 -0.1433 -0.3674 -0.1838
  463MOL0     C62374   1.727   5.539   0.876 -0.0392 -0.5055 -0.4614
  463MOL0     C62375   1.783   5.412   0.868  0.3635  0.2005  0.6569
  463MOL0     C62376   1.708   5.307   0.848  0.6094  0.9786 -0.0490
  463MOL0     C62377   1.576   5.309   0.834 -0.8271 -0.6002  0.0662
  463MOL0     O62378   1.495   5.217   0.782  0.7571 -0.5520  0.6509
  463MOL0     C62379   1.551   5.104   0.721 -0.1108  0.2075 -0.0480
  463MOL0     C62380   1.445   4.997   0.688  0.2067 -0.5015 -0.0402
  463MOL0     C62381   1.397   5.011   0.541  0.6624 -0.1964  0.0415
  463MOL0     C62382   1.298   4.908   0.494 -0.2128 -0.3834  0.3501
  463MOL0     C62383   1.295   4.886   0.340  0.2400  0.1123 -0.6012
  463MOL0     C62384   1.246   5.010   0.261  0.1148 -0.8096 -0.5670
  463MOL0     C62385   1.100   5.052   0.282 -0.4583 -0.7302 -1.0397
  463MOL0     C62386   0.985   4.959   0.234 -0.3885 -0.3547  0.9402
  463MOL0     N62387   0.997   4.917   0.091 -0.2693  0.3998 -0.1347
  463MOL0     C62388   0.984   4.994  -0.020 -0.2679  0.6009 -0.7364
  463MOL0     C62389   0.992   4.918  -0.127 -0.2995  0.9570 -0.0463
  463MOL0     C62390   0.998   4.965  -0.273  0.5745 -0.2569  0.1276
  463MOL0     C62391   0.863   4.975  -0.339 -0.1912  0.4316  0.3987
  463MOL0     C62392   0.765   5.062  -0.264 -0.0185  0.3185 -0.3026
  463MOL0     C62393   0.624   5.079  -0.334  0.6396 -0.2688  0.5007
  463MOL0     O62394   0.548   4.966  -0.318  0.8724  0.4267 -0.0321
  463MOL0     C62395   0.406   4.970  -0.310  0.5552  0.4182 -0.3158
  463MOL0     C62396   0.340   4.849  -0.292 -0.1844  0.0213 -0.3282
  463MOL0     C62397   0.199   4.822  -0.271 -1.5406  0.0516  0.7490
  463MOL0     C62398   0.156   4.677  -0.265 -0.3789 -0.9513  0.7977
  463MOL0     C62399   0.111   4.933  -0.280  0.2188 -0.4070 -0.2114
  463MOL0     C62400  -0.039   4.929  -0.277  0.3889 -0.0161 -0.4334
  463MOL0     O62401  -0.105   5.048  -0.276  0.3177 -0.0280 -0.6822
  463MOL0     C62402  -0.225   5.067  -0.216  0.3651  0.1849  0.7647
  463MOL0     C62403  -0.274   4.989  -0.107  0.2186 -0.0653 -0.7239
  463MOL0     C62404  -0.399   5.011  -0.059  0.4676  0.4627 -0.1494
  463MOL0     C62405  -0.484   5.123  -0.103 -0.3199  1.2378 -0.3876
  463MOL0     O62406  -0.599   5.168  -0.047  0.1174 -0.1178 -0.1997
  463MOL0     C62407  -0.677   5.091   0.043 -0.2465 -0.1508 -0.5963
  463MOL0     C62408  -0.799   5.159   0.099  0.0545  0.1132 -0.4701
  463MOL0     C62409  -0.913   5.133   0.012 -1.1434  0.4601 -0.3703
  463MOL0     C62410  -1.038   5.203   0.070 -0.8903  0.1201  0.5363
  463MOL0     C62411  -1.094   5.142   0.201  0.3945  0.3560 -0.2691
  463MOL0     C62412  -1.223   5.219   0.231 -0.4379 -0.0577 -0.3401
  463MOL0     C62413  -1.324   5.133   0.315 -1.0061  0.2126  0.2134
  463MOL0     C62414  -1.446   5.226   0.354 -0.0547  0.5263 -0.6381
  463MOL0    Cl62415  -1.562   5.269   0.217 -0.1541  0.1742  0.1953
  463MOL0     C62416  -0.441   5.196  -0.208 -0.3209 -0.4406  1.4192
  463MOL0     C62417  -0.317   5.162  -0.267  0.9768  0.9614 -0.9100
  463MOL0     O62418  -0.093   4.818  -0.251 -0.4777 -0.1323 -0.0329
  463MOL0     C62419   0.171   5.057  -0.302  0.1957 -0.1587  0.5021
  463MOL0     C62420   0.312   5.071  -0.321 -0.3013 -0.1530  0.7575
  463MOL0     N62421   1.014   4.787  -0.081 -0.7020  0.2320  0.6184
  463MOL0     N62422   1.013   4.788   0.052 -0.5547  1.0752 -0.2203
  463MOL0     C62423   1.518   5.437   0.841 -0.1841  0.5876 -0.2685
  463MOL0     C62424   1.588   5.561   0.857  0.2412  0.5350  0.5739
  463MOL0     C62425   1.998   5.692   1.055  0.8684  0.6902 -1.1086
  463MOL0     C62426   2.062   5.762   0.949 -0.0451 -0.2370 -0.3473
  463MOL0     C62427   2.184   5.811   0.969 -0.5449 -0.0242 -0.1118
  463MOL0     C62428   2.252   5.804   1.091  0.2718 -0.7640  0.1798
  463MOL0     O62429   2.362   5.885   1.112 -0.2111 -0.2784 -0.8665
  463MOL0     C62430   2.463   5.855   1.212 -0.1446 -0.7366 -0.0498
  463MOL0     C62431   2.542   5.717   1.192  0.6230  0.1039 -0.6030
  463MOL0     C62432   2.626   5.685   1.313  0.3251 -0.5002 -0.5292
  463MOL0     C62433   2.756   5.768   1.305 -0.2137  0.0552 -0.7988
  463MOL0     C62434   2.855   5.688   1.377  0.2391 -0.4425 -0.1552
  463MOL0     C62435   2.938   5.626   1.438 -0.6762  0.8559 -0.1795
  463MOL0     C62436   2.185   5.734   1.194 -0.6354  0.1177 -0.1989
  463MOL0     C62437   2.058   5.686   1.181  0.4705  0.5250 -0.3597
  463MOL0     H62438   1.887   5.399   0.896  0.2796  1.3837  1.5687
  463MOL0     H62439   1.757   5.210   0.849  0.7286  0.9963  2.7555
  463MOL0     H62440   1.586   5.135   0.622 -0.1888  2.5598  0.6014
  463MOL0     H62441   1.632   5.060   0.780  0.4705 -0.9633 -1.6622
  463MOL0     H62442   1.490   4.898   0.698  0.2472 -0.6512 -1.4579
  463MOL0     H62443   1.359   5.012   0.753  1.7830 -1.1185  2.3417
  463MOL0     H62444   1.362   5.113   0.522 -2.8727 -1.5211 -1.2722
  463MOL0     H62445   1.481   4.990   0.475 -0.9139 -1.0992 -1.7749
  463MOL0     H62446   1.321   4.812   0.540 -3.0079 -1.9010 -1.1530
  463MOL0     H62447   1.202   4.944   0.533  0.7054  0.9071  1.5435
  463MOL0     H62448   1.397   4.854   0.319 -0.7978 -2.1402 -2.8698
  463MOL0     H62449   1.233   4.800   0.311 -0.0833 -0.3338  1.2960
  463MOL0     H62450   1.315   5.092   0.284  0.4657 -1.3288  0.3055
  463MOL0     H62451   1.255   4.985   0.155  0.5338 -2.8966 -0.0953
  463MOL0     H62452   1.081   5.072   0.388 -1.5313  3.8607 -1.8747
  463MOL0     H62453   1.088   5.150   0.234 -2.0706 -0.0272  0.6886
  463MOL0     H62454   0.885   4.999   0.256 -1.7390  0.2663 -4.7296
  463MOL0     H62455   0.988   4.863   0.286  0.7917 -1.3459 -0.8722
  463MOL0     H62456   0.981   5.102  -0.022 -0.3713  0.5856 -1.4510
  463MOL0     H62457   1.053   5.059  -0.284  1.8883 -0.9152  0.7975
  463MOL0     H62458   1.055   4.894  -0.332  0.6551 -1.2800  1.3875
  463MOL0     H62459   0.806   4.882  -0.349  0.4125  0.1627 -0.6108
  463MOL0     H62460   0.893   5.021  -0.433 -1.0636 -0.3705 -0.2885
  463MOL0     H62461   0.812   5.161  -0.264  0.1748  0.4151 -4.9122
  463MOL0     H62462   0.747   5.020  -0.164  0.6961 -1.1238 -0.7452
  463MOL0     H62463   0.639   5.082  -0.442 -2.7477  1.0956 -0.0474
  463MOL0     H62464   0.569   5.168  -0.302  0.4578 -0.5846  1.0872
  463MOL0     H62465   0.415   4.777  -0.260  0.9613  1.4368  0.2874
  463MOL0     H62466   0.090   4.662  -0.350  1.0665 -1.7238 -0.2334
  463MOL0     H62467   0.242   4.609  -0.266 -0.8809 -1.6146  1.1910
  463MOL0     H62468   0.116   4.677  -0.163  1.9693 -1.1134  1.7806
  463MOL0     H62469  -0.220   4.900  -0.076  2.7400  0.8948 -2.0244
  463MOL0     H62470  -0.434   4.939   0.015  1.4228 -0.7252 -0.8269
  463MOL0     H62471  -0.689   4.988   0.008 -0.7298 -0.2264 -0.2251
  463MOL0     H62472  -0.616   5.070   0.131  0.7255  0.9202 -0.9999
  463MOL0     H62473  -0.822   5.125   0.200 -2.5359 -0.7325 -1.2761
  463MOL0     H62474  -0.783   5.267   0.095  0.0519  0.2647  1.9521
  463MOL0     H62475  -0.940   5.030  -0.012  1.2389 -0.2620 -0.2079
  463MOL0     H62476  -0.887   5.187  -0.079  0.1297  0.2416 -0.1554
  463MOL0     H62477  -1.021   5.310   0.083 -3.2756  0.4626  1.2677
  463MOL0     H62478  -1.117   5.209  -0.005  1.1620  5.6130 -1.6898
  463MOL0     H62479  -1.027   5.166   0.285 -0.0325  1.8521 -0.3450
  463MOL0     H62480  -1.120   5.036   0.194 -0.9853  0.7326 -1.2473
  463MOL0     H62481  -1.200   5.313   0.282 -1.2435  0.2221 -0.4930
  463MOL0     H62482  -1.278   5.234   0.138 -1.5319 -1.8545 -0.0381
  463MOL0     H62483  -1.281   5.102   0.411  2.0448 -0.2902 -1.1859
  463MOL0     H62484  -1.363   5.045   0.262 -0.3746  0.3618 -0.5300
  463MOL0     H62485  -1.412   5.316   0.405  2.5810 -0.5913 -0.2296
  463MOL0     H62486  -1.501   5.164   0.425  2.2145  0.0950  0.8553
  463MOL0     H62487  -0.488   5.286  -0.246  0.4036 -0.3913  0.6342
  463MOL0     H62488  -0.289   5.205  -0.363  0.8266 -0.9648 -1.8571
  463MOL0     H62489   0.109   5.143  -0.323  0.7860  0.2179  0.2538
  463MOL0     H62490   0.356   5.170  -0.325 -0.2434 -0.1717  0.9443
  463MOL0     H62491   1.412   5.442   0.816 -0.6386 -0.2953  1.2932
  463MOL0     H62492   1.538   5.652   0.825 -0.5004  0.2786  0.9921
  463MOL0     H62493   2.020   5.779   0.850  0.5727 -2.7059 -1.1126
  463MOL0     H62494   2.239   5.863   0.891 -0.7930 -3.8917 -3.1900
  463MOL0     H62495   2.540   5.930   1.190 -0.6455 -0.8025 -2.3135
  463MOL0     H62496   2.418   5.879   1.309 -1.4627 -1.4952 -0.4471
  463MOL0     H62497   2.605   5.716   1.102  0.0142  3.1731 -1.1783
  463MOL0     H62498   2.465   5.640   1.178  0.9904  0.1068 -3.1393
  463MOL0     H62499   2.644   5.577   1.307 -1.5787 -0.7978 -1.8959
  463MOL0     H62500   2.572   5.708   1.405 -2.2025 -0.9462 -1.8241
  463MOL0     H62501   2.742   5.863   1.357 -1.9075  0.5102 -2.0286
  463MOL0     H62502   2.789   5.770   1.201 -1.6665 -3.1619 -1.4258
  463MOL0     H62503   3.015   5.593   1.504 -2.7859 -0.3729  1.8360
  463MOL0     H62504   2.228   5.729   1.294 -0.9579 -0.6316 -0.0929
  463MOL0     H62505   2.019   5.634   1.269  3.5515 -1.6459 -0.1441
  464MOL0     O62506   1.861   7.222   2.591  0.0668  0.1409  0.3236
  464MOL0     C62507   1.921   7.114   2.603  0.4273 -1.1853  0.2792
  464MOL0     O62508   1.874   6.997   2.560 -0.0131  0.2035  0.1476
  464MOL0     C62509   1.767   6.988   2.468  0.0046 -0.3399 -0.7383
  464MOL0     C62510   1.655   6.918   2.510  0.1557 -0.2527 -0.3427
  464MOL0     C62511   1.550   6.895   2.421  0.5680  0.3502 -0.4229
  464MOL0     C62512   1.562   6.937   2.283 -0.8162  0.4399 -0.6944
  464MOL0     O62513   1.458   6.914   2.190  0.0253  0.4922 -0.0695
  464MOL0     C62514   1.456   6.958   2.051 -0.0464 -0.4601  0.4675
  464MOL0     C62515   1.347   6.880   1.981  0.5784  0.1899  0.9092
  464MOL0     C62516   1.366   6.865   1.823 -0.1408  1.2882 -0.9714
  464MOL0     C62517   1.268   6.752   1.772  0.3630  0.4070 -0.2735
  464MOL0     C62518   1.239   6.768   1.617 -0.2442 -1.1347 -0.4682
  464MOL0     C62519   1.215   6.624   1.562  0.6235  0.2021  0.3743
  464MOL0     C62520   1.117   6.537   1.626 -0.1440 -0.6753  0.6115
  464MOL0     C62521   0.969   6.607   1.620 -0.3241  0.4595  0.4842
  464MOL0     N62522   0.871   6.506   1.660 -0.7325 -0.1241 -0.7332
  464MOL0     C62523   0.885   6.421   1.772  0.5432  0.1069  0.7384
  464MOL0     C62524   0.764   6.363   1.789 -1.3020  0.4916 -0.3250
  464MOL0     C62525   0.719   6.283   1.904  0.6662 -0.2723 -0.3386
  464MOL0     C62526   0.709   6.373   2.029 -0.0719 -0.4697 -0.6063
  464MOL0     C62527   0.668   6.292   2.162  0.1318 -0.4538  0.3447
  464MOL0     C62528   0.522   6.236   2.154  0.1720 -0.7181  0.3213
  464MOL0     O62529   0.485   6.192   2.283 -0.0575 -0.0119  0.0660
  464MOL0     C62530   0.360   6.156   2.298 -0.1851  0.0585  0.6061
  464MOL0     C62531   0.328   6.089   2.418 -0.6278 -0.1998  0.0898
  464MOL0     C62532   0.206   6.030   2.451 -0.6391  0.7744 -0.1656
  464MOL0     C62533   0.198   5.952   2.582  0.2153  0.6501 -0.8644
  464MOL0     C62534   0.093   6.052   2.362  0.1848 -0.6222  0.6614
  464MOL0     C62535  -0.045   6.019   2.396  0.1212  0.4038  0.4633
  464MOL0     O62536  -0.133   6.082   2.329 -0.3711 -0.2103 -0.5808
  464MOL0     C62537  -0.262   6.041   2.321 -0.4249  1.1733  0.3977
  464MOL0     C62538  -0.289   5.906   2.310 -0.4595 -0.1855  0.7506
  464MOL0     C62539  -0.419   5.859   2.297  0.0981  0.4747 -0.9736
  464MOL0     C62540  -0.526   5.955   2.282  0.5366  0.1764 -0.3911
  464MOL0     O62541  -0.658   5.911   2.269  0.1989  0.2934  1.0451
  464MOL0     C62542  -0.698   5.778   2.230  0.1090 -0.7409 -0.1171
  464MOL0     C62543  -0.838   5.791   2.172  0.2711  0.0191  0.1631
  464MOL0     C62544  -0.825   5.858   2.039 -0.5360 -0.0431 -0.2038
  464MOL0     C62545  -0.943   5.815   1.962 -0.0752 -0.0936  0.3991
  464MOL0     C62546  -0.924   5.825   1.805 -1.0258  0.2811 -0.1873
  464MOL0     C62547  -1.040   5.809   1.715  0.2519 -0.1911  0.2416
  464MOL0     C62548  -0.990   5.825   1.569 -0.0003 -0.2028  0.1514
  464MOL0     C62549  -1.082   5.736   1.481 -0.0672 -0.3190  0.1515
  464MOL0    Cl62550  -1.251   5.765   1.514 -0.0979 -0.1435 -0.0081
  464MOL0     C62551  -0.500   6.087   2.302  0.3130 -0.5307  0.0093
  464MOL0     C62552  -0.367   6.132   2.320  0.4230  0.2251 -0.3873
  464MOL0     O62553  -0.066   5.948   2.494  0.1754  0.5510 -0.1441
  464MOL0     C62554   0.132   6.121   2.238  0.4021 -0.2468  0.0966
  464MOL0     C62555   0.257   6.166   2.201  0.1951  0.2641 -0.0740
  464MOL0     N62556   0.678   6.426   1.697 -0.0159 -0.2039 -0.1109
  464MOL0     N62557   0.745   6.503   1.620 -0.0014 -0.9432  0.3186
  464MOL0     C62558   1.673   7.010   2.244  0.2735  0.1039 -0.0525
  464MOL0     C62559   1.774   7.042   2.340  0.3528 -0.3287 -1.0940
  464MOL0     C62560   2.060   7.111   2.654  0.2179  0.1543  0.2750
  464MOL0     C62561   2.127   6.986   2.673 -0.3169  0.2063 -0.1752
  464MOL0     C62562   2.239   6.973   2.745 -0.3078  0.1114  0.0194
  464MOL0     C62563   2.305   7.096   2.787 -0.1229  0.9800  0.7527
  464MOL0     O62564   2.425   7.089   2.841  0.3760  0.2758 -0.0886
  464MOL0     C62565   2.442   6.994   2.943  0.6207  0.3341  0.1781
  464MOL0     C62566   2.547   7.041   3.043 -0.2736 -0.4515 -0.5439
  464MOL0     C62567   2.640   6.934   3.094 -0.2896 -0.0637  0.9581
  464MOL0     C62568   2.776   6.988   3.150  0.2152  0.1147 -0.5871
  464MOL0     C62569   2.737   7.062   3.274 -0.3548 -0.4229 -0.2518
  464MOL0     C62570   2.715   7.132   3.368  0.1400  0.8635 -0.3956
  464MOL0     C62571   2.253   7.213   2.761 -0.7534  0.2632 -0.4399
  464MOL0     C62572   2.130   7.227   2.688 -1.2234 -0.4318  0.9109
  464MOL0     H62573   1.655   6.900   2.617  2.4168  3.0615  0.3758
  464MOL0     H62574   1.468   6.829   2.447  0.2456  1.2188  0.9003
  464MOL0     H62575   1.435   7.065   2.047 -1.6999 -0.7461  0.7507
  464MOL0     H62576   1.548   6.947   1.994 -0.2764  0.9211 -0.2041
  464MOL0     H62577   1.371   6.783   2.026  0.1603 -0.9957 -1.2560
  464MOL0     H62578   1.247   6.908   2.014 -0.4898 -1.7263 -0.4538
  464MOL0     H62579   1.360   6.959   1.768  3.5817  1.2353 -1.7020
  464MOL0     H62580   1.469   6.829   1.813 -0.7025 -0.5319 -0.6083
  464MOL0     H62581   1.305   6.651   1.793  2.3464  0.9969 -0.7700
  464MOL0     H62582   1.169   6.755   1.819  2.1545  2.2500  3.9223
  464MOL0     H62583   1.145   6.824   1.605  0.2597  0.1310  1.0617
  464MOL0     H62584   1.313   6.825   1.560 -1.4804 -0.0839 -1.0896
  464MOL0     H62585   1.199   6.639   1.455 -0.6662 -0.7000  0.4281
  464MOL0     H62586   1.309   6.568   1.571  1.6286  1.8077  0.2215
  464MOL0     H62587   1.103   6.437   1.583  0.1457 -1.7042  2.7403
  464MOL0     H62588   1.137   6.521   1.732 -1.3269  0.1750  0.9885
  464MOL0     H62589   0.956   6.629   1.514  0.7833 -1.1544 -0.0243
  464MOL0     H62590   0.963   6.691   1.689 -1.5498 -0.2681  1.2939
  464MOL0     H62591   0.975   6.403   1.829  1.5614 -0.7396 -1.0462
  464MOL0     H62592   0.628   6.227   1.877 -0.7898  1.4412  0.8059
  464MOL0     H62593   0.798   6.214   1.935  2.4024  2.1273  0.8737
  464MOL0     H62594   0.634   6.453   2.024 -0.8704 -0.9764  1.6905
  464MOL0     H62595   0.805   6.424   2.028  1.1046 -2.4147 -4.6981
  464MOL0     H62596   0.672   6.366   2.243  2.0285  0.5195 -0.5530
  464MOL0     H62597   0.738   6.211   2.187  1.7529  0.2223 -1.6849
  464MOL0     H62598   0.520   6.160   2.075  3.0492  1.6890 -2.3507
  464MOL0     H62599   0.455   6.313   2.115  2.1205  0.7552 -0.3084
  464MOL0     H62600   0.416   6.070   2.479 -0.8816 -0.8557  0.2645
  464MOL0     H62601   0.164   5.853   2.552 -0.9877  0.5750  0.6262
  464MOL0     H62602   0.293   5.935   2.634 -1.3881 -2.3266  1.3678
  464MOL0     H62603   0.126   5.991   2.655 -0.0621 -3.2261  1.2092
  464MOL0     H62604  -0.207   5.844   2.274  0.6137  1.2615  0.6035
  464MOL0     H62605  -0.439   5.754   2.278  0.1313  0.6153 -1.8514
  464MOL0     H62606  -0.634   5.729   2.155 -0.3616 -1.8475  0.1941
  464MOL0     H62607  -0.701   5.707   2.313 -2.1078 -2.9564 -1.9063
  464MOL0     H62608  -0.871   5.687   2.164  0.2367 -0.1995  2.5550
  464MOL0     H62609  -0.908   5.849   2.233 -0.5738 -0.6994 -0.1038
  464MOL0     H62610  -0.735   5.817   1.993  1.2719  1.3002  1.9116
  464MOL0     H62611  -0.815   5.967   2.031 -0.5162 -0.0919 -0.8842
  464MOL0     H62612  -0.975   5.711   1.977 -1.4978  0.3930  0.9443
  464MOL0     H62613  -1.028   5.880   1.988  1.7010  1.9033  1.5078
  464MOL0     H62614  -0.855   5.746   1.774 -2.6536 -1.1014 -0.4619
  464MOL0     H62615  -0.896   5.928   1.783  0.1743  0.6138  2.4112
  464MOL0     H62616  -1.086   5.715   1.743 -1.2421 -0.0198 -1.4452
  464MOL0     H62617  -1.104   5.897   1.717  3.2410  2.3369 -2.3757
  464MOL0     H62618  -0.889   5.786   1.555 -0.3454 -0.7432 -0.8966
  464MOL0     H62619  -0.995   5.930   1.538  2.1241 -0.2401 -0.4722
  464MOL0     H62620  -1.059   5.631   1.500 -2.5562 -0.7308  1.1808
  464MOL0     H62621  -1.063   5.757   1.375 -0.9770 -2.4897 -0.4931
  464MOL0     H62622  -0.582   6.158   2.301  0.4481 -0.2735  2.1385
  464MOL0     H62623  -0.347   6.239   2.322 -2.4088  0.8248 -0.4044
  464MOL0     H62624   0.049   6.145   2.172  0.1864 -0.5214  0.2674
  464MOL0     H62625   0.262   6.206   2.100  3.8601 -0.6403 -0.3956
  464MOL0     H62626   1.683   7.040   2.140  1.4357 -2.2567 -0.6924
  464MOL0     H62627   1.861   7.098   2.306  0.1775  1.2007  0.8022
  464MOL0     H62628   2.082   6.889   2.652 -1.9468  0.3992  2.0688
  464MOL0     H62629   2.275   6.872   2.765 -2.4032 -0.1782  2.8169
  464MOL0     H62630   2.349   6.980   2.999 -1.1774 -1.4449 -2.9567
  464MOL0     H62631   2.471   6.900   2.896  1.8156  1.4635 -1.4625
  464MOL0     H62632   2.497   7.069   3.136 -3.7021 -1.1949 -2.0104
  464MOL0     H62633   2.611   7.118   2.999  1.8115 -0.8565  1.5598
  464MOL0     H62634   2.664   6.869   3.010 -2.8246  0.9263 -0.6168
  464MOL0     H62635   2.584   6.874   3.166 -0.9408 -0.7689 -0.1230
  464MOL0     H62636   2.842   7.040   3.080  1.5838 -1.6160 -0.6390
  464MOL0     H62637   2.842   6.906   3.179 -1.3181 -1.1444 -0.5384
  464MOL0     H62638   2.693   7.206   3.442  0.6032  1.7964 -1.1565
  464MOL0     H62639   2.296   7.301   2.807  0.3239 -1.5032  2.1606
  464MOL0     H62640   2.089   7.326   2.671  0.1942  0.0321  0.0528
  465MOL0     O62641  10.871   2.136  10.095  0.1247  0.7171 -0.6901
  465MOL0     C62642  10.864   2.064  10.194 -0.1026  0.4522  1.4246
  465MOL0     O62643  10.857   1.934  10.193 -0.2776 -0.1502 -0.0095
  465MOL0     C62644  10.896   1.875  10.072  0.0805 -0.0924 -1.2889
  465MOL0     C62645  11.020   1.895  10.019  0.4220  0.7350 -0.4323
  465MOL0     C62646  11.061   1.829   9.896  0.5254  0.4517 -0.3620
  465MOL0     C62647  10.975   1.741   9.843 -0.3616 -0.0065 -0.4114
  465MOL0     O62648  11.009   1.649   9.746  0.1109 -0.3107 -0.7887
  465MOL0     C62649  11.136   1.664   9.678  0.6922  0.3210 -0.0202
  465MOL0     C62650  11.137   1.779   9.580 -0.2064 -0.4687  0.5383
  465MOL0     C62651  11.275   1.823   9.529 -0.4817  0.3620  0.4094
  465MOL0     C62652  11.359   1.725   9.451  0.6715 -0.8447  0.5445
  465MOL0     C62653  11.505   1.781   9.476 -0.8246 -0.6179 -0.0756
  465MOL0     C62654  11.611   1.722   9.385 -0.3501  0.2052  0.5691
  465MOL0     C62655  11.743   1.780   9.406 -0.1468 -0.0210 -0.6174
  465MOL0     C62656  11.855   1.712   9.320 -0.3463  0.2617 -0.7364
  465MOL0     N62657  11.870   1.756   9.188  0.5821  0.3044  0.3019
  465MOL0     C62658  11.918   1.875   9.140  0.5291  0.8366  0.6041
  465MOL0     C62659  11.936   1.850   9.004 -0.7306  0.0356 -0.6884
  465MOL0     C62660  11.984   1.933   8.894 -0.1394 -0.1960  0.2398
  465MOL0     C62661  12.130   1.927   8.864  0.3476 -0.0950 -0.1175
  465MOL0     C62662  12.182   1.795   8.802  0.2109  0.1113  0.1595
  465MOL0     C62663  12.334   1.789   8.757 -0.0042  0.6077  0.5917
  465MOL0     O62664  12.426   1.755   8.869  0.5442 -0.1067 -0.1715
  465MOL0     C62665  12.567   1.741   8.838  0.3023  0.0208 -0.1306
  465MOL0     C62666  12.623   1.755   8.707 -0.1487 -0.1091 -0.1331
  465MOL0     C62667  12.760   1.733   8.690 -0.2174 -1.3240 -1.0596
  465MOL0     C62668  12.810   1.766   8.552  0.1549  1.0307 -0.2897
  465MOL0     C62669  12.849   1.703   8.809 -0.4923  0.2595  0.1836
  465MOL0     C62670  12.996   1.679   8.790  0.1380  0.0532 -0.2111
  465MOL0     O62671  13.067   1.671   8.904 -0.3802  0.1329  1.0624
  465MOL0     C62672  13.200   1.651   8.891  0.0834  0.4275 -0.6395
  465MOL0     C62673  13.262   1.591   8.998  0.1692 -0.4234  0.5052
  465MOL0     C62674  13.405   1.569   8.992  0.2008 -0.9444  0.5990
  465MOL0     C62675  13.482   1.627   8.887 -0.6321  0.6294 -0.0972
  465MOL0     O62676  13.619   1.600   8.878 -0.4146 -0.5424  0.1466
  465MOL0     C62677  13.643   1.462   8.848  0.2402 -0.1010  0.1623
  465MOL0     C62678  13.780   1.430   8.901 -0.3316  0.1603  0.1069
  465MOL0     C62679  13.900   1.474   8.809  0.4082  0.1493  0.0371
  465MOL0     C62680  14.039   1.426   8.857 -0.1404  0.7174 -0.1981
  465MOL0     C62681  14.149   1.443   8.750  0.4864  0.5712  0.7946
  465MOL0     C62682  14.280   1.419   8.817  0.1771  0.4108  0.0927
  465MOL0     C62683  14.408   1.457   8.732 -0.2893 -0.1935 -0.5084
  465MOL0     C62684  14.532   1.482   8.819  0.1782 -0.4997 -1.0512
  465MOL0    Cl62685  14.665   1.567   8.729  0.1039 -0.2448  0.2900
  465MOL0     C62686  13.418   1.697   8.789 -0.7008 -0.1350 -0.6674
  465MOL0     C62687  13.282   1.714   8.794  0.0001  0.4313  0.0183
  465MOL0     O62688  13.040   1.677   8.676 -0.1748  0.3262 -0.2616
  465MOL0     C62689  12.783   1.675   8.934 -0.1776  0.1116 -0.2071
  465MOL0     C62690  12.647   1.703   8.946  0.7116  0.4631  0.7622
  465MOL0     N62691  11.893   1.719   8.976 -0.9656  0.1708 -0.7623
  465MOL0     N62692  11.849   1.664   9.087 -0.1456 -0.5540 -0.7196
  465MOL0     C62693  10.844   1.720   9.901 -1.1544 -0.0290 -0.1630
  465MOL0     C62694  10.812   1.791  10.011  1.6719  0.0655 -0.7716
  465MOL0     C62695  10.815   2.137  10.315 -0.2379  0.1178  0.1480
  465MOL0     C62696  10.796   2.277  10.313  0.7235  0.3195 -0.8422
  465MOL0     C62697  10.735   2.340  10.415  0.1474  0.1558 -0.0470
  465MOL0     C62698  10.693   2.273  10.526 -0.0809  0.3706 -0.2695
  465MOL0     O62699  10.616   2.345  10.618 -0.6172  0.0712 -0.8786
  465MOL0     C62700  10.644   2.325  10.757 -0.2474 -0.0534 -0.2265
  465MOL0     C62701  10.790   2.342  10.791 -0.2979  0.3368  0.7980
  465MOL0     C62702  10.839   2.491  10.798 -0.6064 -0.3495  0.0848
  465MOL0     C62703  10.971   2.498  10.882  0.4037 -0.1804 -0.9795
  465MOL0     C62704  10.954   2.465  11.025 -0.5733  0.1343  0.0636
  465MOL0     C62705  10.951   2.430  11.142  0.3391  0.1888  0.4837
  465MOL0     C62706  10.703   2.138  10.530  0.1193 -0.2445  0.3737
  465MOL0     C62707  10.770   2.066  10.427  0.4590 -0.6072  0.0655
  465MOL0     H62708  11.089   1.962  10.070  0.0385 -1.0317  2.6440
  465MOL0     H62709  11.152   1.834   9.837  1.1280 -2.2983  0.1933
  465MOL0     H62710  11.216   1.655   9.751 -0.8455  1.5918  1.9218
  465MOL0     H62711  11.128   1.574   9.617  0.4409 -0.1678  0.7216
  465MOL0     H62712  11.066   1.757   9.499  0.5992 -0.3574 -0.2176
  465MOL0     H62713  11.090   1.866   9.627  1.8325  1.1907 -0.3201
  465MOL0     H62714  11.251   1.913   9.471  1.6156 -0.3344 -1.6912
  465MOL0     H62715  11.325   1.845   9.623  1.9634 -4.9107  0.6951
  465MOL0     H62716  11.354   1.626   9.496  2.8855 -1.5572 -0.6021
  465MOL0     H62717  11.328   1.738   9.347 -0.7374 -0.6847  0.9599
  465MOL0     H62718  11.507   1.890   9.468 -1.9016 -0.5594  0.3000
  465MOL0     H62719  11.530   1.749   9.578  2.8106 -1.6711 -1.1427
  465MOL0     H62720  11.615   1.613   9.395 -0.7439 -0.2631 -2.9701
  465MOL0     H62721  11.581   1.746   9.282 -1.3385 -1.1523  0.5084
  465MOL0     H62722  11.751   1.888   9.387 -0.6475  0.5404  1.9315
  465MOL0     H62723  11.767   1.775   9.513 -0.4337  6.5434  0.1965
  465MOL0     H62724  11.834   1.604   9.321 -3.5756  0.7514  1.7922
  465MOL0     H62725  11.953   1.726   9.366 -0.7515  1.2517 -0.1648
  465MOL0     H62726  11.948   1.965   9.193  3.6034 -1.6595  3.5524
  465MOL0     H62727  11.931   1.905   8.802  1.9245  1.5610 -1.5903
  465MOL0     H62728  11.961   2.038   8.907 -3.8482 -0.9719  1.0129
  465MOL0     H62729  12.174   1.956   8.960 -0.7970 -0.6149  0.5958
  465MOL0     H62730  12.151   2.015   8.803 -0.3484  1.4461  1.7781
  465MOL0     H62731  12.114   1.772   8.719  0.5381  1.5220 -0.5371
  465MOL0     H62732  12.162   1.717   8.875 -0.3498 -2.0264 -2.1612
  465MOL0     H62733  12.367   1.886   8.719  0.8354 -1.0223 -3.3114
  465MOL0     H62734  12.340   1.707   8.685  1.3925 -0.6682  2.0666
  465MOL0     H62735  12.545   1.777   8.635 -1.4196 -0.4046  1.0874
  465MOL0     H62736  12.832   1.873   8.547  0.5291  0.9240 -1.1522
  465MOL0     H62737  12.887   1.700   8.512  0.1877 -0.0074  1.3584
  465MOL0     H62738  12.729   1.764   8.480  0.7448  1.8703 -1.0046
  465MOL0     H62739  13.208   1.548   9.082 -2.3340 -1.9755 -1.7326
  465MOL0     H62740  13.449   1.521   9.078 -0.6811 -0.1233  1.5368
  465MOL0     H62741  13.565   1.395   8.885  1.7261 -0.2996  3.2000
  465MOL0     H62742  13.653   1.451   8.739  0.8203 -4.4937  0.4884
  465MOL0     H62743  13.798   1.479   8.997  1.7720 -2.7558  1.3402
  465MOL0     H62744  13.788   1.324   8.925 -0.4172  0.1660  0.1611
  465MOL0     H62745  13.906   1.582   8.798  0.1000 -0.0785 -3.0777
  465MOL0     H62746  13.876   1.423   8.715  0.6999 -0.3898  0.2492
  465MOL0     H62747  14.063   1.475   8.952 -1.8079 -1.7593  1.6440
  465MOL0     H62748  14.042   1.320   8.884  1.5917  1.7092  4.5659
  465MOL0     H62749  14.160   1.547   8.720 -0.1805 -0.2299 -2.5614
  465MOL0     H62750  14.134   1.379   8.663  1.3065 -1.2018  1.8912
  465MOL0     H62751  14.291   1.485   8.904 -0.5220  2.4233 -1.2818
  465MOL0     H62752  14.284   1.312   8.839 -2.9287  0.5776  2.0639
  465MOL0     H62753  14.396   1.548   8.672  2.4579  1.7289  1.5788
  465MOL0     H62754  14.428   1.380   8.657 -2.2947 -0.6561 -0.6254
  465MOL0     H62755  14.556   1.387   8.869 -1.2403  0.0567  0.7862
  465MOL0     H62756  14.504   1.559   8.891  0.0086 -0.0004 -1.6358
  465MOL0     H62757  13.476   1.736   8.706 -1.6973 -0.5195 -1.5672
  465MOL0     H62758  13.251   1.783   8.716  0.5065  1.7829  0.9742
  465MOL0     H62759  12.835   1.651   9.027  0.4843 -1.2747 -0.9104
  465MOL0     H62760  12.604   1.704   9.045 -1.1390 -2.6607  0.1392
  465MOL0     H62761  10.765   1.663   9.853 -0.0525  0.7718 -3.1344
  465MOL0     H62762  10.708   1.789  10.042  2.0957 -2.0295  0.7577
  465MOL0     H62763  10.814   2.326  10.218 -0.2601  0.6956 -0.8477
  465MOL0     H62764  10.723   2.448  10.416 -1.8701 -0.0307 -0.9358
  465MOL0     H62765  10.586   2.392  10.820  1.6139  2.5506 -1.1119
  465MOL0     H62766  10.609   2.222  10.770  1.3680 -0.6079 -0.0758
  465MOL0     H62767  10.860   2.281  10.732  0.4394  0.2011  1.7810
  465MOL0     H62768  10.794   2.308  10.896 -1.9054  1.7226  1.3356
  465MOL0     H62769  10.757   2.555  10.834 -1.6469 -1.5799 -0.0000
  465MOL0     H62770  10.852   2.520  10.694 -0.4173  0.0078  0.2077
  465MOL0     H62771  11.010   2.600  10.881 -1.6948  0.6750 -1.8261
  465MOL0     H62772  11.054   2.443  10.837  0.3589 -2.2913  1.2541
  465MOL0     H62773  10.944   2.392  11.242 -0.2857  0.4828  0.5601
  465MOL0     H62774  10.645   2.078  10.600  0.9973 -0.6124  0.7937
  465MOL0     H62775  10.783   1.959  10.435  3.8890 -0.2477  0.4993
  466MOL0     O62776   3.581   2.443   7.014  1.0256  0.7671  0.5108
  466MOL0     C62777   3.644   2.340   7.024 -0.3815 -0.2063 -0.3214
  466MOL0     O62778   3.604   2.219   6.992 -0.5123 -0.1593 -0.5424
  466MOL0     C62779   3.475   2.204   6.956  0.1789 -0.0962 -0.2992
  466MOL0     C62780   3.437   2.206   6.822 -0.2769 -0.2669 -0.2133
  466MOL0     C62781   3.297   2.206   6.792 -1.2385 -0.1216 -0.2615
  466MOL0     C62782   3.191   2.182   6.889  0.4361 -0.7963 -0.2242
  466MOL0     O62783   3.057   2.189   6.866  0.4627  0.6838  0.8499
  466MOL0     C62784   3.019   2.051   6.863 -0.5673 -0.1165  0.0179
  466MOL0     C62785   2.885   2.030   6.798  1.0309  0.8470 -0.4353
  466MOL0     C62786   2.775   2.106   6.881 -0.0589  0.4331  0.0280
  466MOL0     C62787   2.638   2.089   6.816  0.6688 -1.2469 -0.8117
  466MOL0     C62788   2.520   2.161   6.893 -0.4785  0.2211  0.2922
  466MOL0     C62789   2.399   2.162   6.803  0.5549 -0.8236  0.5697
  466MOL0     C62790   2.260   2.177   6.879  0.7196 -0.1268  0.0582
  466MOL0     C62791   2.147   2.147   6.781 -0.5066 -0.8902 -0.0150
  466MOL0     N62792   2.005   2.145   6.833 -0.1510  0.5446 -0.2906
  466MOL0     C62793   1.950   2.252   6.897  0.9539  0.1330 -0.3132
  466MOL0     C62794   1.824   2.213   6.930  0.8127 -0.0789 -0.0758
  466MOL0     C62795   1.735   2.279   7.042  0.6309 -0.5660  0.5480
  466MOL0     C62796   1.592   2.325   6.995  0.3234 -0.1164 -0.7186
  466MOL0     C62797   1.492   2.212   6.987  0.8438 -0.1917 -0.3908
  466MOL0     C62798   1.366   2.243   6.908  0.1582 -0.1833 -0.1264
  466MOL0     O62799   1.298   2.352   6.983  0.0319  0.8712 -0.5574
  466MOL0     C62800   1.161   2.342   6.991  0.5869 -0.6079 -0.5194
  466MOL0     C62801   1.086   2.382   7.107 -0.1095 -0.2113  1.1175
  466MOL0     C62802   0.950   2.369   7.109  0.5829  0.2171  0.0080
  466MOL0     C62803   0.886   2.443   7.232 -0.4467  1.0481  1.0099
  466MOL0     C62804   0.879   2.288   7.002  0.0977  0.8008 -0.9508
  466MOL0     C62805   0.728   2.267   7.004 -0.3148  0.0565  0.6744
  466MOL0     O62806   0.646   2.299   7.112 -0.5499  0.1232 -0.3934
  466MOL0     C62807   0.512   2.324   7.097 -0.1287 -0.6950  0.2074
  466MOL0     C62808   0.453   2.387   6.989  0.2660  0.1251 -0.7675
  466MOL0     C62809   0.317   2.405   6.975  0.1329 -0.0559 -1.0540
  466MOL0     C62810   0.232   2.341   7.066  0.7918  0.2977 -0.4653
  466MOL0     O62811   0.098   2.338   7.042  0.0172  0.1604  0.1153
  466MOL0     C62812   0.011   2.319   7.155  0.0903  0.8282  0.7681
  466MOL0     C62813   0.017   2.431   7.260  0.2233  0.4090  0.9523
  466MOL0     C62814  -0.113   2.460   7.322 -0.4245  0.3334 -1.0824
  466MOL0     C62815  -0.167   2.342   7.390 -0.2823  0.5614  1.2041
  466MOL0     C62816  -0.275   2.372   7.498  0.0884  0.0478  0.4504
  466MOL0     C62817  -0.237   2.442   7.629 -0.3178 -0.1646  0.5317
  466MOL0     C62818  -0.139   2.353   7.714  0.7930 -0.9869 -0.4092
  466MOL0     C62819  -0.069   2.434   7.827 -0.2282  0.0505 -0.7828
  466MOL0    Cl62820   0.080   2.504   7.770 -0.0995 -0.7754  0.3256
  466MOL0     C62821   0.291   2.273   7.176 -1.2984  0.1076 -0.1281
  466MOL0     C62822   0.431   2.278   7.198 -1.3989 -0.0311 -0.0047
  466MOL0     O62823   0.687   2.227   6.896  0.1559 -0.1427  0.0856
  466MOL0     C62824   0.956   2.257   6.896 -0.4649 -1.0374  0.0537
  466MOL0     C62825   1.090   2.285   6.884  0.0921  0.2510  0.5083
  466MOL0     N62826   1.807   2.075   6.896 -0.4202 -0.6733  0.3886
  466MOL0     N62827   1.918   2.043   6.834 -0.5660 -0.4690 -1.3197
  466MOL0     C62828   3.237   2.182   7.017 -0.8892 -0.0112 -0.1992
  466MOL0     C62829   3.379   2.191   7.057  0.3029  0.2951  0.7118
  466MOL0     C62830   3.784   2.347   7.084 -0.7425  0.4503 -0.6697
  466MOL0     C62831   3.864   2.232   7.092  0.4818  0.8673 -1.0288
  466MOL0     C62832   3.989   2.226   7.166  0.0762 -0.2372 -0.3573
  466MOL0     C62833   4.031   2.347   7.218 -1.6195 -0.6588 -0.7333
  466MOL0     O62834   4.155   2.363   7.271  0.2573  0.1038 -0.2586
  466MOL0     C62835   4.259   2.285   7.204  0.8886 -0.8056  0.4415
  466MOL0     C62836   4.405   2.332   7.243 -0.0194 -0.0948 -0.0945
  466MOL0     C62837   4.444   2.323   7.387  0.8752  0.4922 -0.0935
  466MOL0     C62838   4.439   2.173   7.439  0.4513 -0.0186 -0.9542
  466MOL0     C62839   4.530   2.080   7.374 -0.9407  0.4205  0.0616
  466MOL0     C62840   4.613   2.006   7.320  0.2587 -0.0374  0.4959
  466MOL0     C62841   3.961   2.471   7.210  1.1039  0.3729  0.1783
  466MOL0     C62842   3.833   2.470   7.142  0.1191  0.9459  0.1035
  466MOL0     H62843   3.517   2.221   6.750 -0.2018  0.1481 -0.0404
  466MOL0     H62844   3.277   2.233   6.689  0.8636  0.8693 -0.4488
  466MOL0     H62845   3.078   1.999   6.787 -0.2724 -0.7463  0.6568
  466MOL0     H62846   3.038   2.013   6.964 -0.5257  1.9622  0.8448
  466MOL0     H62847   2.887   2.078   6.700  2.9839  0.5379 -0.5839
  466MOL0     H62848   2.851   1.926   6.801 -0.3424  1.2828 -0.0315
  466MOL0     H62849   2.772   2.068   6.983 -0.2734  0.1679 -0.0737
  466MOL0     H62850   2.808   2.209   6.869  1.3387  0.0200  0.1860
  466MOL0     H62851   2.651   2.141   6.720  0.7598  1.2427  0.4636
  466MOL0     H62852   2.623   1.982   6.801  2.6398 -1.7946  0.7361
  466MOL0     H62853   2.501   2.101   6.983  1.4168  0.3290  0.8054
  466MOL0     H62854   2.538   2.265   6.922 -2.9386  1.4121 -2.0829
  466MOL0     H62855   2.408   2.236   6.723 -0.3353  1.4527  2.4376
  466MOL0     H62856   2.386   2.063   6.758 -2.0774 -2.2976  4.1189
  466MOL0     H62857   2.251   2.113   6.967 -1.2892  0.4776  0.3289
  466MOL0     H62858   2.257   2.280   6.918  0.7918 -0.6114  1.3968
  466MOL0     H62859   2.178   2.053   6.735 -1.6116 -1.4459  0.3440
  466MOL0     H62860   2.161   2.212   6.694  1.1344 -1.5295 -0.2612
  466MOL0     H62861   2.000   2.341   6.935 -1.0925  0.2746  2.3450
  466MOL0     H62862   1.716   2.223   7.133 -0.4217 -0.6385  0.2972
  466MOL0     H62863   1.789   2.370   7.069 -0.4189  0.3100 -0.1430
  466MOL0     H62864   1.604   2.377   6.899  1.9442 -0.8073 -0.9285
  466MOL0     H62865   1.562   2.399   7.069  2.5647 -0.4464  0.6118
  466MOL0     H62866   1.462   2.169   7.083  0.2101 -1.7754 -1.2547
  466MOL0     H62867   1.542   2.127   6.938 -0.3161 -0.7500 -0.6269
  466MOL0     H62868   1.304   2.153   6.899  1.1778 -0.7907 -1.4369
  466MOL0     H62869   1.388   2.275   6.805 -3.2813 -0.3214 -1.0587
  466MOL0     H62870   1.139   2.420   7.193  4.1857  0.0823 -1.3382
  466MOL0     H62871   0.798   2.495   7.191  0.4678  0.8032 -1.4456
  466MOL0     H62872   0.851   2.374   7.309  0.5848  0.8799  1.3300
  466MOL0     H62873   0.959   2.511   7.277 -2.4983  1.0663  4.7094
  466MOL0     H62874   0.520   2.430   6.916  1.3319 -1.1230 -0.5509
  466MOL0     H62875   0.276   2.458   6.890 -0.5197  1.0871 -0.0620
  466MOL0     H62876  -0.090   2.319   7.113  0.7137  0.8268 -0.8019
  466MOL0     H62877   0.014   2.219   7.200  1.1526 -0.0660 -1.1635
  466MOL0     H62878   0.090   2.401   7.336  0.1115  1.4295  1.4891
  466MOL0     H62879   0.059   2.525   7.223  2.2686 -1.3961 -1.6581
  466MOL0     H62880  -0.172   2.504   7.241 -1.6263  0.4585 -0.1684
  466MOL0     H62881  -0.087   2.541   7.391  3.4572 -0.6048 -1.2358
  466MOL0     H62882  -0.210   2.278   7.312 -0.5210  0.8479  1.0978
  466MOL0     H62883  -0.090   2.278   7.435 -1.1584  0.1601  2.1922
  466MOL0     H62884  -0.319   2.274   7.521 -2.6613  1.4639  1.6628
  466MOL0     H62885  -0.352   2.432   7.448 -1.0581 -3.6167 -2.6974
  466MOL0     H62886  -0.201   2.543   7.604 -1.7595  0.0990 -0.6100
  466MOL0     H62887  -0.324   2.465   7.691  0.7092  2.8005  1.0756
  466MOL0     H62888  -0.059   2.318   7.648  1.7329 -0.1386  0.2703
  466MOL0     H62889  -0.188   2.272   7.769  2.5472 -0.0914  2.6523
  466MOL0     H62890  -0.062   2.358   7.906 -4.0821 -0.0416 -0.3001
  466MOL0     H62891  -0.140   2.503   7.874 -1.4515 -0.0552 -2.3873
  466MOL0     H62892   0.241   2.216   7.254  0.0763  1.0190  1.4885
  466MOL0     H62893   0.480   2.221   7.276  1.7931  1.6720 -0.6019
  466MOL0     H62894   0.912   2.198   6.817  0.9949 -0.6217 -1.1241
  466MOL0     H62895   1.144   2.260   6.793  0.5075  0.7163  0.6232
  466MOL0     H62896   3.161   2.174   7.093 -0.7976 -3.1188 -0.3253
  466MOL0     H62897   3.405   2.193   7.162  3.0436  3.0341  0.1093
  466MOL0     H62898   3.838   2.134   7.054 -1.0948  1.3386 -1.2313
  466MOL0     H62899   4.042   2.131   7.176  0.5696  0.1950  1.4283
  466MOL0     H62900   4.240   2.179   7.223 -0.8147 -0.2993  1.8467
  466MOL0     H62901   4.258   2.309   7.097  1.2915 -0.5189  0.5037
  466MOL0     H62902   4.424   2.437   7.219  0.8553  0.1388  1.5109
  466MOL0     H62903   4.475   2.284   7.174  0.1193 -0.5593  0.3664
  466MOL0     H62904   4.376   2.387   7.443  1.6627  0.3766  1.0392
  466MOL0     H62905   4.545   2.362   7.405 -0.5591  2.7752  4.9490
  466MOL0     H62906   4.334   2.141   7.435 -0.3642  2.3084 -0.1909
  466MOL0     H62907   4.465   2.175   7.545 -0.1445 -1.6922 -0.7378
  466MOL0     H62908   4.690   1.948   7.271 -0.1990 -0.3302  0.1147
  466MOL0     H62909   3.989   2.565   7.255 -2.3351  1.7578 -0.2415
  466MOL0     H62910   3.778   2.564   7.138  0.9742  1.4330 -0.3160
  467MOL0     O62911   5.514   7.892   5.044  0.0251 -0.9104 -0.3724
  467MOL0     C62912   5.494   7.949   5.156  0.4695  0.0104  0.7530
  467MOL0     O62913   5.559   7.927   5.271 -0.1179 -0.8540 -0.1771
  467MOL0     C62914   5.659   7.842   5.287 -0.3545  0.5028 -0.6257
  467MOL0     C62915   5.742   7.776   5.185  0.2465  0.6192  0.6150
  467MOL0     C62916   5.836   7.669   5.222 -0.0362  0.2855  0.1253
  467MOL0     C62917   5.874   7.645   5.367  0.0993 -1.3879  0.9155
  467MOL0     O62918   5.977   7.558   5.385 -0.2622  0.0077  0.4132
  467MOL0     C62919   6.057   7.589   5.500  0.3959 -0.1165 -0.2191
  467MOL0     C62920   6.200   7.534   5.483 -0.7434 -0.1883  0.0097
  467MOL0     C62921   6.295   7.588   5.368  0.8170  1.3015 -0.5936
  467MOL0     C62922   6.316   7.738   5.373  0.2947 -0.2904  0.7849
  467MOL0     C62923   6.393   7.775   5.494 -0.4955  0.8192  0.9527
  467MOL0     C62924   6.505   7.860   5.446 -0.7205  0.0088  0.5810
  467MOL0     C62925   6.609   7.902   5.551 -0.3803  0.8287  0.1699
  467MOL0     C62926   6.730   7.970   5.483  0.1687 -0.1855 -0.3553
  467MOL0     N62927   6.720   8.114   5.508  0.1795  0.2916  0.0440
  467MOL0     C62928   6.766   8.185   5.618 -0.5253  0.0860  0.9587
  467MOL0     C62929   6.746   8.314   5.588  0.4403 -0.0252 -0.3335
  467MOL0     C62930   6.821   8.424   5.653  0.1714  0.7303 -0.4587
  467MOL0     C62931   6.807   8.557   5.572  0.2115  0.2576 -1.4526
  467MOL0     C62932   6.894   8.676   5.629  0.4056  0.4612 -0.3034
  467MOL0     C62933   6.883   8.681   5.785 -0.8004 -0.7770 -0.0607
  467MOL0     O62934   6.949   8.806   5.826  0.8276 -0.2013  0.1999
  467MOL0     C62935   6.863   8.913   5.852  0.2328 -0.0129  0.1362
  467MOL0     C62936   6.914   8.998   5.941  0.3316 -0.6872  0.6589
  467MOL0     C62937   6.836   9.109   5.976  0.4717  0.4947  0.0506
  467MOL0     C62938   6.906   9.210   6.066 -0.2096 -0.1106 -0.0471
  467MOL0     C62939   6.710   9.132   5.922 -0.3413 -0.1987  0.3763
  467MOL0     C62940   6.620   9.240   5.970  0.1789  0.7015  0.3163
  467MOL0     O62941   6.644   9.298   6.090  0.5428  0.0142 -0.5680
  467MOL0     C62942   6.538   9.353   6.149  0.4395 -0.6429  0.1984
  467MOL0     C62943   6.563   9.472   6.217  0.6812 -0.2988 -0.4239
  467MOL0     C62944   6.459   9.546   6.289 -0.6005  1.0444 -0.4826
  467MOL0     C62945   6.327   9.491   6.291  0.0533  0.6159 -1.4967
  467MOL0     O62946   6.230   9.552   6.373  0.0057  0.1801  0.3925
  467MOL0     C62947   6.111   9.472   6.404 -0.0896  0.6206  0.6063
  467MOL0     C62948   6.049   9.565   6.509  0.6428 -0.0123  0.8427
  467MOL0     C62949   6.115   9.540   6.647 -0.2679 -0.3763  0.4448
  467MOL0     C62950   6.078   9.659   6.738 -0.2514 -0.4554 -0.6443
  467MOL0     C62951   6.138   9.658   6.873  0.0688 -0.4873 -0.0781
  467MOL0     C62952   6.083   9.767   6.952  0.2952 -0.5494 -0.4809
  467MOL0     C62953   5.961   9.734   7.044  0.2398 -0.0854  0.2702
  467MOL0     C62954   5.843   9.822   7.003 -0.2812  0.3164  0.2216
  467MOL0    Cl62955   5.831   9.967   7.094 -0.4758 -0.2540  0.5051
  467MOL0     C62956   6.303   9.376   6.217  0.0996  0.6892 -0.5329
  467MOL0     C62957   6.404   9.306   6.152 -0.0143  0.4810  0.1733
  467MOL0     O62958   6.537   9.279   5.886 -0.2961  0.5487  0.1166
  467MOL0     C62959   6.660   9.042   5.834 -0.3826  0.1134  0.5061
  467MOL0     C62960   6.734   8.927   5.803  0.6214 -1.0829 -0.9047
  467MOL0     N62961   6.679   8.325   5.468 -0.5404 -0.0824  0.1703
  467MOL0     N62962   6.678   8.203   5.417 -0.6462  0.1358 -0.1313
  467MOL0     C62963   5.795   7.715   5.463 -0.0819 -0.3357 -0.2049
  467MOL0     C62964   5.692   7.803   5.420 -0.2325 -0.1870 -0.3629
  467MOL0     C62965   5.386   8.053   5.161  0.7561 -0.6060  0.1805
  467MOL0     C62966   5.280   8.060   5.071 -0.7836  1.0714 -0.3837
  467MOL0     C62967   5.180   8.158   5.093 -0.2576  0.1272  0.8398
  467MOL0     C62968   5.181   8.242   5.196  0.3892 -1.0932 -0.5534
  467MOL0     O62969   5.063   8.325   5.192  0.4337  0.7558 -0.7760
  467MOL0     C62970   5.043   8.419   5.301  0.0869 -0.0792  0.0452
  467MOL0     C62971   4.898   8.467   5.289 -0.1937  0.3602 -0.4997
  467MOL0     C62972   4.804   8.370   5.361  0.4570 -0.0622  0.3355
  467MOL0     C62973   4.671   8.423   5.394 -0.6918 -0.2425 -0.5146
  467MOL0     C62974   4.604   8.481   5.275 -0.1132  0.2904 -0.5696
  467MOL0     C62975   4.540   8.523   5.182 -1.0417  0.5180 -0.1476
  467MOL0     C62976   5.288   8.245   5.289  0.0044  0.0396 -0.4826
  467MOL0     C62977   5.389   8.151   5.270 -0.9420 -0.2231  0.1499
  467MOL0     H62978   5.727   7.803   5.081  3.3276  4.0608  0.8605
  467MOL0     H62979   5.905   7.635   5.146  0.2256  1.6679 -0.2958
  467MOL0     H62980   6.064   7.698   5.506 -0.6709  0.0055 -0.8685
  467MOL0     H62981   6.009   7.547   5.588 -2.6697  2.5101 -0.4385
  467MOL0     H62982   6.256   7.539   5.577 -0.9710  2.7179  0.0986
  467MOL0     H62983   6.199   7.425   5.477  3.2079 -0.3053 -1.2078
  467MOL0     H62984   6.383   7.522   5.370 -1.0380 -1.4000 -1.4028
  467MOL0     H62985   6.250   7.563   5.271  3.7508 -3.8470 -1.0440
  467MOL0     H62986   6.346   7.774   5.274 -4.4629  2.9190  0.1763
  467MOL0     H62987   6.215   7.780   5.379  1.3880  3.6560 -2.8748
  467MOL0     H62988   6.337   7.840   5.562 -1.1725 -0.0944  1.2820
  467MOL0     H62989   6.440   7.690   5.544  3.2962  3.5195  2.4447
  467MOL0     H62990   6.553   7.793   5.374 -1.7787 -2.0660  1.7180
  467MOL0     H62991   6.466   7.954   5.408 -2.8779 -2.2463 -3.3561
  467MOL0     H62992   6.571   7.955   5.639  1.2040 -1.7993  2.6577
  467MOL0     H62993   6.652   7.812   5.598 -0.0989  0.6277 -0.4612
  467MOL0     H62994   6.760   7.941   5.381  7.1781 -0.6146  1.2716
  467MOL0     H62995   6.812   7.937   5.547 -1.7435 -2.3860  1.1077
  467MOL0     H62996   6.814   8.146   5.707 -1.6452 -0.4226  1.3638
  467MOL0     H62997   6.782   8.443   5.754 -1.9902 -0.3215 -1.0264
  467MOL0     H62998   6.923   8.388   5.664 -1.2658 -4.4728 -1.3143
  467MOL0     H62999   6.702   8.586   5.579  0.9558  2.7281  2.4280
  467MOL0     H63000   6.846   8.546   5.470  0.8839 -1.0083 -1.0810
  467MOL0     H63001   6.859   8.766   5.578 -0.3179  0.4183  0.1027
  467MOL0     H63002   6.997   8.651   5.604 -1.0889 -2.7772 -4.3842
  467MOL0     H63003   6.937   8.595   5.825  2.2049  1.0303  0.0514
  467MOL0     H63004   6.778   8.679   5.815 -2.3326  1.5132 -4.3293
  467MOL0     H63005   7.016   8.995   5.978  0.7214  0.5774 -0.2736
  467MOL0     H63006   6.871   9.229   6.168  0.3021  0.2622  0.0675
  467MOL0     H63007   7.014   9.190   6.069 -0.5634 -2.1523  0.2477
  467MOL0     H63008   6.894   9.306   6.013  0.2443  2.6395  4.3321
  467MOL0     H63009   6.662   9.515   6.211  0.5933  0.6654  2.8700
  467MOL0     H63010   6.470   9.634   6.352 -2.9803 -0.0502  1.6171
  467MOL0     H63011   6.045   9.444   6.322  0.1366 -1.5860  1.1235
  467MOL0     H63012   6.143   9.376   6.446 -1.3258 -0.4717 -0.8295
  467MOL0     H63013   6.054   9.669   6.475  1.3248  0.1242  1.3399
  467MOL0     H63014   5.942   9.543   6.514  0.1556  1.3326 -1.8832
  467MOL0     H63015   6.222   9.517   6.642 -0.1000 -0.4040  2.9704
  467MOL0     H63016   6.073   9.445   6.683  2.9044 -2.4292 -0.8495
  467MOL0     H63017   6.111   9.749   6.686 -2.0191 -0.2220 -1.4397
  467MOL0     H63018   5.970   9.678   6.739  0.2943  3.8891 -2.7623
  467MOL0     H63019   6.246   9.661   6.863  0.0066 -1.9450 -1.4864
  467MOL0     H63020   6.116   9.570   6.935 -0.6702 -0.5762 -0.4503
  467MOL0     H63021   6.166   9.805   7.012  0.0687 -1.8958  0.7511
  467MOL0     H63022   6.059   9.851   6.887  0.4134 -1.8118 -2.2069
  467MOL0     H63023   5.994   9.726   7.148  0.8322 -3.6222 -0.0472
  467MOL0     H63024   5.925   9.632   7.027 -0.1822  0.1041  0.0271
  467MOL0     H63025   5.749   9.770   7.024 -0.6138  0.1013 -1.5604
  467MOL0     H63026   5.850   9.846   6.896  2.8609  1.4563  0.5748
  467MOL0     H63027   6.203   9.333   6.223  0.3362  0.1759 -0.2997
  467MOL0     H63028   6.375   9.208   6.116 -1.5566 -0.2687  3.0908
  467MOL0     H63029   6.560   9.046   5.790 -1.0025 -0.7573  1.7811
  467MOL0     H63030   6.684   8.850   5.744 -1.1788 -0.6444 -0.0323
  467MOL0     H63031   5.816   7.688   5.566 -0.0567 -2.3338 -0.6883
  467MOL0     H63032   5.639   7.850   5.502  0.2432 -1.9789  1.0623
  467MOL0     H63033   5.274   7.984   4.994  0.4834 -1.4410  1.8429
  467MOL0     H63034   5.094   8.177   5.030  0.3152 -0.2565 -0.0789
  467MOL0     H63035   5.076   8.373   5.395  0.8067 -2.5162 -1.2915
  467MOL0     H63036   5.099   8.508   5.272  0.0005 -0.3128 -0.8712
  467MOL0     H63037   4.874   8.484   5.184 -1.2297  2.5751  0.0563
  467MOL0     H63038   4.886   8.563   5.339 -0.2410 -1.0125  2.3142
  467MOL0     H63039   4.854   8.339   5.453  1.3860 -0.9044 -0.4261
  467MOL0     H63040   4.792   8.278   5.303 -2.3273  0.9099 -0.7815
  467MOL0     H63041   4.696   8.505   5.463  1.3219 -3.6836  3.3142
  467MOL0     H63042   4.603   8.345   5.432  1.5815 -1.9132  0.3479
  467MOL0     H63043   4.480   8.543   5.095 -0.0999 -0.4477 -1.0428
  467MOL0     H63044   5.291   8.311   5.375  0.7924  0.2958 -0.6966
  467MOL0     H63045   5.471   8.149   5.341 -0.9366  2.2906  0.3074
  468MOL0     O63046   9.575   3.978   0.644  0.3008  0.9946 -0.1111
  468MOL0     C63047   9.651   4.061   0.690  0.0512  0.1981 -0.0939
  468MOL0     O63048   9.605   4.173   0.760  0.3257 -0.2941 -0.2043
  468MOL0     C63049   9.473   4.178   0.803 -0.7859 -0.1842 -0.1537
  468MOL0     C63050   9.373   4.207   0.703 -0.7894  0.2065 -0.3495
  468MOL0     C63051   9.242   4.222   0.734  0.3565 -0.5568 -0.4862
  468MOL0     C63052   9.203   4.196   0.868  0.6685  0.8940 -0.1997
  468MOL0     O63053   9.072   4.185   0.900 -0.7595 -0.0115 -0.8743
  468MOL0     C63054   9.000   4.298   0.949 -0.3690  0.2124  1.6572
  468MOL0     C63055   8.925   4.370   0.829 -0.1484  0.4521  1.0455
  468MOL0     C63056   8.810   4.288   0.758 -0.5514  0.2474  0.2303
  468MOL0     C63057   8.676   4.354   0.748  0.1406  0.1285  0.2389
  468MOL0     C63058   8.563   4.252   0.720 -0.2878 -0.0009  0.7001
  468MOL0     C63059   8.432   4.328   0.710  0.3977  0.4074  0.0701
  468MOL0     C63060   8.314   4.239   0.681  0.3394  0.2444  0.2902
  468MOL0     C63061   8.290   4.207   0.529  0.3402  0.3452 -0.3454
  468MOL0     N63062   8.196   4.293   0.455 -0.2208 -0.6140 -0.5722
  468MOL0     C63063   8.221   4.424   0.407 -0.3358  0.3243  0.5051
  468MOL0     C63064   8.100   4.466   0.350  1.1261  0.0545 -0.7698
  468MOL0     C63065   8.081   4.586   0.258 -0.7028  0.2436 -0.4744
  468MOL0     C63066   7.947   4.570   0.181 -0.4365 -0.2387 -0.1353
  468MOL0     C63067   7.931   4.688   0.086 -0.2182 -0.0078  0.4064
  468MOL0     C63068   7.843   4.637  -0.023  0.0736  0.7854 -0.2372
  468MOL0     O63069   7.852   4.732  -0.127  0.7638  0.0168  0.4568
  468MOL0     C63070   7.792   4.856  -0.110 -0.3666 -0.9155  0.0440
  468MOL0     C63071   7.661   4.877  -0.061 -0.8085 -0.6727  0.9896
  468MOL0     C63072   7.612   5.008  -0.086  0.2334  0.6247 -0.6132
  468MOL0     C63073   7.454   5.010  -0.094  0.7841 -0.2670  0.6111
  468MOL0     C63074   7.686   5.122  -0.124  0.3260  0.8074 -0.0141
  468MOL0     C63075   7.629   5.253  -0.161  0.3989  0.4835  0.2016
  468MOL0     O63076   7.513   5.296  -0.103  0.1785  0.5598 -0.3490
  468MOL0     C63077   7.433   5.398  -0.152 -0.2316  0.6312  0.7939
  468MOL0     C63078   7.372   5.384  -0.276  0.3526  0.0072  0.0747
  468MOL0     C63079   7.281   5.484  -0.320 -0.4551 -0.6422  1.0350
  468MOL0     C63080   7.251   5.597  -0.237  0.0313 -0.3899 -1.0262
  468MOL0     O63081   7.165   5.690  -0.281  1.1021 -0.9947 -0.4218
  468MOL0     C63082   7.067   5.745  -0.189 -0.6282  0.5566 -0.3564
  468MOL0     C63083   7.024   5.877  -0.259  0.0900  1.1312 -0.2202
  468MOL0     C63084   6.930   5.958  -0.175 -0.0743  0.1744  0.2424
  468MOL0     C63085   7.009   6.060  -0.080  0.0056  0.7110  0.9652
  468MOL0     C63086   6.916   6.188  -0.042 -0.7162  0.8114  0.6037
  468MOL0     C63087   6.788   6.135   0.043 -0.3512 -0.5916  0.1790
  468MOL0     C63088   6.688   6.237   0.100  0.3600  0.1691  0.2170
  468MOL0     C63089   6.754   6.341   0.192  0.1593  0.0765 -0.6152
  468MOL0    Cl63090   6.837   6.258   0.320 -0.5520 -0.2721 -0.1092
  468MOL0     C63091   7.319   5.602  -0.110  0.5212 -1.1512 -0.2856
  468MOL0     C63092   7.408   5.504  -0.068 -0.6827  0.6843  0.1139
  468MOL0     O63093   7.691   5.310  -0.254 -0.3519  0.5054  0.6405
  468MOL0     C63094   7.820   5.097  -0.154 -0.0098 -0.0387 -0.3972
  468MOL0     C63095   7.868   4.964  -0.146 -1.2968 -0.4876  0.3737
  468MOL0     N63096   8.011   4.362   0.357  0.2331 -0.2457  0.7218
  468MOL0     N63097   8.065   4.265   0.428  1.0810 -0.0793  0.4559
  468MOL0     C63098   9.297   4.150   0.957 -0.1654 -0.5696 -0.3503
  468MOL0     C63099   9.434   4.143   0.932 -0.2771 -0.3234  0.4291
  468MOL0     C63100   9.799   4.048   0.653  0.5304  1.0028 -0.4949
  468MOL0     C63101   9.841   3.938   0.576 -0.0788  0.0972 -0.2225
  468MOL0     C63102   9.972   3.929   0.537 -0.0931 -0.0610  0.2765
  468MOL0     C63103  10.066   4.024   0.567 -0.5401  0.6093 -0.3408
  468MOL0     O63104  10.198   3.999   0.528  0.6711  0.5674 -0.3983
  468MOL0     C63105  10.307   4.069   0.593  0.1103 -0.0318  0.1575
  468MOL0     C63106  10.442   4.013   0.549  0.0397  0.1966 -0.1829
  468MOL0     C63107  10.449   3.862   0.556  0.0478 -0.4308 -0.0450
  468MOL0     C63108  10.577   3.801   0.499 -0.1628 -0.4795 -0.5769
  468MOL0     C63109  10.578   3.814   0.350 -0.4680 -0.1135  0.2688
  468MOL0     C63110  10.572   3.838   0.231  0.6224  0.2149 -0.3374
  468MOL0     C63111  10.027   4.134   0.648 -0.1288 -0.0753  0.0715
  468MOL0     C63112   9.894   4.142   0.693 -0.2623 -0.4103  0.8473
  468MOL0     H63113   9.409   4.246   0.608  0.8008 -1.2162 -0.3622
  468MOL0     H63114   9.168   4.251   0.660 -1.1781  0.4591  1.3562
  468MOL0     H63115   8.930   4.264   1.026 -2.5487 -0.8840 -0.6593
  468MOL0     H63116   9.065   4.376   0.989 -1.4296  1.8076  0.4485
  468MOL0     H63117   8.880   4.461   0.869 -0.3221 -0.9190  4.3130
  468MOL0     H63118   8.999   4.401   0.754 -0.6958  0.3579  0.4629
  468MOL0     H63119   8.836   4.263   0.655 -2.2982 -2.8880  0.4018
  468MOL0     H63120   8.814   4.193   0.812  4.1667  1.0730  1.7514
  468MOL0     H63121   8.641   4.402   0.840 -1.3155 -1.9595  0.8419
  468MOL0     H63122   8.684   4.431   0.670 -1.0750 -0.4798 -0.5293
  468MOL0     H63123   8.587   4.200   0.627  0.6030  0.5900  0.5901
  468MOL0     H63124   8.553   4.172   0.793 -0.9140 -1.3697 -0.8110
  468MOL0     H63125   8.421   4.364   0.813  4.3270 -1.0796  1.1807
  468MOL0     H63126   8.444   4.411   0.639  0.6139 -0.0960 -0.4925
  468MOL0     H63127   8.328   4.138   0.721  1.7415  0.4970  0.5033
  468MOL0     H63128   8.227   4.274   0.737  1.6603  1.3633  1.7499
  468MOL0     H63129   8.239   4.111   0.517 -0.1058  0.4940  0.2700
  468MOL0     H63130   8.385   4.209   0.475 -2.1079 -1.8971 -5.3446
  468MOL0     H63131   8.315   4.473   0.384  0.3907 -1.7336 -1.2749
  468MOL0     H63132   8.088   4.686   0.301  0.3741  1.2824 -2.8471
  468MOL0     H63133   8.163   4.582   0.185 -1.9695  0.4347 -1.9605
  468MOL0     H63134   7.857   4.581   0.242 -1.1799 -3.1739 -0.5543
  468MOL0     H63135   7.944   4.478   0.121  2.2700  0.7641 -1.9673
  468MOL0     H63136   8.021   4.716   0.029 -0.4347  0.3833  0.2539
  468MOL0     H63137   7.901   4.780   0.138  3.4990  1.3157  0.5231
  468MOL0     H63138   7.743   4.616   0.017  1.0375 -1.5143  1.1603
  468MOL0     H63139   7.878   4.545  -0.071 -0.2423 -1.3552  3.3003
  468MOL0     H63140   7.589   4.799  -0.038 -1.8770 -1.0843 -3.0364
  468MOL0     H63141   7.419   4.910  -0.066  0.9685 -0.5515 -0.1556
  468MOL0     H63142   7.412   5.090  -0.031 -0.9913  0.9831 -1.9927
  468MOL0     H63143   7.422   5.027  -0.197 -3.5870  0.9062  1.9226
  468MOL0     H63144   7.396   5.293  -0.330  0.4196 -1.2364  2.0987
  468MOL0     H63145   7.236   5.485  -0.419 -2.6817  2.2026  1.9214
  468MOL0     H63146   6.980   5.679  -0.182 -0.7316  0.7150 -0.1483
  468MOL0     H63147   7.109   5.779  -0.094 -0.6168  0.5601 -0.3628
  468MOL0     H63148   7.115   5.936  -0.276  0.5505  0.5358  0.1149
  468MOL0     H63149   6.979   5.850  -0.356 -3.2959  0.9027  1.2824
  468MOL0     H63150   6.855   5.896  -0.125 -0.2517 -1.1113 -1.5212
  468MOL0     H63151   6.883   6.023  -0.250  2.4915  1.3882 -0.4303
  468MOL0     H63152   7.036   6.001   0.009  1.8691  0.2106  0.1138
  468MOL0     H63153   7.099   6.095  -0.131  0.6033  0.2122  1.6536
  468MOL0     H63154   6.887   6.250  -0.127  3.9013  3.0714  0.3758
  468MOL0     H63155   6.976   6.259   0.016 -0.8853  2.0865 -0.7159
  468MOL0     H63156   6.724   6.078  -0.026  0.1640 -1.5558  0.4718
  468MOL0     H63157   6.821   6.069   0.124 -0.0168 -0.8404 -0.1540
  468MOL0     H63158   6.609   6.185   0.154  0.3997  0.9206  1.0183
  468MOL0     H63159   6.642   6.283   0.012  2.3552 -0.3300 -1.1644
  468MOL0     H63160   6.675   6.411   0.224 -1.0484 -1.5042  0.0040
  468MOL0     H63161   6.831   6.391   0.133 -0.3736  0.6666 -0.8301
  468MOL0     H63162   7.297   5.687  -0.046 -1.2140  0.0594 -2.3760
  468MOL0     H63163   7.456   5.510   0.029 -0.0071  1.8228 -0.2740
  468MOL0     H63164   7.885   5.178  -0.183 -2.4797  2.8787  1.5397
  468MOL0     H63165   7.968   4.948  -0.185 -2.4678  0.9729 -3.6908
  468MOL0     H63166   9.254   4.122   1.053  1.2066 -1.0250  0.1461
  468MOL0     H63167   9.501   4.112   1.011 -0.7903  0.0211  1.0117
  468MOL0     H63168   9.784   3.852   0.545 -0.8520  1.0099 -1.4385
  468MOL0     H63169  10.003   3.843   0.479  2.0056  1.8414 -1.6391
  468MOL0     H63170  10.296   4.174   0.563 -2.4088  0.1657  1.4929
  468MOL0     H63171  10.291   4.070   0.701 -0.8116 -0.1928  0.0330
  468MOL0     H63172  10.519   4.061   0.610  0.6609 -2.1453  0.9977
  468MOL0     H63173  10.467   4.042   0.446 -2.8380  3.3733 -0.1502
  468MOL0     H63174  10.364   3.816   0.505 -2.1495  0.7773  2.3251
  468MOL0     H63175  10.437   3.835   0.661  0.7893 -0.9185 -0.0759
  468MOL0     H63176  10.586   3.701   0.543 -3.1758  0.5767  2.9328
  468MOL0     H63177  10.665   3.857   0.534 -1.3411  1.6259 -0.8301
  468MOL0     H63178  10.559   3.871   0.130  0.1998  1.0810 -0.0113
  468MOL0     H63179  10.092   4.212   0.684  0.3836 -0.7929  0.7448
  468MOL0     H63180   9.858   4.223   0.755 -3.8026  0.7734 -2.3875
  469MOL0     O63181   7.861   2.863   4.504 -0.6466  0.3809 -0.0140
  469MOL0     C63182   7.915   2.918   4.598 -0.2655 -0.0022 -0.1905
  469MOL0     O63183   7.859   2.929   4.717  0.9529 -0.4277  0.0797
  469MOL0     C63184   7.723   2.902   4.735 -0.2227  0.0768  0.0210
  469MOL0     C63185   7.648   3.018   4.755 -0.0355 -0.7727 -0.5572
  469MOL0     C63186   7.513   3.008   4.771  0.8194 -0.3673  0.3115
  469MOL0     C63187   7.458   2.878   4.768  0.7102 -0.2146 -0.5876
  469MOL0     O63188   7.321   2.883   4.805 -0.2754  0.3474 -0.3399
  469MOL0     C63189   7.257   2.764   4.842  1.1997 -0.0568  0.4734
  469MOL0     C63190   7.113   2.787   4.899 -0.3100 -0.1144 -0.4515
  469MOL0     C63191   7.051   2.650   4.925 -0.1981 -0.5747  0.0594
  469MOL0     C63192   6.925   2.665   5.001 -0.4009 -0.6130 -1.1117
  469MOL0     C63193   6.862   2.527   5.028 -0.4915  0.2763  0.0590
  469MOL0     C63194   6.740   2.521   5.122 -0.5713 -0.9261 -0.3719
  469MOL0     C63195   6.620   2.591   5.074  0.5315 -0.5311  0.6325
  469MOL0     C63196   6.517   2.592   5.189  0.1487  0.9578  0.1659
  469MOL0     N63197   6.389   2.663   5.158  0.3389 -0.2472  0.9665
  469MOL0     C63198   6.322   2.669   5.038 -0.0377  0.3298 -0.5887
  469MOL0     C63199   6.213   2.748   5.066 -0.6355  0.0530  0.2984
  469MOL0     C63200   6.125   2.799   4.956 -0.1994 -0.7539  0.2481
  469MOL0     C63201   5.976   2.813   4.999  0.3718 -0.1669  0.4314
  469MOL0     C63202   5.898   2.692   5.048 -0.4331  0.3106 -0.1608
  469MOL0     C63203   5.847   2.601   4.932 -1.2200 -0.1999  0.1530
  469MOL0     O63204   5.767   2.491   4.974 -0.0583 -0.3317 -0.1976
  469MOL0     C63205   5.639   2.508   5.007  0.3071  0.3034  0.9367
  469MOL0     C63206   5.571   2.400   5.064 -0.3764 -0.5974 -0.4763
  469MOL0     C63207   5.450   2.405   5.134 -0.2261 -0.0522 -0.0073
  469MOL0     C63208   5.384   2.272   5.183 -0.8539  0.6771  0.2254
  469MOL0     C63209   5.385   2.536   5.124 -0.8344 -0.3154  0.0424
  469MOL0     C63210   5.257   2.569   5.186 -0.1940  0.6236  0.0068
  469MOL0     O63211   5.183   2.675   5.140 -0.2504  0.1781 -0.6425
  469MOL0     C63212   5.052   2.673   5.182 -0.2315 -0.3571  0.1925
  469MOL0     C63213   4.952   2.614   5.104 -0.4006  0.1241 -0.2833
  469MOL0     C63214   4.827   2.613   5.145 -0.1362 -0.2058 -0.5623
  469MOL0     C63215   4.785   2.648   5.272 -0.6463 -0.3338 -0.3816
  469MOL0     O63216   4.655   2.646   5.319 -0.2321  0.5576 -1.0951
  469MOL0     C63217   4.565   2.559   5.246  0.7393  0.7755 -0.9064
  469MOL0     C63218   4.426   2.606   5.290 -0.3780  0.0765  0.6853
  469MOL0     C63219   4.381   2.578   5.431 -0.1283  0.4668 -0.3147
  469MOL0     C63220   4.231   2.608   5.445 -0.0022 -0.0550  0.2620
  469MOL0     C63221   4.175   2.568   5.587 -0.5712  0.0438  0.0992
  469MOL0     C63222   4.022   2.582   5.610 -0.5956 -0.2051 -0.2472
  469MOL0     C63223   3.988   2.549   5.756  0.1936  0.8244  0.3450
  469MOL0     C63224   4.022   2.405   5.795  0.2762 -0.2926  0.3162
  469MOL0    Cl63225   4.178   2.397   5.867 -0.0150 -0.2401 -0.2797
  469MOL0     C63226   4.880   2.704   5.357  0.1473 -0.1644  1.0665
  469MOL0     C63227   5.012   2.717   5.312  0.1436 -0.0820  0.3990
  469MOL0     O63228   5.243   2.502   5.290  0.4128 -0.0299 -0.8626
  469MOL0     C63229   5.444   2.646   5.054  0.6549 -0.5602 -0.8442
  469MOL0     C63230   5.561   2.628   4.992 -0.1472 -0.0914  0.8704
  469MOL0     N63231   6.216   2.780   5.202 -0.7529  0.0987  1.3331
  469MOL0     N63232   6.311   2.720   5.252 -0.5219 -0.2544  0.2667
  469MOL0     C63233   7.536   2.761   4.743  0.3018  0.1542  0.1348
  469MOL0     C63234   7.665   2.776   4.725 -0.5897  1.0222  0.6066
  469MOL0     C63235   8.062   2.957   4.590  0.7064 -0.5054  0.8720
  469MOL0     C63236   8.142   2.881   4.505 -0.1175 -0.2560 -0.3398
  469MOL0     C63237   8.285   2.904   4.492 -0.0801  0.0012 -0.4976
  469MOL0     C63238   8.338   3.014   4.558 -0.7180 -0.3067  0.3272
  469MOL0     O63239   8.469   3.031   4.521 -0.2566  0.4810 -0.1838
  469MOL0     C63240   8.550   3.081   4.619 -0.2264 -0.7507 -1.0180
  469MOL0     C63241   8.691   3.094   4.571 -0.4588 -0.1107  0.0243
  469MOL0     C63242   8.785   2.992   4.650  0.7816 -0.4638  0.4996
  469MOL0     C63243   8.932   2.988   4.628 -0.4561  0.1701  0.1751
  469MOL0     C63244   8.988   3.120   4.658  0.5122  0.6584 -0.5065
  469MOL0     C63245   9.027   3.236   4.688  0.4711 -0.4825 -0.1284
  469MOL0     C63246   8.259   3.085   4.647 -0.5711 -0.2895  0.0527
  469MOL0     C63247   8.117   3.064   4.654 -0.2004 -0.2669 -0.1710
  469MOL0     H63248   7.706   3.109   4.752  1.1731 -1.2609  3.0046
  469MOL0     H63249   7.450   3.092   4.797  2.9172  1.8407 -1.3133
  469MOL0     H63250   7.243   2.691   4.762 -0.5993  0.1301  0.5770
  469MOL0     H63251   7.313   2.725   4.928  0.2041  0.1211  1.2173
  469MOL0     H63252   7.123   2.825   5.001  1.3078  0.2942 -0.7264
  469MOL0     H63253   7.056   2.850   4.830 -0.4415 -0.8918 -1.0557
  469MOL0     H63254   7.030   2.592   4.834  1.5908  1.3109 -1.6484
  469MOL0     H63255   7.119   2.588   4.985 -0.8946  0.1385  1.6490
  469MOL0     H63256   6.946   2.715   5.096 -0.2645 -1.6574 -0.5853
  469MOL0     H63257   6.859   2.727   4.939  0.9079  2.9912  0.8085
  469MOL0     H63258   6.827   2.479   4.936 -1.1605  1.9294 -0.5795
  469MOL0     H63259   6.945   2.464   5.063 -0.0732  1.1209  0.6145
  469MOL0     H63260   6.721   2.413   5.132 -0.8113 -0.7814  1.0623
  469MOL0     H63261   6.764   2.550   5.225 -1.4332  1.2470 -0.7415
  469MOL0     H63262   6.645   2.692   5.039  0.2529 -0.1960  1.3871
  469MOL0     H63263   6.582   2.538   4.986  0.1895 -1.0590  1.0899
  469MOL0     H63264   6.554   2.643   5.278  0.8264  0.4156  0.2085
  469MOL0     H63265   6.483   2.489   5.209 -1.8870 -1.0383 -8.9316
  469MOL0     H63266   6.365   2.635   4.945  0.7041 -2.4683  0.6466
  469MOL0     H63267   6.153   2.900   4.922  0.9268 -0.4448  1.9318
  469MOL0     H63268   6.120   2.738   4.865 -0.8584  1.6445 -1.4226
  469MOL0     H63269   5.925   2.852   4.911  1.3557 -0.1733 -0.1534
  469MOL0     H63270   5.973   2.879   5.087  3.7829  2.0116 -0.8695
  469MOL0     H63271   5.803   2.717   5.097 -1.0087 -1.3796 -0.3690
  469MOL0     H63272   5.955   2.638   5.125 -1.7513 -3.4273 -1.5820
  469MOL0     H63273   5.935   2.562   4.880  0.4510  2.2174  0.9533
  469MOL0     H63274   5.791   2.659   4.859 -0.4653  1.4812  0.8517
  469MOL0     H63275   5.623   2.305   5.067 -4.5981 -3.1673 -0.6929
  469MOL0     H63276   5.350   2.275   5.287  1.3250 -2.0214  1.1332
  469MOL0     H63277   5.298   2.245   5.121  0.2783 -0.0990 -1.0877
  469MOL0     H63278   5.464   2.197   5.186 -0.0848  1.4453 -0.4734
  469MOL0     H63279   4.981   2.580   5.005  0.2552  1.9928 -0.7781
  469MOL0     H63280   4.759   2.581   5.066  1.8703 -1.6108 -1.8008
  469MOL0     H63281   4.573   2.575   5.138 -1.6969  0.6177 -1.1657
  469MOL0     H63282   4.587   2.455   5.273  2.3042  1.5261  0.9202
  469MOL0     H63283   4.413   2.709   5.255  2.0192  0.1819 -0.0723
  469MOL0     H63284   4.360   2.553   5.222 -0.9676 -0.3686  1.5771
  469MOL0     H63285   4.429   2.649   5.499  0.4431  0.4165 -0.6602
  469MOL0     H63286   4.410   2.476   5.457  1.6006  1.3318  1.3455
  469MOL0     H63287   4.225   2.716   5.425  2.8249 -0.4489 -3.9593
  469MOL0     H63288   4.176   2.553   5.368  0.9341  1.7869 -1.8552
  469MOL0     H63289   4.230   2.628   5.659 -0.5198  0.3668 -0.2037
  469MOL0     H63290   4.195   2.461   5.597 -0.9706 -0.1189 -0.7122
  469MOL0     H63291   4.004   2.689   5.596  1.8982  0.6317  1.9436
  469MOL0     H63292   3.968   2.520   5.538 -0.3314  0.1834 -0.7917
  469MOL0     H63293   3.880   2.569   5.765  0.1991  0.7154  0.6509
  469MOL0     H63294   4.040   2.622   5.820 -0.9775 -0.0960  2.4469
  469MOL0     H63295   4.032   2.338   5.709  2.9532  0.2523  0.1211
  469MOL0     H63296   3.945   2.365   5.862 -0.4092  2.0237  1.0047
  469MOL0     H63297   4.860   2.744   5.456  2.8859 -0.0859  1.6887
  469MOL0     H63298   5.095   2.775   5.353  1.3800  0.2331 -2.3698
  469MOL0     H63299   5.400   2.745   5.058  0.2479 -0.6291 -2.5390
  469MOL0     H63300   5.610   2.713   4.946 -1.6137 -1.0407 -2.8111
  469MOL0     H63301   7.489   2.668   4.716 -1.0821  0.3591  1.6543
  469MOL0     H63302   7.716   2.686   4.693 -2.5053  1.0654 -3.0984
  469MOL0     H63303   8.097   2.791   4.464 -3.8718  0.5767  1.4951
  469MOL0     H63304   8.341   2.834   4.431 -0.5864  0.3755 -1.4253
  469MOL0     H63305   8.518   3.182   4.646  3.3615  0.1441  0.5174
  469MOL0     H63306   8.556   3.028   4.714  1.0921  1.9400  0.5289
  469MOL0     H63307   8.731   3.191   4.602  3.5226 -1.8639  0.9119
  469MOL0     H63308   8.704   3.076   4.464  1.2808 -1.1862  0.3883
  469MOL0     H63309   8.736   2.894   4.651  2.6270 -1.7642 -4.4046
  469MOL0     H63310   8.762   3.016   4.754 -2.0057  0.6615 -0.2844
  469MOL0     H63311   8.974   2.952   4.533 -2.4655  1.7975 -1.4462
  469MOL0     H63312   8.972   2.924   4.707  1.1129  1.5751  0.5742
  469MOL0     H63313   9.064   3.336   4.698  0.4610 -0.6649  2.3653
  469MOL0     H63314   8.304   3.172   4.694  1.1127  0.6744 -3.0391
  469MOL0     H63315   8.056   3.131   4.714  0.9846  1.7398 -1.0801
  470MOL0     O63316   4.231   4.756   4.003  0.3998 -0.6545  0.0261
  470MOL0     C63317   4.194   4.645   3.969  0.0945  0.2771 -0.3336
  470MOL0     O63318   4.123   4.621   3.855  0.0492  0.2460  0.2569
  470MOL0     C63319   4.130   4.706   3.750 -0.4061 -0.1561 -0.7559
  470MOL0     C63320   4.024   4.715   3.663  0.3617 -0.1020  0.3992
  470MOL0     C63321   4.028   4.788   3.537 -0.2713 -0.5015 -0.2864
  470MOL0     C63322   4.148   4.863   3.515  0.0537 -0.5956 -0.4147
  470MOL0     O63323   4.168   4.956   3.422 -0.4258  0.9539  1.0716
  470MOL0     C63324   4.070   4.982   3.322 -0.3753 -0.6641  0.6324
  470MOL0     C63325   4.124   5.090   3.221 -0.1191  0.6171  0.6334
  470MOL0     C63326   4.023   5.122   3.121 -0.5193  0.9412 -0.6093
  470MOL0     C63327   4.082   5.240   3.033 -0.3779  0.3618 -0.2043
  470MOL0     C63328   4.008   5.259   2.903  0.3080 -0.3474  0.9997
  470MOL0     C63329   3.859   5.273   2.931  0.4651  0.1324 -0.1155
  470MOL0     C63330   3.789   5.326   2.809  0.8430 -0.8112  0.3143
  470MOL0     C63331   3.792   5.480   2.794  0.2074  0.4171 -0.1591
  470MOL0     N63332   3.684   5.529   2.713 -0.3660 -0.8529  1.3809
  470MOL0     C63333   3.577   5.585   2.769  0.4505 -0.9113  0.7312
  470MOL0     C63334   3.514   5.649   2.666 -0.2130 -0.4407  0.6045
  470MOL0     C63335   3.395   5.732   2.668 -0.4661 -0.2804 -0.2435
  470MOL0     C63336   3.283   5.631   2.667 -0.3683  0.0084 -0.3404
  470MOL0     C63337   3.147   5.714   2.685  0.8316  0.0101  0.2618
  470MOL0     C63338   3.023   5.627   2.681 -0.3978 -0.3073 -0.3710
  470MOL0     O63339   3.024   5.534   2.563  0.5024 -0.1881  0.1540
  470MOL0     C63340   2.899   5.489   2.522  0.2297  1.1841 -0.4018
  470MOL0     C63341   2.883   5.429   2.393 -0.6704 -0.1090 -0.7348
  470MOL0     C63342   2.765   5.376   2.344  0.0140  0.4057  0.4553
  470MOL0     C63343   2.758   5.323   2.201 -0.4622  0.0625  0.0036
  470MOL0     C63344   2.646   5.409   2.411 -0.4837  0.7061  0.3378
  470MOL0     C63345   2.512   5.363   2.352 -0.0179 -0.0731 -0.2861
  470MOL0     O63346   2.462   5.429   2.245 -0.0134  0.1936  0.1398
  470MOL0     C63347   2.362   5.377   2.171  0.4059  0.7600  0.4985
  470MOL0     C63348   2.381   5.399   2.028 -0.3663  0.0197 -1.1564
  470MOL0     C63349   2.281   5.362   1.939 -0.7427 -0.0575  0.3411
  470MOL0     C63350   2.156   5.308   1.977 -0.0977 -0.1213 -0.4833
  470MOL0     O63351   2.052   5.280   1.892 -0.1088  0.1393  0.2942
  470MOL0     C63352   2.083   5.201   1.777  0.1543 -0.0448 -1.0963
  470MOL0     C63353   2.085   5.056   1.819 -0.3643 -1.0808  0.3632
  470MOL0     C63354   1.955   4.991   1.850  0.7478  0.9971  0.0723
  470MOL0     C63355   1.882   5.038   1.984  0.6789  0.4744  0.1774
  470MOL0     C63356   1.743   4.957   1.997  0.8145 -0.1413 -0.8496
  470MOL0     C63357   1.619   5.026   1.948  0.0873  0.2551  0.0736
  470MOL0     C63358   1.625   5.056   1.801  0.6399 -0.3277  0.0877
  470MOL0     C63359   1.492   5.085   1.730  0.0352  0.3359  0.2779
  470MOL0    Cl63360   1.418   5.213   1.822 -0.4273  0.0292 -0.0450
  470MOL0     C63361   2.134   5.281   2.119 -0.0579  0.0829  0.0290
  470MOL0     C63362   2.246   5.301   2.205  0.6632  0.1695 -0.9082
  470MOL0     O63363   2.455   5.276   2.415  0.0046 -0.1874 -0.2923
  470MOL0     C63364   2.660   5.453   2.545 -0.0549 -0.6207 -0.1358
  470MOL0     C63365   2.786   5.491   2.599  0.0806 -0.5369  0.2356
  470MOL0     N63366   3.586   5.643   2.543 -0.5042  0.4007  0.5277
  470MOL0     N63367   3.687   5.571   2.578 -0.0596  0.8186 -0.2667
  470MOL0     C63368   4.251   4.846   3.602 -0.1280 -0.8805 -0.3168
  470MOL0     C63369   4.252   4.768   3.713 -0.0448 -0.1985 -0.4876
  470MOL0     C63370   4.203   4.535   4.067 -0.3036  0.5102  0.3488
  470MOL0     C63371   4.150   4.401   4.041 -0.0705 -0.1747 -0.3866
  470MOL0     C63372   4.167   4.298   4.129  0.7047 -0.0975 -0.2714
  470MOL0     C63373   4.252   4.314   4.237  0.7165  0.0393 -0.1541
  470MOL0     O63374   4.281   4.220   4.324 -0.1010  0.3492 -0.1141
  470MOL0     C63375   4.268   4.082   4.292  0.9539  1.0033 -0.7796
  470MOL0     C63376   4.211   4.013   4.419 -0.4719 -0.6479  0.7785
  470MOL0     C63377   4.059   4.053   4.417 -0.5903  0.6168  0.2112
  470MOL0     C63378   3.985   4.004   4.544 -0.6095  0.2510  0.0809
  470MOL0     C63379   4.009   3.858   4.564 -0.1755  0.3478  0.1988
  470MOL0     C63380   4.028   3.741   4.568 -0.6334  0.0662  0.1294
  470MOL0     C63381   4.316   4.433   4.259  0.1952  0.8355 -0.4617
  470MOL0     C63382   4.286   4.552   4.184 -0.3228  0.6307  0.0312
  470MOL0     H63383   3.931   4.663   3.685  0.1021 -1.1237 -2.6506
  470MOL0     H63384   3.932   4.804   3.487 -0.9191  1.5613  1.4754
  470MOL0     H63385   4.039   4.895   3.264  0.5657  0.0758 -1.0465
  470MOL0     H63386   3.980   5.031   3.361 -0.8938 -1.5891  0.6164
  470MOL0     H63387   4.167   5.179   3.269  3.4392 -1.3682  1.5761
  470MOL0     H63388   4.204   5.033   3.171 -0.4227 -0.9815  1.8529
  470MOL0     H63389   4.014   5.037   3.053 -0.9551  1.6309 -1.4228
  470MOL0     H63390   3.924   5.150   3.157 -1.0835  0.5495 -1.8061
  470MOL0     H63391   4.089   5.337   3.084 -0.8562 -0.9607  2.5860
  470MOL0     H63392   4.186   5.221   3.006  0.1008  0.2997  1.5636
  470MOL0     H63393   4.049   5.349   2.855  0.1844 -1.2561 -0.9078
  470MOL0     H63394   4.030   5.175   2.836  0.2258 -0.0288  0.5726
  470MOL0     H63395   3.808   5.181   2.960 -0.2754  0.1259 -1.3853
  470MOL0     H63396   3.843   5.338   3.018  1.0339  2.1163 -1.4381
  470MOL0     H63397   3.824   5.277   2.717 -1.0892 -1.0388 -0.3500
  470MOL0     H63398   3.686   5.287   2.814  1.1196 -2.5022 -3.6143
  470MOL0     H63399   3.895   5.493   2.759  0.5273  0.8956  0.9096
  470MOL0     H63400   3.800   5.538   2.886  0.0076  1.2034 -0.6277
  470MOL0     H63401   3.540   5.572   2.870 -2.3930 -2.3675 -0.3801
  470MOL0     H63402   3.404   5.786   2.763 -1.1211  1.0759 -0.9308
  470MOL0     H63403   3.396   5.802   2.584 -2.4937  0.1583  0.0604
  470MOL0     H63404   3.297   5.551   2.741 -2.3170 -0.1096 -0.0430
  470MOL0     H63405   3.278   5.577   2.573 -2.0303  1.5555 -1.2152
  470MOL0     H63406   3.134   5.788   2.605  0.2344  1.0375  1.2841
  470MOL0     H63407   3.145   5.766   2.781  2.1078 -1.0369  0.8837
  470MOL0     H63408   2.932   5.686   2.676 -0.9242 -0.9377  1.1699
  470MOL0     H63409   3.032   5.560   2.767 -0.3429 -0.2316 -0.3182
  470MOL0     H63410   2.982   5.415   2.349  1.2180  0.5207  2.9332
  470MOL0     H63411   2.700   5.230   2.193  0.4265 -0.4868 -0.3066
  470MOL0     H63412   2.720   5.404   2.139 -0.1340  1.6178  1.7647
  470MOL0     H63413   2.857   5.301   2.158 -1.3057  0.2883 -2.1809
  470MOL0     H63414   2.467   5.451   1.988 -0.5600  0.6270 -0.7917
  470MOL0     H63415   2.278   5.387   1.833 -0.2513  0.5087  0.4530
  470MOL0     H63416   1.999   5.216   1.710 -1.6215  1.3517  1.2609
  470MOL0     H63417   2.174   5.231   1.725  0.1617  0.9936 -0.5214
  470MOL0     H63418   2.119   5.003   1.729  2.8009  0.4755  0.5052
  470MOL0     H63419   2.159   5.037   1.897 -1.0522 -0.8302  1.0963
  470MOL0     H63420   1.977   4.884   1.851  0.7343  0.7778 -4.5649
  470MOL0     H63421   1.893   5.001   1.761 -1.7781 -1.4602  1.3842
  470MOL0     H63422   1.945   5.018   2.072  0.6397  0.8823  0.2967
  470MOL0     H63423   1.873   5.146   1.980 -1.2454  0.3390 -3.3371
  470MOL0     H63424   1.744   4.948   2.106 -1.2746  0.1494 -0.7698
  470MOL0     H63425   1.753   4.860   1.948 -1.2155  0.5735 -2.8742
  470MOL0     H63426   1.543   4.952   1.976  2.1479 -2.2796 -0.5602
  470MOL0     H63427   1.605   5.121   2.001 -0.8675  2.3046 -3.5024
  470MOL0     H63428   1.677   4.972   1.752 -1.0069 -0.1066 -2.2198
  470MOL0     H63429   1.685   5.147   1.788  0.8318 -0.8677 -4.5505
  470MOL0     H63430   1.436   4.992   1.735  1.2835 -0.5053 -0.7775
  470MOL0     H63431   1.494   5.119   1.626  0.6621 -1.7665 -0.4394
  470MOL0     H63432   2.035   5.243   2.139  0.2940 -1.1661 -0.4795
  470MOL0     H63433   2.228   5.286   2.311  0.1710  2.8201 -0.5612
  470MOL0     H63434   2.571   5.470   2.605  0.1086  1.8199 -0.4937
  470MOL0     H63435   2.805   5.515   2.703 -2.5238  1.5431  0.3534
  470MOL0     H63436   4.336   4.911   3.585  0.0395 -0.5630  1.5704
  470MOL0     H63437   4.336   4.757   3.781 -2.7019  0.0605  3.1122
  470MOL0     H63438   4.098   4.371   3.951  0.6514  0.4735 -1.0352
  470MOL0     H63439   4.117   4.206   4.101  1.1663  0.2962 -2.6204
  470MOL0     H63440   4.209   4.049   4.206 -2.6992  2.9116  0.7546
  470MOL0     H63441   4.371   4.046   4.279  0.7014  0.4007 -1.1145
  470MOL0     H63442   4.267   4.065   4.497  0.6457 -0.5330 -0.0882
  470MOL0     H63443   4.235   3.907   4.423  1.8712 -0.2376 -0.9414
  470MOL0     H63444   4.020   4.000   4.329  2.1738 -0.9348 -0.1999
  470MOL0     H63445   4.035   4.159   4.409  1.4228  1.1197  0.4603
  470MOL0     H63446   3.877   4.016   4.552 -0.7602 -1.6446  1.6759
  470MOL0     H63447   4.029   4.052   4.632  0.3589 -3.4145  1.7961
  470MOL0     H63448   4.034   3.635   4.554  0.6194  0.3239 -1.5737
  470MOL0     H63449   4.384   4.435   4.343  0.2546 -3.0936 -0.2421
  470MOL0     H63450   4.328   4.649   4.211 -2.0042  0.5154  3.6649
  471MOL0     O63451   6.698   8.083   1.413 -0.0455 -0.1862 -0.3394
  471MOL0     C63452   6.813   8.025   1.417  0.3116 -0.0555 -0.0849
  471MOL0     O63453   6.830   7.895   1.410 -0.2652 -0.4312 -0.9022
  471MOL0     C63454   6.731   7.813   1.456  0.1475 -0.9312  0.5967
  471MOL0     C63455   6.622   7.762   1.369  0.5127  0.3656  1.0404
  471MOL0     C63456   6.516   7.688   1.420 -0.1797  0.1083  0.5827
  471MOL0     C63457   6.509   7.658   1.555 -0.0647 -0.0191 -0.6991
  471MOL0     O63458   6.396   7.594   1.587 -0.0943  0.0299 -0.3202
  471MOL0     C63459   6.371   7.542   1.723  0.2741 -0.0774  0.6728
  471MOL0     C63460   6.208   7.542   1.729 -0.0825  0.1615 -0.6639
  471MOL0     C63461   6.141   7.431   1.658  0.3156 -0.2061  0.7145
  471MOL0     C63462   6.217   7.298   1.645 -0.2630  0.3359  0.0907
  471MOL0     C63463   6.135   7.178   1.598 -0.0311 -0.8315 -0.4727
  471MOL0     C63464   6.230   7.058   1.558  0.0010 -1.0741 -0.1602
  471MOL0     C63465   6.145   6.933   1.521  0.4036  0.3292  0.8938
  471MOL0     C63466   6.243   6.818   1.497  0.2330  0.1077 -0.0383
  471MOL0     N63467   6.173   6.696   1.468 -0.3529  0.0126 -0.4183
  471MOL0     C63468   6.208   6.563   1.491 -0.1798 -0.4709 -0.2048
  471MOL0     C63469   6.117   6.494   1.420  0.2360 -0.0972  0.2700
  471MOL0     C63470   6.106   6.347   1.430  0.1971 -0.4643 -0.4839
  471MOL0     C63471   6.234   6.273   1.443  0.1905 -0.8259 -0.1139
  471MOL0     C63472   6.227   6.124   1.469  0.5405  0.2753 -1.3253
  471MOL0     C63473   6.179   6.052   1.346 -0.8783  0.3253  0.1577
  471MOL0     O63474   6.242   6.086   1.225  0.3464 -0.2505 -0.1094
  471MOL0     C63475   6.376   6.078   1.204 -0.7484  0.5450 -0.4851
  471MOL0     C63476   6.471   6.003   1.280 -0.2361 -0.5600  0.3720
  471MOL0     C63477   6.618   6.006   1.265  0.3912 -0.4247 -0.0708
  471MOL0     C63478   6.699   5.915   1.349 -0.2612 -0.4000 -0.3538
  471MOL0     C63479   6.664   6.091   1.164 -0.0764 -0.1125  0.0590
  471MOL0     C63480   6.805   6.076   1.119 -0.5861 -1.2561 -0.4358
  471MOL0     O63481   6.909   6.092   1.209  0.0026 -0.0020  0.0630
  471MOL0     C63482   7.041   6.152   1.185  0.9924 -0.8484 -0.3817
  471MOL0     C63483   7.101   6.160   1.059 -0.5996 -0.4213 -0.0166
  471MOL0     C63484   7.218   6.219   1.045 -0.3721  0.1699 -0.4016
  471MOL0     C63485   7.289   6.263   1.153  0.2572  0.3237  0.0372
  471MOL0     O63486   7.408   6.324   1.124 -0.4741  0.4877 -0.3250
  471MOL0     C63487   7.437   6.439   1.208  0.4228 -0.5376  0.5272
  471MOL0     C63488   7.564   6.499   1.139 -0.0580  0.5076  0.7102
  471MOL0     C63489   7.537   6.607   1.042 -0.8698 -0.0717  0.5666
  471MOL0     C63490   7.664   6.685   1.009  0.6534 -0.3694 -0.5761
  471MOL0     C63491   7.637   6.795   0.906  0.3496 -0.2752  0.2941
  471MOL0     C63492   7.763   6.868   0.859  0.1716 -0.3032 -0.6000
  471MOL0     C63493   7.842   6.783   0.756 -0.7348  0.2630 -0.5380
  471MOL0     C63494   7.965   6.859   0.700  0.8643 -0.3870  0.3035
  471MOL0    Cl63495   8.096   6.890   0.824  0.2497  0.2867  0.1326
  471MOL0     C63496   7.224   6.260   1.273  0.6169 -0.0542 -0.1680
  471MOL0     C63497   7.099   6.207   1.301  0.0506 -0.4277  0.4177
  471MOL0     O63498   6.822   6.084   0.999  0.1027 -0.4935 -1.2960
  471MOL0     C63499   6.569   6.160   1.086  0.2531 -0.1607  0.2756
  471MOL0     C63500   6.431   6.155   1.103  0.0802 -0.0574 -0.2558
  471MOL0     N63501   6.025   6.585   1.356  0.8444  0.4238 -1.1578
  471MOL0     N63502   6.066   6.700   1.391  0.5320  0.3804  0.5905
  471MOL0     C63503   6.611   7.703   1.646 -0.4561 -0.4434  1.0040
  471MOL0     C63504   6.724   7.782   1.585  0.2635  0.4527 -0.3756
  471MOL0     C63505   6.928   8.107   1.429 -0.5123 -0.1074 -0.0918
  471MOL0     C63506   7.060   8.060   1.447  0.8003 -0.6117 -0.5604
  471MOL0     C63507   7.166   8.141   1.472 -1.0364  0.6652 -0.0269
  471MOL0     C63508   7.150   8.274   1.471  0.3502 -1.7806 -0.0738
  471MOL0     O63509   7.257   8.355   1.493 -0.2503  0.4112 -0.0995
  471MOL0     C63510   7.300   8.447   1.399 -0.8351  0.1449 -0.2698
  471MOL0     C63511   7.449   8.423   1.366  0.4960 -0.0432 -0.6398
  471MOL0     C63512   7.490   8.276   1.323  0.2119 -0.5148 -1.0094
  471MOL0     C63513   7.417   8.227   1.205  0.4191  0.1443  0.1113
  471MOL0     C63514   7.488   8.268   1.091 -0.0943  0.1367  1.0007
  471MOL0     C63515   7.551   8.312   0.997  0.3149  0.2162  0.2585
  471MOL0     C63516   7.020   8.329   1.444 -0.5465 -1.1530  0.1992
  471MOL0     C63517   6.909   8.245   1.425  0.3640 -0.9668 -0.8031
  471MOL0     H63518   6.624   7.773   1.261 -0.7026 -1.2443  0.8067
  471MOL0     H63519   6.443   7.650   1.349 -0.2739  1.9042 -0.3455
  471MOL0     H63520   6.411   7.443   1.747 -2.3827 -0.9003  2.1267
  471MOL0     H63521   6.403   7.617   1.797  0.4538  0.3821  0.1370
  471MOL0     H63522   6.176   7.537   1.833 -1.5207  0.9682 -1.0334
  471MOL0     H63523   6.163   7.629   1.680 -0.5525 -1.1767 -2.7418
  471MOL0     H63524   6.043   7.410   1.702 -0.7153  0.9517 -0.9025
  471MOL0     H63525   6.118   7.458   1.554  0.4494 -0.2420  0.6749
  471MOL0     H63526   6.300   7.306   1.575  0.3698 -2.3607  0.4330
  471MOL0     H63527   6.253   7.267   1.743  1.1190 -1.3102 -0.8932
  471MOL0     H63528   6.081   7.146   1.688  1.0472 -3.1472 -0.5692
  471MOL0     H63529   6.062   7.211   1.523  0.6918  2.4029  0.1340
  471MOL0     H63530   6.295   7.098   1.480 -0.8126  1.3271  0.3139
  471MOL0     H63531   6.296   7.028   1.640 -0.3719 -1.0336  0.1540
  471MOL0     H63532   6.074   6.911   1.601  0.9170 -0.1598  1.2187
  471MOL0     H63533   6.091   6.956   1.428 -0.7588 -0.3536  1.3820
  471MOL0     H63534   6.303   6.800   1.587 -1.6453 -0.7422  1.1243
  471MOL0     H63535   6.306   6.837   1.410  1.6081  1.2912  1.1722
  471MOL0     H63536   6.298   6.530   1.541  0.5312  2.3964  0.6419
  471MOL0     H63537   6.053   6.319   1.521 -0.8560 -1.1562 -1.2833
  471MOL0     H63538   6.056   6.303   1.344  4.0984 -0.5354 -2.9778
  471MOL0     H63539   6.298   6.311   1.524 -1.2532 -2.1750  1.7352
  471MOL0     H63540   6.287   6.297   1.350  1.0860  0.0972  0.6075
  471MOL0     H63541   6.160   6.099   1.551  1.6261 -0.0883 -0.5161
  471MOL0     H63542   6.326   6.096   1.507 -0.3777 -0.4136  0.7060
  471MOL0     H63543   6.073   6.077   1.341 -0.3416  2.8487 -0.3027
  471MOL0     H63544   6.191   5.944   1.355  2.3110  0.7289  3.3741
  471MOL0     H63545   6.429   5.935   1.352 -0.8446 -1.7920 -1.1013
  471MOL0     H63546   6.624   5.871   1.417 -0.2020 -0.4865 -0.3444
  471MOL0     H63547   6.759   5.838   1.300 -0.3710 -1.6525  1.3687
  471MOL0     H63548   6.766   5.975   1.412  0.5150 -0.5846 -0.9924
  471MOL0     H63549   7.069   6.115   0.965  0.4054  2.9316 -2.1357
  471MOL0     H63550   7.252   6.228   0.942 -0.9761  2.2342 -0.4492
  471MOL0     H63551   7.358   6.513   1.221 -0.0210 -0.7033 -1.0050
  471MOL0     H63552   7.467   6.397   1.305 -0.3220 -0.1312  0.9399
  471MOL0     H63553   7.607   6.551   1.226 -1.6478  1.0456  1.2059
  471MOL0     H63554   7.633   6.419   1.110  0.6920  0.7798  1.6824
  471MOL0     H63555   7.460   6.677   1.075 -0.9140  0.5513 -0.7885
  471MOL0     H63556   7.504   6.566   0.946  1.0044  0.5995 -0.4095
  471MOL0     H63557   7.707   6.727   1.101 -3.0005 -3.1045  2.7141
  471MOL0     H63558   7.741   6.614   0.976  0.6017 -0.6400 -0.1385
  471MOL0     H63559   7.558   6.862   0.943 -0.7196 -2.1664  1.6596
  471MOL0     H63560   7.591   6.748   0.819  0.3616  0.5020 -0.1400
  471MOL0     H63561   7.726   6.956   0.806 -0.8442  0.3951  1.2194
  471MOL0     H63562   7.824   6.901   0.943  0.1833 -0.0470 -0.7089
  471MOL0     H63563   7.779   6.749   0.673 -1.3580 -0.8264  0.3559
  471MOL0     H63564   7.891   6.700   0.807 -0.2890 -1.6073 -3.7429
  471MOL0     H63565   7.926   6.948   0.650  1.6598 -0.1990  0.0055
  471MOL0     H63566   8.012   6.792   0.627  0.3046  0.3591 -0.7670
  471MOL0     H63567   7.262   6.304   1.364 -0.6626  0.6678  0.0404
  471MOL0     H63568   7.056   6.207   1.401  0.7478 -1.0058  0.7245
  471MOL0     H63569   6.601   6.218   1.000 -0.0170  0.7693  0.7956
  471MOL0     H63570   6.374   6.220   1.037  1.2904  0.0950 -1.2134
  471MOL0     H63571   6.601   7.690   1.753 -2.8510 -0.7444  0.7968
  471MOL0     H63572   6.804   7.816   1.651  0.8441 -0.5502 -0.5492
  471MOL0     H63573   7.074   7.954   1.466 -0.9624 -0.8172 -0.2029
  471MOL0     H63574   7.262   8.096   1.490 -2.2659 -2.3160 -0.3242
  471MOL0     H63575   7.245   8.459   1.305 -2.4609  1.7257  0.8186
  471MOL0     H63576   7.287   8.546   1.444  0.7659  1.7622 -3.0861
  471MOL0     H63577   7.510   8.441   1.455 -0.3097 -2.1366  0.4176
  471MOL0     H63578   7.475   8.493   1.286  1.3429 -0.5624 -0.8351
  471MOL0     H63579   7.463   8.214   1.409  1.5949  0.1061 -0.1065
  471MOL0     H63580   7.598   8.276   1.334  0.2159  1.2425 -0.7429
  471MOL0     H63581   7.318   8.275   1.209 -0.6472 -1.8329 -1.1145
  471MOL0     H63582   7.413   8.118   1.206  1.4862  0.0331 -2.0937
  471MOL0     H63583   7.601   8.344   0.907  0.9520  1.8176  1.1494
  471MOL0     H63584   7.003   8.431   1.411  0.1657 -1.6918 -1.9835
  471MOL0     H63585   6.813   8.286   1.396  0.0083  0.8080  2.4227
  472MOL0     O63586   1.359   2.341   2.489  0.4072 -0.4580 -0.2483
  472MOL0     C63587   1.402   2.459   2.489 -0.1875  0.1975 -0.3860
  472MOL0     O63588   1.326   2.561   2.509  0.4561  0.6278 -0.2405
  472MOL0     C63589   1.205   2.542   2.559 -0.3528 -0.9252 -0.3818
  472MOL0     C63590   1.095   2.547   2.482 -0.7963 -0.2425  0.5996
  472MOL0     C63591   0.969   2.539   2.547 -0.0168  0.3116 -1.0220
  472MOL0     C63592   0.956   2.528   2.682  0.4763  0.0025  0.4695
  472MOL0     O63593   0.828   2.506   2.726  0.2060  0.6847 -0.5214
  472MOL0     C63594   0.819   2.430   2.851  0.2578 -0.1239 -0.1941
  472MOL0     C63595   0.677   2.400   2.879  0.3473  0.0077 -0.3892
  472MOL0     C63596   0.667   2.348   3.021  0.6042 -0.5629 -0.4622
  472MOL0     C63597   0.530   2.373   3.097 -0.0872 -0.1784  0.8629
  472MOL0     C63598   0.543   2.332   3.249 -0.2113 -0.0741 -0.2148
  472MOL0     C63599   0.439   2.395   3.341  1.1399  1.0384 -0.3403
  472MOL0     C63600   0.466   2.358   3.485  0.5784  0.8433 -0.7421
  472MOL0     C63601   0.373   2.430   3.579 -0.2441 -0.5064  1.4476
  472MOL0     N63602   0.399   2.574   3.590 -0.2888 -0.4041 -0.3325
  472MOL0     C63603   0.364   2.675   3.513  0.4932 -0.0095 -0.4673
  472MOL0     C63604   0.402   2.792   3.577  0.2477 -0.5006  0.4559
  472MOL0     C63605   0.367   2.931   3.525  0.1219 -0.8789 -0.0428
  472MOL0     C63606   0.291   3.020   3.613  0.4943  0.3724  0.1176
  472MOL0     C63607   0.279   3.162   3.559  0.4395  1.1042  0.3738
  472MOL0     C63608   0.239   3.265   3.667  0.2770 -0.6682 -0.2098
  472MOL0     O63609   0.138   3.357   3.604 -0.4500 -0.2456  0.9137
  472MOL0     C63610   0.107   3.462   3.686  0.7645 -0.0100  0.1702
  472MOL0     C63611   0.182   3.578   3.694  0.4797 -0.5949  0.2573
  472MOL0     C63612   0.160   3.700   3.766 -0.7107  2.0325 -0.3448
  472MOL0     C63613   0.245   3.816   3.743 -0.5426 -0.2669 -0.4256
  472MOL0     C63614   0.060   3.690   3.866  0.5486  0.4224  0.1179
  472MOL0     C63615   0.024   3.799   3.972  0.1241 -0.4701 -0.2342
  472MOL0     O63616  -0.087   3.799   4.042  0.5249  0.3518  0.9114
  472MOL0     C63617  -0.122   3.902   4.124  0.6767 -0.9671 -0.3302
  472MOL0     C63618  -0.137   4.035   4.076  0.1968 -0.3285  0.6142
  472MOL0     C63619  -0.173   4.136   4.162  0.6603  0.2761 -1.1604
  472MOL0     C63620  -0.189   4.111   4.303  1.0922  1.3530  0.8328
  472MOL0     O63621  -0.207   4.202   4.396 -0.0206 -0.3755  0.7855
  472MOL0     C63622  -0.143   4.329   4.372  0.1129 -0.5458  0.5429
  472MOL0     C63623  -0.129   4.401   4.509  0.3455 -1.2326  0.2386
  472MOL0     C63624  -0.265   4.468   4.561 -0.6594 -0.5086 -0.3541
  472MOL0     C63625  -0.301   4.600   4.496 -0.1611  0.9428 -0.3837
  472MOL0     C63626  -0.421   4.663   4.557  0.3876  0.3463  0.4640
  472MOL0     C63627  -0.449   4.800   4.514  0.3237  0.2877 -1.0711
  472MOL0     C63628  -0.330   4.898   4.555 -0.4665 -0.1788 -0.7523
  472MOL0     C63629  -0.366   5.041   4.558  0.2800  1.0863  0.4202
  472MOL0    Cl63630  -0.375   5.100   4.395  0.6728  0.4139 -0.2795
  472MOL0     C63631  -0.169   3.981   4.351  1.8283 -0.0713 -0.0375
  472MOL0     C63632  -0.135   3.884   4.260 -0.1782  0.6632 -0.3960
  472MOL0     O63633   0.109   3.883   3.992  0.1278  0.5869 -0.6868
  472MOL0     C63634  -0.017   3.569   3.865 -0.0590  0.2099  0.3078
  472MOL0     C63635  -0.006   3.465   3.767 -0.9699 -0.6683 -0.6036
  472MOL0     N63636   0.446   2.753   3.704 -0.0475  0.7589  0.2693
  472MOL0     N63637   0.436   2.627   3.705 -0.7119 -0.6574 -0.2122
  472MOL0     C63638   1.072   2.528   2.755 -0.4083 -0.0113  0.0339
  472MOL0     C63639   1.192   2.540   2.695 -0.9583  0.4087  0.3677
  472MOL0     C63640   1.550   2.479   2.468 -0.6726 -0.2251 -0.1915
  472MOL0     C63641   1.613   2.607   2.494  0.2538  1.3131 -0.1577
  472MOL0     C63642   1.745   2.625   2.464  0.8015  1.0721 -0.1880
  472MOL0     C63643   1.823   2.526   2.402  0.0255  0.4897 -0.1228
  472MOL0     O63644   1.954   2.543   2.380 -0.3140  0.7277 -0.2774
  472MOL0     C63645   2.011   2.678   2.382 -0.1416 -1.4642  0.2689
  472MOL0     C63646   2.142   2.686   2.310  0.4650  0.1121 -0.2951
  472MOL0     C63647   2.250   2.622   2.401  1.1613  0.8625  0.3562
  472MOL0     C63648   2.391   2.680   2.383  0.3397 -0.3087  0.5303
  472MOL0     C63649   2.448   2.628   2.265 -0.0681  0.4451 -0.4282
  472MOL0     C63650   2.499   2.587   2.168  1.3881 -0.0289 -0.2996
  472MOL0     C63651   1.761   2.404   2.383 -0.6458  0.0155 -0.7142
  472MOL0     C63652   1.631   2.378   2.419 -0.0476 -0.5625 -0.5026
  472MOL0     H63653   1.096   2.549   2.374 -1.5353 -3.2416  0.4498
  472MOL0     H63654   0.879   2.522   2.489 -0.8342 -3.1550  0.9523
  472MOL0     H63655   0.861   2.333   2.823 -1.2826 -0.8532 -0.0921
  472MOL0     H63656   0.874   2.486   2.927  2.5842 -2.1070 -0.2649
  472MOL0     H63657   0.626   2.497   2.875  1.2922  0.4664 -2.3629
  472MOL0     H63658   0.633   2.334   2.805 -0.8930  1.6787 -1.2169
  472MOL0     H63659   0.682   2.240   3.028  1.4896 -0.3764  0.6901
  472MOL0     H63660   0.742   2.398   3.082 -0.5291 -2.7039  2.9389
  472MOL0     H63661   0.491   2.474   3.086 -2.1243 -1.1391 -1.9813
  472MOL0     H63662   0.453   2.317   3.043 -0.1681  1.4975 -0.8703
  472MOL0     H63663   0.545   2.223   3.257 -2.2589 -0.2212 -1.0509
  472MOL0     H63664   0.640   2.361   3.290  0.6857 -3.3285  0.1934
  472MOL0     H63665   0.443   2.504   3.331 -0.3839  1.2045  0.4667
  472MOL0     H63666   0.338   2.364   3.315  0.7920 -0.2337  2.1967
  472MOL0     H63667   0.437   2.253   3.491 -1.0172  1.2968  0.2763
  472MOL0     H63668   0.570   2.374   3.514  0.6055  0.5118 -0.6509
  472MOL0     H63669   0.380   2.372   3.672 -1.5378 -2.6189  0.2984
  472MOL0     H63670   0.270   2.421   3.545  0.2130  0.1008 -0.1760
  472MOL0     H63671   0.318   2.671   3.415  1.9267 -1.1926 -1.1193
  472MOL0     H63672   0.465   2.969   3.495  0.2560 -2.3873 -1.7537
  472MOL0     H63673   0.307   2.923   3.433 -0.9911  1.6602  0.3816
  472MOL0     H63674   0.334   3.021   3.713 -1.3597 -0.4781  0.9874
  472MOL0     H63675   0.198   2.964   3.632  1.2523 -0.6398  0.9389
  472MOL0     H63676   0.207   3.171   3.476  0.1626  1.5060  0.6549
  472MOL0     H63677   0.373   3.196   3.514 -0.4232  1.7876 -0.9772
  472MOL0     H63678   0.329   3.311   3.708 -1.0445 -0.1268  2.2887
  472MOL0     H63679   0.184   3.214   3.747 -0.7745 -1.0498 -1.1579
  472MOL0     H63680   0.263   3.576   3.621  0.3631  0.1497  0.0999
  472MOL0     H63681   0.305   3.844   3.831 -1.1317 -2.4209  0.7337
  472MOL0     H63682   0.303   3.805   3.651 -3.3835 -1.5905 -2.1759
  472MOL0     H63683   0.184   3.905   3.724  0.9759  0.7375 -0.7924
  472MOL0     H63684  -0.124   4.060   3.971 -2.0139 -2.8481 -0.3783
  472MOL0     H63685  -0.198   4.238   4.133 -0.6886  0.3230  0.1041
  472MOL0     H63686  -0.043   4.315   4.332 -0.1140  2.5387 -1.4030
  472MOL0     H63687  -0.204   4.387   4.302  0.8695 -1.5487 -0.9761
  472MOL0     H63688  -0.089   4.322   4.573 -2.3922 -2.6176  0.3917
  472MOL0     H63689  -0.052   4.479   4.506 -1.3503  0.5188 -0.4725
  472MOL0     H63690  -0.265   4.490   4.668  2.4885 -0.1099 -0.3446
  472MOL0     H63691  -0.347   4.399   4.540 -1.4894  0.6108 -0.9394
  472MOL0     H63692  -0.207   4.654   4.513  0.7497 -0.0582 -1.9428
  472MOL0     H63693  -0.308   4.596   4.387  2.1115  0.2790 -0.5712
  472MOL0     H63694  -0.406   4.657   4.665 -1.5872 -2.1254  0.6809
  472MOL0     H63695  -0.509   4.602   4.536 -0.5254  1.6723  0.3399
  472MOL0     H63696  -0.481   4.799   4.409 -0.6601 -1.4399 -0.7846
  472MOL0     H63697  -0.542   4.832   4.560 -0.7188 -1.7439 -1.6621
  472MOL0     H63698  -0.237   4.883   4.499 -1.6366 -0.9368 -2.6075
  472MOL0     H63699  -0.293   4.880   4.656  2.4921 -0.9700 -1.8729
  472MOL0     H63700  -0.292   5.091   4.620  2.9211 -1.1318 -0.7195
  472MOL0     H63701  -0.467   5.062   4.596 -2.2471 -2.4691 -3.3166
  472MOL0     H63702  -0.180   3.956   4.456  2.6604 -0.1377  0.0357
  472MOL0     H63703  -0.125   3.777   4.280 -1.7119  0.6607  0.5445
  472MOL0     H63704  -0.092   3.551   3.942 -2.9625  0.5597 -2.2143
  472MOL0     H63705  -0.058   3.371   3.784 -1.2530 -0.1122  1.9116
  472MOL0     H63706   1.084   2.510   2.861  1.8714 -2.2096 -0.4867
  472MOL0     H63707   1.289   2.538   2.744 -1.1273  0.2332  0.7004
  472MOL0     H63708   1.549   2.690   2.524  1.7113  2.4189  0.0297
  472MOL0     H63709   1.787   2.724   2.479 -0.8936  1.6233  1.3424
  472MOL0     H63710   1.949   2.750   2.327  1.0222 -1.1482 -0.6685
  472MOL0     H63711   2.022   2.713   2.485  3.0074 -0.4451 -0.3078
  472MOL0     H63712   2.167   2.791   2.292 -2.5675  1.0757  0.4496
  472MOL0     H63713   2.144   2.631   2.215  3.3305  1.0476 -0.8770
  472MOL0     H63714   2.259   2.513   2.393 -1.3073  0.6990 -1.4044
  472MOL0     H63715   2.220   2.641   2.504  0.7007  2.2587 -0.0139
  472MOL0     H63716   2.453   2.662   2.471 -0.9111 -0.5100  1.4000
  472MOL0     H63717   2.388   2.790   2.386  3.0605 -0.1937  2.0747
  472MOL0     H63718   2.522   2.547   2.071 -2.1841 -0.6991 -1.0121
  472MOL0     H63719   1.803   2.317   2.334  0.4038 -0.3103  0.7006
  472MOL0     H63720   1.605   2.274   2.401  3.4250 -1.0393 -4.0170
  473MOL0     O63721   7.902   5.006   9.255 -0.3563 -0.0980  0.2203
  473MOL0     C63722   7.889   5.122   9.282  0.9999 -0.3691  0.0529
  473MOL0     O63723   7.773   5.175   9.346  0.2679  0.5441  0.1645
  473MOL0     C63724   7.684   5.077   9.381 -0.5202  0.3228  0.0601
  473MOL0     C63725   7.669   5.028   9.512 -0.3068  0.0591  0.3627
  473MOL0     C63726   7.577   4.937   9.546 -0.3232  0.6277  0.2131
  473MOL0     C63727   7.474   4.891   9.453 -1.1324  0.1927 -0.3097
  473MOL0     O63728   7.395   4.789   9.494  1.2462 -0.3618  0.1634
  473MOL0     C63729   7.288   4.759   9.408 -0.3850  0.8743  0.0378
  473MOL0     C63730   7.165   4.706   9.489  0.6505 -0.5261 -0.8086
  473MOL0     C63731   7.130   4.567   9.454 -0.5899 -1.0553  0.6809
  473MOL0     C63732   7.015   4.515   9.544 -0.3604 -0.6371  0.2580
  473MOL0     C63733   6.975   4.370   9.508  0.1014  0.2198 -0.2377
  473MOL0     C63734   6.934   4.348   9.362  0.4988  0.1955  0.4183
  473MOL0     C63735   6.809   4.438   9.339  0.0389  0.8539 -0.5166
  473MOL0     C63736   6.726   4.395   9.217  0.0168  0.1797  0.7340
  473MOL0     N63737   6.589   4.449   9.220 -0.0089 -0.9575 -0.4076
  473MOL0     C63738   6.500   4.418   9.125  0.3635 -0.2092 -0.1177
  473MOL0     C63739   6.394   4.497   9.146  0.2831 -0.5334  0.7425
  473MOL0     C63740   6.273   4.512   9.056 -0.6788  0.9458  0.3703
  473MOL0     C63741   6.216   4.376   9.008 -0.1211 -0.6370 -0.8205
  473MOL0     C63742   6.260   4.320   8.872 -0.5641  0.5288 -0.0152
  473MOL0     C63743   6.304   4.418   8.770 -0.5263  0.8241  0.4456
  473MOL0     O63744   6.206   4.517   8.739  0.1500  0.4721  0.6992
  473MOL0     C63745   6.074   4.494   8.694  0.2959 -0.5640 -0.0160
  473MOL0     C63746   5.978   4.593   8.725 -0.7430  0.9814  0.0375
  473MOL0     C63747   5.846   4.576   8.676 -0.1753 -0.1974 -0.0536
  473MOL0     C63748   5.758   4.689   8.723  0.1656  0.2262 -0.1469
  473MOL0     C63749   5.813   4.471   8.582  0.2329 -0.6501 -0.3454
  473MOL0     C63750   5.678   4.448   8.520  0.3032  0.1898  0.3609
  473MOL0     O63751   5.659   4.327   8.455 -0.1870  0.0698 -0.2897
  473MOL0     C63752   5.551   4.334   8.376  0.2571  0.3277  0.2011
  473MOL0     C63753   5.439   4.268   8.404  0.2827 -0.4923 -0.1902
  473MOL0     C63754   5.328   4.275   8.318 -0.4366  0.5599  0.7694
  473MOL0     C63755   5.340   4.333   8.189 -0.3343 -1.1437  0.3790
  473MOL0     O63756   5.246   4.340   8.091 -0.0712  0.6459  0.4260
  473MOL0     C63757   5.132   4.249   8.090 -0.2763  0.8227 -0.0426
  473MOL0     C63758   5.050   4.258   7.965 -0.4411 -0.7460 -0.1243
  473MOL0     C63759   4.985   4.396   7.953  0.1652  0.2993  0.6730
  473MOL0     C63760   4.880   4.428   8.051 -0.2727 -0.5597  0.3911
  473MOL0     C63761   4.829   4.575   8.041  0.7665 -0.5040 -0.1288
  473MOL0     C63762   4.756   4.614   7.905 -0.1088 -0.4418 -0.0185
  473MOL0     C63763   4.637   4.522   7.859 -0.6074 -0.0955 -0.1762
  473MOL0     C63764   4.576   4.578   7.740  0.9064  0.4198  0.9460
  473MOL0    Cl63765   4.501   4.739   7.745 -0.3396  0.5409  0.4892
  473MOL0     C63766   5.460   4.398   8.160 -0.5496  0.1741  0.2246
  473MOL0     C63767   5.562   4.399   8.250 -0.7920  0.9194  0.2254
  473MOL0     O63768   5.593   4.539   8.529 -0.3969  0.2831  0.2342
  473MOL0     C63769   5.916   4.374   8.571 -0.3044  0.4546  0.1782
  473MOL0     C63770   6.043   4.382   8.623  0.3105 -0.3842 -0.1930
  473MOL0     N63771   6.422   4.578   9.253  0.4405  0.2048  0.1945
  473MOL0     N63772   6.534   4.544   9.307 -0.6558 -0.1511  0.8855
  473MOL0     C63773   7.498   4.938   9.322  0.6305  0.4839 -0.8520
  473MOL0     C63774   7.597   5.014   9.286  0.2691  0.0760 -0.3293
  473MOL0     C63775   7.993   5.215   9.232 -1.6854 -0.2141 -0.0464
  473MOL0     C63776   7.971   5.357   9.256  0.1116  0.3469  0.0083
  473MOL0     C63777   8.068   5.459   9.225  0.5242  0.7082 -0.5667
  473MOL0     C63778   8.189   5.419   9.153  0.0330  0.3145  0.8610
  473MOL0     O63779   8.301   5.492   9.109  0.5252  0.4168  1.2298
  473MOL0     C63780   8.271   5.638   9.115  0.2421  0.2536  0.9020
  473MOL0     C63781   8.309   5.709   9.237  0.0975 -0.1800 -0.2389
  473MOL0     C63782   8.453   5.656   9.287  0.2833  0.2409  0.1533
  473MOL0     C63783   8.555   5.740   9.213 -0.2900 -0.3702  0.3410
  473MOL0     C63784   8.695   5.707   9.250 -0.0587  0.6864  0.4472
  473MOL0     C63785   8.807   5.673   9.283 -0.3562 -0.2404 -0.5028
  473MOL0     C63786   8.206   5.282   9.126 -0.2093  0.0105 -0.9443
  473MOL0     C63787   8.118   5.177   9.173 -0.8529 -0.8035  0.5348
  473MOL0     H63788   7.730   5.078   9.586  1.8199 -1.2978 -0.3650
  473MOL0     H63789   7.573   4.916   9.653  5.2217  0.6796  0.7551
  473MOL0     H63790   7.258   4.830   9.330 -0.9105 -0.9099 -1.4431
  473MOL0     H63791   7.334   4.675   9.356 -1.7330 -0.9970  1.7308
  473MOL0     H63792   7.186   4.702   9.596  0.9568  0.0494 -0.8448
  473MOL0     H63793   7.077   4.770   9.476  0.8380 -0.2778 -0.8749
  473MOL0     H63794   7.102   4.567   9.348  3.8427  0.4173 -0.7056
  473MOL0     H63795   7.218   4.507   9.474 -1.3166 -1.0549  4.8350
  473MOL0     H63796   7.039   4.529   9.649  1.5881  3.5991 -0.5361
  473MOL0     H63797   6.928   4.576   9.518 -0.5396 -0.9265  0.1705
  473MOL0     H63798   7.066   4.317   9.537  0.9678  2.1099  0.6756
  473MOL0     H63799   6.891   4.334   9.568 -0.8050  1.4196 -0.7366
  473MOL0     H63800   7.003   4.386   9.286 -0.7985  2.1495  0.1442
  473MOL0     H63801   6.915   4.242   9.343  0.6520  0.0142  1.2483
  473MOL0     H63802   6.746   4.430   9.428 -0.6201  2.9752 -0.7429
  473MOL0     H63803   6.835   4.542   9.317  1.0576  1.1382  1.7744
  473MOL0     H63804   6.729   4.286   9.209  2.9992  0.0946  1.6096
  473MOL0     H63805   6.769   4.443   9.129  0.3660 -0.0242  0.7903
  473MOL0     H63806   6.506   4.348   9.042 -0.0341 -0.8832  0.4139
  473MOL0     H63807   6.197   4.564   9.115 -2.6697 -0.3994 -0.8540
  473MOL0     H63808   6.289   4.570   8.965  0.6886 -3.1298 -2.2482
  473MOL0     H63809   6.108   4.396   9.000  0.4108  2.0397 -3.0548
  473MOL0     H63810   6.229   4.295   9.079 -3.2994  2.0914  3.3647
  473MOL0     H63811   6.179   4.263   8.826 -0.6784  0.0827  0.7323
  473MOL0     H63812   6.348   4.258   8.892 -0.4237  1.3397  2.1634
  473MOL0     H63813   6.349   4.370   8.682  2.9156  3.1937  0.6965
  473MOL0     H63814   6.400   4.464   8.798  0.5516  0.0334 -1.7130
  473MOL0     H63815   6.010   4.673   8.791  2.6125  2.6019 -3.1768
  473MOL0     H63816   5.746   4.773   8.653 -1.2702  1.1756  1.1624
  473MOL0     H63817   5.658   4.648   8.736 -0.7037  2.1739 -0.2968
  473MOL0     H63818   5.794   4.727   8.819 -6.4116  0.7200  2.6510
  473MOL0     H63819   5.426   4.220   8.500 -0.6024  0.2785  0.0843
  473MOL0     H63820   5.237   4.233   8.360  0.5358 -0.5695  1.8511
  473MOL0     H63821   5.183   4.153   8.086  0.3505  1.2024 -2.5509
  473MOL0     H63822   5.065   4.251   8.177 -0.0861 -2.3042  0.2630
  473MOL0     H63823   5.121   4.258   7.881 -1.4302 -0.1316 -0.9816
  473MOL0     H63824   4.975   4.179   7.949 -2.8328  0.8133  2.5587
  473MOL0     H63825   4.957   4.403   7.848  1.4717 -1.5878  0.1507
  473MOL0     H63826   5.065   4.469   7.968  0.0463  0.9948 -1.6674
  473MOL0     H63827   4.801   4.354   8.030  1.1752 -1.7424 -1.1279
  473MOL0     H63828   4.917   4.405   8.152  0.9276  1.5435  0.4851
  473MOL0     H63829   4.910   4.647   8.053  1.2092 -0.6127 -2.0779
  473MOL0     H63830   4.756   4.592   8.121  0.4636 -1.5868 -0.1537
  473MOL0     H63831   4.725   4.719   7.907 -4.0273 -1.4159 -1.1729
  473MOL0     H63832   4.836   4.615   7.831 -1.6749  1.2906 -1.7973
  473MOL0     H63833   4.571   4.512   7.946  0.5604  1.9102  1.0217
  473MOL0     H63834   4.676   4.427   7.822  3.3338  0.9760  0.7895
  473MOL0     H63835   4.496   4.510   7.711  1.7118 -0.4395  0.6947
  473MOL0     H63836   4.646   4.579   7.656 -0.6475  1.0492 -0.3926
  473MOL0     H63837   5.473   4.443   8.062 -4.3606  1.6227  0.2111
  473MOL0     H63838   5.657   4.445   8.226  0.2806 -1.9613 -1.4856
  473MOL0     H63839   5.884   4.293   8.506  0.4390  1.0626 -0.9841
  473MOL0     H63840   6.118   4.316   8.580  1.4636  0.0616  1.0448
  473MOL0     H63841   7.423   4.913   9.248  0.8840 -1.1724 -0.5866
  473MOL0     H63842   7.613   5.064   9.191 -0.2090  4.0361  1.4584
  473MOL0     H63843   7.871   5.391   9.280  0.0011 -0.3996  0.6619
  473MOL0     H63844   8.051   5.563   9.251 -2.3829 -0.3255  2.3380
  473MOL0     H63845   8.331   5.680   9.034 -0.4232 -0.9507 -0.2638
  473MOL0     H63846   8.169   5.658   9.080  1.4297  0.5948 -2.9057
  473MOL0     H63847   8.238   5.704   9.320  1.4176  0.0784  0.9468
  473MOL0     H63848   8.323   5.811   9.200  0.3062  0.1302  0.6731
  473MOL0     H63849   8.476   5.553   9.258  0.1567  1.2818 -4.4883
  473MOL0     H63850   8.458   5.657   9.396 -2.3382 -0.3608  0.3631
  473MOL0     H63851   8.535   5.843   9.245  0.4914 -0.9614  3.0160
  473MOL0     H63852   8.548   5.730   9.104  1.3962 -1.0401  0.2617
  473MOL0     H63853   8.909   5.654   9.314  0.5003  0.9031 -2.4689
  473MOL0     H63854   8.298   5.240   9.087 -0.5716 -3.3505  1.3784
  473MOL0     H63855   8.135   5.073   9.145  0.7353 -1.3155  3.0687
  474MOL0     O63856   5.644  10.394   9.674  0.5746  0.4982 -0.3421
  474MOL0     C63857   5.745  10.329   9.654  0.6332 -0.5433 -0.3810
  474MOL0     O63858   5.756  10.199   9.682 -0.1136  0.1515 -0.1471
  474MOL0     C63859   5.645  10.127   9.723 -0.2057 -0.3035 -0.3275
  474MOL0     C63860   5.532  10.124   9.641  0.1198  0.4418 -1.1644
  474MOL0     C63861   5.433  10.030   9.664 -0.4662 -0.6107  0.9288
  474MOL0     C63862   5.443   9.931   9.761  0.2435 -0.8746 -0.0115
  474MOL0     O63863   5.345   9.846   9.774 -0.0896  0.0827 -0.2892
  474MOL0     C63864   5.299   9.828   9.910  0.4954  0.0132  0.1031
  474MOL0     C63865   5.180   9.733   9.904 -0.3662  0.5087 -0.9242
  474MOL0     C63866   5.074   9.787   9.803  0.3281 -0.5258 -0.2517
  474MOL0     C63867   4.936   9.722   9.826 -0.6263  0.3778  0.8411
  474MOL0     C63868   4.849   9.735   9.696 -0.5696  0.6308 -0.0489
  474MOL0     C63869   4.810   9.881   9.666  0.4417 -0.7467  0.1414
  474MOL0     C63870   4.733   9.888   9.532 -0.5726  0.4843  0.0472
  474MOL0     C63871   4.689  10.031   9.531  0.0550  0.1814  0.0495
  474MOL0     N63872   4.673  10.079   9.389 -0.2470 -0.2705 -0.8774
  474MOL0     C63873   4.770  10.145   9.317  0.0056 -0.1143 -0.4780
  474MOL0     C63874   4.699  10.184   9.208  1.3339  0.7963 -0.7970
  474MOL0     C63875   4.762  10.259   9.092  0.4266  0.9720 -1.0591
  474MOL0     C63876   4.704  10.397   9.112 -0.0877 -0.9355 -0.8023
  474MOL0     C63877   4.781  10.508   9.029  0.6752  0.1277 -0.2032
  474MOL0     C63878   4.766  10.489   8.880 -0.2624 -1.3139  0.3795
  474MOL0     O63879   4.627  10.491   8.840 -1.0771 -0.3861 -0.6321
  474MOL0     C63880   4.586  10.458   8.711  0.1137 -0.0969  0.0250
  474MOL0     C63881   4.669  10.437   8.598  0.2478 -0.6700 -0.5453
  474MOL0     C63882   4.618  10.418   8.468  0.4404 -0.0659 -0.5489
  474MOL0     C63883   4.714  10.375   8.355 -0.4642  0.8427  0.4204
  474MOL0     C63884   4.481  10.412   8.452  0.5241 -0.1572  0.9105
  474MOL0     C63885   4.428  10.386   8.317  0.2558 -0.3489  0.2414
  474MOL0     O63886   4.343  10.284   8.310 -0.4231 -0.7900  0.0448
  474MOL0     C63887   4.235  10.304   8.224 -0.6202 -0.4799 -2.2499
  474MOL0     C63888   4.175  10.191   8.185 -0.2716 -0.5658  0.6321
  474MOL0     C63889   4.061  10.206   8.111 -0.6318  0.3669  0.6745
  474MOL0     C63890   3.996  10.325   8.078  1.0237 -0.3667  0.6601
  474MOL0     O63891   3.867  10.321   8.021  0.0469  0.3198  0.6796
  474MOL0     C63892   3.830  10.422   7.930 -0.0477 -0.3614  0.7287
  474MOL0     C63893   3.720  10.372   7.833  0.2673  0.5672  1.0006
  474MOL0     C63894   3.599  10.311   7.900 -0.3668 -0.0880 -0.3934
  474MOL0     C63895   3.489  10.272   7.803  0.7251  0.8022  0.1670
  474MOL0     C63896   3.355  10.234   7.854  0.2072 -1.0231  0.0994
  474MOL0     C63897   3.282  10.351   7.921  0.2062 -0.6989  0.2787
  474MOL0     C63898   3.144  10.299   7.975 -0.3996 -0.1523 -0.0164
  474MOL0     C63899   3.023  10.292   7.870  0.0903 -0.7166  0.1566
  474MOL0    Cl63900   2.967  10.452   7.842 -0.3220 -0.0215 -0.4326
  474MOL0     C63901   4.063  10.442   8.112 -0.0494 -0.2094 -1.1988
  474MOL0     C63902   4.174  10.432   8.193 -0.1522 -0.4190 -0.9954
  474MOL0     O63903   4.452  10.467   8.233  0.1356  0.0983 -0.4911
  474MOL0     C63904   4.393  10.422   8.566 -1.3520 -0.5268  1.1670
  474MOL0     C63905   4.450  10.455   8.689 -0.3192 -0.0666 -0.1693
  474MOL0     N63906   4.574  10.120   9.199 -0.2640 -0.3597  0.0387
  474MOL0     N63907   4.560  10.054   9.313 -0.6850 -0.6801 -1.0774
  474MOL0     C63908   5.560   9.931   9.837 -0.3088 -0.1401  0.1259
  474MOL0     C63909   5.660  10.027   9.822 -0.0455 -0.6519 -0.5545
  474MOL0     C63910   5.862  10.394   9.571 -0.0496 -0.1937  0.1684
  474MOL0     C63911   5.872  10.536   9.552 -0.9739  0.3241  0.7226
  474MOL0     C63912   5.979  10.589   9.472  0.1892  0.3039 -0.1160
  474MOL0     C63913   6.080  10.500   9.416  0.2679  0.3929 -0.1812
  474MOL0     O63914   6.184  10.541   9.341  0.3583  0.1819  0.2517
  474MOL0     C63915   6.194  10.680   9.315 -0.1337 -0.2382 -0.2711
  474MOL0     C63916   6.328  10.676   9.229  0.5910 -0.2726  0.7610
  474MOL0     C63917   6.296  10.599   9.093  0.5195 -0.1659 -0.6149
  474MOL0     C63918   6.407  10.603   8.987 -0.0104 -0.0076 -0.0313
  474MOL0     C63919   6.533  10.538   9.034 -0.1157 -0.0073 -0.3327
  474MOL0     C63920   6.607  10.461   9.083  0.6998 -0.1055 -0.0152
  474MOL0     C63921   6.059  10.362   9.431  0.1398 -0.2243 -0.8750
  474MOL0     C63922   5.951  10.308   9.501 -0.1060 -0.5922 -0.5678
  474MOL0     H63923   5.527  10.194   9.558 -3.8170  3.4519  1.2911
  474MOL0     H63924   5.346  10.023   9.599 -0.7808 -0.4840  1.3324
  474MOL0     H63925   5.379   9.797   9.977  0.4633 -0.7817 -0.2131
  474MOL0     H63926   5.256   9.920   9.951  0.1329  0.4120 -1.1351
  474MOL0     H63927   5.213   9.631   9.881  0.9792  0.9451 -0.9854
  474MOL0     H63928   5.132   9.737  10.002  1.3303  1.5707 -0.0929
  474MOL0     H63929   5.063   9.894   9.819 -0.8226 -0.7527  0.5498
  474MOL0     H63930   5.112   9.778   9.701  2.3560  0.0482  0.3965
  474MOL0     H63931   4.959   9.616   9.841  0.9034  0.5884  0.0764
  474MOL0     H63932   4.883   9.755   9.916 -1.2860 -1.1937  1.0699
  474MOL0     H63933   4.886   9.685   9.606 -2.4841  1.3046 -1.2733
  474MOL0     H63934   4.755   9.684   9.721 -0.9535  1.3629  0.0427
  474MOL0     H63935   4.757   9.917   9.754 -0.5487  1.4001 -1.2291
  474MOL0     H63936   4.902   9.933   9.639  2.4470 -4.4477 -0.7823
  474MOL0     H63937   4.800   9.851   9.454 -1.0086  2.4507 -1.3333
  474MOL0     H63938   4.648   9.818   9.526  1.7676 -2.3974 -3.3876
  474MOL0     H63939   4.745  10.107   9.585  0.2134  0.4324 -0.4594
  474MOL0     H63940   4.588  10.027   9.574  0.4436 -4.2771  1.0031
  474MOL0     H63941   4.874  10.169   9.340  0.1361  0.2072 -1.3505
  474MOL0     H63942   4.870  10.245   9.095  0.7323  3.0102 -0.6603
  474MOL0     H63943   4.722  10.226   8.996 -2.6514 -0.6950  0.6252
  474MOL0     H63944   4.705  10.433   9.215 -0.9543  3.1671 -2.0605
  474MOL0     H63945   4.600  10.384   9.081 -0.7672 -3.0467  1.9352
  474MOL0     H63946   4.886  10.502   9.056  0.7786 -0.2817 -0.6941
  474MOL0     H63947   4.744  10.608   9.056 -0.1698 -0.2224 -0.0428
  474MOL0     H63948   4.814  10.396   8.849 -2.1307 -2.9160  2.0017
  474MOL0     H63949   4.805  10.580   8.834 -1.1868 -0.9345  0.3179
  474MOL0     H63950   4.774  10.456   8.617 -0.0116  0.4905 -0.1737
  474MOL0     H63951   4.815  10.400   8.388 -1.3535  2.4793  2.0886
  474MOL0     H63952   4.709  10.267   8.338 -0.8042  0.9517 -0.2247
  474MOL0     H63953   4.698  10.413   8.253  0.6883  3.8654  1.2438
  474MOL0     H63954   4.209  10.097   8.226 -0.9911 -0.8813  0.5231
  474MOL0     H63955   4.008  10.117   8.080 -1.1612  0.7848  0.3548
  474MOL0     H63956   3.802  10.505   7.995  2.4029 -0.7286  2.4143
  474MOL0     H63957   3.922  10.450   7.878 -0.4101 -1.1288 -0.3571
  474MOL0     H63958   3.680  10.449   7.767 -0.2083 -1.0555 -0.6844
  474MOL0     H63959   3.770  10.285   7.789 -1.7211 -1.5890  2.7679
  474MOL0     H63960   3.569  10.392   7.968  3.5222  0.7324  0.6009
  474MOL0     H63961   3.635  10.231   7.965  1.4992  0.4508 -0.6973
  474MOL0     H63962   3.472  10.357   7.737 -0.1190  1.1534  0.8230
  474MOL0     H63963   3.527  10.186   7.746 -0.6415 -1.1653  2.0679
  474MOL0     H63964   3.368  10.150   7.923  2.3789  1.7765  3.4551
  474MOL0     H63965   3.304  10.207   7.761 -0.8526 -0.1140  0.3904
  474MOL0     H63966   3.346  10.391   8.000 -0.7822 -1.8351  1.7000
  474MOL0     H63967   3.269  10.438   7.855  1.9257  1.8097  2.9770
  474MOL0     H63968   3.119  10.379   8.046  0.4667 -0.3743  0.5569
  474MOL0     H63969   3.151  10.201   8.025 -1.6867 -0.5630 -0.5912
  474MOL0     H63970   2.937  10.246   7.919 -0.8606  0.9850  0.1823
  474MOL0     H63971   3.035  10.245   7.772 -1.2127  1.7111 -1.2622
  474MOL0     H63972   4.027  10.540   8.082  0.8585 -0.1071 -2.0215
  474MOL0     H63973   4.225  10.525   8.215 -1.4893 -0.0478  0.7059
  474MOL0     H63974   4.285  10.409   8.557 -1.0190 -2.8996 -0.5633
  474MOL0     H63975   4.388  10.473   8.777  0.0086 -1.9555  0.4759
  474MOL0     H63976   5.569   9.843   9.899 -1.5990 -2.7502 -3.1081
  474MOL0     H63977   5.752  10.017   9.880  1.0059  0.4841 -1.9490
  474MOL0     H63978   5.799  10.606   9.590  0.2101  2.7479 -1.2127
  474MOL0     H63979   5.988  10.697   9.461  0.3468  0.3391  0.3461
  474MOL0     H63980   6.107  10.722   9.265  0.5733  1.1319 -0.3972
  474MOL0     H63981   6.218  10.742   9.402 -0.1127  0.8208 -1.0120
  474MOL0     H63982   6.422  10.637   9.269  0.9501  0.0686  0.2644
  474MOL0     H63983   6.336  10.783   9.208 -3.6158 -0.0779 -0.7771
  474MOL0     H63984   6.199  10.635   9.057 -0.3964 -0.1586  1.7232
  474MOL0     H63985   6.288  10.490   9.100  0.7370 -0.1285  0.3792
  474MOL0     H63986   6.430  10.704   8.951  0.2560 -0.8458 -2.3885
  474MOL0     H63987   6.372  10.556   8.894 -1.1842  2.0160 -0.6697
  474MOL0     H63988   6.677  10.394   9.127 -0.6145 -0.3233  1.8360
  474MOL0     H63989   6.136  10.303   9.382  1.6550  2.2403 -1.6394
  474MOL0     H63990   5.935  10.201   9.496 -1.3297 -0.3999 -1.4306
  475MOL0     O63991   7.502   4.129   2.353 -0.0011 -0.8002  0.9054
  475MOL0     C63992   7.556   4.227   2.413 -0.3649 -0.2989  0.1851
  475MOL0     O63993   7.516   4.360   2.421  0.5087 -0.0999  0.2845
  475MOL0     C63994   7.436   4.409   2.327  0.1099  0.2806  0.6997
  475MOL0     C63995   7.464   4.397   2.194  1.3249  0.4406  0.9172
  475MOL0     C63996   7.367   4.431   2.090 -0.0160  0.3820 -1.0675
  475MOL0     C63997   7.258   4.508   2.120  0.5276 -0.0454 -0.8375
  475MOL0     O63998   7.182   4.544   2.015  0.0776  0.3604  0.0719
  475MOL0     C63999   7.044   4.580   2.042  0.1140 -0.0649  0.7989
  475MOL0     C64000   6.959   4.477   2.125  0.8217 -0.1040  0.5501
  475MOL0     C64001   6.814   4.455   2.071  0.0532  0.3646 -0.0961
  475MOL0     C64002   6.711   4.554   2.133  0.5209 -0.3611 -0.7212
  475MOL0     C64003   6.565   4.521   2.092  0.3042  0.2356 -0.8261
  475MOL0     C64004   6.472   4.633   2.133  0.4075 -0.5068  0.5621
  475MOL0     C64005   6.455   4.670   2.286  0.1354  1.2011 -1.1864
  475MOL0     C64006   6.389   4.551   2.359 -0.3626 -1.4912 -0.1217
  475MOL0     N64007   6.394   4.595   2.502  0.7345  0.8373  0.5301
  475MOL0     C64008   6.510   4.631   2.572 -0.2195  0.1159 -0.0300
  475MOL0     C64009   6.472   4.662   2.694  0.1264  0.4354 -0.0001
  475MOL0     C64010   6.569   4.712   2.800 -0.0679 -0.4503 -0.5544
  475MOL0     C64011   6.654   4.589   2.859  0.7471  0.6080 -0.1055
  475MOL0     C64012   6.761   4.632   2.954  0.3966 -0.6997  0.1671
  475MOL0     C64013   6.721   4.668   3.095 -0.0983  0.2829 -0.2176
  475MOL0     O64014   6.644   4.795   3.083  0.4446  0.1190 -0.0000
  475MOL0     C64015   6.548   4.806   3.180  0.2225 -0.4399 -0.5498
  475MOL0     C64016   6.566   4.891   3.293  0.4322  0.0473 -0.0939
  475MOL0     C64017   6.471   4.894   3.400 -0.5289  0.3971  0.1712
  475MOL0     C64018   6.505   4.977   3.527  0.1135  0.5261  0.2090
  475MOL0     C64019   6.356   4.817   3.391 -0.0820  1.5670 -0.9864
  475MOL0     C64020   6.252   4.809   3.493  0.5550 -0.2053  0.6206
  475MOL0     O64021   6.148   4.718   3.467 -0.2649 -0.2652  0.2972
  475MOL0     C64022   6.020   4.735   3.482  0.3583 -0.1764 -0.2728
  475MOL0     C64023   5.960   4.855   3.505  0.9469 -0.4609  0.3322
  475MOL0     C64024   5.817   4.874   3.539  0.9974 -0.0330  0.4086
  475MOL0     C64025   5.734   4.761   3.544 -1.2646  0.4144  0.5395
  475MOL0     O64026   5.598   4.786   3.566 -0.9401 -0.3979 -0.3001
  475MOL0     C64027   5.514   4.670   3.574  0.7592  0.3498  0.7832
  475MOL0     C64028   5.374   4.722   3.597 -0.6350 -0.3439 -0.2269
  475MOL0     C64029   5.320   4.812   3.485  0.1304  0.9965 -0.4274
  475MOL0     C64030   5.341   4.772   3.335  0.0494 -0.1633 -0.5337
  475MOL0     C64031   5.239   4.832   3.243  0.0720  0.2160  0.5233
  475MOL0     C64032   5.249   4.769   3.104  0.2945 -0.1707 -0.4737
  475MOL0     C64033   5.174   4.842   2.981 -0.2231  0.2897  0.3560
  475MOL0     C64034   5.194   4.743   2.866 -0.1103 -1.1476  0.0853
  475MOL0    Cl64035   5.108   4.796   2.720 -0.2810  0.0066  0.0842
  475MOL0     C64036   5.796   4.637   3.514 -0.1817 -1.1504 -0.7960
  475MOL0     C64037   5.935   4.629   3.489 -0.3896  0.2957 -0.1232
  475MOL0     O64038   6.252   4.887   3.591  0.2645 -0.5543 -0.0682
  475MOL0     C64039   6.334   4.747   3.273 -0.3795 -0.1928 -0.4994
  475MOL0     C64040   6.422   4.743   3.171 -0.3598 -0.1463  0.9543
  475MOL0     N64041   6.334   4.650   2.696 -0.2265  0.1038 -0.5442
  475MOL0     N64042   6.291   4.615   2.577 -0.1849 -0.3703 -0.2420
  475MOL0     C64043   7.244   4.548   2.257 -0.2628 -0.3521  0.1097
  475MOL0     C64044   7.329   4.493   2.361 -0.0100 -0.4669  0.3600
  475MOL0     C64045   7.692   4.194   2.482 -0.4690  0.4374 -1.2087
  475MOL0     C64046   7.745   4.058   2.490 -0.1145 -0.6859  0.0267
  475MOL0     C64047   7.859   4.023   2.563 -0.5584  0.7513  0.5892
  475MOL0     C64048   7.933   4.121   2.626  0.0150 -0.1197  0.2989
  475MOL0     O64049   8.061   4.083   2.675 -0.9556 -0.4965  0.7752
  475MOL0     C64050   8.054   3.988   2.783 -0.0536 -0.0423  0.1216
  475MOL0     C64051   8.163   4.005   2.885  0.5461 -0.7293 -0.7221
  475MOL0     C64052   8.306   4.017   2.828  0.7767  0.3914 -0.4760
  475MOL0     C64053   8.402   3.969   2.928  0.2338 -0.2114 -0.4486
  475MOL0     C64054   8.392   4.042   3.056 -0.4588 -0.2426  0.6468
  475MOL0     C64055   8.378   4.096   3.167 -0.6680  1.1225  0.6260
  475MOL0     C64056   7.887   4.252   2.613  1.0827  0.0024 -0.3352
  475MOL0     C64057   7.766   4.291   2.551 -0.1911  0.2644 -0.0160
  475MOL0     H64058   7.554   4.341   2.171 -1.4906 -3.7770 -1.1090
  475MOL0     H64059   7.394   4.392   1.993 -2.2455  0.0245 -1.5824
  475MOL0     H64060   7.039   4.679   2.088 -0.9231  0.3691 -0.1854
  475MOL0     H64061   7.004   4.597   1.942  0.9964 -2.9094 -0.1381
  475MOL0     H64062   6.998   4.375   2.117 -0.6743 -0.7324  0.9636
  475MOL0     H64063   6.968   4.508   2.229 -1.0052 -1.2015  1.0881
  475MOL0     H64064   6.821   4.467   1.963  1.5052  0.8991  0.0438
  475MOL0     H64065   6.788   4.350   2.084  3.1086 -0.6754 -1.5739
  475MOL0     H64066   6.713   4.552   2.242  0.8458 -0.0318 -0.7181
  475MOL0     H64067   6.746   4.655   2.109  5.1445 -1.6084 -0.2902
  475MOL0     H64068   6.564   4.529   1.983 -3.3479  2.0620 -0.8089
  475MOL0     H64069   6.521   4.430   2.135  1.4805  0.9953  2.2350
  475MOL0     H64070   6.515   4.721   2.084  2.2547 -1.2003  0.8576
  475MOL0     H64071   6.374   4.615   2.088  0.9905 -0.3013 -0.8515
  475MOL0     H64072   6.556   4.687   2.323 -0.0528 -1.1597  0.6602
  475MOL0     H64073   6.406   4.766   2.300  0.6323  1.4718 -1.2843
  475MOL0     H64074   6.457   4.465   2.364  0.7633 -0.5526  2.9819
  475MOL0     H64075   6.289   4.524   2.323 -1.2427  2.3850 -0.9575
  475MOL0     H64076   6.615   4.626   2.545 -0.8996  1.1321 -3.2472
  475MOL0     H64077   6.652   4.762   2.748 -1.0439  1.3824 -0.4221
  475MOL0     H64078   6.520   4.781   2.869 -1.9958 -0.9295 -1.3987
  475MOL0     H64079   6.715   4.538   2.783  2.2486 -1.9839  2.6232
  475MOL0     H64080   6.601   4.505   2.904  3.3090 -0.7530  0.5710
  475MOL0     H64081   6.808   4.721   2.912 -0.7659 -1.0687 -2.0872
  475MOL0     H64082   6.835   4.552   2.959  0.9467 -0.1204  2.5092
  475MOL0     H64083   6.816   4.688   3.145 -0.7338 -0.7004  1.4808
  475MOL0     H64084   6.671   4.578   3.134  0.6386 -0.0026  0.0869
  475MOL0     H64085   6.662   4.941   3.299  0.9579 -1.0143  0.7948
  475MOL0     H64086   6.519   4.917   3.618 -0.4025 -0.8145 -0.5726
  475MOL0     H64087   6.596   5.034   3.506  0.0211  0.9776  0.9740
  475MOL0     H64088   6.427   5.050   3.550 -0.7887 -0.1934 -0.5190
  475MOL0     H64089   6.007   4.953   3.501 -3.3312  1.8159 -0.4529
  475MOL0     H64090   5.771   4.969   3.560 -0.9585 -0.7038 -0.6318
  475MOL0     H64091   5.507   4.616   3.479 -2.5502 -2.3677  2.3544
  475MOL0     H64092   5.553   4.607   3.654  0.0954  0.3852  1.1393
  475MOL0     H64093   5.306   4.638   3.610 -1.4364  0.2907 -0.2413
  475MOL0     H64094   5.386   4.778   3.690  0.1120  0.1425 -0.6072
  475MOL0     H64095   5.379   4.904   3.497  3.8551 -1.4487  2.2793
  475MOL0     H64096   5.212   4.817   3.501  0.1880 -0.2234  0.4666
  475MOL0     H64097   5.440   4.794   3.295  1.1649  0.3476  2.3028
  475MOL0     H64098   5.333   4.663   3.328  0.6656 -0.2274 -0.3084
  475MOL0     H64099   5.242   4.941   3.237  0.1133  0.2421  0.9799
  475MOL0     H64100   5.139   4.810   3.281 -1.2110  0.7054 -2.2993
  475MOL0     H64101   5.356   4.755   3.083  0.4864  0.6511 -0.0858
  475MOL0     H64102   5.201   4.671   3.115 -1.8212  0.8332 -0.3598
  475MOL0     H64103   5.212   4.943   2.965  0.8990 -0.1231  0.2565
  475MOL0     H64104   5.070   4.850   3.012 -0.3683 -4.6622  2.1469
  475MOL0     H64105   5.162   4.641   2.887  2.4138 -2.2061 -0.8134
  475MOL0     H64106   5.300   4.740   2.838 -0.0981 -3.2175  0.1950
  475MOL0     H64107   5.747   4.546   3.546  1.3821 -1.3784  1.1512
  475MOL0     H64108   5.980   4.530   3.482 -0.5718  0.3049 -1.7737
  475MOL0     H64109   6.238   4.701   3.252 -0.3551  0.0787 -1.2243
  475MOL0     H64110   6.413   4.676   3.085  1.7869 -1.6123  1.7692
  475MOL0     H64111   7.179   4.631   2.282  1.1372 -0.0368  3.2399
  475MOL0     H64112   7.318   4.533   2.461 -0.6823 -3.2100  1.4789
  475MOL0     H64113   7.677   3.981   2.453 -0.7978  0.3512 -0.9506
  475MOL0     H64114   7.892   3.920   2.565  1.2368  1.2628 -0.2086
  475MOL0     H64115   7.964   4.010   2.841  0.3853  1.7684  0.1737
  475MOL0     H64116   8.054   3.884   2.749  0.5847  0.6745 -2.2388
  475MOL0     H64117   8.162   3.916   2.950  4.5052 -0.4619  0.0027
  475MOL0     H64118   8.141   4.093   2.946 -2.6537 -0.8305 -1.5738
  475MOL0     H64119   8.331   4.118   2.795  0.3822  0.4139 -0.7078
  475MOL0     H64120   8.329   3.952   2.742 -0.7561  0.7161 -1.1621
  475MOL0     H64121   8.505   3.957   2.894  0.2112  0.5625 -0.8039
  475MOL0     H64122   8.382   3.863   2.948  2.7900 -0.4486  1.3551
  475MOL0     H64123   8.353   4.133   3.265  0.4550 -2.2105  2.3089
  475MOL0     H64124   7.952   4.328   2.655  0.5431 -0.0918  0.7137
  475MOL0     H64125   7.738   4.396   2.549  2.3444  1.4780  5.7207
  476MOL0     O64126   7.472   3.106   7.419  0.6556  0.2928 -0.1940
  476MOL0     C64127   7.517   3.202   7.360 -0.2134  0.7654 -0.1127
  476MOL0     O64128   7.461   3.324   7.341 -0.5187  0.7277  0.8678
  476MOL0     C64129   7.326   3.336   7.363 -0.6154  0.3254  0.1918
  476MOL0     C64130   7.230   3.280   7.273 -0.5594 -0.4533 -0.3112
  476MOL0     C64131   7.097   3.301   7.290  0.2124  0.0935 -0.8251
  476MOL0     C64132   7.046   3.366   7.402 -0.4630  0.2787 -0.1341
  476MOL0     O64133   6.911   3.400   7.407  0.4202 -0.2934 -0.2423
  476MOL0     C64134   6.854   3.412   7.542  0.1395 -0.0853  0.1338
  476MOL0     C64135   6.707   3.365   7.549 -0.2224  0.3606  0.2433
  476MOL0     C64136   6.651   3.356   7.692 -0.0292 -0.4692  0.6462
  476MOL0     C64137   6.587   3.483   7.739 -0.6674 -0.1159  0.1971
  476MOL0     C64138   6.514   3.488   7.866  0.3159  0.7458 -0.1896
  476MOL0     C64139   6.372   3.459   7.840 -0.1551  0.4100  0.2872
  476MOL0     C64140   6.263   3.467   7.959  0.7057  0.1333  0.1679
  476MOL0     C64141   6.140   3.394   7.925 -0.6511 -0.4908 -0.5292
  476MOL0     N64142   6.051   3.471   7.837 -0.6359 -0.5647 -0.2725
  476MOL0     C64143   6.004   3.601   7.853 -0.1998 -1.2708  0.6381
  476MOL0     C64144   5.895   3.608   7.773 -0.8836 -0.0553  0.1581
  476MOL0     C64145   5.816   3.728   7.748 -1.2042  0.4583 -0.4306
  476MOL0     C64146   5.669   3.718   7.767 -0.1109  0.5964 -0.1967
  476MOL0     C64147   5.612   3.859   7.753  0.1656  0.0362 -0.6540
  476MOL0     C64148   5.462   3.848   7.703 -0.1878  0.5155  0.8717
  476MOL0     O64149   5.381   3.831   7.817  0.5099 -0.5258  0.1637
  476MOL0     C64150   5.245   3.845   7.793  0.2171 -0.3342  0.0651
  476MOL0     C64151   5.172   3.813   7.678  0.0711  0.5226 -0.5495
  476MOL0     C64152   5.036   3.837   7.669 -0.8755 -0.0546  0.3953
  476MOL0     C64153   4.971   3.779   7.540 -0.0288 -0.4876 -0.2678
  476MOL0     C64154   4.965   3.891   7.779  0.2132 -0.5808 -1.0835
  476MOL0     C64155   4.816   3.920   7.784  1.1556 -0.5545 -1.3746
  476MOL0     O64156   4.758   3.942   7.898  0.4370  0.9539 -0.6399
  476MOL0     C64157   4.635   3.991   7.889 -0.6872  0.0788 -0.5000
  476MOL0     C64158   4.612   4.125   7.844  0.9500  0.0541 -0.2449
  476MOL0     C64159   4.481   4.175   7.848 -0.5924 -0.0120 -0.1438
  476MOL0     C64160   4.381   4.096   7.907 -0.2566 -0.0337  0.0571
  476MOL0     O64161   4.251   4.140   7.913  0.7198  0.4798 -0.9511
  476MOL0     C64162   4.223   4.274   7.875  0.6107 -0.5527 -0.0512
  476MOL0     C64163   4.078   4.311   7.912 -1.0751 -0.1414 -0.1908
  476MOL0     C64164   4.050   4.458   7.879 -0.1256  0.6797 -0.3462
  476MOL0     C64165   3.905   4.490   7.928 -0.0879  0.0225  0.3087
  476MOL0     C64166   3.829   4.602   7.848 -0.7021 -0.4264 -0.2558
  476MOL0     C64167   3.711   4.636   7.936 -0.3220  0.4707 -0.4580
  476MOL0     C64168   3.604   4.733   7.884 -0.4863 -0.2819  0.8054
  476MOL0     C64169   3.457   4.678   7.860  0.3910 -0.7648  0.0801
  476MOL0    Cl64170   3.448   4.528   7.767 -0.1044  0.5315  0.6434
  476MOL0     C64171   4.409   3.965   7.946  0.3028 -0.5869 -0.4963
  476MOL0     C64172   4.529   3.905   7.924  0.1644 -0.0545 -0.1272
  476MOL0     O64173   4.767   3.938   7.673 -0.5135  0.5796 -0.2219
  476MOL0     C64174   5.038   3.920   7.899  0.4376 -0.1672 -0.2125
  476MOL0     C64175   5.180   3.898   7.896  0.0434  0.5828 -0.1072
  476MOL0     N64176   5.873   3.485   7.711  0.5894 -0.0579 -0.4168
  476MOL0     N64177   5.963   3.409   7.753 -0.5426  0.2509 -0.0279
  476MOL0     C64178   7.137   3.407   7.504 -0.8087 -0.1799  0.4071
  476MOL0     C64179   7.278   3.395   7.485 -0.2120 -0.5267 -0.1282
  476MOL0     C64180   7.644   3.184   7.292 -0.6340  0.1666 -0.4757
  476MOL0     C64181   7.720   3.064   7.312 -0.3022 -0.3614  0.0278
  476MOL0     C64182   7.845   3.042   7.253 -0.1981  0.0070  1.0267
  476MOL0     C64183   7.906   3.148   7.170  0.5528  1.0336  0.2532
  476MOL0     O64184   8.030   3.145   7.112 -0.1615 -0.1229  0.0124
  476MOL0     C64185   8.131   3.046   7.146  0.4275  0.9571  0.0162
  476MOL0     C64186   8.121   2.928   7.036  0.5021  0.4850 -0.3329
  476MOL0     C64187   8.124   2.962   6.891  0.4539 -0.1801 -0.4533
  476MOL0     C64188   8.127   2.840   6.801  0.1061  0.6123  0.0904
  476MOL0     C64189   8.259   2.775   6.806 -0.4253 -0.5050 -0.2451
  476MOL0     C64190   8.375   2.731   6.801  0.0155 -0.6458  0.4881
  476MOL0     C64191   7.826   3.262   7.146  0.0690 -0.6390  0.2608
  476MOL0     C64192   7.705   3.282   7.214  0.2623 -0.4922  0.3666
  476MOL0     H64193   7.264   3.208   7.199 -1.9694  1.0252 -2.5480
  476MOL0     H64194   7.027   3.283   7.209  0.6959  3.0465 -2.0319
  476MOL0     H64195   6.911   3.355   7.617 -2.1165 -3.0648 -0.2019
  476MOL0     H64196   6.839   3.514   7.578  0.1950  0.3958 -1.1826
  476MOL0     H64197   6.656   3.443   7.491  0.4367  2.6898  2.5734
  476MOL0     H64198   6.689   3.265   7.510  1.3491 -0.8669  2.3986
  476MOL0     H64199   6.579   3.274   7.690 -0.8652  0.0951  3.2967
  476MOL0     H64200   6.734   3.331   7.758  1.6460  4.1065  0.6283
  476MOL0     H64201   6.677   3.543   7.757  1.3249 -2.3642 -1.6754
  476MOL0     H64202   6.528   3.531   7.661 -0.0081 -0.6780 -0.6636
  476MOL0     H64203   6.544   3.411   7.938  0.7969  0.3903 -0.7620
  476MOL0     H64204   6.537   3.585   7.909  2.2545  0.5076 -0.5899
  476MOL0     H64205   6.341   3.527   7.760 -0.3218  1.4398  1.2131
  476MOL0     H64206   6.360   3.354   7.809 -0.3691 -0.2846  2.5281
  476MOL0     H64207   6.308   3.425   8.049 -1.9104 -1.4326  0.8455
  476MOL0     H64208   6.237   3.570   7.986  0.3066  0.5957 -1.8062
  476MOL0     H64209   6.092   3.396   8.023  1.2602  0.9518  0.4483
  476MOL0     H64210   6.164   3.295   7.886 -0.3547 -2.4677  4.0149
  476MOL0     H64211   6.039   3.679   7.920  0.3767  0.0052 -1.0817
  476MOL0     H64212   5.854   3.809   7.811 -2.0473  0.3877  0.1808
  476MOL0     H64213   5.835   3.754   7.643 -1.3939 -3.0279 -1.4687
  476MOL0     H64214   5.652   3.675   7.866  0.5875  0.2976 -0.1996
  476MOL0     H64215   5.631   3.653   7.687 -1.3129 -0.1016  0.8996
  476MOL0     H64216   5.674   3.911   7.679  0.3518  1.1221  0.2284
  476MOL0     H64217   5.614   3.919   7.845  3.1249 -0.1073 -0.5201
  476MOL0     H64218   5.452   3.756   7.645 -2.5639  0.1155  1.7950
  476MOL0     H64219   5.453   3.931   7.633  1.9252  0.1521  0.0960
  476MOL0     H64220   5.226   3.766   7.596  1.7248 -1.6776  1.6423
  476MOL0     H64221   5.040   3.765   7.457  1.2952  3.1599  0.0737
  476MOL0     H64222   4.915   3.690   7.571  3.0581 -2.3767  0.3236
  476MOL0     H64223   4.895   3.843   7.495  0.6637  1.4635  1.1818
  476MOL0     H64224   4.689   4.185   7.796  1.2568  0.4198  0.6781
  476MOL0     H64225   4.465   4.276   7.814  0.0038  0.5804  1.2335
  476MOL0     H64226   4.291   4.342   7.926  3.2639 -2.1641 -1.2568
  476MOL0     H64227   4.233   4.290   7.767 -1.1682  1.1896 -0.0178
  476MOL0     H64228   4.006   4.242   7.868 -0.1048  0.1379 -2.3469
  476MOL0     H64229   4.077   4.293   8.020  0.7106 -0.7933 -0.2501
  476MOL0     H64230   4.049   4.474   7.770  0.4775 -1.6941 -0.7770
  476MOL0     H64231   4.132   4.521   7.914  1.1874 -2.0712  1.9132
  476MOL0     H64232   3.843   4.400   7.931 -1.5640  0.9919 -0.4264
  476MOL0     H64233   3.926   4.495   8.036  0.4836 -0.6453  0.2311
  476MOL0     H64234   3.792   4.567   7.751 -3.1515  1.0251  0.0789
  476MOL0     H64235   3.893   4.689   7.830  0.5719 -1.4459 -0.8886
  476MOL0     H64236   3.661   4.543   7.965  1.6728  0.1043  2.1229
  476MOL0     H64237   3.755   4.678   8.026  1.7425  0.0425 -1.2059
  476MOL0     H64238   3.650   4.782   7.798 -0.6131  1.6258  1.7649
  476MOL0     H64239   3.591   4.813   7.957  0.2405 -0.9256  1.6733
  476MOL0     H64240   3.394   4.757   7.817  1.8600  0.2855 -0.2200
  476MOL0     H64241   3.423   4.656   7.962  0.2734 -1.3362 -0.0771
  476MOL0     H64242   4.326   3.920   7.999 -0.7443  0.9221 -0.8212
  476MOL0     H64243   4.538   3.802   7.955 -1.6204  0.1029  1.0675
  476MOL0     H64244   5.011   3.950   8.000  1.4288 -1.5967  0.5191
  476MOL0     H64245   5.223   3.902   7.996 -0.7599  1.2595  0.2185
  476MOL0     H64246   7.106   3.475   7.582  1.6864  1.2330  0.2673
  476MOL0     H64247   7.359   3.420   7.553 -0.9684  0.0905  0.5536
  476MOL0     H64248   7.688   2.983   7.377  1.8370  0.0911  1.7333
  476MOL0     H64249   7.886   2.942   7.264  0.3530  0.2585  1.2937
  476MOL0     H64250   8.227   3.095   7.134 -0.4215  2.7037  0.0851
  476MOL0     H64251   8.111   3.020   7.250  0.8712 -1.9871 -0.5467
  476MOL0     H64252   8.034   2.867   7.063 -0.2102  1.9747  0.8739
  476MOL0     H64253   8.208   2.866   7.060  1.4590  2.5604  1.9049
  476MOL0     H64254   8.212   3.022   6.867  1.4355 -1.4685 -0.2370
  476MOL0     H64255   8.030   3.018   6.886 -1.4746 -2.7360  2.8653
  476MOL0     H64256   8.109   2.862   6.696  1.9695  1.9849  0.0082
  476MOL0     H64257   8.055   2.761   6.824  0.7340 -0.3930 -1.2573
  476MOL0     H64258   8.474   2.690   6.799 -1.4340 -4.7877  2.5179
  476MOL0     H64259   7.880   3.334   7.086 -0.7940  0.2556  0.5383
  476MOL0     H64260   7.652   3.375   7.197  0.3750 -0.4776  0.0817
  477MOL0     O64261   8.774   8.447   2.936 -0.5934  0.2456 -0.1645
  477MOL0     C64262   8.848   8.424   3.030  0.1516  0.7366 -0.6069
  477MOL0     O64263   8.815   8.369   3.144 -0.0789  0.6500 -0.3290
  477MOL0     C64264   8.683   8.349   3.177  0.0561 -0.5463  0.1771
  477MOL0     C64265   8.612   8.464   3.208  0.8096 -0.2864  0.5362
  477MOL0     C64266   8.472   8.449   3.238 -1.2398 -0.3503 -0.6127
  477MOL0     C64267   8.420   8.322   3.259  0.1769 -0.0457  0.6263
  477MOL0     O64268   8.286   8.305   3.281 -0.1562  0.2026 -0.3514
  477MOL0     C64269   8.258   8.252   3.406  0.4430 -0.4152  0.1489
  477MOL0     C64270   8.140   8.158   3.396 -0.6144  0.3410  0.7211
  477MOL0     C64271   8.009   8.222   3.345  0.0389 -0.6668 -0.7733
  477MOL0     C64272   7.916   8.287   3.441 -0.4331  0.5455  0.3630
  477MOL0     C64273   7.766   8.314   3.394  0.1363 -0.0800 -0.3094
  477MOL0     C64274   7.697   8.414   3.497  0.1367 -0.0042 -0.1459
  477MOL0     C64275   7.554   8.376   3.516 -0.0348  0.1425  0.3901
  477MOL0     C64276   7.493   8.444   3.636  0.1897  0.2277 -0.0868
  477MOL0     N64277   7.467   8.585   3.608 -0.0217 -0.8885  0.1536
  477MOL0     C64278   7.548   8.694   3.652  0.4397  0.0733  0.3473
  477MOL0     C64279   7.460   8.798   3.660 -0.0967  0.1496  0.3273
  477MOL0     C64280   7.499   8.941   3.701  0.6593  1.1543  0.3713
  477MOL0     C64281   7.614   9.000   3.621 -0.5856  0.7177  0.7859
  477MOL0     C64282   7.616   9.152   3.621 -0.1100 -0.1460 -0.7733
  477MOL0     C64283   7.584   9.211   3.754 -1.2040  0.5204  0.8600
  477MOL0     O64284   7.444   9.222   3.789 -0.6607  0.4985 -0.4224
  477MOL0     C64285   7.356   9.319   3.735  0.4978 -0.4464  0.6608
  477MOL0     C64286   7.384   9.406   3.623 -0.3725 -0.4706  1.2306
  477MOL0     C64287   7.294   9.496   3.571 -0.6027  0.5373  0.2290
  477MOL0     C64288   7.340   9.565   3.445 -0.7483 -0.2181  0.9778
  477MOL0     C64289   7.165   9.508   3.633 -0.2904  0.7305  0.2321
  477MOL0     C64290   7.053   9.593   3.592 -0.4937  0.2368  0.1640
  477MOL0     O64291   7.042   9.640   3.465  0.3019 -0.0169  0.6272
  477MOL0     C64292   6.928   9.701   3.409  0.0962 -0.1982  0.2132
  477MOL0     C64293   6.937   9.772   3.287  0.5447 -0.9111 -0.0265
  477MOL0     C64294   6.829   9.832   3.225  1.1326  0.8994  0.5416
  477MOL0     C64295   6.696   9.808   3.274 -0.0436  0.3131 -0.8807
  477MOL0     O64296   6.587   9.861   3.204 -0.3681  0.5471  1.0578
  477MOL0     C64297   6.457   9.833   3.247  0.4220 -0.2933  0.2911
  477MOL0     C64298   6.412   9.937   3.347 -0.8299 -0.5255  0.8694
  477MOL0     C64299   6.444  10.093   3.300 -0.1976  0.8728 -0.3776
  477MOL0     C64300   6.364  10.197   3.379  0.2078 -1.1559 -1.2427
  477MOL0     C64301   6.410  10.220   3.527 -0.6251  0.9110 -0.2510
  477MOL0     C64302   6.313  10.321   3.595 -0.5038  0.8347 -0.1701
  477MOL0     C64303   6.299  10.458   3.528  0.6334 -0.6903 -0.8034
  477MOL0     C64304   6.254  10.555   3.637  0.0080  0.0208  0.1344
  477MOL0    Cl64305   6.231  10.722   3.558 -0.3713  0.8992  0.1461
  477MOL0     C64306   6.683   9.724   3.390 -0.0981 -0.1659 -0.9662
  477MOL0     C64307   6.798   9.675   3.456  0.3050 -0.2780  0.0209
  477MOL0     O64308   6.992   9.635   3.683  0.1311  0.1849 -0.1323
  477MOL0     C64309   7.148   9.439   3.754 -0.1606 -0.2811  0.5793
  477MOL0     C64310   7.235   9.342   3.797 -0.0617  0.5464 -0.0470
  477MOL0     N64311   7.334   8.760   3.614 -0.1505 -0.3785 -0.1094
  477MOL0     N64312   7.340   8.626   3.589  0.9476 -1.1983 -0.4642
  477MOL0     C64313   8.492   8.215   3.219  1.0403  0.3634 -0.3220
  477MOL0     C64314   8.624   8.228   3.185  0.3022  1.0094  0.2246
  477MOL0     C64315   8.993   8.446   3.002 -0.0707  0.0078  0.5551
  477MOL0     C64316   9.046   8.477   2.874 -1.1427  0.6300 -0.9355
  477MOL0     C64317   9.180   8.505   2.859  0.6237  0.4971 -0.4514
  477MOL0     C64318   9.276   8.491   2.963  0.1980 -0.1431 -0.4237
  477MOL0     O64319   9.404   8.513   2.925  0.2116 -0.3219 -0.0670
  477MOL0     C64320   9.501   8.451   3.005  0.0696 -0.1338  0.2419
  477MOL0     C64321   9.644   8.441   2.942  0.2278  0.9035 -0.3810
  477MOL0     C64322   9.644   8.370   2.803  0.3427 -0.2854 -0.1958
  477MOL0     C64323   9.782   8.410   2.748 -0.2121  0.4459 -0.6865
  477MOL0     C64324   9.899   8.372   2.824  0.4896  0.7986 -0.1508
  477MOL0     C64325   9.986   8.324   2.891 -0.1645 -0.2042  0.1936
  477MOL0     C64326   9.221   8.451   3.089  0.5145  0.5786  0.3293
  477MOL0     C64327   9.084   8.430   3.107  0.5652  0.2163  1.1491
  477MOL0     H64328   8.653   8.563   3.193 -3.4000  1.5243 -0.7327
  477MOL0     H64329   8.420   8.542   3.259 -1.8211 -0.0648 -3.0199
  477MOL0     H64330   8.339   8.197   3.453 -0.6791 -3.3608 -1.1212
  477MOL0     H64331   8.239   8.334   3.476 -2.1224 -2.3199  1.8765
  477MOL0     H64332   8.163   8.072   3.333  0.3396  1.3217 -0.3260
  477MOL0     H64333   8.112   8.121   3.495  2.4633 -0.1259  1.5013
  477MOL0     H64334   8.018   8.293   3.262  1.5150 -1.4429 -1.3231
  477MOL0     H64335   7.951   8.137   3.309 -0.2066 -0.3048 -1.2364
  477MOL0     H64336   7.901   8.218   3.525  1.4336 -0.4658 -0.0707
  477MOL0     H64337   7.970   8.377   3.470  0.7949 -0.0750  0.0832
  477MOL0     H64338   7.768   8.363   3.297  1.6507 -5.1110 -3.1689
  477MOL0     H64339   7.717   8.217   3.377  0.7826 -0.1407 -1.9630
  477MOL0     H64340   7.750   8.413   3.593 -0.6845  2.8127  0.4479
  477MOL0     H64341   7.707   8.518   3.464 -2.6573  1.1866  2.3121
  477MOL0     H64342   7.499   8.393   3.423  2.4565  0.2099 -1.1758
  477MOL0     H64343   7.558   8.275   3.558  0.8191 -1.2482 -2.7418
  477MOL0     H64344   7.554   8.436   3.726  1.6000 -2.6410 -1.1708
  477MOL0     H64345   7.395   8.399   3.657 -0.8205  2.5977  0.5947
  477MOL0     H64346   7.647   8.691   3.695  0.6245 -0.5659 -0.1085
  477MOL0     H64347   7.417   9.012   3.685  1.3981  2.1425  0.8389
  477MOL0     H64348   7.523   8.940   3.808 -2.7796  1.5887  1.2754
  477MOL0     H64349   7.611   8.963   3.518 -0.5220 -2.0966  1.7043
  477MOL0     H64350   7.707   8.968   3.670 -0.3080 -4.1007 -2.2719
  477MOL0     H64351   7.543   9.191   3.549 -3.9311 -2.6811  1.4004
  477MOL0     H64352   7.718   9.180   3.592  1.0751  0.4276  3.3220
  477MOL0     H64353   7.624   9.313   3.754  1.4560 -0.4528  0.9083
  477MOL0     H64354   7.637   9.162   3.835 -1.1517 -0.0357  0.4943
  477MOL0     H64355   7.482   9.399   3.576 -1.7610 -0.3742 -1.8889
  477MOL0     H64356   7.293   9.662   3.465 -0.4915 -0.4852  3.1937
  477MOL0     H64357   7.446   9.591   3.448 -0.8259  0.7128 -1.9246
  477MOL0     H64358   7.319   9.517   3.349 -0.2690  2.5973 -0.6402
  477MOL0     H64359   7.041   9.794   3.268  0.3382 -0.4762 -0.7161
  477MOL0     H64360   6.845   9.887   3.133 -1.1561 -2.3247 -2.0129
  477MOL0     H64361   6.384   9.849   3.166  0.6598 -0.0401  0.1204
  477MOL0     H64362   6.437   9.730   3.275 -2.5611 -0.3120 -1.4915
  477MOL0     H64363   6.305   9.925   3.365 -0.6621 -0.0099  2.3687
  477MOL0     H64364   6.460   9.936   3.445  1.5799 -0.0457 -0.2309
  477MOL0     H64365   6.419  10.106   3.194 -0.3595  1.3288 -0.2869
  477MOL0     H64366   6.551  10.114   3.303 -0.1105  0.3581  2.1165
  477MOL0     H64367   6.354  10.292   3.327 -5.0051 -0.4794  0.4160
  477MOL0     H64368   6.259  10.166   3.382 -0.4982  1.0114  2.4963
  477MOL0     H64369   6.516  10.249   3.531 -1.1200  3.4053 -2.5468
  477MOL0     H64370   6.393  10.125   3.578  0.4151  1.5657  1.4249
  477MOL0     H64371   6.212  10.280   3.591 -0.7504  1.4389 -0.3052
  477MOL0     H64372   6.331  10.328   3.702 -0.6922  1.2793 -0.1632
  477MOL0     H64373   6.235  10.455   3.440 -2.7971  0.1181  1.4966
  477MOL0     H64374   6.402  10.483   3.501  0.4931 -0.1648 -0.8743
  477MOL0     H64375   6.340  10.570   3.702 -1.0570  1.7426  1.2250
  477MOL0     H64376   6.167  10.528   3.697  0.6767  1.4984  1.8762
  477MOL0     H64377   6.581   9.709   3.425 -0.1327  0.2168 -0.8976
  477MOL0     H64378   6.793   9.610   3.543 -0.6617  0.3121  0.4227
  477MOL0     H64379   7.055   9.443   3.811  0.9311 -0.6048  2.4890
  477MOL0     H64380   7.210   9.274   3.879  0.1369  0.5889  0.0503
  477MOL0     H64381   8.446   8.117   3.226  1.6203  0.1988  1.5924
  477MOL0     H64382   8.690   8.145   3.164  0.5483  1.4686 -0.8640
  477MOL0     H64383   8.972   8.482   2.795  0.2621  3.7563 -2.2435
  477MOL0     H64384   9.212   8.549   2.765 -0.9221  3.1582  0.1353
  477MOL0     H64385   9.516   8.513   3.093  0.1483 -1.3014  1.0705
  477MOL0     H64386   9.466   8.353   3.041 -2.4450 -0.4128 -2.5092
  477MOL0     H64387   9.703   8.382   3.013 -1.2843 -0.5101 -0.2201
  477MOL0     H64388   9.689   8.541   2.935  1.7146  0.3415  0.6618
  477MOL0     H64389   9.566   8.427   2.752  2.2163  0.0909 -2.8730
  477MOL0     H64390   9.613   8.265   2.809 -1.6009  0.3325  1.8805
  477MOL0     H64391   9.794   8.518   2.736  1.2358  0.3872 -0.0812
  477MOL0     H64392   9.800   8.364   2.650  1.6730  1.2110 -0.7533
  477MOL0     H64393  10.074   8.280   2.933  2.1199  1.3489 -2.5877
  477MOL0     H64394   9.286   8.447   3.176  2.1768 -0.1707 -0.8832
  477MOL0     H64395   9.054   8.396   3.206  0.2560  0.6088  1.1946
  478MOL0     O64396   3.306   6.005   7.688  0.4669  0.5151 -0.0690
  478MOL0     C64397   3.337   6.118   7.661 -0.3543 -0.7865 -0.2770
  478MOL0     O64398   3.262   6.203   7.600 -0.0561  0.2572 -0.7167
  478MOL0     C64399   3.133   6.185   7.569 -0.2111  0.7133 -0.1716
  478MOL0     C64400   3.086   6.272   7.471  0.3986  0.0477  0.0720
  478MOL0     C64401   2.954   6.262   7.430 -0.4961 -0.4446 -0.3194
  478MOL0     C64402   2.869   6.160   7.474  0.1235 -0.3960 -0.1584
  478MOL0     O64403   2.748   6.158   7.409  0.2391  0.1301 -0.2387
  478MOL0     C64404   2.653   6.072   7.465  0.1495  0.1374 -0.2513
  478MOL0     C64405   2.519   6.076   7.389 -0.0731  0.7758 -0.0094
  478MOL0     C64406   2.436   5.953   7.413  0.2775 -0.2803  0.2980
  478MOL0     C64407   2.305   5.941   7.342 -0.8134  0.3843 -0.6998
  478MOL0     C64408   2.249   5.805   7.360 -0.8169 -0.2996 -0.2208
  478MOL0     C64409   2.193   5.788   7.501  0.4305 -0.0899  0.0508
  478MOL0     C64410   2.135   5.655   7.525 -0.6476 -0.2208 -0.2135
  478MOL0     C64411   2.111   5.637   7.677 -0.1238 -0.4533  0.3202
  478MOL0     N64412   2.000   5.548   7.712 -0.7291 -0.2060 -0.0127
  478MOL0     C64413   2.012   5.411   7.729 -0.3562 -1.3143  0.0986
  478MOL0     C64414   1.887   5.361   7.730  0.4592 -0.1603  1.1774
  478MOL0     C64415   1.846   5.225   7.724 -0.3764  0.7392  0.1594
  478MOL0     C64416   1.695   5.191   7.745 -1.2050  0.3732  0.0742
  478MOL0     C64417   1.647   5.216   7.890 -0.6601  0.0765  0.2982
  478MOL0     C64418   1.495   5.202   7.915  0.1477 -0.3504  1.2521
  478MOL0     O64419   1.454   5.075   7.845  0.3405 -0.6669 -0.2391
  478MOL0     C64420   1.323   5.055   7.833 -0.4025 -0.9947 -0.4185
  478MOL0     C64421   1.243   5.160   7.785  0.5387 -0.0635  0.0092
  478MOL0     C64422   1.103   5.138   7.774  0.3048  0.4825  0.6990
  478MOL0     C64423   1.013   5.254   7.734  0.7923 -0.6907  0.6788
  478MOL0     C64424   1.050   5.016   7.811  0.3941  0.2305  1.2169
  478MOL0     C64425   0.905   4.987   7.791  0.4896 -0.4149 -0.2549
  478MOL0     O64426   0.843   5.031   7.671 -0.1803  0.4661 -0.4292
  478MOL0     C64427   0.719   5.002   7.639  0.4622  1.1877  0.0681
  478MOL0     C64428   0.627   5.098   7.610  0.1460 -0.7386 -0.0717
  478MOL0     C64429   0.502   5.062   7.571 -0.5858 -0.5200 -0.2976
  478MOL0     C64430   0.454   4.936   7.584  0.7904 -0.0979  1.6206
  478MOL0     O64431   0.313   4.910   7.574 -0.6746 -0.3951  0.1220
  478MOL0     C64432   0.225   5.017   7.612  0.2707  0.2131 -0.6328
  478MOL0     C64433   0.090   4.957   7.617  0.0842 -0.2351 -0.0997
  478MOL0     C64434  -0.009   5.053   7.685 -0.2318  0.0952 -0.3852
  478MOL0     C64435  -0.150   4.993   7.712  0.6439  0.3740  0.0861
  478MOL0     C64436  -0.144   4.880   7.822  0.7364 -0.8884  0.2155
  478MOL0     C64437  -0.283   4.833   7.853 -0.0702 -0.6190 -0.3007
  478MOL0     C64438  -0.271   4.725   7.964 -0.9549 -0.1517  0.0582
  478MOL0     C64439  -0.401   4.710   8.038 -0.2999  0.5692  0.6607
  478MOL0    Cl64440  -0.537   4.669   7.927 -0.0937 -0.0637  0.0528
  478MOL0     C64441   0.537   4.836   7.622  0.4672 -0.0542  0.2051
  478MOL0     C64442   0.666   4.866   7.655 -1.2875 -0.3077  0.1657
  478MOL0     O64443   0.851   4.921   7.879 -0.3088  0.5112 -0.0984
  478MOL0     C64444   1.124   4.921   7.874 -0.0611  1.3812  0.0377
  478MOL0     C64445   1.267   4.938   7.878 -0.3441 -0.6959 -0.2425
  478MOL0     N64446   1.802   5.471   7.714 -0.4939  0.5380  0.3710
  478MOL0     N64447   1.870   5.579   7.698 -0.7804  0.1471  0.6792
  478MOL0     C64448   2.915   6.082   7.580  0.0573 -0.3710  0.8897
  478MOL0     C64449   3.046   6.088   7.627 -0.0503 -0.7347  0.4337
  478MOL0     C64450   3.471   6.168   7.699 -0.0524  0.3775 -0.4647
  478MOL0     C64451   3.548   6.097   7.783 -0.1096  0.2264 -0.2807
  478MOL0     C64452   3.678   6.117   7.813 -0.0473 -0.8529  0.7799
  478MOL0     C64453   3.744   6.228   7.756 -0.1799  0.2975 -0.5664
  478MOL0     O64454   3.873   6.255   7.788 -0.2994 -0.2355 -0.8833
  478MOL0     C64455   3.967   6.243   7.681 -0.1351  0.0645  0.5860
  478MOL0     C64456   4.096   6.306   7.705 -0.3732 -0.0276  0.7703
  478MOL0     C64457   4.189   6.226   7.793 -0.6680  0.1298 -0.0749
  478MOL0     C64458   4.142   6.219   7.937 -0.5313 -0.0651 -1.0835
  478MOL0     C64459   4.255   6.153   8.011 -0.3662 -0.1432  0.4567
  478MOL0     C64460   4.344   6.090   8.058 -0.3160 -0.3365  0.1232
  478MOL0     C64461   3.668   6.309   7.670  0.6323 -0.2251  1.2330
  478MOL0     C64462   3.535   6.273   7.642 -0.4412 -0.7832 -0.5130
  478MOL0     H64463   3.159   6.345   7.439  0.1069  0.0707 -0.5462
  478MOL0     H64464   2.919   6.335   7.359 -0.4089 -1.8800 -1.9082
  478MOL0     H64465   2.693   5.970   7.459  2.2540  0.7846  1.3177
  478MOL0     H64466   2.630   6.098   7.569  0.9529 -0.8457  0.1860
  478MOL0     H64467   2.468   6.169   7.415 -1.1601 -0.3124  1.9861
  478MOL0     H64468   2.533   6.079   7.280 -1.5648 -0.7749 -0.2830
  478MOL0     H64469   2.493   5.862   7.392 -0.4108 -0.6308 -0.0974
  478MOL0     H64470   2.423   5.951   7.522  3.2670 -1.1377  0.7518
  478MOL0     H64471   2.243   6.019   7.387  0.6413  0.7899  0.6470
  478MOL0     H64472   2.312   5.957   7.234  0.7071 -0.2159 -0.7016
  478MOL0     H64473   2.171   5.780   7.288 -0.6387 -0.8643 -0.2308
  478MOL0     H64474   2.326   5.728   7.345 -0.6070  0.3771 -3.0189
  478MOL0     H64475   2.277   5.806   7.569 -0.6710  3.3436  0.7359
  478MOL0     H64476   2.124   5.870   7.525  0.8071  1.1905 -2.8721
  478MOL0     H64477   2.039   5.643   7.473 -0.9918  1.5644 -0.0816
  478MOL0     H64478   2.210   5.578   7.505 -1.3070 -1.0607  0.5143
  478MOL0     H64479   2.095   5.736   7.721 -0.4622 -0.3686  0.0069
  478MOL0     H64480   2.200   5.600   7.729 -0.0993 -1.0288 -0.1192
  478MOL0     H64481   2.104   5.353   7.718 -0.8093 -2.6981  2.7043
  478MOL0     H64482   1.871   5.183   7.626  0.7015 -2.8136  1.7691
  478MOL0     H64483   1.910   5.173   7.796  0.3651  1.1529 -0.1881
  478MOL0     H64484   1.685   5.084   7.725  2.6434 -0.2720  0.8130
  478MOL0     H64485   1.635   5.244   7.671 -0.5101  1.0791 -0.0009
  478MOL0     H64486   1.687   5.314   7.917  0.2820 -0.3909  0.6407
  478MOL0     H64487   1.691   5.138   7.952 -1.5937 -1.4063 -0.8213
  478MOL0     H64488   1.439   5.290   7.881 -0.0703 -0.8945  0.1765
  478MOL0     H64489   1.473   5.203   8.022  2.6233  0.0938  1.8151
  478MOL0     H64490   1.276   5.259   7.753 -0.8336  0.6672  0.7692
  478MOL0     H64491   0.915   5.259   7.781 -1.3234 -1.9748 -3.1250
  478MOL0     H64492   1.053   5.352   7.760 -3.8020  0.8136  2.9778
  478MOL0     H64493   0.990   5.242   7.628 -1.1090 -2.4261  1.2102
  478MOL0     H64494   0.664   5.200   7.598  2.2146 -1.5142 -0.7136
  478MOL0     H64495   0.436   5.141   7.538 -3.1665 -2.6100 -0.5115
  478MOL0     H64496   0.262   5.058   7.707  0.6555 -0.1399 -0.6283
  478MOL0     H64497   0.210   5.101   7.543  0.2553  0.9187  0.2106
  478MOL0     H64498   0.049   4.947   7.516  0.5710 -0.8404 -0.2467
  478MOL0     H64499   0.092   4.858   7.665 -1.6136  0.3788  1.3524
  478MOL0     H64500  -0.023   5.132   7.610 -0.7878 -0.2394 -0.6399
  478MOL0     H64501   0.032   5.092   7.779  0.3077  2.2874 -1.4535
  478MOL0     H64502  -0.226   5.061   7.752 -0.1864 -0.3825 -0.1757
  478MOL0     H64503  -0.177   4.943   7.619  1.8158 -2.5179  1.2013
  478MOL0     H64504  -0.095   4.927   7.908 -1.6977  0.9982  0.6744
  478MOL0     H64505  -0.089   4.790   7.794 -1.5176 -1.8683 -1.2950
  478MOL0     H64506  -0.334   4.917   7.900  1.9793  0.6176 -0.1438
  478MOL0     H64507  -0.338   4.793   7.767 -0.2502 -2.1309  0.4745
  478MOL0     H64508  -0.197   4.752   8.040 -0.3554 -1.9511  0.1619
  478MOL0     H64509  -0.226   4.633   7.924 -0.0923 -0.0855  0.8272
  478MOL0     H64510  -0.438   4.792   8.101 -2.2638 -0.1975  0.6016
  478MOL0     H64511  -0.387   4.631   8.112 -2.6102 -0.1446  0.4195
  478MOL0     H64512   0.500   4.736   7.642 -0.5669  0.6308  1.9546
  478MOL0     H64513   0.736   4.796   7.697 -0.3387  0.8577  0.5927
  478MOL0     H64514   1.069   4.829   7.892  0.8076  0.3455 -2.1629
  478MOL0     H64515   1.339   4.861   7.907 -1.8934 -3.0815 -2.2674
  478MOL0     H64516   2.850   6.008   7.625 -1.4677 -0.1410 -0.8166
  478MOL0     H64517   3.078   6.013   7.700  0.5240  1.3321  2.4341
  478MOL0     H64518   3.514   6.015   7.847  2.3853  0.7127  1.8284
  478MOL0     H64519   3.731   6.054   7.884 -0.6916 -0.6365  1.4607
  478MOL0     H64520   3.987   6.139   7.652  1.3101  1.0888 -2.4572
  478MOL0     H64521   3.908   6.286   7.600  1.0395  1.1543  0.2861
  478MOL0     H64522   4.077   6.402   7.754 -0.5989  0.1807  0.2855
  478MOL0     H64523   4.140   6.315   7.605  1.5322 -0.7003  1.5093
  478MOL0     H64524   4.282   6.283   7.800 -0.8299  0.4814 -0.7072
  478MOL0     H64525   4.212   6.129   7.749  2.8785  1.1674 -0.8765
  478MOL0     H64526   4.056   6.151   7.938 -1.3504  0.8611 -3.1086
  478MOL0     H64527   4.114   6.314   7.984 -3.2460 -0.5184 -1.6348
  478MOL0     H64528   4.426   6.032   8.096 -1.5818 -2.3369 -0.0726
  478MOL0     H64529   3.706   6.394   7.614  0.4031  0.1526  1.6392
  478MOL0     H64530   3.477   6.338   7.577 -0.9946 -3.3022 -2.6909
  479MOL0     O64531   9.996   6.126   3.392 -0.1795  0.0175 -0.2555
  479MOL0     C64532  10.087   6.191   3.345  0.0697 -0.5713  0.7881
  479MOL0     O64533  10.155   6.170   3.226  0.4693  0.2250 -0.1230
  479MOL0     C64534  10.092   6.081   3.154  0.8540  0.9522  0.8272
  479MOL0     C64535   9.963   6.119   3.104  0.6941 -0.9910 -1.3118
  479MOL0     C64536   9.901   6.043   3.010 -0.0526 -0.1067  0.3520
  479MOL0     C64537   9.944   5.917   2.974 -1.3986  0.5975  0.0253
  479MOL0     O64538   9.895   5.835   2.875  1.2164  0.0984 -0.6910
  479MOL0     C64539   9.759   5.864   2.820 -1.1207 -0.0419 -0.0579
  479MOL0     C64540   9.646   5.808   2.915 -0.5417  0.3647  0.8394
  479MOL0     C64541   9.667   5.659   2.934  0.2627  0.6258 -0.3363
  479MOL0     C64542   9.564   5.591   3.015  0.4928  1.0613 -0.4340
  479MOL0     C64543   9.552   5.437   3.002  0.1684 -0.2969  0.3607
  479MOL0     C64544   9.439   5.391   3.089 -0.0938  0.5366 -0.1727
  479MOL0     C64545   9.421   5.240   3.080 -0.5569  0.1990  0.0864
  479MOL0     C64546   9.289   5.177   3.136 -0.2533 -0.1381 -0.0522
  479MOL0     N64547   9.277   5.216   3.279 -0.3744  0.3311  0.5920
  479MOL0     C64548   9.358   5.162   3.373  0.2745  0.0214  0.1035
  479MOL0     C64549   9.323   5.238   3.488 -1.2911 -0.4986 -0.3465
  479MOL0     C64550   9.407   5.247   3.620 -0.6591  0.2920 -0.0774
  479MOL0     C64551   9.391   5.110   3.689 -0.1211 -0.0628  0.2460
  479MOL0     C64552   9.506   5.062   3.788  0.0971  0.5043  0.1147
  479MOL0     C64553   9.635   5.030   3.716 -1.4452 -0.0644  0.1898
  479MOL0     O64554   9.707   5.146   3.667  0.5512  0.1217  0.3163
  479MOL0     C64555   9.801   5.217   3.743 -0.5388 -1.2097 -0.3321
  479MOL0     C64556   9.865   5.321   3.682  0.1440 -0.3380 -1.0274
  479MOL0     C64557   9.953   5.404   3.754 -0.5056 -0.7546 -0.9375
  479MOL0     C64558   9.990   5.540   3.695 -0.0771 -1.1156 -0.6398
  479MOL0     C64559   9.993   5.378   3.892 -0.2771  0.1638  0.6075
  479MOL0     C64560  10.091   5.453   3.969 -0.2379 -0.3734 -0.0622
  479MOL0     O64561  10.082   5.443   4.108 -0.4369  0.4400  0.2304
  479MOL0     C64562  10.177   5.505   4.187 -0.6504 -0.0030  0.4045
  479MOL0     C64563  10.253   5.417   4.271  0.5836  0.1271 -0.2496
  479MOL0     C64564  10.349   5.482   4.354  0.4110  0.4117 -0.1620
  479MOL0     C64565  10.359   5.621   4.371 -0.2015  0.9155 -0.5823
  479MOL0     O64566  10.450   5.659   4.466  0.2459 -0.2032  0.2047
  479MOL0     C64567  10.445   5.790   4.520  0.5959 -0.3077  0.4304
  479MOL0     C64568  10.551   5.802   4.627  0.7997 -0.4607 -0.2617
  479MOL0     C64569  10.524   5.707   4.746 -0.2732 -0.5589  0.3209
  479MOL0     C64570  10.398   5.732   4.828 -0.1287  0.6744  1.3572
  479MOL0     C64571  10.396   5.662   4.964 -0.6362  0.7799  0.3859
  479MOL0     C64572  10.401   5.513   4.949 -0.5441  0.0873 -0.3728
  479MOL0     C64573  10.424   5.437   5.078 -0.0237  0.5051  0.4020
  479MOL0     C64574  10.318   5.439   5.193 -0.1899 -0.1896  0.4631
  479MOL0    Cl64575  10.181   5.342   5.143  0.3126 -0.0852 -0.2940
  479MOL0     C64576  10.276   5.698   4.289  0.2914 -0.0013 -1.2985
  479MOL0     C64577  10.197   5.641   4.193 -0.0902 -0.0626 -0.5442
  479MOL0     O64578  10.159   5.533   3.912  0.0464 -0.3918  0.5572
  479MOL0     C64579   9.933   5.262   3.951 -0.1938  0.6715  0.3648
  479MOL0     C64580   9.841   5.189   3.874  0.3493 -0.6040 -0.5479
  479MOL0     N64581   9.223   5.329   3.453  0.3746 -0.0457  0.2521
  479MOL0     N64582   9.198   5.309   3.327  0.9113  0.4217  1.2513
  479MOL0     C64583  10.068   5.871   3.039  0.5396 -0.1133  0.7699
  479MOL0     C64584  10.140   5.951   3.127  0.5919 -0.5090  0.4873
  479MOL0     C64585  10.139   6.300   3.441 -0.7901  0.3452  0.7682
  479MOL0     C64586  10.242   6.372   3.387  0.6890 -0.5208 -0.3866
  479MOL0     C64587  10.300   6.477   3.466  0.3584  1.2982  0.0105
  479MOL0     C64588  10.249   6.506   3.598  0.1469 -0.1881  1.2271
  479MOL0     O64589  10.302   6.600   3.683 -1.1071  0.1985  0.2636
  479MOL0     C64590  10.438   6.648   3.649  0.1191 -0.9039 -0.3302
  479MOL0     C64591  10.499   6.719   3.774  0.7692  0.6750 -0.3767
  479MOL0     C64592  10.641   6.750   3.756 -1.3118 -0.0896 -0.4231
  479MOL0     C64593  10.726   6.620   3.781  0.6157  0.2343 -0.7729
  479MOL0     C64594  10.748   6.593   3.922  0.6433 -0.4810 -0.0162
  479MOL0     C64595  10.748   6.572   4.045 -0.2301  0.0670 -0.1507
  479MOL0     C64596  10.135   6.438   3.642  0.1276  1.1335  0.2678
  479MOL0     C64597  10.078   6.338   3.559 -1.3124  0.2777  0.2858
  479MOL0     H64598   9.922   6.217   3.124  0.1125 -0.8103 -3.1913
  479MOL0     H64599   9.810   6.085   2.967 -2.7989 -3.6089  2.2125
  479MOL0     H64600   9.756   5.969   2.788  0.1399  0.2057  0.5449
  479MOL0     H64601   9.759   5.807   2.726 -0.5111 -1.1651  0.6017
  479MOL0     H64602   9.641   5.857   3.012  1.2156 -1.8095  2.1345
  479MOL0     H64603   9.550   5.815   2.862 -0.8291 -0.6734  1.1967
  479MOL0     H64604   9.656   5.611   2.836  0.3801 -1.1678  0.4934
  479MOL0     H64605   9.768   5.641   2.974 -0.2647 -2.1417 -0.0503
  479MOL0     H64606   9.557   5.623   3.119  0.5382  0.0386 -0.0986
  479MOL0     H64607   9.477   5.636   2.966  0.5115  0.6874 -0.8184
  479MOL0     H64608   9.529   5.408   2.899  0.6153  0.9571 -0.1053
  479MOL0     H64609   9.643   5.389   3.037 -2.0041 -3.2384  2.5497
  479MOL0     H64610   9.454   5.424   3.192  0.5004 -1.9412  0.6104
  479MOL0     H64611   9.349   5.445   3.060 -0.5310 -0.8139 -1.4676
  479MOL0     H64612   9.430   5.222   2.972  2.4295 -1.5778  0.5166
  479MOL0     H64613   9.490   5.179   3.139  1.5184 -2.1693 -4.2367
  479MOL0     H64614   9.277   5.072   3.109 -2.6648 -0.2915  1.3438
  479MOL0     H64615   9.201   5.225   3.092 -2.1300 -3.8238 -0.6391
  479MOL0     H64616   9.437   5.091   3.352  1.4413  1.4482 -0.5170
  479MOL0     H64617   9.515   5.256   3.601 -0.1002  0.2089  2.6348
  479MOL0     H64618   9.380   5.321   3.697  1.8719 -0.2389  1.4785
  479MOL0     H64619   9.387   5.034   3.611  0.9087 -0.3331  0.4419
  479MOL0     H64620   9.302   5.112   3.753  0.9602  1.9060  1.8460
  479MOL0     H64621   9.472   4.972   3.839  0.5694 -0.4761 -1.2574
  479MOL0     H64622   9.528   5.139   3.864 -1.1070 -1.7869  2.9615
  479MOL0     H64623   9.626   4.966   3.627 -0.0439 -1.6500  1.1398
  479MOL0     H64624   9.699   4.971   3.781  0.6336  1.9940  0.1235
  479MOL0     H64625   9.842   5.344   3.578 -2.0993 -0.4912 -0.6272
  479MOL0     H64626   9.989   5.621   3.769 -3.8350  1.0754 -2.8067
  479MOL0     H64627  10.083   5.533   3.638  0.1446  0.0523 -0.4591
  479MOL0     H64628   9.921   5.575   3.618  1.2452  2.3121 -0.4780
  479MOL0     H64629  10.237   5.310   4.281 -2.1214  0.3009 -1.8389
  479MOL0     H64630  10.408   5.422   4.423 -1.3503 -3.1038 -1.4672
  479MOL0     H64631  10.459   5.866   4.442  1.7558 -2.2736 -1.3868
  479MOL0     H64632  10.351   5.810   4.572  0.5436  2.0864 -0.4504
  479MOL0     H64633  10.647   5.777   4.580  0.8731  0.4626 -0.6310
  479MOL0     H64634  10.563   5.903   4.667  1.4149 -0.2350 -0.9886
  479MOL0     H64635  10.612   5.709   4.812 -1.7478  2.5270  2.4216
  479MOL0     H64636  10.521   5.606   4.704 -2.2482 -0.8998  1.1434
  479MOL0     H64637  10.395   5.839   4.850 -2.0783  0.3475  3.0070
  479MOL0     H64638  10.304   5.721   4.773 -0.5382  0.8919  2.0031
  479MOL0     H64639  10.299   5.689   5.008 -0.0968  0.8913  1.5370
  479MOL0     H64640  10.475   5.690   5.035  0.4889  0.5339 -0.7397
  479MOL0     H64641  10.309   5.479   4.900 -1.1194  1.6286 -0.4173
  479MOL0     H64642  10.491   5.491   4.891 -0.3757 -0.0114 -0.0788
  479MOL0     H64643  10.523   5.462   5.119 -0.4600  1.5545  0.8510
  479MOL0     H64644  10.427   5.330   5.056 -1.0319  0.6344 -0.4446
  479MOL0     H64645  10.283   5.540   5.217  0.4963 -0.1553  1.3655
  479MOL0     H64646  10.361   5.386   5.278 -0.5920  1.0132  1.4432
  479MOL0     H64647  10.265   5.806   4.294  1.0318  0.0138  1.2114
  479MOL0     H64648  10.134   5.694   4.123 -1.7810 -1.3319 -0.0508
  479MOL0     H64649   9.962   5.233   4.051  2.0839 -0.6405 -0.5934
  479MOL0     H64650   9.801   5.102   3.926  2.4967 -0.2021  2.0093
  479MOL0     H64651  10.103   5.772   3.014 -1.4493 -1.4941  2.9828
  479MOL0     H64652  10.226   5.914   3.182  0.8432 -1.3884 -0.4716
  479MOL0     H64653  10.273   6.367   3.283  1.1477  1.0524 -0.3371
  479MOL0     H64654  10.372   6.552   3.436  0.5450  1.0437 -0.1779
  479MOL0     H64655  10.506   6.566   3.624  0.9533 -0.1604 -0.5114
  479MOL0     H64656  10.424   6.721   3.569 -0.9363 -1.8036 -1.0050
  479MOL0     H64657  10.484   6.653   3.860 -0.2617 -1.4648 -2.1105
  479MOL0     H64658  10.436   6.806   3.798 -0.2505 -0.3386  0.7777
  479MOL0     H64659  10.684   6.842   3.796  3.3686 -0.7482 -3.1024
  479MOL0     H64660  10.648   6.767   3.648 -0.9750  0.6408 -0.2932
  479MOL0     H64661  10.823   6.617   3.731  0.8753 -1.3121 -0.2270
  479MOL0     H64662  10.680   6.535   3.730 -1.5663  1.2811 -0.6386
  479MOL0     H64663  10.757   6.559   4.151  0.1538  0.2438 -0.1610
  479MOL0     H64664  10.092   6.481   3.732 -1.1476 -1.1402  0.8171
  479MOL0     H64665   9.997   6.290   3.613  0.9482 -1.2484  2.5697
  480MOL0     O64666  10.371   3.968  10.685 -0.4756 -0.1645  0.4761
  480MOL0     C64667  10.483   4.013  10.713  1.1270 -0.7363  0.3996
  480MOL0     O64668  10.519   4.061  10.844 -0.1498  0.3631  0.0986
  480MOL0     C64669  10.428   4.054  10.944 -0.9938  0.6607 -0.3850
  480MOL0     C64670  10.387   4.166  11.007 -0.5263  0.1738 -0.8342
  480MOL0     C64671  10.307   4.156  11.119  0.0032 -0.9075  0.3849
  480MOL0     C64672  10.260   4.039  11.171 -0.6656 -0.2400  0.7643
  480MOL0     O64673  10.178   4.045  11.282  0.6832 -0.4215  0.3135
  480MOL0     C64674  10.146   3.913  11.336  0.2639 -0.6390 -0.1964
  480MOL0     C64675  10.062   3.936  11.467  0.5567 -0.3821 -0.3501
  480MOL0     C64676  10.040   3.805  11.536 -0.0670 -0.2763  0.4866
  480MOL0     C64677   9.899   3.784  11.593  0.9596  0.0997 -0.4563
  480MOL0     C64678   9.803   3.711  11.496  0.2148  0.1221  0.9674
  480MOL0     C64679   9.656   3.697  11.543 -0.7672 -0.0616  0.2781
  480MOL0     C64680   9.564   3.698  11.416  0.5701 -1.1974 -0.1134
  480MOL0     C64681   9.415   3.741  11.435  0.3421 -0.5442 -0.1339
  480MOL0     N64682   9.405   3.878  11.472  0.4374  0.3117 -0.2455
  480MOL0     C64683   9.347   3.928  11.589  0.3412 -0.3067 -0.4671
  480MOL0     C64684   9.354   4.068  11.577 -0.1175 -0.9685  0.5428
  480MOL0     C64685   9.310   4.184  11.664 -0.0900 -0.6896  0.0343
  480MOL0     C64686   9.153   4.183  11.679 -0.4611 -0.4331  0.1977
  480MOL0     C64687   9.092   4.322  11.694  0.3267 -0.0170  0.6805
  480MOL0     C64688   9.130   4.390  11.819 -0.1175  0.3019 -0.2571
  480MOL0     O64689   9.082   4.529  11.825 -0.0723  0.4290 -0.8350
  480MOL0     C64690   8.946   4.563  11.813  0.1260  0.1586 -0.2153
  480MOL0     C64691   8.832   4.480  11.808 -0.1887  0.3845  0.6965
  480MOL0     C64692   8.705   4.522  11.767 -1.1185 -0.9127 -0.6214
  480MOL0     C64693   8.599   4.420  11.745  0.3989  0.8177 -0.6504
  480MOL0     C64694   8.689   4.662  11.757 -0.0948  0.6789  0.5333
  480MOL0     C64695   8.559   4.729  11.718 -0.2455 -0.3652  0.7353
  480MOL0     O64696   8.573   4.844  11.639  0.0869  0.3921  0.4695
  480MOL0     C64697   8.456   4.911  11.619  0.2920  0.1681  0.5204
  480MOL0     C64698   8.422   5.021  11.692 -1.0474  0.2113  0.5310
  480MOL0     C64699   8.318   5.108  11.661 -0.8137  0.0604  0.2961
  480MOL0     C64700   8.235   5.083  11.547 -1.3278 -0.2329 -0.0033
  480MOL0     O64701   8.123   5.155  11.512 -0.0820  0.4906 -0.2776
  480MOL0     C64702   8.064   5.261  11.593 -0.7681 -0.0013  0.4411
  480MOL0     C64703   7.917   5.275  11.546  0.3912 -0.0829 -0.1106
  480MOL0     C64704   7.818   5.318  11.661  0.3786 -0.3268 -0.0702
  480MOL0     C64705   7.834   5.466  11.704 -0.5242 -0.5792  0.3447
  480MOL0     C64706   7.825   5.581  11.588  0.0424  0.1713 -0.4319
  480MOL0     C64707   7.677   5.625  11.561 -0.4336  0.4598 -0.4044
  480MOL0     C64708   7.677   5.777  11.541  0.2235 -0.5725 -0.2565
  480MOL0     C64709   7.542   5.835  11.520 -0.1134  0.5936 -0.3928
  480MOL0    Cl64710   7.455   5.807  11.674 -0.4143  0.0415  0.1486
  480MOL0     C64711   8.283   4.972  11.466  0.5702  0.1255 -0.1806
  480MOL0     C64712   8.387   4.890  11.505  0.6212 -0.4752  0.1255
  480MOL0     O64713   8.456   4.680  11.752 -0.3857 -0.4562  0.4906
  480MOL0     C64714   8.799   4.749  11.786  0.6425  0.2805  0.1495
  480MOL0     C64715   8.916   4.698  11.816  0.1112 -0.9628  1.5256
  480MOL0     N64716   9.435   4.096  11.457  0.0095  0.0040 -0.7646
  480MOL0     N64717   9.463   3.982  11.405 -0.6893  0.3264  0.1525
  480MOL0     C64718  10.307   3.924  11.104  0.6195  0.2262 -0.7893
  480MOL0     C64719  10.390   3.928  10.989  0.2320  0.2659  0.2123
  480MOL0     C64720  10.594   3.988  10.621 -0.0872  0.5667 -0.4056
  480MOL0     C64721  10.585   3.937  10.487 -0.5405  0.3638  0.0764
  480MOL0     C64722  10.696   3.920  10.405  0.4810  1.0935 -0.0059
  480MOL0     C64723  10.824   3.958  10.459  0.5517 -0.6486  0.6487
  480MOL0     O64724  10.928   3.963  10.377 -0.5786  0.7854  0.2976
  480MOL0     C64725  10.924   3.893  10.254 -0.0478 -0.2192  0.5814
  480MOL0     C64726  11.065   3.894  10.214  0.5614  0.3059  0.2542
  480MOL0     C64727  11.077   3.808  10.077  0.6703  0.7758 -1.1257
  480MOL0     C64728  11.203   3.831  10.001 -0.8748 -0.3482  0.0530
  480MOL0     C64729  11.333   3.809  10.083 -0.7078 -0.0163  0.4284
  480MOL0     C64730  11.436   3.791  10.144  0.5690 -0.1811 -0.2259
  480MOL0     C64731  10.834   4.010  10.588  0.6082  0.3304 -0.0896
  480MOL0     C64732  10.724   4.022  10.676 -0.7599  0.2530  0.1567
  480MOL0     H64733  10.405   4.265  10.967  0.8257  0.8655  1.2924
  480MOL0     H64734  10.287   4.252  11.166  1.7487 -1.1722  1.7847
  480MOL0     H64735  10.084   3.849  11.272  1.0473 -1.4066 -0.2157
  480MOL0     H64736  10.243   3.866  11.354  3.2266  4.2262 -1.7581
  480MOL0     H64737  10.118   4.001  11.535  1.3397 -1.1333 -0.2518
  480MOL0     H64738   9.970   3.992  11.449 -1.2038 -3.4157 -1.4528
  480MOL0     H64739  10.065   3.724  11.467  1.8597  0.8292 -0.1871
  480MOL0     H64740  10.121   3.808  11.610 -0.1189  0.1472  0.5268
  480MOL0     H64741   9.907   3.725  11.685 -0.8352 -0.9752 -0.9418
  480MOL0     H64742   9.856   3.882  11.617  0.3710 -0.6546  1.8020
  480MOL0     H64743   9.811   3.773  11.407 -0.0060 -1.1146  0.0540
  480MOL0     H64744   9.855   3.618  11.471  0.7890  0.6271  0.2517
  480MOL0     H64745   9.639   3.611  11.607  1.2446 -0.8544 -0.1975
  480MOL0     H64746   9.637   3.796  11.587  0.1570 -0.2603  1.1494
  480MOL0     H64747   9.601   3.772  11.345 -2.0997 -0.7413 -1.1588
  480MOL0     H64748   9.565   3.597  11.375  1.8541 -0.1756 -2.8226
  480MOL0     H64749   9.360   3.672  11.499  1.2697 -2.7806 -1.6349
  480MOL0     H64750   9.357   3.732  11.343 -3.3631 -0.8876  2.0032
  480MOL0     H64751   9.283   3.863  11.648 -0.1099  0.1741 -0.4204
  480MOL0     H64752   9.351   4.159  11.763  0.7414 -1.2790 -0.4526
  480MOL0     H64753   9.354   4.277  11.627  0.6918 -1.8152 -1.9867
  480MOL0     H64754   9.121   4.121  11.763  3.1554 -0.5288  1.6676
  480MOL0     H64755   9.115   4.145  11.584 -0.2472  2.0273 -0.9557
  480MOL0     H64756   8.986   4.297  11.696 -0.0106  1.2068 -0.8407
  480MOL0     H64757   9.113   4.390  11.612  0.4966  1.0889  1.6149
  480MOL0     H64758   9.238   4.375  11.822 -0.4212 -2.4302 -0.7273
  480MOL0     H64759   9.078   4.330  11.894  1.5800 -0.9832 -0.0618
  480MOL0     H64760   8.853   4.377  11.837  2.6373  0.4316 -0.9109
  480MOL0     H64761   8.637   4.318  11.740  0.3975  0.7718  0.1491
  480MOL0     H64762   8.528   4.417  11.828  1.3548 -3.8778  0.2859
  480MOL0     H64763   8.538   4.441  11.657  1.0217 -2.7401 -2.0959
  480MOL0     H64764   8.490   5.042  11.774  1.4546  1.9829 -1.8369
  480MOL0     H64765   8.305   5.193  11.728  0.7473  0.4973  0.0738
  480MOL0     H64766   8.079   5.245  11.701 -0.9969 -0.2945  0.4320
  480MOL0     H64767   8.100   5.360  11.565 -3.2466  0.6713 -0.6077
  480MOL0     H64768   7.905   5.332  11.454 -0.2551 -0.8653 -0.5262
  480MOL0     H64769   7.893   5.170  11.526 -2.4611  0.5086 -0.3252
  480MOL0     H64770   7.827   5.259  11.753 -0.8291  0.6321  0.6859
  480MOL0     H64771   7.720   5.306  11.613  1.5768 -0.2162 -2.7572
  480MOL0     H64772   7.763   5.494  11.783  1.0479  0.9024  1.3014
  480MOL0     H64773   7.931   5.478  11.752 -1.6818  2.7296  2.2369
  480MOL0     H64774   7.864   5.545  11.492 -0.9965  1.4401 -1.3679
  480MOL0     H64775   7.880   5.672  11.613  0.9578  0.4765 -3.2065
  480MOL0     H64776   7.645   5.571  11.472  0.7099 -2.0383  0.6190
  480MOL0     H64777   7.612   5.599  11.645 -1.2576  1.0925 -0.8287
  480MOL0     H64778   7.738   5.798  11.452  0.9880 -2.5847 -0.2816
  480MOL0     H64779   7.733   5.818  11.625  0.8725 -2.2550  0.1878
  480MOL0     H64780   7.495   5.785  11.435 -1.6970 -1.5232  1.5944
  480MOL0     H64781   7.544   5.943  11.501 -0.4950  1.1467  2.2350
  480MOL0     H64782   8.234   4.945  11.373  1.2387 -0.5687 -0.3311
  480MOL0     H64783   8.411   4.801  11.448  0.4856 -1.0636  0.9752
  480MOL0     H64784   8.785   4.857  11.777 -1.4504 -0.0280 -1.0298
  480MOL0     H64785   8.994   4.772  11.830  0.3027 -0.0042 -2.8932
  480MOL0     H64786  10.278   3.826  11.140 -1.2616  1.0273  0.0282
  480MOL0     H64787  10.431   3.836  10.949  0.7999 -0.0752  1.5354
  480MOL0     H64788  10.483   3.906  10.466 -0.6538  1.1889 -0.6972
  480MOL0     H64789  10.682   3.906  10.298 -1.7022  1.0595  0.2419
  480MOL0     H64790  10.887   3.791  10.265  0.5315 -0.7385 -1.7172
  480MOL0     H64791  10.859   3.940  10.179  0.4091 -2.0556 -1.0394
  480MOL0     H64792  11.121   3.854  10.299 -0.1665  3.2765  2.3061
  480MOL0     H64793  11.094   3.999  10.203 -0.8584  0.6589 -0.2687
  480MOL0     H64794  10.987   3.823  10.017  0.2859  1.8553 -0.3097
  480MOL0     H64795  11.080   3.706  10.117  2.4289  2.0272  2.3306
  480MOL0     H64796  11.194   3.937   9.971  0.2280 -0.3379 -0.3139
  480MOL0     H64797  11.201   3.766   9.913  2.0965 -0.6322  0.0711
  480MOL0     H64798  11.524   3.783  10.204  1.0473  1.5480 -0.6272
  480MOL0     H64799  10.927   4.054  10.623  0.7121  0.3125 -0.3459
  480MOL0     H64800  10.736   4.078  10.768  1.2771  2.6085 -1.4035
  481MOL0     O64801   4.990   9.210   2.452  0.5323 -0.1177  0.8357
  481MOL0     C64802   5.039   9.254   2.553 -0.3715  0.3320  0.4903
  481MOL0     O64803   4.996   9.363   2.623  0.4646 -0.2913 -0.4237
  481MOL0     C64804   4.865   9.399   2.612  0.7983  0.0606 -0.2434
  481MOL0     C64805   4.828   9.530   2.626  0.7134  0.5487 -0.0792
  481MOL0     C64806   4.693   9.564   2.623  0.0093 -0.7119 -0.1800
  481MOL0     C64807   4.593   9.460   2.607  0.4641  0.1259  0.8569
  481MOL0     O64808   4.460   9.495   2.589 -0.2154  0.3524  0.2646
  481MOL0     C64809   4.353   9.406   2.626  0.5076 -0.4170  0.6493
  481MOL0     C64810   4.214   9.472   2.639 -0.3080  0.0842  0.1015
  481MOL0     C64811   4.100   9.387   2.686  0.5252 -0.0879  0.0980
  481MOL0     C64812   3.981   9.474   2.677  0.0721 -0.0700 -0.2878
  481MOL0     C64813   3.853   9.390   2.695 -0.4037  0.0447  0.2326
  481MOL0     C64814   3.849   9.300   2.823  0.1442 -0.0993 -0.2203
  481MOL0     C64815   3.699   9.249   2.840  0.1425 -0.4919 -0.1409
  481MOL0     C64816   3.629   9.359   2.922 -0.2406  0.4908 -0.6366
  481MOL0     N64817   3.494   9.303   2.963  0.2212 -0.2688 -0.0877
  481MOL0     C64818   3.380   9.371   2.996  0.2471  0.3984  0.4591
  481MOL0     C64819   3.284   9.281   3.010 -0.2955  0.7161  0.2831
  481MOL0     C64820   3.150   9.323   3.062  0.0466  0.3045  0.6722
  481MOL0     C64821   3.165   9.311   3.221  0.0207 -0.0005 -0.4898
  481MOL0     C64822   3.026   9.346   3.293 -0.4736 -0.4211  0.3408
  481MOL0     C64823   3.004   9.495   3.303  0.0102 -0.7770 -0.1639
  481MOL0     O64824   3.083   9.545   3.412 -0.0301  0.5595  0.4138
  481MOL0     C64825   3.105   9.681   3.405 -1.3398 -0.9890  0.1586
  481MOL0     C64826   3.212   9.722   3.481 -0.3012 -0.2334 -0.7476
  481MOL0     C64827   3.248   9.861   3.482  0.5176 -0.8287 -0.9763
  481MOL0     C64828   3.374   9.906   3.555  0.5458 -0.3912  0.7898
  481MOL0     C64829   3.171   9.951   3.407 -0.3546  0.1391  0.2040
  481MOL0     C64830   3.212  10.083   3.382 -0.3155 -0.4233 -0.2513
  481MOL0     O64831   3.128  10.188   3.418 -0.3473  0.4399 -0.1986
  481MOL0     C64832   3.166  10.309   3.365  0.9980  0.7962 -0.1024
  481MOL0     C64833   3.255  10.396   3.434  0.4957 -0.7088 -0.5274
  481MOL0     C64834   3.295  10.501   3.357 -0.4212 -0.2007 -0.1343
  481MOL0     C64835   3.243  10.542   3.232  0.0741  0.1477 -0.3645
  481MOL0     O64836   3.286  10.646   3.153  0.6230 -0.4321 -0.4503
  481MOL0     C64837   3.287  10.771   3.222 -0.2147  0.8119 -0.7929
  481MOL0     C64838   3.291  10.886   3.124  0.2337  0.2423  0.1233
  481MOL0     C64839   3.340  11.024   3.177 -0.5570  0.5501 -0.8568
  481MOL0     C64840   3.407  11.097   3.062  1.2780  1.1045 -0.0434
  481MOL0     C64841   3.482  11.228   3.100  0.1525 -0.4655 -0.4955
  481MOL0     C64842   3.378  11.336   3.152  0.4420 -0.2814 -0.6479
  481MOL0     C64843   3.441  11.478   3.178 -0.7341  0.4202  0.3799
  481MOL0     C64844   3.425  11.576   3.059  0.8751  0.0892  0.7651
  481MOL0    Cl64845   3.288  11.671   3.107  0.4385  0.0627 -0.1669
  481MOL0     C64846   3.146  10.456   3.179  0.7976 -0.5002 -0.3875
  481MOL0     C64847   3.114  10.339   3.240  1.3641  0.0679  0.1470
  481MOL0     O64848   3.309  10.094   3.307 -0.3494  0.1059  0.1670
  481MOL0     C64849   3.047   9.908   3.347 -0.2819  0.4133 -0.5746
  481MOL0     C64850   3.014   9.769   3.349  0.8791 -0.2248  0.6662
  481MOL0     N64851   3.327   9.157   2.986 -0.1483  0.1590  0.1221
  481MOL0     N64852   3.457   9.173   2.960 -0.0426 -0.4620 -0.0542
  481MOL0     C64853   4.630   9.330   2.595  0.3375 -0.1635 -0.3477
  481MOL0     C64854   4.765   9.298   2.598 -0.2893 -0.3024  0.4097
  481MOL0     C64855   5.176   9.215   2.598 -0.0670 -0.2953  0.2181
  481MOL0     C64856   5.206   9.238   2.732  0.0423 -0.1201 -0.1733
  481MOL0     C64857   5.332   9.211   2.783  0.5417 -0.4297 -0.4100
  481MOL0     C64858   5.429   9.147   2.711  0.1523  0.5134  0.5914
  481MOL0     O64859   5.540   9.101   2.782 -0.0029  1.1858  0.2879
  481MOL0     C64860   5.634   9.018   2.703  0.5501  0.1318 -0.7478
  481MOL0     C64861   5.727   8.935   2.797 -0.0040 -1.3123  0.1151
  481MOL0     C64862   5.816   9.018   2.891 -0.0990 -0.2903 -0.8487
  481MOL0     C64863   5.896   8.933   2.989  0.3548 -0.1803 -0.2400
  481MOL0     C64864   5.825   8.886   3.106  0.4701  0.3158 -0.1261
  481MOL0     C64865   5.783   8.837   3.214 -0.2182 -0.9371 -0.4315
  481MOL0     C64866   5.398   9.128   2.569 -0.5925  0.1193 -0.1177
  481MOL0     C64867   5.271   9.166   2.517 -0.5637 -0.2984  0.0764
  481MOL0     H64868   4.903   9.608   2.634  3.3897 -1.6010 -2.2157
  481MOL0     H64869   4.674   9.671   2.626 -0.6405 -0.8370  0.5043
  481MOL0     H64870   4.335   9.331   2.548 -4.2755  0.3452  0.6833
  481MOL0     H64871   4.373   9.358   2.722 -0.4459  0.3606  1.2595
  481MOL0     H64872   4.233   9.555   2.707  1.0008  0.7088 -0.9926
  481MOL0     H64873   4.184   9.520   2.546  2.1589  1.8302  0.1234
  481MOL0     H64874   4.091   9.300   2.620  1.5054  1.3497 -2.0368
  481MOL0     H64875   4.118   9.347   2.786 -1.5681 -0.9615  0.1777
  481MOL0     H64876   3.989   9.554   2.751 -1.2206 -1.5138  1.5215
  481MOL0     H64877   3.986   9.522   2.579 -2.0814  0.3198 -0.2483
  481MOL0     H64878   3.780   9.470   2.709 -0.7931 -0.1797 -0.4286
  481MOL0     H64879   3.827   9.342   2.600  0.0516  1.9150 -0.8919
  481MOL0     H64880   3.909   9.209   2.811  1.0537  0.3795  0.6181
  481MOL0     H64881   3.876   9.351   2.915 -0.9751  1.4373 -0.7070
  481MOL0     H64882   3.657   9.240   2.740 -0.7929  1.8159 -0.0058
  481MOL0     H64883   3.689   9.153   2.892 -2.4636 -0.5748 -0.6932
  481MOL0     H64884   3.618   9.449   2.861 -1.5594  2.0547  1.7287
  481MOL0     H64885   3.673   9.387   3.018 -0.5755  0.0433 -0.3474
  481MOL0     H64886   3.376   9.479   2.988 -0.4412  0.4851  1.8427
  481MOL0     H64887   3.114   9.421   3.030 -0.9983  0.6888  2.8590
  481MOL0     H64888   3.079   9.249   3.026 -1.1209 -0.3121  3.9007
  481MOL0     H64889   3.245   9.374   3.261 -2.1587  1.6059  1.6346
  481MOL0     H64890   3.183   9.204   3.233  1.8401  0.3240 -0.1057
  481MOL0     H64891   3.033   9.307   3.395 -0.2715 -2.5351 -0.4174
  481MOL0     H64892   2.946   9.290   3.242  0.0021 -0.2910 -0.5813
  481MOL0     H64893   2.897   9.507   3.324  0.2154  0.1783  0.3814
  481MOL0     H64894   3.040   9.547   3.214  1.9439  2.4926  2.2726
  481MOL0     H64895   3.286   9.655   3.524  1.9777  2.8954  0.6532
  481MOL0     H64896   3.458   9.926   3.488 -2.3946  1.0720 -2.7926
  481MOL0     H64897   3.344   9.996   3.609 -3.5853  0.3438 -2.2279
  481MOL0     H64898   3.398   9.821   3.620  2.5277 -3.2598 -3.2707
  481MOL0     H64899   3.272  10.371   3.539 -0.6985  1.2436  0.1923
  481MOL0     H64900   3.378  10.554   3.402  0.7158 -2.1696  0.2161
  481MOL0     H64901   3.207  10.769   3.297  0.3118 -0.9178 -0.2276
  481MOL0     H64902   3.379  10.781   3.280 -0.3760 -0.9987 -0.1456
  481MOL0     H64903   3.364  10.870   3.044  0.8917  0.0769  0.7483
  481MOL0     H64904   3.193  10.898   3.076  0.4533 -1.6615 -0.8705
  481MOL0     H64905   3.417  11.005   3.253 -1.2203 -1.2874 -0.5961
  481MOL0     H64906   3.266  11.084   3.230 -0.6931 -0.1648 -0.2118
  481MOL0     H64907   3.477  11.036   3.004 -1.7835 -1.2985 -1.5069
  481MOL0     H64908   3.321  11.127   3.001 -0.5955 -0.3873  1.7373
  481MOL0     H64909   3.529  11.268   3.010 -0.9683 -0.5469 -1.1373
  481MOL0     H64910   3.564  11.205   3.170 -1.6048  1.4906  2.4419
  481MOL0     H64911   3.300  11.345   3.076  0.0136  0.1583 -0.1686
  481MOL0     H64912   3.339  11.299   3.248  3.6446 -0.6347  0.6493
  481MOL0     H64913   3.550  11.467   3.178 -0.7593  0.1161 -0.4906
  481MOL0     H64914   3.410  11.514   3.277 -0.1779 -1.1022  1.1501
  481MOL0     H64915   3.405  11.540   2.957 -1.6921  3.3792 -0.0991
  481MOL0     H64916   3.515  11.638   3.057  0.4902  0.6702 -1.4652
  481MOL0     H64917   3.109  10.478   3.079 -2.4933  0.6603  0.9652
  481MOL0     H64918   3.041  10.283   3.183  3.5877 -1.6336 -1.1308
  481MOL0     H64919   2.994   9.983   3.288  1.6318  0.0721 -2.8641
  481MOL0     H64920   2.927   9.732   3.297  0.0030  2.6151 -0.0838
  481MOL0     H64921   4.549   9.261   2.575  0.5921 -0.5053 -0.2123
  481MOL0     H64922   4.782   9.192   2.586 -0.4606 -0.0253 -3.5605
  481MOL0     H64923   5.132   9.284   2.796 -1.0330  1.3178 -2.3104
  481MOL0     H64924   5.351   9.226   2.889  2.1518 -2.7637 -0.2996
  481MOL0     H64925   5.575   8.946   2.647 -1.3123  0.5319  0.6061
  481MOL0     H64926   5.687   9.084   2.634  0.7687  3.2345  2.1169
  481MOL0     H64927   5.779   8.868   2.729  1.3871 -3.3887  2.9727
  481MOL0     H64928   5.669   8.869   2.864 -1.5595  0.5708  0.7115
  481MOL0     H64929   5.771   9.092   2.958  0.8574 -0.7863  0.3946
  481MOL0     H64930   5.876   9.086   2.830 -1.2145  1.8782  0.3201
  481MOL0     H64931   5.960   9.002   3.043  0.4191 -0.6610  0.3111
  481MOL0     H64932   5.952   8.859   2.930  0.7496 -0.2696  0.2453
  481MOL0     H64933   5.747   8.793   3.304 -0.8036  0.9867  0.3171
  481MOL0     H64934   5.460   9.079   2.495 -0.4879  2.3973 -1.6242
  481MOL0     H64935   5.249   9.158   2.411 -0.7979 -0.8678  0.1702
  482MOL0     O64936   6.347   3.630   1.249  0.0089  0.0151  0.5093
  482MOL0     C64937   6.461   3.640   1.291 -0.1023 -0.1489 -0.4169
  482MOL0     O64938   6.532   3.537   1.342  0.3361  0.3092  0.4376
  482MOL0     C64939   6.459   3.420   1.380 -0.3016 -0.2820 -0.9671
  482MOL0     C64940   6.364   3.356   1.306  0.6549 -0.1529  0.3820
  482MOL0     C64941   6.305   3.244   1.367  0.6268  0.5050 -0.3187
  482MOL0     C64942   6.350   3.188   1.490 -0.0076 -0.3218 -0.3022
  482MOL0     O64943   6.291   3.080   1.559 -0.5055 -0.3328  0.1712
  482MOL0     C64944   6.190   3.000   1.495 -0.4865 -0.0991 -0.4320
  482MOL0     C64945   6.140   2.928   1.622  0.4360 -0.2394  0.0277
  482MOL0     C64946   6.076   2.797   1.592 -0.5194 -0.2950 -1.2367
  482MOL0     C64947   5.943   2.818   1.513  0.3368 -0.2874  0.2328
  482MOL0     C64948   5.869   2.688   1.509 -0.5473  0.5091  0.7387
  482MOL0     C64949   5.742   2.708   1.421  0.3355  0.8699  0.2434
  482MOL0     C64950   5.756   2.729   1.270  0.5634  0.2086  0.5505
  482MOL0     C64951   5.830   2.609   1.192  0.4061 -0.5283 -0.0465
  482MOL0     N64952   5.789   2.476   1.248 -0.7046 -0.8030 -0.3240
  482MOL0     C64953   5.658   2.424   1.259 -0.1845 -0.2501  0.0798
  482MOL0     C64954   5.668   2.292   1.287  0.7800  0.4635 -0.5072
  482MOL0     C64955   5.553   2.194   1.271  0.3873  0.6755 -0.6783
  482MOL0     C64956   5.528   2.154   1.123  0.0679 -0.1786 -0.4763
  482MOL0     C64957   5.462   2.274   1.048 -0.2180  0.5925  0.1495
  482MOL0     C64958   5.411   2.241   0.912  0.2376  0.0118 -0.3015
  482MOL0     O64959   5.324   2.127   0.932  0.6761  0.7238 -0.5629
  482MOL0     C64960   5.301   2.050   0.824  0.0943 -0.0805 -0.3131
  482MOL0     C64961   5.335   2.065   0.688 -0.7308 -0.5857  0.6993
  482MOL0     C64962   5.318   1.965   0.595 -0.0554  0.1091  0.7318
  482MOL0     C64963   5.377   1.999   0.458 -0.7411  0.5975  0.2759
  482MOL0     C64964   5.259   1.842   0.627 -0.3007  0.5427 -1.2175
  482MOL0     C64965   5.242   1.726   0.525  0.4936  0.1134  0.3855
  482MOL0     O64966   5.183   1.620   0.576  0.0020  0.1815  0.8513
  482MOL0     C64967   5.066   1.567   0.523 -0.9816  0.1251 -0.2235
  482MOL0     C64968   5.072   1.480   0.418  0.4292  0.6866 -0.4986
  482MOL0     C64969   4.966   1.401   0.388 -0.2905 -0.2424  0.6920
  482MOL0     C64970   4.830   1.425   0.435  0.0390  0.1636  0.1195
  482MOL0     O64971   4.719   1.349   0.409 -0.0015 -0.3584  0.3051
  482MOL0     C64972   4.730   1.217   0.365  0.7300  0.9811  0.1098
  482MOL0     C64973   4.608   1.138   0.406  0.7260 -0.1837  1.0323
  482MOL0     C64974   4.475   1.203   0.349  0.4893  0.7543 -0.2283
  482MOL0     C64975   4.356   1.112   0.389  0.2515  0.5845 -0.1140
  482MOL0     C64976   4.234   1.133   0.296 -0.8552  0.6832 -0.0835
  482MOL0     C64977   4.106   1.133   0.376 -0.0187 -0.4695 -0.1477
  482MOL0     C64978   3.987   1.183   0.299  0.0400  0.2867  0.0555
  482MOL0     C64979   3.857   1.119   0.357  0.2457  1.1971 -0.1206
  482MOL0    Cl64980   3.733   1.149   0.236 -0.3720 -0.1352  0.1541
  482MOL0     C64981   4.821   1.542   0.519 -0.3431  0.0611 -0.6480
  482MOL0     C64982   4.941   1.607   0.573 -0.4556  0.7586 -0.1207
  482MOL0     O64983   5.274   1.742   0.407 -0.4909  1.0339  0.2689
  482MOL0     C64984   5.215   1.828   0.766  1.1415 -0.1277  0.4326
  482MOL0     C64985   5.230   1.932   0.857  0.1955 -0.5506  0.1875
  482MOL0     N64986   5.800   2.265   1.304  0.8121 -0.1838 -0.2773
  482MOL0     N64987   5.870   2.369   1.278 -0.0022 -0.3977  0.6252
  482MOL0     C64988   6.454   3.259   1.559 -0.0520 -0.1648  0.3566
  482MOL0     C64989   6.507   3.371   1.504  0.9545 -0.4319  0.0570
  482MOL0     C64990   6.526   3.777   1.283  0.3694 -0.5849 -0.0398
  482MOL0     C64991   6.663   3.787   1.298  0.2819 -0.4285 -0.4220
  482MOL0     C64992   6.724   3.902   1.253  0.4409 -1.2723  0.3698
  482MOL0     C64993   6.645   4.017   1.208  0.4059  0.2833  0.0335
  482MOL0     O64994   6.714   4.117   1.156 -0.8610 -0.3981  0.2726
  482MOL0     C64995   6.639   4.231   1.107 -0.4788  0.5533 -0.2491
  482MOL0     C64996   6.733   4.335   1.055  0.9938 -0.5121  0.2693
  482MOL0     C64997   6.670   4.455   0.975  0.4441  0.2842  0.5322
  482MOL0     C64998   6.770   4.560   0.951 -0.0674  0.2680 -0.7184
  482MOL0     C64999   6.726   4.673   0.864  0.7296  0.3263 -0.2528
  482MOL0     C65000   6.701   4.764   0.790  0.9759 -0.6656  0.0598
  482MOL0     C65001   6.503   4.010   1.203  0.6753  1.0965 -0.5425
  482MOL0     C65002   6.443   3.882   1.236 -0.3199  0.1495 -0.3332
  482MOL0     H65003   6.331   3.383   1.206  3.0973 -1.0341 -0.7547
  482MOL0     H65004   6.228   3.185   1.318 -2.3630  1.3326  2.9233
  482MOL0     H65005   6.113   3.052   1.437 -0.6954  0.1492  0.0638
  482MOL0     H65006   6.234   2.928   1.426  0.1951 -0.8362  0.7381
  482MOL0     H65007   6.215   2.918   1.701  1.4228  0.8139 -0.7474
  482MOL0     H65008   6.070   2.996   1.670  0.1355  0.7730 -1.7551
  482MOL0     H65009   6.150   2.739   1.536 -0.0799 -0.3817 -0.5870
  482MOL0     H65010   6.054   2.750   1.688  0.6367 -2.0341 -1.7847
  482MOL0     H65011   5.875   2.884   1.567  0.1354 -0.6381  0.4013
  482MOL0     H65012   5.970   2.867   1.418  1.5777 -0.5272  0.4438
  482MOL0     H65013   5.923   2.608   1.457  0.9726  2.1396 -0.2836
  482MOL0     H65014   5.831   2.655   1.606 -2.9586 -3.2197 -1.2173
  482MOL0     H65015   5.674   2.623   1.431  2.0412 -0.4672  1.1132
  482MOL0     H65016   5.685   2.787   1.471 -0.2070  0.7856 -0.2313
  482MOL0     H65017   5.655   2.732   1.226  0.9081 -2.2102 -0.5793
  482MOL0     H65018   5.798   2.829   1.261 -0.2275  0.6336  1.4092
  482MOL0     H65019   5.939   2.621   1.193  0.5080 -0.8006 -2.2872
  482MOL0     H65020   5.801   2.614   1.086 -2.0167  0.9948  0.6016
  482MOL0     H65021   5.569   2.482   1.236 -0.3479 -0.0327  1.1985
  482MOL0     H65022   5.582   2.108   1.332 -0.6489 -0.4969 -1.8158
  482MOL0     H65023   5.463   2.233   1.318  1.8475  2.2520  0.9920
  482MOL0     H65024   5.470   2.062   1.114 -0.8869  0.2650  0.8307
  482MOL0     H65025   5.616   2.142   1.060  0.3308  1.8606 -0.5658
  482MOL0     H65026   5.533   2.356   1.035 -0.4957  0.5977 -1.4938
  482MOL0     H65027   5.370   2.313   1.093 -2.2044 -1.2774 -1.9769
  482MOL0     H65028   5.489   2.205   0.845 -1.0325 -4.0985  0.1666
  482MOL0     H65029   5.356   2.319   0.860 -3.3591 -3.6778 -2.6067
  482MOL0     H65030   5.390   2.154   0.658 -1.8946 -0.5452 -1.5189
  482MOL0     H65031   5.444   2.085   0.464  1.9284 -1.3856  0.7547
  482MOL0     H65032   5.438   1.921   0.412  1.5078  1.6858  1.2367
  482MOL0     H65033   5.299   2.022   0.385  1.5709 -1.2054 -2.9846
  482MOL0     H65034   5.168   1.455   0.374  1.1263  0.1359  1.2522
  482MOL0     H65035   4.981   1.322   0.315 -0.7039 -1.7801  2.2232
  482MOL0     H65036   4.756   1.208   0.259 -0.4084  2.1771 -0.2980
  482MOL0     H65037   4.810   1.174   0.426  1.8485  2.6804 -0.0967
  482MOL0     H65038   4.627   1.038   0.365 -1.4610 -1.0267  1.8965
  482MOL0     H65039   4.606   1.131   0.515 -0.0413  1.1595  1.1157
  482MOL0     H65040   4.475   1.206   0.240 -1.5392  2.0108 -0.2635
  482MOL0     H65041   4.464   1.300   0.399  1.4058 -0.0023  1.5286
  482MOL0     H65042   4.386   1.008   0.380  0.0244  0.6378 -1.6346
  482MOL0     H65043   4.333   1.122   0.496 -1.0414  1.4654 -0.4573
  482MOL0     H65044   4.226   1.052   0.223  0.3515  0.5049 -0.0315
  482MOL0     H65045   4.238   1.238   0.267 -0.1011  1.7161  3.2940
  482MOL0     H65046   4.094   1.028   0.406 -2.3471 -0.2558 -0.1705
  482MOL0     H65047   4.121   1.194   0.465 -0.5910  0.7976 -0.8888
  482MOL0     H65048   3.993   1.162   0.192 -1.0825 -0.6118  0.1485
  482MOL0     H65049   3.955   1.286   0.319 -1.9594 -0.3755  0.5002
  482MOL0     H65050   3.831   1.146   0.459  0.5578  0.7957  0.0666
  482MOL0     H65051   3.882   1.014   0.341  0.0467  0.8910  1.4488
  482MOL0     H65052   4.724   1.582   0.550  0.0239 -0.1296  0.8563
  482MOL0     H65053   4.938   1.688   0.645 -0.7794  3.0904 -2.6213
  482MOL0     H65054   5.169   1.734   0.795  3.0275 -0.8161  1.2983
  482MOL0     H65055   5.179   1.916   0.951 -1.1562 -0.3332 -0.4938
  482MOL0     H65056   6.501   3.213   1.645 -3.5593  0.0212  2.5917
  482MOL0     H65057   6.587   3.420   1.559  0.5806 -1.8901  2.0189
  482MOL0     H65058   6.717   3.698   1.327  0.6202  0.2359  1.0896
  482MOL0     H65059   6.832   3.895   1.257  0.5725 -0.2636 -0.7615
  482MOL0     H65060   6.565   4.214   1.028 -2.0503  1.6718  0.9202
  482MOL0     H65061   6.584   4.277   1.189 -0.7240 -0.5564  0.2239
  482MOL0     H65062   6.812   4.288   0.996 -0.8100 -2.8797 -0.4158
  482MOL0     H65063   6.788   4.373   1.142 -1.7528 -1.8675  2.7741
  482MOL0     H65064   6.586   4.498   1.032 -0.8867 -3.1372  1.3794
  482MOL0     H65065   6.640   4.416   0.878 -0.3803  4.7653 -1.2700
  482MOL0     H65066   6.855   4.509   0.905  0.0178 -0.4516  0.2051
  482MOL0     H65067   6.800   4.604   1.047 -4.4494 -2.0137  2.0191
  482MOL0     H65068   6.703   4.843   0.718  1.8079 -1.1547 -0.4687
  482MOL0     H65069   6.443   4.089   1.159 -1.9979 -1.0311 -0.9803
  482MOL0     H65070   6.335   3.881   1.229 -0.4947 -0.1856  1.6394
  483MOL0     O65071   4.826   5.087   0.703 -0.6038  0.3300 -0.1038
  483MOL0     C65072   4.886   5.138   0.802  0.2216  0.5335 -0.9412
  483MOL0     O65073   4.898   5.274   0.840 -0.4189  0.2900  0.6538
  483MOL0     C65074   4.830   5.371   0.781  0.4679  0.1910  0.2143
  483MOL0     C65075   4.705   5.409   0.827 -0.1862  0.6342  1.5127
  483MOL0     C65076   4.636   5.504   0.755 -1.3237 -0.6602  0.4389
  483MOL0     C65077   4.680   5.545   0.629 -0.4002 -0.7760  0.6736
  483MOL0     O65078   4.597   5.631   0.551  0.3413 -0.1619 -0.0164
  483MOL0     C65079   4.619   5.607   0.411 -0.1138 -0.3917  0.3154
  483MOL0     C65080   4.478   5.611   0.350  0.5127  0.4669  0.6579
  483MOL0     C65081   4.386   5.740   0.373  0.3106  0.2916 -0.5125
  483MOL0     C65082   4.281   5.777   0.268  0.2482 -1.0430  0.1693
  483MOL0     C65083   4.202   5.909   0.299 -0.7865  0.2929  0.3873
  483MOL0     C65084   4.114   5.906   0.421  0.2769  0.5107  0.4216
  483MOL0     C65085   3.991   5.979   0.397  0.1636 -0.9132  0.5481
  483MOL0     C65086   3.899   5.968   0.519  0.1967  1.2106 -0.6234
  483MOL0     N65087   3.787   6.070   0.517  0.9184  0.0741  0.4010
  483MOL0     C65088   3.730   6.127   0.630  0.5336 -0.6898  0.1839
  483MOL0     C65089   3.617   6.194   0.586 -0.7926 -0.4372  0.1342
  483MOL0     C65090   3.533   6.278   0.689  0.0283  1.0966 -0.0609
  483MOL0     C65091   3.386   6.227   0.706 -0.5469  0.6437  0.6279
  483MOL0     C65092   3.312   6.226   0.570 -0.0515 -0.2173 -0.2820
  483MOL0     C65093   3.162   6.221   0.599 -0.1489 -0.4903  0.7606
  483MOL0     O65094   3.120   6.351   0.647 -0.3881  0.7347  0.2257
  483MOL0     C65095   2.992   6.388   0.608  0.3511 -0.6448 -1.0876
  483MOL0     C65096   2.881   6.319   0.565  0.5253 -0.7132  0.6848
  483MOL0     C65097   2.756   6.376   0.520  0.5839 -0.0825 -0.3409
  483MOL0     C65098   2.635   6.286   0.475  0.5949  0.5108 -0.3498
  483MOL0     C65099   2.759   6.515   0.513 -0.2570  0.4028  0.1979
  483MOL0     C65100   2.646   6.595   0.455 -0.0618  0.2920 -0.0285
  483MOL0     O65101   2.661   6.728   0.462 -1.1073  0.4247  0.6641
  483MOL0     C65102   2.585   6.808   0.389  1.4610 -0.4795  1.1646
  483MOL0     C65103   2.643   6.873   0.278  0.9199 -0.1440 -1.0819
  483MOL0     C65104   2.565   6.962   0.208  0.8662 -0.9963 -0.0450
  483MOL0     C65105   2.436   6.996   0.244 -0.5563  0.3988 -0.3795
  483MOL0     O65106   2.341   7.070   0.180 -0.3456 -0.4170  0.1590
  483MOL0     C65107   2.369   7.210   0.147 -0.2895  0.1309 -0.4052
  483MOL0     C65108   2.353   7.309   0.267 -0.4655  0.5226 -0.7302
  483MOL0     C65109   2.223   7.294   0.342 -0.2000  0.5929  0.0152
  483MOL0     C65110   2.203   7.406   0.439 -0.5923  0.8708  0.2653
  483MOL0     C65111   2.057   7.418   0.474 -0.1476 -0.5625  0.2161
  483MOL0     C65112   2.020   7.549   0.539 -1.5204 -0.0755  0.1864
  483MOL0     C65113   1.878   7.563   0.579 -0.4149  0.3768  0.1856
  483MOL0     C65114   1.763   7.579   0.474 -0.1973  0.0422  0.4107
  483MOL0    Cl65115   1.759   7.462   0.343  0.0100  0.3026 -0.1378
  483MOL0     C65116   2.384   6.935   0.351  0.3854  0.9816 -0.0748
  483MOL0     C65117   2.457   6.850   0.427 -0.1118  0.1438  0.0842
  483MOL0     O65118   2.558   6.538   0.386  1.0482 -0.8146  0.1611
  483MOL0     C65119   2.872   6.584   0.558  0.6933  0.2788  0.2178
  483MOL0     C65120   2.979   6.519   0.614  0.2333 -0.4845  0.3417
  483MOL0     N65121   3.603   6.176   0.445  0.0076 -0.7047  0.5076
  483MOL0     N65122   3.697   6.099   0.416  0.7454 -0.1189 -0.0609
  483MOL0     C65123   4.811   5.512   0.596  0.2536  0.7089 -0.4424
  483MOL0     C65124   4.881   5.418   0.666  0.6415 -1.0555  0.5060
  483MOL0     C65125   4.961   5.040   0.889  0.3952 -0.6247 -0.2763
  483MOL0     C65126   5.008   4.918   0.838  0.6058 -0.3646  0.2070
  483MOL0     C65127   5.086   4.835   0.928 -0.2329  0.3891  0.3580
  483MOL0     C65128   5.141   4.880   1.052 -0.5848 -0.0443  0.6639
  483MOL0     O65129   5.213   4.787   1.124  0.6256  0.1506 -0.0825
  483MOL0     C65130   5.217   4.784   1.265 -0.0036 -0.4577  0.6786
  483MOL0     C65131   5.161   4.650   1.298 -0.1777 -0.3986 -0.5267
  483MOL0     C65132   5.157   4.637   1.451  0.2954  0.0688  1.4344
  483MOL0     C65133   5.146   4.492   1.493 -0.6011  0.6056 -0.2391
  483MOL0     C65134   5.011   4.435   1.453  0.1075 -0.5475  0.5250
  483MOL0     C65135   4.903   4.386   1.423  0.6134  0.2257  0.3791
  483MOL0     C65136   5.107   5.011   1.091  1.1562  0.3021  0.3619
  483MOL0     C65137   5.010   5.084   1.012 -0.3109 -0.5573 -0.9053
  483MOL0     H65138   4.680   5.372   0.926 -0.5975  0.4750  1.3516
  483MOL0     H65139   4.551   5.547   0.807  0.0375 -0.5240  2.6459
  483MOL0     H65140   4.686   5.682   0.368 -0.0493  0.1029  1.2543
  483MOL0     H65141   4.666   5.509   0.397 -1.3100 -0.7957 -1.2753
  483MOL0     H65142   4.486   5.584   0.244 -0.2831 -1.8884  1.1350
  483MOL0     H65143   4.428   5.521   0.387  0.4289  0.2947  0.1279
  483MOL0     H65144   4.329   5.716   0.464  0.6196 -2.2691 -0.9364
  483MOL0     H65145   4.451   5.824   0.400 -0.0164  0.5603 -0.5429
  483MOL0     H65146   4.337   5.784   0.174  0.7915  0.2058  0.5716
  483MOL0     H65147   4.210   5.695   0.256  1.5284 -2.0127 -1.1865
  483MOL0     H65148   4.268   5.993   0.323 -1.7878 -0.1168  6.2014
  483MOL0     H65149   4.137   5.941   0.218  0.1232  5.4543  1.3670
  483MOL0     H65150   4.093   5.800   0.438 -1.4249  0.9675  1.3967
  483MOL0     H65151   4.167   5.943   0.510  0.7589 -3.1308  1.8175
  483MOL0     H65152   4.025   6.083   0.402  0.9798 -1.1813  0.6359
  483MOL0     H65153   3.929   5.953   0.310 -1.4546 -0.1662  1.4296
  483MOL0     H65154   3.966   5.974   0.605 -0.9590 -2.4176  0.7174
  483MOL0     H65155   3.869   5.863   0.507 -0.5649  1.2483  0.8004
  483MOL0     H65156   3.767   6.141   0.731  1.3743  2.8438 -0.4788
  483MOL0     H65157   3.569   6.274   0.792 -1.0747  0.0754  0.3173
  483MOL0     H65158   3.535   6.383   0.660 -0.0994  0.2379 -3.7645
  483MOL0     H65159   3.334   6.284   0.783 -0.0259  1.2370  0.5450
  483MOL0     H65160   3.395   6.124   0.743 -0.9978  1.2196  2.4463
  483MOL0     H65161   3.344   6.134   0.519  0.7271 -0.8314  1.2712
  483MOL0     H65162   3.321   6.323   0.520 -3.8519 -0.0448 -0.9943
  483MOL0     H65163   3.129   6.158   0.682 -0.1435  0.8001  1.7833
  483MOL0     H65164   3.114   6.193   0.505  0.4231 -1.0072  0.6130
  483MOL0     H65165   2.886   6.212   0.579  4.1722 -1.3351 -3.3596
  483MOL0     H65166   2.541   6.321   0.520  2.0393 -0.2475  3.7259
  483MOL0     H65167   2.617   6.293   0.368  2.0131  1.6193 -0.5441
  483MOL0     H65168   2.645   6.179   0.497 -2.3097  0.0929 -0.6435
  483MOL0     H65169   2.745   6.860   0.242  1.4105  3.2499 -1.2637
  483MOL0     H65170   2.604   7.003   0.115 -1.1926 -0.3712 -0.6825
  483MOL0     H65171   2.468   7.220   0.101 -2.0292  1.4832 -4.3027
  483MOL0     H65172   2.304   7.254   0.071  1.7736  1.7922 -1.3010
  483MOL0     H65173   2.435   7.294   0.339 -2.4072 -2.9930  1.0248
  483MOL0     H65174   2.377   7.409   0.228 -0.7573  0.8344 -0.1322
  483MOL0     H65175   2.220   7.195   0.388  2.8858 -0.1930 -1.2603
  483MOL0     H65176   2.146   7.300   0.264 -1.1877  3.1051  1.0662
  483MOL0     H65177   2.262   7.390   0.530 -1.1784 -0.3058  0.4669
  483MOL0     H65178   2.232   7.500   0.392  1.9207 -0.6858 -1.5248
  483MOL0     H65179   2.034   7.344   0.551  0.8660 -1.1285 -0.0085
  483MOL0     H65180   2.001   7.397   0.383 -0.9252 -3.5173  1.2710
  483MOL0     H65181   2.087   7.562   0.625 -0.4937 -1.6953 -0.3318
  483MOL0     H65182   2.058   7.617   0.462  1.0959 -0.4855  1.0115
  483MOL0     H65183   1.866   7.652   0.641  4.3591  1.3696  0.0978
  483MOL0     H65184   1.854   7.472   0.635  4.6096 -1.3719  0.0570
  483MOL0     H65185   1.771   7.675   0.422 -0.5524 -0.9971 -1.6661
  483MOL0     H65186   1.668   7.578   0.529 -2.9575  0.9777 -3.8257
  483MOL0     H65187   2.282   6.953   0.383 -0.5280 -2.4835 -0.5974
  483MOL0     H65188   2.411   6.805   0.514  0.8425 -1.1440 -0.0492
  483MOL0     H65189   2.876   6.692   0.554  1.3162  0.2259 -1.9124
  483MOL0     H65190   3.067   6.579   0.635  1.1550 -2.4731  2.6664
  483MOL0     H65191   4.857   5.542   0.502 -0.0463  2.7725  0.0247
  483MOL0     H65192   4.975   5.378   0.630  0.0418 -0.8288 -1.4223
  483MOL0     H65193   4.977   4.894   0.736  1.6163 -0.6017 -0.0539
  483MOL0     H65194   5.106   4.733   0.895 -1.6022  0.4022 -0.6288
  483MOL0     H65195   5.324   4.796   1.288  0.2847  0.6435 -1.0507
  483MOL0     H65196   5.151   4.863   1.301 -0.7299 -0.2051 -1.0934
  483MOL0     H65197   5.226   4.573   1.255  0.3031 -0.4690  0.2977
  483MOL0     H65198   5.059   4.649   1.259 -0.2820 -1.6460 -0.2782
  483MOL0     H65199   5.074   4.703   1.475 -0.4896 -0.4281  0.2280
  483MOL0     H65200   5.249   4.680   1.490  1.2340 -0.1935 -0.3662
  483MOL0     H65201   5.148   4.469   1.600  0.3480  1.6905  0.0019
  483MOL0     H65202   5.222   4.432   1.441 -0.1954  3.8081 -3.8163
  483MOL0     H65203   4.807   4.344   1.401  0.9344 -1.4104  1.9028
  483MOL0     H65204   5.143   5.060   1.181  2.5593  1.2398 -0.6773
  483MOL0     H65205   4.975   5.180   1.049  0.3027 -0.9501  0.8142
  484MOL0     O65206   1.115   1.553   1.119 -0.3164  0.1690 -0.0391
  484MOL0     C65207   1.104   1.677   1.099 -0.6270 -0.3356  0.4456
  484MOL0     O65208   0.992   1.749   1.045 -0.1194 -0.0958 -0.4136
  484MOL0     C65209   0.880   1.677   1.021 -0.2946 -0.2936 -0.2983
  484MOL0     C65210   0.769   1.707   1.095 -0.7109 -0.2250 -0.4102
  484MOL0     C65211   0.652   1.637   1.081  0.1163  0.9050  0.9841
  484MOL0     C65212   0.656   1.520   0.992  0.0229 -0.1774 -0.2791
  484MOL0     O65213   0.539   1.461   0.983 -0.1591  0.3626  0.3212
  484MOL0     C65214   0.536   1.338   1.057  0.2890 -0.8827 -0.4292
  484MOL0     C65215   0.415   1.250   1.034 -0.7508 -0.0513  0.2301
  484MOL0     C65216   0.272   1.311   1.072 -0.8395 -0.9188  0.1480
  484MOL0     C65217   0.145   1.230   1.024  0.8342 -0.4404 -0.1892
  484MOL0     C65218   0.005   1.271   1.076  0.0945  0.0784  0.1743
  484MOL0     C65219  -0.006   1.256   1.226  1.1878  0.3278  0.1761
  484MOL0     C65220  -0.155   1.255   1.268 -0.3302  0.9345 -0.0779
  484MOL0     C65221  -0.175   1.175   1.396 -0.5380  0.1730  0.7188
  484MOL0     N65222  -0.305   1.118   1.406 -0.6436 -0.7856 -1.6019
  484MOL0     C65223  -0.411   1.174   1.476 -0.4213 -0.2048  0.2803
  484MOL0     C65224  -0.510   1.088   1.466 -0.6909  0.1993  0.1716
  484MOL0     C65225  -0.641   1.130   1.535  0.3764 -0.5550  0.7613
  484MOL0     C65226  -0.758   1.150   1.444  0.1612  0.0697 -0.2423
  484MOL0     C65227  -0.823   1.017   1.399 -0.1657  0.6351 -0.6954
  484MOL0     C65228  -0.930   0.965   1.499  0.0596 -0.1324 -0.1970
  484MOL0     O65229  -1.017   0.882   1.420  0.4274  0.3243 -0.8694
  484MOL0     C65230  -1.115   0.814   1.482  0.6214  0.1403 -0.0677
  484MOL0     C65231  -1.185   0.730   1.393  0.6531  0.1213 -0.1142
  484MOL0     C65232  -1.287   0.642   1.445  0.5364 -0.3143 -0.4526
  484MOL0     C65233  -1.354   0.547   1.348  1.1038  1.0959 -0.5229
  484MOL0     C65234  -1.324   0.648   1.582  0.4733 -0.0955 -0.9923
  484MOL0     C65235  -1.441   0.583   1.647  0.0664  0.4756  0.4753
  484MOL0     O65236  -1.422   0.536   1.774 -0.5941 -0.4482 -0.3471
  484MOL0     C65237  -1.519   0.475   1.853  0.0523 -0.1772  0.2117
  484MOL0     C65238  -1.611   0.379   1.814  0.3941  0.7912  0.3687
  484MOL0     C65239  -1.713   0.336   1.903 -0.0053  0.1358  0.3670
  484MOL0     C65240  -1.706   0.377   2.042  0.5936  0.5985  0.4069
  484MOL0     O65241  -1.797   0.320   2.124  0.6888 -0.1154 -0.1316
  484MOL0     C65242  -1.836   0.390   2.243 -0.1049  0.4027 -0.6571
  484MOL0     C65243  -1.938   0.308   2.325 -1.2790 -0.0332  0.6295
  484MOL0     C65244  -2.078   0.358   2.323 -0.2774  0.2242  0.3321
  484MOL0     C65245  -2.173   0.271   2.403  0.1436  0.6675 -0.4510
  484MOL0     C65246  -2.311   0.335   2.414  0.1886  0.6421 -0.5535
  484MOL0     C65247  -2.412   0.249   2.489 -0.7193  0.0023 -0.0832
  484MOL0     C65248  -2.548   0.313   2.468  0.1165 -0.0120  0.0005
  484MOL0     C65249  -2.568   0.450   2.541 -0.6345 -0.3105  0.2827
  484MOL0    Cl65250  -2.738   0.495   2.550 -0.1236  0.0882  0.8753
  484MOL0     C65251  -1.606   0.465   2.080  0.2893  0.6699  0.3409
  484MOL0     C65252  -1.506   0.510   1.988  0.0085 -1.1032 -0.1712
  484MOL0     O65253  -1.537   0.543   1.574  0.2555 -0.5373 -0.0225
  484MOL0     C65254  -1.253   0.745   1.666 -0.4406 -0.6912  0.5657
  484MOL0     C65255  -1.161   0.828   1.614 -0.5856  0.0468  0.0755
  484MOL0     N65256  -0.473   0.979   1.393  0.6637 -0.3575  0.6015
  484MOL0     N65257  -0.344   0.995   1.356  0.6292  0.5078 -0.2351
  484MOL0     C65258   0.769   1.501   0.912  0.3007 -0.1355 -0.6778
  484MOL0     C65259   0.883   1.582   0.922 -0.2585  0.2599 -1.2195
  484MOL0     C65260   1.237   1.748   1.111 -0.0963 -0.0630 -0.0666
  484MOL0     C65261   1.351   1.679   1.170  0.4944  0.3753 -0.4152
  484MOL0     C65262   1.476   1.744   1.174 -0.5324 -0.3168 -0.1098
  484MOL0     C65263   1.492   1.870   1.121 -0.3687 -0.2081 -0.9118
  484MOL0     O65264   1.611   1.930   1.119  0.4962  0.1849  0.2820
  484MOL0     C65265   1.730   1.856   1.141  0.0018 -0.1011 -0.5674
  484MOL0     C65266   1.848   1.935   1.080  0.1031 -0.9322  0.3602
  484MOL0     C65267   1.890   2.059   1.168  0.6687 -0.2591 -0.4112
  484MOL0     C65268   1.974   2.152   1.091 -0.3622  0.0784  0.9659
  484MOL0     C65269   2.108   2.100   1.044  0.6691 -0.2299  0.5363
  484MOL0     C65270   2.218   2.064   1.000  0.6139  0.6471  0.3043
  484MOL0     C65271   1.385   1.935   1.073  0.2870 -0.9893 -0.1845
  484MOL0     C65272   1.256   1.878   1.069  0.0403  0.2648  0.0779
  484MOL0     H65273   0.784   1.777   1.176  1.4633  0.4189 -1.3115
  484MOL0     H65274   0.561   1.660   1.136 -0.2499  0.6987  0.4692
  484MOL0     H65275   0.629   1.283   1.036  1.1507 -0.3647  1.7734
  484MOL0     H65276   0.542   1.355   1.165  0.0180 -1.1281 -0.3756
  484MOL0     H65277   0.421   1.234   0.926 -1.3098  3.1484 -0.3803
  484MOL0     H65278   0.421   1.154   1.086 -1.8766 -1.0147 -1.3406
  484MOL0     H65279   0.272   1.318   1.181 -0.6785 -0.9264  0.1480
  484MOL0     H65280   0.256   1.410   1.029 -0.7400 -0.5325  0.9780
  484MOL0     H65281   0.152   1.222   0.916  1.1293 -2.7904 -0.0373
  484MOL0     H65282   0.161   1.130   1.064 -0.0031 -0.2687  0.6063
  484MOL0     H65283  -0.012   1.375   1.045 -0.0081 -0.5306 -2.0031
  484MOL0     H65284  -0.056   1.194   1.028  1.7616  0.3456 -2.6722
  484MOL0     H65285   0.035   1.163   1.268  3.0495  0.5196 -1.1326
  484MOL0     H65286   0.052   1.341   1.262  4.9612  0.2953 -4.8419
  484MOL0     H65287  -0.195   1.356   1.283  5.3538  3.4192  0.6686
  484MOL0     H65288  -0.212   1.199   1.193  1.8054 -4.8603  2.0637
  484MOL0     H65289  -0.160   1.250   1.474  2.1002  0.1743  0.2812
  484MOL0     H65290  -0.098   1.102   1.420  0.1268  1.0787  1.3958
  484MOL0     H65291  -0.414   1.276   1.512 -0.8391  1.0624 -2.9966
  484MOL0     H65292  -0.673   1.049   1.601 -2.2626  0.5069  0.9229
  484MOL0     H65293  -0.624   1.226   1.585  0.8180 -0.2093 -0.0441
  484MOL0     H65294  -0.715   1.211   1.364  1.0648 -2.0889 -1.4886
  484MOL0     H65295  -0.834   1.212   1.494  1.1125  0.4527  0.7735
  484MOL0     H65296  -0.754   0.935   1.377 -0.8551 -0.5030  1.1357
  484MOL0     H65297  -0.864   1.050   1.304 -1.6711  2.0799  0.4046
  484MOL0     H65298  -0.989   1.051   1.533 -1.4013 -0.5641 -1.5324
  484MOL0     H65299  -0.888   0.930   1.594  0.1654  0.1511 -0.1385
  484MOL0     H65300  -1.171   0.740   1.286  0.4483  1.0468 -0.0651
  484MOL0     H65301  -1.301   0.547   1.253  2.2308 -2.1520 -0.0138
  484MOL0     H65302  -1.348   0.448   1.394 -0.1220  0.8641 -0.8374
  484MOL0     H65303  -1.457   0.584   1.341  1.5899  2.4450 -0.9934
  484MOL0     H65304  -1.610   0.331   1.717 -1.6835 -0.2619  0.8078
  484MOL0     H65305  -1.788   0.261   1.881  1.9268 -1.6293 -0.4409
  484MOL0     H65306  -1.748   0.400   2.307  0.4749 -3.1192 -0.7164
  484MOL0     H65307  -1.865   0.493   2.218  2.6953  0.8010 -2.8330
  484MOL0     H65308  -1.933   0.209   2.280 -0.9681  1.3681 -2.7175
  484MOL0     H65309  -1.912   0.304   2.431  1.0103 -1.4721  0.1045
  484MOL0     H65310  -2.111   0.359   2.219 -1.7150  0.3574  0.7605
  484MOL0     H65311  -2.077   0.460   2.361  1.0317 -0.0073  0.9629
  484MOL0     H65312  -2.182   0.168   2.365 -0.6391  0.2146  0.9112
  484MOL0     H65313  -2.131   0.240   2.499  0.4712 -2.4514 -1.4606
  484MOL0     H65314  -2.349   0.352   2.313  0.3867 -0.2921 -0.7902
  484MOL0     H65315  -2.298   0.427   2.471  0.8121  0.8644 -1.0341
  484MOL0     H65316  -2.412   0.152   2.438 -0.7358  0.4780 -1.0234
  484MOL0     H65317  -2.378   0.234   2.592  0.1963 -2.8972 -0.6973
  484MOL0     H65318  -2.630   0.241   2.481  0.4708 -0.6545 -1.2022
  484MOL0     H65319  -2.559   0.324   2.360 -0.7928 -1.9923 -0.1615
  484MOL0     H65320  -2.518   0.530   2.486 -0.6266 -1.8962 -2.1591
  484MOL0     H65321  -2.527   0.436   2.642  1.7567  1.3146 -0.3853
  484MOL0     H65322  -1.604   0.479   2.188 -2.5974 -2.2651  0.9566
  484MOL0     H65323  -1.424   0.567   2.030  0.9919 -3.4130  1.2720
  484MOL0     H65324  -1.281   0.764   1.769 -3.0849  0.5733 -0.2763
  484MOL0     H65325  -1.123   0.903   1.683 -0.0420  1.5554 -1.7668
  484MOL0     H65326   0.759   1.437   0.825  0.8424 -1.9038  0.5035
  484MOL0     H65327   0.971   1.574   0.860  1.9344 -0.1880  1.7407
  484MOL0     H65328   1.341   1.576   1.203  2.6371 -0.0793 -1.0323
  484MOL0     H65329   1.562   1.692   1.215 -0.3523 -1.3995 -1.8058
  484MOL0     H65330   1.740   1.836   1.248 -1.3398  1.2065 -0.1486
  484MOL0     H65331   1.734   1.760   1.089 -1.5721 -2.3925  3.1620
  484MOL0     H65332   1.826   1.974   0.980  0.3318  3.0779  1.7216
  484MOL0     H65333   1.929   1.862   1.077  1.1434  0.1499  1.3491
  484MOL0     H65334   1.943   2.018   1.255 -4.0086 -0.0063  2.9555
  484MOL0     H65335   1.810   2.119   1.213 -0.5368  0.0998 -2.8782
  484MOL0     H65336   1.987   2.241   1.155  1.1144 -0.4246  1.4053
  484MOL0     H65337   1.921   2.196   1.006 -0.8509  1.2483  1.8440
  484MOL0     H65338   2.309   2.031   0.955  2.1247  2.6840  1.6527
  484MOL0     H65339   1.384   2.031   1.022 -1.3648 -1.5736 -1.3148
  484MOL0     H65340   1.177   1.930   1.015 -0.2882  0.2229  0.5079
  485MOL0     O65341   4.486   4.660   0.040  0.5634  0.1780  0.4059
  485MOL0     C65342   4.548   4.557   0.064 -0.1655 -0.2276 -0.0807
  485MOL0     O65343   4.583   4.518   0.191 -0.2090  0.1873  0.4777
  485MOL0     C65344   4.546   4.572   0.306  0.0786  0.2967 -0.4787
  485MOL0     C65345   4.411   4.613   0.337  0.2132 -0.0906 -0.3320
  485MOL0     C65346   4.387   4.694   0.449  1.1861  0.7813 -0.0937
  485MOL0     C65347   4.483   4.724   0.542  0.6150  0.3391  0.0888
  485MOL0     O65348   4.445   4.785   0.656  0.4588  0.1060 -0.0679
  485MOL0     C65349   4.539   4.886   0.707  1.2344 -0.2763 -0.3140
  485MOL0     C65350   4.451   5.000   0.783  0.0014  0.6831 -0.3022
  485MOL0     C65351   4.363   5.080   0.682 -0.5240  0.0689 -0.2940
  485MOL0     C65352   4.337   5.225   0.709 -0.4267  0.6943 -0.5676
  485MOL0     C65353   4.223   5.281   0.621 -0.2846 -0.1417  0.4175
  485MOL0     C65354   4.223   5.436   0.621  0.4968  0.1573  0.7151
  485MOL0     C65355   4.107   5.498   0.552  0.7181 -0.1569  0.0830
  485MOL0     C65356   4.073   5.458   0.403 -0.3041  0.4065 -0.6168
  485MOL0     N65357   3.943   5.528   0.357 -0.4465 -0.0351  0.2929
  485MOL0     C65358   3.823   5.468   0.370  0.4225 -0.3416  0.3822
  485MOL0     C65359   3.738   5.570   0.327 -0.5386  0.1730  0.7507
  485MOL0     C65360   3.589   5.559   0.317 -0.5845 -0.8456 -0.1058
  485MOL0     C65361   3.556   5.472   0.193 -1.0424 -0.2818  0.4737
  485MOL0     C65362   3.404   5.458   0.189 -0.4992 -0.1980  0.8009
  485MOL0     C65363   3.314   5.566   0.114 -0.4547 -1.2488 -0.2387
  485MOL0     O65364   3.173   5.524   0.116  0.0148 -0.0654 -0.2064
  485MOL0     C65365   3.069   5.611   0.070 -0.2297  0.7360 -1.0884
  485MOL0     C65366   3.086   5.726  -0.005  0.0457  0.6642 -0.2215
  485MOL0     C65367   2.976   5.805  -0.054  0.6260  0.6140  0.1722
  485MOL0     C65368   3.021   5.918  -0.141 -0.3457  1.3037  0.1200
  485MOL0     C65369   2.842   5.757  -0.039 -0.5785  0.3339 -0.1285
  485MOL0     C65370   2.728   5.839  -0.084  0.7712  0.1862  0.2480
  485MOL0     O65371   2.743   5.960  -0.118 -0.4605  1.0348 -0.8435
  485MOL0     C65372   2.647   6.026  -0.198 -0.3242 -0.8435 -0.1116
  485MOL0     C65373   2.604   6.156  -0.161 -0.3006  0.4906 -0.0392
  485MOL0     C65374   2.517   6.227  -0.239  0.3171  0.4085  0.6154
  485MOL0     C65375   2.473   6.176  -0.365  0.2534  0.8047  0.3650
  485MOL0     O65376   2.385   6.241  -0.439  0.4004 -0.5447 -0.2646
  485MOL0     C65377   2.253   6.213  -0.433 -0.0743 -0.2730  0.0476
  485MOL0     C65378   2.191   6.188  -0.300 -0.1780  0.2537 -0.4521
  485MOL0     C65379   2.042   6.174  -0.302 -0.5731  0.4447 -0.0888
  485MOL0     C65380   1.981   6.109  -0.177 -0.1988 -0.4794 -0.0361
  485MOL0     C65381   1.831   6.136  -0.172 -0.1445 -0.2223  0.0025
  485MOL0     C65382   1.744   6.033  -0.249 -0.1767  0.3753  0.9750
  485MOL0     C65383   1.588   6.049  -0.217  1.4688  0.5082 -0.5475
  485MOL0     C65384   1.505   5.939  -0.295 -0.3074  0.0903 -0.5491
  485MOL0    Cl65385   1.495   5.974  -0.468  0.0251 -0.1780  0.1590
  485MOL0     C65386   2.522   6.045  -0.405  0.6736 -0.0638  0.0064
  485MOL0     C65387   2.606   5.974  -0.321  0.2885  0.1917  1.0978
  485MOL0     O65388   2.626   5.779  -0.113 -0.2302  0.2281 -0.0945
  485MOL0     C65389   2.819   5.631   0.034 -0.1850  0.2221  0.3715
  485MOL0     C65390   2.928   5.561   0.090  0.0541 -0.2391 -0.0611
  485MOL0     N65391   3.809   5.681   0.291 -0.2246  0.8137 -0.1979
  485MOL0     N65392   3.929   5.654   0.301  0.0961  0.4644 -0.0814
  485MOL0     C65393   4.612   4.661   0.523  0.4957 -0.4064  0.1620
  485MOL0     C65394   4.640   4.597   0.404 -0.1408  0.7168  0.6544
  485MOL0     C65395   4.583   4.468  -0.042  0.0393 -0.8940 -0.2714
  485MOL0     C65396   4.584   4.503  -0.179  0.6018 -0.0324 -0.1139
  485MOL0     C65397   4.628   4.419  -0.274 -0.9777 -0.3454  0.0120
  485MOL0     C65398   4.668   4.286  -0.251  0.3916  0.5600 -0.5778
  485MOL0     O65399   4.715   4.198  -0.342 -0.9595  0.7152  0.2094
  485MOL0     C65400   4.716   4.243  -0.480 -1.1509 -0.2354 -0.4044
  485MOL0     C65401   4.838   4.330  -0.515 -0.7283  0.5838  0.6926
  485MOL0     C65402   4.968   4.248  -0.491  0.0425 -0.3581  0.0482
  485MOL0     C65403   5.100   4.318  -0.511  0.0680 -0.3155  0.7578
  485MOL0     C65404   5.108   4.428  -0.416  0.2633  0.6244  0.1666
  485MOL0     C65405   5.108   4.522  -0.338  0.3160  0.3125 -0.7061
  485MOL0     C65406   4.673   4.244  -0.116 -0.3088  0.6660  0.4094
  485MOL0     C65407   4.627   4.336  -0.017  0.2952  0.1683  0.4182
  485MOL0     H65408   4.333   4.596   0.264 -0.1050  3.1206 -0.8892
  485MOL0     H65409   4.287   4.735   0.446  0.7974 -0.2200 -2.3569
  485MOL0     H65410   4.598   4.820   0.772  0.5437 -2.2504 -1.5761
  485MOL0     H65411   4.603   4.944   0.641  0.3673  2.1902  0.9050
  485MOL0     H65412   4.386   4.944   0.851 -0.2587  1.0946 -0.2083
  485MOL0     H65413   4.521   5.063   0.839 -1.0994 -0.2338  2.2473
  485MOL0     H65414   4.400   5.071   0.579 -2.2744 -1.5617 -0.8333
  485MOL0     H65415   4.268   5.026   0.676 -1.2450  1.3830 -1.2230
  485MOL0     H65416   4.310   5.229   0.815  0.3850 -2.3475 -0.1452
  485MOL0     H65417   4.433   5.276   0.694  0.2536 -0.4642 -0.3115
  485MOL0     H65418   4.235   5.236   0.522  1.7454  0.5843  0.2715
  485MOL0     H65419   4.123   5.262   0.661 -1.1869  1.2245 -1.0820
  485MOL0     H65420   4.227   5.467   0.726  2.1258  0.3323  0.6213
  485MOL0     H65421   4.315   5.461   0.568 -0.6790 -0.0220 -1.5686
  485MOL0     H65422   4.017   5.514   0.611 -0.5458 -2.4502 -1.0705
  485MOL0     H65423   4.133   5.603   0.539 -2.1982  0.6231 -0.0282
  485MOL0     H65424   4.061   5.350   0.406 -0.3644  0.4205  2.3169
  485MOL0     H65425   4.154   5.498   0.341 -0.3490  1.1902 -0.1822
  485MOL0     H65426   3.792   5.366   0.390 -1.0342 -0.3731 -1.6900
  485MOL0     H65427   3.542   5.512   0.404  0.1008 -0.7333  0.3325
  485MOL0     H65428   3.552   5.662   0.313  2.1832  0.3885  2.2392
  485MOL0     H65429   3.594   5.370   0.206 -0.8602 -0.2299  0.3413
  485MOL0     H65430   3.601   5.505   0.099  1.4802  0.9858  2.0119
  485MOL0     H65431   3.359   5.430   0.285 -2.1848 -2.9643 -0.6821
  485MOL0     H65432   3.392   5.365   0.133  1.8556  0.4172 -0.8657
  485MOL0     H65433   3.353   5.591   0.015  0.4829  1.5848  0.7279
  485MOL0     H65434   3.311   5.662   0.167 -2.3826 -2.6116  2.3580
  485MOL0     H65435   3.190   5.750  -0.027 -0.5817  2.8406 -1.1042
  485MOL0     H65436   3.126   5.909  -0.168 -0.8139 -2.8402 -0.9023
  485MOL0     H65437   2.963   5.909  -0.233 -1.0152 -0.5887  0.6807
  485MOL0     H65438   3.020   6.013  -0.087  2.4292  1.2753  0.3379
  485MOL0     H65439   2.637   6.207  -0.071 -2.2019  1.1707  0.3162
  485MOL0     H65440   2.479   6.321  -0.200 -2.4838 -0.6823  0.7680
  485MOL0     H65441   2.200   6.297  -0.477  0.7379 -0.1075 -0.6514
  485MOL0     H65442   2.244   6.122  -0.494 -1.7529  0.1471 -0.3698
  485MOL0     H65443   2.243   6.095  -0.271 -3.2792 -1.5851 -0.3902
  485MOL0     H65444   2.236   6.263  -0.233 -0.3716  1.8215 -2.0216
  485MOL0     H65445   2.009   6.108  -0.383  0.8326 -0.7317  0.2436
  485MOL0     H65446   1.999   6.274  -0.310  0.5081  1.1853  2.4191
  485MOL0     H65447   2.009   6.004  -0.164 -0.8167 -0.3963  2.2888
  485MOL0     H65448   2.021   6.153  -0.085  0.2693  1.2590 -1.0174
  485MOL0     H65449   1.810   6.240  -0.199  3.4514  0.5777 -0.2769
  485MOL0     H65450   1.791   6.118  -0.072 -0.8068 -0.3108 -0.2745
  485MOL0     H65451   1.755   6.051  -0.357  0.9432  0.9861  1.1849
  485MOL0     H65452   1.766   5.928  -0.228 -0.6720  0.6830  3.3380
  485MOL0     H65453   1.543   6.145  -0.243 -2.0619 -1.1351 -1.0886
  485MOL0     H65454   1.565   6.036  -0.111  1.0542  0.3260 -0.6594
  485MOL0     H65455   1.402   5.927  -0.262 -0.5214  1.5753 -0.6212
  485MOL0     H65456   1.550   5.843  -0.267 -1.5917  0.6003  3.9238
  485MOL0     H65457   2.487   6.011  -0.501  0.6354 -2.5881  0.8467
  485MOL0     H65458   2.636   5.873  -0.348  1.5511  0.9238 -0.4378
  485MOL0     H65459   2.714   5.615   0.057  0.1197  0.1264  1.7642
  485MOL0     H65460   2.926   5.466   0.142 -0.4841 -1.8361 -2.7856
  485MOL0     H65461   4.692   4.672   0.595  0.8912 -1.3586 -0.1260
  485MOL0     H65462   4.747   4.579   0.393  0.6152  3.3752  2.5556
  485MOL0     H65463   4.541   4.597  -0.213  0.2721 -0.7226 -1.7142
  485MOL0     H65464   4.635   4.455  -0.376  2.1757 -2.0380 -0.5213
  485MOL0     H65465   4.705   4.149  -0.535  1.3049 -0.2551 -0.9749
  485MOL0     H65466   4.629   4.306  -0.499 -1.2831 -0.4163 -0.4023
  485MOL0     H65467   4.857   4.424  -0.462 -0.9359  1.8853 -1.4332
  485MOL0     H65468   4.840   4.350  -0.622  0.0699 -0.7533  0.4297
  485MOL0     H65469   4.958   4.159  -0.553 -1.2826 -1.9191  2.3763
  485MOL0     H65470   4.969   4.200  -0.393 -0.0887 -4.8795 -1.9420
  485MOL0     H65471   5.111   4.341  -0.617 -0.4386  1.3347  1.0328
  485MOL0     H65472   5.169   4.237  -0.489 -0.4534 -1.4914 -1.5786
  485MOL0     H65473   5.122   4.605  -0.272 -3.6593  1.2725 -0.8517
  485MOL0     H65474   4.714   4.147  -0.090  0.4639  0.8158 -0.2399
  485MOL0     H65475   4.627   4.300   0.086 -1.8872  3.1447  1.5952
  486MOL0     O65476   6.652   3.715   5.878  0.1605  0.1804 -0.5155
  486MOL0     C65477   6.637   3.793   5.783  0.2158  0.1436  0.0638
  486MOL0     O65478   6.523   3.858   5.753 -0.4394  0.0188 -0.2525
  486MOL0     C65479   6.449   3.905   5.860 -0.3677  0.4572  0.0915
  486MOL0     C65480   6.485   3.999   5.948 -0.1354  0.2725 -0.6378
  486MOL0     C65481   6.395   4.035   6.053  0.4557  0.0231 -0.3357
  486MOL0     C65482   6.267   3.979   6.057 -0.9285 -0.1156  0.9447
  486MOL0     O65483   6.179   4.004   6.155 -0.2939  0.2830 -0.9261
  486MOL0     C65484   6.225   4.084   6.268  0.0595  0.3207  0.0239
  486MOL0     C65485   6.110   4.076   6.366 -0.2547  0.2683  0.4551
  486MOL0     C65486   5.990   4.174   6.340  0.3701 -0.0239  0.6006
  486MOL0     C65487   5.890   4.152   6.443  0.1508  0.0183  0.2111
  486MOL0     C65488   5.797   4.270   6.427  0.9376  0.1055 -0.8261
  486MOL0     C65489   5.663   4.256   6.507  0.5036  0.8844 -0.4153
  486MOL0     C65490   5.583   4.135   6.456  0.1314  0.3523 -0.9534
  486MOL0     C65491   5.446   4.127   6.515  0.1224  0.8270  0.1380
  486MOL0     N65492   5.346   4.220   6.452  0.2980 -0.1007  0.3987
  486MOL0     C65493   5.309   4.225   6.319 -0.0331 -0.0779  0.6765
  486MOL0     C65494   5.221   4.324   6.311 -0.2120 -0.3550 -0.0117
  486MOL0     C65495   5.143   4.355   6.190 -0.0354 -0.3227  0.0366
  486MOL0     C65496   4.998   4.295   6.206 -0.4147 -0.4864 -0.1091
  486MOL0     C65497   4.910   4.384   6.291  0.3264 -0.3583 -0.4381
  486MOL0     C65498   4.765   4.337   6.296 -0.5697 -0.2223  0.6407
  486MOL0     O65499   4.680   4.434   6.354 -0.1014  0.0855  0.3135
  486MOL0     C65500   4.548   4.415   6.309 -0.0275  0.0150  0.4922
  486MOL0     C65501   4.487   4.530   6.270  0.0834  0.0046  0.2241
  486MOL0     C65502   4.360   4.530   6.217  0.2333 -0.3535  0.5731
  486MOL0     C65503   4.287   4.666   6.207 -0.2318 -1.2715 -0.0867
  486MOL0     C65504   4.294   4.398   6.205 -0.4522  0.3794 -0.2518
  486MOL0     C65505   4.153   4.383   6.161  0.2163 -0.0338  0.6861
  486MOL0     O65506   4.108   4.468   6.061  0.2496 -0.0432  0.0905
  486MOL0     C65507   3.979   4.461   6.037 -0.7513 -0.8624  0.2886
  486MOL0     C65508   3.902   4.574   6.064 -0.2608  0.5768 -0.1514
  486MOL0     C65509   3.770   4.574   6.027 -0.3151  0.3723  1.3371
  486MOL0     C65510   3.716   4.475   5.949  1.0251  0.4822  0.5650
  486MOL0     O65511   3.581   4.471   5.901  0.0792 -0.3004  0.7297
  486MOL0     C65512   3.501   4.581   5.922  0.2233  0.1288  0.6852
  486MOL0     C65513   3.518   4.703   5.829  0.3541  0.7456  0.5166
  486MOL0     C65514   3.509   4.686   5.679  0.6573  0.2635 -0.1370
  486MOL0     C65515   3.358   4.665   5.632  0.3123 -0.8361  0.6930
  486MOL0     C65516   3.337   4.692   5.487  0.1680  0.1062 -0.6326
  486MOL0     C65517   3.190   4.718   5.449  0.6987 -0.6200 -0.1800
  486MOL0     C65518   3.163   4.706   5.295  1.1723 -0.1362 -0.9727
  486MOL0     C65519   3.023   4.751   5.255 -0.5570  0.0272  0.3841
  486MOL0    Cl65520   3.017   4.736   5.078  0.2386 -0.4667 -0.4832
  486MOL0     C65521   3.788   4.368   5.917 -1.3166  0.7128  0.3010
  486MOL0     C65522   3.925   4.363   5.949  0.9512 -0.1338 -0.4559
  486MOL0     O65523   4.086   4.291   6.207 -0.2079  0.3446  0.0410
  486MOL0     C65524   4.363   4.284   6.248  0.0866  0.1576 -1.0354
  486MOL0     C65525   4.490   4.289   6.291 -0.0096  0.2934  1.1544
  486MOL0     N65526   5.205   4.378   6.437 -0.3553  0.4233  0.3037
  486MOL0     N65527   5.281   4.320   6.521 -0.3165  0.1443 -0.3272
  486MOL0     C65528   6.230   3.882   5.968 -0.0627  0.1974 -0.0812
  486MOL0     C65529   6.319   3.837   5.868  0.0920 -0.0609  0.2178
  486MOL0     C65530   6.749   3.813   5.689 -0.4213  0.5262 -0.1534
  486MOL0     C65531   6.751   3.930   5.610  0.6001 -1.2324  0.3718
  486MOL0     C65532   6.869   3.944   5.523  0.6999  0.4566 -0.0428
  486MOL0     C65533   6.969   3.846   5.504 -0.2403 -0.3199 -0.7319
  486MOL0     O65534   7.058   3.845   5.402  1.3617  0.3461 -0.4398
  486MOL0     C65535   7.192   3.819   5.435 -0.5929  0.8827  0.5981
  486MOL0     C65536   7.252   3.917   5.532  0.2255  0.7479  0.1917
  486MOL0     C65537   7.259   4.056   5.469  0.3434  0.5270 -0.0877
  486MOL0     C65538   7.331   4.140   5.576 -0.2806 -0.2315 -0.5390
  486MOL0     C65539   7.329   4.283   5.538 -0.6413  0.6429 -0.2807
  486MOL0     C65540   7.339   4.396   5.499  1.1868 -0.4273  0.2600
  486MOL0     C65541   6.969   3.748   5.599 -0.1796  0.4200  0.5541
  486MOL0     C65542   6.860   3.727   5.690 -0.2276  0.5731  0.5372
  486MOL0     H65543   6.576   4.057   5.937 -0.5637  1.1862  0.4529
  486MOL0     H65544   6.422   4.111   6.126 -0.2076 -2.4995  2.7505
  486MOL0     H65545   6.310   4.030   6.312  0.6318 -1.2127 -2.7369
  486MOL0     H65546   6.248   4.189   6.250  0.2866  0.4043  0.7536
  486MOL0     H65547   6.069   3.975   6.376 -0.0756  0.2396  0.9243
  486MOL0     H65548   6.156   4.086   6.464 -0.9262  0.8283  0.7240
  486MOL0     H65549   6.030   4.276   6.346 -1.7003  0.7850  1.8646
  486MOL0     H65550   5.952   4.148   6.241  0.9512 -1.7549  0.8003
  486MOL0     H65551   5.835   4.062   6.416 -0.5544  0.8385 -1.2235
  486MOL0     H65552   5.922   4.154   6.547 -0.8601  5.0150  0.7058
  486MOL0     H65553   5.857   4.351   6.469 -1.9896  2.9148 -1.6033
  486MOL0     H65554   5.770   4.281   6.321  1.7320 -1.4520 -1.2192
  486MOL0     H65555   5.678   4.230   6.612 -0.8272 -3.0832 -1.0420
  486MOL0     H65556   5.610   4.352   6.504 -1.3732 -0.0632  0.3623
  486MOL0     H65557   5.586   4.117   6.348 -0.2064 -1.7053 -0.6758
  486MOL0     H65558   5.630   4.049   6.506 -0.4725  1.0121  0.8006
  486MOL0     H65559   5.444   4.153   6.622 -2.0235 -1.7229  0.8399
  486MOL0     H65560   5.410   4.029   6.483 -1.5208  0.6872  2.1815
  486MOL0     H65561   5.342   4.159   6.238 -0.3132  0.5259  0.0652
  486MOL0     H65562   5.137   4.463   6.171 -2.4929 -0.7473 -2.0660
  486MOL0     H65563   5.192   4.308   6.104  0.2656 -0.0953  0.0800
  486MOL0     H65564   5.003   4.192   6.244  0.0421 -0.0824  0.9595
  486MOL0     H65565   4.951   4.285   6.108 -1.1922  1.0275  0.0908
  486MOL0     H65566   4.901   4.479   6.238 -2.7466  0.3501  1.1168
  486MOL0     H65567   4.934   4.393   6.397 -0.7296 -1.3362 -0.0933
  486MOL0     H65568   4.767   4.245   6.355  3.1390 -0.3558  0.5341
  486MOL0     H65569   4.728   4.312   6.196  0.0136 -1.0751  0.6272
  486MOL0     H65570   4.530   4.630   6.275 -0.0879  0.1206 -0.5302
  486MOL0     H65571   4.336   4.723   6.287  2.3561 -2.6015 -0.5907
  486MOL0     H65572   4.308   4.705   6.107  0.7474  3.4013  1.7058
  486MOL0     H65573   4.180   4.647   6.219  0.0262 -1.5485  2.2337
  486MOL0     H65574   3.956   4.656   6.111  1.4429 -0.8697  0.5645
  486MOL0     H65575   3.702   4.653   6.056 -1.4185  1.9895 -4.3328
  486MOL0     H65576   3.401   4.537   5.910  0.8875 -1.7801  1.6864
  486MOL0     H65577   3.503   4.610   6.028  3.6153  0.1593  0.7145
  486MOL0     H65578   3.451   4.784   5.858 -1.2713 -0.1662 -0.5341
  486MOL0     H65579   3.621   4.739   5.841  1.2919 -1.6827  0.4112
  486MOL0     H65580   3.564   4.597   5.649  0.9504  0.8188 -1.3273
  486MOL0     H65581   3.559   4.773   5.634 -0.4650  0.5901 -0.7986
  486MOL0     H65582   3.308   4.572   5.662 -4.6223  1.0215 -0.7562
  486MOL0     H65583   3.306   4.744   5.688  1.7824 -1.1276  2.5911
  486MOL0     H65584   3.363   4.597   5.439 -3.8066 -0.4754 -2.0488
  486MOL0     H65585   3.400   4.771   5.445  0.1901 -0.2401 -1.2756
  486MOL0     H65586   3.120   4.651   5.499  0.1604  0.6184  0.7561
  486MOL0     H65587   3.166   4.818   5.487 -0.9957 -0.6693 -1.0383
  486MOL0     H65588   3.169   4.599   5.276 -1.1614 -0.1283 -2.0257
  486MOL0     H65589   3.243   4.751   5.234  0.0924  0.2765 -2.1162
  486MOL0     H65590   3.015   4.856   5.286  0.6477  0.3425 -0.2916
  486MOL0     H65591   2.951   4.692   5.312  2.2896 -1.4108  2.7531
  486MOL0     H65592   3.746   4.286   5.859 -1.1521  0.5519  0.4074
  486MOL0     H65593   3.999   4.291   5.917  2.0789  0.5625  0.5342
  486MOL0     H65594   4.312   4.189   6.238 -1.9890  1.0872  0.0005
  486MOL0     H65595   4.545   4.197   6.307  3.1611  1.5510 -1.5525
  486MOL0     H65596   6.131   3.841   5.982 -1.7209  3.6185 -0.9432
  486MOL0     H65597   6.276   3.760   5.804  1.8258  1.7291 -3.4069
  486MOL0     H65598   6.675   4.007   5.617 -0.5232 -2.4115  1.7304
  486MOL0     H65599   6.867   4.028   5.454  2.6852  1.7943  1.3935
  486MOL0     H65600   7.203   3.723   5.485  0.1806  1.7420  2.1586
  486MOL0     H65601   7.243   3.830   5.339 -1.9607  2.9075  0.0361
  486MOL0     H65602   7.355   3.886   5.552 -0.0656 -1.7622 -1.7109
  486MOL0     H65603   7.206   3.910   5.631  1.5788 -2.4247  0.7236
  486MOL0     H65604   7.154   4.084   5.458 -0.4505 -1.4661  1.6117
  486MOL0     H65605   7.305   4.051   5.370 -0.1178 -1.7621 -0.2368
  486MOL0     H65606   7.437   4.118   5.591  0.4673  2.6270 -1.1145
  486MOL0     H65607   7.274   4.124   5.668 -0.7807 -1.5972 -1.0545
  486MOL0     H65608   7.346   4.496   5.463  1.0188 -0.2580  0.6973
  486MOL0     H65609   7.042   3.671   5.578  1.5343  2.0025  0.5130
  486MOL0     H65610   6.856   3.645   5.761 -1.1731  1.3500  1.4103
  487MOL0     O65611   8.278  10.676   5.431  0.6649 -0.1694 -0.1761
  487MOL0     C65612   8.180  10.675   5.360  0.1346 -0.3147 -0.1019
  487MOL0     O65613   8.174  10.612   5.237  0.2675 -0.1298  0.4116
  487MOL0     C65614   8.287  10.551   5.193 -0.4583  0.5703 -0.0417
  487MOL0     C65615   8.413  10.613   5.189  0.2658  0.9373 -0.2607
  487MOL0     C65616   8.526  10.539   5.136 -0.0507 -0.7229 -0.2494
  487MOL0     C65617   8.521  10.417   5.073 -0.4380 -0.2108 -0.3856
  487MOL0     O65618   8.620  10.327   5.019  0.9365  0.0342  0.4696
  487MOL0     C65619   8.742  10.387   4.975  0.2246  0.1622 -0.0965
  487MOL0     C65620   8.849  10.289   4.930  0.8761  0.3600 -0.5882
  487MOL0     C65621   8.896  10.204   5.047  0.2204  0.3466  0.1268
  487MOL0     C65622   9.002  10.104   4.995 -0.0994 -0.3587 -0.4606
  487MOL0     C65623   9.134  10.189   4.972  1.5555  0.5063  0.2746
  487MOL0     C65624   9.194  10.251   5.099  0.3128 -0.2409 -0.6517
  487MOL0     C65625   9.326  10.321   5.058 -0.7747 -0.2963 -0.3795
  487MOL0     C65626   9.325  10.470   5.059 -0.2344  0.3840 -0.2134
  487MOL0     N65627   9.258  10.520   4.941  0.2431  0.1172 -0.4150
  487MOL0     C65628   9.123  10.559   4.941 -0.4679  0.2631 -0.1279
  487MOL0     C65629   9.103  10.583   4.805 -0.1262 -0.0259 -0.5441
  487MOL0     C65630   8.978  10.635   4.743  0.2445  1.1166  0.6077
  487MOL0     C65631   8.891  10.710   4.835  0.0152 -1.1706 -0.8773
  487MOL0     C65632   8.785  10.790   4.760  0.2223 -0.6317 -0.4574
  487MOL0     C65633   8.701  10.731   4.645 -0.0640 -0.1199  0.2692
  487MOL0     O65634   8.608  10.634   4.692  0.2697  0.6444 -0.4600
  487MOL0     C65635   8.485  10.665   4.729  0.0182  0.0390 -0.5908
  487MOL0     C65636   8.395  10.561   4.745  0.0896 -0.4069 -0.2407
  487MOL0     C65637   8.259  10.577   4.787 -0.0245 -0.4204  0.1679
  487MOL0     C65638   8.185  10.445   4.792  0.2795  0.3828  0.7932
  487MOL0     C65639   8.216  10.707   4.822 -0.3368 -0.8007 -0.2369
  487MOL0     C65640   8.081  10.734   4.872 -0.6953  0.2494 -0.5350
  487MOL0     O65641   8.031  10.864   4.849  0.4521  0.5556  0.1563
  487MOL0     C65642   7.895  10.871   4.872 -1.0932 -1.1710 -0.7950
  487MOL0     C65643   7.852  10.873   5.003  0.4026 -0.3418 -0.5571
  487MOL0     C65644   7.716  10.901   5.021 -1.0897 -0.3799  0.4396
  487MOL0     C65645   7.622  10.920   4.916 -0.3388  0.4568  0.7684
  487MOL0     O65646   7.493  10.924   4.943 -0.4753 -0.3260 -0.0685
  487MOL0     C65647   7.406  10.969   4.839 -0.7448  0.9342 -1.4558
  487MOL0     C65648   7.260  10.976   4.897  0.0175 -0.1267 -0.7622
  487MOL0     C65649   7.243  11.090   4.993 -0.5611 -1.3440  0.5888
  487MOL0     C65650   7.094  11.126   4.993  0.2875 -0.3333  0.8243
  487MOL0     C65651   7.065  11.181   5.129  0.2680 -0.3500 -0.6909
  487MOL0     C65652   6.914  11.200   5.140  0.5628  0.4091  0.1135
  487MOL0     C65653   6.863  11.238   5.283  0.2860  0.0604 -0.3637
  487MOL0     C65654   6.708  11.259   5.284 -0.1640 -0.8337 -0.5871
  487MOL0    Cl65655   6.658  11.384   5.403  0.2552 -0.0005  0.2404
  487MOL0     C65656   7.677  10.921   4.779 -0.2179  0.1205 -0.1815
  487MOL0     C65657   7.815  10.899   4.763 -0.4256 -0.0909 -0.3570
  487MOL0     O65658   8.028  10.647   4.942 -0.5569  0.4213  0.4039
  487MOL0     C65659   8.312  10.811   4.809  0.0491  1.1772 -0.6084
  487MOL0     C65660   8.447  10.791   4.771 -0.5297 -0.5958 -0.0893
  487MOL0     N65661   9.226  10.566   4.740 -0.9614 -0.7490 -0.9738
  487MOL0     N65662   9.324  10.545   4.824 -0.0800  0.5623 -0.0147
  487MOL0     C65663   8.395  10.359   5.081  0.8089 -0.6947  0.2992
  487MOL0     C65664   8.282  10.420   5.145 -0.0025 -0.1197 -0.7507
  487MOL0     C65665   8.059  10.730   5.417 -0.6107 -0.7508 -1.0655
  487MOL0     C65666   8.062  10.823   5.526 -0.0803  0.5153  0.9528
  487MOL0     C65667   7.941  10.873   5.583  0.1999 -1.3438  0.8829
  487MOL0     C65668   7.819  10.830   5.537 -0.5517  0.5571  0.6221
  487MOL0     O65669   7.716  10.880   5.602  0.5225 -0.2436  0.5796
  487MOL0     C65670   7.581  10.874   5.552 -0.4352 -0.3294 -0.0553
  487MOL0     C65671   7.477  10.945   5.635 -0.7224 -0.0134 -0.6175
  487MOL0     C65672   7.325  10.946   5.598 -0.3129  0.1342 -0.2687
  487MOL0     C65673   7.244  11.004   5.708 -0.7568 -0.4872  0.1557
  487MOL0     C65674   7.106  11.018   5.660 -0.6596 -0.2534  0.0767
  487MOL0     C65675   6.986  11.025   5.636  0.0882  0.9428  0.2758
  487MOL0     C65676   7.807  10.725   5.442  0.0690  1.1572 -0.4522
  487MOL0     C65677   7.933  10.692   5.372 -0.3359 -0.4181 -0.1412
  487MOL0     H65678   8.435  10.713   5.224  2.2278  1.1952 -2.0155
  487MOL0     H65679   8.617  10.598   5.147 -0.8505  0.0462  3.6840
  487MOL0     H65680   8.719  10.454   4.892  0.6927  0.0428 -0.3246
  487MOL0     H65681   8.783  10.448   5.056  1.6321 -0.0883 -0.6046
  487MOL0     H65682   8.796  10.231   4.854 -1.0392  2.2153 -0.7880
  487MOL0     H65683   8.932  10.342   4.883  3.0204 -2.7254 -0.5506
  487MOL0     H65684   8.919  10.259   5.138  2.4716  1.7442 -1.1645
  487MOL0     H65685   8.809  10.150   5.083 -0.5969  3.0291  2.4689
  487MOL0     H65686   9.043  10.030   5.065 -0.1174  0.5636  0.5605
  487MOL0     H65687   8.973  10.057   4.901  1.9493 -1.2403 -0.7186
  487MOL0     H65688   9.202  10.115   4.928  1.3360  0.2545  0.3543
  487MOL0     H65689   9.116  10.266   4.896  0.1047  0.0737  0.1549
  487MOL0     H65690   9.131  10.324   5.151 -1.0292 -2.9084  1.7494
  487MOL0     H65691   9.218  10.167   5.165 -0.1099  2.0358  2.7088
  487MOL0     H65692   9.402  10.288   5.129  0.6979 -0.9735 -2.2034
  487MOL0     H65693   9.353  10.292   4.956 -1.0493 -1.1435 -0.2159
  487MOL0     H65694   9.427  10.508   5.050 -0.7129  1.4279 -1.3568
  487MOL0     H65695   9.289  10.502   5.157 -0.5710 -0.3094 -0.1024
  487MOL0     H65696   9.057  10.561   5.026  1.9023 -2.7224  1.9831
  487MOL0     H65697   8.997  10.689   4.650 -0.5142 -0.1270 -0.3008
  487MOL0     H65698   8.917  10.553   4.703  1.9166  0.1559 -0.1114
  487MOL0     H65699   8.954  10.771   4.900 -1.4281 -1.5437  0.9673
  487MOL0     H65700   8.841  10.649   4.912 -2.6305  2.3707  0.4839
  487MOL0     H65701   8.836  10.881   4.726 -1.4448  0.6060  0.2001
  487MOL0     H65702   8.711  10.815   4.837  2.4458 -0.2447  1.6426
  487MOL0     H65703   8.769  10.675   4.580 -1.0954 -1.2040  0.1107
  487MOL0     H65704   8.660  10.813   4.586  0.9500 -1.0291 -1.8154
  487MOL0     H65705   8.432  10.462   4.721 -1.4198 -1.4355  1.4415
  487MOL0     H65706   8.233  10.382   4.716 -1.3657 -1.8205  1.4718
  487MOL0     H65707   8.166  10.395   4.888 -0.3124  0.5354  0.7602
  487MOL0     H65708   8.089  10.444   4.740 -0.8286 -2.8987  2.5828
  487MOL0     H65709   7.919  10.858   5.087 -1.6653 -1.3716  0.9948
  487MOL0     H65710   7.679  10.906   5.123 -2.1765 -0.4430  0.0654
  487MOL0     H65711   7.437  11.066   4.798  0.2488  1.2785  0.0047
  487MOL0     H65712   7.407  10.889   4.764 -1.2113  1.4809 -2.0568
  487MOL0     H65713   7.187  10.984   4.815 -2.3604  2.0393  1.4062
  487MOL0     H65714   7.242  10.883   4.950  0.9660 -0.2710 -0.6836
  487MOL0     H65715   7.295  11.182   4.964 -0.7527 -0.0963  3.7597
  487MOL0     H65716   7.278  11.061   5.093 -0.3738 -0.1744  0.8810
  487MOL0     H65717   7.087  11.199   4.912  0.1255 -0.9984  0.2226
  487MOL0     H65718   7.030  11.041   4.967 -0.7013  0.6882 -0.2290
  487MOL0     H65719   7.114  11.278   5.142 -0.8903  0.0160  1.3812
  487MOL0     H65720   7.101  11.115   5.209  1.2755  1.0155  0.0254
  487MOL0     H65721   6.876  11.273   5.067  0.0184  2.1061  1.9915
  487MOL0     H65722   6.867  11.103   5.120  1.6182 -0.3343  1.1463
  487MOL0     H65723   6.912  11.332   5.310 -1.2798  0.7839  0.0752
  487MOL0     H65724   6.894  11.161   5.354  4.9344  2.8089  1.0766
  487MOL0     H65725   6.653  11.166   5.304  1.7125 -2.1489 -1.1897
  487MOL0     H65726   6.676  11.288   5.183 -2.3051 -0.0173  0.2686
  487MOL0     H65727   7.614  10.928   4.691  1.5710  0.0665 -1.5009
  487MOL0     H65728   7.863  10.906   4.666  1.3221 -3.8412  0.0612
  487MOL0     H65729   8.294  10.914   4.836  1.8465  1.1437  0.9247
  487MOL0     H65730   8.522  10.869   4.780 -0.5677 -0.7354  1.6284
  487MOL0     H65731   8.377  10.261   5.040 -0.7831  0.2991 -1.5279
  487MOL0     H65732   8.190  10.364   5.160 -1.7029  3.2140  3.4306
  487MOL0     H65733   8.157  10.860   5.562  0.1030  0.5874  0.4163
  487MOL0     H65734   7.948  10.954   5.655 -3.6019  0.3920 -0.4268
  487MOL0     H65735   7.578  10.911   5.449 -0.6108 -2.6502 -0.9408
  487MOL0     H65736   7.536  10.776   5.532 -0.6400 -0.3366  0.4084
  487MOL0     H65737   7.514  11.047   5.647  0.3584 -0.6000  1.5886
  487MOL0     H65738   7.489  10.902   5.735 -2.3972  1.2363  0.1695
  487MOL0     H65739   7.302  10.840   5.586 -1.0090  0.1931  0.5401
  487MOL0     H65740   7.308  11.003   5.506  1.1167  0.9630 -0.0575
  487MOL0     H65741   7.284  11.101   5.740 -0.6923 -0.3378 -0.3634
  487MOL0     H65742   7.247  10.935   5.793 -0.5091  0.3202  0.8119
  487MOL0     H65743   6.884  11.027   5.605  0.0457  1.4655  0.4326
  487MOL0     H65744   7.717  10.679   5.404  0.5304  2.1794 -2.9430
  487MOL0     H65745   7.922  10.613   5.299  0.3801  0.1459 -0.8859
  488MOL0     O65746   9.736   4.657   2.645  1.1508  0.3360 -0.1711
  488MOL0     C65747   9.679   4.649   2.531 -0.1404  0.6419 -1.7419
  488MOL0     O65748   9.752   4.648   2.410 -0.0859  0.4702  0.4748
  488MOL0     C65749   9.891   4.625   2.415  0.1124 -0.3663 -0.3634
  488MOL0     C65750   9.967   4.546   2.510 -0.0570 -0.3963 -0.9995
  488MOL0     C65751  10.108   4.540   2.478  0.5092  0.2473 -0.1427
  488MOL0     C65752  10.164   4.608   2.367 -0.1474 -0.8161 -0.2343
  488MOL0     O65753  10.302   4.595   2.343  0.0438  0.8850 -0.1440
  488MOL0     C65754  10.367   4.647   2.231  0.6721  0.3928  0.5747
  488MOL0     C65755  10.517   4.636   2.255  0.3550  0.1273  1.0057
  488MOL0     C65756  10.595   4.715   2.140  0.2926 -1.4270 -0.0692
  488MOL0     C65757  10.737   4.681   2.148 -0.1306 -0.0579  0.4123
  488MOL0     C65758  10.821   4.737   2.030  0.0183 -0.4660 -0.0870
  488MOL0     C65759  10.966   4.712   2.045  0.2529 -0.6823  0.4497
  488MOL0     C65760  11.052   4.801   1.947 -0.7352  0.7836 -0.0541
  488MOL0     C65761  11.197   4.741   1.945 -0.4842 -0.1494 -0.2513
  488MOL0     N65762  11.284   4.808   1.846  0.0701  0.7355 -0.0088
  488MOL0     C65763  11.416   4.777   1.823 -0.5439 -0.0746  0.3307
  488MOL0     C65764  11.449   4.859   1.723 -0.4525  0.2758 -0.0505
  488MOL0     C65765  11.570   4.848   1.640 -0.0421  0.4923  0.5303
  488MOL0     C65766  11.673   4.945   1.677 -0.2149  0.0280 -0.2003
  488MOL0     C65767  11.793   4.949   1.587 -0.4110 -0.0006  0.3542
  488MOL0     C65768  11.887   5.055   1.647 -0.7521 -0.4427 -0.2559
  488MOL0     O65769  12.011   5.046   1.574 -0.0962  0.1010  0.5307
  488MOL0     C65770  12.010   5.106   1.454 -0.1296 -1.0519 -0.4586
  488MOL0     C65771  11.996   5.242   1.457 -0.7871 -0.2131  0.6851
  488MOL0     C65772  12.018   5.320   1.336 -0.3569 -1.1842 -0.8056
  488MOL0     C65773  12.022   5.473   1.360  0.4163  0.1783 -0.4585
  488MOL0     C65774  12.055   5.267   1.217 -0.5773 -0.1145 -0.3893
  488MOL0     C65775  12.093   5.338   1.093  0.6848  0.6040  0.0526
  488MOL0     O65776  12.145   5.251   0.995  0.4379 -0.0310 -0.6598
  488MOL0     C65777  12.212   5.307   0.893 -0.4341  0.5078  1.2450
  488MOL0     C65778  12.180   5.250   0.766  0.7467 -0.4244 -0.7898
  488MOL0     C65779  12.248   5.294   0.653 -0.8680  0.3576 -0.1539
  488MOL0     C65780  12.360   5.381   0.661  0.0408  0.9357  0.4175
  488MOL0     O65781  12.440   5.392   0.552  0.2982  0.0453 -0.7874
  488MOL0     C65782  12.580   5.398   0.558 -0.0225  0.3335  0.5984
  488MOL0     C65783  12.630   5.386   0.418  0.1872  0.9415  0.6248
  488MOL0     C65784  12.657   5.525   0.355  0.0535  0.0844 -0.1406
  488MOL0     C65785  12.701   5.524   0.218  0.5625  0.3147  0.1101
  488MOL0     C65786  12.744   5.664   0.176 -0.3600 -0.4662  0.0930
  488MOL0     C65787  12.899   5.693   0.169 -0.6163 -0.3003 -0.0727
  488MOL0     C65788  12.930   5.833   0.110  0.0581  1.0470 -0.0930
  488MOL0     C65789  13.078   5.864   0.154 -0.0990 -0.1852 -0.2936
  488MOL0    Cl65790  13.195   5.736   0.103 -0.0586  0.4163  0.1862
  488MOL0     C65791  12.380   5.452   0.782  0.1094 -0.4483  0.1555
  488MOL0     C65792  12.302   5.418   0.896  0.9047  0.1233  0.1434
  488MOL0     O65793  12.048   5.447   1.076  0.0086 -0.8047 -0.1271
  488MOL0     C65794  12.086   5.128   1.224 -0.9121  0.8702 -0.2010
  488MOL0     C65795  12.068   5.051   1.341  0.0490 -0.1731 -0.6506
  488MOL0     N65796  11.346   4.942   1.689 -0.2439 -1.1431 -0.0608
  488MOL0     N65797  11.250   4.913   1.760 -0.3855 -0.7536 -0.4315
  488MOL0     C65798  10.086   4.693   2.290  0.5614  0.0759 -0.4088
  488MOL0     C65799   9.951   4.695   2.311  0.1028  0.1821 -0.1237
  488MOL0     C65800   9.538   4.624   2.525 -0.1101 -0.2423  1.0188
  488MOL0     C65801   9.492   4.604   2.395  0.2120  0.5976  0.4340
  488MOL0     C65802   9.362   4.548   2.374  0.8692  0.6237 -0.7391
  488MOL0     C65803   9.272   4.521   2.481  0.2546  0.1607 -0.2561
  488MOL0     O65804   9.146   4.468   2.464  0.5180 -0.5979  0.1325
  488MOL0     C65805   9.103   4.440   2.332  0.3341 -0.4584  0.5504
  488MOL0     C65806   9.138   4.303   2.290 -0.9993 -0.5736 -0.2345
  488MOL0     C65807   9.087   4.200   2.397  0.0291  0.2270  0.0748
  488MOL0     C65808   9.197   4.151   2.497  0.4156  0.7402 -0.0811
  488MOL0     C65809   9.289   4.052   2.431  0.2944  1.0372 -0.5249
  488MOL0     C65810   9.363   3.969   2.378 -0.2450 -0.6659  0.2113
  488MOL0     C65811   9.315   4.556   2.615 -0.4964  0.6483  0.2194
  488MOL0     C65812   9.450   4.605   2.637  0.0362  0.6369  0.4101
  488MOL0     H65813   9.937   4.491   2.598  0.7580  1.7407  0.6984
  488MOL0     H65814  10.171   4.494   2.554 -0.6203 -0.4729  0.3736
  488MOL0     H65815  10.336   4.593   2.141 -4.1163  0.3412  1.9456
  488MOL0     H65816  10.340   4.751   2.210  1.3888  0.3866 -0.4385
  488MOL0     H65817  10.547   4.696   2.341  2.4501  0.3790  0.1629
  488MOL0     H65818  10.557   4.535   2.268 -1.4990 -0.6296  1.1359
  488MOL0     H65819  10.567   4.695   2.036  0.2272  2.5228 -0.9584
  488MOL0     H65820  10.581   4.823   2.149 -0.7407 -1.0385 -4.0496
  488MOL0     H65821  10.780   4.729   2.237  3.1961 -4.1269  1.2924
  488MOL0     H65822  10.753   4.574   2.164 -1.4188 -0.2764  0.3091
  488MOL0     H65823  10.779   4.689   1.941  0.3649 -0.4238 -0.2712
  488MOL0     H65824  10.801   4.842   2.011 -1.1985  0.2387  3.9748
  488MOL0     H65825  10.993   4.729   2.149 -0.7050 -2.9797  1.1449
  488MOL0     H65826  10.991   4.606   2.035  3.2544 -0.1593  1.5519
  488MOL0     H65827  11.023   4.807   1.841 -0.8177 -1.8895 -0.2525
  488MOL0     H65828  11.048   4.907   1.974  3.2784  2.4188 -4.5025
  488MOL0     H65829  11.185   4.634   1.931 -0.0201 -0.2049 -0.2449
  488MOL0     H65830  11.236   4.756   2.047  1.3539 -2.0471 -0.6097
  488MOL0     H65831  11.485   4.713   1.877 -0.7827 -1.4096 -0.8713
  488MOL0     H65832  11.601   4.744   1.654  0.2969  0.2903 -1.3647
  488MOL0     H65833  11.534   4.859   1.537 -1.8461 -1.1189  0.9171
  488MOL0     H65834  11.695   4.930   1.783  1.8107  2.5748 -0.1433
  488MOL0     H65835  11.628   5.045   1.675 -0.5145 -0.0910  0.2890
  488MOL0     H65836  11.753   4.979   1.490  0.6074  3.5646  0.8779
  488MOL0     H65837  11.839   4.850   1.587  1.4468  0.8152  0.3039
  488MOL0     H65838  11.902   5.038   1.754 -2.9208  0.1880  0.2010
  488MOL0     H65839  11.844   5.155   1.659 -0.4103 -0.3216 -0.0091
  488MOL0     H65840  11.966   5.289   1.550 -0.7181  0.9665  0.1431
  488MOL0     H65841  12.101   5.522   1.304  0.6346  0.4623  0.0916
  488MOL0     H65842  11.927   5.521   1.336  0.1549  0.3107  0.7785
  488MOL0     H65843  12.045   5.482   1.466  0.7317  3.2812 -0.7088
  488MOL0     H65844  12.108   5.169   0.753  0.1742  0.0906 -0.8889
  488MOL0     H65845  12.223   5.246   0.559 -2.2770  1.3316 -0.3135
  488MOL0     H65846  12.623   5.490   0.597  0.7285 -0.5267  1.8647
  488MOL0     H65847  12.624   5.325   0.626  1.5063 -0.8116 -1.4948
  488MOL0     H65848  12.719   5.322   0.418 -2.1812 -2.7287  3.1058
  488MOL0     H65849  12.551   5.332   0.364 -2.1020  1.0856  3.6067
  488MOL0     H65850  12.744   5.572   0.401 -2.1871  4.0039  0.5118
  488MOL0     H65851  12.573   5.591   0.377 -1.2177 -1.0878 -1.2355
  488MOL0     H65852  12.783   5.454   0.202 -0.2289 -0.5395 -0.2758
  488MOL0     H65853  12.623   5.486   0.152 -0.3687  1.3911  0.5578
  488MOL0     H65854  12.704   5.741   0.243  0.8568 -2.0447  2.8296
  488MOL0     H65855  12.712   5.671   0.072  2.3153  1.4986 -0.7073
  488MOL0     H65856  12.936   5.697   0.272  0.3790  0.4594 -0.4406
  488MOL0     H65857  12.950   5.611   0.117  0.4754 -0.2800  0.9267
  488MOL0     H65858  12.865   5.910   0.153  0.9560  1.9283 -0.2647
  488MOL0     H65859  12.913   5.844   0.003  0.9391 -1.0024 -0.4935
  488MOL0     H65860  13.081   5.887   0.261 -2.5929 -2.5551  0.4186
  488MOL0     H65861  13.118   5.949   0.098  3.2965  0.7256  3.0797
  488MOL0     H65862  12.465   5.518   0.794  0.7883 -1.0302 -1.2338
  488MOL0     H65863  12.313   5.469   0.991 -3.5100 -3.1293  2.8184
  488MOL0     H65864  12.130   5.077   1.139  0.8183  0.3789  0.9349
  488MOL0     H65865  12.097   4.947   1.341 -0.9177 -0.4711  0.4339
  488MOL0     H65866  10.132   4.746   2.207  1.8482  1.1826  0.9441
  488MOL0     H65867   9.896   4.753   2.238 -2.1196 -0.9561  0.5397
  488MOL0     H65868   9.551   4.616   2.305  1.9341  1.2611  1.6006
  488MOL0     H65869   9.347   4.521   2.270  1.9969  1.8671 -1.2375
  488MOL0     H65870   8.994   4.444   2.332  0.3183  0.7968  2.8302
  488MOL0     H65871   9.135   4.526   2.272 -2.1969  0.8894  0.9940
  488MOL0     H65872   9.245   4.301   2.270 -0.7038  0.3821  1.0460
  488MOL0     H65873   9.090   4.295   2.193  3.3880  0.0368 -2.7190
  488MOL0     H65874   9.033   4.122   2.342 -1.6279  0.7897  0.8173
  488MOL0     H65875   9.008   4.255   2.450 -1.5973 -0.1196 -1.8547
  488MOL0     H65876   9.157   4.095   2.582  2.4417 -1.3803 -0.4148
  488MOL0     H65877   9.253   4.233   2.541  0.3080 -0.6952  2.9611
  488MOL0     H65878   9.426   3.896   2.332  1.7590  1.7588 -1.1944
  488MOL0     H65879   9.239   4.541   2.692 -2.5530 -0.5854 -1.9257
  488MOL0     H65880   9.498   4.620   2.733  1.1173  1.6389 -0.2513
  489MOL0     O65881   8.766   9.719  10.092  1.0108 -0.9659  0.1453
  489MOL0     C65882   8.847   9.681  10.174 -0.6854 -0.7699 -0.0210
  489MOL0     O65883   8.828   9.571  10.253 -0.0878  0.6908  0.0215
  489MOL0     C65884   8.712   9.498  10.240  1.2942 -0.2226  0.2425
  489MOL0     C65885   8.578   9.549  10.260 -0.2028 -0.7986  0.3844
  489MOL0     C65886   8.466   9.465  10.235 -0.6197  0.1634 -0.2075
  489MOL0     C65887   8.483   9.327  10.198 -0.0988 -0.3605 -0.5506
  489MOL0     O65888   8.374   9.244  10.178  0.2126 -0.7923 -0.6460
  489MOL0     C65889   8.347   9.211  10.042 -0.4087  0.2379  0.4100
  489MOL0     C65890   8.279   9.320   9.951 -0.9654 -0.1195 -0.1235
  489MOL0     C65891   8.384   9.357   9.839  0.2721  0.8321  0.0346
  489MOL0     C65892   8.327   9.463   9.735 -0.1643 -0.4111  0.8459
  489MOL0     C65893   8.431   9.524   9.635 -0.8435  0.0107  0.2867
  489MOL0     C65894   8.551   9.597   9.709  0.1798 -0.4457  0.2739
  489MOL0     C65895   8.657   9.657   9.618 -0.3416  0.6368 -0.2332
  489MOL0     C65896   8.786   9.674   9.705  0.4111  1.2737  0.4698
  489MOL0     N65897   8.888   9.741   9.637 -0.4083 -0.1686  0.8327
  489MOL0     C65898   8.986   9.816   9.700 -0.7896  1.0381  0.2336
  489MOL0     C65899   9.077   9.855   9.605  0.1081  0.4714 -0.0935
  489MOL0     C65900   9.216   9.919   9.626 -0.1274 -0.0439  0.2770
  489MOL0     C65901   9.188  10.071   9.633 -0.0558  0.0716  0.8259
  489MOL0     C65902   9.305  10.151   9.586  0.2766  0.3171 -0.2222
  489MOL0     C65903   9.303  10.174   9.439  0.0871 -0.4572  0.3445
  489MOL0     O65904   9.402  10.273   9.404  0.2141 -0.1401 -0.6975
  489MOL0     C65905   9.534  10.240   9.388 -0.1087 -0.2143 -0.2600
  489MOL0     C65906   9.613  10.346   9.341  0.8397 -0.0670 -0.1081
  489MOL0     C65907   9.751  10.322   9.319  0.2004 -0.8489  0.2994
  489MOL0     C65908   9.836  10.434   9.271  0.7617 -0.6529 -0.8122
  489MOL0     C65909   9.809  10.196   9.344  0.3087  0.2450  0.2124
  489MOL0     C65910   9.953  10.157   9.313  0.8324 -0.6265  0.2654
  489MOL0     O65911  10.048  10.241   9.343 -0.4775 -0.3721 -0.1257
  489MOL0     C65912  10.182  10.218   9.298  0.6184  0.5579  1.1082
  489MOL0     C65913  10.254  10.338   9.280  0.3397  0.5022  0.2744
  489MOL0     C65914  10.391  10.344   9.245 -0.1333  0.1383  0.9129
  489MOL0     C65915  10.455  10.217   9.212  0.0246 -0.3862  0.6611
  489MOL0     O65916  10.584  10.210   9.156 -0.1345 -0.0343  0.3887
  489MOL0     C65917  10.687  10.293   9.223  0.3466  0.0021 -1.3191
  489MOL0     C65918  10.828  10.277   9.166 -0.2114 -0.5738 -0.6880
  489MOL0     C65919  10.931  10.319   9.265  0.5686  0.0026 -1.1788
  489MOL0     C65920  11.067  10.261   9.249  1.0120  0.2947 -0.5108
  489MOL0     C65921  11.156  10.320   9.362 -0.0932  1.1269 -0.0268
  489MOL0     C65922  11.296  10.250   9.325  0.2321  0.2945 -0.2999
  489MOL0     C65923  11.402  10.308   9.417 -0.1351 -0.2669  0.5675
  489MOL0     C65924  11.527  10.335   9.328 -0.0944 -0.8315 -1.0995
  489MOL0    Cl65925  11.611  10.185   9.270  0.3142  0.0313 -0.2870
  489MOL0     C65926  10.383  10.098   9.224  0.1270  0.6472  0.3094
  489MOL0     C65927  10.250  10.101   9.271 -0.1450 -0.1023 -0.1249
  489MOL0     O65928   9.964  10.044   9.268  0.0933  0.2423 -0.0555
  489MOL0     C65929   9.734  10.097   9.402  0.1110  0.1699  0.0494
  489MOL0     C65930   9.600  10.119   9.423  0.4478  0.4090 -0.1631
  489MOL0     N65931   9.023   9.808   9.480 -0.4904 -0.1441 -0.1854
  489MOL0     N65932   8.922   9.730   9.500  0.8060 -0.9955  0.6220
  489MOL0     C65933   8.616   9.274  10.190  0.3834 -0.0626 -0.4118
  489MOL0     C65934   8.733   9.363  10.207  0.8765  0.1818 -0.4043
  489MOL0     C65935   8.985   9.739  10.176 -0.7030 -0.2576 -0.7770
  489MOL0     C65936   9.029   9.836  10.087  0.2494  0.6696 -0.5264
  489MOL0     C65937   9.150   9.897  10.082  0.1953 -0.0527 -0.3653
  489MOL0     C65938   9.247   9.844  10.170 -0.3406  0.4249 -0.2434
  489MOL0     O65939   9.367   9.907  10.164  0.5881  0.4288 -0.2346
  489MOL0     C65940   9.480   9.854  10.227 -0.7102  0.5803  0.8911
  489MOL0     C65941   9.526   9.717  10.177 -0.7942 -0.0750 -0.2465
  489MOL0     C65942   9.523   9.699  10.022  0.2135 -0.6534 -0.4749
  489MOL0     C65943   9.659   9.692   9.944  0.0460 -0.5039  0.7613
  489MOL0     C65944   9.749   9.596   9.999  0.6252  0.3475 -0.5001
  489MOL0     C65945   9.807   9.507  10.050 -0.2173 -0.3453 -0.1783
  489MOL0     C65946   9.220   9.740  10.254  0.0217 -0.1095 -0.6567
  489MOL0     C65947   9.090   9.691  10.261  0.9668 -0.3002 -0.3615
  489MOL0     H65948   8.557   9.651  10.290 -0.3141 -0.4412 -0.8387
  489MOL0     H65949   8.365   9.503  10.247 -0.1844  0.8898  1.4494
  489MOL0     H65950   8.437   9.176   9.990 -0.6864  0.5988 -0.3432
  489MOL0     H65951   8.279   9.126  10.046 -1.1016  0.6316 -1.4669
  489MOL0     H65952   8.182   9.290   9.909 -1.1065  1.6678 -1.1545
  489MOL0     H65953   8.270   9.411  10.012 -0.2473 -1.2043  1.6993
  489MOL0     H65954   8.472   9.410   9.876  1.3437 -1.1772  0.5377
  489MOL0     H65955   8.420   9.265   9.792  1.1758  0.5692  1.1785
  489MOL0     H65956   8.253   9.407   9.677  0.5909  0.0585 -0.6338
  489MOL0     H65957   8.281   9.549   9.784  3.8004  2.3346  0.2141
  489MOL0     H65958   8.471   9.442   9.574  0.3623  1.2513 -0.6752
  489MOL0     H65959   8.374   9.590   9.569  1.4148  2.9317  0.9948
  489MOL0     H65960   8.507   9.681   9.763 -1.3151 -0.1458 -1.3220
  489MOL0     H65961   8.599   9.532   9.783  1.9295 -0.8663 -1.1363
  489MOL0     H65962   8.674   9.577   9.546 -0.1005 -0.4137  0.9617
  489MOL0     H65963   8.640   9.752   9.565  0.3465  0.4935 -0.7275
  489MOL0     H65964   8.821   9.574   9.732 -0.4490  0.0003 -2.6442
  489MOL0     H65965   8.760   9.738   9.790  1.4238  0.7287  1.1967
  489MOL0     H65966   9.003   9.829   9.807  0.8510 -1.4306  0.3662
  489MOL0     H65967   9.257   9.880   9.720 -1.8120  0.9615  1.4943
  489MOL0     H65968   9.283   9.896   9.543 -1.3549  0.2026 -0.8184
  489MOL0     H65969   9.166  10.103   9.736 -1.8164  1.2328  0.1349
  489MOL0     H65970   9.101  10.098   9.573  0.6312 -0.5871 -0.5005
  489MOL0     H65971   9.397  10.104   9.623  0.6757  0.6195 -0.8215
  489MOL0     H65972   9.299  10.249   9.633  1.9012 -0.0387  0.8173
  489MOL0     H65973   9.213  10.219   9.398  0.6059  1.3646  1.0698
  489MOL0     H65974   9.323  10.075   9.397 -0.8179  0.3060 -2.0328
  489MOL0     H65975   9.565  10.443   9.340 -3.0561 -1.8022  0.4835
  489MOL0     H65976   9.789  10.529   9.243  1.4402 -0.5958 -1.7948
  489MOL0     H65977   9.904  10.464   9.351  1.0373 -1.9784 -0.5303
  489MOL0     H65978   9.894  10.406   9.183  0.5503 -1.0367 -0.8322
  489MOL0     H65979  10.204  10.427   9.316  1.8991  1.7095 -0.4310
  489MOL0     H65980  10.441  10.439   9.228  3.7286 -1.8945 -0.1539
  489MOL0     H65981  10.661  10.399   9.214  1.6027  0.5045  0.5016
  489MOL0     H65982  10.689  10.260   9.327 -1.8412  0.5604 -1.0539
  489MOL0     H65983  10.833  10.172   9.134 -3.4192 -1.3445  0.9160
  489MOL0     H65984  10.832  10.337   9.074 -0.5202 -0.5049 -0.6581
  489MOL0     H65985  10.889  10.305   9.365 -1.1781  1.2987 -1.6845
  489MOL0     H65986  10.940  10.428   9.266  0.0894  0.2731  4.1369
  489MOL0     H65987  11.061  10.155   9.273 -1.7424  0.7383  1.1078
  489MOL0     H65988  11.108  10.269   9.148 -1.0961 -0.0689 -1.4316
  489MOL0     H65989  11.115  10.292   9.460 -1.8934 -2.4339 -1.5851
  489MOL0     H65990  11.173  10.427   9.351  4.2541  0.4040 -2.6896
  489MOL0     H65991  11.300  10.140   9.332  0.9408  0.3434  0.2090
  489MOL0     H65992  11.317  10.281   9.223  2.9853  0.0784  0.1035
  489MOL0     H65993  11.425  10.238   9.498  0.4107 -1.9527 -0.9688
  489MOL0     H65994  11.368  10.403   9.460  0.3382  0.4710 -0.6011
  489MOL0     H65995  11.592  10.400   9.387 -0.9890 -0.4197 -0.5426
  489MOL0     H65996  11.495  10.392   9.240  4.0767  3.2216 -0.3592
  489MOL0     H65997  10.430  10.006   9.191 -1.0111  0.0298  0.3500
  489MOL0     H65998  10.197  10.006   9.273 -0.3353 -0.0486 -1.6360
  489MOL0     H65999   9.772   9.997   9.420 -3.9942 -1.8820 -1.4250
  489MOL0     H66000   9.546  10.035   9.465  0.6168 -1.2419 -3.0075
  489MOL0     H66001   8.627   9.174  10.150  0.0524  0.3569 -1.5951
  489MOL0     H66002   8.834   9.329  10.188  1.4529  1.1645  0.7325
  489MOL0     H66003   8.958   9.867  10.011  0.9762 -1.2841 -2.0964
  489MOL0     H66004   9.163   9.978  10.011  0.8115 -0.1248 -0.3397
  489MOL0     H66005   9.564   9.920  10.205 -2.5701  2.3231 -1.5188
  489MOL0     H66006   9.467   9.845  10.335  2.2923  0.4900  1.3296
  489MOL0     H66007   9.458   9.647  10.228 -2.6046  1.5133 -0.3867
  489MOL0     H66008   9.628   9.697  10.212 -0.2249  0.3658 -1.5904
  489MOL0     H66009   9.464   9.776   9.972 -1.4574 -0.9254  0.9729
  489MOL0     H66010   9.459   9.612  10.008 -4.0320  1.9466  0.6291
  489MOL0     H66011   9.707   9.790   9.945  0.1556 -0.5601  1.6077
  489MOL0     H66012   9.630   9.667   9.842 -0.7758 -1.5302  1.2265
  489MOL0     H66013   9.867   9.437  10.105  0.0481  0.5482  0.6993
  489MOL0     H66014   9.291   9.705  10.328 -1.2164 -0.6685  0.3008
  489MOL0     H66015   9.072   9.606  10.327  1.6215 -1.1332 -1.2383
  490MOL0     O66016   5.686   0.461   0.364 -0.6058 -0.0965  0.3761
  490MOL0     C66017   5.616   0.556   0.354 -0.3798 -0.6334  1.0913
  490MOL0     O66018   5.648   0.680   0.404  0.4860  0.4195  0.3819
  490MOL0     C66019   5.754   0.712   0.484 -0.5165 -0.8514  0.4319
  490MOL0     C66020   5.768   0.851   0.510 -0.2590  0.0177 -0.4618
  490MOL0     C66021   5.864   0.900   0.598  0.0808  0.7573 -0.0948
  490MOL0     C66022   5.943   0.811   0.676  0.7010 -0.2980  0.4491
  490MOL0     O66023   6.026   0.849   0.776  0.4845 -0.2479  0.1241
  490MOL0     C66024   6.088   0.980   0.747  0.4698  0.6568 -0.5721
  490MOL0     C66025   6.239   0.955   0.780  0.2635 -0.0081  1.2710
  490MOL0     C66026   6.320   1.082   0.776 -0.0907 -0.1953  0.3518
  490MOL0     C66027   6.467   1.044   0.810  0.6103 -0.7167  0.0841
  490MOL0     C66028   6.556   1.165   0.789  0.5652  0.4169  0.8119
  490MOL0     C66029   6.708   1.121   0.815  0.3545 -0.0596  0.3581
  490MOL0     C66030   6.809   1.224   0.777 -0.3233 -0.1840  0.5858
  490MOL0     C66031   6.938   1.232   0.867  0.1967  0.9680  0.5197
  490MOL0     N66032   7.057   1.271   0.794  0.4260  0.1145 -0.5424
  490MOL0     C66033   7.150   1.189   0.741 -0.3333  0.1097 -0.0372
  490MOL0     C66034   7.243   1.274   0.699  0.4104 -0.5737  1.1921
  490MOL0     C66035   7.361   1.266   0.611  0.8140 -0.2970  0.0176
  490MOL0     C66036   7.498   1.254   0.668 -0.2761  0.5791 -0.2678
  490MOL0     C66037   7.546   1.365   0.764 -0.5909  0.9560 -0.9050
  490MOL0     C66038   7.669   1.316   0.853 -0.2171  0.5454 -0.1395
  490MOL0     O66039   7.796   1.372   0.807  0.4353  0.4728  0.3545
  490MOL0     C66040   7.884   1.308   0.724 -0.0583 -0.7387  0.8026
  490MOL0     C66041   8.014   1.369   0.705 -1.2215  0.7174  0.1652
  490MOL0     C66042   8.118   1.299   0.642 -0.8042  0.1202  0.2768
  490MOL0     C66043   8.250   1.375   0.621 -0.4872 -0.7609  0.1399
  490MOL0     C66044   8.100   1.159   0.600  0.5811  0.5415  0.0075
  490MOL0     C66045   8.206   1.096   0.530  0.3147 -0.1798 -1.6461
  490MOL0     O66046   8.321   1.069   0.609 -0.5944  0.0202 -0.1798
  490MOL0     C66047   8.428   1.010   0.549  0.3417 -0.3873 -0.0442
  490MOL0     C66048   8.485   1.081   0.446  0.2222  0.2556  0.6039
  490MOL0     C66049   8.613   1.050   0.398 -0.1638  0.2351 -0.2492
  490MOL0     C66050   8.671   0.930   0.428  0.1447 -0.0296  0.5724
  490MOL0     O66051   8.792   0.897   0.374  0.2350  0.1425 -0.4731
  490MOL0     C66052   8.859   0.953   0.258  0.1018  0.0131  0.2050
  490MOL0     C66053   8.995   0.888   0.243 -0.3055  0.5525 -0.3439
  490MOL0     C66054   9.076   0.982   0.159  0.1576  0.3223 -0.7649
  490MOL0     C66055   9.199   0.911   0.102 -0.6012 -0.4332 -0.2062
  490MOL0     C66056   9.294   1.017   0.039  0.6028 -0.8652  0.2044
  490MOL0     C66057   9.416   0.968  -0.035  0.0322  0.3870 -0.2300
  490MOL0     C66058   9.483   1.082  -0.112 -0.4330  0.2887 -0.2708
  490MOL0     C66059   9.633   1.043  -0.134  0.2179  0.0643 -0.4414
  490MOL0    Cl66060   9.732   1.152  -0.236 -0.3513  0.5806 -0.0479
  490MOL0     C66061   8.599   0.842   0.511  0.4578  0.5220  0.3516
  490MOL0     C66062   8.479   0.886   0.579 -0.3377 -0.6484  0.1654
  490MOL0     O66063   8.192   1.082   0.411 -0.6584  0.1462 -0.0682
  490MOL0     C66064   7.970   1.103   0.608 -0.6924 -0.0287 -0.5581
  490MOL0     C66065   7.861   1.180   0.664 -0.4560  0.0071 -0.3091
  490MOL0     N66066   7.212   1.402   0.723  0.4097  0.6475 -0.3172
  490MOL0     N66067   7.102   1.404   0.793 -1.2149 -0.1336 -0.8187
  490MOL0     C66068   5.930   0.673   0.651 -0.5234 -0.2047  0.4954
  490MOL0     C66069   5.837   0.618   0.555 -0.1472  0.4626 -0.6371
  490MOL0     C66070   5.505   0.545   0.258  0.8181  0.3048 -0.1694
  490MOL0     C66071   5.407   0.645   0.258 -0.1715  0.4186 -0.6656
  490MOL0     C66072   5.294   0.656   0.172  0.7160 -0.1731  0.4914
  490MOL0     C66073   5.274   0.550   0.082 -0.0995  0.5649 -0.1728
  490MOL0     O66074   5.163   0.538  -0.000 -0.2873  0.2060  0.2007
  490MOL0     C66075   5.080   0.658  -0.036 -0.9307 -0.8345 -0.1727
  490MOL0     C66076   4.995   0.628  -0.169 -0.2176 -1.3930 -0.0857
  490MOL0     C66077   4.874   0.540  -0.132  0.2213 -0.0362 -0.3066
  490MOL0     C66078   4.816   0.473  -0.260  0.2841 -0.8196  0.3706
  490MOL0     C66079   4.671   0.474  -0.263  0.1205 -0.0575  0.3961
  490MOL0     C66080   4.553   0.489  -0.249  0.7231 -0.5255  0.1891
  490MOL0     C66081   5.369   0.443   0.086 -0.0818 -0.2093  0.1991
  490MOL0     C66082   5.482   0.438   0.175 -0.0948  0.1349  0.4167
  490MOL0     H66083   5.696   0.922   0.470 -1.4422 -0.8089  0.1415
  490MOL0     H66084   5.862   1.008   0.609  1.1761  0.6285  1.9871
  490MOL0     H66085   6.082   1.007   0.641 -0.5804 -2.2639 -1.3372
  490MOL0     H66086   6.040   1.056   0.809 -0.6184  1.6399 -2.5148
  490MOL0     H66087   6.248   0.899   0.874  3.4631 -0.4573  0.8159
  490MOL0     H66088   6.283   0.888   0.705  2.1168  1.3238  1.1042
  490MOL0     H66089   6.332   1.136   0.681  3.0458 -1.0502  0.1331
  490MOL0     H66090   6.291   1.153   0.853  1.5728  3.1978 -1.8854
  490MOL0     H66091   6.474   1.016   0.916 -1.1979 -0.0739  0.4076
  490MOL0     H66092   6.493   0.960   0.744  0.6085  1.2729 -2.6004
  490MOL0     H66093   6.546   1.199   0.685  2.6048 -1.1324  0.0551
  490MOL0     H66094   6.530   1.251   0.852  3.6737  1.2313  1.1366
  490MOL0     H66095   6.716   1.103   0.923 -0.2312 -3.3577 -0.0594
  490MOL0     H66096   6.723   1.023   0.770  1.8574  0.5571 -0.5469
  490MOL0     H66097   6.844   1.196   0.677 -0.4304 -2.7881  1.2044
  490MOL0     H66098   6.761   1.322   0.772 -1.3995 -0.7201  0.2444
  490MOL0     H66099   6.951   1.135   0.915  2.1955  1.7241  1.6200
  490MOL0     H66100   6.927   1.296   0.955 -2.0609 -0.9499  1.7256
  490MOL0     H66101   7.153   1.081   0.730  0.9229  0.1513 -0.2791
  490MOL0     H66102   7.344   1.173   0.556  1.1314 -1.0377  1.1294
  490MOL0     H66103   7.358   1.352   0.544 -1.1176 -1.6219 -1.7011
  490MOL0     H66104   7.563   1.246   0.580  1.4440  0.0453  1.0010
  490MOL0     H66105   7.492   1.157   0.718  1.9361 -0.8140 -2.4590
  490MOL0     H66106   7.461   1.401   0.823 -1.1167  0.1519 -1.1594
  490MOL0     H66107   7.580   1.449   0.703  0.3463  1.2470 -0.0201
  490MOL0     H66108   7.677   1.207   0.853 -0.8683  0.4530  1.4267
  490MOL0     H66109   7.657   1.343   0.959 -0.1688  0.9648 -0.2391
  490MOL0     H66110   8.038   1.461   0.758 -0.5525  0.3217  0.5591
  490MOL0     H66111   8.282   1.392   0.724  0.0363 -0.6126 -0.0424
  490MOL0     H66112   8.315   1.330   0.546 -0.1955 -1.5262  0.8457
  490MOL0     H66113   8.225   1.472   0.576 -1.1792 -1.7694 -1.7740
  490MOL0     H66114   8.453   1.181   0.416  1.1148  1.0305  2.0749
  490MOL0     H66115   8.662   1.116   0.327  3.1374 -1.6396  0.1007
  490MOL0     H66116   8.795   0.935   0.172 -2.6563  1.4611  1.8329
  490MOL0     H66117   8.867   1.060   0.280  1.9103 -0.0899  0.2032
  490MOL0     H66118   9.040   0.868   0.340  1.5984  1.8484 -0.8975
  490MOL0     H66119   8.984   0.797   0.184  0.8288 -2.0980  3.1859
  490MOL0     H66120   9.115   1.065   0.219  0.7074 -0.5872  0.1575
  490MOL0     H66121   9.025   1.029   0.074 -0.4063  1.0020 -0.0634
  490MOL0     H66122   9.244   0.870   0.193 -2.5487 -0.0846  0.9952
  490MOL0     H66123   9.176   0.823   0.042 -0.5869 -0.8154  0.3338
  490MOL0     H66124   9.324   1.085   0.119 -0.2943 -1.3908  1.0041
  490MOL0     H66125   9.236   1.081  -0.028 -0.3174 -1.8971 -0.0151
  490MOL0     H66126   9.484   0.930   0.041 -0.4129  3.1666  1.7096
  490MOL0     H66127   9.395   0.888  -0.107 -3.0850  0.9271 -0.0528
  490MOL0     H66128   9.460   1.159  -0.039 -2.4677 -1.9754  1.6716
  490MOL0     H66129   9.432   1.108  -0.205 -3.1898  2.3501  1.6461
  490MOL0     H66130   9.626   0.949  -0.189 -1.3937 -2.0413  3.0666
  490MOL0     H66131   9.683   1.032  -0.038 -0.3175 -0.7519 -0.2515
  490MOL0     H66132   8.641   0.745   0.536 -0.5276  0.9873  4.4452
  490MOL0     H66133   8.428   0.812   0.641 -0.8916 -3.5190 -3.3584
  490MOL0     H66134   7.949   1.009   0.559 -1.8218  0.7210 -1.5743
  490MOL0     H66135   7.758   1.144   0.669 -1.0596  1.3435 -2.0942
  490MOL0     H66136   5.989   0.617   0.723  2.6417  0.2231 -1.5812
  490MOL0     H66137   5.832   0.511   0.540 -2.0234  0.4806 -0.3107
  490MOL0     H66138   5.421   0.731   0.323 -0.5842  1.3625 -1.8100
  490MOL0     H66139   5.217   0.733   0.166 -0.2731 -1.2276 -1.2221
  490MOL0     H66140   5.018   0.675   0.053  2.0970 -1.9234  2.2935
  490MOL0     H66141   5.140   0.748  -0.051 -0.1093 -1.4388 -0.5678
  490MOL0     H66142   5.057   0.578  -0.244 -1.5617 -3.8576  0.3498
  490MOL0     H66143   4.948   0.716  -0.212 -0.8876 -1.6088  0.1982
  490MOL0     H66144   4.803   0.602  -0.076 -2.4329 -1.8097 -1.5001
  490MOL0     H66145   4.906   0.460  -0.065  2.9276 -1.3411 -2.9051
  490MOL0     H66146   4.843   0.367  -0.271 -0.1702 -0.7988 -1.2274
  490MOL0     H66147   4.853   0.523  -0.350 -1.8660 -0.4274 -0.3531
  490MOL0     H66148   4.446   0.489  -0.243  0.7795 -1.4775  1.4242
  490MOL0     H66149   5.354   0.354   0.025  1.0146 -0.2778  0.0098
  490MOL0     H66150   5.555   0.359   0.189  1.4676  1.5499  0.5224
  491MOL0     O66151   5.866   0.304   5.599 -0.0019  0.2448  0.5237
  491MOL0     C66152   5.855   0.294   5.718  0.4832 -0.3165 -0.4007
  491MOL0     O66153   5.737   0.276   5.789 -0.2774  0.1639 -0.2673
  491MOL0     C66154   5.612   0.287   5.735  0.1124 -0.6637 -0.1504
  491MOL0     C66155   5.573   0.348   5.625 -0.1920 -0.1454  0.1238
  491MOL0     C66156   5.439   0.352   5.580 -0.7486  0.1528  0.1759
  491MOL0     C66157   5.337   0.309   5.661  0.1457  0.6963 -1.1279
  491MOL0     O66158   5.214   0.337   5.623  0.1014 -0.1034 -0.0823
  491MOL0     C66159   5.139   0.429   5.695 -0.3955 -0.6472 -0.1953
  491MOL0     C66160   5.011   0.457   5.622  0.3616 -0.5781 -0.8284
  491MOL0     C66161   4.898   0.360   5.664  0.1751 -0.2461 -1.0729
  491MOL0     C66162   4.831   0.410   5.789 -0.3352  0.8160 -0.3406
  491MOL0     C66163   4.718   0.327   5.839 -0.8954 -0.1413  0.1825
  491MOL0     C66164   4.780   0.212   5.916  0.9103 -0.5541  0.5061
  491MOL0     C66165   4.672   0.164   6.014  0.3516 -0.5283  0.2933
  491MOL0     C66166   4.657   0.241   6.149 -0.2347 -0.1874 -0.6604
  491MOL0     N66167   4.545   0.198   6.229  0.0603  0.6187 -0.8816
  491MOL0     C66168   4.555   0.103   6.323  0.0373  0.3458 -0.3268
  491MOL0     C66169   4.425   0.109   6.385 -0.4340  0.7251  0.1436
  491MOL0     C66170   4.365   0.038   6.506 -0.9246  0.2181  0.3269
  491MOL0     C66171   4.389  -0.108   6.491 -0.4627  0.7413 -0.1780
  491MOL0     C66172   4.363  -0.172   6.620  0.8601 -0.0931  0.0113
  491MOL0     C66173   4.386  -0.325   6.615 -0.1591  0.4447  0.1115
  491MOL0     O66174   4.307  -0.392   6.516  0.0522 -0.2341 -0.5214
  491MOL0     C66175   4.174  -0.419   6.532 -1.4428 -0.0336  0.2116
  491MOL0     C66176   4.110  -0.493   6.429  0.9118  0.1538  0.6480
  491MOL0     C66177   3.977  -0.537   6.437  1.2945 -0.7211  0.7541
  491MOL0     C66178   3.915  -0.623   6.326 -0.9182 -0.1282 -1.0779
  491MOL0     C66179   3.902  -0.482   6.543 -0.4490 -0.5030  0.5171
  491MOL0     C66180   3.759  -0.506   6.561  0.2432  0.2400 -0.3246
  491MOL0     O66181   3.684  -0.517   6.448  0.7239  0.1207 -0.0429
  491MOL0     C66182   3.548  -0.566   6.444 -1.1692 -0.3895  0.9280
  491MOL0     C66183   3.523  -0.651   6.335  0.4096  0.1839  0.4091
  491MOL0     C66184   3.399  -0.706   6.320  0.7726  0.8268 -1.1879
  491MOL0     C66185   3.299  -0.680   6.418 -0.1877  0.2245  0.2488
  491MOL0     O66186   3.181  -0.757   6.408  0.1981  0.1623 -0.1711
  491MOL0     C66187   3.063  -0.708   6.466 -0.1320 -0.1206  0.2687
  491MOL0     C66188   2.946  -0.760   6.374 -0.3658 -0.2576  0.3352
  491MOL0     C66189   2.907  -0.659   6.259 -0.0489 -0.1507 -0.3488
  491MOL0     C66190   2.808  -0.694   6.150  0.8577 -0.4431  0.5032
  491MOL0     C66191   2.662  -0.709   6.204  0.8585 -0.0715  0.0397
  491MOL0     C66192   2.567  -0.711   6.089  0.1320 -0.4476  0.0405
  491MOL0     C66193   2.427  -0.718   6.142 -0.5398 -0.4589  1.0044
  491MOL0     C66194   2.336  -0.773   6.037 -0.5339  0.6205  0.5209
  491MOL0    Cl66195   2.166  -0.719   6.066 -0.2256  0.6209 -0.3306
  491MOL0     C66196   3.322  -0.595   6.522  0.5397  0.0495 -0.8161
  491MOL0     C66197   3.444  -0.537   6.534 -0.1583  0.1968 -0.2509
  491MOL0     O66198   3.724  -0.522   6.678  0.8428 -0.2275  0.5328
  491MOL0     C66199   3.964  -0.410   6.643  0.0336 -0.1315 -0.1132
  491MOL0     C66200   4.106  -0.385   6.647 -0.8769 -0.1387 -0.2671
  491MOL0     N66201   4.348   0.189   6.305  0.1761 -0.0020  0.0701
  491MOL0     N66202   4.414   0.238   6.205 -0.4267  0.2834  0.2945
  491MOL0     C66203   5.376   0.256   5.791  0.2236  0.4872  0.7699
  491MOL0     C66204   5.515   0.234   5.815  0.0438  0.2130  0.0069
  491MOL0     C66205   5.985   0.292   5.795  1.6889 -0.1550 -0.9027
  491MOL0     C66206   5.980   0.262   5.937  0.3883 -0.4802 -0.1278
  491MOL0     C66207   6.096   0.227   6.008  0.6277  0.2648  0.5885
  491MOL0     C66208   6.214   0.229   5.945 -0.7634  1.3651  0.5902
  491MOL0     O66209   6.340   0.191   5.993  0.0375  0.3341  0.1050
  491MOL0     C66210   6.354   0.146   6.129  0.0317  1.0157 -0.3234
  491MOL0     C66211   6.464   0.036   6.144  0.5714 -0.2621  0.2671
  491MOL0     C66212   6.462   0.007   6.293 -0.2084  0.7966  0.0553
  491MOL0     C66213   6.596   0.062   6.364  0.1057  0.1285  0.1774
  491MOL0     C66214   6.578   0.204   6.393 -0.3256  0.5258  0.5084
  491MOL0     C66215   6.573   0.324   6.428  0.1151  0.7992 -0.3066
  491MOL0     C66216   6.224   0.280   5.815  0.0243 -0.0504  1.0787
  491MOL0     C66217   6.109   0.304   5.737  0.3900  0.3674  0.1156
  491MOL0     H66218   5.651   0.392   5.563  0.1802  2.0183  1.9698
  491MOL0     H66219   5.403   0.409   5.495  3.8713  2.2103 -0.7250
  491MOL0     H66220   5.120   0.393   5.797 -1.3511 -0.7352 -0.3944
  491MOL0     H66221   5.199   0.519   5.703  1.6423 -1.8239 -1.5415
  491MOL0     H66222   4.987   0.563   5.629  0.5968 -0.3448 -2.9488
  491MOL0     H66223   5.034   0.436   5.517  2.6282 -1.5153 -0.2088
  491MOL0     H66224   4.827   0.349   5.582  2.0255 -2.2033 -2.4973
  491MOL0     H66225   4.943   0.262   5.678  0.1717  0.0071  1.1998
  491MOL0     H66226   4.911   0.433   5.860 -0.3916  2.9337 -0.8939
  491MOL0     H66227   4.790   0.510   5.769 -1.4472  0.5863  0.6577
  491MOL0     H66228   4.660   0.389   5.907 -0.7228 -0.0647  0.2628
  491MOL0     H66229   4.645   0.290   5.767  0.3009  1.4803 -1.9879
  491MOL0     H66230   4.808   0.128   5.851  0.9706  0.7720 -1.2836
  491MOL0     H66231   4.874   0.245   5.961 -0.4625  4.2995  0.3390
  491MOL0     H66232   4.577   0.167   5.959 -0.0700  0.4162  1.0353
  491MOL0     H66233   4.683   0.060   6.047  1.2843 -1.3237 -2.2990
  491MOL0     H66234   4.653   0.348   6.127 -0.9716 -0.5847 -2.6462
  491MOL0     H66235   4.749   0.227   6.206 -1.8928  1.0544  2.5356
  491MOL0     H66236   4.640   0.056   6.371  0.8138  1.8342 -0.2030
  491MOL0     H66237   4.419   0.081   6.591  0.1284 -0.4826  0.0322
  491MOL0     H66238   4.260   0.059   6.527 -1.1483 -1.8791  1.5550
  491MOL0     H66239   4.494  -0.135   6.477 -0.7091 -1.8050  2.0455
  491MOL0     H66240   4.325  -0.141   6.408 -0.5799  4.4739 -1.7916
  491MOL0     H66241   4.259  -0.151   6.644 -0.3104 -4.3436 -0.4559
  491MOL0     H66242   4.433  -0.138   6.697  1.2244  1.6599 -1.0373
  491MOL0     H66243   4.351  -0.369   6.709  0.6267 -1.7510 -0.5667
  491MOL0     H66244   4.487  -0.364   6.597 -1.0591 -1.5110 -1.0301
  491MOL0     H66245   4.170  -0.532   6.348  1.7048 -2.5369  2.3983
  491MOL0     H66246   4.001  -0.653   6.264 -1.6862 -1.4202 -1.5657
  491MOL0     H66247   3.856  -0.709   6.359 -2.6919  1.6080  0.5277
  491MOL0     H66248   3.858  -0.549   6.268 -1.3232  0.5874  0.2009
  491MOL0     H66249   3.595  -0.669   6.256 -1.3357  0.2268 -1.2436
  491MOL0     H66250   3.362  -0.776   6.245  1.6842 -0.0504 -0.8438
  491MOL0     H66251   3.064  -0.747   6.568  2.8004 -0.3491  0.2198
  491MOL0     H66252   3.056  -0.599   6.472  1.5830  0.1096 -1.0524
  491MOL0     H66253   2.977  -0.858   6.339 -1.7700 -0.4262 -0.5141
  491MOL0     H66254   2.854  -0.779   6.430 -0.9041 -0.3378 -0.5622
  491MOL0     H66255   2.999  -0.637   6.205 -0.1487  2.6372  0.4906
  491MOL0     H66256   2.877  -0.565   6.306  1.8247  1.3993 -2.1135
  491MOL0     H66257   2.807  -0.609   6.081 -1.0673 -0.6820  0.1677
  491MOL0     H66258   2.831  -0.784   6.092 -0.8452 -0.3365 -0.3995
  491MOL0     H66259   2.635  -0.633   6.278 -0.6777  0.9613 -1.5426
  491MOL0     H66260   2.666  -0.811   6.244  3.0402 -0.8439 -1.8924
  491MOL0     H66261   2.579  -0.622   6.027 -2.4558 -0.5035 -0.6439
  491MOL0     H66262   2.589  -0.799   6.028  3.2640  2.2406 -3.1963
  491MOL0     H66263   2.388  -0.623   6.180 -3.2725 -2.0161  2.3604
  491MOL0     H66264   2.425  -0.788   6.226  0.4948  1.7960  3.0254
  491MOL0     H66265   2.351  -0.880   6.020  0.0338  0.3505  2.5212
  491MOL0     H66266   2.367  -0.740   5.937 -0.7075 -1.1444 -0.1523
  491MOL0     H66267   3.240  -0.575   6.591  2.0260  1.6390  0.5777
  491MOL0     H66268   3.466  -0.468   6.615 -1.9002 -0.2904  0.6790
  491MOL0     H66269   3.900  -0.359   6.714  2.2117  0.6819  1.4028
  491MOL0     H66270   4.145  -0.344   6.740 -1.1676  0.4889 -0.4182
  491MOL0     H66271   5.310   0.240   5.875 -3.4625  0.7910 -1.7896
  491MOL0     H66272   5.552   0.178   5.900 -0.8061  2.9310  2.3587
  491MOL0     H66273   5.885   0.248   5.988  2.1706 -4.3732  2.5977
  491MOL0     H66274   6.094   0.198   6.113  0.0003  3.0763  1.4295
  491MOL0     H66275   6.379   0.242   6.175  0.6944  0.1711  1.1165
  491MOL0     H66276   6.263   0.108   6.175  1.3925  0.7436  2.3305
  491MOL0     H66277   6.564   0.064   6.109 -0.2295  2.4468 -0.0817
  491MOL0     H66278   6.437  -0.053   6.088  1.0992  0.7261 -1.6544
  491MOL0     H66279   6.463  -0.103   6.299  1.0206  0.6824 -1.7640
  491MOL0     H66280   6.375   0.044   6.348  0.8663  3.0737  0.3139
  491MOL0     H66281   6.693   0.048   6.316  1.5182  2.1708  2.2295
  491MOL0     H66282   6.600   0.004   6.456  1.6748 -1.5380 -0.8868
  491MOL0     H66283   6.580   0.423   6.470  2.8764  1.9741 -3.1245
  491MOL0     H66284   6.320   0.284   5.765  0.3646 -1.2934  1.5962
  491MOL0     H66285   6.113   0.323   5.630 -1.7391 -2.4519 -0.5919
  492MOL0     O66286   7.691   1.269   3.992 -0.7809  0.5990  0.8892
  492MOL0     C66287   7.705   1.286   4.108 -0.1855 -0.2075 -0.7545
  492MOL0     O66288   7.618   1.245   4.211  0.0521 -0.7431 -0.2552
  492MOL0     C66289   7.498   1.203   4.155  0.3350  0.4023 -0.7301
  492MOL0     C66290   7.475   1.070   4.120 -0.2566  0.3728 -0.6962
  492MOL0     C66291   7.357   1.022   4.070 -0.6669 -0.5401 -0.4119
  492MOL0     C66292   7.246   1.112   4.060  1.0579  1.5153 -0.5738
  492MOL0     O66293   7.126   1.082   4.008 -0.4189 -0.0944  0.6313
  492MOL0     C66294   7.103   0.946   3.965  0.1450 -0.1383  0.2269
  492MOL0     C66295   6.957   0.932   3.921 -0.0631 -0.4249 -0.0982
  492MOL0     C66296   6.933   0.797   3.858 -0.5457 -0.4613 -0.7902
  492MOL0     C66297   6.791   0.774   3.808  0.8981 -0.5408 -0.2917
  492MOL0     C66298   6.789   0.655   3.715 -0.1030 -0.1370  0.1568
  492MOL0     C66299   6.656   0.572   3.717 -0.1769 -0.5951 -0.1400
  492MOL0     C66300   6.694   0.430   3.685  0.8664  0.5274 -0.2618
  492MOL0     C66301   6.570   0.336   3.657  0.1282  0.2111  0.0136
  492MOL0     N66302   6.473   0.355   3.764  0.4454 -0.0579 -0.4957
  492MOL0     C66303   6.350   0.426   3.760 -0.2588 -0.6579  0.2568
  492MOL0     C66304   6.298   0.416   3.887  0.6855  0.4687 -0.7696
  492MOL0     C66305   6.164   0.479   3.924 -0.1092 -0.3769  0.6606
  492MOL0     C66306   6.106   0.414   4.052 -0.5757  0.9953  0.0919
  492MOL0     C66307   6.060   0.264   4.033 -0.4938  0.2694 -0.4517
  492MOL0     C66308   6.011   0.206   4.160  0.5437  0.6462 -0.5644
  492MOL0     O66309   5.930   0.300   4.231  0.0800  0.6186  1.0716
  492MOL0     C66310   5.801   0.268   4.248  1.0661 -0.1049 -0.0038
  492MOL0     C66311   5.722   0.260   4.136 -0.1329  0.5696 -1.0576
  492MOL0     C66312   5.588   0.224   4.147  0.3005 -0.0580 -0.2905
  492MOL0     C66313   5.519   0.214   4.012  0.0621  0.2135  0.2002
  492MOL0     C66314   5.533   0.200   4.270 -0.2232 -0.3749 -1.5217
  492MOL0     C66315   5.392   0.163   4.293 -0.2022  0.0036  0.5177
  492MOL0     O66316   5.363   0.099   4.407 -0.4596 -0.2886  0.0767
  492MOL0     C66317   5.247   0.063   4.456 -0.1537 -0.1166  0.2880
  492MOL0     C66318   5.257  -0.033   4.557  0.3401 -0.4962 -0.9806
  492MOL0     C66319   5.133  -0.081   4.604  0.0343 -0.5758 -0.4855
  492MOL0     C66320   5.006  -0.034   4.567 -0.2352 -0.5729  0.4423
  492MOL0     O66321   4.893  -0.104   4.608  0.2932  0.1814 -0.2493
  492MOL0     C66322   4.767  -0.099   4.540  0.2452  0.9908  0.4428
  492MOL0     C66323   4.669   0.006   4.596 -0.8253 -0.2524 -0.3042
  492MOL0     C66324   4.538   0.000   4.515  0.7893  0.6817  0.3260
  492MOL0     C66325   4.426   0.085   4.573 -0.2781  0.2380 -0.4032
  492MOL0     C66326   4.292   0.011   4.550  0.8015 -0.0640 -0.7922
  492MOL0     C66327   4.172   0.086   4.618  0.0501  0.8148 -0.4714
  492MOL0     C66328   4.038   0.013   4.640 -1.3319 -0.1204  0.3850
  492MOL0     C66329   3.935   0.097   4.721 -0.0753 -0.0955  0.5382
  492MOL0    Cl66330   3.992   0.143   4.883 -0.1582  0.0394 -0.3541
  492MOL0     C66331   5.000   0.077   4.485  0.3357  0.0377  0.1447
  492MOL0     C66332   5.123   0.126   4.434 -0.9760 -0.8290 -0.3284
  492MOL0     O66333   5.307   0.215   4.216  0.1013  0.3063  0.2862
  492MOL0     C66334   5.621   0.202   4.387  0.9136 -1.2410  0.5202
  492MOL0     C66335   5.752   0.240   4.375  0.0753 -0.5821  0.2150
  492MOL0     N66336   6.386   0.344   3.969 -0.2656 -0.6212  0.8830
  492MOL0     N66337   6.487   0.317   3.891 -0.3312 -0.3209 -0.2844
  492MOL0     C66338   7.270   1.239   4.092  0.6656  0.1239  0.3033
  492MOL0     C66339   7.385   1.282   4.146 -0.7854 -0.2808 -0.8474
  492MOL0     C66340   7.838   1.338   4.137  0.1819  0.6131  0.3575
  492MOL0     C66341   7.908   1.425   4.049  0.0482 -0.2112 -0.7105
  492MOL0     C66342   8.042   1.450   4.073 -0.5003 -0.4277  1.0460
  492MOL0     C66343   8.112   1.405   4.184  0.3808 -0.5700 -0.2693
  492MOL0     O66344   8.235   1.457   4.215  0.1917  0.3655 -0.2712
  492MOL0     C66345   8.291   1.437   4.346 -0.4165 -0.5214 -0.4601
  492MOL0     C66346   8.426   1.502   4.362  0.6920 -0.8763  0.6996
  492MOL0     C66347   8.547   1.430   4.306  0.2120 -0.1102  0.0458
  492MOL0     C66348   8.669   1.472   4.386 -0.3105 -0.6904  0.5288
  492MOL0     C66349   8.789   1.410   4.338 -0.1536 -0.5244  0.2411
  492MOL0     C66350   8.888   1.354   4.298  0.8730 -0.0247  0.9957
  492MOL0     C66351   8.041   1.316   4.274 -0.7345 -0.2176  0.3923
  492MOL0     C66352   7.907   1.288   4.248 -0.8937 -0.7000  0.1178
  492MOL0     H66353   7.561   1.003   4.121 -0.1389  0.4859 -1.7471
  492MOL0     H66354   7.358   0.914   4.056  1.1373 -0.9009  1.8515
  492MOL0     H66355   7.168   0.927   3.879  1.7447  0.5134  1.2474
  492MOL0     H66356   7.117   0.872   4.045 -3.3672 -3.0022 -1.4782
  492MOL0     H66357   6.899   0.939   4.014  1.6248  1.6916  0.8797
  492MOL0     H66358   6.929   1.012   3.853  1.2457  0.6295  0.5498
  492MOL0     H66359   7.012   0.772   3.785 -0.0137 -1.5892  0.1294
  492MOL0     H66360   6.957   0.721   3.933  0.1385 -1.3842 -1.9139
  492MOL0     H66361   6.729   0.755   3.896 -0.6717  0.1922 -1.1811
  492MOL0     H66362   6.752   0.864   3.759 -0.7776  0.1449  2.1158
  492MOL0     H66363   6.816   0.680   3.612  0.9549 -0.2205  0.3966
  492MOL0     H66364   6.862   0.580   3.749 -0.1835 -0.1142  0.3878
  492MOL0     H66365   6.612   0.582   3.817 -1.9952  1.3937 -1.0763
  492MOL0     H66366   6.583   0.602   3.642 -1.1249 -0.1239  0.9362
  492MOL0     H66367   6.761   0.427   3.599  1.8089 -0.2473  0.4886
  492MOL0     H66368   6.745   0.380   3.768  0.3354  2.9776  1.6695
  492MOL0     H66369   6.590   0.229   3.651  0.5522  0.3243 -0.9150
  492MOL0     H66370   6.537   0.355   3.554  0.9324 -1.0700 -0.5027
  492MOL0     H66371   6.303   0.478   3.677  1.5098  0.1476 -0.2802
  492MOL0     H66372   6.186   0.583   3.947 -1.2262 -0.7361  3.8746
  492MOL0     H66373   6.096   0.467   3.839 -0.9289 -0.7551  1.3556
  492MOL0     H66374   6.016   0.469   4.081 -0.7673  0.1548  1.1270
  492MOL0     H66375   6.180   0.416   4.131 -1.9218  0.0120  1.4404
  492MOL0     H66376   6.145   0.203   3.999  0.1524  0.3333  1.0005
  492MOL0     H66377   5.976   0.248   3.964 -0.9388  0.3698  0.0647
  492MOL0     H66378   6.090   0.167   4.226 -1.4842 -1.9625  0.5179
  492MOL0     H66379   5.962   0.111   4.134  1.2901 -0.3349  1.3873
  492MOL0     H66380   5.778   0.276   4.045 -0.0918 -0.3335 -1.1988
  492MOL0     H66381   5.455   0.127   4.000 -0.5468  0.6571  0.1658
  492MOL0     H66382   5.458   0.304   4.000  1.0436  0.6803 -1.6158
  492MOL0     H66383   5.586   0.204   3.927 -2.3428 -2.4743 -1.5556
  492MOL0     H66384   5.348  -0.086   4.583  0.4871  0.0213 -0.4426
  492MOL0     H66385   5.120  -0.152   4.686 -2.1739  1.1547  0.7905
  492MOL0     H66386   4.776  -0.101   4.431  1.2924 -2.2106  0.4867
  492MOL0     H66387   4.716  -0.193   4.566  0.3260  1.0333  0.7574
  492MOL0     H66388   4.652  -0.020   4.701  1.3868 -0.9003 -0.0530
  492MOL0     H66389   4.717   0.104   4.584 -1.3125  0.2768  1.7680
  492MOL0     H66390   4.492  -0.098   4.499 -2.1969  1.6331  2.1061
  492MOL0     H66391   4.553   0.039   4.414 -0.4265 -0.1229 -0.1878
  492MOL0     H66392   4.449   0.100   4.679 -1.7082  1.3823 -0.2188
  492MOL0     H66393   4.429   0.184   4.527  3.5409 -0.0823 -1.1588
  492MOL0     H66394   4.299  -0.080   4.610  2.8146  1.1860  1.0210
  492MOL0     H66395   4.276  -0.003   4.442  2.8447  2.2175 -1.4882
  492MOL0     H66396   4.214   0.107   4.717  2.7184 -3.2317 -0.5283
  492MOL0     H66397   4.157   0.186   4.577 -0.4392  1.2280  0.6668
  492MOL0     H66398   4.056  -0.077   4.699 -0.3074  0.0533  0.3487
  492MOL0     H66399   3.998  -0.008   4.540 -0.9683  0.0824  0.1942
  492MOL0     H66400   3.846   0.039   4.747 -0.8244  1.0665  0.6758
  492MOL0     H66401   3.898   0.183   4.664 -0.6150 -0.6512  0.0303
  492MOL0     H66402   4.909   0.131   4.463  0.7968  0.8904  0.3001
  492MOL0     H66403   5.118   0.219   4.378 -0.8000  0.6110  1.9066
  492MOL0     H66404   5.586   0.170   4.485  0.8289  1.8428  1.5905
  492MOL0     H66405   5.823   0.241   4.458 -0.6019 -1.1994  0.8117
  492MOL0     H66406   7.190   1.312   4.095  0.0535 -0.5577  2.1852
  492MOL0     H66407   7.390   1.385   4.180 -1.2418 -0.7542  0.7321
  492MOL0     H66408   7.868   1.462   3.955 -1.7793 -0.4209 -0.0393
  492MOL0     H66409   8.099   1.522   4.015  0.7763 -1.3704  1.0707
  492MOL0     H66410   8.212   1.479   4.410  0.4916  1.6526 -0.6710
  492MOL0     H66411   8.297   1.329   4.359 -2.5287 -0.3691  3.6593
  492MOL0     H66412   8.444   1.517   4.469 -0.1326 -0.2319  0.7615
  492MOL0     H66413   8.414   1.595   4.307 -1.3963 -2.4266 -1.6899
  492MOL0     H66414   8.548   1.470   4.205  0.2954  3.4276  1.3244
  492MOL0     H66415   8.535   1.321   4.302 -0.6953 -0.1847  2.7675
  492MOL0     H66416   8.659   1.439   4.490  0.5436  0.8726  1.1567
  492MOL0     H66417   8.686   1.580   4.384 -1.7268 -0.4548 -1.3030
  492MOL0     H66418   8.974   1.301   4.264  1.1107  1.3510 -0.6593
  492MOL0     H66419   8.082   1.270   4.363  1.5842 -0.3542 -0.6818
  492MOL0     H66420   7.845   1.232   4.317 -1.7549  1.3497  1.1066
  493MOL0     O66421  10.385  10.379   0.025 -0.2013  0.5486  0.7121
  493MOL0     C66422  10.396  10.258   0.022 -0.9453  0.9313  0.5293
  493MOL0     O66423  10.293  10.175   0.026  0.9064  0.0954 -0.0025
  493MOL0     C66424  10.181  10.201  -0.052  0.1427 -0.2472  0.1136
  493MOL0     C66425  10.205  10.246  -0.185  0.0978  0.5497  0.7615
  493MOL0     C66426  10.097  10.256  -0.277 -0.2249 -0.1761 -0.6007
  493MOL0     C66427   9.966  10.227  -0.236  0.9974  0.0387 -0.9856
  493MOL0     O66428   9.851  10.218  -0.310  0.5965 -0.1568 -0.2329
  493MOL0     C66429   9.853  10.145  -0.433  0.6917 -0.1377  0.5005
  493MOL0     C66430   9.725  10.168  -0.514  0.1842  0.7306  0.4724
  493MOL0     C66431   9.606  10.137  -0.427 -0.4081 -1.7581 -0.7813
  493MOL0     C66432   9.501  10.246  -0.419  0.4413 -0.7286 -0.0366
  493MOL0     C66433   9.388  10.202  -0.324 -0.4981  0.1140  0.1518
  493MOL0     C66434   9.296  10.309  -0.300  0.3478 -0.4433 -0.1986
  493MOL0     C66435   9.163  10.255  -0.242 -0.5620  0.3150  0.1510
  493MOL0     C66436   9.061  10.275  -0.357 -0.3081 -0.2439 -0.6046
  493MOL0     N66437   8.922  10.218  -0.335  0.5562 -0.7190  0.2907
  493MOL0     C66438   8.887  10.098  -0.276 -0.2412 -0.3745 -0.4452
  493MOL0     C66439   8.765  10.119  -0.244 -0.3708  0.4935 -0.2497
  493MOL0     C66440   8.687  10.025  -0.164  0.5573  0.0907 -0.0942
  493MOL0     C66441   8.587   9.941  -0.247  0.0713 -0.3149 -0.2022
  493MOL0     C66442   8.631   9.822  -0.336 -0.1220 -0.5798 -0.2164
  493MOL0     C66443   8.519   9.750  -0.399  0.0888 -0.4316  0.3269
  493MOL0     O66444   8.480   9.830  -0.511 -0.9939  0.6607 -0.0235
  493MOL0     C66445   8.387   9.776  -0.595 -0.1566 -0.6517 -0.3073
  493MOL0     C66446   8.272   9.849  -0.632 -0.6335  0.5567  0.2171
  493MOL0     C66447   8.173   9.805  -0.726 -0.0145 -0.2130  1.0280
  493MOL0     C66448   8.048   9.885  -0.749 -0.0620 -0.2101  0.0588
  493MOL0     C66449   8.190   9.679  -0.780  0.8992 -0.5738  0.1507
  493MOL0     C66450   8.089   9.620  -0.861  0.0525  0.7431  0.2164
  493MOL0     O66451   8.142   9.542  -0.962 -0.0466 -0.0756  0.2704
  493MOL0     C66452   8.062   9.480  -1.054 -0.4234  0.1639 -0.8097
  493MOL0     C66453   7.976   9.565  -1.130 -0.0943  0.4884  0.6606
  493MOL0     C66454   7.895   9.485  -1.212  0.9601 -1.1239  0.1496
  493MOL0     C66455   7.889   9.345  -1.222  0.1255  0.3743 -0.5739
  493MOL0     O66456   7.800   9.272  -1.300  0.7541  0.2781 -0.3672
  493MOL0     C66457   7.770   9.310  -1.429  0.1445  0.0602  0.3496
  493MOL0     C66458   7.678   9.198  -1.483 -0.1390  0.2543 -0.3804
  493MOL0     C66459   7.532   9.178  -1.417 -0.8395  0.3606  0.3703
  493MOL0     C66460   7.533   9.153  -1.262 -0.4200 -0.4379  0.4248
  493MOL0     C66461   7.410   9.106  -1.190 -0.1811 -0.4189  0.0110
  493MOL0     C66462   7.300   9.209  -1.214 -0.1428 -0.7675 -0.4389
  493MOL0     C66463   7.167   9.170  -1.173  0.1780  0.1942 -0.1222
  493MOL0     C66464   7.048   9.262  -1.215  1.0827 -0.1410  0.2714
  493MOL0    Cl66465   7.029   9.265  -1.408 -0.3328 -0.6084  0.2301
  493MOL0     C66466   7.976   9.273  -1.148  0.7727  1.4337 -0.6141
  493MOL0     C66467   8.064   9.341  -1.059 -0.5715  0.5594  0.3992
  493MOL0     O66468   7.970   9.635  -0.831  0.1989  0.2513  0.1079
  493MOL0     C66469   8.310   9.611  -0.749  1.2332 -0.0787  0.2856
  493MOL0     C66470   8.403   9.656  -0.663  0.8635 -0.7947  0.5298
  493MOL0     N66471   8.721  10.241  -0.297  0.8251  0.5545 -0.0152
  493MOL0     N66472   8.816  10.299  -0.351  0.8289 -0.1916  0.1440
  493MOL0     C66473   9.954  10.195  -0.103  0.5030 -0.4939  0.3315
  493MOL0     C66474  10.054  10.178  -0.014  0.6131  0.4818  0.2557
  493MOL0     C66475  10.523  10.189   0.033 -0.5382 -0.9055 -0.1865
  493MOL0     C66476  10.642  10.264   0.022  0.1570 -0.0558  0.5033
  493MOL0     C66477  10.770  10.202   0.015  0.9995 -0.3755 -1.1677
  493MOL0     C66478  10.777  10.069   0.011  0.0541 -0.4072  0.2688
  493MOL0     O66479  10.906  10.021   0.007  0.9827 -0.0123  0.5059
  493MOL0     C66480  10.943   9.876   0.007 -0.4327  0.2124 -0.4413
  493MOL0     C66481  10.991   9.836  -0.132 -0.3640  0.4464 -0.3493
  493MOL0     C66482  11.139   9.862  -0.148  0.0499  0.9331  0.2742
  493MOL0     C66483  11.154  10.006  -0.194 -0.2858 -0.2274  0.2929
  493MOL0     C66484  11.279  10.036  -0.266 -0.8286 -0.5624 -1.0178
  493MOL0     C66485  11.389  10.038  -0.316  0.5213 -0.0747  1.0147
  493MOL0     C66486  10.663   9.988   0.026  0.7943 -0.4778  0.1736
  493MOL0     C66487  10.535  10.049   0.034  0.8680 -0.1566  0.3374
  493MOL0     H66488  10.310  10.266  -0.206 -0.2247  0.9314 -0.6238
  493MOL0     H66489  10.106  10.277  -0.383 -1.2028 -1.2881 -0.9216
  493MOL0     H66490   9.939  10.164  -0.498 -0.5232 -2.3388 -1.9569
  493MOL0     H66491   9.859  10.037  -0.420 -1.3516 -0.3578 -0.0051
  493MOL0     H66492   9.721  10.269  -0.558 -0.2595  0.9457  1.0024
  493MOL0     H66493   9.712  10.098  -0.597  0.3394 -0.3331  1.3310
  493MOL0     H66494   9.555  10.045  -0.459 -0.2280 -1.9402 -0.5506
  493MOL0     H66495   9.643  10.110  -0.328  0.2591 -0.2376 -0.5930
  493MOL0     H66496   9.545  10.342  -0.390 -1.1151  0.1113 -0.3178
  493MOL0     H66497   9.452  10.257  -0.516  1.0139  0.4568 -0.2203
  493MOL0     H66498   9.342  10.111  -0.364 -0.9689  0.5801 -0.3910
  493MOL0     H66499   9.420  10.180  -0.222 -2.0806 -2.7843  0.1190
  493MOL0     H66500   9.341  10.377  -0.227  0.5556 -0.6101 -0.1672
  493MOL0     H66501   9.283  10.362  -0.395 -2.4329  0.9030  0.8377
  493MOL0     H66502   9.166  10.149  -0.216 -2.7312 -0.7502 -3.3349
  493MOL0     H66503   9.125  10.316  -0.159 -0.1139  1.1642 -0.2532
  493MOL0     H66504   9.111  10.227  -0.442 -2.7701 -0.0975 -2.2318
  493MOL0     H66505   9.050  10.382  -0.373  0.9330  0.2787  1.6589
  493MOL0     H66506   8.960  10.021  -0.252 -0.3191  0.1700  1.6827
  493MOL0     H66507   8.755   9.967  -0.101  1.1710  0.8541 -0.0454
  493MOL0     H66508   8.625  10.077  -0.091 -1.0971 -1.2309 -0.4872
  493MOL0     H66509   8.557  10.012  -0.325  1.2655 -0.8904 -1.2436
  493MOL0     H66510   8.506   9.904  -0.185  1.6434 -1.3987  1.2834
  493MOL0     H66511   8.683   9.755  -0.268 -0.9798 -2.0329 -0.9597
  493MOL0     H66512   8.702   9.844  -0.416  0.2222 -0.8848  0.0043
  493MOL0     H66513   8.434   9.734  -0.331  0.5507  1.5238  1.4721
  493MOL0     H66514   8.558   9.657  -0.439 -0.3856 -0.8822  0.8882
  493MOL0     H66515   8.251   9.943  -0.582 -0.3110  1.6527 -1.6228
  493MOL0     H66516   7.966   9.845  -0.689 -0.6132 -0.5945 -0.9318
  493MOL0     H66517   8.069   9.989  -0.724 -1.8339 -0.0111  0.8451
  493MOL0     H66518   8.010   9.878  -0.852 -2.4537 -0.1170  0.8728
  493MOL0     H66519   7.976   9.672  -1.116 -0.2491  0.0760  5.1457
  493MOL0     H66520   7.827   9.533  -1.282  1.1349 -1.6722 -0.4039
  493MOL0     H66521   7.719   9.405  -1.445 -3.0096 -2.0467 -4.0783
  493MOL0     H66522   7.860   9.322  -1.491 -1.7658  0.7636 -2.4561
  493MOL0     H66523   7.674   9.215  -1.591  0.0539 -1.3627 -0.6740
  493MOL0     H66524   7.732   9.103  -1.472 -2.5393 -0.9878  1.5658
  493MOL0     H66525   7.480   9.094  -1.464 -0.8364  1.0716 -0.9321
  493MOL0     H66526   7.470   9.261  -1.449 -0.5023  0.4480 -0.0650
  493MOL0     H66527   7.614   9.080  -1.249 -1.2020 -1.1723  1.2844
  493MOL0     H66528   7.563   9.249  -1.219 -4.9799  1.2133  0.4764
  493MOL0     H66529   7.432   9.118  -1.083  0.1150  1.1100 -0.1937
  493MOL0     H66530   7.375   9.009  -1.226 -1.7689 -0.0000  0.3423
  493MOL0     H66531   7.323   9.300  -1.159  1.2263 -0.2947 -1.6889
  493MOL0     H66532   7.303   9.228  -1.322  3.0253  0.0458 -0.3081
  493MOL0     H66533   7.157   9.168  -1.064  0.8603  5.1188  0.2724
  493MOL0     H66534   7.153   9.067  -1.206 -2.2722  0.5244 -0.3067
  493MOL0     H66535   7.064   9.363  -1.177  1.7019  0.8628 -2.4235
  493MOL0     H66536   6.950   9.225  -1.185 -0.3562  1.8617 -1.5895
  493MOL0     H66537   7.985   9.164  -1.145 -1.4313  1.2134  1.8183
  493MOL0     H66538   8.144   9.277  -1.021 -0.0577 -1.2258 -3.2717
  493MOL0     H66539   8.333   9.521  -0.806 -0.9540 -0.6344  0.1911
  493MOL0     H66540   8.498   9.604  -0.656  1.4912  0.4104  1.2860
  493MOL0     H66541   9.857  10.189  -0.055  0.4016  3.0768  0.8354
  493MOL0     H66542  10.034  10.154   0.090  0.4786  1.8462  0.5499
  493MOL0     H66543  10.642  10.371   0.004  0.0050 -0.3857 -1.8216
  493MOL0     H66544  10.862  10.259   0.009 -0.1273  1.3710 -4.2426
  493MOL0     H66545  11.031   9.864   0.071  0.9855  0.5009 -2.2505
  493MOL0     H66546  10.864   9.811   0.045 -4.3194  3.1771 -2.6273
  493MOL0     H66547  10.924   9.886  -0.203 -3.0222 -1.5701  0.5415
  493MOL0     H66548  10.963   9.734  -0.160  2.0143  0.5793 -3.9540
  493MOL0     H66549  11.176   9.795  -0.227 -1.4893  1.8488 -1.2963
  493MOL0     H66550  11.180   9.849  -0.048 -0.4889  0.6536  0.4557
  493MOL0     H66551  11.156  10.060  -0.098  1.6630  0.7364 -0.2565
  493MOL0     H66552  11.073  10.038  -0.260 -0.3817 -1.9887 -0.5029
  493MOL0     H66553  11.487  10.028  -0.357  1.3943  4.2604  1.5621
  493MOL0     H66554  10.667   9.879   0.026  2.1465 -0.5325  3.1580
  493MOL0     H66555  10.441   9.998   0.053 -0.1716  2.2106  2.0756
  494MOL0     O66556   2.752   0.097   4.065 -0.4620  0.7209 -0.5054
  494MOL0     C66557   2.848   0.080   4.134 -0.4475  0.6259 -0.3021
  494MOL0     O66558   2.849   0.013   4.258  0.9397 -0.2673  0.3677
  494MOL0     C66559   2.734  -0.055   4.291 -0.1702 -0.6495  0.2822
  494MOL0     C66560   2.603  -0.003   4.289  0.8379 -0.1832 -0.0722
  494MOL0     C66561   2.486  -0.088   4.304  0.8276  0.2533 -0.7400
  494MOL0     C66562   2.500  -0.221   4.351  0.5107  0.2710 -0.1539
  494MOL0     O66563   2.390  -0.279   4.401 -0.0347 -0.0344 -0.0898
  494MOL0     C66564   2.399  -0.417   4.443 -0.2573  0.2325 -1.5594
  494MOL0     C66565   2.401  -0.530   4.338 -0.5829 -0.1876  0.5673
  494MOL0     C66566   2.290  -0.533   4.231 -0.5009 -0.4631 -0.5272
  494MOL0     C66567   2.290  -0.655   4.131 -1.3646  0.2426  0.5574
  494MOL0     C66568   2.161  -0.653   4.066  0.3867 -0.5510  0.0155
  494MOL0     C66569   2.152  -0.544   3.959 -0.6531  0.3129 -0.3931
  494MOL0     C66570   2.016  -0.533   3.888  0.1444  0.7996 -0.3172
  494MOL0     C66571   2.027  -0.429   3.782  0.9891 -0.7689  1.1005
  494MOL0     N66572   1.903  -0.371   3.731 -0.4383 -1.2979  0.2571
  494MOL0     C66573   1.786  -0.347   3.806  0.4194 -0.0678  0.1356
  494MOL0     C66574   1.704  -0.290   3.719 -0.2132  0.2189 -0.4283
  494MOL0     C66575   1.563  -0.255   3.746  0.5746  1.2195 -0.1094
  494MOL0     C66576   1.537  -0.101   3.754  0.2629 -0.1256 -0.0041
  494MOL0     C66577   1.625  -0.035   3.859  0.1337  0.0279 -0.4284
  494MOL0     C66578   1.590  -0.078   4.004  0.8105 -0.0812 -0.2070
  494MOL0     O66579   1.593  -0.216   4.034  0.5437  0.6549  0.0300
  494MOL0     C66580   1.556  -0.263   4.165 -0.2842 -0.6582  1.1565
  494MOL0     C66581   1.458  -0.199   4.255 -0.2208  0.2908  0.9858
  494MOL0     C66582   1.423  -0.275   4.368  0.0233  0.2975 -0.2606
  494MOL0     C66583   1.294  -0.224   4.442  0.5078  0.3663 -0.0254
  494MOL0     C66584   1.487  -0.392   4.411 -0.2503  0.2257 -0.5334
  494MOL0     C66585   1.466  -0.459   4.549  0.4616  0.1881 -0.6850
  494MOL0     O66586   1.430  -0.375   4.648 -0.1364 -0.4273  0.6883
  494MOL0     C66587   1.422  -0.430   4.775 -0.1996 -0.2171 -0.4760
  494MOL0     C66588   1.307  -0.395   4.845  0.1069  1.2075  0.1704
  494MOL0     C66589   1.285  -0.454   4.964  0.3533  0.1303 -0.6222
  494MOL0     C66590   1.371  -0.548   5.021 -1.0152 -0.1574  0.1315
  494MOL0     O66591   1.331  -0.601   5.140  0.1415 -0.0439 -0.3230
  494MOL0     C66592   1.435  -0.659   5.226 -0.2825 -0.4670  0.1825
  494MOL0     C66593   1.384  -0.723   5.345 -0.1368  0.1776  0.3261
  494MOL0     C66594   1.303  -0.625   5.433  0.6658 -0.7690  0.2480
  494MOL0     C66595   1.157  -0.593   5.385 -0.3821  0.1138  0.4443
  494MOL0     C66596   1.062  -0.559   5.503 -0.3757  0.1920  0.2809
  494MOL0     C66597   0.917  -0.542   5.463 -0.4005 -1.4318  0.3949
  494MOL0     C66598   0.892  -0.393   5.424  0.7250  0.3018 -0.5359
  494MOL0     C66599   0.749  -0.340   5.462 -0.3257 -0.1084 -0.5614
  494MOL0    Cl66600   0.740  -0.306   5.642  0.0385  0.7328  0.2624
  494MOL0     C66601   1.499  -0.574   4.957  0.4322 -0.0485 -1.0593
  494MOL0     C66602   1.512  -0.525   4.831 -0.1952  0.2773  0.6465
  494MOL0     O66603   1.466  -0.581   4.555  0.1889 -0.4335  0.7186
  494MOL0     C66604   1.589  -0.452   4.328 -0.3056 -0.8593  0.2405
  494MOL0     C66605   1.618  -0.389   4.204 -0.6555  0.2293 -0.3169
  494MOL0     N66606   1.772  -0.284   3.594  0.1315  0.5581 -0.1924
  494MOL0     N66607   1.889  -0.334   3.610  0.0817  0.5248  0.5407
  494MOL0     C66608   2.637  -0.275   4.347  0.3326 -0.7135  0.1894
  494MOL0     C66609   2.745  -0.195   4.311  0.0933 -0.1562 -0.2855
  494MOL0     C66610   2.963   0.164   4.104 -0.1818  0.2819  0.3381
  494MOL0     C66611   3.038   0.233   4.203 -0.4239  0.7910  0.9677
  494MOL0     C66612   3.151   0.303   4.166  0.0912  0.3410  1.2835
  494MOL0     C66613   3.191   0.316   4.034 -0.9531  0.4483  0.5919
  494MOL0     O66614   3.308   0.386   4.024  0.4677  0.4049  0.5061
  494MOL0     C66615   3.348   0.440   3.896  0.8673 -0.2609 -0.2834
  494MOL0     C66616   3.442   0.552   3.926 -0.0932  1.1817  0.2050
  494MOL0     C66617   3.571   0.503   3.995 -0.1765  0.2507 -0.1279
  494MOL0     C66618   3.661   0.625   4.025  1.0863 -0.6672  0.0597
  494MOL0     C66619   3.768   0.588   4.123 -0.2974  0.2201  1.2156
  494MOL0     C66620   3.861   0.553   4.200 -0.0387 -0.3509 -0.0773
  494MOL0     C66621   3.120   0.246   3.935 -0.1588 -0.1752  0.2452
  494MOL0     C66622   2.997   0.182   3.968  0.7530  0.5332  0.5616
  494MOL0     H66623   2.590   0.101   4.259  1.1026 -0.0273  0.3463
  494MOL0     H66624   2.387  -0.047   4.316  1.0932  1.1627 -1.5128
  494MOL0     H66625   2.489  -0.431   4.504  0.1559 -1.2519 -2.4456
  494MOL0     H66626   2.317  -0.432   4.514  0.4759 -1.1335 -0.9548
  494MOL0     H66627   2.502  -0.522   4.296 -0.0664 -3.5919  0.8774
  494MOL0     H66628   2.401  -0.625   4.392  1.7250 -0.5788 -0.0074
  494MOL0     H66629   2.198  -0.518   4.288 -1.8896 -5.9453 -0.7603
  494MOL0     H66630   2.295  -0.440   4.174 -0.2893  0.4189  0.8714
  494MOL0     H66631   2.374  -0.646   4.062 -2.6332 -1.1914 -1.2938
  494MOL0     H66632   2.305  -0.738   4.200  1.8086  2.7344  3.1318
  494MOL0     H66633   2.125  -0.748   4.025  2.3704 -1.0739 -0.6265
  494MOL0     H66634   2.085  -0.638   4.143  1.4047 -0.7870  1.0877
  494MOL0     H66635   2.173  -0.444   3.999  1.8535  0.1973 -1.2790
  494MOL0     H66636   2.217  -0.577   3.878 -2.7870 -0.4001 -1.8973
  494MOL0     H66637   1.989  -0.631   3.849  1.6153 -0.0759  0.7471
  494MOL0     H66638   1.933  -0.509   3.955  0.7827 -1.4470  1.4000
  494MOL0     H66639   2.061  -0.471   3.687  1.0693  0.4974  0.5583
  494MOL0     H66640   2.100  -0.356   3.817  0.1402  0.0418  1.2256
  494MOL0     H66641   1.746  -0.368   3.905 -0.4703 -0.7544 -0.3496
  494MOL0     H66642   1.508  -0.284   3.657  0.7842  0.5350 -0.0247
  494MOL0     H66643   1.521  -0.314   3.828 -1.3305  0.5602 -1.5027
  494MOL0     H66644   1.432  -0.083   3.778 -0.8906 -2.4956 -2.6322
  494MOL0     H66645   1.562  -0.047   3.662  1.4427 -2.5987 -1.2380
  494MOL0     H66646   1.603   0.072   3.858 -0.5712 -0.1000  0.4045
  494MOL0     H66647   1.731  -0.044   3.834  0.7383 -4.6523  2.6483
  494MOL0     H66648   1.490  -0.039   4.026  0.5240 -2.0584  2.4620
  494MOL0     H66649   1.663  -0.035   4.072  0.7677  0.5122 -0.5347
  494MOL0     H66650   1.395  -0.115   4.228 -1.7864 -0.9809  0.5782
  494MOL0     H66651   1.243  -0.315   4.478 -2.3145  1.6294 -0.5601
  494MOL0     H66652   1.314  -0.158   4.527 -1.3217  1.8776 -0.7010
  494MOL0     H66653   1.226  -0.170   4.375  1.3798  2.2596  0.5519
  494MOL0     H66654   1.237  -0.332   4.792  1.0209 -0.0424 -2.7176
  494MOL0     H66655   1.192  -0.441   5.018  0.6967  0.9185 -0.2035
  494MOL0     H66656   1.485  -0.742   5.176 -1.7426 -1.3871  0.1679
  494MOL0     H66657   1.502  -0.578   5.257 -0.2647 -0.4340  0.0607
  494MOL0     H66658   1.320  -0.806   5.316  2.1591 -1.9485  1.0196
  494MOL0     H66659   1.466  -0.762   5.406 -0.5156 -1.1808 -0.0069
  494MOL0     H66660   1.362  -0.534   5.444  3.2854 -2.3124 -0.0395
  494MOL0     H66661   1.294  -0.676   5.529  1.0793  1.2858  1.4417
  494MOL0     H66662   1.166  -0.523   5.301 -1.1871  0.9096  1.0013
  494MOL0     H66663   1.131  -0.690   5.342  1.4078 -0.2272  0.0360
  494MOL0     H66664   1.091  -0.468   5.557 -2.0009  1.1705 -0.4259
  494MOL0     H66665   1.068  -0.643   5.573 -3.6586  0.2913  0.8366
  494MOL0     H66666   0.876  -0.622   5.401  0.7657 -1.0689 -0.9033
  494MOL0     H66667   0.874  -0.574   5.559  2.6077 -2.6862  1.4471
  494MOL0     H66668   0.905  -0.382   5.315 -0.9095 -0.5885 -0.8468
  494MOL0     H66669   0.958  -0.323   5.475  0.8670 -1.2232  1.4986
  494MOL0     H66670   0.677  -0.419   5.440  0.7204 -1.0195 -0.8119
  494MOL0     H66671   0.711  -0.252   5.410  0.0727 -0.5235 -1.5862
  494MOL0     H66672   1.567  -0.650   4.995 -0.5707 -1.3773 -1.8314
  494MOL0     H66673   1.608  -0.544   4.782 -0.4420  0.9363 -0.1133
  494MOL0     H66674   1.635  -0.544   4.362 -2.0850 -1.0278  2.5022
  494MOL0     H66675   1.687  -0.439   4.137 -1.4557 -3.5835  1.4454
  494MOL0     H66676   2.654  -0.379   4.375  0.5917 -0.2354  1.9360
  494MOL0     H66677   2.836  -0.254   4.301 -1.1893 -2.3452  0.3799
  494MOL0     H66678   3.010   0.243   4.308 -0.1639 -2.4686  1.4280
  494MOL0     H66679   3.205   0.355   4.245  1.2025 -1.1128  1.5104
  494MOL0     H66680   3.397   0.351   3.854 -1.5751 -2.5373  1.3294
  494MOL0     H66681   3.271   0.486   3.834 -0.9972  0.2517  2.2318
  494MOL0     H66682   3.389   0.627   3.986  1.2470  2.8792 -0.6320
  494MOL0     H66683   3.468   0.597   3.830  0.8583 -0.0103 -0.1191
  494MOL0     H66684   3.620   0.421   3.941 -0.6089 -0.6525  0.8157
  494MOL0     H66685   3.539   0.463   4.092  0.3532  2.0612  0.8375
  494MOL0     H66686   3.594   0.700   4.067  1.3783 -0.4427  0.1269
  494MOL0     H66687   3.702   0.672   3.935 -0.0595 -1.2408 -0.7856
  494MOL0     H66688   3.941   0.525   4.267 -0.1861 -3.5319 -1.0764
  494MOL0     H66689   3.158   0.248   3.833 -0.9051  2.0999 -0.0333
  494MOL0     H66690   2.942   0.129   3.891  2.6911 -3.6830  1.7846
  495MOL0     O66691  10.305   3.093   4.011  0.4612  0.2634 -1.1048
  495MOL0     C66692  10.285   3.061   4.130 -0.3186  0.1636 -0.8535
  495MOL0     O66693  10.195   2.967   4.171 -0.1529 -0.2607 -0.4396
  495MOL0     C66694  10.135   2.875   4.089 -0.2684  0.0740  0.1197
  495MOL0     C66695  10.211   2.796   4.003  0.6524 -0.0941  0.0009
  495MOL0     C66696  10.161   2.692   3.925  0.9283  0.3344 -0.4044
  495MOL0     C66697  10.026   2.657   3.941  0.0712 -0.2613 -0.3264
  495MOL0     O66698   9.964   2.545   3.876 -0.0421 -0.4254  0.0796
  495MOL0     C66699  10.016   2.513   3.750 -0.0644 -0.6372 -0.1701
  495MOL0     C66700   9.915   2.412   3.703 -0.1332  0.3845  0.3472
  495MOL0     C66701   9.795   2.484   3.666  0.4800 -0.2655  0.7145
  495MOL0     C66702   9.679   2.389   3.621 -0.5455 -0.0622 -0.0682
  495MOL0     C66703   9.565   2.475   3.564 -0.2237 -0.2854  0.2452
  495MOL0     C66704   9.443   2.387   3.532  1.3226  0.2433 -0.6961
  495MOL0     C66705   9.335   2.468   3.462 -0.9577 -0.0083 -0.9356
  495MOL0     C66706   9.224   2.375   3.407 -0.7352  0.3757  0.6093
  495MOL0     N66707   9.135   2.457   3.326 -0.1656  0.7666  0.3495
  495MOL0     C66708   9.019   2.504   3.383  0.1296 -0.3043  0.2674
  495MOL0     C66709   8.952   2.560   3.272 -0.0518  0.6886  0.0890
  495MOL0     C66710   8.814   2.605   3.289  0.4387 -0.3361 -0.5905
  495MOL0     C66711   8.732   2.491   3.354  0.1688 -0.3750  0.5063
  495MOL0     C66712   8.591   2.533   3.382 -0.1887 -0.2199 -0.2406
  495MOL0     C66713   8.513   2.548   3.264  0.3634  0.9222  0.1705
  495MOL0     O66714   8.398   2.628   3.290  0.1782  0.7861  0.7102
  495MOL0     C66715   8.306   2.658   3.195  0.4310 -0.1962 -0.8361
  495MOL0     C66716   8.347   2.667   3.071 -0.3406 -0.6454  1.0141
  495MOL0     C66717   8.256   2.725   2.974  0.3486  0.6825  0.0577
  495MOL0     C66718   8.291   2.742   2.831  0.7760  0.6857  0.3148
  495MOL0     C66719   8.122   2.747   3.011 -0.6047  1.0977  0.0965
  495MOL0     C66720   8.020   2.809   2.922  0.8707 -0.0828 -0.5612
  495MOL0     O66721   7.937   2.888   2.990  0.3525  0.2912 -0.2786
  495MOL0     C66722   7.859   2.965   2.907  0.7733 -0.5601 -0.2607
  495MOL0     C66723   7.902   3.091   2.858 -0.0016  0.1484 -0.0744
  495MOL0     C66724   7.822   3.182   2.791 -0.4638  0.0658  0.1102
  495MOL0     C66725   7.682   3.154   2.772 -0.3066  0.4777 -0.0164
  495MOL0     O66726   7.590   3.224   2.694 -0.7634  0.2028 -0.2540
  495MOL0     C66727   7.645   3.342   2.628  0.9582  0.6456 -0.2405
  495MOL0     C66728   7.536   3.430   2.548 -0.9910 -0.0084 -0.3487
  495MOL0     C66729   7.409   3.472   2.617  0.2854  0.3800  0.5134
  495MOL0     C66730   7.290   3.519   2.528 -0.6736  0.1963  1.3504
  495MOL0     C66731   7.193   3.599   2.599  0.4432 -0.5838 -0.1147
  495MOL0     C66732   7.075   3.643   2.502 -0.0267  0.8232 -0.1721
  495MOL0     C66733   6.971   3.746   2.543 -0.8035  0.1292  0.2617
  495MOL0     C66734   6.871   3.762   2.431  0.8532 -0.3541 -0.5987
  495MOL0    Cl66735   6.750   3.632   2.398 -0.0607 -0.1483  0.2026
  495MOL0     C66736   7.642   3.032   2.830  0.7377  0.0697  0.3607
  495MOL0     C66737   7.724   2.939   2.894 -0.0512 -0.1155 -0.4460
  495MOL0     O66738   8.022   2.794   2.802  0.1373 -1.0206 -0.0621
  495MOL0     C66739   8.082   2.721   3.137 -0.0561 -0.0948  0.1573
  495MOL0     C66740   8.175   2.684   3.234  0.1009 -0.3523  0.5415
  495MOL0     N66741   9.038   2.542   3.163  1.0604  0.1849  0.4005
  495MOL0     N66742   9.145   2.482   3.198  0.5607  0.1312  0.2389
  495MOL0     C66743   9.944   2.730   4.028  0.7858  0.1903  0.4723
  495MOL0     C66744   9.999   2.840   4.103 -0.4785 -0.1802 -0.1850
  495MOL0     C66745  10.347   3.135   4.240  0.3687  0.1674  0.2345
  495MOL0     C66746  10.321   3.108   4.371 -0.6985  0.4119 -0.6809
  495MOL0     C66747  10.365   3.189   4.472  0.0457  0.5112  0.2220
  495MOL0     C66748  10.460   3.297   4.442 -0.0471  0.5677  0.4087
  495MOL0     O66749  10.508   3.351   4.556 -0.6238 -0.0625  0.1447
  495MOL0     C66750  10.592   3.465   4.540  0.6149 -0.2504 -0.2055
  495MOL0     C66751  10.531   3.595   4.488  0.4275 -0.5828 -0.2066
  495MOL0     C66752  10.403   3.638   4.564 -0.5496 -0.0733  0.8934
  495MOL0     C66753  10.419   3.660   4.715 -0.3243 -0.6583  0.9087
  495MOL0     C66754  10.521   3.771   4.735  0.3214  0.2069  0.4740
  495MOL0     C66755  10.610   3.855   4.744 -0.2634  0.5957 -0.6021
  495MOL0     C66756  10.496   3.320   4.309 -0.4734 -0.1013 -0.1084
  495MOL0     C66757  10.435   3.239   4.203 -0.0753 -0.2988  0.1008
  495MOL0     H66758  10.318   2.814   4.001  0.5872  0.2869 -0.1447
  495MOL0     H66759  10.237   2.643   3.864  2.0716  0.0309  1.1985
  495MOL0     H66760  10.020   2.606   3.693  2.3759 -0.7680 -0.3204
  495MOL0     H66761  10.115   2.469   3.763  0.5197  0.4099 -0.8644
  495MOL0     H66762   9.948   2.361   3.612 -2.8595 -0.7249 -0.1263
  495MOL0     H66763   9.888   2.332   3.773 -0.8899 -0.5887 -1.0091
  495MOL0     H66764   9.758   2.550   3.745 -1.2348 -1.0482  0.6095
  495MOL0     H66765   9.819   2.545   3.579 -1.0057 -0.3369  0.2272
  495MOL0     H66766   9.712   2.325   3.539 -1.3219  2.3802 -2.4458
  495MOL0     H66767   9.647   2.325   3.703  1.0350 -0.9601 -0.1155
  495MOL0     H66768   9.545   2.561   3.628  0.1815 -1.6555  2.3134
  495MOL0     H66769   9.597   2.530   3.475 -2.3764  1.5939  0.5406
  495MOL0     H66770   9.462   2.293   3.479 -1.9402 -1.0043  0.0446
  495MOL0     H66771   9.407   2.349   3.628 -0.1541  0.8780 -0.9626
  495MOL0     H66772   9.284   2.531   3.536  0.5221  1.0744 -0.7772
  495MOL0     H66773   9.376   2.532   3.383  0.1845 -1.6368 -1.7233
  495MOL0     H66774   9.175   2.320   3.488 -3.2123 -0.6997 -1.4882
  495MOL0     H66775   9.266   2.294   3.348 -1.2424 -0.6616  1.6369
  495MOL0     H66776   8.991   2.501   3.487 -3.2680 -1.1316 -0.5385
  495MOL0     H66777   8.821   2.682   3.365  2.7577 -1.2474  0.2206
  495MOL0     H66778   8.791   2.649   3.191  0.9285  0.0147 -0.5510
  495MOL0     H66779   8.783   2.451   3.442  0.5578 -0.4098  0.2669
  495MOL0     H66780   8.735   2.411   3.280  0.8444 -0.8511  1.0393
  495MOL0     H66781   8.593   2.616   3.454 -3.5542 -2.1062  2.3193
  495MOL0     H66782   8.549   2.459   3.450 -1.0382  2.3583  2.2437
  495MOL0     H66783   8.500   2.444   3.231  1.8487  0.7842 -0.0457
  495MOL0     H66784   8.575   2.594   3.186 -0.8232 -1.7743 -2.6178
  495MOL0     H66785   8.449   2.648   3.041 -0.8369 -0.7591 -0.7812
  495MOL0     H66786   8.250   2.837   2.796  0.1443 -0.2570 -1.6681
  495MOL0     H66787   8.400   2.750   2.820  1.5526 -5.7106 -0.3447
  495MOL0     H66788   8.251   2.662   2.768 -1.0434  1.7683  0.0406
  495MOL0     H66789   8.006   3.116   2.878 -0.5082  1.6073  0.9562
  495MOL0     H66790   7.851   3.285   2.777 -2.0201  0.5832  0.5220
  495MOL0     H66791   7.681   3.415   2.700 -1.7701  2.3357 -0.4204
  495MOL0     H66792   7.710   3.307   2.548 -0.6684  2.2850 -2.4252
  495MOL0     H66793   7.583   3.523   2.514 -0.8632  0.0187 -0.1021
  495MOL0     H66794   7.507   3.364   2.466  0.4040  0.4233 -1.2250
  495MOL0     H66795   7.441   3.551   2.686 -1.1552  0.6089  0.9487
  495MOL0     H66796   7.379   3.385   2.677  0.3664 -1.4413 -1.9637
  495MOL0     H66797   7.333   3.576   2.445 -0.7161 -1.6150 -0.0006
  495MOL0     H66798   7.246   3.426   2.490  3.2795 -1.2956 -0.0684
  495MOL0     H66799   7.235   3.691   2.642 -0.8792  0.8532 -1.7480
  495MOL0     H66800   7.157   3.544   2.686  0.9443  0.9661  1.1362
  495MOL0     H66801   7.120   3.702   2.422 -1.0232  2.3447  0.3256
  495MOL0     H66802   7.024   3.552   2.469 -0.4887 -0.3914  3.4542
  495MOL0     H66803   7.023   3.839   2.568  0.8198 -0.9178  0.9740
  495MOL0     H66804   6.918   3.733   2.639 -0.3057  2.0143  0.8271
  495MOL0     H66805   6.922   3.787   2.337  1.8261 -0.1958 -0.0427
  495MOL0     H66806   6.812   3.850   2.458  1.2069 -0.1428 -0.5113
  495MOL0     H66807   7.539   2.998   2.820  0.4710  0.5068  1.4380
  495MOL0     H66808   7.689   2.841   2.925 -0.7116 -0.3545 -1.8841
  495MOL0     H66809   7.979   2.739   3.168  0.7922  2.2477  1.8881
  495MOL0     H66810   8.151   2.666   3.338 -1.7230  2.2267  0.6568
  495MOL0     H66811   9.841   2.696   4.036  1.5955 -2.8400 -0.4584
  495MOL0     H66812   9.938   2.890   4.176  2.4254  1.7561  1.1204
  495MOL0     H66813  10.251   3.028   4.393 -5.6030  4.3279 -0.3975
  495MOL0     H66814  10.333   3.152   4.569 -2.8542 -0.8168 -1.1193
  495MOL0     H66815  10.628   3.482   4.641 -3.6689  0.4059  1.4375
  495MOL0     H66816  10.673   3.438   4.471 -0.0920 -0.0257 -1.1548
  495MOL0     H66817  10.501   3.573   4.385  0.4392 -3.4662  0.3169
  495MOL0     H66818  10.609   3.670   4.494 -1.3534  1.5570 -2.0020
  495MOL0     H66819  10.327   3.560   4.563 -2.1169  1.3984  1.0411
  495MOL0     H66820  10.357   3.727   4.520 -0.0245 -0.9024 -1.4545
  495MOL0     H66821  10.458   3.571   4.766  3.5509 -0.5566 -1.4041
  495MOL0     H66822  10.322   3.691   4.754 -1.0223  0.7425 -1.7204
  495MOL0     H66823  10.674   3.940   4.738  0.1285  0.2465 -1.6649
  495MOL0     H66824  10.575   3.387   4.275  0.0556 -0.4052  0.5097
  495MOL0     H66825  10.464   3.260   4.100  0.6949 -1.4365  0.0667
  496MOL0     O66826   3.655   4.689  10.912 -0.9577  0.4954  0.6299
  496MOL0     C66827   3.590   4.584  10.915  0.1084  0.3286 -0.0737
  496MOL0     O66828   3.618   4.485  11.001  0.3005 -0.0668  0.5346
  496MOL0     C66829   3.738   4.483  11.067 -0.4634 -0.0962  0.2031
  496MOL0     C66830   3.752   4.372  11.159  0.1511  0.5237  0.3744
  496MOL0     C66831   3.870   4.343  11.223  0.5651  0.4412 -0.2312
  496MOL0     C66832   3.981   4.411  11.198  0.1777 -0.8737 -0.0270
  496MOL0     O66833   4.091   4.372  11.256 -0.7869 -0.3730 -0.4360
  496MOL0     C66834   4.163   4.260  11.203 -0.4573  0.0189 -0.7949
  496MOL0     C66835   4.300   4.248  11.270  0.4143  0.4646  0.1767
  496MOL0     C66836   4.281   4.188  11.421  0.4305 -0.7811  0.2217
  496MOL0     C66837   4.292   4.298  11.525  0.0636 -0.3260 -0.3995
  496MOL0     C66838   4.160   4.355  11.574 -0.2933  0.5858 -1.0091
  496MOL0     C66839   4.148   4.313  11.723  0.2218  0.0810 -0.6065
  496MOL0     C66840   4.033   4.372  11.806 -0.5362 -0.4837  0.2007
  496MOL0     C66841   4.024   4.523  11.830 -0.2955  0.3654  0.3815
  496MOL0     N66842   3.884   4.563  11.834  0.1109 -0.1807 -0.4242
  496MOL0     C66843   3.812   4.612  11.726  0.0362 -1.3156  0.0395
  496MOL0     C66844   3.684   4.615  11.749  0.3225  0.8940 -0.5157
  496MOL0     C66845   3.566   4.655  11.673 -0.2350 -0.0752  0.0530
  496MOL0     C66846   3.468   4.547  11.613  0.3173 -1.0459  0.4893
  496MOL0     C66847   3.365   4.629  11.524 -0.2809  0.1654 -0.5674
  496MOL0     C66848   3.270   4.531  11.457 -0.0708 -0.3015 -0.3052
  496MOL0     O66849   3.150   4.593  11.404 -0.9464  0.2512 -0.5528
  496MOL0     C66850   3.072   4.523  11.316  0.3264 -0.5344 -0.0931
  496MOL0     C66851   3.033   4.393  11.342 -0.7540  0.1321 -0.3498
  496MOL0     C66852   2.956   4.314  11.250 -0.4411 -0.5173  0.2455
  496MOL0     C66853   2.930   4.166  11.277  0.4422  0.2116  0.4382
  496MOL0     C66854   2.910   4.384  11.134  1.1750  0.3080  0.2992
  496MOL0     C66855   2.813   4.326  11.033  0.0351  0.0424 -1.2203
  496MOL0     O66856   2.823   4.381  10.911  0.4998 -0.0559 -0.1007
  496MOL0     C66857   2.750   4.329  10.805 -0.6062  0.1989  0.5241
  496MOL0     C66858   2.643   4.407  10.762 -0.5023 -0.5374  0.5165
  496MOL0     C66859   2.544   4.346  10.683  0.1344 -0.4333  0.4449
  496MOL0     C66860   2.551   4.215  10.630 -0.9453  0.4104  0.8419
  496MOL0     O66861   2.461   4.150  10.547  0.3459 -0.5831  0.9888
  496MOL0     C66862   2.483   4.188  10.408 -0.2444 -0.2155 -0.2271
  496MOL0     C66863   2.355   4.185  10.335 -0.5148  0.0741 -0.8594
  496MOL0     C66864   2.259   4.298  10.378 -0.3526  0.5737  0.4790
  496MOL0     C66865   2.157   4.339  10.258 -0.3913 -0.1116 -0.2065
  496MOL0     C66866   2.078   4.465  10.307  1.2006 -0.7154 -0.3542
  496MOL0     C66867   1.923   4.442  10.307 -0.4702 -0.8486  0.0996
  496MOL0     C66868   1.863   4.364  10.424 -0.2329 -0.1252 -0.4420
  496MOL0     C66869   1.784   4.466  10.504  0.2049  0.3514 -0.3805
  496MOL0    Cl66870   1.670   4.385  10.615  0.0928  0.0067 -0.6436
  496MOL0     C66871   2.668   4.139  10.668  0.1043  0.4439 -0.6674
  496MOL0     C66872   2.769   4.201  10.749  0.8872  0.8813 -0.1707
  496MOL0     O66873   2.730   4.244  11.066 -0.4376 -0.5147  0.7656
  496MOL0     C66874   2.937   4.521  11.120 -0.1965  0.5912 -0.1153
  496MOL0     C66875   3.014   4.587  11.214  0.1016 -0.1745 -0.1628
  496MOL0     N66876   3.667   4.565  11.879 -0.2559  0.0027  1.6328
  496MOL0     N66877   3.786   4.537  11.931 -0.2760  0.4614 -0.2072
  496MOL0     C66878   3.983   4.519  11.099  0.0317  0.3920 -0.3370
  496MOL0     C66879   3.863   4.547  11.039  0.7849 -0.7484 -0.7022
  496MOL0     C66880   3.470   4.584  10.831  0.3227  0.0213  0.2754
  496MOL0     C66881   3.452   4.675  10.717 -0.3957 -0.2429 -0.1145
  496MOL0     C66882   3.327   4.684  10.655 -0.0392  0.0784 -0.5763
  496MOL0     C66883   3.220   4.609  10.699  0.7832  1.3953  0.7404
  496MOL0     O66884   3.100   4.645  10.651 -0.0328 -0.2861  0.4103
  496MOL0     C66885   2.974   4.607  10.698  0.5718  0.5999  0.1953
  496MOL0     C66886   2.854   4.656  10.612  0.7534 -0.1288 -0.4554
  496MOL0     C66887   2.838   4.600  10.470  0.1606 -0.2764 -0.4189
  496MOL0     C66888   2.729   4.678  10.383 -0.5310  1.3363 -0.1305
  496MOL0     C66889   2.599   4.664  10.453  0.1115 -0.3056 -0.8426
  496MOL0     C66890   2.497   4.652  10.518  0.2289 -0.7755 -0.0142
  496MOL0     C66891   3.241   4.508  10.796 -0.1166 -0.1951 -0.5697
  496MOL0     C66892   3.368   4.505  10.860  0.2804 -0.3172  0.0558
  496MOL0     H66893   3.665   4.307  11.166  0.5758 -0.1190 -0.1799
  496MOL0     H66894   3.876   4.260  11.292  1.8485  0.6736 -0.0343
  496MOL0     H66895   4.105   4.168  11.214  1.5416 -1.2279 -0.0233
  496MOL0     H66896   4.166   4.272  11.095  3.0793  2.7195 -0.5757
  496MOL0     H66897   4.372   4.187  11.216 -0.7884 -0.3647 -0.5371
  496MOL0     H66898   4.339   4.350  11.269  1.1690  0.1859  0.7432
  496MOL0     H66899   4.187   4.134  11.440  0.1304  0.4429  2.5033
  496MOL0     H66900   4.361   4.115  11.439 -1.1540 -3.3072 -2.1447
  496MOL0     H66901   4.347   4.262  11.613 -0.0769  0.6571  0.1061
  496MOL0     H66902   4.356   4.378  11.487  1.8196 -1.1193  0.7452
  496MOL0     H66903   4.151   4.464  11.572  1.2634  0.7463 -3.1879
  496MOL0     H66904   4.070   4.314  11.528  0.4764 -0.7792 -1.3872
  496MOL0     H66905   4.158   4.205  11.734 -3.6717 -0.4536 -1.1640
  496MOL0     H66906   4.237   4.355  11.772 -1.8599  2.5224  1.3319
  496MOL0     H66907   3.941   4.339  11.757  0.0219  0.6942 -1.7622
  496MOL0     H66908   4.045   4.317  11.900  0.8625 -0.0842  0.2794
  496MOL0     H66909   4.066   4.571  11.742  0.9006 -0.0399  0.7129
  496MOL0     H66910   4.075   4.551  11.923 -0.0671  1.1458  0.0296
  496MOL0     H66911   3.851   4.645  11.630  1.1986 -0.7988  0.6672
  496MOL0     H66912   3.502   4.720  11.733  1.2520  3.1944 -1.6449
  496MOL0     H66913   3.602   4.719  11.592  0.8323  1.5285  1.7058
  496MOL0     H66914   3.412   4.498  11.692 -1.7568  0.5403  0.1183
  496MOL0     H66915   3.528   4.481  11.550  0.5532  0.7572 -1.2831
  496MOL0     H66916   3.416   4.684  11.444  0.8996 -2.2458 -1.5514
  496MOL0     H66917   3.310   4.701  11.585  3.1906  1.1680  1.7094
  496MOL0     H66918   3.232   4.456  11.527 -0.0718 -0.2976 -0.3015
  496MOL0     H66919   3.321   4.484  11.372  1.4454  1.9311 -0.7369
  496MOL0     H66920   3.063   4.345  11.435 -2.0177  2.0333  1.1434
  496MOL0     H66921   3.000   4.124  11.349  3.4707  2.1911 -1.1553
  496MOL0     H66922   2.826   4.150  11.308  0.1379 -0.3303 -0.7862
  496MOL0     H66923   2.948   4.109  11.185 -3.8634 -0.2075 -0.3942
  496MOL0     H66924   2.630   4.511  10.792 -1.3204 -0.0130 -1.4966
  496MOL0     H66925   2.452   4.399  10.658  0.0250 -0.4059  0.8982
  496MOL0     H66926   2.538   4.282  10.403 -1.6592  0.5512 -2.2153
  496MOL0     H66927   2.542   4.099  10.381 -3.5581 -3.3461  1.8956
  496MOL0     H66928   2.367   4.163  10.228 -1.3167  0.0542 -0.9574
  496MOL0     H66929   2.309   4.093  10.372  1.0055 -1.3137 -2.2453
  496MOL0     H66930   2.313   4.383  10.421  2.4819 -0.8022 -0.1420
  496MOL0     H66931   2.190   4.256  10.452 -1.6781  1.9881  0.0788
  496MOL0     H66932   2.207   4.363  10.164 -2.6532 -0.3893 -1.5660
  496MOL0     H66933   2.088   4.255  10.253  0.2290 -0.5670 -1.5088
  496MOL0     H66934   2.101   4.549  10.241  2.6458 -0.3046  0.6237
  496MOL0     H66935   2.108   4.502  10.406 -0.2345  1.1140 -0.5347
  496MOL0     H66936   1.865   4.534  10.304 -4.0286 -2.8274  1.6184
  496MOL0     H66937   1.906   4.384  10.215  4.0390 -1.2388 -0.7342
  496MOL0     H66938   1.940   4.320  10.487  1.0338 -0.9885 -2.4728
  496MOL0     H66939   1.790   4.297  10.377 -4.3014  2.5662  1.4865
  496MOL0     H66940   1.718   4.524  10.438  0.4236  0.2176 -0.7177
  496MOL0     H66941   1.851   4.539  10.550  1.5430  1.0727 -3.1934
  496MOL0     H66942   2.690   4.046  10.616  1.1160 -0.1046  0.6624
  496MOL0     H66943   2.858   4.140  10.761 -0.8675 -2.1687 -1.5809
  496MOL0     H66944   2.891   4.583  11.043  1.1031  2.1509  0.3106
  496MOL0     H66945   3.037   4.693  11.209 -3.8178  0.8707  0.4962
  496MOL0     H66946   4.070   4.573  11.062  0.4790 -0.1422 -0.0954
  496MOL0     H66947   3.859   4.641  10.985  0.2099  0.5587  1.4658
  496MOL0     H66948   3.534   4.739  10.688  0.8788 -1.0806  1.5060
  496MOL0     H66949   3.323   4.744  10.564  4.1409 -0.9927 -1.6798
  496MOL0     H66950   2.964   4.498  10.701 -1.8623  0.7899  1.0930
  496MOL0     H66951   2.955   4.631  10.803 -2.1987  0.4412 -0.1974
  496MOL0     H66952   2.853   4.764  10.594 -1.7202 -0.0484 -0.1935
  496MOL0     H66953   2.762   4.639  10.668  0.5458  0.4355 -0.6176
  496MOL0     H66954   2.805   4.496  10.478  0.1874 -0.2225  0.4939
  496MOL0     H66955   2.932   4.596  10.414  0.0591 -1.1370 -0.5505
  496MOL0     H66956   2.738   4.629  10.285 -0.9106  1.5250 -0.2615
  496MOL0     H66957   2.755   4.780  10.355 -2.2764  1.8150 -0.1487
  496MOL0     H66958   2.404   4.640  10.569 -0.0831  0.2275 -0.3277
  496MOL0     H66959   3.162   4.439  10.824 -0.9157  1.4942  1.6019
  496MOL0     H66960   3.382   4.432  10.938 -0.7109 -2.0714 -1.3397
  497MOL0     O66961   3.943   7.908   4.954 -0.0568  0.0554 -0.3030
  497MOL0     C66962   3.953   8.018   5.004  0.3810 -0.7211 -0.7471
  497MOL0     O66963   3.852   8.077   5.076  0.3385 -0.0795 -0.7130
  497MOL0     C66964   3.720   8.020   5.070  0.5106  0.6232  0.3769
  497MOL0     C66965   3.651   8.000   4.946  0.2414  0.5591  0.0038
  497MOL0     C66966   3.522   7.954   4.948 -0.2243  0.1192  0.4769
  497MOL0     C66967   3.465   7.925   5.072 -0.0525  1.5764 -0.5810
  497MOL0     O66968   3.331   7.898   5.093 -0.5969  0.5555 -0.8591
  497MOL0     C66969   3.244   7.947   4.993  0.3642  0.8096 -0.4460
  497MOL0     C66970   3.107   7.923   5.054  0.2578  0.5408 -0.3186
  497MOL0     C66971   3.068   7.773   5.057  0.3036 -0.5004 -0.3420
  497MOL0     C66972   2.918   7.741   5.096 -0.4705  0.3486 -0.7553
  497MOL0     C66973   2.899   7.599   5.135  0.2779  0.5589 -0.2901
  497MOL0     C66974   2.761   7.579   5.192 -0.0159 -0.5327  0.1537
  497MOL0     C66975   2.752   7.443   5.250 -0.8671 -0.2895 -0.0164
  497MOL0     C66976   2.643   7.433   5.363  0.0397  0.1736  0.7179
  497MOL0     N66977   2.510   7.440   5.288 -0.2868 -0.1127  0.3756
  497MOL0     C66978   2.412   7.539   5.310 -0.1119  0.4116 -0.0844
  497MOL0     C66979   2.297   7.480   5.258 -0.5307 -0.1696 -0.6502
  497MOL0     C66980   2.177   7.550   5.203 -0.2396  0.2207  1.0047
  497MOL0     C66981   2.069   7.443   5.156 -0.0289 -0.7899  1.4676
  497MOL0     C66982   1.960   7.512   5.066 -0.1313  0.6406  0.3601
  497MOL0     C66983   1.894   7.409   4.967  0.3640  0.0943 -0.2753
  497MOL0     O66984   1.759   7.454   4.941  0.7247  0.1486 -0.3989
  497MOL0     C66985   1.661   7.394   5.021 -0.1152 -0.4323  0.5251
  497MOL0     C66986   1.549   7.477   5.049  0.6692  0.8165 -0.0265
  497MOL0     C66987   1.445   7.435   5.123 -0.4010  0.6301  0.0796
  497MOL0     C66988   1.335   7.532   5.149  0.0518 -0.1049  0.1906
  497MOL0     C66989   1.445   7.303   5.168 -0.4894  0.6570 -0.1987
  497MOL0     C66990   1.332   7.243   5.243  0.4941  0.4261  0.1967
  497MOL0     O66991   1.314   7.111   5.228 -0.1018  0.2832  0.6508
  497MOL0     C66992   1.239   7.041   5.314 -0.7742  0.3636 -0.0801
  497MOL0     C66993   1.294   6.986   5.428 -0.2924  0.5078 -0.7000
  497MOL0     C66994   1.220   6.921   5.524  0.1068  0.0562  0.5847
  497MOL0     C66995   1.079   6.895   5.496  0.1577  0.4372 -0.6061
  497MOL0     O66996   1.000   6.841   5.597 -0.3066 -0.3089  0.3172
  497MOL0     C66997   1.054   6.780   5.718  0.1398 -0.1538  0.0314
  497MOL0     C66998   1.077   6.881   5.831 -0.3505  0.5405 -0.2383
  497MOL0     C66999   1.137   6.811   5.958  0.1967 -0.4628  0.0354
  497MOL0     C67000   1.026   6.711   6.004 -0.5717 -0.1222 -0.9483
  497MOL0     C67001   1.044   6.666   6.150  0.2567 -0.3440  0.0510
  497MOL0     C67002   1.148   6.560   6.161 -0.2432  0.4045  0.0003
  497MOL0     C67003   1.186   6.527   6.308  0.2975  0.1578  0.1592
  497MOL0     C67004   1.267   6.391   6.306  0.2260  0.7523 -0.2496
  497MOL0    Cl67005   1.262   6.330   6.473 -0.0778  0.2109  0.2013
  497MOL0     C67006   1.024   6.936   5.376 -0.4331 -0.0326 -0.1495
  497MOL0     C67007   1.103   7.023   5.292 -0.0259  0.2110  0.6052
  497MOL0     O67008   1.265   7.311   5.322 -0.1630  0.3801 -0.4115
  497MOL0     C67009   1.552   7.218   5.138 -0.9747  0.1970  0.0642
  497MOL0     C67010   1.662   7.262   5.070 -0.1462 -0.1441  0.3774
  497MOL0     N67011   2.336   7.361   5.206 -0.0298  0.5438  0.0150
  497MOL0     N67012   2.457   7.328   5.237  0.0032 -0.1109 -0.5420
  497MOL0     C67013   3.537   7.930   5.197  0.4333 -0.2350 -0.3803
  497MOL0     C67014   3.664   7.972   5.190 -0.3247  0.6121  0.0722
  497MOL0     C67015   4.082   8.088   4.992  0.2588 -0.0285  0.3597
  497MOL0     C67016   4.184   8.021   4.920  0.3561 -0.6044 -0.3545
  497MOL0     C67017   4.309   8.076   4.921  0.2138  0.3951 -0.0374
  497MOL0     C67018   4.342   8.190   4.993  0.6269 -0.4795  0.2638
  497MOL0     O67019   4.466   8.254   4.990  1.2653 -0.5925  0.2442
  497MOL0     C67020   4.574   8.191   4.911  0.9656  0.0137 -0.1357
  497MOL0     C67021   4.701   8.281   4.923  0.6966 -0.7420  0.1380
  497MOL0     C67022   4.679   8.403   4.841 -0.2700 -0.2595 -0.4671
  497MOL0     C67023   4.778   8.512   4.868 -0.2574 -0.9107 -0.1090
  497MOL0     C67024   4.916   8.473   4.835  0.1134 -0.2430  0.0865
  497MOL0     C67025   5.037   8.461   4.809 -0.1774 -0.2494  0.0490
  497MOL0     C67026   4.245   8.255   5.066  0.3950  0.4147  0.2693
  497MOL0     C67027   4.112   8.198   5.064 -0.2418 -0.7558 -0.8060
  497MOL0     H67028   3.706   8.025   4.856 -0.8806  0.3937 -0.7534
  497MOL0     H67029   3.471   7.946   4.852 -1.2305 -1.6118  1.1264
  497MOL0     H67030   3.239   8.056   4.989 -0.6221  0.8664  1.1106
  497MOL0     H67031   3.251   7.908   4.891 -1.0782  0.0838 -0.3072
  497MOL0     H67032   3.095   7.975   5.149  0.2830  1.3633 -0.7583
  497MOL0     H67033   3.036   7.964   4.982  1.0032  2.3418 -0.0728
  497MOL0     H67034   3.080   7.735   4.955 -4.2157  1.9305 -2.0356
  497MOL0     H67035   3.144   7.725   5.119  1.0829  3.2190  1.8574
  497MOL0     H67036   2.891   7.812   5.175  1.9537  0.1472  0.3450
  497MOL0     H67037   2.854   7.783   5.018 -0.8899  0.3193 -0.4322
  497MOL0     H67038   2.931   7.528   5.058  0.0349  0.2314 -0.0870
  497MOL0     H67039   2.976   7.581   5.211  0.6030  0.4919 -0.6276
  497MOL0     H67040   2.743   7.652   5.272 -2.8476 -0.0687 -0.7995
  497MOL0     H67041   2.676   7.595   5.125 -0.6804 -2.2348  0.5189
  497MOL0     H67042   2.738   7.361   5.179  1.4377 -1.0744  0.3335
  497MOL0     H67043   2.842   7.408   5.301 -1.1781  1.0990  1.5709
  497MOL0     H67044   2.660   7.519   5.427  2.8553  1.7103 -1.8284
  497MOL0     H67045   2.662   7.341   5.419  1.3337 -3.0639 -4.2955
  497MOL0     H67046   2.425   7.637   5.356 -0.9036  0.1315  0.7765
  497MOL0     H67047   2.136   7.612   5.283 -0.3510  0.5420  0.7072
  497MOL0     H67048   2.212   7.626   5.132  1.9335 -1.0931  0.5870
  497MOL0     H67049   2.033   7.381   5.238 -1.1439 -1.0602  0.7898
  497MOL0     H67050   2.119   7.371   5.090 -2.6510 -3.0934  1.8457
  497MOL0     H67051   2.008   7.585   5.000  1.5286  1.2156  2.0927
  497MOL0     H67052   1.895   7.565   5.135 -0.7178  1.4098 -0.7598
  497MOL0     H67053   1.908   7.309   5.008  4.9842  1.6704  2.7069
  497MOL0     H67054   1.942   7.414   4.869 -0.4699  1.6275 -0.6341
  497MOL0     H67055   1.548   7.580   5.016 -0.1379 -0.1618 -3.5976
  497MOL0     H67056   1.347   7.616   5.080 -2.5462 -0.9775 -1.4935
  497MOL0     H67057   1.243   7.480   5.121  0.6241 -1.1077  0.1489
  497MOL0     H67058   1.322   7.561   5.254  0.1682 -4.0052  1.4244
  497MOL0     H67059   1.395   7.011   5.456 -0.0049 -1.1207 -0.1564
  497MOL0     H67060   1.253   6.894   5.624 -4.5631 -3.1637  1.5966
  497MOL0     H67061   0.983   6.704   5.751  1.2519 -0.7723  1.0565
  497MOL0     H67062   1.150   6.731   5.699  1.2554  1.2210  1.7059
  497MOL0     H67063   1.142   6.959   5.791  0.4977  0.9688  1.8413
  497MOL0     H67064   0.987   6.932   5.864 -0.9875  0.8614 -2.3472
  497MOL0     H67065   1.161   6.880   6.039 -2.1297  2.6196 -1.6703
  497MOL0     H67066   1.229   6.753   5.944  0.5555 -0.1915  1.2030
  497MOL0     H67067   0.929   6.752   5.974  0.1447  0.9977 -1.8415
  497MOL0     H67068   1.032   6.621   5.941 -0.1101 -0.3610 -0.5628
  497MOL0     H67069   0.952   6.616   6.182 -0.1378  0.6900  0.5375
  497MOL0     H67070   1.060   6.747   6.221  0.7060 -1.8110  1.6907
  497MOL0     H67071   1.103   6.468   6.124  0.0378  0.6304 -0.9479
  497MOL0     H67072   1.234   6.580   6.096  2.6143 -1.1106  3.0092
  497MOL0     H67073   1.096   6.492   6.360 -0.9977  0.2179 -1.9256
  497MOL0     H67074   1.228   6.610   6.366  0.5058  1.7365 -2.1262
  497MOL0     H67075   1.371   6.413   6.280  0.5369 -1.4104 -1.0154
  497MOL0     H67076   1.225   6.314   6.240 -0.5982 -0.5542  1.7072
  497MOL0     H67077   0.919   6.919   5.358 -0.9076  0.2538  2.0822
  497MOL0     H67078   1.070   7.066   5.197 -1.2979  1.9281  1.7440
  497MOL0     H67079   1.555   7.111   5.159 -0.4239  0.5009  1.6082
  497MOL0     H67080   1.731   7.180   5.052 -0.1871 -0.3965  1.3159
  497MOL0     H67081   3.488   7.893   5.286 -2.5567 -0.0215 -1.8001
  497MOL0     H67082   3.731   7.971   5.275  0.9122 -0.1529 -0.8808
  497MOL0     H67083   4.172   7.928   4.864  2.6551 -0.2512 -1.5655
  497MOL0     H67084   4.385   8.014   4.875 -0.2630  1.4260 -2.4018
  497MOL0     H67085   4.592   8.085   4.928 -0.0082  0.0338  1.1630
  497MOL0     H67086   4.537   8.185   4.808 -2.6499 -1.0425  1.0739
  497MOL0     H67087   4.795   8.242   4.884  0.1822  0.0117 -1.9539
  497MOL0     H67088   4.724   8.308   5.027  0.2412 -1.6796  0.4926
  497MOL0     H67089   4.586   8.453   4.872 -0.7291 -0.9241 -0.7541
  497MOL0     H67090   4.678   8.375   4.735  2.4144 -0.8268 -0.4037
  497MOL0     H67091   4.782   8.546   4.971  0.1228 -0.5207 -0.2489
  497MOL0     H67092   4.758   8.610   4.825 -0.5147 -0.1648  1.6532
  497MOL0     H67093   5.138   8.437   4.779 -0.9816 -3.9812 -0.2051
  497MOL0     H67094   4.265   8.352   5.109  1.4448  0.4956 -0.3773
  497MOL0     H67095   4.034   8.246   5.123  0.9764  0.8271 -0.4214
  498MOL0     O67096   1.685   0.583   0.340 -0.4901 -0.1473  0.1734
  498MOL0     C67097   1.670   0.488   0.414  0.0306 -0.7345 -0.0531
  498MOL0     O67098   1.758   0.431   0.498 -0.0138  0.6951  0.5220
  498MOL0     C67099   1.887   0.480   0.508  0.2191 -0.3835 -0.3526
  498MOL0     C67100   1.982   0.470   0.408 -0.4128 -0.4086  0.3579
  498MOL0     C67101   2.108   0.522   0.420 -1.0270  0.9156  0.5072
  498MOL0     C67102   2.147   0.583   0.544  0.5344 -0.1088  0.7982
  498MOL0     O67103   2.277   0.611   0.544 -0.1414 -0.2779 -0.5175
  498MOL0     C67104   2.345   0.693   0.647  0.9936  0.3799 -1.3023
  498MOL0     C67105   2.303   0.824   0.679  0.0057 -1.2975  0.7263
  498MOL0     C67106   2.398   0.888   0.782 -0.1797 -1.0494 -0.7463
  498MOL0     C67107   2.542   0.903   0.742 -0.2338  0.7571 -0.0541
  498MOL0     C67108   2.632   0.981   0.843 -0.7363  0.3157 -0.4837
  498MOL0     C67109   2.642   0.907   0.976  0.0995 -0.2948 -0.0154
  498MOL0     C67110   2.763   0.954   1.051  0.3970 -0.1142  0.2102
  498MOL0     C67111   2.885   0.864   1.039 -0.3112 -0.4575  0.3576
  498MOL0     N67112   2.952   0.861   0.910 -0.3643  0.2395  0.0266
  498MOL0     C67113   2.916   0.782   0.810 -0.2259  0.5682  0.6199
  498MOL0     C67114   2.987   0.829   0.705 -0.0771  0.6795 -0.5728
  498MOL0     C67115   2.962   0.792   0.559  0.7818 -0.2318 -0.0516
  498MOL0     C67116   2.878   0.892   0.480  0.1476 -0.6118  0.0686
  498MOL0     C67117   2.882   0.840   0.341  0.2383 -0.5650  0.4912
  498MOL0     C67118   2.765   0.899   0.257 -0.6283 -0.0554 -0.0677
  498MOL0     O67119   2.777   0.859   0.118  0.1074  0.1329  0.2051
  498MOL0     C67120   2.691   0.922   0.026  0.2639  0.3786  0.2587
  498MOL0     C67121   2.608   1.040   0.040 -0.1460 -0.3198 -0.5565
  498MOL0     C67122   2.508   1.086  -0.045 -1.0917  0.4897  0.3470
  498MOL0     C67123   2.442   1.213  -0.008  0.9468  0.9070  0.6989
  498MOL0     C67124   2.496   1.019  -0.166  0.5260 -0.8537  0.8376
  498MOL0     C67125   2.407   1.064  -0.272 -0.3582 -0.6586  0.5319
  498MOL0     O67126   2.407   0.997  -0.394  0.1267 -0.2450  0.3885
  498MOL0     C67127   2.307   1.019  -0.493  0.1269  0.6756 -0.5014
  498MOL0     C67128   2.342   1.020  -0.628  0.3178 -0.4115  0.4824
  498MOL0     C67129   2.242   1.044  -0.731 -0.0356  0.6157 -1.0770
  498MOL0     C67130   2.106   1.057  -0.687  0.7885  0.9437 -0.7181
  498MOL0     O67131   2.014   1.063  -0.787  0.3966 -0.0254  0.2672
  498MOL0     C67132   2.045   1.183  -0.873  0.4307  0.2728  0.3239
  498MOL0     C67133   1.923   1.279  -0.883  0.1957  0.0064 -0.2911
  498MOL0     C67134   1.792   1.217  -0.923 -0.4001  0.0561 -0.1721
  498MOL0     C67135   1.694   1.335  -0.931 -0.7322  0.0307 -0.2397
  498MOL0     C67136   1.552   1.277  -0.964 -0.9457 -0.2346 -0.2466
  498MOL0     C67137   1.444   1.389  -0.984 -0.2669 -0.1956 -0.3673
  498MOL0     C67138   1.402   1.435  -0.843 -0.0028 -0.1821  0.5304
  498MOL0     C67139   1.310   1.560  -0.840  0.3011 -0.0765  0.3303
  498MOL0    Cl67140   1.413   1.698  -0.879  0.4086 -0.0471  0.2349
  498MOL0     C67141   2.070   1.045  -0.554 -0.3376 -0.1512  0.0111
  498MOL0     C67142   2.171   1.038  -0.463  0.3085  0.7032 -0.4253
  498MOL0     O67143   2.347   1.168  -0.260  0.4392 -0.5048  0.0042
  498MOL0     C67144   2.583   0.900  -0.191 -0.6146  1.0230 -0.2794
  498MOL0     C67145   2.680   0.853  -0.096 -0.0282  0.0396 -0.3514
  498MOL0     N67146   3.069   0.932   0.746  0.5680  0.1926  0.6737
  498MOL0     N67147   3.047   0.951   0.872  0.2596  0.1043 -0.8156
  498MOL0     C67148   2.050   0.591   0.642  0.3464 -0.3865 -0.2618
  498MOL0     C67149   1.925   0.540   0.629 -0.7663 -0.6548 -0.7526
  498MOL0     C67150   1.540   0.421   0.419 -0.0787  0.0099 -0.0797
  498MOL0     C67151   1.433   0.472   0.342 -0.1537  0.1282  0.5401
  498MOL0     C67152   1.306   0.412   0.330 -0.0466 -0.0576 -0.0343
  498MOL0     C67153   1.279   0.309   0.420  0.0862  1.1918  0.2558
  498MOL0     O67154   1.157   0.253   0.443  0.5378  0.2831 -0.9169
  498MOL0     C67155   1.043   0.292   0.368 -0.1302 -0.5820 -0.6554
  498MOL0     C67156   0.914   0.242   0.439  0.4171  0.2766  0.1165
  498MOL0     C67157   0.915   0.089   0.463  0.4681  0.3796 -0.5970
  498MOL0     C67158   0.942  -0.010   0.339  0.1754  0.2752 -0.2414
  498MOL0     C67159   0.824  -0.003   0.243 -0.3962 -0.2335  0.2567
  498MOL0     C67160   0.735   0.006   0.161  0.3185  0.1839  0.0389
  498MOL0     C67161   1.379   0.258   0.503 -0.4065  0.0764  0.2823
  498MOL0     C67162   1.507   0.316   0.508 -0.8221 -0.2245  0.0577
  498MOL0     H67163   1.965   0.423   0.312 -1.1430  1.0265 -0.2436
  498MOL0     H67164   2.185   0.503   0.346 -1.7119 -1.6453  0.3557
  498MOL0     H67165   2.344   0.634   0.740 -0.0518 -1.2497 -2.2967
  498MOL0     H67166   2.443   0.697   0.599  0.0810  3.3856 -3.1844
  498MOL0     H67167   2.289   0.895   0.597  0.9360 -0.5956  1.1537
  498MOL0     H67168   2.204   0.811   0.724  1.1618 -1.8332  3.3378
  498MOL0     H67169   2.353   0.986   0.803  0.1759 -0.4519 -2.5772
  498MOL0     H67170   2.392   0.827   0.873 -5.6817 -0.1881 -0.1515
  498MOL0     H67171   2.587   0.804   0.733  1.1260  1.4074 -0.7802
  498MOL0     H67172   2.552   0.953   0.645  1.1467 -1.9772 -1.4315
  498MOL0     H67173   2.733   0.992   0.801 -0.0530 -1.6312  0.5151
  498MOL0     H67174   2.594   1.083   0.855  1.0679  1.0147 -0.2542
  498MOL0     H67175   2.555   0.932   1.038  0.4607  0.1381  0.3239
  498MOL0     H67176   2.644   0.799   0.966  2.1536 -0.3250  0.3687
  498MOL0     H67177   2.782   1.057   1.023  1.9968 -1.3460 -3.9789
  498MOL0     H67178   2.740   0.949   1.158 -0.4712 -1.7481 -0.0076
  498MOL0     H67179   2.861   0.758   1.051  1.4852 -0.7853  1.4345
  498MOL0     H67180   2.950   0.897   1.121 -0.5652 -0.7327  0.6696
  498MOL0     H67181   2.836   0.710   0.795 -1.5561  2.0588  0.2755
  498MOL0     H67182   3.058   0.784   0.506  0.8041  1.0524 -0.2431
  498MOL0     H67183   2.900   0.702   0.561 -0.8713  0.7839 -2.2789
  498MOL0     H67184   2.911   0.996   0.476 -0.6564 -0.3721 -1.2199
  498MOL0     H67185   2.773   0.899   0.511  0.5259 -1.4546  1.6085
  498MOL0     H67186   2.870   0.731   0.339 -2.7310 -0.3201  0.4067
  498MOL0     H67187   2.976   0.856   0.288 -0.5545  2.0848 -0.2695
  498MOL0     H67188   2.768   1.008   0.269  2.6446 -0.0410 -0.1488
  498MOL0     H67189   2.670   0.872   0.305 -1.4584  0.6352 -1.2650
  498MOL0     H67190   2.612   1.081   0.141 -2.9007 -0.8137 -0.1490
  498MOL0     H67191   2.477   1.239   0.092 -0.6214 -1.1592  1.8888
  498MOL0     H67192   2.457   1.300  -0.072 -1.9423 -1.3389 -3.5639
  498MOL0     H67193   2.333   1.204  -0.006  0.9893  0.2267  0.3814
  498MOL0     H67194   2.445   1.000  -0.658  0.5116 -2.5944  2.3324
  498MOL0     H67195   2.279   1.058  -0.832 -0.5229 -0.2155 -1.3788
  498MOL0     H67196   2.132   1.237  -0.838  0.5595  0.5752 -0.4406
  498MOL0     H67197   2.058   1.155  -0.978  0.8575  3.1464 -0.4573
  498MOL0     H67198   1.907   1.308  -0.779 -1.2378  1.5631 -0.8952
  498MOL0     H67199   1.938   1.371  -0.940 -1.4446  1.1431  1.0104
  498MOL0     H67200   1.743   1.166  -0.840 -1.7305 -0.2928 -1.1351
  498MOL0     H67201   1.806   1.152  -1.010 -2.6575 -1.9981  0.8793
  498MOL0     H67202   1.705   1.394  -0.840  4.4155 -0.5670 -0.2023
  498MOL0     H67203   1.729   1.392  -1.018  3.5223 -0.2032  1.0840
  498MOL0     H67204   1.514   1.212  -0.884 -2.4618  0.4016 -0.4136
  498MOL0     H67205   1.566   1.229  -1.061 -0.8822  2.3402 -1.5757
  498MOL0     H67206   1.497   1.468  -1.037  0.0980 -1.1486 -1.4719
  498MOL0     H67207   1.352   1.362  -1.035 -1.4375  0.1958  1.4515
  498MOL0     H67208   1.489   1.479  -0.793 -1.9811  2.0606  2.2411
  498MOL0     H67209   1.366   1.349  -0.785  1.4111  0.0370  1.7844
  498MOL0     H67210   1.273   1.568  -0.738 -0.9546 -2.2525  0.1117
  498MOL0     H67211   1.228   1.567  -0.913  1.3283  0.9119 -0.7789
  498MOL0     H67212   1.964   1.045  -0.533 -0.2780  1.5539  0.4444
  498MOL0     H67213   2.153   1.057  -0.357 -0.7862 -0.7123 -0.3369
  498MOL0     H67214   2.573   0.851  -0.287 -1.7353  1.9991 -0.6829
  498MOL0     H67215   2.744   0.767  -0.114 -0.0621  0.3045 -1.8705
  498MOL0     H67216   2.083   0.640   0.733 -1.0310 -1.4341  0.8375
  498MOL0     H67217   1.852   0.539   0.709  0.0925  3.0861  0.3049
  498MOL0     H67218   1.457   0.544   0.265 -1.0311 -1.2296 -1.0770
  498MOL0     H67219   1.238   0.465   0.265  1.2623  0.7819 -0.7771
  498MOL0     H67220   1.034   0.400   0.354  2.0678 -0.3086 -0.4507
  498MOL0     H67221   1.038   0.250   0.267 -1.6148 -1.7414 -0.1352
  498MOL0     H67222   0.828   0.262   0.373 -0.7355 -1.4895  1.0101
  498MOL0     H67223   0.903   0.307   0.527  1.2221  2.0442 -1.0391
  498MOL0     H67224   0.829   0.052   0.520  2.0028 -0.3570  1.3525
  498MOL0     H67225   0.987   0.068   0.543 -0.5313  0.7045  0.4248
  498MOL0     H67226   0.959  -0.113   0.372 -0.9457 -0.8040 -2.7928
  498MOL0     H67227   1.030   0.024   0.284  1.4374 -1.8612  0.3215
  498MOL0     H67228   0.651   0.018   0.095 -0.4693 -1.6113  0.6291
  498MOL0     H67229   1.351   0.177   0.570  0.3104 -2.0095 -1.7788
  498MOL0     H67230   1.586   0.288   0.577 -1.3629 -1.2943  0.2606
  499MOL0     O67231   8.953   3.826   2.231  1.3294  0.4487  0.0829
  499MOL0     C67232   8.903   3.753   2.319  0.3816  0.0732  0.1698
  499MOL0     O67233   8.783   3.687   2.320 -0.3590 -0.2777  0.1282
  499MOL0     C67234   8.696   3.682   2.212 -0.2317  0.3030  0.9523
  499MOL0     C67235   8.680   3.790   2.121 -0.5295  0.2035  0.6393
  499MOL0     C67236   8.580   3.794   2.024  0.2778 -1.0767 -0.3595
  499MOL0     C67237   8.486   3.695   2.013  0.1398 -0.9502  1.0344
  499MOL0     O67238   8.384   3.703   1.932  0.5292  0.2461 -0.2153
  499MOL0     C67239   8.266   3.621   1.945  0.2473  0.4537 -0.0633
  499MOL0     C67240   8.155   3.660   1.842  0.1398 -0.0545 -0.0180
  499MOL0     C67241   8.074   3.784   1.865 -0.2067 -0.5418  0.2977
  499MOL0     C67242   7.973   3.790   1.746 -0.3658 -0.0633 -0.3706
  499MOL0     C67243   7.847   3.869   1.759  0.6395 -0.0919  1.0406
  499MOL0     C67244   7.752   3.803   1.863  0.4901  0.6587  1.3131
  499MOL0     C67245   7.616   3.876   1.852 -0.5116  0.0916  0.0488
  499MOL0     C67246   7.531   3.832   1.733 -0.1836  0.6626  0.4386
  499MOL0     N67247   7.413   3.920   1.733  0.2598 -0.2288 -0.2272
  499MOL0     C67248   7.326   3.958   1.836 -0.0673 -0.0759 -0.8741
  499MOL0     C67249   7.237   4.053   1.794 -0.9686  0.0868 -0.1388
  499MOL0     C67250   7.129   4.134   1.865 -0.2907 -0.0895 -0.0925
  499MOL0     C67251   7.004   4.048   1.859 -0.4933 -0.1639 -0.4709
  499MOL0     C67252   6.886   4.112   1.939 -0.4700 -0.0904  0.2156
  499MOL0     C67253   6.752   4.032   1.936  0.1123  0.7027  0.7925
  499MOL0     O67254   6.673   4.078   2.035 -0.6297 -0.2415  0.6466
  499MOL0     C67255   6.559   4.008   2.056  0.4635  1.0142  0.4433
  499MOL0     C67256   6.560   3.906   2.152  0.8561  0.1792 -0.3399
  499MOL0     C67257   6.442   3.827   2.163 -0.4058 -0.7318 -0.9148
  499MOL0     C67258   6.461   3.716   2.268  0.3876 -0.1114  0.0141
  499MOL0     C67259   6.335   3.838   2.068 -0.2846  0.7145 -0.2011
  499MOL0     C67260   6.215   3.749   2.052 -1.0132 -0.5851 -0.3270
  499MOL0     O67261   6.102   3.807   2.005 -0.4380 -0.0749 -0.3367
  499MOL0     C67262   5.985   3.738   2.035 -0.3311  0.2939  0.4123
  499MOL0     C67263   5.958   3.704   2.180  0.8951 -0.1460  0.1766
  499MOL0     C67264   5.837   3.627   2.195  0.0385  0.2778  0.4700
  499MOL0     C67265   5.748   3.612   2.094  0.0353 -0.2940 -0.2662
  499MOL0     O67266   5.626   3.567   2.121 -0.2629 -0.0670 -0.1436
  499MOL0     C67267   5.606   3.423   2.125 -0.3445 -0.3580  0.3887
  499MOL0     C67268   5.457   3.389   2.151  0.1067 -0.1785  0.1752
  499MOL0     C67269   5.366   3.435   2.032 -0.5563  0.3874  0.0244
  499MOL0     C67270   5.227   3.395   2.049  0.5255  0.8500 -0.2629
  499MOL0     C67271   5.129   3.472   1.957 -0.4587 -0.1079  0.0582
  499MOL0     C67272   5.147   3.422   1.815 -0.1040  0.6726  0.5470
  499MOL0     C67273   5.042   3.466   1.718  0.3528 -0.2154  0.1514
  499MOL0     C67274   5.043   3.615   1.690 -0.5395  0.1931  0.2739
  499MOL0    Cl67275   5.208   3.660   1.634  0.8428 -0.2055 -0.0833
  499MOL0     C67276   5.782   3.655   1.962 -0.4705 -0.8246  0.0262
  499MOL0     C67277   5.903   3.715   1.932  0.1933  0.7551  0.4528
  499MOL0     O67278   6.238   3.629   2.064 -0.4712 -0.2367  0.0590
  499MOL0     C67279   6.354   3.935   1.973 -0.4265 -1.0766  0.2333
  499MOL0     C67280   6.458   4.025   1.960 -0.3994  0.1778 -0.3833
  499MOL0     N67281   7.278   4.079   1.658  0.1851  0.6327 -1.1397
  499MOL0     N67282   7.375   3.997   1.630 -0.3478  0.0511  0.0326
  499MOL0     C67283   8.509   3.582   2.103  0.6513 -0.0314  0.7292
  499MOL0     C67284   8.614   3.574   2.192  0.4742  0.5760 -0.2307
  499MOL0     C67285   8.979   3.741   2.445  0.0182  0.3058 -0.4098
  499MOL0     C67286   8.915   3.723   2.575 -1.2551  0.2195  0.0902
  499MOL0     C67287   8.991   3.713   2.690  0.7785  0.9554 -0.3367
  499MOL0     C67288   9.122   3.742   2.685  0.2154  0.3353  0.7509
  499MOL0     O67289   9.196   3.766   2.798 -0.4590  0.7193  0.1128
  499MOL0     C67290   9.138   3.720   2.925 -0.0249  1.1268 -0.6748
  499MOL0     C67291   9.235   3.705   3.046  0.5687  0.3362 -1.2586
  499MOL0     C67292   9.348   3.615   3.011  0.0450  0.1026  0.9780
  499MOL0     C67293   9.456   3.618   3.114 -0.5362  0.9930  0.3766
  499MOL0     C67294   9.566   3.533   3.071  0.1622 -0.2223 -0.0311
  499MOL0     C67295   9.658   3.457   3.036 -0.2575  0.6849  0.1625
  499MOL0     C67296   9.186   3.765   2.563 -0.3534 -0.6903  0.0846
  499MOL0     C67297   9.116   3.760   2.445  0.3976 -0.1257  0.0194
  499MOL0     H67298   8.735   3.884   2.129 -2.1390  1.2194  0.2687
  499MOL0     H67299   8.553   3.887   1.975  2.0293 -0.9989 -1.2795
  499MOL0     H67300   8.294   3.516   1.931  0.6245  0.6207 -0.5841
  499MOL0     H67301   8.230   3.630   2.048  3.5533  0.7596  1.1986
  499MOL0     H67302   8.198   3.665   1.742  1.4978 -2.3904  0.3599
  499MOL0     H67303   8.080   3.580   1.835 -1.4063  1.2899  0.5634
  499MOL0     H67304   8.027   3.787   1.964  2.3853  4.8039  1.8039
  499MOL0     H67305   8.132   3.877   1.858  2.0156 -1.9402 -1.3798
  499MOL0     H67306   8.025   3.839   1.663  0.1147 -1.4121 -0.8912
  499MOL0     H67307   7.946   3.689   1.713 -2.9017  0.7973 -1.2086
  499MOL0     H67308   7.853   3.974   1.792 -2.5091  1.2448 -2.0366
  499MOL0     H67309   7.796   3.875   1.662 -0.4689  0.2065  1.6172
  499MOL0     H67310   7.735   3.695   1.860 -3.0241  0.9852  3.3986
  499MOL0     H67311   7.788   3.817   1.966 -0.2758  1.6987  1.4538
  499MOL0     H67312   7.569   3.844   1.945 -0.3181 -1.1635 -0.2659
  499MOL0     H67313   7.626   3.985   1.856 -1.3223  0.2617 -1.6013
  499MOL0     H67314   7.502   3.727   1.741 -0.0135  0.6829  1.5034
  499MOL0     H67315   7.583   3.839   1.637  1.3030  2.2683  1.2920
  499MOL0     H67316   7.324   3.923   1.939  1.3297 -0.7250 -1.0558
  499MOL0     H67317   7.158   4.148   1.969  0.8611  3.6988 -0.7814
  499MOL0     H67318   7.107   4.236   1.831  1.7130  2.1725  4.4996
  499MOL0     H67319   7.024   3.945   1.890  0.0273  0.1178  0.1523
  499MOL0     H67320   6.978   4.057   1.753  0.3981  0.9417 -0.6070
  499MOL0     H67321   6.867   4.211   1.896 -0.3352  0.0880  0.5561
  499MOL0     H67322   6.919   4.124   2.043  0.6016 -0.1768 -0.1064
  499MOL0     H67323   6.767   3.924   1.940  6.5265  1.1219 -0.3934
  499MOL0     H67324   6.701   4.058   1.843  0.0979  1.1628  0.9281
  499MOL0     H67325   6.652   3.888   2.208  0.3612 -1.3399  0.0250
  499MOL0     H67326   6.371   3.663   2.298  0.4518 -0.6502 -0.7158
  499MOL0     H67327   6.529   3.644   2.223  0.3119  1.6756 -3.3409
  499MOL0     H67328   6.497   3.767   2.358 -0.8915 -1.6110  1.4343
  499MOL0     H67329   6.026   3.730   2.261  0.8952  0.0119  0.1273
  499MOL0     H67330   5.798   3.583   2.286  3.5584 -1.5562  1.2609
  499MOL0     H67331   5.644   3.395   2.026  2.3499  0.4792  1.1173
  499MOL0     H67332   5.664   3.382   2.208 -0.3880  1.3255  1.2727
  499MOL0     H67333   5.446   3.280   2.154  1.8748 -0.4396 -1.4848
  499MOL0     H67334   5.432   3.436   2.247 -1.7192 -3.3044  1.3892
  499MOL0     H67335   5.409   3.401   1.937 -0.2893  0.7430  0.0157
  499MOL0     H67336   5.364   3.543   2.018 -2.0504  0.0162 -3.5906
  499MOL0     H67337   5.209   3.289   2.030  1.7804  1.2608 -5.4152
  499MOL0     H67338   5.192   3.423   2.149 -0.3197  3.1853 -1.1296
  499MOL0     H67339   5.146   3.580   1.951 -1.4217  0.0270 -0.6419
  499MOL0     H67340   5.028   3.460   1.996 -1.0501 -2.5292 -1.9447
  499MOL0     H67341   5.245   3.456   1.780  0.3361 -0.4791  0.6367
  499MOL0     H67342   5.147   3.313   1.813 -1.7236  0.6323  1.4017
  499MOL0     H67343   4.939   3.446   1.751 -0.3725  1.0508 -1.2413
  499MOL0     H67344   5.063   3.415   1.624  1.5128 -0.3310  0.4512
  499MOL0     H67345   5.002   3.679   1.769  0.3971  0.2420  0.7269
  499MOL0     H67346   4.978   3.637   1.604 -0.5325  0.9935  0.4707
  499MOL0     H67347   5.718   3.634   1.877  1.3204  1.8480 -2.1748
  499MOL0     H67348   5.926   3.755   1.833 -3.7578  1.0567 -0.5244
  499MOL0     H67349   6.274   3.940   1.900 -0.8068  1.4020  0.7152
  499MOL0     H67350   6.468   4.101   1.883  0.8719  0.5332  0.1159
  499MOL0     H67351   8.448   3.492   2.097  0.8802 -0.2091  1.0373
  499MOL0     H67352   8.622   3.482   2.249  0.4246  0.0801 -1.0107
  499MOL0     H67353   8.810   3.696   2.582 -0.9836 -1.2517 -0.9992
  499MOL0     H67354   8.925   3.692   2.774 -1.3506  2.3046 -1.5557
  499MOL0     H67355   9.064   3.796   2.954  0.2305  1.0767  0.1512
  499MOL0     H67356   9.097   3.619   2.922  2.0188  0.1403  1.2347
  499MOL0     H67357   9.187   3.673   3.139  0.2636  4.8195  0.3808
  499MOL0     H67358   9.279   3.801   3.074  0.2933  1.0363 -3.0786
  499MOL0     H67359   9.395   3.639   2.915  1.2122 -0.6029  1.3456
  499MOL0     H67360   9.311   3.514   2.989 -0.3899  0.7555 -1.7024
  499MOL0     H67361   9.419   3.579   3.209  1.4940  0.1394  0.8610
  499MOL0     H67362   9.492   3.719   3.137 -0.7469  0.5891  2.6321
  499MOL0     H67363   9.744   3.403   3.001 -2.9774 -3.9263 -0.1688
  499MOL0     H67364   9.294   3.775   2.556 -0.5120  0.3492 -1.6458
  499MOL0     H67365   9.165   3.785   2.352  0.8017  2.1732  0.7805
  500MOL0     O67366   7.233   7.698   7.346 -0.2418 -0.5779 -0.6426
  500MOL0     C67367   7.271   7.725   7.460 -0.7139 -0.1618  0.0918
  500MOL0     O67368   7.198   7.778   7.565  0.5704 -0.4614 -0.4808
  500MOL0     C67369   7.067   7.791   7.539 -0.5491  0.1284  0.6002
  500MOL0     C67370   7.027   7.921   7.508  0.4140 -0.0150  0.1780
  500MOL0     C67371   6.894   7.952   7.481  0.4320 -0.2573 -0.3226
  500MOL0     C67372   6.801   7.846   7.476 -0.7117  1.1293  0.2898
  500MOL0     O67373   6.664   7.849   7.447 -0.2270  0.0471  0.3978
  500MOL0     C67374   6.610   7.980   7.460 -0.0121 -0.0210 -0.0175
  500MOL0     C67375   6.461   7.951   7.450  0.2241  0.2520  0.0861
  500MOL0     C67376   6.380   8.082   7.471 -1.6782 -0.3832  0.2579
  500MOL0     C67377   6.234   8.063   7.473 -0.7235 -0.1128  0.5135
  500MOL0     C67378   6.175   8.200   7.504  0.2125  0.0917 -0.1717
  500MOL0     C67379   6.154   8.219   7.656 -0.9687 -0.8946 -0.6032
  500MOL0     C67380   6.026   8.155   7.723  0.1500 -0.6105 -0.2135
  500MOL0     C67381   5.953   8.249   7.810 -0.1538 -0.3308  0.5902
  500MOL0     N67382   5.861   8.166   7.881  0.8433  0.1228 -0.0587
  500MOL0     C67383   5.736   8.140   7.819  0.3338 -0.4569  0.2821
  500MOL0     C67384   5.664   8.080   7.912  0.3542 -0.3195 -0.2923
  500MOL0     C67385   5.526   8.034   7.899  0.7079  0.0908 -0.4280
  500MOL0     C67386   5.436   8.058   8.024 -0.8159 -0.6197 -0.2137
  500MOL0     C67387   5.389   8.200   8.047 -0.4862 -0.0203 -0.8846
  500MOL0     C67388   5.304   8.258   7.928 -0.0991  0.2278  0.6085
  500MOL0     O67389   5.297   8.399   7.931  0.4852  0.3114 -0.5978
  500MOL0     C67390   5.232   8.461   8.034 -0.2985 -0.4764 -0.4663
  500MOL0     C67391   5.252   8.594   8.030  0.1525 -0.3605  0.1043
  500MOL0     C67392   5.193   8.682   8.116  0.4044 -0.7906 -0.6402
  500MOL0     C67393   5.220   8.831   8.090  0.4934 -0.0607 -0.0100
  500MOL0     C67394   5.110   8.629   8.225 -0.7450  1.3061 -0.4107
  500MOL0     C67395   5.068   8.714   8.349 -0.5419 -0.1777 -0.1712
  500MOL0     O67396   4.972   8.669   8.431  0.7987 -0.2631 -0.7447
  500MOL0     C67397   4.922   8.743   8.533  0.8679  0.3432 -0.6049
  500MOL0     C67398   4.952   8.718   8.668  0.1839 -0.0980  0.3104
  500MOL0     C67399   4.894   8.790   8.776 -0.5312  0.5140  0.2409
  500MOL0     C67400   4.793   8.876   8.759  0.2559  0.0125 -0.4641
  500MOL0     O67401   4.728   8.937   8.858 -0.4614  0.3883 -0.7833
  500MOL0     C67402   4.708   8.869   8.978  0.5849  0.0870 -0.6810
  500MOL0     C67403   4.565   8.901   9.031  0.4315  0.3682  0.8853
  500MOL0     C67404   4.525   8.806   9.151  0.5432 -0.1559  0.4700
  500MOL0     C67405   4.365   8.804   9.160 -0.4754  0.0318 -0.1881
  500MOL0     C67406   4.307   8.714   9.276  0.2568 -0.4740 -0.1888
  500MOL0     C67407   4.156   8.729   9.304  0.4568 -0.0248 -0.0295
  500MOL0     C67408   4.073   8.663   9.189 -0.6323  0.7658 -0.3916
  500MOL0     C67409   3.956   8.585   9.259  0.5431  0.3124 -0.1568
  500MOL0    Cl67410   3.818   8.688   9.280  0.3435 -0.3066 -0.7915
  500MOL0     C67411   4.776   8.919   8.625 -0.4444  0.2558 -0.3223
  500MOL0     C67412   4.833   8.853   8.513  0.6444  0.2230  1.1067
  500MOL0     O67413   5.141   8.814   8.370 -0.0501  0.4638 -0.1769
  500MOL0     C67414   5.089   8.490   8.225  0.1434 -0.7700  0.4006
  500MOL0     C67415   5.151   8.407   8.129  0.8829 -0.3401  0.2206
  500MOL0     N67416   5.745   8.069   8.024 -1.0664 -0.8729  0.3154
  500MOL0     N67417   5.861   8.115   8.006 -0.7742 -0.6403  0.2886
  500MOL0     C67418   6.847   7.716   7.494 -1.1092  0.4058  0.1224
  500MOL0     C67419   6.981   7.688   7.530  0.0843  0.2192  0.1645
  500MOL0     C67420   7.416   7.699   7.495  0.1697 -0.8267 -0.2065
  500MOL0     C67421   7.518   7.648   7.401  0.9225  1.2156 -0.4854
  500MOL0     C67422   7.650   7.622   7.441 -0.1325 -0.0329 -0.0079
  500MOL0     C67423   7.682   7.659   7.567 -0.2747  1.0480 -0.7904
  500MOL0     O67424   7.816   7.636   7.599  0.8983 -0.4392  0.3745
  500MOL0     C67425   7.897   7.720   7.692  0.0256  0.1617 -0.0945
  500MOL0     C67426   8.042   7.687   7.700 -0.1034 -0.1176 -0.2431
  500MOL0     C67427   8.071   7.543   7.739 -0.1881  0.9157  0.4344
  500MOL0     C67428   8.227   7.498   7.725 -0.0100 -0.3746 -0.1873
  500MOL0     C67429   8.257   7.409   7.617 -0.3630 -0.4058  0.7258
  500MOL0     C67430   8.290   7.326   7.536 -0.3834  0.5637  0.5751
  500MOL0     C67431   7.592   7.711   7.658 -0.0187  0.5969 -0.0565
  500MOL0     C67432   7.459   7.731   7.622 -0.0254  0.5105 -0.2223
  500MOL0     H67433   7.109   7.989   7.489 -0.0635 -0.3164 -3.8337
  500MOL0     H67434   6.868   8.057   7.474 -3.2840 -0.9888  0.6166
  500MOL0     H67435   6.626   8.019   7.561  2.0725  0.0254 -0.3229
  500MOL0     H67436   6.640   8.043   7.376 -3.0023 -0.3394 -1.4744
  500MOL0     H67437   6.438   7.915   7.350 -1.8424  2.6871 -0.4502
  500MOL0     H67438   6.435   7.871   7.520 -0.7213  0.1206 -0.4018
  500MOL0     H67439   6.419   8.147   7.550  3.5068  1.0212 -2.9443
  500MOL0     H67440   6.400   8.149   7.387 -0.2503  0.4133  1.1828
  500MOL0     H67441   6.210   8.035   7.370 -0.4375  1.2829  0.0489
  500MOL0     H67442   6.197   7.985   7.541  0.0631 -0.6759  0.3162
  500MOL0     H67443   6.234   8.275   7.451  0.0561 -0.6032 -1.3791
  500MOL0     H67444   6.074   8.204   7.460  0.3093  2.1085 -0.3176
  500MOL0     H67445   6.250   8.195   7.702 -0.7639  0.5491 -0.2424
  500MOL0     H67446   6.138   8.327   7.658  0.4393 -0.6562 -1.2519
  500MOL0     H67447   5.954   8.129   7.644 -1.7783  4.9756 -0.7268
  500MOL0     H67448   6.061   8.069   7.780  0.0167  0.2722  1.2504
  500MOL0     H67449   5.897   8.323   7.751 -0.7243  0.0455  1.5835
  500MOL0     H67450   6.028   8.291   7.878 -0.2936 -1.1740  1.2732
  500MOL0     H67451   5.716   8.173   7.717  1.7614 -2.0678 -0.5704
  500MOL0     H67452   5.482   8.073   7.806 -0.4902  1.6221  0.7239
  500MOL0     H67453   5.532   7.925   7.896  0.5643  0.0316  0.9505
  500MOL0     H67454   5.486   8.023   8.115 -2.2852 -0.6843  0.6082
  500MOL0     H67455   5.340   8.004   8.023 -0.2017 -1.8193  1.4446
  500MOL0     H67456   5.468   8.271   8.075 -1.5906  0.8535  0.1319
  500MOL0     H67457   5.329   8.197   8.138  0.1491  0.2953 -0.4401
  500MOL0     H67458   5.204   8.214   7.935 -1.0675  2.0984 -0.8916
  500MOL0     H67459   5.350   8.231   7.832 -0.4454  1.6136  0.0298
  500MOL0     H67460   5.313   8.631   7.949  0.5180  1.1852  1.0581
  500MOL0     H67461   5.305   8.862   8.152  1.5907  0.6999 -1.8133
  500MOL0     H67462   5.251   8.838   7.986  0.7368 -4.5827 -0.4552
  500MOL0     H67463   5.133   8.896   8.105 -0.0512 -0.6014 -0.7562
  500MOL0     H67464   5.029   8.642   8.678 -0.6924 -1.2237 -1.0743
  500MOL0     H67465   4.930   8.773   8.877  0.3292  2.7320  0.3543
  500MOL0     H67466   4.705   8.760   8.968 -1.0990 -0.0822  1.0706
  500MOL0     H67467   4.785   8.900   9.049  0.7789 -0.4267 -0.6610
  500MOL0     H67468   4.555   9.007   9.059  1.5124  1.1976 -1.6020
  500MOL0     H67469   4.493   8.876   8.952  0.3722  0.3856  0.9334
  500MOL0     H67470   4.563   8.835   9.249 -0.6662  1.2477  0.5650
  500MOL0     H67471   4.554   8.701   9.143 -3.1363 -1.3217  0.7147
  500MOL0     H67472   4.329   8.907   9.173 -2.3598 -0.7035  0.7695
  500MOL0     H67473   4.332   8.764   9.063  2.3395 -3.0525 -0.0351
  500MOL0     H67474   4.361   8.749   9.364  2.0177  2.7153 -2.3433
  500MOL0     H67475   4.338   8.610   9.260 -0.1380 -1.1761  2.9700
  500MOL0     H67476   4.145   8.685   9.403  1.1101  0.4935  0.2742
  500MOL0     H67477   4.121   8.832   9.313 -0.4597 -0.4542  1.7014
  500MOL0     H67478   4.144   8.593   9.145 -0.2177  0.1350  1.2022
  500MOL0     H67479   4.042   8.730   9.109 -0.9439  2.8781  1.4067
  500MOL0     H67480   3.987   8.552   9.358  1.6469  0.7810 -0.3294
  500MOL0     H67481   3.929   8.496   9.201 -0.8856  0.4911  0.2017
  500MOL0     H67482   4.719   9.010   8.613 -1.5417 -0.5001 -1.0402
  500MOL0     H67483   4.794   8.882   8.416 -1.5090 -1.6950  1.3272
  500MOL0     H67484   5.035   8.443   8.307  0.9694 -1.6301  0.4638
  500MOL0     H67485   5.119   8.303   8.130  2.7426 -0.9823 -1.4161
  500MOL0     H67486   6.782   7.629   7.497 -1.8281  0.9637  1.7896
  500MOL0     H67487   7.021   7.593   7.563  0.5270 -0.2728 -1.6263
  500MOL0     H67488   7.498   7.620   7.298  3.9750  1.0506 -1.1301
  500MOL0     H67489   7.719   7.578   7.370 -2.7204 -0.8573 -2.2129
  500MOL0     H67490   7.874   7.824   7.664  0.6156 -0.1924 -2.0350
  500MOL0     H67491   7.851   7.717   7.791 -1.1604 -1.8287 -0.6506
  500MOL0     H67492   8.101   7.753   7.764 -0.7242  1.2647 -1.0531
  500MOL0     H67493   8.074   7.716   7.600 -0.5364  4.0077  0.6542
  500MOL0     H67494   8.012   7.479   7.672  2.2016  1.9295 -2.8587
  500MOL0     H67495   8.053   7.522   7.845  1.1601 -2.2581  0.1414
  500MOL0     H67496   8.251   7.450   7.820  1.6789  2.3817  0.8829
  500MOL0     H67497   8.287   7.589   7.720 -0.6725  0.0191 -1.6525
  500MOL0     H67498   8.303   7.241   7.472  0.8589 -0.2187  1.8196
  500MOL0     H67499   7.626   7.719   7.761  1.7346  2.7513 -0.7460
  500MOL0     H67500   7.387   7.746   7.701  1.3436 -2.4647  1.7903
  501MOL0     O67501   3.287   6.978   4.879  0.2258  0.2402 -0.3892
  501MOL0     C67502   3.387   6.932   4.822  0.2474 -0.6464 -0.6093
  501MOL0     O67503   3.403   6.906   4.689  0.3583  0.2773  0.2139
  501MOL0     C67504   3.285   6.902   4.611 -0.5299 -0.7263  0.6673
  501MOL0     C67505   3.159   6.857   4.657 -0.0638  0.7523 -0.6105
  501MOL0     C67506   3.051   6.841   4.571  0.0012 -0.1679 -0.0931
  501MOL0     C67507   3.069   6.903   4.445 -0.1806 -0.8914 -0.2944
  501MOL0     O67508   2.962   6.888   4.366 -0.5137  0.7510 -0.2545
  501MOL0     C67509   2.953   6.971   4.252 -0.6700 -0.1731 -0.5875
  501MOL0     C67510   2.826   6.939   4.181  0.5260 -0.4132  0.3814
  501MOL0     C67511   2.786   7.032   4.065  0.2650  0.6797 -0.1721
  501MOL0     C67512   2.681   6.979   3.972 -1.2950 -1.2201  0.1189
  501MOL0     C67513   2.558   6.922   4.036  0.5546  0.6547  0.3765
  501MOL0     C67514   2.453   6.865   3.943  0.0050 -0.8067  0.9230
  501MOL0     C67515   2.416   6.970   3.835 -0.4602 -0.4840  0.4803
  501MOL0     C67516   2.371   7.100   3.898 -0.8349  0.1291 -0.4002
  501MOL0     N67517   2.238   7.086   3.958 -0.2553 -0.1843  0.1710
  501MOL0     C67518   2.199   7.102   4.088  0.0215 -0.3572  0.3446
  501MOL0     C67519   2.067   7.109   4.086 -0.3068  0.3645 -0.0227
  501MOL0     C67520   2.008   7.114   4.227 -0.4505 -0.5151  1.7210
  501MOL0     C67521   1.861   7.064   4.225 -1.2096  0.3211 -0.3933
  501MOL0     C67522   1.849   6.913   4.217 -0.6835 -0.2191  0.0812
  501MOL0     C67523   1.711   6.868   4.191 -0.1612 -0.3911 -0.4689
  501MOL0     O67524   1.613   6.923   4.283  0.1974  0.5741  0.7277
  501MOL0     C67525   1.624   6.919   4.416 -0.5798  0.0523  0.7016
  501MOL0     C67526   1.603   7.034   4.501 -0.0191  0.4161  0.7559
  501MOL0     C67527   1.617   7.022   4.646  0.3668 -0.8517 -0.6939
  501MOL0     C67528   1.589   7.145   4.726 -0.5586 -0.3682 -0.3956
  501MOL0     C67529   1.664   6.895   4.698 -0.2281 -0.0315 -0.3894
  501MOL0     C67530   1.681   6.876   4.839 -0.0629  0.1965 -0.6257
  501MOL0     O67531   1.599   6.795   4.918  0.0857 -0.1878  0.1775
  501MOL0     C67532   1.472   6.779   4.879 -0.6059 -0.1360  0.7456
  501MOL0     C67533   1.432   6.661   4.834 -0.1526  0.4370  0.2577
  501MOL0     C67534   1.302   6.642   4.789  0.3771 -0.6763 -0.1534
  501MOL0     C67535   1.202   6.741   4.817  0.1423  0.1114  0.1313
  501MOL0     O67536   1.068   6.720   4.798 -0.3049  0.1751 -0.8645
  501MOL0     C67537   1.014   6.598   4.756  0.4044 -0.0726 -0.4002
  501MOL0     C67538   0.863   6.580   4.777 -0.0711 -0.0562  0.6420
  501MOL0     C67539   0.788   6.681   4.688  0.6270 -0.0677 -0.3362
  501MOL0     C67540   0.635   6.661   4.676 -0.8889  0.3966 -0.7668
  501MOL0     C67541   0.547   6.781   4.692 -0.1346 -0.0894  0.1141
  501MOL0     C67542   0.409   6.769   4.618  0.2636  0.1759 -0.1919
  501MOL0     C67543   0.315   6.646   4.618  0.5989  0.9142 -0.5569
  501MOL0     C67544   0.188   6.647   4.539  0.1161 -0.2105 -0.3959
  501MOL0    Cl67545   0.094   6.497   4.541 -0.2219 -0.3388  0.1154
  501MOL0     C67546   1.246   6.868   4.866  0.2988 -0.4726  0.1174
  501MOL0     C67547   1.389   6.880   4.894  0.3365 -0.7790  0.6195
  501MOL0     O67548   1.784   6.931   4.889  0.3578 -0.6968  0.4060
  501MOL0     C67549   1.669   6.782   4.614 -0.3540  0.1644  0.5178
  501MOL0     C67550   1.643   6.791   4.475  0.0599 -0.4043  0.3637
  501MOL0     N67551   2.023   7.103   3.954  1.0641 -0.6843  0.2038
  501MOL0     N67552   2.126   7.098   3.878  0.1802 -0.8810 -0.3130
  501MOL0     C67553   3.192   6.949   4.397  0.2891 -0.9582  0.0345
  501MOL0     C67554   3.298   6.944   4.478  0.5674  0.0654 -0.0251
  501MOL0     C67555   3.505   6.908   4.908  0.3427 -0.1377  0.6409
  501MOL0     C67556   3.626   6.877   4.847  0.6777  1.4058 -0.6439
  501MOL0     C67557   3.744   6.853   4.921 -0.9164 -0.6007  0.2414
  501MOL0     C67558   3.746   6.877   5.055 -0.2177  0.7141 -0.1643
  501MOL0     O67559   3.868   6.856   5.118  0.2664 -0.6352  0.0625
  501MOL0     C67560   3.905   6.911   5.248 -0.0301 -0.1104 -0.1911
  501MOL0     C67561   3.936   7.057   5.242 -0.1771 -0.4332 -0.3359
  501MOL0     C67562   4.045   7.098   5.137 -0.4359  0.2290 -0.5062
  501MOL0     C67563   4.079   7.252   5.126 -0.2511 -0.9681  0.6697
  501MOL0     C67564   4.131   7.278   4.988 -0.6375 -0.5184 -0.4426
  501MOL0     C67565   4.182   7.305   4.885  0.0011 -0.5660 -0.2718
  501MOL0     C67566   3.626   6.915   5.119 -0.4501  0.6442  0.7075
  501MOL0     C67567   3.505   6.933   5.044 -0.3865 -0.3604  0.8937
  501MOL0     H67568   3.147   6.804   4.751 -3.9019 -1.0130 -1.8966
  501MOL0     H67569   2.960   6.788   4.595  1.8913 -2.6345  2.2538
  501MOL0     H67570   2.958   7.078   4.273  0.4727 -0.1156 -1.0742
  501MOL0     H67571   3.030   6.948   4.177  1.0061 -2.1072  1.5973
  501MOL0     H67572   2.840   6.837   4.144  0.5991 -1.0573  2.1020
  501MOL0     H67573   2.749   6.936   4.259  2.1087 -1.4395  1.9813
  501MOL0     H67574   2.747   7.127   4.103 -5.1106 -0.8267 -1.1113
  501MOL0     H67575   2.877   7.057   4.010  1.3207 -1.5005  0.4915
  501MOL0     H67576   2.660   7.065   3.907  0.6213  0.5285  1.6411
  501MOL0     H67577   2.723   6.893   3.919  1.9894 -1.0789  2.1833
  501MOL0     H67578   2.584   6.839   4.102 -3.7108  0.6246  2.3517
  501MOL0     H67579   2.524   7.006   4.097  0.0242 -0.0991  1.1529
  501MOL0     H67580   2.492   6.780   3.887  1.2117  0.2412  0.1329
  501MOL0     H67581   2.367   6.829   4.000 -0.6390  1.8377  1.7884
  501MOL0     H67582   2.499   6.988   3.766 -0.9718  2.7181  0.5532
  501MOL0     H67583   2.332   6.937   3.774 -0.2187 -0.1247 -0.0514
  501MOL0     H67584   2.358   7.178   3.824 -0.2007  0.8100  0.1907
  501MOL0     H67585   2.444   7.144   3.967  1.4167 -0.5151 -2.2525
  501MOL0     H67586   2.255   7.088   4.180 -0.8248 -4.2533  0.4711
  501MOL0     H67587   2.064   7.049   4.295  0.7401 -0.9540  0.3645
  501MOL0     H67588   2.012   7.218   4.261 -0.1609  0.0790 -0.0437
  501MOL0     H67589   1.801   7.120   4.154 -0.2450  1.8463 -0.0439
  501MOL0     H67590   1.824   7.098   4.322  0.4628  2.5809 -0.4702
  501MOL0     H67591   1.884   6.870   4.311  3.0969 -1.1383 -1.5814
  501MOL0     H67592   1.907   6.869   4.136 -5.0276 -1.2867 -2.8082
  501MOL0     H67593   1.721   6.759   4.200  2.4375 -0.2568 -0.9340
  501MOL0     H67594   1.681   6.890   4.088 -0.6964  1.9925  0.1460
  501MOL0     H67595   1.575   7.125   4.449  1.3075 -1.2587 -3.2863
  501MOL0     H67596   1.676   7.173   4.786 -1.2625  1.4951 -0.1856
  501MOL0     H67597   1.575   7.230   4.659  0.1985  0.6181  0.6554
  501MOL0     H67598   1.526   7.133   4.815  3.6997 -4.0382  2.5954
  501MOL0     H67599   1.500   6.576   4.832  1.7234  1.8789  0.6194
  501MOL0     H67600   1.277   6.545   4.746  1.0157 -1.2358  0.6931
  501MOL0     H67601   1.028   6.592   4.648 -0.6292  1.7984 -0.6848
  501MOL0     H67602   1.065   6.519   4.812 -0.3059 -0.1561  0.1491
  501MOL0     H67603   0.835   6.479   4.748  1.6846  0.2858 -2.7210
  501MOL0     H67604   0.836   6.586   4.883 -2.1382  0.6154  0.1322
  501MOL0     H67605   0.825   6.679   4.585  0.5943 -0.6173 -0.3426
  501MOL0     H67606   0.809   6.778   4.734  0.1800  0.0766 -0.4302
  501MOL0     H67607   0.604   6.594   4.595  3.1431  0.4439 -2.5993
  501MOL0     H67608   0.598   6.612   4.767 -1.9278  2.9130  0.2464
  501MOL0     H67609   0.600   6.871   4.659  1.0012 -1.0688 -0.8399
  501MOL0     H67610   0.523   6.795   4.798  0.3364  0.0305  0.2069
  501MOL0     H67611   0.339   6.841   4.661 -1.3292 -1.8769  0.8590
  501MOL0     H67612   0.419   6.800   4.514 -1.7847  2.1461  0.1142
  501MOL0     H67613   0.283   6.640   4.722  1.1612 -2.6082 -0.4521
  501MOL0     H67614   0.364   6.551   4.594  0.0950  0.5576 -0.1832
  501MOL0     H67615   0.225   6.651   4.436  1.4920 -3.1532 -0.1149
  501MOL0     H67616   0.120   6.729   4.564 -1.2719 -0.6688 -2.4392
  501MOL0     H67617   1.176   6.949   4.881  1.4299  0.2967  1.4580
  501MOL0     H67618   1.420   6.980   4.921 -0.9946  0.6803 -2.6568
  501MOL0     H67619   1.682   6.682   4.655  1.7340 -0.6634 -1.9217
  501MOL0     H67620   1.654   6.709   4.405  0.5310  0.4453 -0.5784
  501MOL0     H67621   3.213   6.979   4.295  1.3725 -4.1188 -0.7815
  501MOL0     H67622   3.392   6.983   4.439  1.2766 -2.8771 -1.5347
  501MOL0     H67623   3.630   6.860   4.740 -0.4498  0.4207 -0.5572
  501MOL0     H67624   3.828   6.823   4.860 -2.1228  0.8098 -2.2648
  501MOL0     H67625   3.832   6.884   5.325  0.0355 -2.7375 -0.9353
  501MOL0     H67626   4.000   6.859   5.261 -0.3746 -1.5773 -2.7189
  501MOL0     H67627   3.975   7.084   5.340 -0.3719  0.0109 -0.3781
  501MOL0     H67628   3.851   7.123   5.224 -0.5539  0.1870  3.1451
  501MOL0     H67629   4.018   7.063   5.037 -0.9910  1.3174 -0.7572
  501MOL0     H67630   4.131   7.039   5.170 -0.7708 -0.1214 -0.2620
  501MOL0     H67631   4.156   7.264   5.203  0.1276 -1.2572  0.3459
  501MOL0     H67632   3.991   7.309   5.156 -1.0991 -3.0160  2.2498
  501MOL0     H67633   4.221   7.339   4.791 -0.5633 -1.1855 -0.7357
  501MOL0     H67634   3.626   6.939   5.225  0.6992 -1.2932  1.2062
  501MOL0     H67635   3.423   6.975   5.102  1.4806  2.2908  1.7928
  502MOL0     O67636   9.142   1.121   8.374 -0.0227 -0.0691 -0.0135
  502MOL0     C67637   9.187   1.036   8.441 -0.2814  0.5522 -0.2456
  502MOL0     O67638   9.128   0.982   8.553  0.5955 -0.2191 -0.1146
  502MOL0     C67639   9.020   1.054   8.605 -1.1978  0.2072 -0.0520
  502MOL0     C67640   8.888   1.003   8.588 -0.9092  0.4868 -0.0271
  502MOL0     C67641   8.794   1.068   8.660  0.5625  0.1172 -0.0630
  502MOL0     C67642   8.813   1.190   8.725 -0.3424  0.1354  0.0274
  502MOL0     O67643   8.700   1.246   8.770 -0.8355  0.0751  0.3820
  502MOL0     C67644   8.729   1.353   8.867 -0.1643 -0.1053 -0.3413
  502MOL0     C67645   8.608   1.386   8.942  0.0529  0.4409 -0.0473
  502MOL0     C67646   8.563   1.275   9.045 -0.0734 -1.4452 -0.0646
  502MOL0     C67647   8.423   1.314   9.096 -0.7469 -0.0017  1.1264
  502MOL0     C67648   8.390   1.214   9.209  0.5771  0.1726 -0.2211
  502MOL0     C67649   8.239   1.231   9.245  0.2315  0.8186  0.0110
  502MOL0     C67650   8.215   1.335   9.361  0.4331 -0.9206  0.6870
  502MOL0     C67651   8.267   1.282   9.506  1.8940 -0.2205 -0.4762
  502MOL0     N67652   8.197   1.160   9.558 -0.3705 -0.9541 -0.1965
  502MOL0     C67653   8.069   1.152   9.578  0.0576 -0.0889  0.1830
  502MOL0     C67654   8.041   1.031   9.622  0.7669 -0.4581  0.6643
  502MOL0     C67655   7.900   0.984   9.655 -0.7835 -0.3228 -0.1193
  502MOL0     C67656   7.877   0.851   9.591  0.3095  0.1326  0.3212
  502MOL0     C67657   7.742   0.801   9.629 -0.1525  0.2003  0.1063
  502MOL0     C67658   7.612   0.888   9.599 -0.2983  0.0775  0.5260
  502MOL0     O67659   7.597   0.982   9.707 -0.3088 -0.2096  0.6614
  502MOL0     C67660   7.480   1.037   9.735  0.1549 -0.7280 -0.2340
  502MOL0     C67661   7.376   1.051   9.647  0.2984  0.0468 -1.1044
  502MOL0     C67662   7.253   1.113   9.686  0.6557 -0.2622  0.9667
  502MOL0     C67663   7.149   1.150   9.583 -0.3489  0.2911 -0.2946
  502MOL0     C67664   7.238   1.160   9.818 -0.1752 -0.2044 -0.1096
  502MOL0     C67665   7.115   1.224   9.881 -0.5030 -0.1732  0.5406
  502MOL0     O67666   7.141   1.300   9.990 -0.0922  0.4974 -0.4490
  502MOL0     C67667   7.045   1.365  10.070  0.0522 -0.3268 -0.2605
  502MOL0     C67668   6.910   1.327  10.091  0.4691  0.1596 -0.3086
  502MOL0     C67669   6.823   1.381  10.194  0.1404  0.2641  0.3890
  502MOL0     C67670   6.874   1.478  10.288  0.4712  0.6933 -0.4834
  502MOL0     O67671   6.794   1.535  10.387 -0.0315 -0.6761  0.1020
  502MOL0     C67672   6.778   1.679  10.374  0.0567  0.8917 -0.4418
  502MOL0     C67673   6.625   1.708  10.403  0.3315 -0.3089  0.0560
  502MOL0     C67674   6.521   1.676  10.289  0.6322  0.5399 -0.1600
  502MOL0     C67675   6.406   1.776  10.280 -0.5453  0.4349  0.2508
  502MOL0     C67676   6.317   1.752  10.156  0.6533  0.3787  0.2409
  502MOL0     C67677   6.371   1.809  10.027 -0.0899  1.1731 -0.2487
  502MOL0     C67678   6.340   1.953  10.021  0.7266 -0.3852  0.6401
  502MOL0     C67679   6.399   2.012   9.896 -0.4569  0.2685  1.1376
  502MOL0    Cl67680   6.304   1.967   9.749 -0.0775  0.0523  0.3861
  502MOL0     C67681   7.007   1.516  10.262 -0.7404  0.5107  0.2886
  502MOL0     C67682   7.091   1.456  10.166  0.4304  0.6129 -1.2733
  502MOL0     O67683   7.006   1.214   9.824 -0.2461  0.5248 -0.2857
  502MOL0     C67684   7.343   1.144   9.905 -0.8916 -0.0097 -1.2088
  502MOL0     C67685   7.466   1.085   9.870  0.3796 -0.8836 -0.4409
  502MOL0     N67686   8.150   0.959   9.615 -0.1759 -0.6023 -0.6843
  502MOL0     N67687   8.244   1.035   9.584  0.4363 -0.2171 -0.4244
  502MOL0     C67688   8.943   1.236   8.748 -0.6623  0.6326 -0.3840
  502MOL0     C67689   9.046   1.166   8.686  0.2092 -0.5518  0.4234
  502MOL0     C67690   9.299   0.968   8.378  0.0336 -0.3404 -0.9601
  502MOL0     C67691   9.359   0.861   8.438  0.4562  1.0951  0.3543
  502MOL0     C67692   9.471   0.795   8.388  0.1493 -0.2105  0.8202
  502MOL0     C67693   9.527   0.841   8.274  0.5223  0.2922  0.2632
  502MOL0     O67694   9.645   0.781   8.228  0.3482 -0.0286 -0.0998
  502MOL0     C67695   9.692   0.787   8.098 -0.2069  0.4717 -0.3620
  502MOL0     C67696   9.757   0.650   8.072 -0.1724 -0.0823  0.5013
  502MOL0     C67697   9.866   0.606   8.187  0.3938 -0.0543  0.4253
  502MOL0     C67698   9.941   0.480   8.156 -1.2027 -0.5721 -0.3623
  502MOL0     C67699  10.050   0.513   8.062  0.2180  0.0447  0.9684
  502MOL0     C67700  10.133   0.552   7.984  0.2621  0.5045 -0.3107
  502MOL0     C67701   9.475   0.953   8.212  0.8117 -0.5890 -0.0884
  502MOL0     C67702   9.362   1.017   8.264  0.1815 -0.4822  1.0585
  502MOL0     H67703   8.872   0.919   8.521 -0.6768 -0.7174  1.3603
  502MOL0     H67704   8.693   1.028   8.658  0.3651  0.6168 -1.3602
  502MOL0     H67705   8.800   1.325   8.945 -2.0128 -0.9589  1.1330
  502MOL0     H67706   8.745   1.450   8.819 -2.3767  0.7811  0.5548
  502MOL0     H67707   8.625   1.479   8.998  1.4492  0.5922 -0.6775
  502MOL0     H67708   8.533   1.404   8.865  2.1597  1.8363 -1.9444
  502MOL0     H67709   8.555   1.176   9.000  0.7511 -1.8225  0.5874
  502MOL0     H67710   8.623   1.269   9.136 -1.7574 -0.4781  1.1632
  502MOL0     H67711   8.425   1.416   9.136 -3.5743  0.8302 -0.5242
  502MOL0     H67712   8.345   1.314   9.018  1.4665  2.8613 -1.3315
  502MOL0     H67713   8.397   1.108   9.182  0.5371  0.1275 -0.0506
  502MOL0     H67714   8.455   1.230   9.296 -2.7034  3.5264  1.9098
  502MOL0     H67715   8.180   1.245   9.154 -1.6406 -1.0644  0.8239
  502MOL0     H67716   8.201   1.137   9.287  2.6995 -0.2496  0.0482
  502MOL0     H67717   8.283   1.417   9.339 -0.1486 -0.6982 -0.3681
  502MOL0     H67718   8.113   1.374   9.366  0.3149 -0.6502 -2.2092
  502MOL0     H67719   8.253   1.361   9.580  1.9316 -1.0147  0.4076
  502MOL0     H67720   8.375   1.267   9.497  2.0600  1.1279 -0.8516
  502MOL0     H67721   7.995   1.231   9.577 -2.6782 -2.4818 -0.0729
  502MOL0     H67722   7.895   0.964   9.762  0.0940 -2.4302 -0.4221
  502MOL0     H67723   7.832   1.063   9.622  0.9527  0.7935 -1.2232
  502MOL0     H67724   7.949   0.773   9.616  0.8270  0.7451  0.7760
  502MOL0     H67725   7.880   0.869   9.483  1.0584 -0.5436  0.2177
  502MOL0     H67726   7.738   0.772   9.735 -2.8937  1.0824  0.3209
  502MOL0     H67727   7.744   0.704   9.578  2.5494  1.0709 -1.6180
  502MOL0     H67728   7.522   0.826   9.596 -0.8600  0.9241 -1.3396
  502MOL0     H67729   7.614   0.932   9.499  1.8089 -1.4446 -0.1680
  502MOL0     H67730   7.402   1.030   9.544  0.3460  2.8349 -1.7484
  502MOL0     H67731   7.182   1.112   9.485 -0.7300  1.0027 -0.7067
  502MOL0     H67732   7.046   1.118   9.604  0.1931 -0.8715  0.6611
  502MOL0     H67733   7.144   1.259   9.582  0.1994  0.3468  1.0381
  502MOL0     H67734   6.859   1.265  10.018 -0.9347  3.2242 -2.0972
  502MOL0     H67735   6.728   1.334  10.216  0.7665 -0.4951  1.5772
  502MOL0     H67736   6.840   1.733  10.446 -1.5129 -1.6780  3.1671
  502MOL0     H67737   6.798   1.714  10.272  1.3637  1.5424  0.0087
  502MOL0     H67738   6.594   1.663  10.497  0.0224  2.0727  1.1459
  502MOL0     H67739   6.624   1.814  10.429 -1.7917 -0.7721  2.1691
  502MOL0     H67740   6.484   1.575  10.310  1.4950  0.2815  0.1726
  502MOL0     H67741   6.577   1.697  10.198  3.1677  2.1340  1.6396
  502MOL0     H67742   6.343   1.762  10.368 -2.8498  1.6968 -1.0819
  502MOL0     H67743   6.440   1.880  10.285  0.1666  0.5352 -3.6995
  502MOL0     H67744   6.211   1.773  10.169  0.8259  0.5451  1.5030
  502MOL0     H67745   6.316   1.644  10.138  2.0515  0.5199 -0.8925
  502MOL0     H67746   6.477   1.783  10.015 -0.0510  0.0182  1.9807
  502MOL0     H67747   6.319   1.761   9.944 -2.1522  3.2562 -0.2695
  502MOL0     H67748   6.396   2.008  10.097  1.3930  0.7029 -0.5819
  502MOL0     H67749   6.233   1.973  10.031  1.3180  3.8048  0.2932
  502MOL0     H67750   6.504   1.981   9.891 -0.0409  1.5189  1.6967
  502MOL0     H67751   6.387   2.120   9.889 -0.7052  0.1311 -1.1709
  502MOL0     H67752   7.044   1.590  10.333  1.6169 -1.0749  0.8160
  502MOL0     H67753   7.196   1.482  10.173  1.2249 -2.6754  3.9111
  502MOL0     H67754   7.341   1.183  10.006  0.6828  0.5435 -1.3699
  502MOL0     H67755   7.552   1.067   9.934 -0.4654 -2.8791  0.2358
  502MOL0     H67756   8.976   1.325   8.802  2.1352  0.7656 -2.0878
  502MOL0     H67757   9.153   1.184   8.693  0.3219 -0.4239 -1.1530
  502MOL0     H67758   9.317   0.841   8.536  2.8343 -1.3131  1.0010
  502MOL0     H67759   9.500   0.703   8.439  1.7821 -0.1147  0.1154
  502MOL0     H67760   9.615   0.817   8.026 -1.2124  1.2634  0.9954
  502MOL0     H67761   9.775   0.859   8.092  0.1520  0.2548  1.5841
  502MOL0     H67762   9.805   0.656   7.973 -2.0541 -0.5831 -0.4844
  502MOL0     H67763   9.685   0.568   8.069 -0.1418 -0.1065  0.3829
  502MOL0     H67764   9.809   0.595   8.279 -0.3509 -1.1020 -0.1405
  502MOL0     H67765   9.932   0.692   8.200 -0.5563  0.2814  3.8048
  502MOL0     H67766   9.879   0.396   8.122  0.6409 -2.0804 -0.1202
  502MOL0     H67767   9.987   0.431   8.242 -3.4277 -3.9374 -0.8781
  502MOL0     H67768  10.207   0.578   7.912  1.1093 -0.8522  0.0307
  502MOL0     H67769   9.509   0.997   8.119  0.9884 -1.8737 -0.6492
  502MOL0     H67770   9.312   1.097   8.212 -1.4030 -2.1050 -0.0415
  503MOL0     O67771  11.144   4.463   5.207 -0.6876 -0.1993 -0.0091
  503MOL0     C67772  11.054   4.536   5.161  0.6706  0.9814 -0.4715
  503MOL0     O67773  11.078   4.643   5.082  0.5671 -0.4842 -1.2008
  503MOL0     C67774  11.197   4.649   5.014 -0.5749 -0.4288 -0.2725
  503MOL0     C67775  11.246   4.535   4.937  0.4031  0.0607  0.2966
  503MOL0     C67776  11.365   4.547   4.854  0.3222 -0.9043 -0.2316
  503MOL0     C67777  11.436   4.666   4.854  0.3993 -0.2541  0.2221
  503MOL0     O67778  11.546   4.671   4.766  0.0864 -0.2554  0.8395
  503MOL0     C67779  11.594   4.799   4.717  0.6641  0.5324 -0.3004
  503MOL0     C67780  11.596   4.796   4.568  0.5870 -0.3452 -0.6843
  503MOL0     C67781  11.455   4.808   4.500 -0.2679  0.1866 -0.2371
  503MOL0     C67782  11.471   4.870   4.365 -0.1026 -0.4144  0.7870
  503MOL0     C67783  11.336   4.903   4.305 -0.1841 -0.7012  0.1532
  503MOL0     C67784  11.348   4.961   4.160 -0.0686  0.4627  0.3472
  503MOL0     C67785  11.211   4.967   4.084 -0.1235 -0.1220 -0.0406
  503MOL0     C67786  11.128   4.838   4.060 -0.1973 -0.2031 -0.2616
  503MOL0     N67787  11.200   4.727   3.982  0.6642  0.0763  0.1910
  503MOL0     C67788  11.260   4.613   4.033  0.4208  0.8381  1.0930
  503MOL0     C67789  11.308   4.549   3.921  0.6179  0.3377  1.0394
  503MOL0     C67790  11.375   4.416   3.900  0.0633  0.4181  0.6340
  503MOL0     C67791  11.511   4.421   3.969 -0.0644 -0.1159  0.7621
  503MOL0     C67792  11.562   4.277   4.010  0.6087  0.3007  0.2498
  503MOL0     C67793  11.685   4.285   4.099  0.4614 -0.0706  0.2298
  503MOL0     O67794  11.655   4.347   4.227  0.0050 -0.1777 -0.2883
  503MOL0     C67795  11.620   4.277   4.344  0.1015 -0.6179 -0.1628
  503MOL0     C67796  11.667   4.318   4.466 -0.6861 -0.4931 -1.1833
  503MOL0     C67797  11.643   4.252   4.590 -0.6923 -0.0917 -0.3024
  503MOL0     C67798  11.716   4.315   4.701 -0.6611  0.7988  0.5434
  503MOL0     C67799  11.568   4.137   4.583  0.2154  0.2523 -1.4531
  503MOL0     C67800  11.522   4.053   4.698 -0.0002  0.2741  0.1737
  503MOL0     O67801  11.520   4.119   4.818  0.5222  0.4676 -0.9884
  503MOL0     C67802  11.448   4.061   4.917 -0.1793 -0.2076  0.8287
  503MOL0     C67803  11.321   4.119   4.937 -0.5547 -0.3022  0.4754
  503MOL0     C67804  11.252   4.072   5.046 -0.1273 -0.3861 -0.8868
  503MOL0     C67805  11.306   3.976   5.128  0.5334 -1.3168  0.0888
  503MOL0     O67806  11.240   3.944   5.252  0.3711  0.5602 -0.3545
  503MOL0     C67807  11.096   3.955   5.264  0.5096  0.1673  0.3371
  503MOL0     C67808  10.997   3.883   5.164 -0.2041  0.0219 -0.5518
  503MOL0     C67809  10.983   3.738   5.188  0.2020 -0.1574  0.2979
  503MOL0     C67810  10.846   3.694   5.131 -0.0597  0.2125 -0.6943
  503MOL0     C67811  10.816   3.550   5.156  0.6370 -0.3827 -0.1929
  503MOL0     C67812  10.688   3.511   5.075  0.8170  0.0776 -0.0877
  503MOL0     C67813  10.668   3.357   5.084  0.1010 -0.7714  0.5035
  503MOL0     C67814  10.539   3.310   5.015 -0.2528 -0.0701 -0.1714
  503MOL0    Cl67815  10.510   3.142   5.063 -0.1311 -0.1774 -0.4960
  503MOL0     C67816  11.429   3.925   5.102 -0.0988  0.5466 -0.4546
  503MOL0     C67817  11.504   3.972   4.998 -0.8434  0.6070 -1.5310
  503MOL0     O67818  11.486   3.935   4.682  0.1731 -0.6160  1.0832
  503MOL0     C67819  11.521   4.082   4.454 -0.0308  0.0753  0.3138
  503MOL0     C67820  11.556   4.152   4.340 -0.8155 -0.6029 -0.0052
  503MOL0     N67821  11.260   4.621   3.813  0.1188  0.1605 -1.2390
  503MOL0     N67822  11.190   4.722   3.848 -0.5848 -0.5897  0.1996
  503MOL0     C67823  11.381   4.776   4.925  0.2843  0.2043  0.2733
  503MOL0     C67824  11.269   4.765   5.009  0.0157 -0.6230  0.6328
  503MOL0     C67825  10.918   4.523   5.214 -0.4089 -1.4705  0.2082
  503MOL0     C67826  10.836   4.639   5.196 -0.1920  1.0228 -0.3332
  503MOL0     C67827  10.699   4.628   5.212  0.0378  0.7535  0.0876
  503MOL0     C67828  10.638   4.514   5.262  0.7444  0.4217 -0.1707
  503MOL0     O67829  10.508   4.520   5.310 -0.5591 -0.9621 -0.1981
  503MOL0     C67830  10.464   4.410   5.389  0.8103  0.8495  0.3105
  503MOL0     C67831  10.313   4.424   5.411 -0.4534  0.7259 -0.3390
  503MOL0     C67832  10.285   4.529   5.521 -0.6980 -0.5209 -0.9496
  503MOL0     C67833  10.136   4.545   5.562 -0.8605 -0.1294  0.4807
  503MOL0     C67834  10.126   4.597   5.695 -1.1822 -0.4404  0.0842
  503MOL0     C67835  10.098   4.656   5.800 -0.6144  0.6830 -1.2865
  503MOL0     C67836  10.727   4.405   5.289 -1.2921  0.7556  0.0187
  503MOL0     C67837  10.860   4.406   5.255  0.3120 -0.5234  0.0872
  503MOL0     H67838  11.201   4.437   4.942 -2.3259  0.9704 -2.9198
  503MOL0     H67839  11.402   4.467   4.790  1.8182 -1.1175  0.8356
  503MOL0     H67840  11.525   4.878   4.748 -0.6365  1.2477 -4.4806
  503MOL0     H67841  11.699   4.816   4.742  1.9493  0.0199 -4.6255
  503MOL0     H67842  11.657   4.883   4.541 -0.5587 -0.5255 -4.4664
  503MOL0     H67843  11.643   4.705   4.529  0.6968  0.3215 -2.1933
  503MOL0     H67844  11.418   4.705   4.500  2.6872 -1.0040  1.3159
  503MOL0     H67845  11.394   4.872   4.564  1.3346  0.1386  1.4304
  503MOL0     H67846  11.529   4.962   4.375  0.7652 -1.0770  2.1753
  503MOL0     H67847  11.522   4.798   4.301  0.1071  1.1319 -0.8517
  503MOL0     H67848  11.275   4.813   4.287 -0.6003 -0.0082 -2.4106
  503MOL0     H67849  11.299   4.981   4.372  3.0172  0.8534  0.3038
  503MOL0     H67850  11.400   5.057   4.157  1.4587 -0.3366 -1.9253
  503MOL0     H67851  11.422   4.898   4.109  0.8725  0.2375  1.9209
  503MOL0     H67852  11.151   5.041   4.137 -2.1978 -1.8843  0.2066
  503MOL0     H67853  11.244   5.010   3.989 -0.8722  0.0036 -0.2469
  503MOL0     H67854  11.036   4.880   4.020 -0.7004  0.5453  1.5992
  503MOL0     H67855  11.106   4.799   4.159 -0.0230 -1.0340 -0.5418
  503MOL0     H67856  11.265   4.582   4.137  0.1893  1.6464  1.3541
  503MOL0     H67857  11.311   4.341   3.947 -1.2945  1.1681  0.0505
  503MOL0     H67858  11.376   4.390   3.794 -2.9101 -2.6054  1.1785
  503MOL0     H67859  11.497   4.471   4.065 -2.3076  1.7973 -0.4449
  503MOL0     H67860  11.585   4.469   3.905  0.7233  1.0003  2.4432
  503MOL0     H67861  11.591   4.228   3.917 -0.5304 -2.2167  1.1274
  503MOL0     H67862  11.484   4.222   4.064  1.5420 -0.4013  0.9296
  503MOL0     H67863  11.759   4.341   4.039  1.0125  1.0270  1.8644
  503MOL0     H67864  11.719   4.183   4.117 -0.6626 -0.0891  2.5869
  503MOL0     H67865  11.742   4.397   4.473  0.4926 -1.6532  4.5651
  503MOL0     H67866  11.654   4.398   4.734 -1.7313  1.3940 -2.6130
  503MOL0     H67867  11.707   4.250   4.788 -2.4429  1.5721  0.9637
  503MOL0     H67868  11.821   4.334   4.677 -0.9110 -0.4839 -2.0165
  503MOL0     H67869  11.273   4.187   4.868 -1.8883  0.0977  1.7398
  503MOL0     H67870  11.148   4.100   5.059 -0.6004 -1.0329 -2.8403
  503MOL0     H67871  11.084   3.910   5.363 -0.0236 -1.6988 -0.5424
  503MOL0     H67872  11.068   4.060   5.277  0.1374  0.1225 -0.1200
  503MOL0     H67873  10.898   3.929   5.169 -1.3518 -2.0124 -2.5445
  503MOL0     H67874  11.041   3.907   5.066  1.3265  1.5275  0.4498
  503MOL0     H67875  10.995   3.699   5.290  0.4341 -2.8531 -0.6928
  503MOL0     H67876  11.058   3.688   5.126  0.7570  1.4873 -0.4038
  503MOL0     H67877  10.769   3.752   5.184 -0.2645  0.6307 -1.4229
  503MOL0     H67878  10.846   3.729   5.027 -2.4857  1.5580 -0.3322
  503MOL0     H67879  10.806   3.527   5.262  2.1545 -2.2567 -0.3973
  503MOL0     H67880  10.897   3.482   5.128 -1.0132 -2.4453 -0.2067
  503MOL0     H67881  10.604   3.565   5.118  1.2277  0.8059 -0.1833
  503MOL0     H67882  10.699   3.542   4.970  0.5278  0.2532 -0.0675
  503MOL0     H67883  10.672   3.330   5.190 -1.3056 -1.9968  0.2783
  503MOL0     H67884  10.751   3.303   5.039 -0.9886 -0.5380 -1.9419
  503MOL0     H67885  10.547   3.316   4.906  0.6611  2.3565 -0.0396
  503MOL0     H67886  10.445   3.362   5.034 -1.6491 -0.8039 -4.1472
  503MOL0     H67887  11.475   3.861   5.177  1.0365  1.6845 -0.1364
  503MOL0     H67888  11.604   3.936   4.980 -0.2316 -0.0213  2.3228
  503MOL0     H67889  11.455   3.996   4.444 -0.0675  0.4279 -4.9291
  503MOL0     H67890  11.523   4.129   4.240 -1.2838 -1.5004  0.3392
  503MOL0     H67891  11.442   4.865   4.938  1.1732 -0.6213  2.0965
  503MOL0     H67892  11.246   4.854   5.066 -0.9181 -1.9299  2.4335
  503MOL0     H67893  10.866   4.741   5.178 -0.5674  0.8078 -2.4215
  503MOL0     H67894  10.638   4.717   5.208  2.1241  2.2567  0.3158
  503MOL0     H67895  10.473   4.318   5.331 -1.8028  0.5906  0.2001
  503MOL0     H67896  10.528   4.410   5.478  0.9688  2.1758  0.2294
  503MOL0     H67897  10.264   4.328   5.428  0.0110  0.7553  1.3313
  503MOL0     H67898  10.269   4.458   5.316  1.3828 -1.3907 -2.0721
  503MOL0     H67899  10.333   4.627   5.511  0.9834 -1.0160  1.4402
  503MOL0     H67900  10.345   4.486   5.601 -2.4242 -1.4736 -0.0985
  503MOL0     H67901  10.078   4.452   5.559 -1.6195  0.2573  2.1292
  503MOL0     H67902  10.089   4.618   5.495  0.2022  1.2946  1.2423
  503MOL0     H67903  10.055   4.706   5.885 -2.3478 -0.8877 -1.1634
  503MOL0     H67904  10.697   4.310   5.331 -1.4135  0.1213 -1.4569
  503MOL0     H67905  10.925   4.322   5.276 -0.6321 -1.4963 -0.7399
  504MOL0     O67906  11.101   9.530   7.790 -0.1394 -0.0407 -0.1300
  504MOL0     C67907  11.095   9.585   7.901 -0.0031 -0.1691  0.2661
  504MOL0     O67908  11.030   9.534   8.013 -0.2563  0.6938 -0.0704
  504MOL0     C67909  10.937   9.431   8.005 -0.3274 -0.1746 -0.5515
  504MOL0     C67910  10.845   9.394   7.903  0.3345 -0.2382  0.0966
  504MOL0     C67911  10.738   9.297   7.918 -0.2324 -0.1074  0.4746
  504MOL0     C67912  10.714   9.249   8.045  0.5629 -0.2012 -0.1697
  504MOL0     O67913  10.603   9.172   8.054 -0.0890 -0.8033 -0.1620
  504MOL0     C67914  10.522   9.197   8.175  0.5641  0.2587  0.0592
  504MOL0     C67915  10.431   9.075   8.202 -0.0365  0.1993  0.3206
  504MOL0     C67916  10.306   9.108   8.283 -0.3297  0.7515  0.7114
  504MOL0     C67917  10.188   9.149   8.193 -0.3751  0.1058  0.4351
  504MOL0     C67918  10.074   9.186   8.290 -0.3163 -0.7954  0.2459
  504MOL0     C67919   9.958   9.249   8.219  0.2286 -0.2836 -0.0711
  504MOL0     C67920   9.886   9.136   8.119  0.2540  0.0354  0.9242
  504MOL0     C67921   9.756   9.200   8.069 -0.5278  0.5202 -0.4870
  504MOL0     N67922   9.645   9.163   8.149  0.2872 -0.2088 -0.3359
  504MOL0     C67923   9.517   9.154   8.104 -0.1974 -0.6021 -0.5765
  504MOL0     C67924   9.445   9.122   8.208 -0.2624 -0.6860 -0.3579
  504MOL0     C67925   9.305   9.064   8.191 -0.2274 -0.1079  0.1461
  504MOL0     C67926   9.211   9.141   8.270  0.1177 -0.1723 -0.2635
  504MOL0     C67927   9.067   9.093   8.248  0.4887  0.5172 -0.3937
  504MOL0     C67928   8.966   9.198   8.316  0.7452 -0.4024 -0.1295
  504MOL0     O67929   8.843   9.183   8.234 -0.7585 -0.0397 -0.2185
  504MOL0     C67930   8.757   9.291   8.258 -0.5950 -0.4825  0.7798
  504MOL0     C67931   8.750   9.377   8.374 -0.1940  0.0509  1.3532
  504MOL0     C67932   8.648   9.467   8.396  1.1442  0.5038 -0.2880
  504MOL0     C67933   8.659   9.562   8.511  0.1766 -0.5009  0.2368
  504MOL0     C67934   8.543   9.475   8.296  0.3614 -0.1308  0.4691
  504MOL0     C67935   8.433   9.574   8.292 -0.5568 -0.3466 -1.5390
  504MOL0     O67936   8.315   9.536   8.229  0.3251  0.1946  0.0702
  504MOL0     C67937   8.197   9.602   8.267  0.5837 -0.1823  0.5644
  504MOL0     C67938   8.161   9.617   8.407 -0.5995  0.7959  1.1524
  504MOL0     C67939   8.035   9.672   8.443  0.9586  0.4327 -0.3849
  504MOL0     C67940   7.955   9.719   8.339 -0.0161 -0.1710 -0.4616
  504MOL0     O67941   7.822   9.760   8.352 -0.2670 -0.3627 -0.2546
  504MOL0     C67942   7.765   9.765   8.487  0.5228 -0.2358 -0.7564
  504MOL0     C67943   7.609   9.780   8.476 -0.3635 -0.3880  0.6128
  504MOL0     C67944   7.532   9.770   8.609  0.5991  0.1099  0.6080
  504MOL0     C67945   7.378   9.792   8.597 -0.6190 -0.5932 -0.5994
  504MOL0     C67946   7.312   9.789   8.735  0.1549 -0.5552  1.0103
  504MOL0     C67947   7.341   9.672   8.825  0.6097 -0.4409  0.9298
  504MOL0     C67948   7.272   9.693   8.971 -0.5008 -0.3436  0.3174
  504MOL0     C67949   7.142   9.611   8.976  0.3371 -0.1583  0.0612
  504MOL0    Cl67950   7.055   9.621   9.134 -0.3304 -0.1278  0.1668
  504MOL0     C67951   8.008   9.727   8.208 -0.0712  0.4452  0.4700
  504MOL0     C67952   8.127   9.665   8.169 -0.0555 -0.6711  0.1577
  504MOL0     O67953   8.453   9.683   8.344  0.3880  0.8109 -0.3378
  504MOL0     C67954   8.560   9.401   8.177 -0.0023 -0.4652  0.8044
  504MOL0     C67955   8.663   9.305   8.155  0.4573 -1.1143 -0.3670
  504MOL0     N67956   9.530   9.124   8.321 -0.4991  0.7751 -0.3418
  504MOL0     N67957   9.645   9.151   8.282 -0.4256  0.7516 -0.5194
  504MOL0     C67958  10.802   9.289   8.152  0.4972  0.1565  0.8216
  504MOL0     C67959  10.921   9.357   8.124 -0.5324 -0.0836 -0.4597
  504MOL0     C67960  11.181   9.704   7.925 -0.3642  0.7645  0.5070
  504MOL0     C67961  11.177   9.776   8.041  0.1882 -0.2421 -0.1102
  504MOL0     C67962  11.245   9.899   8.049 -0.6863 -0.4629  0.1654
  504MOL0     C67963  11.336   9.934   7.951 -0.2313  0.1668  0.6645
  504MOL0     O67964  11.392  10.058   7.963 -0.3510 -0.5951 -0.0738
  504MOL0     C67965  11.501  10.098   7.880 -0.0516 -0.1921  1.0116
  504MOL0     C67966  11.538  10.249   7.903  0.4991 -0.8585  0.1585
  504MOL0     C67967  11.583  10.282   8.050 -0.0283 -0.1665 -1.2145
  504MOL0     C67968  11.654  10.420   8.064  0.3879  0.6733  0.1685
  504MOL0     C67969  11.713  10.432   8.190 -0.9731 -0.3924 -0.5922
  504MOL0     C67970  11.780  10.450   8.289 -0.1153  0.4809  0.6042
  504MOL0     C67971  11.361   9.844   7.842  0.2530  0.4674 -0.4005
  504MOL0     C67972  11.283   9.736   7.828  0.3527  0.2951  0.3322
  504MOL0     H67973  10.862   9.425   7.801  2.0264 -1.2312  0.0567
  504MOL0     H67974  10.683   9.266   7.829  0.3399 -3.4547  1.1766
  504MOL0     H67975  10.581   9.223   8.263  0.3270  0.0804  0.2733
  504MOL0     H67976  10.473   9.291   8.147  0.0754 -0.2842 -0.9562
  504MOL0     H67977  10.405   9.016   8.113  1.1507  0.4612 -0.2178
  504MOL0     H67978  10.491   9.005   8.261  1.6537  0.5991 -0.8795
  504MOL0     H67979  10.268   9.019   8.335  1.2849 -1.3858 -1.4977
  504MOL0     H67980  10.336   9.187   8.352  1.0481  0.6781  0.2348
  504MOL0     H67981  10.221   9.236   8.135 -0.1674  0.7177  1.4446
  504MOL0     H67982  10.156   9.066   8.130 -2.1362  0.6599  0.5497
  504MOL0     H67983  10.032   9.100   8.343 -1.2124  0.7362  2.1657
  504MOL0     H67984  10.099   9.255   8.371 -1.6524  1.3630 -1.0591
  504MOL0     H67985   9.892   9.296   8.293 -2.4975  2.6852 -3.9908
  504MOL0     H67986   9.991   9.332   8.156  1.8330  0.8894  2.1317
  504MOL0     H67987   9.942   9.115   8.027 -0.0221 -2.1049  1.1946
  504MOL0     H67988   9.874   9.043   8.175  0.3864 -0.4853  0.1188
  504MOL0     H67989   9.743   9.173   7.963  4.3761  2.4398 -1.8362
  504MOL0     H67990   9.775   9.307   8.066  0.4226  0.3413 -1.7094
  504MOL0     H67991   9.482   9.147   8.001  3.3624 -0.8798 -1.9024
  504MOL0     H67992   9.268   9.066   8.088  0.7179  0.9271 -0.1970
  504MOL0     H67993   9.295   8.961   8.226 -1.5811  0.0009  0.1300
  504MOL0     H67994   9.208   9.249   8.254 -3.9806  0.2050  1.7300
  504MOL0     H67995   9.226   9.133   8.378  0.8997 -0.4254 -0.3808
  504MOL0     H67996   9.060   8.993   8.291  3.6990 -0.9628 -2.9600
  504MOL0     H67997   9.051   9.079   8.141  2.0565 -0.8233 -0.4862
  504MOL0     H67998   9.012   9.297   8.306  2.0286 -1.0304 -0.6347
  504MOL0     H67999   8.940   9.184   8.422  0.7554  3.0204  0.4408
  504MOL0     H68000   8.824   9.371   8.453  0.0186  2.1807  1.3625
  504MOL0     H68001   8.711   9.650   8.473  2.1574 -1.4416  0.6689
  504MOL0     H68002   8.555   9.572   8.546 -2.0043 -3.2468 -4.4310
  504MOL0     H68003   8.709   9.515   8.596  3.4343 -0.5196 -1.5576
  504MOL0     H68004   8.235   9.580   8.477 -0.9277 -1.5698  0.3365
  504MOL0     H68005   8.012   9.657   8.548  2.5337  0.4708 -0.0065
  504MOL0     H68006   7.781   9.676   8.549 -1.8506 -0.0462  0.2573
  504MOL0     H68007   7.804   9.851   8.542  0.5470  0.0665 -1.2441
  504MOL0     H68008   7.598   9.872   8.417  0.8823 -0.1947  0.6625
  504MOL0     H68009   7.573   9.701   8.410 -0.1213 -0.6483  0.7958
  504MOL0     H68010   7.577   9.838   8.682  0.6893  0.7967 -0.0683
  504MOL0     H68011   7.538   9.671   8.654  0.5287 -0.3927 -0.4598
  504MOL0     H68012   7.358   9.892   8.556 -1.6207  0.3294  1.9122
  504MOL0     H68013   7.338   9.711   8.536 -1.2445 -0.4657 -0.3627
  504MOL0     H68014   7.205   9.798   8.715  0.6939  1.8335 -1.4448
  504MOL0     H68015   7.343   9.882   8.783 -2.0618  1.0282 -0.4043
  504MOL0     H68016   7.295   9.586   8.776 -0.9666  1.2417 -0.7132
  504MOL0     H68017   7.448   9.657   8.841  1.3826  3.8397  0.7924
  504MOL0     H68018   7.247   9.796   8.998 -0.4654 -0.6192  1.4678
  504MOL0     H68019   7.335   9.640   9.043 -1.3648  0.8981  2.0768
  504MOL0     H68020   7.169   9.506   8.963 -3.0738 -0.9811 -1.4457
  504MOL0     H68021   7.078   9.638   8.892 -2.5626  2.6312  2.8891
  504MOL0     H68022   7.954   9.777   8.128  2.4362  0.1564 -1.5421
  504MOL0     H68023   8.150   9.680   8.064  0.6737 -1.1164  0.2530
  504MOL0     H68024   8.474   9.394   8.111  0.7760 -2.2251 -0.0905
  504MOL0     H68025   8.666   9.240   8.068  1.6952 -0.4093 -0.8786
  504MOL0     H68026  10.784   9.242   8.248  1.2198 -1.5694  0.1617
  504MOL0     H68027  10.993   9.367   8.204 -3.6028 -0.4614  2.6114
  504MOL0     H68028  11.097   9.761   8.113  2.0260 -3.7454  1.4223
  504MOL0     H68029  11.243   9.977   8.125  1.2184  0.1073 -0.3132
  504MOL0     H68030  11.594  10.043   7.894  1.5353  2.1852  0.3273
  504MOL0     H68031  11.472  10.086   7.775  1.2970 -1.5221  0.7560
  504MOL0     H68032  11.461  10.322   7.875  1.7663  0.4009 -0.1604
  504MOL0     H68033  11.626  10.267   7.841  0.3736  0.2249  0.2727
  504MOL0     H68034  11.652  10.207   8.089 -0.3057  0.0031 -0.3818
  504MOL0     H68035  11.496  10.255   8.110  1.4444 -0.5658  0.8063
  504MOL0     H68036  11.586  10.506   8.065  0.7502  1.0651 -2.5120
  504MOL0     H68037  11.728  10.424   7.984  2.0489 -1.3237  1.5060
  504MOL0     H68038  11.841  10.466   8.376 -0.1056  2.1077  0.3239
  504MOL0     H68039  11.435   9.859   7.764  2.2187 -1.3170  0.9921
  504MOL0     H68040  11.299   9.685   7.733  0.3510  1.1191 -0.1208
  505MOL0     O68041  10.658   7.344   5.559  0.0410  0.5366 -0.3869
  505MOL0     C68042  10.641   7.332   5.684 -0.1178 -0.2360  0.0667
  505MOL0     O68043  10.524   7.366   5.758 -0.9796 -0.4693  0.0559
  505MOL0     C68044  10.428   7.456   5.702 -0.0353 -0.8112  0.3648
  505MOL0     C68045  10.455   7.566   5.631 -0.8785 -0.0981  0.7703
  505MOL0     C68046  10.355   7.648   5.593  0.2610  0.4188 -0.3324
  505MOL0     C68047  10.218   7.619   5.617 -0.5758 -0.0193  0.5267
  505MOL0     O68048  10.129   7.710   5.583 -0.6228 -0.1645  0.3928
  505MOL0     C68049  10.006   7.708   5.663  0.0891  0.6854 -0.1475
  505MOL0     C68050   9.918   7.823   5.618  0.5523 -0.4750  1.0594
  505MOL0     C68051   9.799   7.860   5.699 -0.2291 -0.3366  0.0550
  505MOL0     C68052   9.664   7.802   5.649 -0.2627  0.0379  0.1113
  505MOL0     C68053   9.542   7.826   5.743 -0.4493  0.4420  1.5188
  505MOL0     C68054   9.414   7.768   5.681 -0.2540 -0.1644  0.4815
  505MOL0     C68055   9.285   7.791   5.765 -0.7188  0.1567  0.6028
  505MOL0     C68056   9.271   7.935   5.816  0.0296 -0.1896  0.0543
  505MOL0     N68057   9.145   7.965   5.884 -0.5170 -0.0636 -0.4552
  505MOL0     C68058   9.118   7.965   6.019 -0.5893 -1.0718  0.8726
  505MOL0     C68059   8.991   7.987   6.030  0.7580 -0.1768  0.6401
  505MOL0     C68060   8.920   8.017   6.158 -0.4178 -0.7940  0.6752
  505MOL0     C68061   8.787   7.949   6.151  0.5180  0.5717 -0.2337
  505MOL0     C68062   8.721   7.960   6.288  0.4678 -0.3166 -0.3001
  505MOL0     C68063   8.575   7.906   6.286 -0.2646 -0.7165  0.4563
  505MOL0     O68064   8.529   7.936   6.419  0.3104 -0.1644  0.3750
  505MOL0     C68065   8.393   7.946   6.439  0.0946 -0.5096 -0.4984
  505MOL0     C68066   8.360   8.029   6.543  0.5410 -0.0432 -0.0487
  505MOL0     C68067   8.230   8.063   6.576  0.6294 -0.2057  0.2372
  505MOL0     C68068   8.218   8.150   6.701  0.3523 -0.0452 -1.0890
  505MOL0     C68069   8.122   8.008   6.509  0.1597 -1.1515 -0.7901
  505MOL0     C68070   7.981   8.020   6.549 -0.5602  0.5815  0.3977
  505MOL0     O68071   7.902   7.925   6.502 -0.0353 -0.3223 -0.3858
  505MOL0     C68072   7.769   7.945   6.522 -0.0215 -0.5532 -0.2047
  505MOL0     C68073   7.694   7.836   6.567  0.4708 -0.2374  0.7990
  505MOL0     C68074   7.555   7.822   6.554  0.2876 -0.4731  0.8051
  505MOL0     C68075   7.484   7.931   6.500  0.2431  0.5497 -0.4064
  505MOL0     O68076   7.350   7.927   6.483  0.2263  0.1886  0.0256
  505MOL0     C68077   7.268   7.944   6.596 -0.2615 -0.0977  0.5812
  505MOL0     C68078   7.143   8.031   6.563 -0.3528  0.8127 -0.7279
  505MOL0     C68079   7.078   7.976   6.425  0.0541 -0.2200 -0.0815
  505MOL0     C68080   6.937   8.031   6.392 -0.1741 -0.7455  0.2524
  505MOL0     C68081   6.910   8.025   6.240 -0.5769  0.6504  0.2812
  505MOL0     C68082   6.762   8.047   6.209  0.1234  0.6456  0.2623
  505MOL0     C68083   6.747   8.093   6.061  1.3933 -0.1302  0.2333
  505MOL0     C68084   6.601   8.087   6.007  0.0474  0.2318 -0.1265
  505MOL0    Cl68085   6.587   8.182   5.856  0.3899 -0.0386 -0.4167
  505MOL0     C68086   7.554   8.046   6.446 -0.2283  1.2649  0.0722
  505MOL0     C68087   7.694   8.051   6.463 -0.0132  0.7089 -0.1678
  505MOL0     O68088   7.945   8.106   6.620 -0.2995 -0.2087 -0.7090
  505MOL0     C68089   8.155   7.924   6.409  0.4291 -0.1468  0.1380
  505MOL0     C68090   8.286   7.885   6.371 -0.1312  0.0102 -0.0490
  505MOL0     N68091   8.940   7.997   5.905  0.2627  0.3691 -0.3496
  505MOL0     N68092   9.032   7.984   5.816  0.8048  0.4263  0.2085
  505MOL0     C68093  10.186   7.503   5.689 -0.7965 -0.6758  0.3957
  505MOL0     C68094  10.295   7.426   5.738  0.3596  0.4098  0.2107
  505MOL0     C68095  10.749   7.279   5.772  1.4012 -0.2164  0.5306
  505MOL0     C68096  10.725   7.225   5.897 -0.3989 -0.8753  0.1702
  505MOL0     C68097  10.825   7.165   5.970  0.3441 -0.5281  0.3497
  505MOL0     C68098  10.959   7.156   5.916  0.6021 -0.2354  0.2410
  505MOL0     O68099  11.054   7.085   5.980  0.0699 -0.4861 -0.1528
  505MOL0     C68100  11.164   7.018   5.900  0.1751  0.6029  0.1370
  505MOL0     C68101  11.203   6.883   5.974  0.4772  0.3738  0.2867
  505MOL0     C68102  11.081   6.788   6.010  0.8092 -0.0093 -0.2855
  505MOL0     C68103  11.000   6.742   5.879 -0.4095 -1.0368  0.0122
  505MOL0     C68104  10.866   6.688   5.905 -0.4513  0.0023 -0.6989
  505MOL0     C68105  10.750   6.659   5.936 -0.1458 -0.3090  0.4638
  505MOL0     C68106  10.973   7.211   5.783 -0.6275  0.6066  0.1288
  505MOL0     C68107  10.873   7.271   5.716 -0.5317 -0.0423  0.5914
  505MOL0     H68108  10.557   7.598   5.613 -0.5132 -0.4728  2.0566
  505MOL0     H68109  10.399   7.735   5.545  2.8474  1.2585  3.1065
  505MOL0     H68110   9.951   7.615   5.647 -2.9691  2.3259  0.0717
  505MOL0     H68111  10.031   7.715   5.769  1.2957 -1.8214 -0.1993
  505MOL0     H68112   9.981   7.913   5.615 -1.7564  1.2483  0.4314
  505MOL0     H68113   9.887   7.812   5.514  0.5245  1.4271  0.8173
  505MOL0     H68114   9.823   7.849   5.805  1.8874  0.0068 -0.3334
  505MOL0     H68115   9.793   7.969   5.694 -1.1926 -0.4215 -0.9620
  505MOL0     H68116   9.645   7.853   5.554 -1.7268 -0.2880  0.2059
  505MOL0     H68117   9.684   7.702   5.610  0.0867 -0.0492  0.4980
  505MOL0     H68118   9.552   7.773   5.838 -1.3439  0.3672  1.5845
  505MOL0     H68119   9.544   7.932   5.767  0.3093 -0.0854  4.0151
  505MOL0     H68120   9.408   7.822   5.586 -1.1688  3.1428  2.3051
  505MOL0     H68121   9.434   7.661   5.667  1.2427  0.1524  0.0102
  505MOL0     H68122   9.195   7.772   5.706 -0.5457  1.9751 -0.3401
  505MOL0     H68123   9.280   7.734   5.858 -0.4786 -0.4808  0.2296
  505MOL0     H68124   9.275   7.997   5.726  0.2717 -0.7082 -0.2943
  505MOL0     H68125   9.348   7.971   5.885 -0.5158 -0.7615  0.9820
  505MOL0     H68126   9.185   7.968   6.105 -0.7505 -1.0482  0.9978
  505MOL0     H68127   8.986   7.978   6.236  2.6086  0.0607 -1.3121
  505MOL0     H68128   8.912   8.124   6.183 -1.0733 -0.5683 -0.4072
  505MOL0     H68129   8.809   7.846   6.122 -1.2091  0.6062 -1.9277
  505MOL0     H68130   8.738   7.998   6.065 -2.0713  0.4855  1.0775
  505MOL0     H68131   8.715   8.067   6.311  0.8380 -0.0449 -1.3905
  505MOL0     H68132   8.774   7.908   6.368  0.8383 -0.5448 -0.6902
  505MOL0     H68133   8.569   7.798   6.270 -1.2680 -0.2124 -4.1567
  505MOL0     H68134   8.526   7.959   6.203 -1.2985 -2.5595 -0.1684
  505MOL0     H68135   8.443   8.068   6.601  1.0396  1.7163 -1.8559
  505MOL0     H68136   8.146   8.232   6.690 -0.7441 -1.2076 -3.1177
  505MOL0     H68137   8.181   8.085   6.781 -0.7338  0.2344 -1.3389
  505MOL0     H68138   8.316   8.185   6.734  0.2475 -2.2762  2.0062
  505MOL0     H68139   7.743   7.749   6.608 -1.7377 -0.9899  2.0145
  505MOL0     H68140   7.498   7.733   6.578  0.7891 -1.0558 -0.1495
  505MOL0     H68141   7.253   7.846   6.641  1.4475 -0.2192  0.9528
  505MOL0     H68142   7.328   8.004   6.665  1.5759  1.2160 -1.9922
  505MOL0     H68143   7.072   8.026   6.646  0.3858  1.1208 -0.0559
  505MOL0     H68144   7.175   8.136   6.569 -0.0064  0.6413  1.5077
  505MOL0     H68145   7.072   7.867   6.427 -1.9078 -0.1567  1.5299
  505MOL0     H68146   7.138   8.012   6.341 -0.1536  4.1523  1.3737
  505MOL0     H68147   6.856   7.972   6.435 -1.4043 -0.6489 -1.8044
  505MOL0     H68148   6.927   8.137   6.416  0.9784 -0.5340 -0.1255
  505MOL0     H68149   6.932   7.924   6.203 -0.2130  0.9592 -0.3550
  505MOL0     H68150   6.980   8.094   6.191  1.2374  0.5481  2.5718
  505MOL0     H68151   6.702   7.957   6.223 -2.7895  2.3884 -0.0884
  505MOL0     H68152   6.733   8.128   6.278 -1.4493  2.0124 -1.8530
  505MOL0     H68153   6.802   8.015   6.006  2.6722 -0.0875  1.3817
  505MOL0     H68154   6.781   8.197   6.060  0.0375  0.4312  2.9889
  505MOL0     H68155   6.527   8.121   6.079 -0.5792  0.5529 -0.9080
  505MOL0     H68156   6.573   7.983   5.987  1.3106  0.0189 -0.9693
  505MOL0     H68157   7.503   8.129   6.400 -4.2641  0.3393  2.3725
  505MOL0     H68158   7.755   8.126   6.414 -0.5971  0.8911 -0.6279
  505MOL0     H68159   8.074   7.877   6.353  0.3427 -0.0226  0.1599
  505MOL0     H68160   8.308   7.813   6.293  4.0691 -2.6834  3.1347
  505MOL0     H68161  10.088   7.471   5.722 -0.6752 -0.1559  1.2891
  505MOL0     H68162  10.278   7.342   5.803  1.4858  1.8632  2.5299
  505MOL0     H68163  10.627   7.219   5.944 -0.6819 -1.2912 -0.4580
  505MOL0     H68164  10.804   7.123   6.068  0.8761  1.1956  1.2349
  505MOL0     H68165  11.134   7.010   5.795  0.4499  1.4474 -0.0144
  505MOL0     H68166  11.248   7.087   5.884  3.4896 -2.7053  1.9464
  505MOL0     H68167  11.252   6.915   6.067  0.8743 -1.4250  0.7229
  505MOL0     H68168  11.266   6.826   5.906 -1.2791 -0.7129 -0.4813
  505MOL0     H68169  11.011   6.842   6.075  0.4164 -1.1407  0.2785
  505MOL0     H68170  11.119   6.698   6.058  0.4478 -0.8268 -1.4794
  505MOL0     H68171  11.056   6.661   5.831 -0.3523 -0.3357 -1.1403
  505MOL0     H68172  10.991   6.826   5.809 -2.6782 -1.6271 -0.4872
  505MOL0     H68173  10.653   6.619   5.959 -0.1631 -0.2312  0.5289
  505MOL0     H68174  11.077   7.215   5.753 -0.0188  1.9413  2.2544
  505MOL0     H68175  10.886   7.309   5.615 -3.0756  0.4639  0.4113
  506MOL0     O68176   8.396   8.486   8.977  0.0388 -0.2818  0.2969
  506MOL0     C68177   8.478   8.417   8.910  0.4652 -0.1585 -0.5972
  506MOL0     O68178   8.450   8.286   8.873  0.4436 -0.4543  0.0302
  506MOL0     C68179   8.329   8.225   8.905  0.1914 -0.2244 -0.0521
  506MOL0     C68180   8.210   8.282   8.947 -0.3524 -0.0531 -0.2738
  506MOL0     C68181   8.100   8.201   8.988  0.1572 -0.4140  0.7319
  506MOL0     C68182   8.106   8.056   8.982  0.2212  0.2736  0.0282
  506MOL0     O68183   8.007   7.976   9.026 -0.2858 -0.5894  0.0265
  506MOL0     C68184   7.940   8.012   9.150  0.7653  0.2033  0.9469
  506MOL0     C68185   7.863   7.885   9.196 -0.1723  0.2595 -0.8831
  506MOL0     C68186   7.714   7.883   9.148 -0.3477 -0.5276 -0.1856
  506MOL0     C68187   7.628   7.783   9.239 -0.0005 -0.2401 -0.1175
  506MOL0     C68188   7.477   7.805   9.226  0.3571 -1.3087 -0.3446
  506MOL0     C68189   7.428   7.797   9.080 -0.4137 -0.4845  0.0571
  506MOL0     C68190   7.282   7.802   9.072  0.2875 -0.1063  1.1021
  506MOL0     C68191   7.232   7.951   9.099 -0.3660  0.4552 -0.4500
  506MOL0     N68192   7.089   7.970   9.116  0.2466 -0.4824  0.0503
  506MOL0     C68193   6.995   7.937   9.021 -0.7978  0.7504 -0.4606
  506MOL0     C68194   6.886   7.994   9.063 -0.2030  0.0154 -0.7013
  506MOL0     C68195   6.758   7.991   8.982 -0.8856  0.3806 -0.4974
  506MOL0     C68196   6.624   7.990   9.045  0.4082  0.2821 -0.3147
  506MOL0     C68197   6.613   7.864   9.140  0.4182  0.0740  0.1707
  506MOL0     C68198   6.491   7.891   9.231  0.0716 -0.4853  0.1921
  506MOL0     O68199   6.367   7.891   9.157  0.7066 -0.0758  0.3171
  506MOL0     C68200   6.258   7.941   9.215  1.0568  0.5465  0.7990
  506MOL0     C68201   6.239   8.071   9.268  0.8365  0.5494  0.0075
  506MOL0     C68202   6.112   8.097   9.340 -0.1327 -0.0648  0.8387
  506MOL0     C68203   6.095   8.234   9.397 -0.3081 -0.0942 -0.2937
  506MOL0     C68204   6.001   8.013   9.324 -0.1815  0.3522 -0.1707
  506MOL0     C68205   5.865   8.028   9.379  0.1930 -0.4167  0.2182
  506MOL0     O68206   5.757   8.000   9.295 -0.1381 -0.6277  0.1351
  506MOL0     C68207   5.633   7.982   9.359 -1.0210 -0.2036  0.7478
  506MOL0     C68208   5.549   8.079   9.421  0.4614  0.8107 -0.2869
  506MOL0     C68209   5.432   8.035   9.492 -0.3339 -0.4832 -0.7302
  506MOL0     C68210   5.387   7.903   9.478  0.1952  0.8150 -0.4216
  506MOL0     O68211   5.264   7.869   9.524 -0.4901 -0.4214 -0.3677
  506MOL0     C68212   5.234   7.728   9.525  0.4444 -0.4057  1.0423
  506MOL0     C68213   5.095   7.692   9.581  1.0723 -0.2193  0.0740
  506MOL0     C68214   4.977   7.685   9.495  0.4620 -0.1775  1.3239
  506MOL0     C68215   4.859   7.647   9.578 -0.1211 -0.2280  0.2787
  506MOL0     C68216   4.736   7.591   9.516  0.0050  0.7478  0.3108
  506MOL0     C68217   4.633   7.567   9.624  0.5982 -0.6766  0.0348
  506MOL0     C68218   4.510   7.505   9.580 -0.3155  0.6202 -0.6460
  506MOL0     C68219   4.470   7.372   9.651  0.0636  0.0037  0.6591
  506MOL0    Cl68220   4.616   7.264   9.601 -0.0373 -0.1513  0.1619
  506MOL0     C68221   5.475   7.805   9.413 -0.3173 -0.1564  1.2890
  506MOL0     C68222   5.593   7.849   9.355  0.6365  0.1503  0.1903
  506MOL0     O68223   5.850   8.055   9.499  0.4464 -0.7232 -0.3199
  506MOL0     C68224   6.010   7.891   9.260 -1.0178 -0.4027 -0.3283
  506MOL0     C68225   6.137   7.863   9.203 -0.4494  0.5988  0.0140
  506MOL0     N68226   6.903   8.031   9.195  0.5478 -0.9204  0.8445
  506MOL0     N68227   7.026   8.016   9.228 -0.4724 -0.3089  0.1450
  506MOL0     C68228   8.213   8.000   8.919 -1.3359 -0.4730 -0.0846
  506MOL0     C68229   8.330   8.083   8.896 -0.5207  0.5110  0.3349
  506MOL0     C68230   8.613   8.465   8.868  0.0169  0.2108  0.5278
  506MOL0     C68231   8.674   8.578   8.935  0.0877  0.3695 -0.1236
  506MOL0     C68232   8.809   8.610   8.911  0.7723 -0.3177  1.2561
  506MOL0     C68233   8.888   8.520   8.832 -0.4441  0.2403 -0.1012
  506MOL0     O68234   9.019   8.550   8.802  0.0692  0.4716  0.0866
  506MOL0     C68235   9.093   8.486   8.699  0.5833  0.2981  0.0263
  506MOL0     C68236   9.045   8.558   8.567 -0.2466 -0.0014 -1.1095
  506MOL0     C68237   9.147   8.545   8.454  0.3613  0.1251 -0.3349
  506MOL0     C68238   9.173   8.689   8.401 -0.8783 -0.3700  0.8324
  506MOL0     C68239   9.248   8.775   8.490 -0.4114  0.3813  0.5871
  506MOL0     C68240   9.314   8.855   8.556 -0.1195  0.4500  0.4780
  506MOL0     C68241   8.823   8.419   8.769  0.0438  0.0375 -0.3106
  506MOL0     C68242   8.689   8.393   8.789  0.2270  0.4224  0.3049
  506MOL0     H68243   8.202   8.391   8.942  2.7724  0.3360  1.1746
  506MOL0     H68244   8.014   8.250   9.033  0.0872  1.4021 -1.2259
  506MOL0     H68245   8.010   8.051   9.225  0.3359  0.9048  0.9925
  506MOL0     H68246   7.864   8.088   9.132 -0.4675 -0.3715  3.3270
  506MOL0     H68247   7.917   7.793   9.169 -1.1610 -0.7432  0.4351
  506MOL0     H68248   7.857   7.889   9.305  1.2310  0.8155 -0.8094
  506MOL0     H68249   7.673   7.984   9.156  1.7154  0.5168 -1.8391
  506MOL0     H68250   7.719   7.865   9.040  1.1652 -0.4622 -0.1395
  506MOL0     H68251   7.649   7.677   9.222  0.2149 -0.0362 -1.2175
  506MOL0     H68252   7.656   7.795   9.344  1.5498 -0.1983 -0.5186
  506MOL0     H68253   7.431   7.725   9.286  3.0437 -2.1010  0.7857
  506MOL0     H68254   7.438   7.900   9.264  0.4007  0.1841 -3.7035
  506MOL0     H68255   7.463   7.877   9.014  0.7812  2.6303  4.0543
  506MOL0     H68256   7.462   7.702   9.038 -0.2945 -0.2173 -0.4579
  506MOL0     H68257   7.267   7.781   8.966  3.8804  3.2055 -0.3431
  506MOL0     H68258   7.233   7.732   9.139 -0.6558  0.8550  1.4489
  506MOL0     H68259   7.258   8.023   9.021  2.1574  0.5422  0.3669
  506MOL0     H68260   7.272   7.994   9.192 -1.2233  1.5791 -0.5751
  506MOL0     H68261   7.027   7.878   8.935  0.0876 -1.7705  1.4681
  506MOL0     H68262   6.761   8.073   8.910  1.4007 -0.1189 -1.0291
  506MOL0     H68263   6.769   7.900   8.922  2.6940 -0.4756  1.2366
  506MOL0     H68264   6.548   7.965   8.971 -0.3191 -0.1264  0.5555
  506MOL0     H68265   6.602   8.085   9.096 -0.8350  0.7399 -1.6525
  506MOL0     H68266   6.708   7.856   9.194  0.5826  3.1970  0.5744
  506MOL0     H68267   6.592   7.770   9.089 -3.4544 -0.7146  2.8404
  506MOL0     H68268   6.508   7.983   9.288 -1.4068  1.1061 -1.7640
  506MOL0     H68269   6.473   7.816   9.308 -3.2308  1.1914  1.2748
  506MOL0     H68270   6.312   8.151   9.273  1.0043  0.3264  2.2990
  506MOL0     H68271   6.195   8.261   9.431 -0.1730 -0.7363 -0.1656
  506MOL0     H68272   6.057   8.310   9.328 -0.6561  0.5484  0.5749
  506MOL0     H68273   6.029   8.213   9.482 -2.2725 -2.8219 -2.3015
  506MOL0     H68274   5.566   8.185   9.438 -1.8970  0.9696  1.6999
  506MOL0     H68275   5.362   8.108   9.534 -0.0478  1.2093 -2.9807
  506MOL0     H68276   5.237   7.690   9.422  0.6659 -0.3167  1.0147
  506MOL0     H68277   5.305   7.665   9.579 -0.9752 -3.0411 -0.0052
  506MOL0     H68278   5.108   7.596   9.632  3.6669 -0.1137 -0.2488
  506MOL0     H68279   5.079   7.766   9.660  1.8340 -0.2483  0.2673
  506MOL0     H68280   4.988   7.611   9.414 -1.3339  1.7719 -0.8668
  506MOL0     H68281   4.960   7.785   9.455  1.2518  0.0883  1.6524
  506MOL0     H68282   4.888   7.596   9.670 -2.1110  0.0219  1.1004
  506MOL0     H68283   4.824   7.742   9.619  3.5218  1.2973  0.2166
  506MOL0     H68284   4.753   7.491   9.476  0.3354  0.0538  2.0675
  506MOL0     H68285   4.686   7.669   9.457  1.4715  3.0538  1.9168
  506MOL0     H68286   4.659   7.516   9.718 -3.5965 -1.5695  0.9134
  506MOL0     H68287   4.600   7.664   9.662 -3.1548 -1.5571 -0.6147
  506MOL0     H68288   4.495   7.490   9.473 -1.9056 -0.3692 -0.3373
  506MOL0     H68289   4.440   7.580   9.618 -0.0303 -0.5662  2.5259
  506MOL0     H68290   4.377   7.332   9.611 -0.4800  2.1156 -0.3308
  506MOL0     H68291   4.461   7.394   9.758 -1.6524  2.2223  0.1260
  506MOL0     H68292   5.460   7.698   9.416  0.1002 -0.1911  2.2856
  506MOL0     H68293   5.674   7.784   9.323 -1.4183 -3.1381  1.1981
  506MOL0     H68294   5.929   7.820   9.253  0.7890 -2.5172 -0.6529
  506MOL0     H68295   6.149   7.759   9.174 -2.4482 -0.7099  3.3667
  506MOL0     H68296   8.219   7.893   8.934 -0.1757 -0.3320  0.5396
  506MOL0     H68297   8.424   8.033   8.875  0.5027  1.0206  3.2676
  506MOL0     H68298   8.616   8.631   9.011 -0.7844 -2.7914  1.6071
  506MOL0     H68299   8.861   8.696   8.951  1.3628  1.0934 -2.1307
  506MOL0     H68300   9.198   8.509   8.718  0.9496 -0.1944 -1.2529
  506MOL0     H68301   9.084   8.377   8.702 -0.7188  0.3133 -1.6365
  506MOL0     H68302   9.031   8.664   8.589 -0.7617 -0.0550 -1.1677
  506MOL0     H68303   8.956   8.502   8.538  1.0349 -1.2086 -2.9681
  506MOL0     H68304   9.115   8.473   8.378  3.0869 -2.6064  0.8627
  506MOL0     H68305   9.251   8.518   8.476  0.7957  3.0426  1.7282
  506MOL0     H68306   9.082   8.744   8.372  1.2468  2.1935 -1.6646
  506MOL0     H68307   9.227   8.670   8.307 -0.8836  0.3672  0.6699
  506MOL0     H68308   9.362   8.920   8.626 -2.2031  0.4081  2.0352
  506MOL0     H68309   8.882   8.352   8.707 -2.0241 -2.6391  0.4640
  506MOL0     H68310   8.647   8.302   8.747 -0.8723  1.7098 -1.4976
  507MOL0     O68311   1.883   0.428   6.277  0.0336  0.7267  0.2135
  507MOL0     C68312   1.961   0.436   6.186 -0.4798 -0.1312  0.0065
  507MOL0     O68313   2.056   0.534   6.166 -0.2250  0.3060 -0.0700
  507MOL0     C68314   2.026   0.658   6.222  0.3521  0.2887 -0.2949
  507MOL0     C68315   1.901   0.722   6.208  0.1013 -0.1882  0.1650
  507MOL0     C68316   1.872   0.851   6.266  0.6833 -1.0659 -0.7486
  507MOL0     C68317   1.967   0.921   6.342 -0.8631 -0.6175 -0.1097
  507MOL0     O68318   1.946   1.042   6.401  0.1046 -0.1247  0.3464
  507MOL0     C68319   2.058   1.122   6.433  0.5573 -1.2976 -0.6982
  507MOL0     C68320   2.032   1.279   6.473  0.2061 -0.4322 -0.2362
  507MOL0     C68321   2.061   1.358   6.337  0.4637  0.0595 -0.1948
  507MOL0     C68322   2.062   1.510   6.353 -0.2103 -0.0490  0.1438
  507MOL0     C68323   2.064   1.585   6.221 -0.4385 -0.1545  0.5080
  507MOL0     C68324   2.182   1.549   6.137 -0.2372 -0.1959  0.8682
  507MOL0     C68325   2.206   1.622   6.001  0.7148  0.3481  0.9576
  507MOL0     C68326   2.341   1.573   5.951 -0.2660  0.4274 -0.3818
  507MOL0     N68327   2.364   1.601   5.812 -0.4095  0.0721  0.0502
  507MOL0     C68328   2.481   1.575   5.746 -0.6218  0.6490  0.3195
  507MOL0     C68329   2.456   1.623   5.623 -0.2813  0.2523 -0.2460
  507MOL0     C68330   2.576   1.631   5.535  0.4334  0.2774 -0.3478
  507MOL0     C68331   2.655   1.761   5.566 -0.1893  0.3920 -0.7740
  507MOL0     C68332   2.795   1.743   5.501  0.1685 -0.1469  0.8630
  507MOL0     C68333   2.905   1.843   5.534  0.4069  0.3676 -0.1215
  507MOL0     O68334   2.926   1.883   5.676 -0.0722 -0.1443 -0.2640
  507MOL0     C68335   3.011   1.995   5.701 -0.5134  0.3174  0.0099
  507MOL0     C68336   3.143   2.005   5.644  0.0384 -0.4458 -0.7198
  507MOL0     C68337   3.233   2.104   5.698 -0.8263 -0.4785  0.3559
  507MOL0     C68338   3.371   2.096   5.648 -0.2570  0.7812  0.7492
  507MOL0     C68339   3.198   2.197   5.804 -0.4331  0.0761 -0.2562
  507MOL0     C68340   3.300   2.287   5.866  0.3034 -1.2057 -0.4839
  507MOL0     O68341   3.432   2.246   5.877 -0.3172 -0.4166 -0.2761
  507MOL0     C68342   3.521   2.339   5.938 -0.5347  0.0041 -0.5631
  507MOL0     C68343   3.533   2.471   5.909  0.3768 -0.6221  0.3573
  507MOL0     C68344   3.645   2.541   5.953 -1.1513 -0.7225  0.0145
  507MOL0     C68345   3.740   2.484   6.039  0.0673  0.6438  0.0658
  507MOL0     O68346   3.848   2.551   6.081  0.1322 -0.0777  0.0837
  507MOL0     C68347   3.924   2.499   6.190  0.1080 -0.0395 -0.7995
  507MOL0     C68348   4.053   2.577   6.202  0.5616  0.5853  0.2501
  507MOL0     C68349   4.122   2.537   6.328  1.3871  0.0096 -0.0179
  507MOL0     C68350   4.255   2.581   6.312 -1.1437 -0.2400  0.1979
  507MOL0     C68351   4.348   2.531   6.424 -0.9826  0.3630  0.8510
  507MOL0     C68352   4.462   2.636   6.426 -0.9635 -0.4485 -1.1012
  507MOL0     C68353   4.581   2.603   6.522 -1.2224 -1.0606 -0.2586
  507MOL0     C68354   4.660   2.727   6.562 -1.1095 -0.2757 -0.7010
  507MOL0    Cl68355   4.796   2.689   6.691 -0.4714  0.0920 -0.1008
  507MOL0     C68356   3.716   2.346   6.073  0.2293  0.3611  0.0513
  507MOL0     C68357   3.612   2.277   6.017  0.7489  0.6094  0.5383
  507MOL0     O68358   3.251   2.380   5.929  0.1851  0.7403 -0.2394
  507MOL0     C68359   3.067   2.196   5.846  0.5830 -0.1500  0.0916
  507MOL0     C68360   2.977   2.092   5.798 -0.2982 -1.2479 -0.0873
  507MOL0     N68361   2.327   1.686   5.615 -0.2475 -0.0696 -0.2468
  507MOL0     N68362   2.271   1.656   5.722  0.8788 -0.3659  0.2167
  507MOL0     C68363   2.100   0.857   6.346 -0.0862  0.6698  0.1252
  507MOL0     C68364   2.125   0.730   6.289 -0.2631 -0.1359 -0.4209
  507MOL0     C68365   1.968   0.324   6.089  1.1247 -0.4920 -0.2882
  507MOL0     C68366   2.070   0.312   5.996 -0.1537 -0.0387  0.2273
  507MOL0     C68367   2.097   0.198   5.919 -0.4898  0.4519 -0.2531
  507MOL0     C68368   1.997   0.094   5.928 -0.8392  0.2790  0.5288
  507MOL0     O68369   2.020  -0.026   5.878 -0.6304  0.6638 -0.1495
  507MOL0     C68370   2.134  -0.049   5.785  0.8246  1.0209  0.4160
  507MOL0     C68371   2.151  -0.194   5.724  0.2404 -0.3289 -0.8763
  507MOL0     C68372   2.031  -0.246   5.651 -0.6650 -0.0511 -0.1939
  507MOL0     C68373   1.903  -0.293   5.726  0.0650 -0.5882  0.2894
  507MOL0     C68374   1.812  -0.367   5.649 -0.0687  0.1440  0.3791
  507MOL0     C68375   1.747  -0.445   5.591 -0.0548  0.5802  0.0328
  507MOL0     C68376   1.886   0.111   6.006  0.0354 -0.6922  0.3785
  507MOL0     C68377   1.865   0.227   6.087 -0.9592  0.0093  0.2834
  507MOL0     H68378   1.830   0.662   6.153 -0.2325  0.8980 -0.6117
  507MOL0     H68379   1.772   0.890   6.255  1.8854  1.5772 -3.8264
  507MOL0     H68380   2.112   1.080   6.518  4.1615  0.9547 -1.6315
  507MOL0     H68381   2.112   1.122   6.338 -1.5489 -2.5716 -1.9767
  507MOL0     H68382   1.929   1.296   6.506  0.6329 -0.6941  1.3267
  507MOL0     H68383   2.104   1.313   6.547  1.7434 -3.4110 -0.2116
  507MOL0     H68384   2.162   1.337   6.298  0.5635 -1.5976  0.8571
  507MOL0     H68385   1.985   1.321   6.268 -2.6605  1.1224  2.4488
  507MOL0     H68386   1.974   1.550   6.404  0.8425  1.7587  0.6576
  507MOL0     H68387   2.148   1.535   6.416 -0.5549 -0.9402  0.9801
  507MOL0     H68388   1.973   1.562   6.165 -0.1720 -1.6090  0.6369
  507MOL0     H68389   2.070   1.694   6.230  1.0011 -0.0968 -0.7334
  507MOL0     H68390   2.267   1.570   6.203  2.5912 -1.9570 -1.9250
  507MOL0     H68391   2.174   1.441   6.120 -2.2196  0.1175 -0.5921
  507MOL0     H68392   2.133   1.584   5.929  2.6136 -1.6417 -0.0362
  507MOL0     H68393   2.206   1.731   6.007  2.2914  0.4819 -0.7033
  507MOL0     H68394   2.343   1.463   5.959 -0.8788  0.3612 -0.9994
  507MOL0     H68395   2.419   1.613   6.015 -0.6176  0.3796  0.0869
  507MOL0     H68396   2.578   1.549   5.786 -1.0417 -0.4042  0.7070
  507MOL0     H68397   2.639   1.543   5.554  0.9144  0.9677  1.4301
  507MOL0     H68398   2.543   1.631   5.430 -0.7762 -1.2295  0.0006
  507MOL0     H68399   2.676   1.768   5.673 -1.3194 -0.8295 -0.4472
  507MOL0     H68400   2.611   1.853   5.526  2.8252  2.4295  0.2095
  507MOL0     H68401   2.762   1.753   5.397  1.9039 -1.4658  0.1301
  507MOL0     H68402   2.840   1.647   5.528  1.8416  0.8613  1.9244
  507MOL0     H68403   2.883   1.933   5.475 -2.2030  0.3271  0.6913
  507MOL0     H68404   2.998   1.791   5.506  0.3134 -1.6942  2.9105
  507MOL0     H68405   3.179   1.934   5.571  1.4739  0.5653 -1.0403
  507MOL0     H68406   3.370   2.056   5.547 -1.1181 -0.1185  1.1035
  507MOL0     H68407   3.414   2.197   5.640  4.1503 -1.0392 -3.0101
  507MOL0     H68408   3.441   2.044   5.714  2.2059  3.7510  0.6999
  507MOL0     H68409   3.465   2.524   5.844 -0.7643 -1.0064  1.1973
  507MOL0     H68410   3.672   2.630   5.897 -0.5152 -1.9408 -1.7196
  507MOL0     H68411   3.868   2.508   6.284 -0.5229  1.2411 -1.2784
  507MOL0     H68412   3.944   2.393   6.170  0.1442  0.2199 -2.2012
  507MOL0     H68413   4.109   2.543   6.115 -0.9881 -1.3862 -0.0375
  507MOL0     H68414   4.041   2.686   6.194  2.4610  0.7482 -1.1121
  507MOL0     H68415   4.101   2.433   6.354 -5.3349 -0.1311 -3.7325
  507MOL0     H68416   4.078   2.596   6.408  0.8537 -1.8402  1.1341
  507MOL0     H68417   4.296   2.555   6.214  2.9702 -0.1722  1.7218
  507MOL0     H68418   4.246   2.690   6.318  0.7991 -0.0889  1.2309
  507MOL0     H68419   4.388   2.432   6.401 -0.2500  0.3009  2.2883
  507MOL0     H68420   4.290   2.525   6.517  1.5164  0.4699  2.5026
  507MOL0     H68421   4.506   2.650   6.327  2.1699 -1.6445  0.0003
  507MOL0     H68422   4.421   2.734   6.451  0.1448 -0.1606 -0.3564
  507MOL0     H68423   4.651   2.546   6.460  0.6058  1.5563 -0.7476
  507MOL0     H68424   4.559   2.549   6.615 -1.0418 -0.8535 -0.0929
  507MOL0     H68425   4.587   2.799   6.600 -2.9231 -1.7024 -1.3359
  507MOL0     H68426   4.717   2.767   6.478  1.2296  0.6206  1.1726
  507MOL0     H68427   3.769   2.285   6.146  1.0159 -0.8229 -1.4457
  507MOL0     H68428   3.591   2.176   6.054  1.6759  0.4497  0.6378
  507MOL0     H68429   3.034   2.265   5.922 -1.2822  1.3743 -1.9818
  507MOL0     H68430   2.874   2.099   5.832 -0.8697  0.5305 -1.9912
  507MOL0     H68431   2.180   0.892   6.410 -0.0838  0.3510  0.2981
  507MOL0     H68432   2.224   0.686   6.300 -0.5484 -0.5818  0.5200
  507MOL0     H68433   2.154   0.381   5.999  0.1640 -0.2321 -2.0638
  507MOL0     H68434   2.187   0.187   5.859 -0.6125 -2.6579 -0.0614
  507MOL0     H68435   2.108   0.017   5.702 -3.0334  1.6995  1.9160
  507MOL0     H68436   2.225  -0.019   5.838 -0.5602 -0.4118  3.9877
  507MOL0     H68437   2.185  -0.255   5.808  1.9910 -1.0936 -2.0710
  507MOL0     H68438   2.239  -0.189   5.659 -0.8297 -5.3418 -3.1481
  507MOL0     H68439   2.069  -0.334   5.599  0.2153 -1.4215  2.5720
  507MOL0     H68440   1.998  -0.174   5.575 -1.2454  0.9850  1.0064
  507MOL0     H68441   1.846  -0.210   5.769 -1.8469 -1.7631  0.1008
  507MOL0     H68442   1.937  -0.355   5.810 -0.5578 -2.5150 -0.8313
  507MOL0     H68443   1.678  -0.514   5.546 -1.8806  1.6267  1.0941
  507MOL0     H68444   1.810   0.033   6.005  1.1136 -1.8124 -1.4983
  507MOL0     H68445   1.787   0.229   6.162 -0.2020 -1.2399  1.1416
  508MOL0     O68446   5.085   1.960   4.746 -0.0948  0.5399 -0.2098
  508MOL0     C68447   5.174   1.919   4.817  0.6414 -0.3046 -0.6498
  508MOL0     O68448   5.166   1.887   4.948  0.4439  0.1991  0.2375
  508MOL0     C68449   5.043   1.932   4.999 -0.6670 -0.4023 -0.3815
  508MOL0     C68450   4.937   1.858   4.971 -0.2370  0.2338 -0.7973
  508MOL0     C68451   4.811   1.881   5.037  0.5712 -0.5618  0.4297
  508MOL0     C68452   4.795   1.985   5.124 -0.4120 -0.8659 -0.6705
  508MOL0     O68453   4.671   2.018   5.172 -0.0377  0.7938 -0.1689
  508MOL0     C68454   4.649   2.122   5.267  0.3014 -0.5073  1.1750
  508MOL0     C68455   4.501   2.145   5.297 -0.7474  0.1486 -0.1101
  508MOL0     C68456   4.456   2.082   5.429 -0.6743  0.1361  0.4366
  508MOL0     C68457   4.328   2.155   5.489 -0.1298  0.1719 -0.0053
  508MOL0     C68458   4.261   2.079   5.610  0.5398 -0.0036  0.2521
  508MOL0     C68459   4.351   2.084   5.731 -1.2586 -1.0715 -0.1613
  508MOL0     C68460   4.317   1.988   5.846 -0.2509 -0.6164 -0.3624
  508MOL0     C68461   4.329   1.843   5.813  0.3070  0.3608 -0.1653
  508MOL0     N68462   4.215   1.776   5.750  0.6886 -0.0386 -0.0406
  508MOL0     C68463   4.084   1.813   5.784  0.0145  0.2038  0.5625
  508MOL0     C68464   3.993   1.766   5.690 -0.2462  0.2962 -0.1463
  508MOL0     C68465   3.857   1.806   5.687  0.4822  0.5462  0.1525
  508MOL0     C68466   3.776   1.684   5.726  0.5238 -0.0696  0.0628
  508MOL0     C68467   3.622   1.708   5.692  0.3467 -0.2644 -0.2049
  508MOL0     C68468   3.539   1.582   5.691 -0.3350  0.4556 -0.1370
  508MOL0     O68469   3.413   1.617   5.635 -0.1130  0.4070  0.3065
  508MOL0     C68470   3.324   1.523   5.595  0.7278  0.8009  0.4609
  508MOL0     C68471   3.336   1.391   5.613 -0.7582 -0.3217  0.5082
  508MOL0     C68472   3.234   1.295   5.588  0.5812 -1.5095 -0.3926
  508MOL0     C68473   3.272   1.150   5.590 -0.7292 -0.3279  1.0911
  508MOL0     C68474   3.105   1.347   5.541 -0.1132  0.8754  0.3027
  508MOL0     C68475   2.992   1.254   5.507  1.1045  0.4461 -0.0255
  508MOL0     O68476   3.028   1.129   5.473 -0.2709 -0.4684 -0.6446
  508MOL0     C68477   2.946   1.025   5.433 -1.1839  0.0482 -1.0354
  508MOL0     C68478   2.841   1.043   5.340  0.2186  0.0427 -0.0536
  508MOL0     C68479   2.759   0.938   5.293 -0.0958 -0.1065  0.3984
  508MOL0     C68480   2.782   0.810   5.342  0.4820  1.0235  0.3007
  508MOL0     O68481   2.702   0.701   5.317  0.2567  0.1546 -0.8851
  508MOL0     C68482   2.561   0.724   5.334 -0.1198 -0.0990 -0.1034
  508MOL0     C68483   2.483   0.592   5.324  0.0696  0.1515  0.4600
  508MOL0     C68484   2.488   0.498   5.450 -0.2076  0.1135 -0.8854
  508MOL0     C68485   2.600   0.395   5.459 -0.2880  0.4945 -0.0364
  508MOL0     C68486   2.573   0.273   5.547  0.0172  0.9598  0.0272
  508MOL0     C68487   2.590   0.323   5.689  0.0210  0.1586  0.6259
  508MOL0     C68488   2.621   0.201   5.773  0.5533 -0.3617 -0.2875
  508MOL0     C68489   2.615   0.226   5.924 -0.2559  1.3205 -0.0263
  508MOL0    Cl68490   2.449   0.208   5.987  0.5278 -0.6848 -0.3343
  508MOL0     C68491   2.885   0.789   5.432 -0.4681 -0.1631 -0.4763
  508MOL0     C68492   2.976   0.898   5.464 -0.3012  0.6264  0.2797
  508MOL0     O68493   2.874   1.295   5.513  0.5217 -0.1770  0.1971
  508MOL0     C68494   3.092   1.489   5.533  0.3409  0.0478  0.7788
  508MOL0     C68495   3.203   1.570   5.558 -0.0157 -0.6396  0.2945
  508MOL0     N68496   4.074   1.700   5.601  0.0025 -0.2582  0.0118
  508MOL0     N68497   4.200   1.702   5.630 -0.6215 -0.5454  0.3332
  508MOL0     C68498   4.904   2.062   5.154 -0.7635  0.6233  0.0741
  508MOL0     C68499   5.027   2.033   5.101 -0.4438  0.5784 -0.1390
  508MOL0     C68500   5.310   1.896   4.755 -0.1026 -0.4275 -0.1987
  508MOL0     C68501   5.329   1.899   4.613  0.8466 -0.6599 -0.0029
  508MOL0     C68502   5.449   1.869   4.549 -0.3318  0.4490  0.0228
  508MOL0     C68503   5.554   1.828   4.631  0.1019 -0.3324  0.1640
  508MOL0     O68504   5.681   1.791   4.595  0.5199  0.0363  0.9198
  508MOL0     C68505   5.749   1.900   4.532  0.3319 -0.2753  0.4242
  508MOL0     C68506   5.827   1.980   4.634 -0.6284 -0.2357 -0.2129
  508MOL0     C68507   5.907   1.891   4.734  0.2526  0.2933 -0.3880
  508MOL0     C68508   6.022   1.966   4.805 -0.2257  0.2888  0.2646
  508MOL0     C68509   6.088   1.869   4.893  0.0850 -0.1997  0.4811
  508MOL0     C68510   6.126   1.783   4.968 -0.5032 -0.5159  0.0779
  508MOL0     C68511   5.542   1.833   4.771  0.3032 -0.5969 -0.4478
  508MOL0     C68512   5.422   1.866   4.834 -0.1777  0.8654 -0.2913
  508MOL0     H68513   4.942   1.770   4.907 -1.9841  0.2715 -1.0516
  508MOL0     H68514   4.724   1.820   5.013 -1.6710  1.4322  2.8730
  508MOL0     H68515   4.710   2.117   5.357  1.4743  2.1019  0.6408
  508MOL0     H68516   4.687   2.213   5.218  1.9791 -1.6980  0.1831
  508MOL0     H68517   4.485   2.253   5.303  3.3573  0.8560  2.8710
  508MOL0     H68518   4.441   2.105   5.215 -1.0975  1.2074 -0.3876
  508MOL0     H68519   4.424   1.979   5.409  0.1081  0.0547 -0.4631
  508MOL0     H68520   4.539   2.071   5.499  0.9766 -1.9278 -1.6577
  508MOL0     H68521   4.364   2.252   5.524  0.6175 -0.9397  2.5974
  508MOL0     H68522   4.255   2.172   5.410 -0.8313 -2.3321  0.0200
  508MOL0     H68523   4.167   2.130   5.635  0.2384 -0.2766 -0.3019
  508MOL0     H68524   4.230   1.976   5.588  0.2940 -0.1043  1.0381
  508MOL0     H68525   4.456   2.063   5.707 -1.0002  0.1741 -0.1739
  508MOL0     H68526   4.348   2.183   5.777 -0.8139 -0.8900 -0.5148
  508MOL0     H68527   4.385   2.003   5.930 -0.2561 -2.6332  0.0448
  508MOL0     H68528   4.213   2.013   5.872  0.6390  2.4600  0.6526
  508MOL0     H68529   4.349   1.794   5.908  0.3529 -1.0108 -0.8641
  508MOL0     H68530   4.413   1.834   5.744  1.7714  1.7372  1.3432
  508MOL0     H68531   4.051   1.891   5.852 -1.9218 -0.8862  0.9330
  508MOL0     H68532   3.838   1.897   5.744  1.6616  0.7174  0.2990
  508MOL0     H68533   3.839   1.819   5.580 -0.1101 -0.2276  0.1411
  508MOL0     H68534   3.788   1.649   5.829 -0.6953  1.2938  0.6861
  508MOL0     H68535   3.812   1.601   5.665 -1.9129 -1.3139  0.1968
  508MOL0     H68536   3.614   1.751   5.592 -3.7044  1.2707  0.6106
  508MOL0     H68537   3.573   1.771   5.767 -0.2318  0.1781 -0.9401
  508MOL0     H68538   3.527   1.541   5.791  0.5452 -1.6496 -0.8349
  508MOL0     H68539   3.593   1.502   5.639  0.0039 -0.7649  1.9707
  508MOL0     H68540   3.432   1.347   5.638 -0.7154 -1.1183 -0.9700
  508MOL0     H68541   3.200   1.083   5.638  0.7763 -1.0973  2.3743
  508MOL0     H68542   3.285   1.125   5.484 -0.7069 -0.2534  1.0765
  508MOL0     H68543   3.369   1.140   5.640 -0.2420 -0.3098  0.1667
  508MOL0     H68544   2.834   1.143   5.297  1.8895  0.0385 -0.3760
  508MOL0     H68545   2.682   0.953   5.217  0.4782 -1.5081 -0.4981
  508MOL0     H68546   2.555   0.766   5.435  1.3916 -2.2554  0.9529
  508MOL0     H68547   2.526   0.798   5.262  2.5988  1.1852 -0.2009
  508MOL0     H68548   2.377   0.622   5.320  0.5313  1.7879 -1.3621
  508MOL0     H68549   2.505   0.542   5.230  0.5518  1.1817  0.0049
  508MOL0     H68550   2.396   0.439   5.455 -0.8080  1.0845  0.0044
  508MOL0     H68551   2.474   0.569   5.532  0.8507 -1.9577  1.2171
  508MOL0     H68552   2.620   0.361   5.357  0.8200 -0.8285  0.5752
  508MOL0     H68553   2.695   0.440   5.489 -0.3693  0.3623  0.4287
  508MOL0     H68554   2.653   0.202   5.521 -1.2309 -0.5164  0.0924
  508MOL0     H68555   2.479   0.227   5.515  1.4243 -0.7944 -1.8786
  508MOL0     H68556   2.666   0.400   5.705  1.4636 -0.7603 -1.4316
  508MOL0     H68557   2.498   0.367   5.729 -0.0520  0.3507  0.2468
  508MOL0     H68558   2.716   0.152   5.751 -0.2195 -1.1913 -2.0218
  508MOL0     H68559   2.549   0.119   5.757  0.8229 -0.8795  1.0604
  508MOL0     H68560   2.664   0.320   5.951  0.4831  0.0104  3.8890
  508MOL0     H68561   2.682   0.153   5.971  2.0011  1.4970 -2.7501
  508MOL0     H68562   2.899   0.690   5.476  0.4498  0.2827  0.2826
  508MOL0     H68563   3.062   0.870   5.524 -0.8530  2.0978  1.8556
  508MOL0     H68564   2.997   1.523   5.493  0.2353  0.7657  1.5996
  508MOL0     H68565   3.196   1.679   5.555 -1.8335 -0.7024  1.1931
  508MOL0     H68566   4.902   2.137   5.233  2.2099 -0.1202  0.9747
  508MOL0     H68567   5.122   2.080   5.123 -0.5737  0.0989  1.5774
  508MOL0     H68568   5.246   1.924   4.548  2.7263  0.7265 -2.0174
  508MOL0     H68569   5.450   1.872   4.441 -0.2598  0.9489  0.0315
  508MOL0     H68570   5.821   1.856   4.463  0.0591 -0.7796  0.4591
  508MOL0     H68571   5.686   1.979   4.491 -0.5098  1.4052  4.4402
  508MOL0     H68572   5.759   2.035   4.699 -0.5959 -2.9461  2.3636
  508MOL0     H68573   5.895   2.047   4.581 -0.0267 -1.0927 -0.5637
  508MOL0     H68574   5.945   1.801   4.686  1.3803  1.2031 -1.2809
  508MOL0     H68575   5.835   1.861   4.810  1.9441  1.1519  1.6656
  508MOL0     H68576   5.980   2.050   4.862 -2.8924 -1.7413  1.5162
  508MOL0     H68577   6.101   2.002   4.738 -0.3902  1.4144  0.6477
  508MOL0     H68578   6.167   1.709   5.034  0.9864  0.8897  0.7898
  508MOL0     H68579   5.629   1.794   4.822  1.9018  2.9482 -0.1956
  508MOL0     H68580   5.418   1.880   4.941  0.7660  2.6915 -0.4556
  509MOL0     O68581   0.691   5.946   2.035  0.2168 -0.0097 -0.0784
  509MOL0     C68582   0.710   5.848   2.096 -0.3488  0.3581  0.0698
  509MOL0     O68583   0.832   5.782   2.107  0.0490  0.0899 -0.5177
  509MOL0     C68584   0.942   5.808   2.028 -0.2332 -0.2306 -0.7948
  509MOL0     C68585   0.944   5.910   1.922 -1.0662 -0.0073  0.3578
  509MOL0     C68586   1.063   5.943   1.853 -0.8921 -0.6015 -0.3729
  509MOL0     C68587   1.182   5.880   1.883 -0.2011  0.2644 -0.0259
  509MOL0     O68588   1.302   5.905   1.827 -0.1975  0.3711  0.3454
  509MOL0     C68589   1.408   5.972   1.903 -0.2829  0.1818  0.2388
  509MOL0     C68590   1.537   5.990   1.824  0.2606  0.5989 -0.7450
  509MOL0     C68591   1.630   5.878   1.827 -0.4627 -0.6397 -0.1338
  509MOL0     C68592   1.581   5.752   1.752 -0.8302  1.4795 -0.5138
  509MOL0     C68593   1.694   5.639   1.740  0.5365  0.1969  0.1679
  509MOL0     C68594   1.754   5.591   1.870  0.0684 -0.6077 -0.2397
  509MOL0     C68595   1.644   5.537   1.965 -0.2318 -0.3302  0.4510
  509MOL0     C68596   1.710   5.468   2.080 -0.3155  0.3465  0.5904
  509MOL0     N68597   1.625   5.390   2.179  0.0843 -0.0149  0.6973
  509MOL0     C68598   1.491   5.406   2.175  0.0034  0.3304  0.3905
  509MOL0     C68599   1.455   5.341   2.290  0.3100  0.2937  0.7475
  509MOL0     C68600   1.312   5.307   2.316  0.5359  0.0952 -1.2995
  509MOL0     C68601   1.257   5.222   2.203  0.7215 -0.5346 -0.4457
  509MOL0     C68602   1.326   5.089   2.190 -0.1583 -0.3393  0.1458
  509MOL0     C68603   1.258   5.011   2.071 -0.6417  0.6832 -0.4005
  509MOL0     O68604   1.121   4.976   2.095  0.0592 -0.0349  0.0644
  509MOL0     C68605   1.091   4.876   2.177  0.4548  0.1554  0.7105
  509MOL0     C68606   1.182   4.764   2.205 -0.5383  0.0829 -0.4651
  509MOL0     C68607   1.145   4.659   2.285 -0.4115  1.0683 -0.3800
  509MOL0     C68608   1.243   4.539   2.305 -0.4817 -0.6408 -0.3817
  509MOL0     C68609   1.011   4.658   2.332  0.5639  0.2622 -0.2224
  509MOL0     C68610   0.961   4.557   2.435  0.1188  0.3880 -0.5459
  509MOL0     O68611   1.046   4.468   2.507 -0.0090 -0.2935 -0.1365
  509MOL0     C68612   1.001   4.396   2.618 -0.5538 -0.1360 -0.0177
  509MOL0     C68613   1.093   4.379   2.721 -0.1436 -0.0783 -0.3000
  509MOL0     C68614   1.059   4.322   2.843  0.5849  0.6455  0.6858
  509MOL0     C68615   0.933   4.259   2.854 -0.3574  1.2336  0.3858
  509MOL0     O68616   0.900   4.175   2.961 -0.4527 -0.1236  0.2001
  509MOL0     C68617   0.999   4.118   3.040 -0.3916  0.1853  0.0637
  509MOL0     C68618   0.934   4.030   3.140 -0.0574 -0.0047 -0.0085
  509MOL0     C68619   0.908   3.888   3.080 -0.0693 -0.0589  0.5569
  509MOL0     C68620   0.760   3.866   3.034 -0.4367  0.0354 -0.0833
  509MOL0     C68621   0.740   3.723   2.990 -0.3600 -0.0304  0.1529
  509MOL0     C68622   0.601   3.695   2.933  0.4620 -0.0057  0.6927
  509MOL0     C68623   0.583   3.541   2.910 -0.3405 -0.3610 -0.7594
  509MOL0     C68624   0.692   3.491   2.813  0.6852  0.3803 -0.6485
  509MOL0    Cl68625   0.657   3.314   2.780 -0.3842  0.0403  0.0167
  509MOL0     C68626   0.848   4.250   2.738  0.2937  0.6521  0.6793
  509MOL0     C68627   0.882   4.320   2.627 -0.8437  0.6551  0.7311
  509MOL0     O68628   0.841   4.570   2.463 -0.8164 -0.3603  0.3160
  509MOL0     C68629   0.925   4.762   2.302  0.1957  0.7150 -1.1045
  509MOL0     C68630   0.965   4.875   2.224  0.2420 -0.1672 -0.5239
  509MOL0     N68631   1.562   5.286   2.351 -0.2899  0.4817 -0.4651
  509MOL0     N68632   1.668   5.318   2.292 -1.3518  0.6274  0.1050
  509MOL0     C68633   1.180   5.770   1.979 -0.7833  0.3177  0.0997
  509MOL0     C68634   1.063   5.734   2.051 -0.5560 -0.5929  0.1446
  509MOL0     C68635   0.590   5.793   2.157  0.1251  0.1077 -0.3403
  509MOL0     C68636   0.592   5.679   2.236  0.5737  0.3244  0.4657
  509MOL0     C68637   0.465   5.623   2.277  0.0141  1.1806  0.3706
  509MOL0     C68638   0.347   5.679   2.243  0.0224  0.4264 -0.5079
  509MOL0     O68639   0.236   5.602   2.272 -0.3364 -0.4202 -0.7698
  509MOL0     C68640   0.109   5.641   2.218 -0.4554  0.1944 -0.0405
  509MOL0     C68641   0.006   5.531   2.258 -0.3614 -0.0845 -0.1466
  509MOL0     C68642  -0.138   5.554   2.217  0.3080 -0.2957  0.8807
  509MOL0     C68643  -0.219   5.421   2.214  0.7692  0.2689  0.2873
  509MOL0     C68644  -0.365   5.448   2.212 -0.1065 -0.6325 -0.4447
  509MOL0     C68645  -0.482   5.482   2.204 -0.1323  0.2718 -0.8499
  509MOL0     C68646   0.347   5.793   2.169 -0.0023 -0.0595 -1.3415
  509MOL0     C68647   0.467   5.843   2.121  0.2124 -0.9000 -0.0975
  509MOL0     H68648   0.863   5.967   1.878 -0.6783 -0.9515 -1.6894
  509MOL0     H68649   1.072   6.035   1.796  4.3037 -0.9006 -0.4673
  509MOL0     H68650   1.367   6.073   1.918  1.2606  0.7598  0.7729
  509MOL0     H68651   1.425   5.922   1.998 -2.8695 -3.0855 -0.8183
  509MOL0     H68652   1.510   6.000   1.719 -2.1677  1.3722 -0.1141
  509MOL0     H68653   1.588   6.079   1.862 -2.3910  2.1334 -0.5266
  509MOL0     H68654   1.726   5.910   1.786  0.0822 -1.3738  0.5478
  509MOL0     H68655   1.641   5.849   1.932 -1.5397 -1.3691 -0.1949
  509MOL0     H68656   1.496   5.715   1.809 -0.2017  1.8291  0.6888
  509MOL0     H68657   1.539   5.776   1.654 -0.6345  2.4411 -0.3734
  509MOL0     H68658   1.640   5.558   1.691 -1.0566  2.7290 -2.5770
  509MOL0     H68659   1.772   5.682   1.676 -0.1228  0.5022 -0.4323
  509MOL0     H68660   1.828   5.515   1.842 -1.1052 -1.3459 -1.4823
  509MOL0     H68661   1.809   5.672   1.919  2.5375 -0.4168 -3.0210
  509MOL0     H68662   1.583   5.617   2.009  1.5299  0.7669  1.0086
  509MOL0     H68663   1.571   5.473   1.914 -0.0909 -0.0708 -0.0786
  509MOL0     H68664   1.783   5.533   2.129  2.2735 -0.0463 -2.4621
  509MOL0     H68665   1.785   5.405   2.032  2.4777  3.5189  0.4603
  509MOL0     H68666   1.430   5.443   2.093  1.2066  1.4555 -0.0269
  509MOL0     H68667   1.297   5.255   2.411  1.2308  1.6966 -0.2618
  509MOL0     H68668   1.240   5.389   2.312 -0.5875 -0.6492  1.3949
  509MOL0     H68669   1.287   5.277   2.113 -0.5337  0.5990 -0.1979
  509MOL0     H68670   1.148   5.224   2.200  0.6993  2.2621 -0.3441
  509MOL0     H68671   1.310   5.036   2.284  0.1511 -2.2364 -0.8292
  509MOL0     H68672   1.434   5.099   2.177  0.2927 -3.2172  1.0214
  509MOL0     H68673   1.323   4.925   2.051 -0.1000  1.3523 -1.6852
  509MOL0     H68674   1.263   5.077   1.984  1.3950  1.6719  0.4080
  509MOL0     H68675   1.285   4.760   2.170 -0.4529  2.2850 -0.5924
  509MOL0     H68676   1.327   4.553   2.235 -0.7091  1.2647 -0.3107
  509MOL0     H68677   1.285   4.520   2.404 -2.7009 -4.0263  0.0767
  509MOL0     H68678   1.187   4.452   2.269  1.1203 -1.8285 -0.1503
  509MOL0     H68679   1.182   4.441   2.719 -0.2388  0.0831  0.2881
  509MOL0     H68680   1.127   4.321   2.928 -1.1653 -0.2808  2.1376
  509MOL0     H68681   1.075   4.068   2.980 -0.9817 -0.5164 -0.1169
  509MOL0     H68682   1.053   4.196   3.094 -1.6934  0.3689  1.1648
  509MOL0     H68683   1.006   4.026   3.222 -0.5489 -1.8042  0.3844
  509MOL0     H68684   0.840   4.069   3.181 -2.1569 -2.2850 -2.2581
  509MOL0     H68685   0.913   3.813   3.160  0.0683 -3.1867 -2.1973
  509MOL0     H68686   0.984   3.859   3.007 -0.2512  1.7507 -0.4033
  509MOL0     H68687   0.695   3.893   3.118 -1.0014  0.0393 -0.5211
  509MOL0     H68688   0.751   3.928   2.945 -1.4985 -1.1578 -0.8466
  509MOL0     H68689   0.761   3.653   3.071  3.2886 -0.3353 -0.8648
  509MOL0     H68690   0.830   3.699   2.932  0.6127 -0.7876  1.9168
  509MOL0     H68691   0.522   3.733   2.999  0.1014  0.2009  0.1444
  509MOL0     H68692   0.605   3.766   2.850  1.2042  3.7556  3.6336
  509MOL0     H68693   0.487   3.530   2.857 -0.1436  2.0024 -1.7230
  509MOL0     H68694   0.573   3.487   3.005 -2.1724 -2.4108 -2.0043
  509MOL0     H68695   0.790   3.492   2.863 -0.4421  1.5561  1.7144
  509MOL0     H68696   0.684   3.558   2.727 -2.6335  0.8889 -0.0765
  509MOL0     H68697   0.755   4.194   2.742  0.2339  0.6469 -0.5282
  509MOL0     H68698   0.815   4.312   2.542  0.0832 -3.5589  0.1739
  509MOL0     H68699   0.827   4.768   2.346 -0.1752  0.9702 -1.9378
  509MOL0     H68700   0.900   4.961   2.210  0.0448  0.0226  1.3581
  509MOL0     H68701   1.267   5.707   1.995 -0.9378  0.4897  1.8413
  509MOL0     H68702   1.069   5.646   2.116  0.2817 -1.1522 -0.6730
  509MOL0     H68703   0.681   5.637   2.281  0.8287  0.7726  0.3807
  509MOL0     H68704   0.457   5.529   2.332  4.0629  1.2365  1.4182
  509MOL0     H68705   0.069   5.727   2.271  0.0604 -1.2307  2.8376
  509MOL0     H68706   0.110   5.658   2.110  0.7645 -0.9940 -0.2384
  509MOL0     H68707   0.000   5.493   2.360  0.2280 -2.7326 -1.0107
  509MOL0     H68708   0.042   5.446   2.200  0.2197 -0.5311  0.8435
  509MOL0     H68709  -0.148   5.586   2.113 -1.6052 -1.5118  0.6354
  509MOL0     H68710  -0.190   5.628   2.279 -0.9554  1.0874 -1.6726
  509MOL0     H68711  -0.200   5.368   2.308  1.5912  0.1532  0.0644
  509MOL0     H68712  -0.188   5.362   2.128  0.1249  0.5696 -0.1603
  509MOL0     H68713  -0.582   5.521   2.199 -0.2207 -0.0341 -1.4757
  509MOL0     H68714   0.258   5.853   2.154  1.0422  3.2030  3.4336
  509MOL0     H68715   0.452   5.937   2.070 -1.8270  0.2220  2.3643
  510MOL0     O68716   0.646   4.218   7.973 -0.1478  0.5556 -0.1177
  510MOL0     C68717   0.720   4.200   7.878  0.6826  0.5187  0.1888
  510MOL0     O68718   0.683   4.188   7.746  0.0736 -0.6065 -0.9413
  510MOL0     C68719   0.546   4.183   7.710 -0.1060 -0.2072 -1.0452
  510MOL0     C68720   0.498   4.258   7.602 -0.2638 -0.5801  0.5924
  510MOL0     C68721   0.364   4.244   7.555 -0.9084 -1.0936 -0.3795
  510MOL0     C68722   0.271   4.167   7.622 -0.1678  0.0156  0.1827
  510MOL0     O68723   0.138   4.154   7.590 -0.4375  0.0212 -0.2153
  510MOL0     C68724   0.072   4.252   7.511 -0.2112 -0.1930 -0.2279
  510MOL0     C68725  -0.083   4.233   7.515 -0.4279 -0.1763  0.5898
  510MOL0     C68726  -0.165   4.313   7.417  0.0303 -0.0393  0.2687
  510MOL0     C68727  -0.314   4.289   7.428 -0.3242 -0.0544  0.4309
  510MOL0     C68728  -0.387   4.368   7.312 -0.0362 -0.0754 -1.2625
  510MOL0     C68729  -0.539   4.376   7.318 -0.1045 -0.5293 -0.4961
  510MOL0     C68730  -0.583   4.474   7.212 -1.1821  0.6949  0.5138
  510MOL0     C68731  -0.736   4.481   7.189 -1.0219 -1.5199 -0.0629
  510MOL0     N68732  -0.768   4.559   7.068 -0.4821 -0.0502 -1.1471
  510MOL0     C68733  -0.825   4.504   6.949  0.2971 -0.1821 -0.6602
  510MOL0     C68734  -0.793   4.593   6.852 -1.1294 -0.2782 -0.0703
  510MOL0     C68735  -0.835   4.589   6.708  0.3627 -0.1820 -0.0983
  510MOL0     C68736  -0.745   4.492   6.627  0.5448  0.1590  0.6307
  510MOL0     C68737  -0.811   4.419   6.508 -0.2327 -1.1274 -1.0787
  510MOL0     C68738  -0.705   4.352   6.423  0.9248  0.2133  0.6543
  510MOL0     O68739  -0.758   4.325   6.294  0.4465  0.4079  0.5701
  510MOL0     C68740  -0.665   4.315   6.200  0.9333  0.1973  1.5437
  510MOL0     C68741  -0.548   4.241   6.206 -0.4763 -0.1265  0.5586
  510MOL0     C68742  -0.450   4.232   6.109  0.0363 -0.0444  0.3863
  510MOL0     C68743  -0.345   4.131   6.134 -1.1217 -0.1820  0.1162
  510MOL0     C68744  -0.468   4.301   5.992 -0.0988 -0.8133 -0.3341
  510MOL0     C68745  -0.360   4.310   5.889  0.7730  0.6908 -0.8087
  510MOL0     O68746  -0.271   4.211   5.876  0.1985 -0.4554  0.3914
  510MOL0     C68747  -0.190   4.197   5.772 -0.3378  0.2514  0.5014
  510MOL0     C68748  -0.212   4.244   5.636  1.2033 -0.6837  0.5562
  510MOL0     C68749  -0.121   4.224   5.537 -0.9538 -0.0698  0.2688
  510MOL0     C68750   0.002   4.158   5.561 -0.0493 -0.8275  0.4772
  510MOL0     O68751   0.113   4.154   5.481 -0.5133 -0.2749 -0.4966
  510MOL0     C68752   0.096   4.228   5.357 -0.7181  0.6708 -0.6821
  510MOL0     C68753   0.214   4.191   5.274 -0.1904 -0.6705 -0.4024
  510MOL0     C68754   0.219   4.279   5.147 -0.2909 -0.6495  0.0991
  510MOL0     C68755   0.287   4.413   5.178  0.6895 -0.0973 -0.4568
  510MOL0     C68756   0.336   4.475   5.050  0.3235 -0.2435  0.6498
  510MOL0     C68757   0.423   4.595   5.072 -0.3068  0.1118  0.4541
  510MOL0     C68758   0.554   4.563   5.138  0.0010  0.1308  0.6960
  510MOL0     C68759   0.632   4.690   5.138  0.2699 -0.0449  0.2076
  510MOL0    Cl68760   0.771   4.671   5.241 -0.4403  0.3719  0.1173
  510MOL0     C68761   0.020   4.105   5.688  0.1936 -0.9408 -0.3287
  510MOL0     C68762  -0.064   4.130   5.792  0.1852 -0.4482 -0.1946
  510MOL0     O68763  -0.359   4.417   5.829 -0.3000  0.4549 -0.2162
  510MOL0     C68764  -0.590   4.373   5.976  0.0716  0.8782 -1.0610
  510MOL0     C68765  -0.694   4.374   6.072  0.7599  0.2865  0.6815
  510MOL0     N68766  -0.720   4.696   6.911  0.3612 -0.0686  0.1572
  510MOL0     N68767  -0.705   4.674   7.037 -0.7264 -0.0940  0.6875
  510MOL0     C68768   0.314   4.099   7.735  0.0732 -0.9704 -0.1872
  510MOL0     C68769   0.451   4.101   7.778 -0.3946  0.0480 -0.7437
  510MOL0     C68770   0.865   4.159   7.909  0.3283  0.6801 -0.3764
  510MOL0     C68771   0.902   4.155   8.044 -0.4721 -0.8034  0.0509
  510MOL0     C68772   1.030   4.111   8.081 -0.8865 -0.2975  0.6475
  510MOL0     C68773   1.125   4.072   7.982 -0.7637  0.0870  0.4693
  510MOL0     O68774   1.255   4.015   7.997 -0.6251  0.4462  0.4921
  510MOL0     C68775   1.317   4.019   8.129  0.2171  0.1446 -0.2713
  510MOL0     C68776   1.472   4.014   8.107 -0.1749 -0.0984 -0.3733
  510MOL0     C68777   1.548   4.142   8.058  0.2103 -0.1358  0.1438
  510MOL0     C68778   1.693   4.134   8.053  0.0740 -0.0617  0.3524
  510MOL0     C68779   1.755   4.259   8.032 -0.2284  0.1671  0.1750
  510MOL0     C68780   1.806   4.362   8.005 -0.2136 -0.4962 -0.1121
  510MOL0     C68781   1.083   4.067   7.848 -0.0048  0.0969  0.6001
  510MOL0     C68782   0.954   4.112   7.817  0.8126  0.4105  1.7474
  510MOL0     H68783   0.568   4.326   7.554 -0.6163 -0.2231  0.5777
  510MOL0     H68784   0.332   4.289   7.461 -2.6437  0.0128  0.7091
  510MOL0     H68785   0.088   4.353   7.551  1.5737 -0.5073 -0.1051
  510MOL0     H68786   0.114   4.239   7.411  0.3386 -2.0742  0.2185
  510MOL0     H68787  -0.102   4.131   7.479  4.2581  0.1067 -3.7642
  510MOL0     H68788  -0.115   4.242   7.619 -2.8374 -1.6443  0.0682
  510MOL0     H68789  -0.149   4.421   7.426  2.6517 -0.5306  2.7712
  510MOL0     H68790  -0.130   4.286   7.317  0.1671  4.7879 -1.2627
  510MOL0     H68791  -0.317   4.180   7.415  0.6444  0.2325 -3.3556
  510MOL0     H68792  -0.361   4.322   7.521  1.7683  0.6537  1.3033
  510MOL0     H68793  -0.351   4.471   7.310 -0.5397  0.1009 -2.9941
  510MOL0     H68794  -0.361   4.323   7.216  3.1707  2.4894 -1.7492
  510MOL0     H68795  -0.578   4.275   7.309 -0.2934 -0.5449  0.3598
  510MOL0     H68796  -0.567   4.422   7.413 -1.6424  0.3926 -1.3534
  510MOL0     H68797  -0.542   4.574   7.229  1.1578  0.2145 -1.6814
  510MOL0     H68798  -0.544   4.438   7.116 -0.5361  3.0414 -0.1803
  510MOL0     H68799  -0.782   4.528   7.277 -0.0099 -0.0556 -0.2656
  510MOL0     H68800  -0.788   4.386   7.178  0.9090 -2.5534 -0.5837
  510MOL0     H68801  -0.895   4.423   6.933  0.1286 -0.4015  0.9678
  510MOL0     H68802  -0.942   4.567   6.709 -0.2013  2.3187  0.5212
  510MOL0     H68803  -0.828   4.692   6.671 -3.6396  0.3984  0.2696
  510MOL0     H68804  -0.715   4.407   6.689  0.6789 -1.0242 -0.9992
  510MOL0     H68805  -0.658   4.550   6.594 -1.2372  1.2296 -2.6971
  510MOL0     H68806  -0.870   4.492   6.452  0.5466 -0.1117 -0.6033
  510MOL0     H68807  -0.889   4.354   6.549 -0.1472 -0.8153 -0.4212
  510MOL0     H68808  -0.682   4.256   6.470 -0.5280 -0.4362  0.0965
  510MOL0     H68809  -0.618   4.418   6.428  0.9624  0.1411  0.9702
  510MOL0     H68810  -0.540   4.187   6.300  3.9215  0.2023  0.6095
  510MOL0     H68811  -0.250   4.185   6.130 -1.2681  0.0492 -3.3842
  510MOL0     H68812  -0.352   4.082   6.231  0.3172 -0.5952  0.0439
  510MOL0     H68813  -0.337   4.043   6.069  1.6366 -2.5788  3.3551
  510MOL0     H68814  -0.306   4.288   5.604  1.4436  1.5202  2.5535
  510MOL0     H68815  -0.146   4.269   5.442 -2.1258 -1.2819 -0.0220
  510MOL0     H68816   0.008   4.192   5.304 -0.7977 -0.3259  0.0849
  510MOL0     H68817   0.084   4.337   5.364 -2.5042  0.4334  0.8703
  510MOL0     H68818   0.303   4.210   5.334 -0.4584  3.3872 -0.9925
  510MOL0     H68819   0.195   4.090   5.236  1.9709 -1.6929  1.0312
  510MOL0     H68820   0.124   4.293   5.095  1.6472  1.6859 -3.1958
  510MOL0     H68821   0.286   4.220   5.084 -0.8141 -0.0938 -1.0145
  510MOL0     H68822   0.216   4.480   5.228  1.2105 -0.1940  0.4290
  510MOL0     H68823   0.376   4.400   5.241 -0.5992  3.4674  2.4867
  510MOL0     H68824   0.245   4.504   4.997 -1.1266  0.1139  3.2048
  510MOL0     H68825   0.387   4.404   4.984 -1.7214 -0.1960 -1.0707
  510MOL0     H68826   0.433   4.634   4.970 -1.4448 -0.2984  0.1716
  510MOL0     H68827   0.364   4.667   5.129 -0.6312  0.7392 -0.6311
  510MOL0     H68828   0.623   4.497   5.085 -1.3834 -0.1374 -0.8614
  510MOL0     H68829   0.536   4.535   5.242 -0.7157  2.3402  1.2184
  510MOL0     H68830   0.568   4.770   5.175 -1.8269 -2.4380  2.0845
  510MOL0     H68831   0.670   4.703   5.036 -0.1614  1.2874  0.2051
  510MOL0     H68832   0.111   4.048   5.706 -0.3975 -2.1754 -1.1493
  510MOL0     H68833  -0.033   4.098   5.891  2.6574  2.0573 -0.0381
  510MOL0     H68834  -0.604   4.427   5.882 -0.5629  1.2173 -0.7820
  510MOL0     H68835  -0.787   4.424   6.046  2.0399  1.7700 -1.3534
  510MOL0     H68836   0.237   4.040   7.785 -1.4903 -0.2882 -1.6965
  510MOL0     H68837   0.493   4.035   7.853  0.2982  1.1282 -0.1479
  510MOL0     H68838   0.846   4.196   8.127  0.5995 -0.6738  0.7274
  510MOL0     H68839   1.052   4.100   8.187 -1.2172  1.9665  0.9985
  510MOL0     H68840   1.298   4.115   8.178  2.3075  0.6968 -0.4449
  510MOL0     H68841   1.278   3.944   8.198  0.0316  0.4699 -0.0170
  510MOL0     H68842   1.474   3.933   8.033 -3.0997 -1.7383  1.1479
  510MOL0     H68843   1.508   3.991   8.208 -0.5400 -0.1356 -0.2500
  510MOL0     H68844   1.528   4.224   8.127  0.1100  1.3294 -1.5587
  510MOL0     H68845   1.515   4.168   7.957  0.5476  2.1533  0.5683
  510MOL0     H68846   1.731   4.070   7.973 -2.3544 -1.7527  0.4567
  510MOL0     H68847   1.738   4.093   8.144  3.0173  2.4760  0.2269
  510MOL0     H68848   1.855   4.449   7.967  1.2779 -1.6541 -0.9293
  510MOL0     H68849   1.154   4.046   7.769  1.2718  2.0204  1.1513
  510MOL0     H68850   0.918   4.100   7.715 -0.0699  2.9663  1.6929
  511MOL0     O68851   8.965   1.311   5.495  0.5125  0.1103 -0.3137
  511MOL0     C68852   8.992   1.225   5.583  0.5203 -0.3497 -0.3695
  511MOL0     O68853   8.915   1.211   5.704 -0.2058  0.5301 -0.1666
  511MOL0     C68854   8.809   1.287   5.728 -0.6353 -0.5769  1.3512
  511MOL0     C68855   8.687   1.227   5.768  0.2490 -0.1136 -0.1047
  511MOL0     C68856   8.582   1.303   5.818 -0.2770 -0.3982  0.2736
  511MOL0     C68857   8.580   1.441   5.809 -0.0833  0.2918  0.5385
  511MOL0     O68858   8.482   1.509   5.875  0.4563  0.3036 -0.4636
  511MOL0     C68859   8.495   1.656   5.873  0.5316  0.6550 -0.0386
  511MOL0     C68860   8.356   1.722   5.907  0.1358 -0.2701 -0.7707
  511MOL0     C68861   8.243   1.687   5.808  0.4799  0.5032  0.4313
  511MOL0     C68862   8.121   1.731   5.882 -0.2901  0.1566  0.3695
  511MOL0     C68863   7.997   1.710   5.797 -0.7227  0.2860 -0.2237
  511MOL0     C68864   7.869   1.758   5.869  0.3838 -0.3498 -0.0418
  511MOL0     C68865   7.842   1.721   6.014 -0.7543  0.5778 -1.1442
  511MOL0     C68866   7.710   1.776   6.063 -0.6012 -1.2753 -0.1719
  511MOL0     N68867   7.589   1.734   5.986 -0.0463 -0.3869 -0.0482
  511MOL0     C68868   7.567   1.612   5.931  0.2151 -0.1094  1.1543
  511MOL0     C68869   7.451   1.624   5.855 -0.0410 -0.9086  0.1770
  511MOL0     C68870   7.378   1.518   5.777 -0.2857  0.1342 -0.0868
  511MOL0     C68871   7.241   1.487   5.848 -0.0602  0.7614  0.4787
  511MOL0     C68872   7.141   1.424   5.757  0.6649 -0.4284 -1.1989
  511MOL0     C68873   7.053   1.310   5.819 -0.5003 -0.1216 -0.3318
  511MOL0     O68874   6.975   1.374   5.928  0.1693  0.4758 -0.0450
  511MOL0     C68875   6.845   1.421   5.912 -0.2749 -0.8985  0.1928
  511MOL0     C68876   6.782   1.463   5.787  0.0798 -0.4326 -0.4574
  511MOL0     C68877   6.647   1.506   5.779  0.1644  0.4587 -0.9289
  511MOL0     C68878   6.599   1.548   5.640  0.1912  0.0020 -0.2153
  511MOL0     C68879   6.575   1.515   5.899  0.3461  0.3734  0.1292
  511MOL0     C68880   6.431   1.550   5.905  0.5877 -0.1233 -0.7177
  511MOL0     O68881   6.363   1.499   5.800 -0.4653  0.3079  0.0398
  511MOL0     C68882   6.227   1.518   5.800 -0.1972  0.5561 -0.6794
  511MOL0     C68883   6.129   1.411   5.823 -0.2510 -0.8170 -0.3937
  511MOL0     C68884   5.995   1.442   5.821 -0.7677  0.4054 -0.1457
  511MOL0     C68885   5.962   1.574   5.823  0.6034 -0.2917  0.2701
  511MOL0     O68886   5.829   1.598   5.857 -0.2924 -0.9605  0.0858
  511MOL0     C68887   5.765   1.727   5.858  0.0095  0.1098  0.0738
  511MOL0     C68888   5.622   1.709   5.921 -0.2518 -0.8096 -0.3468
  511MOL0     C68889   5.534   1.645   5.816 -0.8070  0.2965  0.2226
  511MOL0     C68890   5.393   1.626   5.860 -0.2522  0.1796  0.1028
  511MOL0     C68891   5.296   1.567   5.751  0.5580  0.5427 -0.0226
  511MOL0     C68892   5.166   1.552   5.824  0.0814 -0.5998 -0.0288
  511MOL0     C68893   5.083   1.450   5.745  0.0078  0.2369  0.7097
  511MOL0     C68894   4.983   1.369   5.831  0.9989  0.6979  0.2441
  511MOL0    Cl68895   5.081   1.270   5.948  0.0534 -0.3661  0.1852
  511MOL0     C68896   6.048   1.677   5.799 -0.0670 -0.0560 -1.0734
  511MOL0     C68897   6.184   1.652   5.782 -0.7715  0.6141  0.4937
  511MOL0     O68898   6.385   1.618   6.000 -0.0659  0.6807  0.8094
  511MOL0     C68899   6.642   1.493   6.024  0.4876 -0.3522 -0.1644
  511MOL0     C68900   6.774   1.450   6.028 -0.9205  0.2722  0.2914
  511MOL0     N68901   7.414   1.755   5.869  0.5904  0.0656  0.0261
  511MOL0     N68902   7.490   1.817   5.955 -0.2256 -0.0613  0.4334
  511MOL0     C68903   8.699   1.504   5.755  0.0820  0.4786 -0.2769
  511MOL0     C68904   8.812   1.426   5.717 -0.6159  0.0348 -0.1931
  511MOL0     C68905   9.101   1.135   5.560  0.1853  0.3798  1.3437
  511MOL0     C68906   9.085   1.000   5.595 -0.2683 -0.2512  0.8352
  511MOL0     C68907   9.192   0.909   5.565 -0.3872 -0.3406 -0.6310
  511MOL0     C68908   9.308   0.950   5.498  0.0907  0.2382 -0.3451
  511MOL0     O68909   9.394   0.848   5.475 -0.3271  0.1657  0.3915
  511MOL0     C68910   9.532   0.876   5.464  0.1417  0.5863 -0.3828
  511MOL0     C68911   9.592   0.855   5.315  0.1789 -0.6295 -0.6299
  511MOL0     C68912   9.560   0.969   5.218  0.0418  0.4647  0.2089
  511MOL0     C68913   9.658   0.950   5.096 -0.2678  0.0537  0.1192
  511MOL0     C68914   9.619   1.035   4.986 -0.2042  0.0662  0.4686
  511MOL0     C68915   9.570   1.099   4.891 -0.6794  0.1635 -0.3834
  511MOL0     C68916   9.327   1.077   5.465  0.5669 -0.4388 -0.4683
  511MOL0     C68917   9.219   1.169   5.494  0.1429 -0.5707 -0.1413
  511MOL0     H68918   8.694   1.120   5.785 -2.6517 -0.1214  1.5781
  511MOL0     H68919   8.504   1.250   5.873 -0.2465  0.2964  1.0044
  511MOL0     H68920   8.566   1.697   5.946 -1.8890  1.2761  2.1206
  511MOL0     H68921   8.505   1.683   5.768  2.1770 -0.0327 -0.0988
  511MOL0     H68922   8.327   1.683   6.005 -1.6709 -0.5986 -1.4096
  511MOL0     H68923   8.373   1.830   5.918 -0.5978 -0.2483  0.2228
  511MOL0     H68924   8.252   1.748   5.718  2.1985 -0.0958  0.1511
  511MOL0     H68925   8.244   1.579   5.786 -2.6642 -0.1752  2.7879
  511MOL0     H68926   8.111   1.667   5.970 -0.1823 -1.8764 -1.0245
  511MOL0     H68927   8.127   1.836   5.915  1.2081  0.2782 -0.2177
  511MOL0     H68928   8.014   1.773   5.709  2.2212 -0.8371 -0.5889
  511MOL0     H68929   7.976   1.606   5.768 -2.6980  0.3069  0.9950
  511MOL0     H68930   7.869   1.867   5.873  2.1721 -0.3531  0.8467
  511MOL0     H68931   7.777   1.722   5.822  0.5847 -0.8639 -0.0504
  511MOL0     H68932   7.850   1.613   6.024 -1.7155  0.5631 -0.3733
  511MOL0     H68933   7.925   1.769   6.068 -0.2094  2.3274 -3.3610
  511MOL0     H68934   7.721   1.885   6.068  0.6768 -1.4119  0.4748
  511MOL0     H68935   7.692   1.745   6.167 -1.0125 -0.6099 -0.0410
  511MOL0     H68936   7.632   1.525   5.927  2.2536  1.2890 -3.2782
  511MOL0     H68937   7.364   1.560   5.677  1.4616  0.5106 -0.1956
  511MOL0     H68938   7.441   1.429   5.768 -0.7130 -0.0397 -1.6732
  511MOL0     H68939   7.195   1.577   5.891  2.7724  2.1558  0.8284
  511MOL0     H68940   7.254   1.424   5.936  0.7851  0.9934  0.5276
  511MOL0     H68941   7.206   1.374   5.684  2.9247 -2.1171  1.7538
  511MOL0     H68942   7.079   1.501   5.708 -2.6183 -0.3291  2.6633
  511MOL0     H68943   7.113   1.223   5.848 -0.1769 -0.0195 -0.6849
  511MOL0     H68944   6.986   1.256   5.751  0.5621 -2.9188  0.7051
  511MOL0     H68945   6.845   1.460   5.698  0.4936  0.0591 -0.1852
  511MOL0     H68946   6.549   1.644   5.654  0.0975  0.4257 -2.9649
  511MOL0     H68947   6.683   1.553   5.570  2.1733  1.9559  2.1094
  511MOL0     H68948   6.528   1.474   5.605 -0.9705  0.3366  1.3222
  511MOL0     H68949   6.167   1.311   5.841  1.2527 -0.0817  0.8358
  511MOL0     H68950   5.924   1.363   5.843  0.4824 -1.5196 -2.5042
  511MOL0     H68951   5.818   1.806   5.913  0.0341  0.4046 -0.3669
  511MOL0     H68952   5.758   1.773   5.760  0.9882  0.7653  0.2893
  511MOL0     H68953   5.637   1.631   5.996  3.9852 -2.7612 -2.8384
  511MOL0     H68954   5.582   1.803   5.961 -0.3603 -0.8001 -0.4754
  511MOL0     H68955   5.583   1.551   5.790  2.0487  1.8456 -0.4597
  511MOL0     H68956   5.540   1.707   5.726 -1.9449  3.1113  1.9436
  511MOL0     H68957   5.400   1.555   5.943  3.2305 -2.9481 -2.5090
  511MOL0     H68958   5.345   1.711   5.910 -0.5895 -0.8739  1.6601
  511MOL0     H68959   5.332   1.477   5.700  0.2282  0.8991 -0.9068
  511MOL0     H68960   5.283   1.628   5.661 -2.8190 -0.3016 -0.2428
  511MOL0     H68961   5.182   1.523   5.928  0.7812  4.4176  1.5057
  511MOL0     H68962   5.124   1.653   5.828 -0.5379 -0.8814  1.4203
  511MOL0     H68963   5.151   1.377   5.701 -0.5062 -1.3993  2.5272
  511MOL0     H68964   5.026   1.497   5.664 -0.1407 -2.3164 -0.7502
  511MOL0     H68965   4.933   1.300   5.763  1.3038 -1.9588  2.5229
  511MOL0     H68966   4.902   1.426   5.876 -1.3308  0.9564 -3.8899
  511MOL0     H68967   6.014   1.780   5.802 -2.1499 -0.7039  0.6511
  511MOL0     H68968   6.253   1.730   5.751 -0.8728 -0.0229 -1.4629
  511MOL0     H68969   6.592   1.517   6.118 -1.3627  0.3651 -1.2728
  511MOL0     H68970   6.818   1.423   6.124 -0.3340 -1.3062 -0.4057
  511MOL0     H68971   8.704   1.612   5.766 -2.3411  0.5652  0.5675
  511MOL0     H68972   8.894   1.478   5.670  2.0857 -0.5914  3.3642
  511MOL0     H68973   9.002   0.953   5.646 -0.2946 -2.2335 -0.9167
  511MOL0     H68974   9.184   0.804   5.592 -3.5196  0.7341  3.5730
  511MOL0     H68975   9.574   0.967   5.507  4.7158 -0.5388 -1.8051
  511MOL0     H68976   9.577   0.798   5.527  1.4273  2.0249  0.5509
  511MOL0     H68977   9.557   0.760   5.274  1.2820  0.0774 -3.4547
  511MOL0     H68978   9.701   0.848   5.326  0.2867  0.5896 -0.7899
  511MOL0     H68979   9.579   1.065   5.267  4.1781 -1.2652  2.6442
  511MOL0     H68980   9.458   0.965   5.180  1.4279  0.0675 -3.8897
  511MOL0     H68981   9.670   0.843   5.077  0.9463 -0.4840  3.3611
  511MOL0     H68982   9.755   0.984   5.133 -0.6555 -0.3428  1.5611
  511MOL0     H68983   9.528   1.166   4.818 -0.3375  1.6187  0.6997
  511MOL0     H68984   9.415   1.113   5.414  0.9845 -1.2902 -0.3579
  511MOL0     H68985   9.250   1.268   5.462 -1.4401 -0.0544 -0.1704
  512MOL0     O68986   3.149   4.723   4.469  0.1342 -0.6816  0.0137
  512MOL0     C68987   3.180   4.779   4.576  0.8700  0.1740  0.4500
  512MOL0     O68988   3.101   4.828   4.662 -0.6632 -0.0101 -0.2197
  512MOL0     C68989   2.968   4.849   4.640  0.0850 -0.2412  0.4789
  512MOL0     C68990   2.881   4.820   4.738  0.7283 -1.1127  0.2701
  512MOL0     C68991   2.745   4.849   4.733 -0.1646 -0.1797  0.0065
  512MOL0     C68992   2.695   4.912   4.618 -1.1692  0.1493 -0.9647
  512MOL0     O68993   2.559   4.932   4.616  0.4575 -0.4169 -0.5104
  512MOL0     C68994   2.502   4.991   4.501  0.8594  0.6444 -0.0637
  512MOL0     C68995   2.352   5.017   4.533 -0.4398  0.3558 -0.7947
  512MOL0     C68996   2.282   5.124   4.454 -0.4303  0.3864  1.0651
  512MOL0     C68997   2.141   5.151   4.498  0.6963  0.4206 -0.2024
  512MOL0     C68998   2.084   5.277   4.438 -0.2170  0.1215 -0.9949
  512MOL0     C68999   1.982   5.348   4.524 -0.6675  0.0993  0.3969
  512MOL0     C69000   1.855   5.272   4.506  0.2048  0.1511  0.4992
  512MOL0     C69001   1.731   5.332   4.568  0.6899  0.2859 -0.5433
  512MOL0     N69002   1.618   5.257   4.514  0.5280  0.2496 -0.6496
  512MOL0     C69003   1.541   5.293   4.401 -0.2971  0.7958  0.4341
  512MOL0     C69004   1.423   5.227   4.413 -0.3534 -0.7618 -0.3235
  512MOL0     C69005   1.299   5.255   4.325  1.0348  0.3593 -0.1089
  512MOL0     C69006   1.174   5.293   4.403  0.4049 -1.0382 -0.3646
  512MOL0     C69007   1.079   5.393   4.336 -0.2383 -0.2849  0.3419
  512MOL0     C69008   1.016   5.327   4.210  0.0882 -0.3470  0.0768
  512MOL0     O69009   0.907   5.414   4.180  0.1583  0.0491  0.0670
  512MOL0     C69010   0.783   5.383   4.231 -0.0613  0.1367 -0.2527
  512MOL0     C69011   0.749   5.300   4.341  1.3975 -0.5487  0.6205
  512MOL0     C69012   0.621   5.276   4.379  0.7058  0.1088 -0.9560
  512MOL0     C69013   0.595   5.190   4.501  0.7275  1.8196  0.1383
  512MOL0     C69014   0.517   5.344   4.321 -0.5108  0.0493  0.2883
  512MOL0     C69015   0.370   5.341   4.354 -0.9606 -0.5004 -0.9012
  512MOL0     O69016   0.296   5.454   4.328  0.4889  0.3309  0.5818
  512MOL0     C69017   0.165   5.435   4.289  0.8293 -0.7988  0.5168
  512MOL0     C69018   0.153   5.394   4.155 -0.8606  0.1547  0.7285
  512MOL0     C69019   0.028   5.357   4.106  0.3163  0.3470 -0.2606
  512MOL0     C69020  -0.087   5.373   4.191  1.1970 -0.0607  0.5861
  512MOL0     O69021  -0.224   5.361   4.153  0.2857  0.3214  0.6393
  512MOL0     C69022  -0.264   5.321   4.030  0.1610  0.0976  0.6281
  512MOL0     C69023  -0.412   5.273   4.035 -0.6686  0.1795  0.8102
  512MOL0     C69024  -0.466   5.236   3.899 -0.8533 -0.2349 -0.0639
  512MOL0     C69025  -0.401   5.111   3.836 -1.1133  0.1815  1.0706
  512MOL0     C69026  -0.443   5.098   3.685  0.0501  0.1397  0.5280
  512MOL0     C69027  -0.580   5.016   3.667  0.0854  0.2570 -0.3405
  512MOL0     C69028  -0.569   4.865   3.677  0.0877 -0.3324  0.2771
  512MOL0     C69029  -0.698   4.797   3.636 -0.5719  0.7710 -0.1607
  512MOL0    Cl69030  -0.812   4.821   3.770 -0.2571 -0.4016 -0.0913
  512MOL0     C69031  -0.071   5.408   4.324 -0.1163  0.0005  0.2013
  512MOL0     C69032   0.051   5.449   4.375 -0.2725  0.0646  0.1827
  512MOL0     O69033   0.329   5.238   4.398  0.1951 -0.5124  0.3220
  512MOL0     C69034   0.543   5.432   4.217  0.7844  0.0869 -0.1281
  512MOL0     C69035   0.676   5.453   4.170 -1.0022  0.4035 -0.9047
  512MOL0     N69036   1.423   5.161   4.532  0.1544 -0.6727 -1.2617
  512MOL0     N69037   1.541   5.179   4.586  0.1678  0.4333  0.1291
  512MOL0     C69038   2.778   4.927   4.502 -0.4687  0.4528  0.2958
  512MOL0     C69039   2.911   4.898   4.521 -0.1778  0.1956  0.1365
  512MOL0     C69040   3.328   4.796   4.590  1.2604 -0.3600  1.0364
  512MOL0     C69041   3.377   4.819   4.713 -0.6531 -0.0204 -0.4053
  512MOL0     C69042   3.522   4.826   4.728  0.2108 -0.4089 -0.2546
  512MOL0     C69043   3.598   4.816   4.615 -0.7959  0.0291 -0.3450
  512MOL0     O69044   3.738   4.839   4.619 -0.4967  0.1406 -0.2661
  512MOL0     C69045   3.800   4.861   4.744  0.3006  0.2834 -0.2805
  512MOL0     C69046   3.954   4.849   4.735  0.3015 -0.7975  0.1311
  512MOL0     C69047   4.032   4.896   4.851 -0.8197  0.3129 -0.0663
  512MOL0     C69048   4.181   4.852   4.848 -0.6980  0.3031 -0.8860
  512MOL0     C69049   4.256   4.919   4.741  1.3280  0.0315 -0.3603
  512MOL0     C69050   4.314   4.963   4.648  0.2635  0.3654  1.3141
  512MOL0     C69051   3.546   4.798   4.496 -0.0413  0.8894 -0.2720
  512MOL0     C69052   3.413   4.788   4.475  0.2103 -0.1627  0.4412
  512MOL0     H69053   2.914   4.777   4.832  0.3584 -3.1461 -0.4812
  512MOL0     H69054   2.674   4.826   4.811 -0.1159  0.4019  0.2214
  512MOL0     H69055   2.551   5.087   4.479  0.1564  1.6431  2.4026
  512MOL0     H69056   2.502   4.919   4.418  1.5052  0.4396  0.1133
  512MOL0     H69057   2.302   4.920   4.519  0.1065 -0.0907  0.2513
  512MOL0     H69058   2.355   5.034   4.641  2.2951 -0.0025 -0.7413
  512MOL0     H69059   2.331   5.220   4.474 -1.4940  1.9224 -2.7777
  512MOL0     H69060   2.275   5.106   4.346  0.2168  1.6356  0.7896
  512MOL0     H69061   2.081   5.069   4.459  0.2660  1.0844 -0.9605
  512MOL0     H69062   2.144   5.149   4.608  1.1780  0.5071 -0.2084
  512MOL0     H69063   2.171   5.343   4.423 -0.8247  1.5686  1.2759
  512MOL0     H69064   2.045   5.250   4.339  0.4821 -2.6897 -0.5798
  512MOL0     H69065   2.028   5.342   4.623 -0.1270 -0.0607  0.1363
  512MOL0     H69066   1.974   5.451   4.487  1.5565 -0.6762 -2.6591
  512MOL0     H69067   1.830   5.265   4.400 -1.8830 -2.3924  1.0626
  512MOL0     H69068   1.867   5.172   4.548  1.9129 -0.3864 -1.1255
  512MOL0     H69069   1.733   5.438   4.543  2.9112  0.7358  1.2481
  512MOL0     H69070   1.721   5.315   4.675 -2.1223 -0.5571 -0.8715
  512MOL0     H69071   1.559   5.364   4.321  3.7518  0.0928  0.5022
  512MOL0     H69072   1.312   5.339   4.256 -0.3051  2.2502  1.8023
  512MOL0     H69073   1.281   5.158   4.276  2.5115 -0.2707  0.5494
  512MOL0     H69074   1.217   5.335   4.495  0.3851 -3.4366  0.8200
  512MOL0     H69075   1.110   5.210   4.432 -2.7319  1.0573 -0.8051
  512MOL0     H69076   1.138   5.484   4.319  0.2120 -0.1711  2.2205
  512MOL0     H69077   1.004   5.414   4.413 -0.3280 -0.2354  0.2415
  512MOL0     H69078   0.973   5.227   4.224 -1.5404  0.0846 -1.3612
  512MOL0     H69079   1.091   5.317   4.131 -0.6632  0.7144 -0.7993
  512MOL0     H69080   0.831   5.253   4.394  1.9428  0.8099  1.0450
  512MOL0     H69081   0.541   5.243   4.579 -0.7221  2.9331 -1.5527
  512MOL0     H69082   0.532   5.107   4.468  2.2118  0.7964 -0.2244
  512MOL0     H69083   0.683   5.139   4.542 -0.3756 -1.1645 -0.8880
  512MOL0     H69084   0.236   5.396   4.085  0.6331 -0.9340  2.3759
  512MOL0     H69085   0.017   5.343   3.999 -2.5032 -2.1041  0.2219
  512MOL0     H69086  -0.257   5.410   3.966  4.1076  0.1429  0.8627
  512MOL0     H69087  -0.204   5.237   3.992 -1.0289 -2.4686  3.9507
  512MOL0     H69088  -0.432   5.185   4.097  1.1507  1.1125  2.8371
  512MOL0     H69089  -0.474   5.346   4.087  0.6452  2.3207 -0.5155
  512MOL0     H69090  -0.428   5.301   3.820  2.8484 -0.0356  1.6928
  512MOL0     H69091  -0.575   5.229   3.901 -0.9454  0.1828  3.9129
  512MOL0     H69092  -0.295   5.138   3.829 -1.3352  0.9178  0.3285
  512MOL0     H69093  -0.422   5.021   3.894  0.4520 -2.1475 -1.7063
  512MOL0     H69094  -0.369   5.053   3.618 -2.8629 -1.1414 -2.0675
  512MOL0     H69095  -0.462   5.198   3.644 -1.0326 -0.2007  0.1672
  512MOL0     H69096  -0.655   5.048   3.739  0.4637 -1.2681  0.7783
  512MOL0     H69097  -0.622   5.041   3.569  0.5952  0.1774 -0.5851
  512MOL0     H69098  -0.541   4.842   3.780 -2.0529 -1.2270  0.7175
  512MOL0     H69099  -0.492   4.838   3.603 -1.5507 -0.0604 -1.6349
  512MOL0     H69100  -0.682   4.693   3.606 -2.3670  0.8722 -1.6232
  512MOL0     H69101  -0.748   4.841   3.550 -1.1036 -0.7599 -0.6552
  512MOL0     H69102  -0.159   5.399   4.387 -0.9525 -1.4376 -1.1153
  512MOL0     H69103   0.054   5.491   4.475  0.2019 -1.0501  0.6568
  512MOL0     H69104   0.469   5.499   4.173  1.3637  0.2133 -0.9427
  512MOL0     H69105   0.704   5.517   4.087  0.3794 -0.6832 -1.3156
  512MOL0     H69106   2.755   4.962   4.402  0.3416 -0.0351 -0.0695
  512MOL0     H69107   2.984   4.912   4.442  0.6671 -3.3300  0.1357
  512MOL0     H69108   3.311   4.832   4.798 -1.9619 -0.6954 -1.2813
  512MOL0     H69109   3.560   4.842   4.828  0.7703  0.4790 -0.5972
  512MOL0     H69110   3.785   4.965   4.776 -1.2502  0.2146 -0.7384
  512MOL0     H69111   3.764   4.790   4.819  0.1612 -0.1382 -0.7454
  512MOL0     H69112   3.993   4.905   4.650 -1.4236  1.2634  0.6010
  512MOL0     H69113   3.969   4.743   4.712 -3.1655 -1.3065 -0.3902
  512MOL0     H69114   3.997   4.846   4.941  1.8322 -0.8401  0.4293
  512MOL0     H69115   4.013   5.004   4.852 -0.8779  0.3691 -2.1972
  512MOL0     H69116   4.186   4.743   4.834 -2.2177 -0.2756  2.2033
  512MOL0     H69117   4.229   4.870   4.945 -1.2655  4.0864 -1.1656
  512MOL0     H69118   4.357   5.016   4.566  1.0351 -0.1462  1.3758
  512MOL0     H69119   3.612   4.785   4.412  1.8284 -0.8344  1.3668
  512MOL0     H69120   3.377   4.789   4.372  0.2132  1.9730  0.3989
  513MOL0     O69121   1.859   4.915   0.819 -0.4267 -0.3667 -0.8959
  513MOL0     C69122   1.978   4.916   0.790 -0.3849  1.1689 -0.2989
  513MOL0     O69123   2.023   4.964   0.667 -0.2531 -0.5838  0.1590
  513MOL0     C69124   1.929   5.011   0.576 -1.3766 -0.5227  0.4556
  513MOL0     C69125   1.887   5.149   0.579 -0.4490  0.1712  0.6729
  513MOL0     C69126   1.816   5.204   0.471  0.2259  0.5847  0.5063
  513MOL0     C69127   1.776   5.127   0.368 -0.1317  0.1790 -0.4118
  513MOL0     O69128   1.698   5.190   0.271 -0.3411  0.4368 -0.6129
  513MOL0     C69129   1.639   5.119   0.158 -0.7131 -0.0470  0.2414
  513MOL0     C69130   1.536   5.200   0.086 -0.4627  0.1267  0.3849
  513MOL0     C69131   1.531   5.169  -0.065 -0.0871  0.4762 -0.0564
  513MOL0     C69132   1.468   5.036  -0.097 -0.2316 -0.2178 -0.8020
  513MOL0     C69133   1.484   5.005  -0.250  0.0461  0.3063  0.4542
  513MOL0     C69134   1.396   5.096  -0.338 -0.1853 -0.3493 -0.6001
  513MOL0     C69135   1.441   5.083  -0.482 -0.3276 -0.6281  0.5605
  513MOL0     C69136   1.357   5.144  -0.600  0.1308 -0.0746  0.9464
  513MOL0     N69137   1.308   5.280  -0.577  1.2715  0.0766  0.8733
  513MOL0     C69138   1.368   5.391  -0.642  0.0277  0.9760 -1.5973
  513MOL0     C69139   1.297   5.502  -0.606  0.3481 -0.1655  0.2842
  513MOL0     C69140   1.338   5.647  -0.643  0.5058  0.1310 -0.2738
  513MOL0     C69141   1.380   5.649  -0.786  1.0011  0.9725  0.3700
  513MOL0     C69142   1.406   5.797  -0.833 -0.0091 -0.1137  1.1895
  513MOL0     C69143   1.413   5.814  -0.981  0.2869  0.0651  1.0167
  513MOL0     O69144   1.488   5.712  -1.050 -0.2864 -0.0549  0.0249
  513MOL0     C69145   1.620   5.684  -1.004  0.1048 -0.1609  0.4425
  513MOL0     C69146   1.660   5.552  -1.025 -0.8695  0.3669  0.1089
  513MOL0     C69147   1.800   5.523  -1.009 -0.4334  0.8571 -0.1917
  513MOL0     C69148   1.842   5.380  -1.039 -0.0833 -0.6080 -0.0026
  513MOL0     C69149   1.895   5.623  -0.974  0.2925 -0.9999 -0.3089
  513MOL0     C69150   2.043   5.601  -0.956  0.6013 -1.2790 -0.7246
  513MOL0     O69151   2.122   5.704  -1.001 -0.7015 -0.0442 -0.5142
  513MOL0     C69152   2.257   5.687  -0.990 -0.0224  0.5064  0.0532
  513MOL0     C69153   2.335   5.772  -0.897 -0.4893 -0.1853  0.7249
  513MOL0     C69154   2.479   5.755  -0.897 -0.2089 -0.5182 -0.2078
  513MOL0     C69155   2.555   5.663  -0.970 -0.1306  0.0800 -1.0798
  513MOL0     O69156   2.690   5.659  -0.987 -0.5657 -0.2574  0.6594
  513MOL0     C69157   2.727   5.718  -1.116 -0.4100  0.4153 -0.0410
  513MOL0     C69158   2.861   5.777  -1.083  0.3039 -0.3778  0.2461
  513MOL0     C69159   2.975   5.675  -1.079 -0.6794 -0.2255 -0.8806
  513MOL0     C69160   3.118   5.745  -1.061  0.0911 -0.6712 -0.4096
  513MOL0     C69161   3.225   5.646  -1.040 -0.9829  0.2817 -0.8248
  513MOL0     C69162   3.367   5.717  -0.996  0.6817 -0.9303  0.0171
  513MOL0     C69163   3.477   5.623  -0.966  0.3233  0.4478 -0.3761
  513MOL0     C69164   3.555   5.666  -0.845 -0.3089  0.6358  0.0344
  513MOL0    Cl69165   3.664   5.537  -0.825  0.3485 -0.0407 -0.8539
  513MOL0     C69166   2.476   5.584  -1.054  0.3960  0.1092 -0.0231
  513MOL0     C69167   2.335   5.596  -1.065  0.2787  0.1378  0.3961
  513MOL0     O69168   2.082   5.502  -0.894  0.3141  0.2424 -0.1005
  513MOL0     C69169   1.846   5.755  -0.961 -0.1560 -0.4034 -0.6068
  513MOL0     C69170   1.714   5.788  -0.969  0.6518 -0.7340  0.2358
  513MOL0     N69171   1.187   5.448  -0.530 -0.6129 -0.9652  0.5374
  513MOL0     N69172   1.208   5.329  -0.499  0.4678  0.6181 -0.2361
  513MOL0     C69173   1.821   4.991   0.361 -0.1037  0.4612 -0.2404
  513MOL0     C69174   1.900   4.933   0.461 -1.1830  0.1747 -0.0153
  513MOL0     C69175   2.075   4.876   0.893 -0.2659 -0.1910 -0.1904
  513MOL0     C69176   2.196   4.803   0.865  0.6523  0.0795 -0.3611
  513MOL0     C69177   2.287   4.759   0.960 -1.1967 -0.2487  0.6214
  513MOL0     C69178   2.258   4.795   1.094  0.4035 -0.0935  0.1226
  513MOL0     O69179   2.337   4.776   1.202 -0.3622  0.0108  0.0625
  513MOL0     C69180   2.462   4.703   1.185  0.9074 -0.5946  0.1432
  513MOL0     C69181   2.514   4.679   1.321  0.7229  0.7591 -0.9784
  513MOL0     C69182   2.600   4.795   1.367  0.2926  0.3477 -0.0393
  513MOL0     C69183   2.707   4.747   1.468  0.0299 -0.1511  0.0900
  513MOL0     C69184   2.655   4.660   1.579 -0.0693  0.6605 -0.6266
  513MOL0     C69185   2.624   4.580   1.657 -0.5053  0.4605 -0.1706
  513MOL0     C69186   2.141   4.862   1.126  0.6635 -0.0594  0.1611
  513MOL0     C69187   2.048   4.903   1.028 -0.1768  0.9047 -0.5292
  513MOL0     H69188   1.917   5.208   0.665  0.3151 -0.4783  0.8616
  513MOL0     H69189   1.782   5.307   0.470  0.2182  0.5742 -0.3171
  513MOL0     H69190   1.723   5.098   0.092 -0.2678  2.9253 -0.2742
  513MOL0     H69191   1.576   5.034   0.187 -0.1615 -0.7540 -0.5921
  513MOL0     H69192   1.439   5.184   0.135 -0.6408  1.2832  0.4421
  513MOL0     H69193   1.566   5.304   0.099 -0.0499  0.2325 -1.2847
  513MOL0     H69194   1.467   5.243  -0.115  0.5716  1.4572  0.5284
  513MOL0     H69195   1.627   5.181  -0.117 -0.4401  0.9869 -0.6061
  513MOL0     H69196   1.512   4.959  -0.033 -0.7235 -0.4265 -0.7090
  513MOL0     H69197   1.361   5.045  -0.072  0.3819 -0.5793  2.3930
  513MOL0     H69198   1.590   5.006  -0.275 -0.0785  3.6715 -0.4392
  513MOL0     H69199   1.447   4.905  -0.273 -2.4082  1.7869 -2.9134
  513MOL0     H69200   1.291   5.068  -0.328  0.4703 -2.5137  1.1194
  513MOL0     H69201   1.408   5.199  -0.303 -2.9397 -0.6732  1.5870
  513MOL0     H69202   1.542   5.125  -0.483 -0.8880  0.8371  2.0339
  513MOL0     H69203   1.439   4.975  -0.498 -0.4072 -0.5363 -0.0817
  513MOL0     H69204   1.273   5.076  -0.614 -0.4899  0.6713  0.9924
  513MOL0     H69205   1.418   5.151  -0.690  1.0733  2.1674  1.6933
  513MOL0     H69206   1.456   5.383  -0.705 -1.7627 -2.4382 -4.0079
  513MOL0     H69207   1.254   5.716  -0.626  2.1780  1.8347  1.6768
  513MOL0     H69208   1.421   5.680  -0.580 -0.0592 -2.5751  2.0992
  513MOL0     H69209   1.296   5.615  -0.847  0.5825  1.2591  0.7749
  513MOL0     H69210   1.471   5.591  -0.803  1.1900  2.0671 -2.9613
  513MOL0     H69211   1.493   5.833  -0.777 -2.5724  0.8452  5.0116
  513MOL0     H69212   1.319   5.857  -0.806  0.2736  0.4622  0.8361
  513MOL0     H69213   1.447   5.910  -1.021  1.6907 -0.8994 -0.2378
  513MOL0     H69214   1.310   5.818  -1.019 -0.1419 -0.7651  2.0400
  513MOL0     H69215   1.589   5.478  -1.061 -1.5458  1.7909 -1.6506
  513MOL0     H69216   1.862   5.322  -0.948 -0.1717  1.7532  1.5926
  513MOL0     H69217   1.774   5.333  -1.111  1.4671 -3.4573  0.2363
  513MOL0     H69218   1.939   5.373  -1.089  0.0878  0.5442  0.1523
  513MOL0     H69219   2.284   5.852  -0.845  1.3589  4.1175 -3.2907
  513MOL0     H69220   2.535   5.818  -0.828 -0.8589  0.3874 -0.4893
  513MOL0     H69221   2.748   5.641  -1.190  1.4389 -0.5673  1.3973
  513MOL0     H69222   2.660   5.795  -1.154  0.6728  1.2958 -0.2084
  513MOL0     H69223   2.890   5.855  -1.154  0.0125  0.2453  0.8046
  513MOL0     H69224   2.857   5.832  -0.989  0.6707  2.9066 -1.5044
  513MOL0     H69225   2.969   5.621  -1.174 -2.7702  0.6714 -1.3287
  513MOL0     H69226   2.967   5.617  -0.987  2.8347 -0.1933 -0.4064
  513MOL0     H69227   3.135   5.805  -1.152  0.3190 -0.0466  0.0401
  513MOL0     H69228   3.119   5.811  -0.974 -1.6119  0.9850 -1.5634
  513MOL0     H69229   3.232   5.583  -1.129  0.6594  0.9364 -1.2098
  513MOL0     H69230   3.193   5.583  -0.956 -0.7095 -1.3704 -1.9077
  513MOL0     H69231   3.381   5.793  -1.073 -0.8685 -0.5841  0.0360
  513MOL0     H69232   3.350   5.780  -0.908  2.2913 -0.6836  0.1736
  513MOL0     H69233   3.545   5.612  -1.051  3.5732 -0.5750  2.1694
  513MOL0     H69234   3.435   5.522  -0.957  0.0402  0.6595  0.8266
  513MOL0     H69235   3.506   5.667  -0.747  1.9524 -1.4791  1.3283
  513MOL0     H69236   3.597   5.765  -0.861 -1.1532  1.0556  0.3508
  513MOL0     H69237   2.523   5.530  -1.135  0.2316 -1.0990  0.6683
  513MOL0     H69238   2.275   5.544  -1.140  0.5386 -3.0467  2.2367
  513MOL0     H69239   1.913   5.839  -0.961 -2.1270  1.2715 -1.5451
  513MOL0     H69240   1.677   5.890  -0.975  1.9870 -0.2531  0.0312
  513MOL0     H69241   1.783   4.930   0.279  1.1474  1.4849 -1.6385
  513MOL0     H69242   1.936   4.830   0.452 -0.9873  0.0877  1.4739
  513MOL0     H69243   2.219   4.792   0.759  0.0633 -2.7437 -0.2819
  513MOL0     H69244   2.373   4.698   0.935 -3.7319 -3.2704 -1.2974
  513MOL0     H69245   2.432   4.619   1.122  0.8085 -0.7596  0.4104
  513MOL0     H69246   2.544   4.755   1.134  1.7290 -1.7955  0.2076
  513MOL0     H69247   2.569   4.584   1.313  0.6688  0.4167  1.6609
  513MOL0     H69248   2.433   4.659   1.392  2.5262  1.3894  1.3989
  513MOL0     H69249   2.542   4.884   1.392 -2.6817 -1.4180 -0.2756
  513MOL0     H69250   2.651   4.832   1.278 -1.0062 -0.4924 -1.1731
  513MOL0     H69251   2.755   4.833   1.517  2.0734 -1.1142 -0.0919
  513MOL0     H69252   2.787   4.696   1.413  2.4891  2.8535  0.6066
  513MOL0     H69253   2.588   4.517   1.736  1.4012 -3.7950 -2.3596
  513MOL0     H69254   2.136   4.904   1.226 -1.9635  5.9976 -2.0140
  513MOL0     H69255   1.961   4.965   1.042 -0.2308  0.7672 -0.2470
  514MOL0     O69256   5.165   2.167   8.691  0.2483  0.0443 -0.0605
  514MOL0     C69257   5.205   2.112   8.587 -0.2151 -0.1446  0.7868
  514MOL0     O69258   5.154   2.137   8.454  0.5943 -0.1581  0.6652
  514MOL0     C69259   5.043   2.202   8.423 -0.0667  1.1783 -0.1809
  514MOL0     C69260   4.940   2.244   8.498 -0.0269 -0.3612 -0.2886
  514MOL0     C69261   4.840   2.327   8.443  0.1492  0.0155 -0.4666
  514MOL0     C69262   4.825   2.352   8.305 -0.8890  0.3459  0.7118
  514MOL0     O69263   4.733   2.428   8.239  0.1442 -0.0757 -0.7253
  514MOL0     C69264   4.588   2.419   8.269 -0.4855 -1.3448 -0.0661
  514MOL0     C69265   4.557   2.513   8.391 -0.3988  0.5771  0.0272
  514MOL0     C69266   4.551   2.658   8.347  0.0851 -0.4525 -0.5925
  514MOL0     C69267   4.430   2.699   8.265 -0.0414 -0.3224 -0.0649
  514MOL0     C69268   4.291   2.679   8.328 -0.1855  0.1396  0.1810
  514MOL0     C69269   4.256   2.791   8.428  0.0918  0.3337  0.3831
  514MOL0     C69270   4.141   2.746   8.521 -0.0138  0.2180 -0.0870
  514MOL0     C69271   4.009   2.702   8.447 -0.4084  0.6470 -0.2009
  514MOL0     N69272   3.893   2.706   8.534  0.3347  1.2905 -0.0189
  514MOL0     C69273   3.791   2.783   8.504 -0.7705 -0.2321 -1.1365
  514MOL0     C69274   3.706   2.773   8.608  0.7197 -0.3644  0.1214
  514MOL0     C69275   3.569   2.841   8.618 -0.5602 -0.2719 -0.1103
  514MOL0     C69276   3.573   2.992   8.627 -0.5393 -0.3945 -0.2145
  514MOL0     C69277   3.444   3.063   8.690 -0.3269  0.0912 -0.2640
  514MOL0     C69278   3.314   3.036   8.608  0.2104  0.0326  1.0391
  514MOL0     O69279   3.287   2.901   8.611 -0.2786  0.5950  0.1511
  514MOL0     C69280   3.157   2.856   8.597 -0.2310  0.2462 -0.4440
  514MOL0     C69281   3.060   2.930   8.517  0.4674  0.7080  0.2544
  514MOL0     C69282   2.928   2.883   8.502 -0.4023  0.1358  0.9374
  514MOL0     C69283   2.848   2.964   8.405 -0.6294 -1.1105 -0.1971
  514MOL0     C69284   2.888   2.761   8.567  0.2358 -0.2866  0.2102
  514MOL0     C69285   2.755   2.702   8.546  0.3209 -0.1129  0.0924
  514MOL0     O69286   2.655   2.788   8.527 -0.0019  0.3892 -0.5586
  514MOL0     C69287   2.535   2.732   8.495 -0.9902  0.5408  1.2777
  514MOL0     C69288   2.489   2.747   8.359 -0.0611 -0.1492 -0.3089
  514MOL0     C69289   2.365   2.690   8.320 -0.6650 -0.1758 -0.5997
  514MOL0     C69290   2.283   2.619   8.413  0.6174 -0.0358 -1.0487
  514MOL0     O69291   2.159   2.564   8.375  0.4204 -0.5816 -0.1581
  514MOL0     C69292   2.081   2.645   8.288  0.0347 -0.3434  0.7056
  514MOL0     C69293   1.951   2.570   8.272 -0.4008  0.8527  1.0606
  514MOL0     C69294   1.872   2.624   8.142 -0.4503 -0.4829 -0.4706
  514MOL0     C69295   1.788   2.749   8.175  0.6963 -0.7722 -0.7317
  514MOL0     C69296   1.745   2.830   8.052 -0.8538  0.5581  0.2143
  514MOL0     C69297   1.646   2.752   7.966  0.1522  0.2042  0.6911
  514MOL0     C69298   1.572   2.843   7.858 -0.4379 -0.5967  0.8145
  514MOL0     C69299   1.627   2.818   7.717 -0.1804  0.2218 -1.6998
  514MOL0    Cl69300   1.556   2.675   7.642  0.1763 -0.0665  0.3452
  514MOL0     C69301   2.321   2.616   8.542  0.0315 -0.1900  0.0182
  514MOL0     C69302   2.446   2.659   8.584  0.1847 -0.0425 -0.3624
  514MOL0     O69303   2.744   2.582   8.562  0.1938  0.0517 -0.0652
  514MOL0     C69304   2.981   2.689   8.646 -0.6222  0.3281 -0.1771
  514MOL0     C69305   3.115   2.733   8.657  0.5969 -0.6805  0.7094
  514MOL0     N69306   3.751   2.677   8.697 -0.2864  0.0586  0.0449
  514MOL0     N69307   3.861   2.630   8.647 -0.7528  0.5753  0.0225
  514MOL0     C69308   4.931   2.304   8.223  1.1456 -0.2002  0.2187
  514MOL0     C69309   5.039   2.230   8.278  0.4656  0.1104 -0.0193
  514MOL0     C69310   5.325   2.028   8.593  0.5567  0.7587 -0.0163
  514MOL0     C69311   5.411   2.035   8.708 -1.3017  0.7051  0.0618
  514MOL0     C69312   5.532   1.961   8.706 -0.7330  0.2507  1.0708
  514MOL0     C69313   5.563   1.869   8.601 -0.1311  0.7766  0.3426
  514MOL0     O69314   5.693   1.802   8.608 -0.1999  0.2956  0.6729
  514MOL0     C69315   5.727   1.728   8.497 -0.6904  0.7043  0.9540
  514MOL0     C69316   5.683   1.573   8.510  0.8009 -1.0718 -0.5034
  514MOL0     C69317   5.747   1.502   8.634  0.1021 -0.4867  0.6340
  514MOL0     C69318   5.686   1.360   8.646 -0.2126 -0.8169  0.4913
  514MOL0     C69319   5.712   1.295   8.772  0.1054  0.0527 -0.0398
  514MOL0     C69320   5.708   1.241   8.874 -1.3227 -0.9981 -0.3881
  514MOL0     C69321   5.467   1.846   8.497 -1.2244 -0.3566  0.4750
  514MOL0     C69322   5.359   1.939   8.492  0.0962  0.6316  0.0445
  514MOL0     H69323   4.938   2.240   8.607  0.6210  2.6454 -0.0755
  514MOL0     H69324   4.765   2.363   8.513 -2.0240 -1.4637 -1.8943
  514MOL0     H69325   4.535   2.469   8.188 -0.1052  2.0400  1.5828
  514MOL0     H69326   4.551   2.318   8.290  1.0632 -2.1107 -0.8578
  514MOL0     H69327   4.464   2.484   8.440 -0.9302  0.6704 -0.9205
  514MOL0     H69328   4.635   2.502   8.467  1.5160  1.1018 -1.7725
  514MOL0     H69329   4.560   2.723   8.434 -0.9522 -0.3318 -0.5530
  514MOL0     H69330   4.637   2.683   8.284 -1.3532  4.3549 -1.0743
  514MOL0     H69331   4.439   2.807   8.253 -0.0548 -0.2128  0.8131
  514MOL0     H69332   4.427   2.654   8.165 -0.8240  1.3197 -0.8222
  514MOL0     H69333   4.225   2.703   8.244  0.3802  1.8921  0.1933
  514MOL0     H69334   4.275   2.580   8.370 -2.9214 -0.1799 -1.3711
  514MOL0     H69335   4.341   2.812   8.494 -1.0755 -1.2911  2.5188
  514MOL0     H69336   4.222   2.881   8.375 -0.6417 -0.5084 -0.6197
  514MOL0     H69337   4.187   2.662   8.574  2.1607  0.8085 -0.9028
  514MOL0     H69338   4.124   2.826   8.593  2.6515  0.0923  0.8002
  514MOL0     H69339   4.028   2.600   8.413  1.1435 -0.1730  2.7709
  514MOL0     H69340   3.995   2.772   8.364 -0.5573 -0.2603 -0.9730
  514MOL0     H69341   3.799   2.856   8.424 -3.7019 -1.0008 -2.2571
  514MOL0     H69342   3.520   2.808   8.526  2.2928 -3.5202 -0.6747
  514MOL0     H69343   3.506   2.801   8.698  1.2742 -0.1558  1.4519
  514MOL0     H69344   3.590   3.044   8.532  1.0028 -0.0242  0.2391
  514MOL0     H69345   3.649   3.021   8.699 -0.1292 -1.0304 -0.3794
  514MOL0     H69346   3.478   3.166   8.702  2.5495 -0.9413  1.7640
  514MOL0     H69347   3.426   3.027   8.792  0.5337  1.8654  0.5483
  514MOL0     H69348   3.315   3.074   8.506 -1.8502  1.8028  1.5903
  514MOL0     H69349   3.230   3.083   8.660 -0.4981 -0.8091  0.6691
  514MOL0     H69350   3.094   3.015   8.458  0.6539  1.3520  1.2687
  514MOL0     H69351   2.787   3.040   8.455 -1.4342 -0.8582 -1.5266
  514MOL0     H69352   2.910   3.015   8.330 -0.6364 -1.5296 -0.4943
  514MOL0     H69353   2.782   2.897   8.350 -1.6072 -2.1330  2.0764
  514MOL0     H69354   2.561   2.779   8.284 -1.1361  3.0978 -0.1214
  514MOL0     H69355   2.341   2.698   8.214 -1.3376 -3.1164 -0.7618
  514MOL0     H69356   2.076   2.747   8.326  0.5341 -0.0695  0.0752
  514MOL0     H69357   2.128   2.663   8.190 -0.6922 -1.3763  0.1519
  514MOL0     H69358   1.969   2.464   8.251  0.8511  1.5533 -1.7595
  514MOL0     H69359   1.896   2.577   8.367  0.4062  3.4128  1.4188
  514MOL0     H69360   1.802   2.545   8.114  1.2522 -1.7370 -1.3312
  514MOL0     H69361   1.940   2.657   8.062  0.2107 -0.5494  0.0593
  514MOL0     H69362   1.699   2.723   8.232 -1.1041  0.0597 -3.0052
  514MOL0     H69363   1.839   2.817   8.243  1.9024 -1.9484 -0.3946
  514MOL0     H69364   1.832   2.860   7.992 -0.7226  0.9440  0.5963
  514MOL0     H69365   1.691   2.915   8.094 -3.0030 -1.7111  2.4402
  514MOL0     H69366   1.696   2.671   7.911  1.9787  2.1938 -0.7611
  514MOL0     H69367   1.570   2.718   8.036  1.0555  0.7378  1.9577
  514MOL0     H69368   1.590   2.948   7.881 -0.8661 -0.3806  0.2158
  514MOL0     H69369   1.464   2.829   7.869 -0.5756  0.7683  1.3703
  514MOL0     H69370   1.735   2.809   7.732 -0.4092 -0.4199 -0.2010
  514MOL0     H69371   1.610   2.905   7.654 -0.6596  1.4896  0.1021
  514MOL0     H69372   2.250   2.568   8.609 -1.2114  0.9875 -0.4110
  514MOL0     H69373   2.482   2.635   8.683  3.8173 -2.8703 -2.1235
  514MOL0     H69374   2.952   2.596   8.694  0.2225  1.2031  2.1604
  514MOL0     H69375   3.188   2.683   8.720  1.0288  1.4008  1.9654
  514MOL0     H69376   4.931   2.330   8.118  6.0426  0.2911  0.0953
  514MOL0     H69377   5.113   2.197   8.206  0.5102  0.8631 -0.3343
  514MOL0     H69378   5.404   2.102   8.794  1.3551  0.6583  0.3979
  514MOL0     H69379   5.612   1.978   8.778  1.1133 -1.4686 -0.4332
  514MOL0     H69380   5.685   1.772   8.406 -1.0911  0.6641  1.1176
  514MOL0     H69381   5.836   1.735   8.491 -0.8490  2.7886 -0.8552
  514MOL0     H69382   5.698   1.520   8.415  4.1928 -0.0853 -0.6290
  514MOL0     H69383   5.575   1.573   8.530  0.2980  2.0732 -2.5921
  514MOL0     H69384   5.734   1.556   8.728 -0.3794  1.3163 -0.4043
  514MOL0     H69385   5.856   1.500   8.626  0.0799 -0.3308  0.2446
  514MOL0     H69386   5.730   1.289   8.575 -2.0814  0.5026 -2.1337
  514MOL0     H69387   5.582   1.369   8.616  0.2114 -2.2228 -1.6785
  514MOL0     H69388   5.676   1.197   8.967 -2.7963  0.1204 -0.3289
  514MOL0     H69389   5.491   1.781   8.413 -1.4892 -3.9127  2.9238
  514MOL0     H69390   5.313   1.946   8.393  0.9297  0.3910 -0.3648
  515MOL0     O69391  10.058   4.994   7.798  0.9174  0.4596 -0.3741
  515MOL0     C69392  10.034   5.095   7.724  1.0464 -0.4306 -0.9563
  515MOL0     O69393   9.913   5.123   7.678 -0.2936 -0.6512 -0.1166
  515MOL0     C69394   9.804   5.045   7.727 -0.3861 -1.1143 -0.5534
  515MOL0     C69395   9.691   5.111   7.782  0.8227 -0.0975 -0.5457
  515MOL0     C69396   9.580   5.033   7.829 -0.3933  0.0796 -0.8522
  515MOL0     C69397   9.581   4.892   7.829  0.5163  0.2837 -0.1291
  515MOL0     O69398   9.483   4.805   7.867 -0.1067 -0.0381  0.1009
  515MOL0     C69399   9.368   4.867   7.931 -0.2032  0.8174 -0.1076
  515MOL0     C69400   9.266   4.767   8.001 -1.3695  0.7638  0.0759
  515MOL0     C69401   9.201   4.688   7.893  0.5862  0.2642  0.1360
  515MOL0     C69402   9.112   4.576   7.944 -0.0832 -0.5801  0.3167
  515MOL0     C69403   9.037   4.502   7.826 -0.5509  0.0188 -0.1613
  515MOL0     C69404   9.096   4.368   7.782 -0.4980 -0.3443 -0.4511
  515MOL0     C69405   9.140   4.267   7.895 -1.1993 -1.0455  0.8185
  515MOL0     C69406   9.031   4.219   7.993  0.7118 -0.4364  0.2803
  515MOL0     N69407   8.901   4.164   7.948  0.0610 -0.3279  0.2000
  515MOL0     C69408   8.890   4.035   7.900 -0.1064 -0.4475 -0.1950
  515MOL0     C69409   8.757   4.001   7.914  0.2192  0.0397 -0.4962
  515MOL0     C69410   8.704   3.866   7.869  0.1150  0.2125  1.3205
  515MOL0     C69411   8.568   3.875   7.802  0.0431  0.0729  0.0693
  515MOL0     C69412   8.522   3.748   7.743 -0.5170 -1.0541 -0.6072
  515MOL0     C69413   8.606   3.714   7.621  0.6168  0.2373 -0.2973
  515MOL0     O69414   8.541   3.611   7.539 -0.0226 -0.8160  0.2483
  515MOL0     C69415   8.421   3.628   7.475  0.3014 -0.3052  0.6320
  515MOL0     C69416   8.357   3.517   7.431  0.0817  0.9624 -0.6572
  515MOL0     C69417   8.234   3.512   7.361 -0.0481  0.6275 -1.8657
  515MOL0     C69418   8.186   3.380   7.308  0.1814 -0.3697 -0.2078
  515MOL0     C69419   8.167   3.634   7.342 -0.9160 -0.3081  0.4432
  515MOL0     C69420   8.051   3.649   7.255 -0.8638 -0.2053  0.0343
  515MOL0     O69421   8.035   3.574   7.139  0.1131  0.4917  0.2850
  515MOL0     C69422   7.939   3.624   7.055 -0.3462 -0.1500  0.1796
  515MOL0     C69423   7.977   3.684   6.933  0.4033  0.3264  0.8597
  515MOL0     C69424   7.881   3.711   6.832  0.0191 -0.4678 -0.7192
  515MOL0     C69425   7.744   3.705   6.860 -0.1272 -0.0983 -0.5873
  515MOL0     O69426   7.665   3.754   6.759  0.0663 -0.2772  0.1164
  515MOL0     C69427   7.526   3.782   6.781 -0.1969  0.7633 -0.3302
  515MOL0     C69428   7.477   3.849   6.654  1.0844 -0.6609  0.7782
  515MOL0     C69429   7.498   4.004   6.666  0.5068 -0.0014 -0.1290
  515MOL0     C69430   7.500   4.061   6.529 -0.3849 -0.1553  0.9911
  515MOL0     C69431   7.521   4.209   6.498 -0.4966 -0.0623 -0.0221
  515MOL0     C69432   7.393   4.272   6.551  0.6356  0.5271 -0.1386
  515MOL0     C69433   7.398   4.421   6.538  0.4208 -0.4310 -0.5825
  515MOL0     C69434   7.426   4.493   6.404  0.2463  0.0638 -0.1842
  515MOL0    Cl69435   7.304   4.443   6.294 -0.4397  0.2733  0.0006
  515MOL0     C69436   7.703   3.657   6.987 -0.6576  0.0996  0.4441
  515MOL0     C69437   7.806   3.615   7.082 -0.2623  0.4147  0.1187
  515MOL0     O69438   7.980   3.746   7.284 -0.6981 -0.1479 -0.0188
  515MOL0     C69439   8.237   3.750   7.381  0.3438 -0.9146 -0.2264
  515MOL0     C69440   8.361   3.745   7.447 -0.3539 -0.3302 -0.0095
  515MOL0     N69441   8.690   4.114   7.961  0.2601  0.4328  0.4386
  515MOL0     N69442   8.775   4.206   7.995  0.6348 -0.0784  0.3581
  515MOL0     C69443   9.690   4.831   7.774 -0.0924  0.7555  0.1650
  515MOL0     C69444   9.800   4.903   7.720 -0.1323 -0.0005 -0.4286
  515MOL0     C69445  10.144   5.195   7.689  0.6876 -0.0601 -1.0679
  515MOL0     C69446  10.138   5.285   7.579 -1.1221  0.7520 -0.2683
  515MOL0     C69447  10.255   5.364   7.548  0.2939  0.3039  0.5810
  515MOL0     C69448  10.361   5.367   7.634 -0.3812 -0.4885 -0.0256
  515MOL0     O69449  10.464   5.456   7.618  0.2749 -0.9876  0.6664
  515MOL0     C69450  10.588   5.390   7.586  0.7932 -0.1171  0.8453
  515MOL0     C69451  10.696   5.421   7.684  0.3007 -0.1947  0.0067
  515MOL0     C69452  10.846   5.415   7.626  0.8558  0.2977 -0.2096
  515MOL0     C69453  10.929   5.309   7.685  0.0579  0.1625 -0.4230
  515MOL0     C69454  10.856   5.177   7.694 -0.4752  0.3540 -0.3142
  515MOL0     C69455  10.822   5.064   7.692 -0.0413  0.9909  0.0685
  515MOL0     C69456  10.363   5.289   7.751 -0.5044  0.0656 -0.3382
  515MOL0     C69457  10.259   5.201   7.774  0.4268 -0.3433  0.6114
  515MOL0     H69458   9.689   5.219   7.786 -0.7886 -0.0942 -1.0083
  515MOL0     H69459   9.498   5.091   7.869 -1.5782 -1.9327 -0.2386
  515MOL0     H69460   9.402   4.938   8.007 -0.7462  1.0491 -0.0730
  515MOL0     H69461   9.307   4.919   7.856  0.7887  0.4342 -1.2065
  515MOL0     H69462   9.336   4.708   8.061 -0.9612 -0.6510 -1.7012
  515MOL0     H69463   9.197   4.823   8.066 -3.3615 -1.3439 -0.1037
  515MOL0     H69464   9.127   4.754   7.847 -0.3178 -0.5904  0.3428
  515MOL0     H69465   9.263   4.651   7.810 -0.7079  0.1429 -0.8027
  515MOL0     H69466   9.175   4.506   7.999  1.0118 -0.9269 -1.3127
  515MOL0     H69467   9.036   4.628   8.003  1.0596  0.6394  0.7523
  515MOL0     H69468   8.931   4.482   7.846 -1.1391  2.9366  0.2083
  515MOL0     H69469   9.024   4.572   7.743 -1.9780 -0.3311 -0.2556
  515MOL0     H69470   9.020   4.322   7.717  0.8299 -0.8657 -1.6798
  515MOL0     H69471   9.182   4.390   7.719 -0.1656 -0.3580 -0.0047
  515MOL0     H69472   9.182   4.177   7.849  0.5245 -0.7920  1.8002
  515MOL0     H69473   9.237   4.299   7.936 -0.6850 -0.3474 -0.8375
  515MOL0     H69474   9.020   4.307   8.058  2.7006 -0.7075  1.0481
  515MOL0     H69475   9.065   4.142   8.061 -1.3281 -1.9324 -0.2877
  515MOL0     H69476   8.981   3.981   7.874  0.3853  0.6440 -0.8092
  515MOL0     H69477   8.772   3.819   7.797 -1.6904  0.4582 -0.6391
  515MOL0     H69478   8.690   3.795   7.952 -2.8028 -2.2428 -1.0482
  515MOL0     H69479   8.583   3.947   7.721  0.0988  2.4933  2.1299
  515MOL0     H69480   8.504   3.900   7.887  0.7200 -4.2109  2.1157
  515MOL0     H69481   8.418   3.771   7.720 -0.7043  0.5427  1.5433
  515MOL0     H69482   8.527   3.660   7.808  2.3223  0.2286  1.0969
  515MOL0     H69483   8.699   3.660   7.644  0.4180 -0.4745 -1.1101
  515MOL0     H69484   8.625   3.797   7.553  0.2608  0.8947  0.3929
  515MOL0     H69485   8.410   3.426   7.457 -0.7502  0.5885 -0.2142
  515MOL0     H69486   8.210   3.298   7.377  0.5001 -0.8017 -0.8248
  515MOL0     H69487   8.082   3.379   7.274  0.3734 -3.1887 -1.0019
  515MOL0     H69488   8.244   3.363   7.218 -0.4628  0.8820 -0.8792
  515MOL0     H69489   8.083   3.691   6.910  0.1046  1.7994 -0.2330
  515MOL0     H69490   7.910   3.763   6.742  1.9210 -2.2163 -1.1929
  515MOL0     H69491   7.475   3.687   6.797  0.4319  0.6634  1.2898
  515MOL0     H69492   7.522   3.845   6.870  0.3089 -0.8727  0.8867
  515MOL0     H69493   7.529   3.812   6.565  1.2164 -0.9993  0.9939
  515MOL0     H69494   7.375   3.816   6.634  0.6220  0.5290  1.0978
  515MOL0     H69495   7.596   4.032   6.706  0.2721  0.6699 -0.0011
  515MOL0     H69496   7.426   4.052   6.734  2.1921  1.5596  0.6507
  515MOL0     H69497   7.582   4.010   6.478 -0.7860  2.0055 -2.1280
  515MOL0     H69498   7.413   4.029   6.472  0.2164 -0.5683  0.2885
  515MOL0     H69499   7.534   4.239   6.393 -0.2112 -1.3608 -0.3751
  515MOL0     H69500   7.612   4.246   6.547 -0.4067 -0.2266 -0.0662
  515MOL0     H69501   7.314   4.240   6.483  0.6423 -1.3931  0.6978
  515MOL0     H69502   7.369   4.249   6.655 -1.4310 -1.8188 -1.0367
  515MOL0     H69503   7.466   4.464   6.611  1.5035 -0.9913 -1.2347
  515MOL0     H69504   7.299   4.459   6.566  0.8789  1.9962 -1.9683
  515MOL0     H69505   7.528   4.479   6.367  1.5420 -1.1549  3.3972
  515MOL0     H69506   7.410   4.601   6.412  1.1833  0.1980  0.0081
  515MOL0     H69507   7.597   3.655   7.012 -1.7280 -0.0255 -3.3593
  515MOL0     H69508   7.793   3.561   7.175  0.8894  1.5138  0.9582
  515MOL0     H69509   8.202   3.848   7.351 -1.6715 -1.3225  0.6564
  515MOL0     H69510   8.401   3.843   7.469  0.4110 -1.2399  3.0485
  515MOL0     H69511   9.697   4.724   7.763 -0.9158  0.6925  0.2023
  515MOL0     H69512   9.881   4.851   7.671  0.7778  0.6371  0.3727
  515MOL0     H69513  10.058   5.287   7.506 -2.5907  0.5015  1.2602
  515MOL0     H69514  10.248   5.425   7.458 -1.7995 -0.6477  0.0254
  515MOL0     H69515  10.570   5.282   7.575 -0.5890  0.1298  0.5420
  515MOL0     H69516  10.620   5.432   7.490 -1.3874  1.8882  0.9199
  515MOL0     H69517  10.682   5.360   7.773  1.8351  2.9123  2.5687
  515MOL0     H69518  10.674   5.526   7.708 -1.0183 -0.2828 -0.6917
  515MOL0     H69519  10.887   5.516   7.634 -0.2785  0.7445  0.2570
  515MOL0     H69520  10.845   5.388   7.520 -3.0446  1.9559 -0.7687
  515MOL0     H69521  10.955   5.336   7.787  2.6873 -2.7911 -0.1540
  515MOL0     H69522  11.013   5.301   7.615  1.3205  1.1032  0.9182
  515MOL0     H69523  10.794   4.961   7.686  1.0516  0.6501  0.5444
  515MOL0     H69524  10.449   5.300   7.815 -2.0446  2.4362  1.5025
  515MOL0     H69525  10.270   5.135   7.860  3.3386  0.2207  0.7561
  516MOL0     O69526   3.235   5.502   4.632  0.0958 -0.3586 -0.5346
  516MOL0     C69527   3.165   5.511   4.739 -0.6881 -0.0607 -0.3935
  516MOL0     O69528   3.031   5.484   4.745 -0.0375  0.7733  0.4748
  516MOL0     C69529   2.971   5.422   4.637  0.1335  0.1282  0.9116
  516MOL0     C69530   3.014   5.318   4.546 -0.8137  0.3751 -0.6932
  516MOL0     C69531   2.933   5.270   4.445 -0.6109  0.7998  0.1501
  516MOL0     C69532   2.806   5.318   4.432  0.7019 -0.1792 -0.5203
  516MOL0     O69533   2.740   5.255   4.330 -0.6786  0.1492 -0.3087
  516MOL0     C69534   2.611   5.295   4.276  0.2782  0.6947  0.6248
  516MOL0     C69535   2.608   5.326   4.127 -0.4818 -0.1753  0.4826
  516MOL0     C69536   2.471   5.316   4.058  0.5952 -0.0410  0.0496
  516MOL0     C69537   2.476   5.344   3.913  0.4106 -0.0609  0.6765
  516MOL0     C69538   2.535   5.478   3.866  0.3549 -0.2121 -0.1105
  516MOL0     C69539   2.466   5.608   3.915 -0.4811  1.4305  0.0163
  516MOL0     C69540   2.547   5.742   3.877  0.6304 -0.3142  0.2320
  516MOL0     C69541   2.596   5.820   3.992  0.7820 -0.2056  0.7193
  516MOL0     N69542   2.681   5.741   4.078 -0.0727 -0.6715 -0.8226
  516MOL0     C69543   2.795   5.680   4.038  0.0185  0.9073  0.5043
  516MOL0     C69544   2.855   5.649   4.157 -0.2321 -0.2828 -0.2688
  516MOL0     C69545   2.982   5.571   4.185  0.5855  0.4661 -0.0027
  516MOL0     C69546   3.096   5.669   4.232 -0.2651  0.1278  0.5416
  516MOL0     C69547   3.169   5.589   4.339 -0.9692  0.8182  0.1947
  516MOL0     C69548   3.242   5.460   4.280  0.0097  0.6528 -0.0371
  516MOL0     O69549   3.337   5.508   4.175 -0.2544 -0.4987 -0.1449
  516MOL0     C69550   3.467   5.455   4.197 -0.4355 -0.0168  0.4081
  516MOL0     C69551   3.526   5.399   4.090  0.0041  0.1893 -0.6016
  516MOL0     C69552   3.664   5.346   4.092  0.5318 -0.6361 -0.7487
  516MOL0     C69553   3.705   5.273   3.969 -0.0007  0.5792  0.8540
  516MOL0     C69554   3.750   5.382   4.203  0.4138 -0.2743  0.5985
  516MOL0     C69555   3.894   5.356   4.217  0.0609  0.0172 -0.4725
  516MOL0     O69556   3.946   5.350   4.337 -0.1018 -0.0682 -0.4205
  516MOL0     C69557   4.079   5.348   4.355  0.0071 -0.3793  0.3003
  516MOL0     C69558   4.154   5.232   4.327  0.4636  0.1865 -0.4770
  516MOL0     C69559   4.292   5.241   4.348  0.1376  1.0050  0.4252
  516MOL0     C69560   4.367   5.357   4.377 -0.2519  0.4754 -0.8270
  516MOL0     O69561   4.505   5.379   4.376  0.4266  0.4311 -0.1353
  516MOL0     C69562   4.575   5.265   4.322 -0.0264  0.4068 -0.6300
  516MOL0     C69563   4.731   5.286   4.322  0.0063  0.5889 -0.4423
  516MOL0     C69564   4.792   5.331   4.453 -0.4778 -0.7943 -0.5740
  516MOL0     C69565   4.947   5.321   4.461  0.0519 -0.2094  0.0767
  516MOL0     C69566   5.011   5.396   4.580 -0.4059 -0.3177 -0.1746
  516MOL0     C69567   5.116   5.302   4.648  0.6429  0.7400 -0.8925
  516MOL0     C69568   5.173   5.346   4.786 -0.6026  0.5524 -0.6097
  516MOL0     C69569   5.300   5.265   4.828  0.2899  0.2564 -0.1393
  516MOL0    Cl69570   5.385   5.332   4.965 -0.1328 -0.2976  0.1191
  516MOL0     C69571   4.288   5.468   4.403 -1.1318  0.0612  0.1095
  516MOL0     C69572   4.148   5.465   4.395  0.2862 -1.4709 -0.0009
  516MOL0     O69573   3.963   5.339   4.112  0.4555  0.3444  0.0370
  516MOL0     C69574   3.688   5.456   4.303 -0.0488 -0.0059  0.0710
  516MOL0     C69575   3.555   5.485   4.305  0.1509  0.6338  0.0723
  516MOL0     N69576   2.774   5.676   4.264 -0.2954  0.5069 -0.5819
  516MOL0     N69577   2.669   5.733   4.214 -0.4251  0.2085  0.4946
  516MOL0     C69578   2.768   5.429   4.509 -0.2550 -0.3591 -0.5857
  516MOL0     C69579   2.844   5.472   4.615  0.3194  0.3051  0.4904
  516MOL0     C69580   3.235   5.531   4.866  0.8772  0.0399 -0.1433
  516MOL0     C69581   3.375   5.537   4.878 -0.5157 -0.7780 -0.7511
  516MOL0     C69582   3.426   5.579   4.995 -0.6055 -0.7427 -0.5020
  516MOL0     C69583   3.355   5.610   5.102  0.1223 -0.0794  0.9375
  516MOL0     O69584   3.420   5.674   5.205  0.6174  0.0362 -0.0852
  516MOL0     C69585   3.427   5.602   5.326 -0.1047  0.6789  0.1887
  516MOL0     C69586   3.555   5.620   5.401  0.0060  0.1735  0.1689
  516MOL0     C69587   3.676   5.570   5.319  0.3919  0.7351 -0.1963
  516MOL0     C69588   3.680   5.414   5.302 -0.0857 -0.6413 -0.5733
  516MOL0     C69589   3.810   5.348   5.324  0.1407  0.0273  0.3497
  516MOL0     C69590   3.912   5.287   5.342  0.2563  0.0572  0.2572
  516MOL0     C69591   3.226   5.582   5.101  0.3410 -0.8964  0.6836
  516MOL0     C69592   3.157   5.537   4.986  0.4783 -0.4122 -0.1342
  516MOL0     H69593   3.102   5.266   4.582 -1.4025 -0.5441 -0.5517
  516MOL0     H69594   2.962   5.186   4.383  0.2456  2.3398 -1.6242
  516MOL0     H69595   2.544   5.209   4.288 -0.8302  1.5305  0.5947
  516MOL0     H69596   2.559   5.371   4.336 -3.6052  0.1499 -1.6691
  516MOL0     H69597   2.644   5.426   4.102 -0.9897 -0.7373 -3.1398
  516MOL0     H69598   2.679   5.262   4.074 -0.3861 -2.9420  3.6085
  516MOL0     H69599   2.427   5.217   4.075  2.2265 -0.7466  0.4379
  516MOL0     H69600   2.411   5.388   4.114  1.1301 -1.4691  2.6486
  516MOL0     H69601   2.539   5.270   3.862 -0.1101  1.2524 -2.0492
  516MOL0     H69602   2.381   5.334   3.860  1.0000  4.7919 -1.8970
  516MOL0     H69603   2.643   5.475   3.880  0.6598 -0.0416 -2.0732
  516MOL0     H69604   2.525   5.484   3.757  1.9882 -0.8674 -0.3146
  516MOL0     H69605   2.366   5.625   3.874 -0.6607  2.0458  0.6963
  516MOL0     H69606   2.467   5.602   4.024 -1.0611 -0.7502 -0.0510
  516MOL0     H69607   2.626   5.729   3.802  2.3245  0.8675  1.7384
  516MOL0     H69608   2.477   5.808   3.826 -0.2148 -0.5600  1.0435
  516MOL0     H69609   2.514   5.849   4.058  0.4768 -2.1902  1.2604
  516MOL0     H69610   2.644   5.909   3.949 -0.1881 -0.7553 -1.6875
  516MOL0     H69611   2.820   5.659   3.934 -1.9477  1.1671 -0.0579
  516MOL0     H69612   2.959   5.506   4.270  3.2896 -1.5944 -0.7081
  516MOL0     H69613   3.002   5.499   4.105 -3.0510 -0.4256 -0.3196
  516MOL0     H69614   3.053   5.755   4.283 -2.2509 -0.4084 -0.1532
  516MOL0     H69615   3.151   5.707   4.146 -1.1939 -0.9905 -0.6002
  516MOL0     H69616   3.094   5.564   4.414 -1.1561 -0.0599 -0.2738
  516MOL0     H69617   3.241   5.657   4.386 -0.2992  0.2003  0.0687
  516MOL0     H69618   3.166   5.394   4.237  3.3078 -3.3378 -0.3641
  516MOL0     H69619   3.293   5.411   4.364  1.7156  2.9463  0.3676
  516MOL0     H69620   3.475   5.389   3.994  1.9418 -0.2238 -1.6409
  516MOL0     H69621   3.693   5.165   3.972 -0.1555  0.5600 -0.0827
  516MOL0     H69622   3.640   5.311   3.889 -4.0900 -3.8063  1.6318
  516MOL0     H69623   3.811   5.291   3.947  0.0013 -0.0664  0.2901
  516MOL0     H69624   4.120   5.134   4.297  2.4542 -0.5360 -0.4955
  516MOL0     H69625   4.345   5.149   4.323 -0.7700  0.5407  0.1505
  516MOL0     H69626   4.554   5.173   4.377  1.5534 -1.0052 -2.2734
  516MOL0     H69627   4.561   5.256   4.214  1.7969  3.2597 -1.2334
  516MOL0     H69628   4.770   5.197   4.272 -0.6929 -0.1626  0.3116
  516MOL0     H69629   4.751   5.360   4.245  0.2853 -0.1839 -1.1334
  516MOL0     H69630   4.761   5.275   4.541 -1.3139  0.7999  0.1977
  516MOL0     H69631   4.776   5.439   4.466  1.1451 -0.8207  2.8423
  516MOL0     H69632   4.989   5.221   4.447  1.4273  0.4389 -0.6334
  516MOL0     H69633   4.984   5.370   4.370  1.2750 -1.2365 -0.0020
  516MOL0     H69634   4.928   5.425   4.644 -0.3700 -0.5072 -0.0390
  516MOL0     H69635   5.069   5.489   4.574 -1.9004  0.9535  3.0414
  516MOL0     H69636   5.073   5.202   4.658  0.6509  0.6236 -1.8907
  516MOL0     H69637   5.189   5.292   4.567 -0.0850 -1.9962 -1.3142
  516MOL0     H69638   5.105   5.329   4.870  1.8828  2.2074  1.9676
  516MOL0     H69639   5.209   5.450   4.791  0.3092  0.2068  1.2816
  516MOL0     H69640   5.371   5.256   4.745 -1.0388 -1.5713 -1.1354
  516MOL0     H69641   5.291   5.158   4.850  0.5874  0.2717  0.0676
  516MOL0     H69642   4.349   5.553   4.431  0.4970 -1.3903  1.1469
  516MOL0     H69643   4.102   5.561   4.414  2.1288 -0.5948  0.2967
  516MOL0     H69644   3.745   5.482   4.391 -1.9121  0.4305  1.2196
  516MOL0     H69645   3.510   5.534   4.391  0.2677  0.3474  0.2979
  516MOL0     H69646   2.675   5.483   4.490 -0.3243  0.5030  1.8394
  516MOL0     H69647   2.804   5.551   4.677 -0.0125 -0.5034  1.3140
  516MOL0     H69648   3.434   5.529   4.787 -2.6265  0.6995 -2.3569
  516MOL0     H69649   3.529   5.612   4.993 -1.5878  2.8357 -4.3490
  516MOL0     H69650   3.354   5.649   5.392  1.1408  5.9741 -1.6500
  516MOL0     H69651   3.413   5.494   5.314  0.7275  0.7087 -1.2851
  516MOL0     H69652   3.546   5.561   5.493 -2.1493 -0.6773 -0.5247
  516MOL0     H69653   3.558   5.725   5.432 -2.2679 -0.2540  2.0803
  516MOL0     H69654   3.765   5.614   5.364  2.5786 -2.3348 -1.2130
  516MOL0     H69655   3.672   5.614   5.219  1.9146  4.8445  1.3611
  516MOL0     H69656   3.639   5.395   5.202  1.2898  1.2854 -1.5781
  516MOL0     H69657   3.608   5.380   5.377  1.7634  1.1366  2.2208
  516MOL0     H69658   3.990   5.215   5.333 -1.9311 -2.5422  0.8681
  516MOL0     H69659   3.168   5.605   5.190  1.6852 -1.8194  1.8363
  516MOL0     H69660   3.050   5.522   4.987  0.5897 -1.1971  0.3297
  517MOL0     O69661   2.579   8.614   8.849 -0.0744 -0.5615 -0.0837
  517MOL0     C69662   2.615   8.527   8.923 -0.6181  0.9994  0.2979
  517MOL0     O69663   2.539   8.460   9.015 -0.5936 -0.1084  0.3136
  517MOL0     C69664   2.411   8.498   9.046  0.4749  0.3393  0.6119
  517MOL0     C69665   2.370   8.495   9.180 -0.0154  0.3564 -0.3696
  517MOL0     C69666   2.234   8.517   9.208  0.1589 -0.2356 -0.6925
  517MOL0     C69667   2.143   8.559   9.113 -0.3910  0.2200  0.3529
  517MOL0     O69668   2.012   8.594   9.144  0.4859 -0.1722  0.0084
  517MOL0     C69669   1.981   8.723   9.093  0.1906 -0.4554  0.7461
  517MOL0     C69670   1.897   8.810   9.189 -0.9149  0.3104  0.0395
  517MOL0     C69671   1.757   8.741   9.222 -0.1253 -0.9903 -0.2481
  517MOL0     C69672   1.695   8.811   9.342 -0.0998  0.0796  0.3564
  517MOL0     C69673   1.550   8.757   9.375  0.1377 -0.1631 -0.2940
  517MOL0     C69674   1.506   8.789   9.524 -0.4296 -0.6074 -0.6615
  517MOL0     C69675   1.369   8.745   9.561 -0.6273 -0.7223  0.0003
  517MOL0     C69676   1.358   8.604   9.604  0.0375 -0.1659 -0.3613
  517MOL0     N69677   1.224   8.584   9.660 -0.0857 -0.2106 -0.1429
  517MOL0     C69678   1.181   8.649   9.781 -0.2033  0.6729  0.1637
  517MOL0     C69679   1.048   8.625   9.783  0.2013  0.3729 -1.3705
  517MOL0     C69680   0.941   8.671   9.886  0.5014  0.5081  0.1515
  517MOL0     C69681   0.887   8.804   9.839  0.3797  0.2182 -0.7388
  517MOL0     C69682   0.890   8.905   9.958  0.7193 -0.5427  0.4360
  517MOL0     C69683   1.028   8.937  10.021  0.0127  0.7687  0.4769
  517MOL0     O69684   1.014   8.991  10.150  0.1534 -0.4699 -0.1685
  517MOL0     C69685   1.127   8.971  10.224 -0.5118  0.3948  0.4380
  517MOL0     C69686   1.108   8.968  10.364 -0.6909 -0.9709 -0.1543
  517MOL0     C69687   1.210   8.964  10.450 -0.3595 -0.0860  0.2574
  517MOL0     C69688   1.181   8.943  10.594 -0.6459 -0.1485 -0.7929
  517MOL0     C69689   1.339   8.971  10.394  0.0041 -0.8069  0.1070
  517MOL0     C69690   1.463   8.958  10.478  0.0664  0.2111 -0.2455
  517MOL0     O69691   1.569   8.890  10.430  0.3829 -0.0604 -0.2218
  517MOL0     C69692   1.690   8.893  10.492 -0.2493 -0.5977  0.0941
  517MOL0     C69693   1.750   8.772  10.526  0.4700 -0.6040  0.0185
  517MOL0     C69694   1.886   8.758  10.559 -0.2334 -0.9749 -0.8158
  517MOL0     C69695   1.971   8.867  10.559 -0.1346 -0.8246  0.3654
  517MOL0     O69696   2.102   8.843  10.579  0.4979 -0.5437  0.4056
  517MOL0     C69697   2.193   8.946  10.617  0.8269  1.2707  0.3924
  517MOL0     C69698   2.288   8.879  10.721  0.2740 -0.2069 -0.0631
  517MOL0     C69699   2.206   8.809  10.836  0.1852  0.1059  0.2823
  517MOL0     C69700   2.297   8.724  10.923 -0.5508  0.2092  0.6470
  517MOL0     C69701   2.238   8.712  11.059  0.4627  0.5055  0.0743
  517MOL0     C69702   2.336   8.641  11.146  0.3158 -0.2340 -0.5927
  517MOL0     C69703   2.299   8.659  11.292  0.4578 -0.4418  0.0490
  517MOL0     C69704   2.390   8.562  11.367  0.0620 -0.3105  0.2725
  517MOL0    Cl69705   2.396   8.398  11.319 -0.2541  0.2320  0.2076
  517MOL0     C69706   1.911   8.991  10.531 -0.9758 -0.1851  0.2487
  517MOL0     C69707   1.773   9.000  10.504  0.1262 -0.8656  0.1609
  517MOL0     O69708   1.468   9.022  10.586  0.4001  0.6452  0.0393
  517MOL0     C69709   1.357   8.971  10.260  0.2779 -0.1350  0.1354
  517MOL0     C69710   1.252   8.976  10.166  0.2742  0.2095  0.4153
  517MOL0     N69711   1.017   8.539   9.676 -1.0402  0.3326  0.2659
  517MOL0     N69712   1.123   8.513   9.616  0.1855 -0.8181 -0.7090
  517MOL0     C69713   2.188   8.563   8.983  0.2476 -1.1498  0.0433
  517MOL0     C69714   2.319   8.536   8.948 -0.5822 -0.2312 -0.4294
  517MOL0     C69715   2.753   8.501   8.911 -0.1796 -0.7880  0.5745
  517MOL0     C69716   2.824   8.417   8.998  0.4228 -0.5004 -0.3765
  517MOL0     C69717   2.959   8.384   8.978 -0.0691  0.5184 -1.0494
  517MOL0     C69718   3.020   8.431   8.868 -1.0361 -0.1631  0.2096
  517MOL0     O69719   3.149   8.388   8.833 -0.1923 -0.3322  0.4521
  517MOL0     C69720   3.232   8.347   8.938  0.2056  0.2359 -0.3017
  517MOL0     C69721   3.368   8.360   8.865  0.0161 -0.9820 -0.1942
  517MOL0     C69722   3.397   8.268   8.749 -0.1766 -0.5387  0.3628
  517MOL0     C69723   3.465   8.345   8.633  0.5664 -0.6228 -1.0066
  517MOL0     C69724   3.477   8.267   8.516 -0.1256  0.0414  0.6261
  517MOL0     C69725   3.478   8.196   8.417  0.2764  0.6376 -0.7250
  517MOL0     C69726   2.958   8.524   8.784 -0.2733 -0.0905  0.1822
  517MOL0     C69727   2.829   8.558   8.802  0.6793 -0.6599 -0.3771
  517MOL0     H69728   2.444   8.474   9.256 -0.1024  2.9463  0.5308
  517MOL0     H69729   2.199   8.516   9.311  1.4148  3.3273 -0.0969
  517MOL0     H69730   2.067   8.785   9.067 -2.4805  2.3783 -2.2464
  517MOL0     H69731   1.939   8.712   8.992  0.0493  1.6179  0.5460
  517MOL0     H69732   1.945   8.834   9.284 -1.5447 -2.0185  1.0134
  517MOL0     H69733   1.881   8.905   9.136  2.4863  2.3427  2.2660
  517MOL0     H69734   1.688   8.746   9.138  0.2779 -0.9163 -0.5816
  517MOL0     H69735   1.776   8.634   9.235 -0.5593 -1.0154  0.1971
  517MOL0     H69736   1.746   8.802   9.439  0.8119  0.4048 -0.0843
  517MOL0     H69737   1.683   8.919   9.330 -0.9453  0.3274  2.8163
  517MOL0     H69738   1.478   8.794   9.302  0.3529  2.0075  0.5150
  517MOL0     H69739   1.549   8.648   9.374 -0.5126 -0.1712  0.1002
  517MOL0     H69740   1.574   8.752   9.602 -3.0491 -2.1511  1.0254
  517MOL0     H69741   1.517   8.897   9.543  1.9385 -0.5045 -2.1459
  517MOL0     H69742   1.329   8.814   9.637 -0.0302  0.0018 -0.3308
  517MOL0     H69743   1.311   8.748   9.468  1.1624  1.3320 -1.1367
  517MOL0     H69744   1.434   8.571   9.676  0.8901 -0.5189 -1.3955
  517MOL0     H69745   1.384   8.543   9.517  1.6144  2.4987 -1.9054
  517MOL0     H69746   1.241   8.706   9.851  1.2015  2.0347 -2.0244
  517MOL0     H69747   0.862   8.596   9.890  2.6636 -1.9223  0.2377
  517MOL0     H69748   0.980   8.672   9.988  0.0105 -1.9484  0.4341
  517MOL0     H69749   0.791   8.801   9.785 -0.2809  0.7836  0.3697
  517MOL0     H69750   0.959   8.841   9.766  2.3413  2.4330  2.1193
  517MOL0     H69751   0.827   8.858  10.034 -0.4771 -0.2445 -0.3527
  517MOL0     H69752   0.846   8.999   9.922  3.6382  0.3805 -1.0923
  517MOL0     H69753   1.085   9.003   9.955 -0.0381 -0.1020 -0.4673
  517MOL0     H69754   1.095   8.851  10.022  2.8487  2.8195  1.6749
  517MOL0     H69755   1.013   8.994  10.411  0.6065 -2.5542  3.7539
  517MOL0     H69756   1.228   8.851  10.631 -1.4813 -0.1460  0.3562
  517MOL0     H69757   1.230   9.025  10.648 -1.2224 -0.9192  0.9987
  517MOL0     H69758   1.078   8.960  10.628 -0.2094  2.9789 -0.6946
  517MOL0     H69759   1.690   8.681  10.523 -2.9221  1.4184  0.5187
  517MOL0     H69760   1.929   8.660  10.574  0.1665 -0.3240  3.6579
  517MOL0     H69761   2.234   8.975  10.520 -0.2770 -4.2057 -2.1101
  517MOL0     H69762   2.144   9.033  10.660 -0.6793 -0.2372  1.8625
  517MOL0     H69763   2.353   8.807  10.671 -3.9566 -3.1182 -1.9445
  517MOL0     H69764   2.345   8.959  10.771 -1.6320  3.0418 -2.6392
  517MOL0     H69765   2.129   8.747  10.788  0.3676 -0.1983  0.3826
  517MOL0     H69766   2.152   8.879  10.900  1.3382  0.8011  0.5103
  517MOL0     H69767   2.299   8.629  10.868 -2.3780 -0.3743  1.4989
  517MOL0     H69768   2.396   8.767  10.935 -1.1272  1.5920  0.6650
  517MOL0     H69769   2.140   8.663  11.058 -0.5571  2.4474 -1.0731
  517MOL0     H69770   2.217   8.809  11.104 -2.1433  1.1708 -2.2479
  517MOL0     H69771   2.340   8.535  11.118 -1.6130 -0.7439  0.8710
  517MOL0     H69772   2.432   8.693  11.150  0.4708 -0.6045  0.8181
  517MOL0     H69773   2.198   8.625  11.315  1.0623 -2.7177 -0.4649
  517MOL0     H69774   2.319   8.756  11.338  2.2788 -0.4762 -0.5931
  517MOL0     H69775   2.368   8.561  11.474 -0.0018 -1.7370  0.2603
  517MOL0     H69776   2.490   8.605  11.356 -0.5348  0.8955 -0.6819
  517MOL0     H69777   1.974   9.077  10.513  0.0501 -1.3810 -2.3442
  517MOL0     H69778   1.735   9.097  10.475  1.6290 -0.1409  0.4939
  517MOL0     H69779   1.461   8.975  10.230  0.0167 -0.1485 -0.8366
  517MOL0     H69780   1.269   8.975  10.059 -0.1998 -1.3425  0.3318
  517MOL0     H69781   2.126   8.594   8.900  0.0719  1.1236  0.9365
  517MOL0     H69782   2.364   8.529   8.849  2.1110 -2.1706  0.7833
  517MOL0     H69783   2.773   8.386   9.089 -2.1942  1.4194 -1.0642
  517MOL0     H69784   3.021   8.322   9.041 -0.4945  1.7410  0.6315
  517MOL0     H69785   3.220   8.406   9.029 -1.2400 -0.1279 -0.2257
  517MOL0     H69786   3.225   8.245   8.977  1.5402  0.1506 -0.2401
  517MOL0     H69787   3.442   8.343   8.943  0.9818 -1.4470 -1.1973
  517MOL0     H69788   3.370   8.462   8.824  1.9856 -1.2597 -0.8922
  517MOL0     H69789   3.305   8.217   8.719 -2.0151  2.8467 -0.2825
  517MOL0     H69790   3.467   8.197   8.793  0.6446 -0.1226 -0.2400
  517MOL0     H69791   3.560   8.376   8.676 -0.4360  0.2007  0.7084
  517MOL0     H69792   3.409   8.433   8.601 -0.3804 -0.7560  0.2389
  517MOL0     H69793   3.477   8.140   8.326  0.6108  2.3642 -1.8338
  517MOL0     H69794   3.006   8.559   8.694 -1.3467  0.5816 -0.1377
  517MOL0     H69795   2.788   8.622   8.725 -0.3393 -2.5464 -1.4615
  518MOL0     O69796   8.750   5.730   5.027  0.2701  0.2463  0.2453
  518MOL0     C69797   8.844   5.801   5.019 -0.4687 -0.2824  1.1017
  518MOL0     O69798   8.961   5.760   4.954 -0.0922 -0.4874  0.1300
  518MOL0     C69799   8.956   5.636   4.900  0.3160  0.5333  0.3983
  518MOL0     C69800   8.963   5.619   4.754 -1.1501 -0.8707 -0.0536
  518MOL0     C69801   8.973   5.492   4.705  0.5475  0.2416  0.5233
  518MOL0     C69802   9.003   5.380   4.786  0.3102  0.4113  0.1173
  518MOL0     O69803   9.018   5.257   4.729 -0.2776 -0.0244  0.3133
  518MOL0     C69804   8.984   5.134   4.804  0.3556  0.2224  0.6717
  518MOL0     C69805   8.846   5.078   4.758 -0.4115 -0.2579 -0.2876
  518MOL0     C69806   8.733   5.183   4.773 -0.8981  0.4247  0.9521
  518MOL0     C69807   8.697   5.189   4.920  0.3353  0.1691 -0.1827
  518MOL0     C69808   8.594   5.304   4.942 -0.1695  0.0122  0.0442
  518MOL0     C69809   8.593   5.368   5.078 -0.6498  0.4743  0.1550
  518MOL0     C69810   8.483   5.471   5.102  1.4929  0.0561  0.8325
  518MOL0     C69811   8.337   5.416   5.092  0.3638  0.6991  0.3969
  518MOL0     N69812   8.296   5.298   5.181 -0.0790  0.1655  0.1779
  518MOL0     C69813   8.251   5.313   5.306  0.5601 -0.3713  0.1111
  518MOL0     C69814   8.220   5.188   5.352  0.4099 -0.6832 -0.5208
  518MOL0     C69815   8.188   5.146   5.488  0.8724 -0.7626  1.3537
  518MOL0     C69816   8.035   5.138   5.490  1.2656  0.5714  0.1169
  518MOL0     C69817   7.963   5.248   5.412 -0.5478 -0.1308 -0.1007
  518MOL0     C69818   7.821   5.275   5.441  0.2069  0.0527  0.0515
  518MOL0     O69819   7.756   5.147   5.464  0.1031  0.0694 -0.3347
  518MOL0     C69820   7.628   5.134   5.498 -0.3035 -0.5875 -0.7933
  518MOL0     C69821   7.599   5.001   5.513 -0.3041  0.6005  0.2960
  518MOL0     C69822   7.471   4.963   5.564  0.2215  0.3504  1.4506
  518MOL0     C69823   7.445   4.824   5.588  0.3553  0.8870 -0.3664
  518MOL0     C69824   7.370   5.063   5.599 -0.3899  0.6833  0.1077
  518MOL0     C69825   7.227   5.035   5.642 -0.3217 -0.0881 -0.5667
  518MOL0     O69826   7.167   4.915   5.610 -0.2047 -0.1069 -0.2274
  518MOL0     C69827   7.063   4.879   5.693  0.0538 -0.0082  0.8307
  518MOL0     C69828   7.085   4.850   5.823 -0.5467 -0.8443  0.2150
  518MOL0     C69829   6.979   4.797   5.894 -0.1929 -0.7077 -0.8466
  518MOL0     C69830   6.864   4.753   5.825 -0.1788 -0.8237 -0.0344
  518MOL0     O69831   6.765   4.709   5.905  0.8463  0.0871 -0.0850
  518MOL0     C69832   6.626   4.725   5.864 -0.2690  0.5759 -0.2760
  518MOL0     C69833   6.545   4.702   5.987  1.1270  1.3271 -0.7825
  518MOL0     C69834   6.544   4.814   6.096  0.1618 -0.1516  0.2423
  518MOL0     C69835   6.495   4.950   6.051  0.3540 -0.1364  0.1897
  518MOL0     C69836   6.478   5.066   6.171 -0.2267  0.4790 -0.6060
  518MOL0     C69837   6.470   5.203   6.101 -0.1726  0.1570 -0.8237
  518MOL0     C69838   6.399   5.314   6.178  0.2096 -0.1091 -0.2136
  518MOL0     C69839   6.397   5.448   6.096  0.5560  0.6479 -0.4267
  518MOL0    Cl69840   6.377   5.570   6.215  0.3316 -0.1667 -0.1328
  518MOL0     C69841   6.843   4.782   5.693  0.2367 -0.1651 -0.1425
  518MOL0     C69842   6.945   4.845   5.623 -0.5668 -0.5420 -0.2491
  518MOL0     O69843   7.184   5.121   5.715 -0.0249  0.5141 -0.0371
  518MOL0     C69844   7.415   5.195   5.588 -0.0624 -0.0750 -1.1372
  518MOL0     C69845   7.542   5.234   5.545  0.5719 -0.2897  0.1199
  518MOL0     N69846   8.256   5.099   5.253 -0.2732 -0.1445  0.8630
  518MOL0     N69847   8.301   5.169   5.151 -0.6242  0.3043  0.4815
  518MOL0     C69848   9.022   5.406   4.926 -0.2102  0.2347 -0.4356
  518MOL0     C69849   8.986   5.530   4.982 -0.7208  0.0382 -0.1099
  518MOL0     C69850   8.838   5.943   5.069  0.5609  0.6448 -0.1875
  518MOL0     C69851   8.958   6.018   5.079 -0.2557  0.4059 -0.2932
  518MOL0     C69852   8.961   6.148   5.115  0.3208 -0.2521 -0.4539
  518MOL0     C69853   8.846   6.221   5.142 -0.2409 -0.1052 -0.2597
  518MOL0     O69854   8.838   6.353   5.167  0.6081 -1.1623 -0.3143
  518MOL0     C69855   8.968   6.429   5.173  0.8685  0.2364 -0.0837
  518MOL0     C69856   8.948   6.570   5.238  0.5527  0.2914 -0.1548
  518MOL0     C69857   8.855   6.668   5.168  0.7611  0.1769  0.5614
  518MOL0     C69858   8.911   6.809   5.167 -0.4511 -0.3377 -0.4220
  518MOL0     C69859   8.824   6.896   5.089 -0.4721  0.7246 -0.4312
  518MOL0     C69860   8.729   6.963   5.043 -0.5386  0.3000  0.0905
  518MOL0     C69861   8.724   6.152   5.128 -0.5223  0.3495  0.0451
  518MOL0     C69862   8.715   6.017   5.089 -0.2512  0.4513 -0.3553
  518MOL0     H69863   8.940   5.707   4.694 -1.9518 -1.6978 -1.0190
  518MOL0     H69864   8.971   5.467   4.599  3.5291 -0.2652  0.4962
  518MOL0     H69865   9.062   5.058   4.791  0.8819  1.0076 -0.9740
  518MOL0     H69866   8.986   5.150   4.912  2.7247 -0.8742  0.8702
  518MOL0     H69867   8.846   5.037   4.657 -1.1566  0.2257 -0.4864
  518MOL0     H69868   8.828   4.988   4.817  0.6029 -1.1641 -1.3080
  518MOL0     H69869   8.754   5.281   4.729  0.1587  1.0163  2.6777
  518MOL0     H69870   8.646   5.147   4.717  2.1190 -2.3718 -2.4668
  518MOL0     H69871   8.641   5.098   4.939  1.5921 -0.9929 -1.8243
  518MOL0     H69872   8.781   5.197   4.990  0.8477 -2.5746 -0.3903
  518MOL0     H69873   8.629   5.386   4.878 -0.0051  1.8744  2.3502
  518MOL0     H69874   8.495   5.272   4.908  0.1040  0.5078 -1.2769
  518MOL0     H69875   8.596   5.297   5.161  1.4412  1.1996  0.7634
  518MOL0     H69876   8.684   5.428   5.082 -2.1810  3.0028 -0.4000
  518MOL0     H69877   8.492   5.520   5.200  0.9843 -0.4271  1.1277
  518MOL0     H69878   8.494   5.547   5.024 -1.4428  0.5776  0.7853
  518MOL0     H69879   8.302   5.377   4.996 -2.3717 -0.2809  1.6767
  518MOL0     H69880   8.275   5.500   5.127  2.4287  1.8931  1.3374
  518MOL0     H69881   8.250   5.409   5.357  2.9048  1.6952 -3.3155
  518MOL0     H69882   8.242   5.059   5.527  1.0655 -0.8922  0.8063
  518MOL0     H69883   8.215   5.231   5.551 -1.3100  3.5825 -2.9097
  518MOL0     H69884   7.990   5.147   5.589 -0.6355 -2.1502 -0.3742
  518MOL0     H69885   7.993   5.044   5.452  0.4525  0.3959  1.4069
  518MOL0     H69886   7.967   5.210   5.309 -0.3946  0.0476 -0.1612
  518MOL0     H69887   8.020   5.342   5.412 -0.8737  0.0745 -0.7887
  518MOL0     H69888   7.773   5.337   5.365 -0.5527  0.5662  0.9243
  518MOL0     H69889   7.824   5.337   5.531 -0.6551 -1.9257  1.5332
  518MOL0     H69890   7.675   4.931   5.478  0.3120  1.8566 -0.9866
  518MOL0     H69891   7.408   4.815   5.691 -0.6358 -1.2815 -0.8593
  518MOL0     H69892   7.366   4.796   5.517 -0.0818  1.6684 -0.1966
  518MOL0     H69893   7.528   4.756   5.568  1.1924  1.7827  0.0066
  518MOL0     H69894   7.179   4.874   5.872 -0.7452  1.6564 -0.5142
  518MOL0     H69895   6.990   4.777   6.000 -1.1785  1.5526 -0.2707
  518MOL0     H69896   6.607   4.825   5.824 -1.7670 -0.0583 -1.2348
  518MOL0     H69897   6.600   4.647   5.791  1.1200 -0.3613  0.1860
  518MOL0     H69898   6.441   4.698   5.955  0.8068  1.4518  0.2060
  518MOL0     H69899   6.578   4.606   6.027  1.3629  1.7868  0.1695
  518MOL0     H69900   6.647   4.826   6.131  0.5209 -0.1745 -0.7849
  518MOL0     H69901   6.476   4.775   6.172 -0.8906 -2.7306 -1.8676
  518MOL0     H69902   6.569   4.990   5.981  0.9450 -1.1575  0.2109
  518MOL0     H69903   6.399   4.942   5.999 -0.9709  5.0317  1.2678
  518MOL0     H69904   6.569   5.062   6.232  0.9495  2.2746 -2.1130
  518MOL0     H69905   6.388   5.038   6.225 -0.8282  2.1744 -0.6530
  518MOL0     H69906   6.565   5.234   6.058 -0.6017  0.0494 -1.8766
  518MOL0     H69907   6.412   5.187   6.010 -0.1813 -0.2669 -0.7480
  518MOL0     H69908   6.447   5.334   6.275  2.1959 -2.2908 -0.6600
  518MOL0     H69909   6.302   5.275   6.210 -0.8987  2.5888 -0.0566
  518MOL0     H69910   6.315   5.461   6.026 -0.1769  1.4335  0.5554
  518MOL0     H69911   6.491   5.461   6.041 -1.0094 -0.8065 -3.6583
  518MOL0     H69912   6.756   4.757   5.634 -1.1184  0.9533  1.2833
  518MOL0     H69913   6.938   4.860   5.516 -2.4887  0.5858 -0.0039
  518MOL0     H69914   7.345   5.271   5.619  1.9496  0.1183  3.8794
  518MOL0     H69915   7.550   5.342   5.548  0.8254 -0.3057  0.0081
  518MOL0     H69916   9.071   5.328   4.983  2.0333  0.2324 -2.2328
  518MOL0     H69917   9.004   5.542   5.088 -1.3814 -1.2627  0.1608
  518MOL0     H69918   9.053   5.971   5.053 -0.3178  0.3552 -0.4269
  518MOL0     H69919   9.060   6.192   5.114  0.7301 -1.1230  0.6324
  518MOL0     H69920   9.041   6.374   5.232  1.0050  0.9488  0.4264
  518MOL0     H69921   9.010   6.442   5.073 -0.2657 -0.0140 -0.6088
  518MOL0     H69922   9.044   6.621   5.248 -0.9865  3.3702 -0.0163
  518MOL0     H69923   8.905   6.557   5.338  2.5580  4.2236  1.4362
  518MOL0     H69924   8.759   6.672   5.221 -0.3750  0.0499 -1.3999
  518MOL0     H69925   8.835   6.619   5.072  2.6730 -1.5132  0.9412
  518MOL0     H69926   9.002   6.813   5.107 -1.2232  4.1134 -1.6212
  518MOL0     H69927   8.922   6.844   5.270  1.1760 -2.0050  0.0364
  518MOL0     H69928   8.651   7.021   4.999 -3.1407 -2.1295  1.1884
  518MOL0     H69929   8.631   6.202   5.154  0.1982  1.4038  0.6390
  518MOL0     H69930   8.619   5.965   5.093  0.8753 -1.7134  0.1976
  519MOL0     O69931  11.238   8.209   2.642  1.0402  0.4392  0.1898
  519MOL0     C69932  11.222   8.324   2.682 -0.6145 -0.0036 -1.0897
  519MOL0     O69933  11.118   8.410   2.644  0.1185  0.4638 -0.9152
  519MOL0     C69934  11.009   8.361   2.579 -0.0693  0.0634  0.0954
  519MOL0     C69935  10.941   8.447   2.491 -0.3592 -0.7258 -0.2813
  519MOL0     C69936  10.810   8.420   2.451  0.7745 -0.0091  0.1771
  519MOL0     C69937  10.740   8.308   2.491  0.6106 -0.6464 -0.0307
  519MOL0     O69938  10.604   8.292   2.463  0.1855 -0.4711  0.1444
  519MOL0     C69939  10.521   8.368   2.557  0.1925  0.1463 -0.3981
  519MOL0     C69940  10.422   8.272   2.618  0.0019  0.7843  0.3763
  519MOL0     C69941  10.315   8.223   2.518 -1.4570  0.5141 -0.8167
  519MOL0     C69942  10.185   8.207   2.580  0.2849  0.2698 -1.0613
  519MOL0     C69943  10.086   8.136   2.495 -0.2909  0.5571  1.4607
  519MOL0     C69944  10.119   7.990   2.456 -0.1400  0.5004  0.6989
  519MOL0     C69945  10.028   7.912   2.362 -0.0722 -0.1764 -1.0201
  519MOL0     C69946  10.048   7.966   2.218  0.0473 -0.5236  0.8169
  519MOL0     N69947   9.967   7.898   2.117 -0.3576 -0.1977 -0.5886
  519MOL0     C69948   9.830   7.917   2.116  0.4200  0.3397  0.6972
  519MOL0     C69949   9.795   7.827   2.013  0.2095 -0.1625 -0.6411
  519MOL0     C69950   9.645   7.783   1.974 -0.8201  0.3614  0.1381
  519MOL0     C69951   9.601   7.868   1.853  0.4303 -0.0066  0.0020
  519MOL0     C69952   9.480   7.970   1.879  0.6907 -0.0907 -0.6000
  519MOL0     C69953   9.341   7.922   1.832  0.5369  0.2235  0.0939
  519MOL0     O69954   9.276   7.829   1.919  0.1101 -0.5380  0.3596
  519MOL0     C69955   9.138   7.817   1.924  0.5564  0.2959 -0.1030
  519MOL0     C69956   9.035   7.878   1.844 -1.0471 -0.1527  0.5352
  519MOL0     C69957   8.906   7.886   1.875  1.1005  0.3443 -0.9146
  519MOL0     C69958   8.810   7.967   1.793 -0.7004 -0.1467 -0.2281
  519MOL0     C69959   8.868   7.810   1.985 -0.2196  0.8720 -0.0165
  519MOL0     C69960   8.723   7.810   2.033 -0.0588  0.5887  0.3852
  519MOL0     O69961   8.684   7.680   2.068  0.1102 -0.0512  0.4186
  519MOL0     C69962   8.550   7.670   2.103 -0.7137  0.2133 -0.3990
  519MOL0     C69963   8.515   7.713   2.234 -0.2235  0.7065  0.7644
  519MOL0     C69964   8.385   7.695   2.282 -0.2138 -0.0967 -0.2134
  519MOL0     C69965   8.293   7.630   2.208 -0.6947  0.6490  0.8000
  519MOL0     O69966   8.164   7.599   2.247  0.6561 -0.0412  0.3833
  519MOL0     C69967   8.135   7.603   2.391  0.0614 -0.3977  0.0324
  519MOL0     C69968   7.992   7.546   2.405 -0.9674  0.0789 -0.7829
  519MOL0     C69969   7.943   7.524   2.545 -0.2468 -0.4386 -0.3682
  519MOL0     C69970   7.790   7.498   2.550 -0.0258  0.5106 -0.0787
  519MOL0     C69971   7.722   7.502   2.690 -0.1109 -0.2053  0.2747
  519MOL0     C69972   7.570   7.462   2.695  0.0783  0.1521  0.1030
  519MOL0     C69973   7.537   7.468   2.846  0.6311 -0.2897  1.0210
  519MOL0     C69974   7.386   7.455   2.862  0.2361  0.1220 -0.3094
  519MOL0    Cl69975   7.334   7.410   3.031 -0.1733 -0.0417  0.1393
  519MOL0     C69976   8.323   7.592   2.080 -0.2224  0.4493 -0.3634
  519MOL0     C69977   8.451   7.614   2.031 -0.1000  0.0551  0.7777
  519MOL0     O69978   8.668   7.915   2.048  0.0146 -0.4365 -0.2191
  519MOL0     C69979   8.952   7.729   2.061 -0.8214  0.2933  0.1395
  519MOL0     C69980   9.091   7.735   2.022 -0.1839  0.0972 -0.0202
  519MOL0     N69981   9.901   7.764   1.957  0.2186  0.1976  0.0753
  519MOL0     N69982  10.009   7.812   2.016  0.8614 -0.0023  0.2969
  519MOL0     C69983  10.806   8.220   2.575 -0.2136 -0.8579 -0.3230
  519MOL0     C69984  10.939   8.241   2.619  0.3815  0.8138  0.9228
  519MOL0     C69985  11.318   8.381   2.781  0.3455 -0.3678  0.8949
  519MOL0     C69986  11.371   8.510   2.751 -0.3296  0.0072 -0.0949
  519MOL0     C69987  11.477   8.560   2.826 -0.6500 -0.4568 -0.6578
  519MOL0     C69988  11.533   8.486   2.924 -0.0758 -0.6924  0.3708
  519MOL0     O69989  11.637   8.547   2.999 -0.2594 -0.0132  0.0521
  519MOL0     C69990  11.761   8.473   3.028 -0.7044 -0.8446  0.1007
  519MOL0     C69991  11.848   8.556   3.127  0.4603 -0.6088 -0.9143
  519MOL0     C69992  11.795   8.556   3.275 -0.5694 -0.8787  0.6868
  519MOL0     C69993  11.864   8.663   3.355  0.7399  0.2694  0.0323
  519MOL0     C69994  12.013   8.638   3.369 -0.0259 -0.1645  0.7366
  519MOL0     C69995  12.126   8.596   3.374 -0.1958  1.2583 -1.0003
  519MOL0     C69996  11.501   8.356   2.939 -0.6571 -0.1369 -0.1258
  519MOL0     C69997  11.389   8.302   2.875 -0.3626 -0.0685 -0.0456
  519MOL0     H69998  10.978   8.543   2.456 -1.9919 -0.2387 -0.7260
  519MOL0     H69999  10.761   8.495   2.390 -3.1805  1.7043  4.8375
  519MOL0     H70000  10.576   8.428   2.630  4.7204 -1.9704 -1.7182
  519MOL0     H70001  10.467   8.448   2.505  2.3708  2.4015  0.6372
  519MOL0     H70002  10.486   8.192   2.657  0.6410 -0.0535 -2.2067
  519MOL0     H70003  10.371   8.333   2.694 -3.8593  1.0101 -2.1006
  519MOL0     H70004  10.299   8.313   2.457 -0.3330  0.9963 -0.4310
  519MOL0     H70005  10.354   8.145   2.452 -0.4794 -1.3226  1.7999
  519MOL0     H70006  10.203   8.159   2.676  0.7119 -0.4675 -1.5066
  519MOL0     H70007  10.145   8.303   2.616 -0.6190 -0.3740 -0.3105
  519MOL0     H70008   9.990   8.134   2.547 -2.5217 -1.2528 -2.3199
  519MOL0     H70009  10.078   8.197   2.404  2.3647  0.0332  0.7844
  519MOL0     H70010  10.221   7.992   2.417 -0.1464 -0.6601  0.5831
  519MOL0     H70011  10.119   7.941   2.553  2.3405 -1.3715 -0.1499
  519MOL0     H70012  10.057   7.807   2.366 -3.0439 -1.0939 -1.0404
  519MOL0     H70013   9.924   7.919   2.395  0.3289 -0.3134  0.3183
  519MOL0     H70014  10.153   7.951   2.191  0.0577  0.1406  0.4821
  519MOL0     H70015  10.026   8.072   2.202 -1.2653 -0.9212 -0.2582
  519MOL0     H70016   9.758   7.972   2.175  0.0454 -0.6901  1.2179
  519MOL0     H70017   9.650   7.681   1.935 -0.1095  0.5245 -0.2224
  519MOL0     H70018   9.573   7.782   2.055 -2.3237  2.0095 -1.1009
  519MOL0     H70019   9.577   7.806   1.766  0.7926  2.4596 -1.9634
  519MOL0     H70020   9.692   7.918   1.818  0.2430 -0.6689 -1.4845
  519MOL0     H70021   9.508   8.057   1.820  1.8205 -0.4533 -0.6120
  519MOL0     H70022   9.480   7.999   1.985  1.6066  3.2971 -1.4075
  519MOL0     H70023   9.349   7.882   1.731  2.8349  2.8238 -0.8740
  519MOL0     H70024   9.278   8.010   1.816 -0.9585 -1.1321 -1.9465
  519MOL0     H70025   9.066   7.950   1.769 -4.6376  0.6932 -0.3555
  519MOL0     H70026   8.855   7.991   1.697  0.2190 -2.6249 -0.4889
  519MOL0     H70027   8.713   7.918   1.782 -0.3109 -0.8406 -0.6163
  519MOL0     H70028   8.791   8.062   1.844  1.6928  0.0406  0.4176
  519MOL0     H70029   8.595   7.760   2.290 -1.2340  0.6068  2.3516
  519MOL0     H70030   8.361   7.729   2.382 -1.8190 -0.6823 -0.3779
  519MOL0     H70031   8.187   7.530   2.453 -0.5430 -1.5733 -0.7951
  519MOL0     H70032   8.147   7.703   2.434  2.0248  0.5351 -2.4550
  519MOL0     H70033   7.926   7.617   2.353 -0.3370  1.2585 -0.0017
  519MOL0     H70034   7.978   7.450   2.355 -0.2153  0.2235 -1.2970
  519MOL0     H70035   7.960   7.609   2.612  1.2364 -0.0736 -1.1749
  519MOL0     H70036   8.012   7.446   2.579  0.6955  0.7790  0.5819
  519MOL0     H70037   7.743   7.569   2.482 -1.0143 -1.3859 -1.4627
  519MOL0     H70038   7.780   7.396   2.513 -2.5263 -0.1451  2.0919
  519MOL0     H70039   7.715   7.604   2.729  2.1046  1.1114 -2.4295
  519MOL0     H70040   7.777   7.439   2.760  2.1167 -1.5565 -2.4817
  519MOL0     H70041   7.514   7.526   2.627 -2.9124 -1.2090  1.1403
  519MOL0     H70042   7.550   7.358   2.667 -2.4579  0.6821 -0.2269
  519MOL0     H70043   7.573   7.550   2.909  3.8769 -0.9542  0.2129
  519MOL0     H70044   7.582   7.376   2.885  2.9826  0.9379  1.3865
  519MOL0     H70045   7.333   7.386   2.796 -0.0206  0.2646 -0.2543
  519MOL0     H70046   7.350   7.557   2.845 -0.9069 -0.2681 -0.3615
  519MOL0     H70047   8.251   7.533   2.024 -0.8615  0.9422 -0.0705
  519MOL0     H70048   8.472   7.587   1.928 -1.6730 -2.2053  0.9881
  519MOL0     H70049   8.925   7.667   2.146 -0.2297  1.2184  1.0372
  519MOL0     H70050   9.157   7.684   2.090  0.3709  0.1473 -0.5142
  519MOL0     H70051  10.755   8.133   2.614 -1.8039 -0.2961 -1.0455
  519MOL0     H70052  10.985   8.168   2.685  1.7961  0.6927 -0.1741
  519MOL0     H70053  11.335   8.566   2.666 -0.5267 -0.6097 -0.4303
  519MOL0     H70054  11.514   8.657   2.797 -2.5259  0.4068 -0.3362
  519MOL0     H70055  11.748   8.376   3.076 -1.6276 -0.3098  0.9533
  519MOL0     H70056  11.815   8.465   2.933  0.3460  0.3653  0.5679
  519MOL0     H70057  11.844   8.654   3.078 -2.2432  0.1752  0.6445
  519MOL0     H70058  11.951   8.520   3.130  0.7836  0.3122  0.4494
  519MOL0     H70059  11.806   8.455   3.315  3.0667 -1.4377 -1.2657
  519MOL0     H70060  11.688   8.573   3.263 -0.7706 -1.6675  1.2850
  519MOL0     H70061  11.810   8.672   3.450  0.1233 -1.9280 -0.0536
  519MOL0     H70062  11.862   8.760   3.303  0.7436 -0.2082 -0.8798
  519MOL0     H70063  12.229   8.567   3.384 -0.9379 -2.2294 -2.2858
  519MOL0     H70064  11.549   8.294   3.015  3.4944  1.5638 -1.0736
  519MOL0     H70065  11.369   8.196   2.881 -1.9479  0.0092 -2.4211
  520MOL0     O70066   5.591   2.336   6.244 -0.5679  0.6381  0.2704
  520MOL0     C70067   5.710   2.377   6.237  1.1284  0.8419  0.0256
  520MOL0     O70068   5.810   2.313   6.307 -0.4160 -0.2485  0.2497
  520MOL0     C70069   5.768   2.218   6.402  0.5560  0.1171 -0.1220
  520MOL0     C70070   5.749   2.082   6.363 -0.6575 -0.4839 -0.0692
  520MOL0     C70071   5.705   1.995   6.459  0.2079 -0.5791  0.0069
  520MOL0     C70072   5.685   2.040   6.596 -0.7038  0.3368 -0.2868
  520MOL0     O70073   5.625   1.951   6.683  0.2698 -0.1928 -0.0434
  520MOL0     C70074   5.550   2.009   6.790  0.8089  0.2227  0.2583
  520MOL0     C70075   5.480   1.897   6.881 -0.2714 -0.6017  0.0799
  520MOL0     C70076   5.398   1.971   6.992  0.1802 -0.0297  0.8129
  520MOL0     C70077   5.331   1.873   7.088  0.6972  0.9085  0.0295
  520MOL0     C70078   5.232   1.924   7.199 -0.9185 -0.0378  0.4784
  520MOL0     C70079   5.188   1.802   7.287 -0.0956  0.4465 -0.4482
  520MOL0     C70080   5.094   1.846   7.405 -0.5107  0.6306  0.4958
  520MOL0     C70081   5.041   1.722   7.470 -0.6969 -0.1682  0.8927
  520MOL0     N70082   4.925   1.738   7.560  0.4090 -0.9543 -0.4041
  520MOL0     C70083   4.808   1.802   7.528 -0.1879 -0.8015 -0.1076
  520MOL0     C70084   4.740   1.805   7.644  0.0290  0.2034  0.7743
  520MOL0     C70085   4.598   1.860   7.658  0.2130  0.9182  0.2752
  520MOL0     C70086   4.501   1.779   7.566  0.6725 -0.5967 -0.2843
  520MOL0     C70087   4.352   1.806   7.580 -0.4400  0.3576 -0.4566
  520MOL0     C70088   4.267   1.740   7.468  0.2498  0.0665 -0.0550
  520MOL0     O70089   4.134   1.791   7.469  0.6219 -0.1610  0.4686
  520MOL0     C70090   4.059   1.802   7.351 -0.2009  0.8993  1.1098
  520MOL0     C70091   3.938   1.871   7.364 -0.1985  0.0823  0.1234
  520MOL0     C70092   3.845   1.886   7.251 -0.3703 -0.1662 -0.5902
  520MOL0     C70093   3.707   1.943   7.277  0.0152 -0.0630 -0.3931
  520MOL0     C70094   3.887   1.831   7.128  0.0151 -0.1362  0.5463
  520MOL0     C70095   3.794   1.827   7.008 -0.5111  0.3445 -0.1922
  520MOL0     O70096   3.687   1.749   7.020 -0.7995  0.4568 -0.2588
  520MOL0     C70097   3.596   1.747   6.919 -1.1209 -0.4899  0.4010
  520MOL0     C70098   3.512   1.861   6.884 -1.0541 -0.1720 -0.4742
  520MOL0     C70099   3.419   1.844   6.785  0.1445 -0.4703  0.1809
  520MOL0     C70100   3.412   1.723   6.712  0.3254 -1.1545 -1.2029
  520MOL0     O70101   3.343   1.731   6.598  0.1715  0.3969 -0.5574
  520MOL0     C70102   3.200   1.704   6.613 -0.3438  0.1154 -0.0776
  520MOL0     C70103   3.165   1.601   6.511  0.0853  0.2189 -0.3743
  520MOL0     C70104   3.012   1.603   6.479 -1.2078  0.1236 -0.0505
  520MOL0     C70105   2.990   1.496   6.377 -0.1202  0.5758  0.1471
  520MOL0     C70106   2.860   1.505   6.304  0.1774 -0.1499 -0.5326
  520MOL0     C70107   2.744   1.482   6.402  0.2955  0.3804  0.0851
  520MOL0     C70108   2.617   1.449   6.326 -0.0488  0.0129 -0.7854
  520MOL0     C70109   2.491   1.461   6.409 -0.0038 -0.0247  0.0758
  520MOL0    Cl70110   2.465   1.634   6.450  0.4455 -0.0031 -0.0426
  520MOL0     C70111   3.488   1.616   6.752 -0.5575 -0.6122  0.2037
  520MOL0     C70112   3.577   1.629   6.859 -0.0983  0.5654  0.2453
  520MOL0     O70113   3.826   1.891   6.913 -0.4039  0.3808  0.0429
  520MOL0     C70114   4.016   1.774   7.109 -0.8057  0.0300  1.0131
  520MOL0     C70115   4.100   1.762   7.222 -0.4011 -0.1662 -0.4691
  520MOL0     N70116   4.811   1.736   7.743  0.1569 -1.0860  0.4445
  520MOL0     N70117   4.928   1.713   7.688 -0.5516  0.2563 -0.3041
  520MOL0     C70118   5.714   2.174   6.631  0.0624  0.1626  0.6819
  520MOL0     C70119   5.750   2.266   6.532  0.0091 -0.2719 -0.1119
  520MOL0     C70120   5.736   2.485   6.150  0.5864 -0.0343  0.5514
  520MOL0     C70121   5.637   2.578   6.114  0.0159 -0.6490  0.2887
  520MOL0     C70122   5.659   2.679   6.018  0.4771  0.0050  0.4531
  520MOL0     C70123   5.786   2.690   5.949 -0.2984 -0.5876  0.3273
  520MOL0     O70124   5.794   2.811   5.870 -0.8102  0.4670 -0.2491
  520MOL0     C70125   5.842   2.776   5.737 -0.9461 -0.4873 -0.2121
  520MOL0     C70126   5.796   2.892   5.645 -0.7852  0.1085 -0.2465
  520MOL0     C70127   5.880   2.913   5.519 -0.4092 -0.4047 -0.0370
  520MOL0     C70128   5.891   3.066   5.497 -0.0527 -0.4044 -0.5697
  520MOL0     C70129   5.994   3.087   5.393  0.1499  0.4224 -0.5783
  520MOL0     C70130   6.071   3.080   5.301  0.2429  0.9336 -0.0263
  520MOL0     C70131   5.883   2.590   5.970  0.7034 -0.3615  0.2839
  520MOL0     C70132   5.860   2.497   6.080  0.6547 -1.3543 -0.2097
  520MOL0     H70133   5.749   2.048   6.260  0.8692  2.6645 -1.2193
  520MOL0     H70134   5.678   1.891   6.443  0.2033 -0.4999 -0.4870
  520MOL0     H70135   5.624   2.066   6.847  1.1157  0.4700 -0.3746
  520MOL0     H70136   5.473   2.077   6.752  1.5516  0.3418 -1.0561
  520MOL0     H70137   5.424   1.830   6.816  0.5933  0.4103 -1.8093
  520MOL0     H70138   5.557   1.841   6.935 -0.2474  0.1723  0.8832
  520MOL0     H70139   5.462   2.038   7.050 -0.1333  1.3695 -0.3753
  520MOL0     H70140   5.329   2.030   6.931  2.6397 -0.4889 -2.7187
  520MOL0     H70141   5.277   1.799   7.028 -3.3791  2.3892  1.5392
  520MOL0     H70142   5.404   1.817   7.147  0.0065  0.2134  0.2583
  520MOL0     H70143   5.291   1.995   7.258 -2.9153  0.4959  1.9299
  520MOL0     H70144   5.151   1.979   7.151  0.0011 -1.0386 -2.3907
  520MOL0     H70145   5.152   1.723   7.220 -0.3300 -0.8559  1.1764
  520MOL0     H70146   5.281   1.754   7.317 -0.0431 -0.8619 -2.4773
  520MOL0     H70147   5.165   1.898   7.469 -0.4386  0.7983  0.2803
  520MOL0     H70148   5.022   1.920   7.371  0.5354  1.6424  0.4369
  520MOL0     H70149   5.118   1.674   7.532 -1.9015 -0.3036  2.3557
  520MOL0     H70150   5.017   1.653   7.389 -0.5376  1.3534 -0.5138
  520MOL0     H70151   4.783   1.831   7.426 -0.4224 -3.0377 -0.7404
  520MOL0     H70152   4.575   1.862   7.765 -0.4540 -1.2078  0.2308
  520MOL0     H70153   4.602   1.959   7.613  1.2600  0.3431 -0.9587
  520MOL0     H70154   4.517   1.673   7.588  0.9586 -0.4903  0.0296
  520MOL0     H70155   4.517   1.798   7.459 -0.6206 -3.5446 -1.0992
  520MOL0     H70156   4.330   1.913   7.586  2.1845  0.9078  0.6475
  520MOL0     H70157   4.319   1.747   7.666 -2.1297  1.1075 -0.5437
  520MOL0     H70158   4.278   1.633   7.486 -1.8592  0.2366  3.2620
  520MOL0     H70159   4.310   1.771   7.373  0.9186  1.8560  0.7855
  520MOL0     H70160   3.910   1.898   7.465  0.4871 -1.5486  0.7905
  520MOL0     H70161   3.702   2.017   7.357  0.5642  1.7652 -1.9742
  520MOL0     H70162   3.666   1.998   7.191 -0.9033  1.2112  0.8100
  520MOL0     H70163   3.637   1.863   7.304  1.4569 -1.5494 -0.8674
  520MOL0     H70164   3.519   1.961   6.926  1.6600 -0.5421  0.1307
  520MOL0     H70165   3.361   1.931   6.757 -0.3967 -0.5130  1.1552
  520MOL0     H70166   3.174   1.657   6.708  0.7065 -1.1077 -0.3565
  520MOL0     H70167   3.142   1.796   6.599 -0.6844  0.5046  3.1587
  520MOL0     H70168   3.225   1.626   6.423  2.2153 -0.1802  0.8935
  520MOL0     H70169   3.187   1.502   6.553 -0.6126 -1.8853 -4.4210
  520MOL0     H70170   2.988   1.694   6.422 -2.9263 -1.1691 -1.5022
  520MOL0     H70171   2.936   1.587   6.555  0.8018  0.8662  2.2303
  520MOL0     H70172   3.067   1.509   6.301 -0.0459  1.7097  0.3994
  520MOL0     H70173   3.001   1.397   6.423 -0.2379  0.3366 -0.3380
  520MOL0     H70174   2.858   1.437   6.219 -1.7454 -1.8232  0.7518
  520MOL0     H70175   2.853   1.610   6.275 -2.5400  0.8924  3.1210
  520MOL0     H70176   2.765   1.392   6.461 -2.4310 -0.3145  0.1245
  520MOL0     H70177   2.731   1.569   6.466 -0.7876 -0.1308  0.5854
  520MOL0     H70178   2.639   1.351   6.283  0.3608 -1.4465  2.4372
  520MOL0     H70179   2.610   1.514   6.238 -2.3003 -0.2520 -0.8606
  520MOL0     H70180   2.494   1.395   6.497  3.1826  0.9159  0.8022
  520MOL0     H70181   2.406   1.432   6.346  1.0074  1.8166 -2.2590
  520MOL0     H70182   3.498   1.525   6.694  1.6431 -1.6996  2.1077
  520MOL0     H70183   3.638   1.541   6.878 -0.2970  0.7995  2.1835
  520MOL0     H70184   4.054   1.736   7.015 -3.8642  2.0384 -1.2001
  520MOL0     H70185   4.190   1.702   7.218 -0.9646 -1.1429  0.8792
  520MOL0     H70186   5.700   2.212   6.731 -1.3066 -1.2060  1.0541
  520MOL0     H70187   5.772   2.368   6.561 -2.5196  0.1455  0.6342
  520MOL0     H70188   5.537   2.564   6.153  0.2720 -0.2538  1.1331
  520MOL0     H70189   5.582   2.752   5.996 -0.6913 -1.3033  0.1470
  520MOL0     H70190   5.950   2.772   5.756 -0.4490  1.5772 -2.1694
  520MOL0     H70191   5.812   2.684   5.686  1.2984 -0.0507 -2.4931
  520MOL0     H70192   5.800   2.978   5.711  0.4187 -1.4394  1.8306
  520MOL0     H70193   5.689   2.872   5.628 -0.6727 -1.5766  0.7686
  520MOL0     H70194   5.838   2.853   5.438  1.2942 -0.6926 -0.7584
  520MOL0     H70195   5.984   2.883   5.539  0.1128  0.6454 -1.0484
  520MOL0     H70196   5.922   3.111   5.592 -1.7196 -1.2802  0.4405
  520MOL0     H70197   5.792   3.108   5.480 -1.0801 -2.5000 -0.1800
  520MOL0     H70198   6.131   3.089   5.213  1.1163 -0.5838  0.3890
  520MOL0     H70199   5.965   2.583   5.900 -1.1302  1.8698 -2.2998
  520MOL0     H70200   5.933   2.425   6.117 -0.8044 -1.7301  2.1544
  521MOL0     O70201   8.518  11.071   2.377  0.1403 -0.1487 -0.0483
  521MOL0     C70202   8.496  11.189   2.340 -0.1784 -0.3951  0.3575
  521MOL0     O70203   8.373  11.243   2.309  0.1296  0.0370  0.2450
  521MOL0     C70204   8.254  11.181   2.339  0.4896  0.0792 -0.8319
  521MOL0     C70205   8.134  11.235   2.290 -0.2559 -0.1541 -0.5675
  521MOL0     C70206   8.011  11.180   2.332 -0.7022 -0.1629  0.2816
  521MOL0     C70207   7.998  11.068   2.413 -0.0727  0.0192 -0.4709
  521MOL0     O70208   7.876  11.013   2.433 -0.0877 -0.3570 -0.1572
  521MOL0     C70209   7.856  10.885   2.494 -0.5492 -0.6650  0.2710
  521MOL0     C70210   7.707  10.863   2.477 -0.4942 -0.0153 -0.0804
  521MOL0     C70211   7.616  10.931   2.578 -0.1470  0.3927 -1.4008
  521MOL0     C70212   7.466  10.916   2.546  0.4913  0.5904  0.7033
  521MOL0     C70213   7.379  10.956   2.665  0.0750 -0.3723  0.8728
  521MOL0     C70214   7.229  10.927   2.645 -0.4661 -1.0395  0.5346
  521MOL0     C70215   7.156  10.960   2.776  0.1269  0.4733 -0.5202
  521MOL0     C70216   7.003  10.935   2.776  0.0684  0.1585  0.0378
  521MOL0     N70217   6.943  10.977   2.900 -0.1281  0.0372  0.2469
  521MOL0     C70218   6.883  10.891   2.994  0.8779 -0.3237 -0.0739
  521MOL0     C70219   6.792  10.974   3.054  0.1061  0.6503 -1.1618
  521MOL0     C70220   6.695  10.948   3.173 -0.8037  0.3174  0.2941
  521MOL0     C70221   6.558  10.914   3.124 -0.0645  0.2283 -0.6661
  521MOL0     C70222   6.464  10.856   3.237  1.7215  0.4085  0.6853
  521MOL0     C70223   6.339  10.798   3.172  0.1103  0.1644 -0.2667
  521MOL0     O70224   6.268  10.905   3.096  0.4108 -0.0788  0.4474
  521MOL0     C70225   6.139  10.885   3.072  0.5445 -0.6589  0.3870
  521MOL0     C70226   6.092  10.754   3.040  0.1155 -0.3155  0.4063
  521MOL0     C70227   5.948  10.719   3.036 -0.2285 -0.4221 -0.2143
  521MOL0     C70228   5.911  10.575   3.023  0.0232 -0.4304  0.6815
  521MOL0     C70229   5.854  10.822   3.019 -0.4066 -0.5638 -0.0112
  521MOL0     C70230   5.703  10.809   3.008 -1.1392 -0.0039 -0.2036
  521MOL0     O70231   5.642  10.935   3.013 -0.1194 -0.6080 -0.0619
  521MOL0     C70232   5.505  10.938   3.013  0.4136  1.1820  0.8241
  521MOL0     C70233   5.449  10.964   2.889  0.4329 -0.0963  0.4641
  521MOL0     C70234   5.308  10.964   2.871 -0.4243 -0.2984  0.2587
  521MOL0     C70235   5.229  10.960   2.989 -0.1309 -0.5112 -0.7764
  521MOL0     O70236   5.092  10.978   2.993  0.7389  0.4744  0.2907
  521MOL0     C70237   5.008  10.946   2.872 -0.1284  0.1708 -0.7810
  521MOL0     C70238   5.018  10.801   2.826 -0.4798  0.7208 -0.1872
  521MOL0     C70239   4.948  10.767   2.698 -0.2133  0.1282 -0.4112
  521MOL0     C70240   5.010  10.635   2.637 -0.4488 -0.9474 -0.1037
  521MOL0     C70241   4.954  10.597   2.495  0.5506 -0.4659  0.2728
  521MOL0     C70242   4.968  10.447   2.467  0.0875  0.0427 -1.0871
  521MOL0     C70243   5.117  10.415   2.420  0.1524  0.1237  0.1472
  521MOL0     C70244   5.143  10.307   2.315 -0.3915  0.6674 -0.2889
  521MOL0    Cl70245   5.152  10.380   2.158  0.2001  0.5442 -0.0179
  521MOL0     C70246   5.292  10.927   3.109 -0.0437  0.1449 -0.1289
  521MOL0     C70247   5.430  10.918   3.127  0.3836  0.9490 -0.2221
  521MOL0     O70248   5.646  10.704   2.990 -0.3134  1.0554 -0.1415
  521MOL0     C70249   5.907  10.951   3.046 -0.6623 -0.4523  0.5362
  521MOL0     C70250   6.040  10.983   3.068 -0.8532 -0.3888  0.2425
  521MOL0     N70251   6.802  11.105   3.013  0.0115 -0.6794 -0.3475
  521MOL0     N70252   6.901  11.106   2.927 -0.2838 -0.2646 -0.4131
  521MOL0     C70253   8.115  11.006   2.449 -0.2141 -0.8295 -0.4407
  521MOL0     C70254   8.239  11.066   2.413 -0.3183 -0.3893  0.2786
  521MOL0     C70255   8.618  11.267   2.284  0.3968  0.9096 -0.5527
  521MOL0     C70256   8.589  11.366   2.203 -0.0884 -0.0807  0.5486
  521MOL0     C70257   8.705  11.422   2.146  0.3283 -0.4675 -0.0614
  521MOL0     C70258   8.836  11.383   2.163 -0.7565 -0.7605 -0.4670
  521MOL0     O70259   8.940  11.455   2.098  0.2293 -0.0330 -0.2645
  521MOL0     C70260   9.082  11.410   2.103  0.1346 -0.7319 -0.1773
  521MOL0     C70261   9.181  11.500   2.019 -0.4457 -0.0586  0.1910
  521MOL0     C70262   9.321  11.463   2.061 -0.0952  0.6961 -0.1532
  521MOL0     C70263   9.368  11.348   1.971 -0.1448  0.8933  0.8414
  521MOL0     C70264   9.410  11.391   1.839 -0.2400 -0.8652 -0.8386
  521MOL0     C70265   9.459  11.402   1.730  0.0324  0.1977 -0.0253
  521MOL0     C70266   8.851  11.276   2.250 -0.4304 -0.5494 -0.4944
  521MOL0     C70267   8.748  11.211   2.305  0.2584 -0.8339 -0.3525
  521MOL0     H70268   8.136  11.321   2.223  2.5850 -1.1758 -1.9520
  521MOL0     H70269   7.922  11.221   2.286  0.3291  0.6378 -1.0987
  521MOL0     H70270   7.913  10.808   2.441  1.4079  0.6948  0.3080
  521MOL0     H70271   7.876  10.882   2.602 -2.9536 -1.8289  0.7750
  521MOL0     H70272   7.663  10.879   2.378 -4.1103  0.1687  1.3690
  521MOL0     H70273   7.691  10.758   2.501  1.3659  0.3481  3.5749
  521MOL0     H70274   7.647  10.891   2.675  1.8074  2.5950 -1.0123
  521MOL0     H70275   7.637  11.039   2.576  2.5047  0.2291  3.2294
  521MOL0     H70276   7.428  10.967   2.457 -1.5452  0.6413  1.5547
  521MOL0     H70277   7.448  10.810   2.527  0.2406  0.5047  1.4146
  521MOL0     H70278   7.409  10.900   2.753 -0.7174  2.2174  2.9075
  521MOL0     H70279   7.402  11.058   2.697 -0.4601  0.3545 -0.9331
  521MOL0     H70280   7.200  10.989   2.560  3.2742 -2.0276 -1.7402
  521MOL0     H70281   7.209  10.823   2.621 -2.4606 -0.2757 -1.4403
  521MOL0     H70282   7.205  10.896   2.850 -0.9158 -0.5059 -0.6386
  521MOL0     H70283   7.171  11.063   2.808 -0.7378 -0.3169  2.8629
  521MOL0     H70284   6.975  10.830   2.760 -2.2213  0.6935  0.2309
  521MOL0     H70285   6.961  10.991   2.692 -0.3223 -0.3295 -0.0995
  521MOL0     H70286   6.879  10.783   3.008 -3.5865 -0.5724 -1.5109
  521MOL0     H70287   6.731  10.857   3.221 -0.3485  0.2951 -0.0779
  521MOL0     H70288   6.689  11.032   3.244 -2.4128  1.3631 -0.9963
  521MOL0     H70289   6.570  10.835   3.049  3.1077 -0.3701  0.3346
  521MOL0     H70290   6.514  11.002   3.077 -0.4714 -0.6245 -1.9278
  521MOL0     H70291   6.423  10.929   3.308 -1.6271  0.5121 -1.1572
  521MOL0     H70292   6.516  10.783   3.300  2.6644  0.9158  0.5114
  521MOL0     H70293   6.271  10.756   3.247 -1.0540  2.9181  0.3639
  521MOL0     H70294   6.364  10.725   3.095 -2.5582 -0.5598 -0.5342
  521MOL0     H70295   6.158  10.670   3.024 -1.1222 -0.8714 -2.4236
  521MOL0     H70296   5.990  10.514   3.069  1.4021  0.7718  0.0224
  521MOL0     H70297   5.815  10.548   3.067  0.1424  0.6574  1.6556
  521MOL0     H70298   5.921  10.539   2.920  1.0800  1.7808 -0.0510
  521MOL0     H70299   5.499  10.987   2.796 -2.5199  2.0410 -0.7405
  521MOL0     H70300   5.269  10.984   2.772 -0.4158 -1.1301  0.0827
  521MOL0     H70301   4.903  10.967   2.893 -0.4330 -1.9829  0.1615
  521MOL0     H70302   5.038  11.010   2.789  1.6829  0.2907 -0.0853
  521MOL0     H70303   5.122  10.769   2.812 -1.2013 -0.8675 -2.4879
  521MOL0     H70304   4.971  10.731   2.897 -3.8608  2.4961 -0.4818
  521MOL0     H70305   4.967  10.856   2.637  2.6725 -0.7361 -0.9336
  521MOL0     H70306   4.841  10.748   2.710 -0.5453  1.2692 -1.3642
  521MOL0     H70307   5.119  10.635   2.628 -0.4275 -2.4101 -0.0311
  521MOL0     H70308   4.986  10.559   2.711  0.3489 -0.1303  1.0255
  521MOL0     H70309   4.983  10.669   2.418  4.3161 -1.1004  0.9175
  521MOL0     H70310   4.846  10.609   2.506  0.6284 -0.7565  1.5055
  521MOL0     H70311   4.951  10.402   2.565 -1.9899 -1.3130 -1.9929
  521MOL0     H70312   4.886  10.419   2.399 -0.7789 -1.6844  0.5735
  521MOL0     H70313   5.159  10.388   2.517  1.2695 -0.8458 -0.5785
  521MOL0     H70314   5.162  10.508   2.386  2.4597 -0.0953  2.3544
  521MOL0     H70315   5.073  10.223   2.322  0.4390 -0.3655 -2.8267
  521MOL0     H70316   5.244  10.272   2.339 -0.2161  0.6503 -0.9994
  521MOL0     H70317   5.232  10.914   3.199  2.3426 -3.2219  1.2040
  521MOL0     H70318   5.490  10.899   3.215  1.0194  1.8631 -0.4392
  521MOL0     H70319   5.845  11.040   3.037 -0.6088 -0.2636  1.7771
  521MOL0     H70320   6.073  11.086   3.079 -2.1461 -0.0057  0.7151
  521MOL0     H70321   8.104  10.912   2.501  0.0879 -2.2215 -2.7716
  521MOL0     H70322   8.324  11.013   2.454 -0.3579 -1.3278 -0.8098
  521MOL0     H70323   8.491  11.403   2.175  1.0621  2.7467 -0.1154
  521MOL0     H70324   8.684  11.497   2.071 -1.5869  0.1574  1.0267
  521MOL0     H70325   9.109  11.396   2.208 -3.2291 -0.5304  0.8584
  521MOL0     H70326   9.092  11.313   2.053 -2.2961 -1.2039  0.0961
  521MOL0     H70327   9.153  11.605   2.032 -0.8565 -0.0029 -1.0413
  521MOL0     H70328   9.153  11.479   1.916 -1.7600  0.0590  0.5117
  521MOL0     H70329   9.327  11.438   2.167  1.7172  0.7743 -0.2162
  521MOL0     H70330   9.387  11.548   2.041 -0.1395  0.5870 -0.7972
  521MOL0     H70331   9.276  11.292   1.949 -1.9176  3.8359  0.1903
  521MOL0     H70332   9.447  11.281   2.006 -1.0452  0.4591  2.1481
  521MOL0     H70333   9.508  11.419   1.636 -0.2798  0.3440 -0.1634
  521MOL0     H70334   8.949  11.233   2.265  0.4666  1.5105 -0.0569
  521MOL0     H70335   8.775  11.130   2.372  0.3089  1.6879  2.9586
  522MOL0     O70336   6.094   0.568   8.719  0.2907 -0.2487  0.0745
  522MOL0     C70337   5.972   0.572   8.693  0.3896  0.8228  0.4664
  522MOL0     O70338   5.895   0.684   8.666 -0.3401  0.0710  0.2769
  522MOL0     C70339   5.953   0.804   8.625  0.3326 -0.4224  0.8134
  522MOL0     C70340   5.931   0.931   8.676 -0.6790 -0.1061  0.2442
  522MOL0     C70341   6.000   1.042   8.620  0.2750  1.0885 -0.6262
  522MOL0     C70342   6.100   1.032   8.517 -0.0019 -0.5471  0.2147
  522MOL0     O70343   6.146   1.159   8.475 -0.4270  0.9615 -0.3253
  522MOL0     C70344   6.256   1.164   8.386  0.4584  0.0242  0.9237
  522MOL0     C70345   6.188   1.192   8.249  0.0932  0.5094  0.2926
  522MOL0     C70346   6.292   1.243   8.148 -0.5114 -0.4080 -0.3658
  522MOL0     C70347   6.263   1.287   7.999  0.6315 -0.1570  0.1624
  522MOL0     C70348   6.181   1.418   7.991 -0.5072  0.1130  0.7883
  522MOL0     C70349   6.134   1.458   7.841  0.5553  0.9007 -0.1841
  522MOL0     C70350   6.089   1.599   7.829  0.1573 -0.2944 -0.8052
  522MOL0     C70351   6.209   1.687   7.826 -0.6870  0.3704  0.5415
  522MOL0     N70352   6.276   1.699   7.691  0.4666  0.3641 -0.1869
  522MOL0     C70353   6.220   1.737   7.577 -0.3967 -0.1785  0.5407
  522MOL0     C70354   6.316   1.714   7.485 -0.0758 -1.2727  0.2456
  522MOL0     C70355   6.287   1.739   7.343 -0.6083 -0.2862 -0.5313
  522MOL0     C70356   6.341   1.877   7.305  0.4080 -0.4439  0.6874
  522MOL0     C70357   6.264   1.942   7.186  0.3396  0.5106  0.0276
  522MOL0     C70358   6.280   1.870   7.054  0.3771 -0.0302 -0.2985
  522MOL0     O70359   6.418   1.827   7.034 -0.1786 -0.2177 -1.2772
  522MOL0     C70360   6.514   1.908   6.974 -0.2655  0.0720  0.5064
  522MOL0     C70361   6.648   1.865   6.964  0.0908  0.4128 -0.7395
  522MOL0     C70362   6.743   1.953   6.917  0.8251 -0.8725  0.8362
  522MOL0     C70363   6.880   1.902   6.902 -0.4455  0.6490  0.0485
  522MOL0     C70364   6.708   2.081   6.879  0.3529 -0.2880  1.2947
  522MOL0     C70365   6.808   2.189   6.843 -0.0086 -0.1839 -0.4529
  522MOL0     O70366   6.926   2.192   6.918  0.3033  0.4832  0.0760
  522MOL0     C70367   7.024   2.285   6.882 -0.5610 -0.7290 -1.0455
  522MOL0     C70368   7.020   2.425   6.915 -0.5196 -0.3414 -0.1764
  522MOL0     C70369   7.120   2.519   6.862 -0.1780  0.0165  0.1402
  522MOL0     C70370   7.236   2.482   6.795 -0.1103  0.5130  0.2089
  522MOL0     O70371   7.326   2.583   6.745 -0.5013  0.4524  0.3663
  522MOL0     C70372   7.465   2.550   6.728  0.3391  0.4855 -0.2189
  522MOL0     C70373   7.543   2.676   6.670 -0.2128 -0.4427 -0.2299
  522MOL0     C70374   7.580   2.781   6.777  0.6200 -1.0440  0.4461
  522MOL0     C70375   7.641   2.894   6.708  0.0756  0.3242 -0.0384
  522MOL0     C70376   7.636   3.022   6.786 -0.8282 -0.1265  0.0541
  522MOL0     C70377   7.731   3.125   6.725 -0.0923  0.4480  0.4677
  522MOL0     C70378   7.699   3.256   6.796 -0.0736  0.3928 -0.6517
  522MOL0     C70379   7.775   3.364   6.738 -0.3359 -0.2093  0.3323
  522MOL0    Cl70380   7.682   3.440   6.597  0.2698  0.1335  0.4446
  522MOL0     C70381   7.242   2.344   6.768  1.4563 -0.6102  0.3076
  522MOL0     C70382   7.140   2.251   6.808 -0.2144  0.1972 -0.2903
  522MOL0     O70383   6.787   2.252   6.739 -0.5382 -0.4487 -1.0467
  522MOL0     C70384   6.574   2.126   6.898  0.7237  0.0469  0.3422
  522MOL0     C70385   6.478   2.042   6.940  0.3751 -0.3043  0.1394
  522MOL0     N70386   6.419   1.642   7.538 -0.0727  0.1150 -0.0760
  522MOL0     N70387   6.397   1.625   7.661  0.8498  0.3863  0.7896
  522MOL0     C70388   6.123   0.908   8.471  0.4162  0.0982  0.2970
  522MOL0     C70389   6.045   0.795   8.517 -1.6385 -0.1427 -0.5803
  522MOL0     C70390   5.910   0.441   8.690 -0.1267  0.4698 -0.5810
  522MOL0     C70391   5.765   0.448   8.700  0.7155  0.2115 -1.0232
  522MOL0     C70392   5.687   0.330   8.708 -0.0901 -0.3143 -0.1949
  522MOL0     C70393   5.755   0.207   8.682 -0.2009 -0.2859  0.4362
  522MOL0     O70394   5.678   0.089   8.665  0.8848  0.0087  0.0357
  522MOL0     C70395   5.532   0.098   8.641 -0.2183  0.0201 -0.4233
  522MOL0     C70396   5.507  -0.021   8.544 -0.1103 -0.5978 -0.5900
  522MOL0     C70397   5.561   0.002   8.400 -0.2909 -0.0125 -0.1421
  522MOL0     C70398   5.715   0.009   8.378 -0.4109  0.4691  0.8483
  522MOL0     C70399   5.776   0.003   8.239  0.4997 -0.3268 -0.1720
  522MOL0     C70400   5.804   0.009   8.122 -0.8201  0.1398  0.3667
  522MOL0     C70401   5.891   0.210   8.666  0.2245  0.9658  0.5989
  522MOL0     C70402   5.973   0.319   8.675  0.0194  0.9428  0.3103
  522MOL0     H70403   5.854   0.952   8.750 -1.7446 -0.7662 -0.6406
  522MOL0     H70404   5.973   1.142   8.651 -2.2164  1.2419 -2.9190
  522MOL0     H70405   6.311   1.258   8.401  1.3812  0.0854 -2.2139
  522MOL0     H70406   6.316   1.073   8.381  2.8314  1.3949  2.4153
  522MOL0     H70407   6.152   1.093   8.218 -1.5002  0.9783  0.5536
  522MOL0     H70408   6.104   1.261   8.262 -1.6958 -1.4082 -0.5529
  522MOL0     H70409   6.353   1.323   8.191 -0.5418  1.1901 -3.0845
  522MOL0     H70410   6.360   1.158   8.143 -0.8950 -0.7756  0.4994
  522MOL0     H70411   6.349   1.308   7.935 -1.0667  0.3645 -2.0731
  522MOL0     H70412   6.210   1.201   7.957  2.0699 -1.7360  1.4271
  522MOL0     H70413   6.091   1.409   8.053 -1.0809 -2.9958 -0.3098
  522MOL0     H70414   6.255   1.488   8.030  1.6307  0.8371 -3.8567
  522MOL0     H70415   6.209   1.443   7.764 -2.0526  2.0516 -3.1487
  522MOL0     H70416   6.048   1.392   7.826 -0.0317  1.7092 -0.4338
  522MOL0     H70417   6.029   1.623   7.740 -0.4685  2.5567  0.2608
  522MOL0     H70418   6.036   1.623   7.922  4.6241  1.2354  1.6432
  522MOL0     H70419   6.284   1.637   7.889 -2.3765 -1.8347  0.9123
  522MOL0     H70420   6.190   1.789   7.858  1.4707  1.0122 -0.0149
  522MOL0     H70421   6.119   1.775   7.563 -0.7784 -0.9745  1.0557
  522MOL0     H70422   6.333   1.664   7.278 -0.3887 -1.4733  0.9421
  522MOL0     H70423   6.179   1.735   7.328 -0.2378 -0.0065 -4.5168
  522MOL0     H70424   6.446   1.868   7.275 -0.3727 -3.2444 -1.7292
  522MOL0     H70425   6.350   1.945   7.390 -1.4949  0.3015  0.3350
  522MOL0     H70426   6.304   2.043   7.169  2.4853  0.1706  2.4739
  522MOL0     H70427   6.158   1.949   7.210  0.5475  0.4465  0.9954
  522MOL0     H70428   6.240   1.935   6.976  0.9602 -0.9557 -1.3929
  522MOL0     H70429   6.215   1.782   7.058  0.6082 -0.5013 -3.9857
  522MOL0     H70430   6.671   1.766   7.001 -3.7901 -1.0481 -1.6683
  522MOL0     H70431   6.877   1.793   6.915 -2.8477  0.5925 -0.4659
  522MOL0     H70432   6.920   1.917   6.801  0.0003  0.7178  0.2389
  522MOL0     H70433   6.955   1.945   6.967  2.2789 -2.9506 -0.4163
  522MOL0     H70434   6.931   2.469   6.958  0.8730  1.5130  0.9390
  522MOL0     H70435   7.104   2.625   6.873 -0.8060 -0.2573  2.3998
  522MOL0     H70436   7.503   2.530   6.828  1.8767 -2.2145 -1.2377
  522MOL0     H70437   7.486   2.463   6.665  0.3773 -0.1700  0.6944
  522MOL0     H70438   7.637   2.638   6.629 -1.1784 -2.0356 -1.0836
  522MOL0     H70439   7.483   2.710   6.585 -1.7846 -3.7675 -0.6332
  522MOL0     H70440   7.636   2.739   6.861 -0.2682  0.2954  1.7651
  522MOL0     H70441   7.484   2.818   6.815  1.1754  1.1996 -0.1644
  522MOL0     H70442   7.745   2.863   6.690  0.5349  2.2470 -1.0901
  522MOL0     H70443   7.596   2.908   6.609  0.1536 -0.3903 -0.1802
  522MOL0     H70444   7.656   3.000   6.892  0.7043  1.9472  0.2514
  522MOL0     H70445   7.533   3.057   6.781  0.1068  2.6525 -2.7373
  522MOL0     H70446   7.837   3.103   6.735  0.4656  2.4463 -0.5518
  522MOL0     H70447   7.714   3.138   6.618  0.3122  2.6038  0.6302
  522MOL0     H70448   7.740   3.247   6.898 -1.8451  1.6170  0.2045
  522MOL0     H70449   7.592   3.276   6.797 -0.7866 -2.5813 -2.6352
  522MOL0     H70450   7.872   3.329   6.702  1.1680  2.8127  1.0916
  522MOL0     H70451   7.816   3.441   6.804 -2.2815  1.8403 -0.6995
  522MOL0     H70452   7.329   2.325   6.705  0.4682  2.8344 -2.4578
  522MOL0     H70453   7.141   2.145   6.785 -2.8789  0.5064 -2.1635
  522MOL0     H70454   6.550   2.229   6.876  2.2737  0.0655 -1.6025
  522MOL0     H70455   6.380   2.083   6.960 -0.2012 -1.8431  0.6118
  522MOL0     H70456   6.187   0.886   8.386  2.3005 -1.3722  1.9872
  522MOL0     H70457   6.054   0.697   8.470 -0.8307 -1.2289  1.7038
  522MOL0     H70458   5.713   0.543   8.690  2.4513  1.3765  0.4928
  522MOL0     H70459   5.583   0.339   8.738  0.3382  1.7175  0.9316
  522MOL0     H70460   5.476   0.101   8.735 -4.0991  2.4908 -2.5273
  522MOL0     H70461   5.510   0.192   8.590 -0.8518  0.1184  0.0217
  522MOL0     H70462   5.400  -0.030   8.523 -0.6386  0.1855  1.5180
  522MOL0     H70463   5.542  -0.119   8.578  1.6401  0.6010  1.3103
  522MOL0     H70464   5.516   0.098   8.371 -1.2022 -0.7449 -1.2654
  522MOL0     H70465   5.522  -0.079   8.338 -0.7553 -0.4754  0.7419
  522MOL0     H70466   5.760  -0.083   8.413  0.3779  1.3050  2.1007
  522MOL0     H70467   5.767   0.087   8.435  0.8174  0.7167 -0.5647
  522MOL0     H70468   5.831   0.046   8.025  0.3398  1.7320  1.2452
  522MOL0     H70469   5.941   0.114   8.654  0.5733  0.8682  2.6300
  522MOL0     H70470   6.080   0.306   8.663 -0.4503 -1.9595 -2.2077
  523MOL0     O70471   8.672  10.501   8.385  0.7882  0.0851  0.4616
  523MOL0     C70472   8.603  10.398   8.393 -0.1548 -0.8270 -0.4913
  523MOL0     O70473   8.469  10.394   8.420  0.0640 -0.2742  0.5669
  523MOL0     C70474   8.404  10.513   8.431  0.1559 -0.1413  0.4056
  523MOL0     C70475   8.359  10.549   8.554 -0.4166 -0.4864 -0.2571
  523MOL0     C70476   8.296  10.674   8.564  0.3970 -0.6412  0.6838
  523MOL0     C70477   8.268  10.752   8.450  0.0317  0.1590 -0.5054
  523MOL0     O70478   8.189  10.858   8.453  0.4468 -0.1458 -0.0071
  523MOL0     C70479   8.045  10.832   8.454 -0.5255 -1.2724 -0.2245
  523MOL0     C70480   7.965  10.953   8.520  0.1495 -0.3206 -0.3818
  523MOL0     C70481   7.927  10.933   8.673  0.1444  0.7290 -0.1342
  523MOL0     C70482   8.034  10.897   8.767  0.4745 -0.0441  0.7459
  523MOL0     C70483   7.980  10.891   8.911 -0.3501  0.5619  0.0709
  523MOL0     C70484   7.922  11.016   8.964 -0.6234  0.0924  0.8647
  523MOL0     C70485   7.906  11.005   9.111  0.3757  0.0625 -0.5174
  523MOL0     C70486   7.894  11.138   9.181 -0.3225  0.1494 -0.6365
  523MOL0     N70487   7.767  11.216   9.159  0.0199 -0.0954 -0.5980
  523MOL0     C70488   7.764  11.345   9.131 -0.1715 -1.3348 -0.3095
  523MOL0     C70489   7.638  11.388   9.164 -0.3193 -0.7068  0.7873
  523MOL0     C70490   7.584  11.532   9.184  0.0447 -0.2829 -0.6096
  523MOL0     C70491   7.577  11.601   9.045  0.3963  0.2997 -0.3578
  523MOL0     C70492   7.513  11.738   9.061 -0.3824  0.3582 -0.8786
  523MOL0     C70493   7.363  11.750   9.073 -0.2955  0.4494 -0.5486
  523MOL0     O70494   7.324  11.735   8.937 -0.2819  0.2723 -0.4399
  523MOL0     C70495   7.190  11.742   8.903 -0.0035  0.1188  0.2099
  523MOL0     C70496   7.087  11.752   8.995 -0.1519 -0.6903 -0.1454
  523MOL0     C70497   6.954  11.752   8.952  0.6091  1.4335 -0.3646
  523MOL0     C70498   6.852  11.781   9.060  0.9420 -0.4219  0.1597
  523MOL0     C70499   6.921  11.744   8.812 -0.4359  0.1541  0.5875
  523MOL0     C70500   6.789  11.723   8.756  0.7821 -0.2931 -1.4051
  523MOL0     O70501   6.699  11.662   8.842 -0.3481  0.4814  0.5273
  523MOL0     C70502   6.593  11.589   8.809 -0.1678 -0.3722  0.4124
  523MOL0     C70503   6.567  11.547   8.671  0.3462 -0.4137  0.0315
  523MOL0     C70504   6.467  11.453   8.637  0.4839 -0.4394  0.2344
  523MOL0     C70505   6.384  11.397   8.734 -0.1691 -0.1947 -0.4355
  523MOL0     O70506   6.297  11.298   8.696  0.5233  0.5365  0.2330
  523MOL0     C70507   6.173  11.295   8.772 -0.2185 -1.0216 -0.2353
  523MOL0     C70508   6.060  11.199   8.723 -0.0548 -0.1507  0.5342
  523MOL0     C70509   6.078  11.057   8.759  0.1896  0.1789  1.0452
  523MOL0     C70510   5.976  10.964   8.691 -0.2326  0.1481  0.3662
  523MOL0     C70511   6.006  10.933   8.541 -0.3013 -0.2125  0.5849
  523MOL0     C70512   6.136  10.852   8.503 -0.5230 -0.2393  0.1577
  523MOL0     C70513   6.156  10.732   8.597 -0.1781  0.6095 -0.8160
  523MOL0     C70514   6.233  10.620   8.530  0.2032 -0.9013 -1.1134
  523MOL0    Cl70515   6.264  10.505   8.658  0.2333 -0.5011  0.0528
  523MOL0     C70516   6.407  11.435   8.870  0.1246  1.0508  0.0516
  523MOL0     C70517   6.508  11.531   8.902  1.0390 -0.0673 -0.2078
  523MOL0     O70518   6.767  11.758   8.637 -0.3448  0.5630 -0.4420
  523MOL0     C70519   7.027  11.724   8.724 -0.3232 -0.0187  0.9071
  523MOL0     C70520   7.155  11.724   8.767  0.4064 -0.7846 -0.3575
  523MOL0     N70521   7.567  11.274   9.204 -0.3475 -0.3009  0.3997
  523MOL0     N70522   7.648  11.169   9.201  0.2720  0.1277  0.6086
  523MOL0     C70523   8.314  10.709   8.323 -0.0658  0.8267 -0.9759
  523MOL0     C70524   8.386  10.582   8.313  0.0894  0.0490  0.0180
  523MOL0     C70525   8.667  10.263   8.370 -0.1328 -0.4602 -0.2177
  523MOL0     C70526   8.802  10.247   8.345  0.1675 -0.2926 -0.3377
  523MOL0     C70527   8.859  10.123   8.333 -0.4012 -0.9012  0.8685
  523MOL0     C70528   8.779   9.998   8.345 -1.5195  0.6042  0.1572
  523MOL0     O70529   8.823   9.871   8.325  0.5589  0.3449 -0.2091
  523MOL0     C70530   8.964   9.865   8.297 -0.5866 -0.7818  0.0575
  523MOL0     C70531   9.001   9.722   8.264 -0.0391  1.1440  0.0185
  523MOL0     C70532   9.149   9.697   8.244 -1.6166 -0.6096  0.1656
  523MOL0     C70533   9.183   9.556   8.233 -0.0107  0.1336 -0.2623
  523MOL0     C70534   9.321   9.538   8.194 -0.6588  0.9160 -0.5883
  523MOL0     C70535   9.435   9.512   8.165 -1.0000  0.5533  0.1804
  523MOL0     C70536   8.648  10.016   8.361 -0.9982  0.3217 -0.2160
  523MOL0     C70537   8.593  10.144   8.379 -0.2541 -0.0066 -0.6341
  523MOL0     H70538   8.391  10.505   8.647 -0.0361 -0.4262 -0.3548
  523MOL0     H70539   8.274  10.716   8.661 -1.4895  2.2740 -0.8629
  523MOL0     H70540   8.021  10.828   8.347  0.3583  2.7580 -0.7382
  523MOL0     H70541   8.031  10.735   8.502 -1.4560  0.3327  3.0506
  523MOL0     H70542   8.019  11.048   8.518 -1.1237  0.6237  2.8959
  523MOL0     H70543   7.882  10.973   8.453  0.3881  1.0954 -0.2788
  523MOL0     H70544   7.898  11.034   8.701  1.8508  0.4556  3.2361
  523MOL0     H70545   7.847  10.860   8.686  0.8180  0.0593  0.3571
  523MOL0     H70546   8.064  10.795   8.740  0.3847  0.3692 -1.0343
  523MOL0     H70547   8.117  10.965   8.746  0.1564  0.1579  0.1069
  523MOL0     H70548   7.901  10.815   8.919 -0.0370  0.1345 -0.7327
  523MOL0     H70549   8.059  10.853   8.976 -2.2822  1.0539  2.8845
  523MOL0     H70550   7.985  11.104   8.945 -0.5393  0.0835  1.1002
  523MOL0     H70551   7.822  11.027   8.920 -0.5614 -1.1352  0.3816
  523MOL0     H70552   7.814  10.956   9.142  1.4667  0.3056  3.6138
  523MOL0     H70553   7.986  10.946   9.156  0.2815  0.6689  0.4538
  523MOL0     H70554   7.979  11.205   9.162  0.0858 -0.4852 -1.0783
  523MOL0     H70555   7.895  11.102   9.284  3.9149 -0.0422 -0.5783
  523MOL0     H70556   7.841  11.402   9.080 -0.4193  0.1200  0.8982
  523MOL0     H70557   7.488  11.534   9.236 -0.8734  1.0600 -2.2686
  523MOL0     H70558   7.649  11.585   9.255 -1.7767  1.0799  0.1190
  523MOL0     H70559   7.524  11.544   8.968  1.6264  0.5042 -1.3850
  523MOL0     H70560   7.677  11.615   9.004  2.5704 -1.9053  3.5242
  523MOL0     H70561   7.546  11.800   8.977  1.3127  3.3355  1.7632
  523MOL0     H70562   7.562  11.784   9.147 -0.7254 -2.9706  1.2885
  523MOL0     H70563   7.338  11.850   9.110 -0.1792  0.4400 -0.4471
  523MOL0     H70564   7.329  11.673   9.142  0.8282  1.2012  0.8870
  523MOL0     H70565   7.117  11.754   9.100  0.9531 -1.2054 -0.4431
  523MOL0     H70566   6.903  11.817   9.149  0.9707  1.1819 -0.4833
  523MOL0     H70567   6.783  11.859   9.026  0.5620 -1.5726 -1.8968
  523MOL0     H70568   6.795  11.696   9.099 -1.6266  0.0268 -2.2322
  523MOL0     H70569   6.609  11.599   8.586 -1.9424  0.3445 -0.7110
  523MOL0     H70570   6.447  11.430   8.533 -2.0387 -1.8814  0.9739
  523MOL0     H70571   6.190  11.273   8.877  1.2092  3.7234  0.7956
  523MOL0     H70572   6.141  11.400   8.779 -0.1486 -1.0393  0.3812
  523MOL0     H70573   5.966  11.233   8.769 -0.2142 -2.8827  2.4242
  523MOL0     H70574   6.035  11.199   8.616 -1.5697 -1.9037  0.8380
  523MOL0     H70575   6.074  11.050   8.868  0.7847 -0.0295  1.0564
  523MOL0     H70576   6.175  11.017   8.728 -1.7361 -2.4104 -2.3673
  523MOL0     H70577   5.957  10.875   8.752 -1.4966  0.9941  1.2496
  523MOL0     H70578   5.879  11.014   8.683  0.8406  2.4622  1.1237
  523MOL0     H70579   6.005  11.016   8.470  0.8389 -2.5107 -2.3314
  523MOL0     H70580   5.925  10.872   8.497  0.7972 -0.4522 -1.2353
  523MOL0     H70581   6.132  10.812   8.402 -3.2901 -4.9383  1.7431
  523MOL0     H70582   6.224  10.916   8.511  0.5535 -1.8136  1.6826
  523MOL0     H70583   6.057  10.694   8.622  0.1896  0.9793  1.3739
  523MOL0     H70584   6.207  10.766   8.687  0.8611  2.0734 -1.9037
  523MOL0     H70585   6.322  10.656   8.477  0.8313 -2.0359 -0.8790
  523MOL0     H70586   6.172  10.567   8.456  0.4183 -2.3354 -0.3044
  523MOL0     H70587   6.356  11.392   8.955  2.0843 -0.3552  0.5642
  523MOL0     H70588   6.520  11.564   9.005  4.9745 -0.0402 -0.5476
  523MOL0     H70589   7.005  11.686   8.625 -4.5064 -1.5095  2.1505
  523MOL0     H70590   7.242  11.710   8.704  2.2798 -0.3256  1.9554
  523MOL0     H70591   8.276  10.769   8.242  0.1012  0.9894 -0.9330
  523MOL0     H70592   8.424  10.552   8.216  0.2266 -0.6010  0.2742
  523MOL0     H70593   8.866  10.335   8.346  0.8872 -0.7900  1.3338
  523MOL0     H70594   8.965  10.122   8.309 -1.1516 -0.6013 -3.1312
  523MOL0     H70595   9.000   9.919   8.210 -0.5873  0.4647  0.8033
  523MOL0     H70596   9.014   9.900   8.388  2.2329  0.5918 -1.8891
  523MOL0     H70597   8.938   9.697   8.178  0.1731 -0.5612  0.3120
  523MOL0     H70598   8.965   9.649   8.338 -1.8116  2.6828  0.7346
  523MOL0     H70599   9.197   9.738   8.333 -2.2195  2.1091 -0.6738
  523MOL0     H70600   9.192   9.754   8.161 -0.2340  0.5691  1.6108
  523MOL0     H70601   9.122   9.519   8.150  1.9376 -0.3298 -1.5383
  523MOL0     H70602   9.157   9.513   8.330 -0.4472  2.2069  0.6054
  523MOL0     H70603   9.533   9.482   8.132 -0.1952  0.1554  2.7413
  523MOL0     H70604   8.593   9.924   8.380  2.2668 -1.5345  1.1586
  523MOL0     H70605   8.493  10.145   8.423  0.4123  4.2745  1.2459
  524MOL0     O70606   8.187   3.122   8.199  0.2986  0.1860  0.2041
  524MOL0     C70607   8.193   3.046   8.099  0.0724  0.1161 -0.4731
  524MOL0     O70608   8.084   2.998   8.027  0.1103  0.3803 -1.3361
  524MOL0     C70609   7.957   3.044   8.061 -0.1554  0.4576 -0.2665
  524MOL0     C70610   7.865   2.955   8.124 -0.6932  0.8076  0.0126
  524MOL0     C70611   7.736   2.995   8.167  0.0453 -0.5719  0.6521
  524MOL0     C70612   7.702   3.125   8.144 -0.1021 -1.0288 -0.4950
  524MOL0     O70613   7.580   3.159   8.182 -0.8223  0.0408 -0.0644
  524MOL0     C70614   7.555   3.277   8.246  0.9190 -0.2887 -0.3841
  524MOL0     C70615   7.432   3.258   8.328 -0.8195 -0.8989 -0.6737
  524MOL0     C70616   7.300   3.200   8.270  0.1848  0.4389  0.2668
  524MOL0     C70617   7.187   3.219   8.361  0.6242 -0.4868  0.0673
  524MOL0     C70618   7.066   3.151   8.317  0.6012  0.0767  0.0468
  524MOL0     C70619   6.982   3.254   8.229 -0.4473 -0.6195  0.9525
  524MOL0     C70620   6.858   3.177   8.189 -0.3813 -0.6921  0.6564
  524MOL0     C70621   6.770   3.275   8.107  0.2863 -0.0517  0.5548
  524MOL0     N70622   6.675   3.357   8.190  0.5583  0.1590  1.0136
  524MOL0     C70623   6.555   3.307   8.236 -0.0258  1.0423 -0.2435
  524MOL0     C70624   6.487   3.412   8.277  0.2267  0.2748  0.1563
  524MOL0     C70625   6.344   3.425   8.335 -0.9236 -0.1058  0.1178
  524MOL0     C70626   6.328   3.562   8.422 -0.2433  0.7223 -0.6335
  524MOL0     C70627   6.224   3.530   8.531 -0.1368  1.6306  0.3083
  524MOL0     C70628   6.193   3.651   8.610 -0.1089 -0.6934 -0.7887
  524MOL0     O70629   6.083   3.622   8.705  0.5522 -0.5511  0.5365
  524MOL0     C70630   6.068   3.705   8.811 -0.5698 -0.4133 -0.1647
  524MOL0     C70631   6.179   3.721   8.900 -0.7026 -0.0753  0.4979
  524MOL0     C70632   6.173   3.821   8.999  0.4447 -0.2084  1.5885
  524MOL0     C70633   6.299   3.858   9.072 -0.2284  0.2400 -0.0456
  524MOL0     C70634   6.057   3.899   9.013  0.2789 -0.6992  0.2904
  524MOL0     C70635   6.039   4.010   9.115  0.5403  0.5785  0.0030
  524MOL0     O70636   6.122   4.014   9.222 -0.6333 -0.4690 -0.2794
  524MOL0     C70637   6.107   4.126   9.305 -1.4116  0.7039 -0.3342
  524MOL0     C70638   5.994   4.166   9.365  0.4484 -0.1008 -0.0690
  524MOL0     C70639   5.995   4.280   9.445 -0.3586  0.2689  0.7776
  524MOL0     C70640   6.108   4.357   9.474  0.5218  0.1002 -0.1633
  524MOL0     O70641   6.093   4.482   9.539 -0.2601 -0.2963 -0.0891
  524MOL0     C70642   6.193   4.584   9.500 -0.5037  0.8926  0.1736
  524MOL0     C70643   6.179   4.720   9.573  1.2922  0.4582 -0.0048
  524MOL0     C70644   6.029   4.752   9.572 -0.4784  0.0029 -0.6973
  524MOL0     C70645   5.996   4.890   9.640 -0.0845  1.2976  0.1520
  524MOL0     C70646   5.842   4.912   9.625 -0.2559  0.0606 -0.0310
  524MOL0     C70647   5.808   5.059   9.660  0.3971 -0.3307  0.3504
  524MOL0     C70648   5.846   5.099   9.804 -0.1767  0.5418 -0.0199
  524MOL0     C70649   5.922   5.229   9.812  0.2063 -0.6614 -0.0348
  524MOL0    Cl70650   5.930   5.288   9.972 -0.4528  0.0176  0.4263
  524MOL0     C70651   6.226   4.300   9.421 -1.3168 -0.0905 -0.3227
  524MOL0     C70652   6.225   4.192   9.339 -0.0824  0.9065 -0.0146
  524MOL0     O70653   5.946   4.088   9.100 -0.5003 -0.1397 -0.2386
  524MOL0     C70654   5.951   3.881   8.917  0.5108 -0.5494  0.4281
  524MOL0     C70655   5.963   3.788   8.813 -0.4593 -0.8451 -0.4996
  524MOL0     N70656   6.566   3.527   8.252  0.1600 -0.1825 -0.3594
  524MOL0     N70657   6.672   3.491   8.185  1.4537 -0.9571 -0.8358
  524MOL0     C70658   7.790   3.217   8.081  0.5126  0.5463 -0.4248
  524MOL0     C70659   7.922   3.178   8.049 -0.8806 -0.2228 -0.1021
  524MOL0     C70660   8.323   3.010   8.069 -0.0092 -0.4306  0.1948
  524MOL0     C70661   8.446   3.029   8.148  0.8322 -0.1022 -0.4809
  524MOL0     C70662   8.572   3.001   8.091  0.4264 -1.0779  0.3364
  524MOL0     C70663   8.587   2.947   7.967 -0.4012 -0.4984  0.1766
  524MOL0     O70664   8.713   2.945   7.909  0.0154 -0.0755 -0.0618
  524MOL0     C70665   8.825   2.999   7.981 -0.1138 -0.8510 -0.4582
  524MOL0     C70666   8.940   3.032   7.885 -0.1518 -0.1120  0.4121
  524MOL0     C70667   9.085   3.047   7.953  0.5532 -0.6397  0.6240
  524MOL0     C70668   9.196   3.108   7.863  0.1486 -0.2225  0.9960
  524MOL0     C70669   9.324   3.112   7.930  0.5718 -0.2193 -1.0818
  524MOL0     C70670   9.441   3.132   7.960 -0.3635 -0.0072 -0.2780
  524MOL0     C70671   8.473   2.919   7.896 -0.1441 -0.6190  0.4313
  524MOL0     C70672   8.347   2.960   7.937 -0.0158 -0.0061  0.4336
  524MOL0     H70673   7.901   2.853   8.137  1.2397  1.7198  2.5243
  524MOL0     H70674   7.677   2.925   8.225 -1.2079  2.3371  3.1818
  524MOL0     H70675   7.639   3.300   8.312  0.7674 -1.0333  0.0838
  524MOL0     H70676   7.542   3.364   8.181 -0.3677  1.8440  2.4676
  524MOL0     H70677   7.467   3.192   8.407 -1.0050 -0.0534  0.1421
  524MOL0     H70678   7.408   3.352   8.379 -1.0459 -0.7014 -1.1405
  524MOL0     H70679   7.273   3.250   8.176 -0.0581 -0.8395 -0.3657
  524MOL0     H70680   7.313   3.096   8.239 -2.3633  0.6082 -1.7644
  524MOL0     H70681   7.224   3.173   8.453 -0.6846  2.1980  2.0717
  524MOL0     H70682   7.156   3.323   8.375 -3.3534 -1.2824 -1.4421
  524MOL0     H70683   7.094   3.062   8.260  1.1993  2.1337 -3.1425
  524MOL0     H70684   7.006   3.117   8.402  0.1073 -3.5269 -1.5257
  524MOL0     H70685   6.959   3.350   8.277  1.4554  1.1655 -1.4264
  524MOL0     H70686   7.041   3.267   8.138  1.5574 -2.5555  1.8861
  524MOL0     H70687   6.884   3.086   8.134  0.1657 -1.8620  2.7318
  524MOL0     H70688   6.803   3.136   8.275 -0.3931  1.3841  1.6902
  524MOL0     H70689   6.717   3.226   8.024  2.4305  3.7533 -3.4823
  524MOL0     H70690   6.838   3.336   8.048  0.5077 -2.1828 -1.5865
  524MOL0     H70691   6.532   3.201   8.245  1.0450  0.7995 -0.2690
  524MOL0     H70692   6.268   3.428   8.257 -1.8170  2.2481  0.9915
  524MOL0     H70693   6.331   3.333   8.392  3.0848 -1.8059 -1.3201
  524MOL0     H70694   6.303   3.645   8.355  1.5884  2.2310  0.4265
  524MOL0     H70695   6.423   3.584   8.472 -0.5907 -0.0936  0.4221
  524MOL0     H70696   6.263   3.451   8.597  0.2688  0.6214 -1.0807
  524MOL0     H70697   6.128   3.504   8.486  0.3236 -1.4628  0.8618
  524MOL0     H70698   6.158   3.734   8.549  2.0562 -0.7373 -2.1770
  524MOL0     H70699   6.287   3.677   8.659  0.6535  0.4251 -2.7374
  524MOL0     H70700   6.277   3.677   8.887  0.0884  1.9559 -0.9696
  524MOL0     H70701   6.321   3.963   9.049  0.2953  0.1036 -0.1770
  524MOL0     H70702   6.286   3.828   9.176  0.4264 -1.2336 -0.3731
  524MOL0     H70703   6.380   3.800   9.026 -0.9522 -0.3107 -0.6413
  524MOL0     H70704   5.893   4.132   9.345  0.2870 -1.2915  2.4285
  524MOL0     H70705   5.902   4.320   9.486  0.7428  1.8290  1.8589
  524MOL0     H70706   6.291   4.541   9.523 -0.8383 -2.5901 -3.6588
  524MOL0     H70707   6.193   4.612   9.394  0.2513  0.6317  0.0987
  524MOL0     H70708   6.210   4.719   9.678  2.2153 -0.1248 -0.2734
  524MOL0     H70709   6.240   4.793   9.520  0.3309  1.9387  0.8617
  524MOL0     H70710   5.960   4.675   9.606 -1.4718  1.5851  1.0205
  524MOL0     H70711   6.008   4.768   9.466 -1.3784 -1.9131 -0.8432
  524MOL0     H70712   6.030   4.876   9.743  2.4861  3.3570 -0.3123
  524MOL0     H70713   6.054   4.966   9.587 -1.4682  0.9792 -1.9516
  524MOL0     H70714   5.796   4.838   9.691  0.4285 -0.2388  0.1183
  524MOL0     H70715   5.794   4.898   9.527  0.8272  1.4084 -0.7965
  524MOL0     H70716   5.856   5.128   9.590 -0.8694  0.2612  0.0220
  524MOL0     H70717   5.700   5.062   9.643  0.5162  1.2497 -0.2452
  524MOL0     H70718   5.901   5.015   9.848 -2.4968 -0.9944  0.1056
  524MOL0     H70719   5.753   5.096   9.862  0.8326 -0.2843  1.6389
  524MOL0     H70720   5.876   5.307   9.751 -1.2440 -1.5156 -0.0709
  524MOL0     H70721   6.019   5.201   9.770  0.7543  1.4489 -0.3363
  524MOL0     H70722   6.320   4.353   9.419 -1.5928  0.3947 -1.2175
  524MOL0     H70723   6.317   4.156   9.293 -0.9195  0.0640 -1.0621
  524MOL0     H70724   5.868   3.951   8.922 -1.5304 -2.9417  3.2263
  524MOL0     H70725   5.887   3.769   8.738 -1.4895 -3.3582  1.0478
  524MOL0     H70726   7.755   3.318   8.061 -0.5198  0.6636  1.6868
  524MOL0     H70727   7.991   3.240   7.993 -2.1187  2.2141  0.9137
  524MOL0     H70728   8.431   3.064   8.249 -1.3307 -1.5411 -0.2330
  524MOL0     H70729   8.643   3.022   8.170  1.1804  1.8906 -1.0153
  524MOL0     H70730   8.809   3.081   8.051 -0.3862  1.8503 -3.4721
  524MOL0     H70731   8.859   2.920   8.050  0.8026 -0.0600  0.0199
  524MOL0     H70732   8.916   3.126   7.835  1.2871 -0.5316 -1.1501
  524MOL0     H70733   8.953   2.958   7.805  1.4874 -2.2177  2.4839
  524MOL0     H70734   9.120   2.952   7.994 -1.8449 -2.1255 -0.5327
  524MOL0     H70735   9.073   3.118   8.035 -0.8783 -3.6118  3.1806
  524MOL0     H70736   9.167   3.210   7.838 -1.8229 -1.2505 -1.3679
  524MOL0     H70737   9.220   3.046   7.776 -0.4095  1.7429 -0.6452
  524MOL0     H70738   9.536   3.162   8.000 -1.5372 -0.3055  3.0840
  524MOL0     H70739   8.483   2.895   7.790 -1.2675 -1.6286  0.5381
  524MOL0     H70740   8.276   2.944   7.857 -1.8328 -2.3578  2.3698
  525MOL0     O70741   3.355   6.360   1.990 -0.5943  0.0680 -2.0664
  525MOL0     C70742   3.293   6.424   2.081 -0.2591 -0.8541  0.1608
  525MOL0     O70743   3.169   6.470   2.068 -0.5421  0.1519  0.2994
  525MOL0     C70744   3.085   6.458   1.962 -0.7682  0.6190  0.3933
  525MOL0     C70745   2.959   6.389   1.977 -0.0821  0.2199 -1.1679
  525MOL0     C70746   2.887   6.363   1.858  0.2150  0.1255  0.3689
  525MOL0     C70747   2.947   6.388   1.731  0.0896 -1.4938 -0.8926
  525MOL0     O70748   2.879   6.353   1.614  0.1079  0.3704  0.2554
  525MOL0     C70749   2.942   6.317   1.499  0.1213 -0.0304 -0.2834
  525MOL0     C70750   2.846   6.243   1.404 -0.1233 -0.1937  0.8894
  525MOL0     C70751   2.725   6.326   1.365  0.0821  0.0721 -0.0434
  525MOL0     C70752   2.619   6.235   1.298 -1.0891  0.5478 -0.2429
  525MOL0     C70753   2.503   6.326   1.260 -0.5567 -0.1750  0.0503
  525MOL0     C70754   2.394   6.248   1.183  0.1671  0.3744 -0.3459
  525MOL0     C70755   2.284   6.339   1.132 -0.3355 -0.5722 -0.1774
  525MOL0     C70756   2.193   6.268   1.030  0.3659  0.3207  0.4014
  525MOL0     N70757   2.056   6.326   1.011 -0.4571 -0.1189 -0.2957
  525MOL0     C70758   2.037   6.445   0.938  0.1712  0.0758  0.4147
  525MOL0     C70759   1.908   6.473   0.949 -0.5454  0.3150  0.8374
  525MOL0     C70760   1.851   6.599   0.904  0.0707 -0.0221  0.0682
  525MOL0     C70761   1.849   6.619   0.745 -0.4669  0.8983 -0.4366
  525MOL0     C70762   1.756   6.734   0.702  0.6773 -0.6313 -1.2006
  525MOL0     C70763   1.725   6.745   0.559  0.1533 -0.4323 -0.4168
  525MOL0     O70764   1.640   6.863   0.562  0.5759  0.0787 -0.4303
  525MOL0     C70765   1.502   6.842   0.523 -0.5130  0.7091 -0.1210
  525MOL0     C70766   1.467   6.757   0.411 -0.9038 -0.7913  0.0918
  525MOL0     C70767   1.332   6.737   0.372 -0.7316 -0.7560  0.0506
  525MOL0     C70768   1.316   6.642   0.252 -0.8409  0.9238  0.3853
  525MOL0     C70769   1.225   6.800   0.435  0.0183  0.1339 -0.1464
  525MOL0     C70770   1.077   6.781   0.396 -0.6893 -0.4918  1.3542
  525MOL0     O70771   0.991   6.823   0.485 -0.0269  0.4356 -0.2044
  525MOL0     C70772   0.861   6.804   0.450 -0.4788 -0.3347  0.3262
  525MOL0     C70773   0.785   6.915   0.422  0.8666 -0.0971 -0.4839
  525MOL0     C70774   0.654   6.906   0.381  0.2095 -0.3567  0.1417
  525MOL0     C70775   0.591   6.782   0.368 -0.7526 -0.6667 -0.5396
  525MOL0     O70776   0.459   6.753   0.348 -0.2757 -0.1599  0.6493
  525MOL0     C70777   0.370   6.850   0.276  0.4385 -1.2812  0.6365
  525MOL0     C70778   0.230   6.792   0.290 -0.4457 -0.4633  0.6222
  525MOL0     C70779   0.140   6.900   0.342  0.1681  0.3641  0.1975
  525MOL0     C70780   0.005   6.830   0.347  0.6970  0.1296 -0.7413
  525MOL0     C70781  -0.101   6.940   0.394  0.6085  0.0962  0.1976
  525MOL0     C70782  -0.239   6.870   0.423 -0.2838  0.9007 -0.3900
  525MOL0     C70783  -0.337   6.980   0.466 -0.1522 -0.3973  0.0400
  525MOL0     C70784  -0.478   6.910   0.493 -0.0393  0.1552  0.3965
  525MOL0    Cl70785  -0.568   7.031   0.582 -0.0551  0.7645 -0.0882
  525MOL0     C70786   0.670   6.668   0.383  0.2845  0.1235 -0.1003
  525MOL0     C70787   0.805   6.684   0.430 -0.5558  0.0032 -0.9751
  525MOL0     O70788   1.049   6.761   0.275 -0.1027  0.0916 -0.4639
  525MOL0     C70789   1.264   6.884   0.548  0.0827  0.0877  0.0740
  525MOL0     C70790   1.391   6.897   0.593  0.8064  0.0428  1.0564
  525MOL0     N70791   1.852   6.377   1.028  0.4426 -1.2296 -0.1277
  525MOL0     N70792   1.942   6.281   1.070  1.2297 -0.1940  0.5870
  525MOL0     C70793   3.062   6.449   1.725  0.0085 -0.2621  0.3626
  525MOL0     C70794   3.138   6.481   1.832 -0.2721 -0.2879  0.2844
  525MOL0     C70795   3.371   6.443   2.205  0.1904  0.2694 -0.8777
  525MOL0     C70796   3.510   6.449   2.210 -0.7339  0.1504  0.3856
  525MOL0     C70797   3.572   6.483   2.332 -0.8628  0.0970 -0.6407
  525MOL0     C70798   3.501   6.496   2.455 -0.3609 -0.1326 -0.4033
  525MOL0     O70799   3.565   6.525   2.575  0.0307 -0.2171 -0.4095
  525MOL0     C70800   3.687   6.445   2.605 -0.5030 -0.5259  0.2737
  525MOL0     C70801   3.715   6.447   2.756  0.9329 -0.4424  0.1962
  525MOL0     C70802   3.850   6.382   2.807  0.6048 -0.4503  0.0635
  525MOL0     C70803   3.971   6.437   2.731 -0.5847 -0.2100 -0.0529
  525MOL0     C70804   4.086   6.457   2.827 -0.4201  0.6182  0.8595
  525MOL0     C70805   4.176   6.488   2.900 -0.5383 -0.7080 -0.0672
  525MOL0     C70806   3.367   6.490   2.451 -1.8696  0.1425  0.4268
  525MOL0     C70807   3.301   6.469   2.331  0.7138 -0.2418 -0.4029
  525MOL0     H70808   2.926   6.362   2.076  0.7376 -0.2960 -1.0232
  525MOL0     H70809   2.794   6.307   1.865  1.2211 -1.5310  1.0560
  525MOL0     H70810   3.000   6.400   1.458 -2.0479  2.3711  1.2092
  525MOL0     H70811   3.029   6.255   1.525  2.5794  1.4893 -3.9494
  525MOL0     H70812   2.898   6.203   1.317 -1.8752  2.0160 -1.3339
  525MOL0     H70813   2.799   6.159   1.456  0.0827  0.3481  2.0004
  525MOL0     H70814   2.675   6.373   1.451 -0.3883  2.1145 -1.3628
  525MOL0     H70815   2.753   6.398   1.288  0.3964 -2.4203 -2.3908
  525MOL0     H70816   2.655   6.192   1.204 -1.4941  2.6610 -1.4379
  525MOL0     H70817   2.578   6.147   1.349 -2.6946  0.3710 -1.7155
  525MOL0     H70818   2.454   6.383   1.339  1.1150  1.1678  0.1718
  525MOL0     H70819   2.543   6.410   1.203 -1.4364  0.6409  0.6020
  525MOL0     H70820   2.437   6.206   1.091  1.0223 -1.8524  0.9885
  525MOL0     H70821   2.351   6.165   1.240  2.6746 -0.1900  0.8424
  525MOL0     H70822   2.217   6.381   1.208  0.5583 -1.9347  1.4137
  525MOL0     H70823   2.336   6.419   1.080  0.5283 -1.7436 -1.1638
  525MOL0     H70824   2.178   6.165   1.065 -0.0693  0.2459 -0.0067
  525MOL0     H70825   2.227   6.273   0.926 -0.0574 -1.4800  0.1488
  525MOL0     H70826   2.121   6.494   0.890 -0.1534  1.5796  1.3091
  525MOL0     H70827   1.749   6.603   0.944 -0.9335  0.7977 -2.3715
  525MOL0     H70828   1.912   6.677   0.950 -1.3878  2.5043 -2.0487
  525MOL0     H70829   1.817   6.521   0.709  3.8851 -0.3195 -1.6585
  525MOL0     H70830   1.954   6.622   0.715  0.1143 -2.3552  0.9143
  525MOL0     H70831   1.791   6.829   0.745  0.0150 -1.8897  2.4936
  525MOL0     H70832   1.658   6.716   0.746  0.8870 -1.2462 -0.9787
  525MOL0     H70833   1.691   6.655   0.506  0.0378  0.0367 -1.1472
  525MOL0     H70834   1.815   6.773   0.504  1.0100  0.2178  1.2698
  525MOL0     H70835   1.548   6.710   0.356 -2.3739 -1.2931 -1.7265
  525MOL0     H70836   1.288   6.697   0.162 -2.1492  1.9519  1.3991
  525MOL0     H70837   1.406   6.585   0.227  0.2800  3.1230 -0.8809
  525MOL0     H70838   1.233   6.572   0.266  0.3500 -0.7213 -0.3596
  525MOL0     H70839   0.828   7.011   0.447  1.2004 -0.1602 -0.7961
  525MOL0     H70840   0.608   7.004   0.370  0.0587 -0.3899  0.4748
  525MOL0     H70841   0.365   6.949   0.321 -0.6548 -1.6668  1.4107
  525MOL0     H70842   0.394   6.867   0.170  0.2090 -2.3307  0.4039
  525MOL0     H70843   0.198   6.763   0.190  0.5288 -2.0956  0.7424
  525MOL0     H70844   0.231   6.711   0.365 -1.5199 -1.8149 -0.7689
  525MOL0     H70845   0.137   6.989   0.279 -3.2349  0.4425  0.3024
  525MOL0     H70846   0.159   6.941   0.442  0.7246 -0.0176  0.2584
  525MOL0     H70847  -0.030   6.806   0.246  0.9948  3.4774 -1.7682
  525MOL0     H70848   0.004   6.743   0.413  0.5289 -0.1740 -1.1353
  525MOL0     H70849  -0.112   7.017   0.317 -0.7498  0.0145  0.2942
  525MOL0     H70850  -0.077   6.990   0.489 -0.3873  2.2209 -0.6008
  525MOL0     H70851  -0.263   6.808   0.336 -0.1863 -1.3043  1.0863
  525MOL0     H70852  -0.228   6.803   0.508  0.3942 -1.9006 -2.5377
  525MOL0     H70853  -0.355   7.056   0.390  0.7354  2.5931  2.5908
  525MOL0     H70854  -0.299   7.023   0.559  1.5517  0.3626 -0.9532
  525MOL0     H70855  -0.486   6.818   0.553  2.7626  0.4565  1.3975
  525MOL0     H70856  -0.524   6.891   0.396  2.8857  0.5430 -1.1637
  525MOL0     H70857   0.639   6.567   0.362  2.7953 -1.0205  1.2662
  525MOL0     H70858   0.871   6.602   0.458 -4.3225 -1.7701  4.3695
  525MOL0     H70859   1.185   6.938   0.600 -0.5770 -0.7008 -0.0735
  525MOL0     H70860   1.399   6.969   0.674 -1.1204  1.6681 -0.1013
  525MOL0     H70861   3.104   6.467   1.627  2.1175 -0.6017  1.1680
  525MOL0     H70862   3.233   6.533   1.823  1.0236 -2.4673  0.5652
  525MOL0     H70863   3.567   6.437   2.119 -0.9692 -2.3372  0.4989
  525MOL0     H70864   3.680   6.489   2.342 -0.9539 -0.8296  1.4665
  525MOL0     H70865   3.683   6.348   2.556 -1.3696  0.8099 -2.5285
  525MOL0     H70866   3.777   6.495   2.566 -0.3441 -0.4254  0.7647
  525MOL0     H70867   3.635   6.392   2.806  1.6817 -1.0165  0.7969
  525MOL0     H70868   3.715   6.551   2.787  0.1392 -0.3951  0.0560
  525MOL0     H70869   3.841   6.273   2.807 -3.8499 -0.3166 -2.1539
  525MOL0     H70870   3.862   6.407   2.913 -1.8844  0.1455  0.2754
  525MOL0     H70871   3.958   6.534   2.682 -2.0641 -0.9294 -1.1381
  525MOL0     H70872   3.993   6.375   2.644  1.8972  0.3251  0.1086
  525MOL0     H70873   4.265   6.503   2.957 -0.7594 -0.6310  0.2610
  525MOL0     H70874   3.319   6.507   2.547  1.8016  1.4073  2.2402
  525MOL0     H70875   3.192   6.472   2.334  0.6530  0.0284  4.3974
  526MOL0     O70876   8.266   7.517   1.607  0.0058 -0.7719  0.2576
  526MOL0     C70877   8.203   7.570   1.512 -0.4256  0.1538  1.0930
  526MOL0     O70878   8.090   7.513   1.443 -0.1042  0.1422  0.2677
  526MOL0     C70879   8.058   7.384   1.481 -0.8887  0.7505  0.1362
  526MOL0     C70880   7.928   7.353   1.525 -0.1379  0.3570 -1.6098
  526MOL0     C70881   7.897   7.226   1.568 -0.1634  0.2253  0.5611
  526MOL0     C70882   7.995   7.123   1.572 -0.2886  0.2711 -0.4255
  526MOL0     O70883   7.974   6.999   1.633  0.3252  0.4673 -0.6397
  526MOL0     C70884   7.864   6.990   1.725  0.5366 -0.6446 -0.3812
  526MOL0     C70885   7.873   6.868   1.817  1.2925  0.5809 -0.6929
  526MOL0     C70886   7.739   6.843   1.902 -0.8686  0.3285 -0.8374
  526MOL0     C70887   7.613   6.845   1.802  0.1396 -0.5810  0.4750
  526MOL0     C70888   7.517   6.738   1.826  0.2816  0.3453 -0.0172
  526MOL0     C70889   7.446   6.747   1.959  0.5784 -0.6090  0.1289
  526MOL0     C70890   7.348   6.640   1.978 -0.1672 -0.0197  0.4414
  526MOL0     C70891   7.216   6.679   1.912  0.1488 -0.1868 -0.4472
  526MOL0     N70892   7.102   6.619   1.985  0.6982  0.4198 -0.3358
  526MOL0     C70893   7.079   6.661   2.112  0.8019  0.1672  0.6759
  526MOL0     C70894   6.954   6.618   2.136  0.4176  0.4144 -0.3860
  526MOL0     C70895   6.883   6.632   2.263  0.4188  0.1594  0.5452
  526MOL0     C70896   6.727   6.637   2.256 -0.0640 -0.2152  0.2844
  526MOL0     C70897   6.651   6.508   2.224 -0.8191 -0.6163  0.9491
  526MOL0     C70898   6.504   6.516   2.267 -1.4424  0.1718  0.0744
  526MOL0     O70899   6.445   6.636   2.218  0.6238  0.6732  0.7426
  526MOL0     C70900   6.308   6.670   2.233  0.2614  0.0996 -1.3376
  526MOL0     C70901   6.216   6.582   2.289  0.4228 -0.0566 -0.2221
  526MOL0     C70902   6.078   6.617   2.293 -0.1493 -0.6736 -0.0473
  526MOL0     C70903   5.964   6.528   2.350 -0.1561  0.2982  0.2402
  526MOL0     C70904   6.042   6.747   2.253 -0.1174 -0.2553 -0.0658
  526MOL0     C70905   5.901   6.795   2.243 -0.0882 -0.0992 -0.7101
  526MOL0     O70906   5.814   6.714   2.178 -0.3045 -0.0121  0.3510
  526MOL0     C70907   5.685   6.762   2.162 -0.1772  0.9152  0.1115
  526MOL0     C70908   5.595   6.777   2.267 -0.9210  0.0448  0.5497
  526MOL0     C70909   5.466   6.826   2.246 -0.0833 -0.1940 -0.1069
  526MOL0     C70910   5.417   6.863   2.131 -0.1748 -0.5356  0.8976
  526MOL0     O70911   5.285   6.891   2.092 -0.2374 -0.0881 -0.3513
  526MOL0     C70912   5.184   6.874   2.191  0.4878  0.6229  0.4512
  526MOL0     C70913   5.055   6.953   2.155  0.3733 -0.1456  0.4585
  526MOL0     C70914   4.972   7.006   2.266 -0.2538  0.0866  0.2688
  526MOL0     C70915   4.858   7.093   2.216  0.5462 -0.1195 -0.2924
  526MOL0     C70916   4.782   7.187   2.314 -0.8372 -0.6972  0.3228
  526MOL0     C70917   4.835   7.330   2.316 -0.0576 -0.2304  0.2235
  526MOL0     C70918   4.804   7.401   2.186  1.3281 -0.0589  0.0272
  526MOL0     C70919   4.822   7.556   2.184 -0.4065  0.2759 -0.7484
  526MOL0    Cl70920   4.990   7.601   2.218 -0.1840  0.6121 -0.3270
  526MOL0     C70921   5.509   6.856   2.025  0.0644 -1.1635 -0.1243
  526MOL0     C70922   5.637   6.804   2.041 -0.1093  0.9402 -0.3106
  526MOL0     O70923   5.878   6.907   2.296  0.0944 -0.2552 -0.9827
  526MOL0     C70924   6.139   6.838   2.220 -0.0617 -0.2561 -0.1846
  526MOL0     C70925   6.275   6.797   2.207  0.4621 -0.3139 -0.0389
  526MOL0     N70926   6.909   6.545   2.023 -0.0283  0.2550 -0.4134
  526MOL0     N70927   7.001   6.539   1.929 -0.6057 -0.5887 -0.1855
  526MOL0     C70928   8.119   7.148   1.509  0.4223  0.1565 -0.3650
  526MOL0     C70929   8.148   7.280   1.469  0.1556  0.5545  0.4127
  526MOL0     C70930   8.258   7.685   1.428 -0.8416 -0.6569 -0.9767
  526MOL0     C70931   8.392   7.724   1.464  1.2952 -0.6415  0.4473
  526MOL0     C70932   8.455   7.824   1.383 -0.5007 -0.2244  0.3245
  526MOL0     C70933   8.381   7.903   1.293 -1.2111  0.3369  0.9792
  526MOL0     O70934   8.427   8.007   1.217 -0.2890  0.1677 -0.8643
  526MOL0     C70935   8.555   8.061   1.254  0.4605 -0.2417  0.5194
  526MOL0     C70936   8.571   8.190   1.170 -1.0106  0.5759  0.4159
  526MOL0     C70937   8.714   8.249   1.199 -0.2581  0.3688  0.1261
  526MOL0     C70938   8.743   8.369   1.114 -0.2408 -0.0600  0.2332
  526MOL0     C70939   8.873   8.432   1.152 -0.1053 -0.5845 -0.7739
  526MOL0     C70940   8.984   8.462   1.186 -0.0177 -0.6119  0.4522
  526MOL0     C70941   8.255   7.865   1.267 -0.0614  0.3899  0.0664
  526MOL0     C70942   8.192   7.758   1.331 -0.4536 -0.6393  0.2797
  526MOL0     H70943   7.860   7.436   1.544 -0.4738 -0.0621 -0.9706
  526MOL0     H70944   7.794   7.203   1.591  0.1162 -0.1062  1.5491
  526MOL0     H70945   7.863   7.073   1.797  0.2100 -0.9251 -0.0592
  526MOL0     H70946   7.772   6.982   1.666 -0.2825 -0.3415  0.8180
  526MOL0     H70947   7.889   6.776   1.761 -2.7377 -0.8288  0.0964
  526MOL0     H70948   7.963   6.872   1.879  1.2783 -2.0934 -0.3959
  526MOL0     H70949   7.749   6.749   1.956  1.6161  2.1445  2.1584
  526MOL0     H70950   7.724   6.921   1.977  0.5813 -1.3255  1.2905
  526MOL0     H70951   7.555   6.936   1.781 -2.4250 -2.1967  0.1163
  526MOL0     H70952   7.640   6.830   1.697 -0.4448  2.2295 -0.1589
  526MOL0     H70953   7.442   6.738   1.746 -1.0448 -0.8212  1.1687
  526MOL0     H70954   7.576   6.647   1.815 -0.2809 -0.1858  1.1373
  526MOL0     H70955   7.524   6.732   2.035 -0.4953 -2.4533  0.9424
  526MOL0     H70956   7.417   6.850   1.981  4.9407  0.4774  1.9644
  526MOL0     H70957   7.374   6.540   1.943 -2.0908  0.2871 -2.1511
  526MOL0     H70958   7.345   6.631   2.087  0.7404  0.6349  0.5268
  526MOL0     H70959   7.224   6.649   1.808  0.0208 -2.4260  0.1495
  526MOL0     H70960   7.200   6.788   1.912 -3.4998 -0.5877  0.3567
  526MOL0     H70961   7.135   6.722   2.181  0.8642  0.4989  0.3382
  526MOL0     H70962   6.914   6.544   2.321  0.4480 -0.4060 -0.3179
  526MOL0     H70963   6.913   6.721   2.319  2.6516 -0.4979  0.5211
  526MOL0     H70964   6.683   6.718   2.198 -2.9864 -0.6733  1.7013
  526MOL0     H70965   6.706   6.667   2.359  1.9117 -1.9993  1.3034
  526MOL0     H70966   6.699   6.430   2.283  1.6438  0.8618  1.0296
  526MOL0     H70967   6.659   6.484   2.118 -1.7453 -4.2949  1.5694
  526MOL0     H70968   6.501   6.516   2.376 -0.1984 -0.0587  0.1233
  526MOL0     H70969   6.457   6.424   2.232  1.5000 -0.9303 -1.2904
  526MOL0     H70970   6.251   6.482   2.312  1.5735  0.1974 -0.7584
  526MOL0     H70971   5.888   6.502   2.276  2.3660  0.7850 -2.6834
  526MOL0     H70972   6.005   6.446   2.410  0.6912  1.3836  1.1927
  526MOL0     H70973   5.924   6.587   2.434  1.9937 -1.0005  2.2915
  526MOL0     H70974   5.632   6.743   2.363  0.5715 -0.4795 -0.1804
  526MOL0     H70975   5.397   6.826   2.330  1.1659  0.0916  0.9550
  526MOL0     H70976   5.169   6.765   2.192 -0.4933  0.7442 -0.0294
  526MOL0     H70977   5.224   6.912   2.286 -0.5410  0.5460  0.9295
  526MOL0     H70978   5.081   7.045   2.101 -1.5918 -1.1926 -2.4884
  526MOL0     H70979   4.993   6.885   2.098  2.9371 -1.3092 -1.1095
  526MOL0     H70980   5.036   7.054   2.341 -1.4279  0.5190  1.0318
  526MOL0     H70981   4.915   6.926   2.314 -3.5718  0.8677 -2.0286
  526MOL0     H70982   4.897   7.155   2.135 -0.6373  0.2646 -0.5885
  526MOL0     H70983   4.781   7.026   2.177  1.6136 -2.0918  0.8963
  526MOL0     H70984   4.802   7.147   2.414 -0.2288  1.5333  1.1602
  526MOL0     H70985   4.678   7.190   2.279  0.4249  0.7735 -3.8595
  526MOL0     H70986   4.786   7.387   2.395 -0.9921  2.0476 -1.8611
  526MOL0     H70987   4.942   7.320   2.337 -0.0102  1.3202  0.8343
  526MOL0     H70988   4.700   7.380   2.159  0.1590  1.7068  2.7490
  526MOL0     H70989   4.876   7.367   2.110  0.8234 -2.9499  0.7453
  526MOL0     H70990   4.745   7.614   2.237 -0.1162  0.0303 -0.0424
  526MOL0     H70991   4.822   7.577   2.077  2.5319 -2.1595 -1.3567
  526MOL0     H70992   5.474   6.886   1.926  1.0929  2.3903  0.4130
  526MOL0     H70993   5.707   6.803   1.958  0.4699 -0.3525  0.1624
  526MOL0     H70994   6.110   6.940   2.195 -1.4040 -0.6393 -0.2827
  526MOL0     H70995   6.337   6.870   2.156 -1.1914  0.3082 -1.2419
  526MOL0     H70996   8.186   7.063   1.506  0.2780  0.0686 -1.9750
  526MOL0     H70997   8.250   7.291   1.433  0.3975 -1.2002  0.4747
  526MOL0     H70998   8.453   7.681   1.542  3.5082  3.2088  1.1332
  526MOL0     H70999   8.555   7.853   1.413 -0.0784  0.5576 -1.7167
  526MOL0     H71000   8.546   8.087   1.360 -1.1375 -3.1576  1.2168
  526MOL0     H71001   8.639   7.994   1.229  2.4307  2.2470  0.0428
  526MOL0     H71002   8.499   8.260   1.212 -1.5776 -0.5790  1.4120
  526MOL0     H71003   8.554   8.182   1.062 -0.6581 -0.9286  0.4538
  526MOL0     H71004   8.790   8.172   1.180 -1.5908 -0.4652 -2.4577
  526MOL0     H71005   8.709   8.275   1.305 -0.0008  0.8843  0.0142
  526MOL0     H71006   8.671   8.445   1.147 -1.7654 -1.8009  1.0733
  526MOL0     H71007   8.723   8.352   1.008  1.4675 -3.1828  0.2868
  526MOL0     H71008   9.083   8.484   1.220  1.1734 -2.9421 -1.1862
  526MOL0     H71009   8.196   7.926   1.200 -1.5181 -0.1738  0.7993
  526MOL0     H71010   8.093   7.732   1.295 -0.4148 -0.3441 -0.0487
  527MOL0     O71011   2.900   8.754   7.736  0.2838 -0.7400 -0.0211
  527MOL0     C71012   3.007   8.785   7.787 -0.2418  0.5120  0.4915
  527MOL0     O71013   3.038   8.779   7.921  1.2562  0.1710 -0.5280
  527MOL0     C71014   2.967   8.702   8.015 -1.4373  0.1093  0.3316
  527MOL0     C71015   2.886   8.595   7.980 -0.1309  0.3991  0.2056
  527MOL0     C71016   2.804   8.532   8.069 -0.0736  0.9615  0.9991
  527MOL0     C71017   2.793   8.584   8.195 -0.1147 -0.4515  0.4786
  527MOL0     O71018   2.716   8.513   8.284 -0.1357 -0.2623 -0.6941
  527MOL0     C71019   2.725   8.554   8.425 -0.2414 -0.0297  0.3220
  527MOL0     C71020   2.626   8.467   8.511 -0.4465  0.3342 -0.6615
  527MOL0     C71021   2.487   8.479   8.450 -0.7240 -0.6233 -0.6514
  527MOL0     C71022   2.427   8.616   8.481 -0.6692 -0.0368 -0.4973
  527MOL0     C71023   2.300   8.628   8.393  0.4324 -1.1097  0.0063
  527MOL0     C71024   2.220   8.756   8.426  0.2961 -0.0241  0.7168
  527MOL0     C71025   2.098   8.768   8.343 -0.2318  0.0989  0.0899
  527MOL0     C71026   2.110   8.790   8.204  0.2739 -0.1626 -0.6970
  527MOL0     N71027   1.980   8.779   8.131 -0.6515  0.4385  0.6818
  527MOL0     C71028   1.889   8.875   8.121  1.9631 -0.4368  0.1465
  527MOL0     C71029   1.796   8.815   8.043 -0.5459 -0.1795 -0.8257
  527MOL0     C71030   1.657   8.844   7.998 -0.3607  0.0857 -0.5906
  527MOL0     C71031   1.553   8.838   8.119 -0.7348 -0.2466  0.6734
  527MOL0     C71032   1.578   8.956   8.224  0.5926  0.0396 -0.3652
  527MOL0     C71033   1.552   9.089   8.165  0.6390  1.1010  0.7798
  527MOL0     O71034   1.533   9.179   8.270  0.6716  0.3886  0.2671
  527MOL0     C71035   1.544   9.310   8.235  0.5538 -0.1252  0.2583
  527MOL0     C71036   1.517   9.355   8.102  0.2324  0.2499  0.1770
  527MOL0     C71037   1.540   9.492   8.070 -0.4623 -0.8095 -0.5757
  527MOL0     C71038   1.516   9.538   7.926 -1.0374 -0.1400 -0.2767
  527MOL0     C71039   1.573   9.581   8.168  0.2473  0.4137 -0.3330
  527MOL0     C71040   1.608   9.727   8.140  0.0691 -0.0311  0.2519
  527MOL0     O71041   1.642   9.793   8.249  0.6139  0.2555  0.0023
  527MOL0     C71042   1.735   9.891   8.225  0.8235 -0.8076  0.0383
  527MOL0     C71043   1.705  10.016   8.292 -0.4426 -0.0784 -0.4214
  527MOL0     C71044   1.803  10.124   8.287  0.4211  0.7689  0.2776
  527MOL0     C71045   1.921  10.096   8.227 -0.7729 -0.1428  0.2790
  527MOL0     O71046   2.024  10.187   8.232  0.4580 -1.1426 -0.4529
  527MOL0     C71047   2.009  10.293   8.132  0.2474 -0.4518  0.3347
  527MOL0     C71048   2.111  10.290   8.025 -0.6416 -0.0098  0.9585
  527MOL0     C71049   2.249  10.341   8.058  0.4478  1.0565  0.3189
  527MOL0     C71050   2.344  10.374   7.939 -0.0989  0.8238  0.1816
  527MOL0     C71051   2.443  10.478   7.979  0.4685 -0.5277  0.0643
  527MOL0     C71052   2.560  10.422   8.062  0.5728 -0.3825 -0.6242
  527MOL0     C71053   2.684  10.509   8.053  0.0204  0.0696  0.2726
  527MOL0     C71054   2.665  10.644   8.104  0.1238 -0.4329 -0.0745
  527MOL0    Cl71055   2.584  10.676   8.258  0.1822 -0.0542 -0.1752
  527MOL0     C71056   1.948   9.985   8.157 -0.1937  0.0442  0.4487
  527MOL0     C71057   1.860   9.887   8.163 -0.5532  0.9518  0.5370
  527MOL0     O71058   1.604   9.776   8.026  0.4340  0.3045  0.1814
  527MOL0     C71059   1.591   9.534   8.302  0.2806 -0.7359  0.1288
  527MOL0     C71060   1.584   9.397   8.335  0.3309 -0.3989  0.1831
  527MOL0     N71061   1.845   8.700   7.991 -0.2739  0.3625 -0.0426
  527MOL0     N71062   1.963   8.688   8.039 -0.9417  0.5283  0.6028
  527MOL0     C71063   2.890   8.685   8.236  0.3529 -0.3861 -0.3214
  527MOL0     C71064   2.978   8.744   8.145  0.0916  0.3304 -0.3554
  527MOL0     C71065   3.117   8.804   7.687 -0.0838  0.6137  0.0057
  527MOL0     C71066   3.246   8.810   7.720  0.3380 -0.0430 -0.1173
  527MOL0     C71067   3.356   8.829   7.626  0.0908  0.1669  0.4358
  527MOL0     C71068   3.327   8.840   7.490  0.1377  0.0021  0.3123
  527MOL0     O71069   3.421   8.874   7.395  1.0195 -0.7285  0.4425
  527MOL0     C71070   3.485   9.001   7.405  0.8187 -0.6244 -0.0016
  527MOL0     C71071   3.409   9.091   7.304  0.5643 -0.2230 -0.8598
  527MOL0     C71072   3.460   9.073   7.161  0.7443 -0.3062 -0.2076
  527MOL0     C71073   3.426   8.942   7.084 -0.2951 -0.2054  0.4374
  527MOL0     C71074   3.281   8.940   7.054  0.9106 -0.1920 -0.8592
  527MOL0     C71075   3.162   8.922   7.030  0.4474 -0.1256  1.0062
  527MOL0     C71076   3.193   8.830   7.450  0.4867 -0.4375  0.8700
  527MOL0     C71077   3.093   8.809   7.545 -0.2062 -0.1208  0.1345
  527MOL0     H71078   2.896   8.549   7.883  1.2307 -2.0707  1.4187
  527MOL0     H71079   2.770   8.432   8.043  2.8433  0.4485 -1.3537
  527MOL0     H71080   2.829   8.544   8.458  0.7335  1.0686 -2.1352
  527MOL0     H71081   2.692   8.656   8.445  0.6317 -0.3468  4.2023
  527MOL0     H71082   2.650   8.361   8.503  0.1513  0.4268 -0.2081
  527MOL0     H71083   2.623   8.493   8.618  0.2373  0.2763 -0.6213
  527MOL0     H71084   2.497   8.468   8.342  1.2927 -1.4187 -0.4374
  527MOL0     H71085   2.407   8.417   8.491 -1.8355  2.4056  2.1472
  527MOL0     H71086   2.424   8.626   8.590  0.6932  1.8686 -0.5841
  527MOL0     H71087   2.496   8.698   8.462 -2.6520  2.2046  1.3567
  527MOL0     H71088   2.334   8.627   8.289  0.2574  2.3865 -0.1976
  527MOL0     H71089   2.239   8.538   8.408  0.6298 -1.2452 -0.0010
  527MOL0     H71090   2.186   8.759   8.530 -0.5317  5.1728  0.5557
  527MOL0     H71091   2.291   8.838   8.414  0.6655 -0.2284  1.4520
  527MOL0     H71092   2.035   8.680   8.359  0.8321 -0.3353  2.1145
  527MOL0     H71093   2.051   8.853   8.393 -0.0989  1.1512 -1.4890
  527MOL0     H71094   2.183   8.719   8.163  1.4942  1.5101 -1.5328
  527MOL0     H71095   2.167   8.880   8.181  1.2388 -1.0352 -1.9032
  527MOL0     H71096   1.879   8.969   8.176 -2.5417 -0.0676 -0.9223
  527MOL0     H71097   1.652   8.944   7.953 -2.7027  0.3848  0.2221
  527MOL0     H71098   1.649   8.764   7.923  1.9926 -1.0848  0.2971
  527MOL0     H71099   1.568   8.747   8.176  1.8531 -0.3710 -0.0779
  527MOL0     H71100   1.446   8.844   8.097 -0.0747 -0.2544 -3.3118
  527MOL0     H71101   1.679   8.952   8.266  0.6849  0.3289 -0.5561
  527MOL0     H71102   1.520   8.933   8.314  0.6249 -0.5960 -0.5042
  527MOL0     H71103   1.467   9.093   8.096  0.9394  0.5065  0.3692
  527MOL0     H71104   1.640   9.110   8.103 -0.3850  1.4474 -0.6200
  527MOL0     H71105   1.490   9.284   8.024  0.5694  0.1001  0.1932
  527MOL0     H71106   1.434   9.611   7.928 -0.7994  0.1543 -0.8132
  527MOL0     H71107   1.611   9.571   7.882  0.5970 -4.6538 -0.6774
  527MOL0     H71108   1.496   9.448   7.868  1.4983 -0.8937 -0.0688
  527MOL0     H71109   1.606  10.027   8.335  0.6611  1.9992  1.8395
  527MOL0     H71110   1.777  10.226   8.313 -1.6400  0.7131 -1.2270
  527MOL0     H71111   1.914  10.280   8.080  0.0779  2.6354 -0.3167
  527MOL0     H71112   1.996  10.393   8.173 -2.5934 -0.4472 -0.3813
  527MOL0     H71113   2.124  10.186   7.993 -0.3070  0.6346 -1.1570
  527MOL0     H71114   2.091  10.360   7.943  0.9005  0.7094  1.1611
  527MOL0     H71115   2.299  10.266   8.120  2.1781 -0.8461 -3.1085
  527MOL0     H71116   2.234  10.433   8.116  0.1037  1.0647  0.2180
  527MOL0     H71117   2.398  10.292   7.891  0.4642  1.8647 -1.0124
  527MOL0     H71118   2.278  10.407   7.859  1.6495 -0.3104 -1.8151
  527MOL0     H71119   2.384  10.556   8.028 -0.0947  0.3413 -1.8811
  527MOL0     H71120   2.490  10.528   7.894 -2.7060  3.1030  0.1347
  527MOL0     H71121   2.542  10.410   8.169  2.1116  0.8769 -0.1915
  527MOL0     H71122   2.591  10.326   8.019  2.7819  0.6121 -1.4205
  527MOL0     H71123   2.714  10.510   7.947  0.6004  0.1204  0.4317
  527MOL0     H71124   2.767  10.468   8.112  1.3309  2.4169  0.1986
  527MOL0     H71125   2.619  10.714   8.034  1.5837  2.7132  1.9031
  527MOL0     H71126   2.768  10.677   8.119 -0.0711 -0.8056  2.5402
  527MOL0     H71127   2.041   9.978   8.100 -0.3616 -1.5438  0.3133
  527MOL0     H71128   1.890   9.790   8.122 -1.8665  1.5806 -2.1250
  527MOL0     H71129   1.634   9.594   8.382 -0.2764  0.6530 -0.5763
  527MOL0     H71130   1.618   9.365   8.433 -0.6398 -1.5437  0.1564
  527MOL0     H71131   2.907   8.707   8.341  2.6364 -2.3286 -0.1974
  527MOL0     H71132   3.032   8.832   8.177  0.3559  0.9984 -2.5069
  527MOL0     H71133   3.266   8.797   7.826 -2.3127  0.9426  0.5682
  527MOL0     H71134   3.460   8.835   7.657 -0.3387  1.6823  1.7601
  527MOL0     H71135   3.490   9.048   7.503 -0.9424 -0.6539  0.1280
  527MOL0     H71136   3.592   9.000   7.378  0.8451  0.1840  0.0370
  527MOL0     H71137   3.419   9.195   7.338  1.1122 -0.2590 -0.9010
  527MOL0     H71138   3.303   9.069   7.320  0.8660 -1.7394 -0.8275
  527MOL0     H71139   3.569   9.069   7.170  0.6418 -0.8179  1.0439
  527MOL0     H71140   3.434   9.163   7.106  1.5619  1.2810  1.8551
  527MOL0     H71141   3.454   8.853   7.141  1.2407 -0.5724 -0.8177
  527MOL0     H71142   3.475   8.952   6.986 -0.8491 -0.7272  0.0969
  527MOL0     H71143   3.060   8.903   7.006  0.7820 -0.9430  0.1921
  527MOL0     H71144   3.163   8.855   7.349 -1.2927  0.6392  1.6194
  527MOL0     H71145   2.993   8.798   7.503 -0.5571 -0.9158  1.1170
  528MOL0     O71146  10.204   9.164   2.944 -0.1170  1.0068 -0.2410
  528MOL0     C71147  10.272   9.166   3.045 -0.0450  0.9616  0.3374
  528MOL0     O71148  10.223   9.175   3.171 -0.1491 -0.2586 -0.1101
  528MOL0     C71149  10.093   9.202   3.186 -0.4117  0.1769 -0.2184
  528MOL0     C71150  10.056   9.327   3.141 -0.9663 -0.0569 -0.0840
  528MOL0     C71151   9.930   9.386   3.149 -0.4156 -0.7235  0.4558
  528MOL0     C71152   9.827   9.315   3.215 -0.2235  0.1156 -1.5218
  528MOL0     O71153   9.703   9.370   3.230  0.0897 -0.1286 -0.4445
  528MOL0     C71154   9.681   9.505   3.257  0.0746  0.0782 -0.0454
  528MOL0     C71155   9.586   9.573   3.154 -0.2504  0.3835 -0.0405
  528MOL0     C71156   9.451   9.507   3.168 -0.0509 -0.5496 -0.3152
  528MOL0     C71157   9.430   9.392   3.064  0.3871  0.0667 -0.2185
  528MOL0     C71158   9.297   9.320   3.103  0.3872  0.3504 -0.4322
  528MOL0     C71159   9.219   9.270   2.988  0.1596  0.0806  0.6073
  528MOL0     C71160   9.069   9.226   3.023  0.4980  0.0295  0.2345
  528MOL0     C71161   8.989   9.232   2.886 -1.0287  0.6007 -0.8637
  528MOL0     N71162   8.846   9.204   2.911 -0.0330 -0.0350 -0.8431
  528MOL0     C71163   8.785   9.090   2.898 -0.0060 -0.1101  0.2998
  528MOL0     C71164   8.658   9.126   2.933  0.2539 -0.0108 -0.9941
  528MOL0     C71165   8.534   9.036   2.938  0.3594  0.2759 -0.2827
  528MOL0     C71166   8.441   9.063   2.817 -0.9314  0.5298  0.7210
  528MOL0     C71167   8.380   9.211   2.812  0.5680  0.7646 -0.1851
  528MOL0     C71168   8.293   9.217   2.690  0.7875 -0.0098  0.6957
  528MOL0     O71169   8.266   9.358   2.648 -0.5567 -0.5319 -0.0240
  528MOL0     C71170   8.186   9.436   2.724  0.1477  0.5921  0.2710
  528MOL0     C71171   8.048   9.422   2.727 -0.2589  0.4575 -0.6847
  528MOL0     C71172   7.959   9.502   2.800 -0.1449  0.0957 -0.0003
  528MOL0     C71173   7.811   9.464   2.785 -0.5501 -0.1617 -0.4787
  528MOL0     C71174   8.016   9.607   2.880 -0.4133 -0.5926  0.2666
  528MOL0     C71175   7.938   9.706   2.960  1.3840 -0.1139 -0.5382
  528MOL0     O71176   7.818   9.666   3.004 -0.4615 -0.2443  0.2717
  528MOL0     C71177   7.731   9.758   3.054  0.6548  0.1576  0.3238
  528MOL0     C71178   7.597   9.766   2.998 -0.6090 -0.1081 -0.2902
  528MOL0     C71179   7.494   9.834   3.051 -0.1681 -0.2504 -0.7477
  528MOL0     C71180   7.520   9.916   3.165  0.8257  0.0661 -0.1290
  528MOL0     O71181   7.413   9.992   3.214 -0.0733 -0.1824  0.1788
  528MOL0     C71182   7.326   9.924   3.300 -0.1688  0.0187  0.1858
  528MOL0     C71183   7.227  10.030   3.361 -0.1892  0.0535  0.1237
  528MOL0     C71184   7.139  10.104   3.265 -0.5044 -0.3653 -0.1315
  528MOL0     C71185   7.065  10.220   3.336 -0.1607 -0.4946 -0.2457
  528MOL0     C71186   6.963  10.284   3.249  0.1159  0.0317 -0.3625
  528MOL0     C71187   6.921  10.410   3.323 -0.0758 -0.7906  0.0824
  528MOL0     C71188   6.807  10.474   3.251  0.5197  1.0409 -0.1451
  528MOL0     C71189   6.668  10.408   3.266  0.4455 -0.7599  0.1310
  528MOL0    Cl71190   6.541  10.521   3.216 -0.3131  0.2633 -0.2324
  528MOL0     C71191   7.646   9.921   3.226  0.6521  0.4890  0.7370
  528MOL0     C71192   7.754   9.841   3.170  0.1160  0.1477  0.3746
  528MOL0     O71193   7.988   9.821   2.991 -0.1774 -0.0292  0.6211
  528MOL0     C71194   8.157   9.620   2.881  0.0212 -0.0181  0.3102
  528MOL0     C71195   8.237   9.532   2.806 -1.4582 -0.6754 -0.3900
  528MOL0     N71196   8.646   9.258   2.961 -0.1216  0.0489  0.2750
  528MOL0     N71197   8.764   9.302   2.950 -0.0364 -0.6798  0.0432
  528MOL0     C71198   9.861   9.185   3.262 -0.8500 -0.7418 -0.3570
  528MOL0     C71199   9.995   9.132   3.250 -0.1782 -0.3334  0.2263
  528MOL0     C71200  10.415   9.173   3.046 -0.0632 -0.0879  0.2648
  528MOL0     C71201  10.492   9.109   3.151 -0.0261  0.3194  0.2301
  528MOL0     C71202  10.633   9.122   3.148 -0.7985 -0.5042  0.3947
  528MOL0     C71203  10.699   9.195   3.044  0.3382 -1.0121  0.5677
  528MOL0     O71204  10.834   9.212   3.031  0.2749  0.1804 -0.4430
  528MOL0     C71205  10.918   9.209   3.150  0.4307 -1.1503 -0.4119
  528MOL0     C71206  10.983   9.082   3.147  0.3937 -0.2061 -0.0337
  528MOL0     C71207  11.049   9.035   3.278 -0.0103 -0.1491  0.1200
  528MOL0     C71208  11.145   9.138   3.334 -0.5863 -0.2502 -0.7644
  528MOL0     C71209  11.160   9.114   3.486  0.5615  0.0696  0.8376
  528MOL0     C71210  11.174   9.109   3.608 -1.0943 -0.5887  0.0361
  528MOL0     C71211  10.617   9.246   2.937 -1.0405 -0.0261 -0.0725
  528MOL0     C71212  10.478   9.240   2.938 -0.2484 -0.5263 -0.1730
  528MOL0     H71213  10.132   9.379   3.082 -0.5354 -2.3521 -1.6960
  528MOL0     H71214   9.892   9.478   3.106 -4.5339 -1.1568  2.6826
  528MOL0     H71215   9.629   9.521   3.352  0.7448 -2.3019  0.7936
  528MOL0     H71216   9.773   9.565   3.264  0.4727 -0.2758 -1.7762
  528MOL0     H71217   9.594   9.680   3.176  1.5428  0.1726  0.5107
  528MOL0     H71218   9.625   9.551   3.054 -0.3117  0.7334 -0.1406
  528MOL0     H71219   9.427   9.468   3.268 -1.4467  3.6291  1.2080
  528MOL0     H71220   9.369   9.575   3.143 -1.1790 -1.6765  0.1547
  528MOL0     H71221   9.401   9.440   2.969 -2.4390 -2.0014 -0.5340
  528MOL0     H71222   9.514   9.323   3.066  0.6496  0.3927  0.1549
  528MOL0     H71223   9.317   9.241   3.176  0.0537  1.8766  1.4013
  528MOL0     H71224   9.238   9.390   3.163  1.1221  1.3340 -0.8440
  528MOL0     H71225   9.212   9.350   2.914  0.6355  0.1779  0.6655
  528MOL0     H71226   9.275   9.189   2.941  3.1531  1.1036  2.1411
  528MOL0     H71227   9.082   9.126   3.065  0.3367 -0.4587 -0.8283
  528MOL0     H71228   9.017   9.288   3.097 -0.5992 -0.7302  0.1394
  528MOL0     H71229   9.024   9.144   2.831 -1.6406 -1.2885  1.5840
  528MOL0     H71230   8.994   9.325   2.829 -0.0282  0.0127 -1.7807
  528MOL0     H71231   8.817   8.990   2.868 -0.2944 -0.4866  1.2081
  528MOL0     H71232   8.576   8.935   2.929  1.8045  0.7369  0.9178
  528MOL0     H71233   8.485   9.033   3.035  2.3480 -1.3287  0.7623
  528MOL0     H71234   8.359   8.990   2.808 -0.0552 -0.1953 -2.1904
  528MOL0     H71235   8.502   9.028   2.734 -1.3986 -0.3730  0.7387
  528MOL0     H71236   8.472   9.270   2.799  1.7947 -1.0683 -0.2508
  528MOL0     H71237   8.332   9.243   2.905  4.1468  0.4297  1.9776
  528MOL0     H71238   8.196   9.168   2.700  1.0396 -1.5186 -2.9527
  528MOL0     H71239   8.333   9.166   2.603  0.9676 -1.8968  1.8285
  528MOL0     H71240   8.002   9.348   2.662 -2.1745  1.3724 -0.4223
  528MOL0     H71241   7.796   9.389   2.863  2.5911 -1.4590 -0.9545
  528MOL0     H71242   7.753   9.556   2.794  0.0674  0.0568  2.1945
  528MOL0     H71243   7.791   9.408   2.693  0.3312 -0.6673 -0.3768
  528MOL0     H71244   7.573   9.704   2.911 -0.3847  0.2758 -0.6294
  528MOL0     H71245   7.393   9.836   3.010 -0.6061  2.0529  0.2626
  528MOL0     H71246   7.275   9.840   3.252  0.0630  1.4624 -2.8094
  528MOL0     H71247   7.388   9.896   3.386 -1.1425  2.1545  1.6901
  528MOL0     H71248   7.164   9.969   3.427  0.6011 -1.1754 -0.2206
  528MOL0     H71249   7.281  10.105   3.419 -2.6459 -0.6157  3.5756
  528MOL0     H71250   7.067  10.038   3.215 -0.6416 -2.0905  2.1647
  528MOL0     H71251   7.212  10.142   3.193 -0.2203 -0.9470 -0.1589
  528MOL0     H71252   7.013  10.191   3.428 -0.7490 -0.1413 -0.4633
  528MOL0     H71253   7.139  10.294   3.369 -2.0981  1.1649  0.5757
  528MOL0     H71254   6.876  10.219   3.235  0.6156 -0.3617 -1.9445
  528MOL0     H71255   7.011  10.306   3.153 -1.0905  1.1878 -0.7356
  528MOL0     H71256   6.878  10.390   3.422 -1.7204  0.7889 -0.2652
  528MOL0     H71257   6.998  10.488   3.321 -0.4368 -0.4336 -0.0108
  528MOL0     H71258   6.833  10.492   3.146  2.5750  0.6249  0.2474
  528MOL0     H71259   6.798  10.570   3.302  2.8323  0.8933  0.6764
  528MOL0     H71260   6.643  10.380   3.369  2.0544  1.1724  1.1139
  528MOL0     H71261   6.665  10.316   3.208  0.3331  0.0799 -1.2324
  528MOL0     H71262   7.659   9.981   3.315 -0.1165  3.5326 -1.0703
  528MOL0     H71263   7.848   9.844   3.222 -0.6107 -1.4504  1.8458
  528MOL0     H71264   8.211   9.690   2.944 -0.7391  1.7115 -0.9059
  528MOL0     H71265   8.343   9.557   2.806 -1.5726 -0.1589  0.3544
  528MOL0     H71266   9.788   9.121   3.310 -1.1364 -0.8278 -0.9031
  528MOL0     H71267  10.012   9.034   3.295 -3.7826 -1.7035 -1.0234
  528MOL0     H71268  10.445   9.044   3.225  1.7176 -0.8629  0.3614
  528MOL0     H71269  10.703   9.085   3.223  1.8627 -0.2851 -1.8291
  528MOL0     H71270  10.987   9.294   3.154  1.7563 -2.2420  1.0948
  528MOL0     H71271  10.859   9.218   3.241  0.7780  0.9777 -0.3298
  528MOL0     H71272  11.067   9.089   3.077 -1.0874 -2.6884 -2.2496
  528MOL0     H71273  10.925   9.001   3.102  2.4538 -1.1388 -1.1563
  528MOL0     H71274  11.101   8.941   3.256 -1.4535 -0.1112 -4.5882
  528MOL0     H71275  10.967   9.029   3.350  2.0423  0.9645  2.6913
  528MOL0     H71276  11.125   9.245   3.320  1.3658  0.4678  1.3896
  528MOL0     H71277  11.245   9.121   3.292 -1.1018 -0.0954 -2.1262
  528MOL0     H71278  11.191   9.093   3.713 -0.0696 -2.9627 -0.4130
  528MOL0     H71279  10.665   9.287   2.848 -1.5554 -0.8660 -0.7482
  528MOL0     H71280  10.415   9.273   2.856  2.2100 -0.9990 -2.3721
  529MOL0     O71281  10.819   6.773   3.335  0.4040  0.7089 -0.0189
  529MOL0     C71282  10.845   6.854   3.247  0.3243 -0.3371 -0.0959
  529MOL0     O71283  10.758   6.960   3.219 -0.0520 -0.8631  0.5719
  529MOL0     C71284  10.647   6.993   3.304 -1.1543  0.6525 -0.5826
  529MOL0     C71285  10.531   7.042   3.243 -0.2616 -0.1296  0.4268
  529MOL0     C71286  10.422   7.074   3.328  0.1949  0.1975 -0.1192
  529MOL0     C71287  10.426   7.047   3.463  0.3912  1.0692 -0.5397
  529MOL0     O71288  10.320   7.072   3.552 -0.3048 -0.4980  0.3877
  529MOL0     C71289  10.180   7.059   3.501 -0.4645  0.1979  0.0258
  529MOL0     C71290  10.141   6.917   3.479 -0.6250  0.5964  0.1991
  529MOL0     C71291   9.992   6.888   3.446  0.1472  0.3218 -0.8131
  529MOL0     C71292   9.977   6.740   3.468 -0.4165  1.6160  0.8729
  529MOL0     C71293   9.831   6.698   3.460  0.3971  0.3976 -0.7446
  529MOL0     C71294   9.795   6.555   3.498  0.1494  1.1835 -0.6102
  529MOL0     C71295   9.667   6.512   3.434  0.6454  0.4816  0.0385
  529MOL0     C71296   9.670   6.354   3.439  0.5027 -0.8738 -0.3522
  529MOL0     N71297   9.568   6.289   3.364 -0.1770 -0.6386  0.3354
  529MOL0     C71298   9.573   6.160   3.320  0.1061 -0.7370 -0.0885
  529MOL0     C71299   9.452   6.148   3.250 -0.3517 -0.3464  0.6041
  529MOL0     C71300   9.422   6.021   3.171 -0.0247  0.4729 -0.6452
  529MOL0     C71301   9.299   5.943   3.245 -0.8196 -0.6934  0.0447
  529MOL0     C71302   9.271   5.809   3.173  0.2649 -0.6566 -0.4742
  529MOL0     C71303   9.170   5.715   3.246 -0.3675 -0.1152 -0.7660
  529MOL0     O71304   9.047   5.788   3.278 -0.7139 -0.5174  0.9249
  529MOL0     C71305   8.935   5.727   3.313  0.6093 -0.3130 -0.4966
  529MOL0     C71306   8.919   5.587   3.324 -0.0517  0.3480 -0.4330
  529MOL0     C71307   8.806   5.518   3.373 -0.1720 -0.4154  0.2211
  529MOL0     C71308   8.807   5.369   3.365 -0.1507  0.0350 -0.5683
  529MOL0     C71309   8.701   5.603   3.409 -0.8458 -1.0020  0.4993
  529MOL0     C71310   8.568   5.552   3.458  0.1044 -0.4952  0.1120
  529MOL0     O71311   8.495   5.642   3.535 -0.4033  0.0548 -0.3372
  529MOL0     C71312   8.404   5.596   3.624  0.6720 -0.1798 -0.7158
  529MOL0     C71313   8.378   5.457   3.666  0.1245  0.7790  0.0691
  529MOL0     C71314   8.278   5.427   3.756  0.2020  0.1947  1.2763
  529MOL0     C71315   8.196   5.534   3.799 -0.5479  0.1202  0.4099
  529MOL0     O71316   8.086   5.494   3.870  0.6534  0.5619 -0.0713
  529MOL0     C71317   7.989   5.590   3.906  0.4158  0.2164  0.1388
  529MOL0     C71318   7.871   5.520   3.970  0.4374 -0.0292  0.6367
  529MOL0     C71319   7.760   5.622   3.982 -0.2286 -0.0567  0.4679
  529MOL0     C71320   7.648   5.555   4.071  0.3027 -0.2339  0.2670
  529MOL0     C71321   7.524   5.629   4.083 -0.1055 -0.1226  1.5701
  529MOL0     C71322   7.539   5.759   4.161  0.8403 -0.1610  0.0298
  529MOL0     C71323   7.412   5.847   4.174 -0.0365  0.2870  0.0408
  529MOL0     C71324   7.482   5.983   4.196  0.1031 -0.3111 -0.0077
  529MOL0    Cl71325   7.365   6.113   4.204 -0.6575 -0.2530 -0.2015
  529MOL0     C71326   8.230   5.669   3.762 -0.0498  1.4462  0.0334
  529MOL0     C71327   8.335   5.693   3.680  0.0858 -1.1514  0.2061
  529MOL0     O71328   8.539   5.433   3.436 -0.3728 -0.1347  0.0623
  529MOL0     C71329   8.714   5.746   3.402  0.2800  0.5141 -0.2978
  529MOL0     C71330   8.833   5.808   3.370  0.2807 -0.4797  1.0179
  529MOL0     N71331   9.382   6.266   3.256  0.6072  0.0080  0.0865
  529MOL0     N71332   9.448   6.347   3.325  0.1769  0.1612 -0.1138
  529MOL0     C71333  10.546   6.997   3.517  1.0512 -0.6100  0.4295
  529MOL0     C71334  10.653   6.974   3.437 -0.5062 -0.5898 -0.2786
  529MOL0     C71335  10.963   6.825   3.161 -0.9137 -0.0782  0.0986
  529MOL0     C71336  11.057   6.721   3.195 -0.5157 -0.4059 -0.0574
  529MOL0     C71337  11.163   6.690   3.112  0.2220  0.5105  0.4009
  529MOL0     C71338  11.177   6.764   2.999 -1.1355  0.5848  1.0637
  529MOL0     O71339  11.287   6.739   2.917  0.0835  0.6553 -0.3072
  529MOL0     C71340  11.415   6.742   2.981 -0.5564 -0.0170 -0.1793
  529MOL0     C71341  11.430   6.882   3.038  0.8470 -0.7250 -0.9320
  529MOL0     C71342  11.560   6.904   3.119 -0.1237  0.2086  0.3339
  529MOL0     C71343  11.684   6.888   3.022 -0.3995 -0.0659 -0.1573
  529MOL0     C71344  11.665   6.985   2.917  0.5845 -0.4704  0.6228
  529MOL0     C71345  11.650   7.066   2.826  0.1101 -0.0554  0.1724
  529MOL0     C71346  11.091   6.860   2.955  0.2971 -0.2647 -0.2498
  529MOL0     C71347  10.982   6.892   3.033 -0.1589 -0.4459  0.1180
  529MOL0     H71348  10.524   7.048   3.135 -0.1230 -0.4160  0.3999
  529MOL0     H71349  10.333   7.116   3.282 -0.6325 -1.6989 -0.3392
  529MOL0     H71350  10.111   7.089   3.580 -1.5264  0.4995 -0.9766
  529MOL0     H71351  10.165   7.119   3.410 -0.1416  0.0065 -0.1561
  529MOL0     H71352  10.198   6.892   3.388  0.1226 -0.4409  0.9188
  529MOL0     H71353  10.176   6.848   3.557 -0.2968 -1.4882 -1.6623
  529MOL0     H71354   9.915   6.949   3.493 -1.9235 -1.0496 -2.2622
  529MOL0     H71355   9.969   6.912   3.342  0.4534 -1.2672 -1.2760
  529MOL0     H71356  10.049   6.678   3.414 -2.1730  0.6327 -0.4493
  529MOL0     H71357  10.012   6.720   3.570 -2.4459 -1.5464  1.0848
  529MOL0     H71358   9.781   6.765   3.531  0.3981 -0.7111  0.3447
  529MOL0     H71359   9.786   6.720   3.363 -1.1410  0.2289 -0.1081
  529MOL0     H71360   9.877   6.496   3.455 -1.6436 -0.3960 -2.0149
  529MOL0     H71361   9.802   6.539   3.606  1.8512  0.4034 -0.8033
  529MOL0     H71362   9.582   6.556   3.487  0.9846  0.3351  0.7111
  529MOL0     H71363   9.671   6.552   3.332 -2.3656  2.4788  0.5756
  529MOL0     H71364   9.669   6.314   3.540 -1.1412  1.5893  0.6968
  529MOL0     H71365   9.764   6.326   3.390  0.7150 -0.2224 -0.3278
  529MOL0     H71366   9.649   6.089   3.349  2.5576  1.8078  0.1749
  529MOL0     H71367   9.387   6.040   3.069 -1.2106  0.8484 -0.1753
  529MOL0     H71368   9.514   5.962   3.163  0.5821  0.8563  2.2460
  529MOL0     H71369   9.208   6.005   3.243 -1.1813 -1.1956  0.6879
  529MOL0     H71370   9.326   5.916   3.347  2.0506  3.3638  0.5850
  529MOL0     H71371   9.364   5.752   3.164 -0.3433 -2.4597  2.9911
  529MOL0     H71372   9.229   5.839   3.076  0.8863  0.9438 -0.2700
  529MOL0     H71373   9.208   5.667   3.336  0.8309  2.8851  0.4471
  529MOL0     H71374   9.155   5.633   3.174  1.4862  0.2269 -1.5928
  529MOL0     H71375   8.998   5.522   3.287 -0.4422 -0.2994 -0.1479
  529MOL0     H71376   8.914   5.343   3.361  0.6864  1.9344  3.9000
  529MOL0     H71377   8.775   5.326   3.460  3.1892  3.3002  2.3547
  529MOL0     H71378   8.760   5.321   3.279  0.6283 -4.7900  1.3942
  529MOL0     H71379   8.444   5.376   3.637  0.1403  0.6868  0.3557
  529MOL0     H71380   8.250   5.330   3.796  0.9848  0.4788  2.5482
  529MOL0     H71381   8.030   5.667   3.972  0.0819 -1.7333  2.7880
  529MOL0     H71382   7.948   5.640   3.818  1.0432 -1.8877 -1.4091
  529MOL0     H71383   7.855   5.428   3.913  1.1260 -0.7794  1.6147
  529MOL0     H71384   7.892   5.491   4.074  0.0094  2.9305  1.6526
  529MOL0     H71385   7.721   5.634   3.881 -1.6832 -2.1398  0.7063
  529MOL0     H71386   7.794   5.718   4.022 -1.0450  0.7232 -0.6566
  529MOL0     H71387   7.629   5.453   4.036  1.7407 -1.1541  1.9727
  529MOL0     H71388   7.684   5.543   4.174  0.5129  2.7212  0.6232
  529MOL0     H71389   7.453   5.559   4.128 -0.0026 -2.0471 -1.0143
  529MOL0     H71390   7.494   5.663   3.984 -0.2274  1.0036  1.9885
  529MOL0     H71391   7.574   5.722   4.258  1.5623  0.1205 -0.1189
  529MOL0     H71392   7.618   5.820   4.116 -1.1869  2.8599  0.3158
  529MOL0     H71393   7.340   5.831   4.254 -1.6408  1.1574 -1.1721
  529MOL0     H71394   7.355   5.838   4.080 -1.0573  1.6213  0.5050
  529MOL0     H71395   7.562   6.006   4.125 -0.1970  1.7761  0.2898
  529MOL0     H71396   7.535   5.982   4.292  0.5486 -1.2665 -0.2490
  529MOL0     H71397   8.165   5.748   3.799 -1.6615 -0.0089  0.4217
  529MOL0     H71398   8.343   5.799   3.657 -0.9161 -1.2720 -0.7912
  529MOL0     H71399   8.633   5.818   3.417 -1.7833 -1.4544 -1.3522
  529MOL0     H71400   8.843   5.913   3.393  1.6056 -0.0459 -1.2351
  529MOL0     H71401  10.560   6.974   3.622 -0.9385  1.0930  1.1305
  529MOL0     H71402  10.746   6.941   3.482  0.1369 -1.2801 -2.0167
  529MOL0     H71403  11.028   6.652   3.273 -1.1425 -0.3082 -0.1993
  529MOL0     H71404  11.233   6.608   3.125 -1.4365 -0.9029  0.8395
  529MOL0     H71405  11.438   6.674   3.064  1.0085  0.0614 -0.5017
  529MOL0     H71406  11.488   6.717   2.903 -1.3760 -2.3578 -0.2507
  529MOL0     H71407  11.351   6.906   3.110 -1.5997 -0.9082 -3.3801
  529MOL0     H71408  11.415   6.961   2.964 -0.2514 -2.9253 -3.2166
  529MOL0     H71409  11.561   6.825   3.195  0.3936 -1.4830 -1.3453
  529MOL0     H71410  11.551   7.001   3.169 -0.1542 -0.3367  1.4156
  529MOL0     H71411  11.694   6.789   2.977 -3.2574 -1.0876  1.2662
  529MOL0     H71412  11.775   6.913   3.078 -1.2804 -1.6246  2.0974
  529MOL0     H71413  11.607   7.131   2.753 -2.6282 -0.2770  1.4717
  529MOL0     H71414  11.099   6.900   2.855  2.3032  1.6040  0.5484
  529MOL0     H71415  10.904   6.962   3.003  1.1030  1.2212  0.5949
  530MOL0     O71416   1.766   9.804   3.887  0.4526  0.3101 -0.7702
  530MOL0     C71417   1.857   9.864   3.946  0.0291  0.6831 -0.3435
  530MOL0     O71418   1.943   9.939   3.879 -0.5421 -0.2743 -0.2298
  530MOL0     C71419   1.971   9.928   3.745 -0.7954  0.5264  0.0199
  530MOL0     C71420   1.889   9.983   3.650 -0.1307  1.1788  0.4281
  530MOL0     C71421   1.932   9.983   3.515 -0.4400  0.3257  0.1194
  530MOL0     C71422   2.063   9.953   3.479 -0.7870  0.9139  0.8428
  530MOL0     O71423   2.100   9.983   3.352 -0.7477 -0.0412 -1.1454
  530MOL0     C71424   2.224   9.936   3.290 -0.6967 -0.4602  0.3064
  530MOL0     C71425   2.225   9.993   3.149 -1.1445  0.6039 -1.0205
  530MOL0     C71426   2.362   9.955   3.096  0.1389  0.3330  0.0386
  530MOL0     C71427   2.355   9.943   2.945 -0.7395  0.3729  1.0425
  530MOL0     C71428   2.497   9.908   2.887  0.1239 -0.2861 -0.5609
  530MOL0     C71429   2.506   9.944   2.738 -0.1292  0.0844 -0.1059
  530MOL0     C71430   2.646   9.908   2.672 -0.1356  0.0141 -0.1544
  530MOL0     C71431   2.762  10.002   2.710 -0.0968 -1.1641  0.1496
  530MOL0     N71432   2.878   9.999   2.620 -0.4269  0.8119 -0.9158
  530MOL0     C71433   2.927   9.886   2.569 -0.4164 -0.5842  0.6646
  530MOL0     C71434   3.052   9.921   2.517  0.6669  0.4781  0.6332
  530MOL0     C71435   3.151   9.848   2.435 -0.2603  0.0444  0.2585
  530MOL0     C71436   3.083   9.751   2.334  0.4712 -1.9324 -0.7078
  530MOL0     C71437   3.199   9.679   2.261 -0.1611 -0.1889 -0.1902
  530MOL0     C71438   3.146   9.564   2.177 -0.1388  0.2481  0.2269
  530MOL0     O71439   3.248   9.473   2.129  0.3576  0.2057 -0.2141
  530MOL0     C71440   3.295   9.508   2.008 -0.0364  0.6968 -0.0601
  530MOL0     C71441   3.239   9.452   1.892  0.3827  0.5073  0.1918
  530MOL0     C71442   3.290   9.462   1.766  0.3921  0.8515 -1.1035
  530MOL0     C71443   3.213   9.388   1.654  1.0758  0.6602 -0.1808
  530MOL0     C71444   3.404   9.540   1.751  0.7688 -1.1355  0.8743
  530MOL0     C71445   3.450   9.594   1.616  0.0392 -0.6584  0.2947
  530MOL0     O71446   3.393   9.702   1.557 -0.3103  0.3603  0.0435
  530MOL0     C71447   3.431   9.720   1.425 -0.4116  0.7712  0.8970
  530MOL0     C71448   3.570   9.739   1.385 -0.1843 -0.6601  0.4008
  530MOL0     C71449   3.604   9.743   1.257 -0.1394 -0.9899  0.2199
  530MOL0     C71450   3.509   9.730   1.157  0.3467 -0.7349  0.7973
  530MOL0     O71451   3.545   9.730   1.025 -0.1807 -0.6041  0.0483
  530MOL0     C71452   3.660   9.638   0.999 -0.6385  0.0098 -0.7951
  530MOL0     C71453   3.635   9.600   0.847  1.2586  0.0744  0.0364
  530MOL0     C71454   3.768   9.572   0.778 -0.1399 -1.1306  0.4432
  530MOL0     C71455   3.870   9.486   0.866 -0.3764 -0.3360 -0.4476
  530MOL0     C71456   4.004   9.462   0.806 -0.6424 -0.2940 -0.1545
  530MOL0     C71457   4.075   9.343   0.868  0.2866  0.5026  0.2339
  530MOL0     C71458   4.215   9.334   0.816  0.0023  0.0212 -0.4118
  530MOL0     C71459   4.284   9.210   0.879  0.1514  0.8539  0.3176
  530MOL0    Cl71460   4.466   9.229   0.858  0.1259 -0.2771  0.1567
  530MOL0     C71461   3.374   9.722   1.189  0.4899  0.0284  0.8290
  530MOL0     C71462   3.334   9.714   1.323  0.5511 -0.0069  1.1623
  530MOL0     O71463   3.560   9.544   1.577  0.7238  0.2306 -0.3522
  530MOL0     C71464   3.469   9.585   1.863 -0.0963  0.2987  0.0338
  530MOL0     C71465   3.417   9.571   1.992  0.0667 -0.1077 -0.3759
  530MOL0     N71466   3.068  10.060   2.552  0.6111 -0.3679  0.7319
  530MOL0     N71467   2.963  10.105   2.604 -0.4658 -0.0055 -0.2982
  530MOL0     C71468   2.143   9.898   3.572 -0.7338 -0.1820  0.4571
  530MOL0     C71469   2.100   9.878   3.704  0.4148 -0.2426 -0.3087
  530MOL0     C71470   1.865   9.848   4.090  0.2182  0.5021  0.0344
  530MOL0     C71471   1.751   9.781   4.159 -0.5984  0.0738 -0.2314
  530MOL0     C71472   1.749   9.782   4.299 -0.3475 -0.0226 -1.0153
  530MOL0     C71473   1.852   9.851   4.373  1.0053  1.2253  0.7238
  530MOL0     O71474   1.853   9.821   4.509 -0.1091 -0.1707  0.5701
  530MOL0     C71475   1.934   9.896   4.595 -0.6303 -0.5258 -0.0268
  530MOL0     C71476   1.889   9.872   4.744 -0.7004 -0.3235  0.0772
  530MOL0     C71477   1.743   9.921   4.760  0.2627  0.1063 -0.5095
  530MOL0     C71478   1.662   9.886   4.887 -0.0779  1.4778  0.3226
  530MOL0     C71479   1.532   9.955   4.882  0.6716 -0.2076 -0.4933
  530MOL0     C71480   1.434  10.022   4.864  0.3462 -0.1444 -0.1589
  530MOL0     C71481   1.957   9.903   4.304 -0.6809  0.3580 -0.7319
  530MOL0     C71482   1.959   9.909   4.169 -0.3360  0.5576 -0.1686
  530MOL0     H71483   1.793  10.017   3.689 -0.8040  0.2253 -0.3624
  530MOL0     H71484   1.870  10.028   3.438 -0.3056 -2.5700 -1.8557
  530MOL0     H71485   2.308   9.969   3.352  1.2590 -1.8543 -1.4738
  530MOL0     H71486   2.221   9.827   3.281 -1.9686 -0.2976 -2.1035
  530MOL0     H71487   2.151   9.939   3.089 -0.9539 -1.7725  0.7533
  530MOL0     H71488   2.203  10.098   3.168 -3.1673 -0.0601  0.7293
  530MOL0     H71489   2.430  10.030   3.139  0.9793  0.7638 -1.9394
  530MOL0     H71490   2.385   9.854   3.131 -3.0977  0.5800  3.5443
  530MOL0     H71491   2.277   9.872   2.916 -0.1221  0.2111 -0.3243
  530MOL0     H71492   2.322  10.039   2.906 -1.7167  0.5265  2.2051
  530MOL0     H71493   2.563   9.978   2.938 -4.0180  2.9382  0.9549
  530MOL0     H71494   2.536   9.807   2.905  1.8744  0.4214 -0.1395
  530MOL0     H71495   2.421   9.899   2.686  0.8267 -2.6452  0.5313
  530MOL0     H71496   2.496  10.052   2.722  1.2605 -0.2759 -4.7848
  530MOL0     H71497   2.675   9.804   2.688 -1.2836 -0.4805 -1.0802
  530MOL0     H71498   2.631   9.921   2.564  0.7345 -2.0704 -0.5742
  530MOL0     H71499   2.797   9.984   2.812  0.8970 -2.2632 -0.3595
  530MOL0     H71500   2.716  10.101   2.716  2.2040 -0.1199  2.0539
  530MOL0     H71501   2.867   9.795   2.570 -2.0855  0.4838  1.2631
  530MOL0     H71502   3.214   9.925   2.390  0.9943 -1.1545 -0.1354
  530MOL0     H71503   3.201   9.772   2.495 -2.0091 -2.1384 -0.8554
  530MOL0     H71504   3.033   9.814   2.260 -0.9286 -0.5577  1.2964
  530MOL0     H71505   3.011   9.679   2.374 -0.0525 -0.8198  0.4296
  530MOL0     H71506   3.261   9.631   2.337 -0.2531  0.1319  0.0900
  530MOL0     H71507   3.249   9.750   2.195 -0.7282  1.8502  1.4534
  530MOL0     H71508   3.082   9.607   2.100 -2.7982 -0.8279  1.6931
  530MOL0     H71509   3.085   9.512   2.253 -0.0991  1.1603  0.8991
  530MOL0     H71510   3.148   9.395   1.910 -0.0796  0.9034 -0.8252
  530MOL0     H71511   3.111   9.373   1.690  1.0627 -0.5219 -0.6622
  530MOL0     H71512   3.199   9.455   1.569 -4.7729  1.6043  1.1096
  530MOL0     H71513   3.258   9.294   1.622 -1.2761 -0.1928 -1.1877
  530MOL0     H71514   3.653   9.750   1.454  2.1402 -0.0334 -2.2752
  530MOL0     H71515   3.710   9.735   1.237 -0.6062  0.1472 -3.6926
  530MOL0     H71516   3.754   9.695   1.003 -1.9744  2.2720  0.3906
  530MOL0     H71517   3.657   9.547   1.059  2.0531  0.0686 -0.4376
  530MOL0     H71518   3.561   9.520   0.839  1.7056 -0.2568 -0.8974
  530MOL0     H71519   3.587   9.684   0.798 -0.7087 -1.3926 -0.6778
  530MOL0     H71520   3.801   9.674   0.762 -1.0040 -0.9031  0.0406
  530MOL0     H71521   3.752   9.521   0.683 -2.5770 -2.5703  1.5081
  530MOL0     H71522   3.883   9.536   0.962 -0.1001  0.6551 -0.9850
  530MOL0     H71523   3.830   9.385   0.886 -2.8685  1.0875  2.7185
  530MOL0     H71524   4.061   9.555   0.804 -0.5913 -0.3195  0.0542
  530MOL0     H71525   3.979   9.439   0.703  1.1068 -0.1809 -0.6353
  530MOL0     H71526   4.069   9.345   0.977  1.9546 -1.6907  0.4401
  530MOL0     H71527   4.027   9.251   0.835 -0.2601 -0.2110  2.8211
  530MOL0     H71528   4.270   9.418   0.860  1.4363  0.1562 -2.3274
  530MOL0     H71529   4.220   9.343   0.707  1.1453 -0.1307 -0.3875
  530MOL0     H71530   4.239   9.124   0.830  3.3729  0.9951 -3.4207
  530MOL0     H71531   4.265   9.207   0.987  1.0417  2.2608  0.5571
  530MOL0     H71532   3.305   9.708   1.107  1.1756 -1.5242  0.4752
  530MOL0     H71533   3.231   9.694   1.349  0.8878 -3.0735  0.4250
  530MOL0     H71534   3.557   9.647   1.848 -0.1959  0.5340  0.4019
  530MOL0     H71535   3.475   9.598   2.080 -1.4296 -3.5053  1.8377
  530MOL0     H71536   2.248   9.903   3.546 -0.7967  0.8500  0.3371
  530MOL0     H71537   2.172   9.844   3.777 -1.1815 -2.0157  0.5106
  530MOL0     H71538   1.675   9.721   4.110 -0.0861 -1.4004  0.7411
  530MOL0     H71539   1.659   9.743   4.346 -0.9636  3.6244  1.2060
  530MOL0     H71540   2.041   9.874   4.598 -0.1351  1.7946  1.0440
  530MOL0     H71541   1.927  10.002   4.571  4.0116 -0.1750 -0.7031
  530MOL0     H71542   1.944   9.945   4.804 -2.0789  2.5467 -1.9682
  530MOL0     H71543   1.910   9.768   4.771  1.5326  0.4780  1.7143
  530MOL0     H71544   1.685   9.875   4.679 -0.2723  1.9984 -1.2576
  530MOL0     H71545   1.737  10.029   4.749 -2.4037  0.0407 -0.4540
  530MOL0     H71546   1.718   9.906   4.979  3.5128 -0.2698 -1.2828
  530MOL0     H71547   1.632   9.781   4.874 -1.5174  1.5809  2.3842
  530MOL0     H71548   1.341  10.063   4.829  1.1328  0.9810 -1.0050
  530MOL0     H71549   2.051   9.931   4.351 -1.6012  1.0565  0.7816
  530MOL0     H71550   2.049   9.954   4.128 -0.2025  0.0990 -0.3960
  531MOL0     O71551   1.802  10.725   4.695 -0.1311 -1.0405 -0.3030
  531MOL0     C71552   1.822  10.745   4.577 -0.2450 -0.6775  0.0398
  531MOL0     O71553   1.838  10.643   4.482  0.0763 -0.7421 -0.0403
  531MOL0     C71554   1.786  10.513   4.504 -0.7978 -0.1737 -0.6799
  531MOL0     C71555   1.676  10.486   4.584  0.4586  0.6834  0.4560
  531MOL0     C71556   1.610  10.370   4.580  0.0505  0.7325  0.1370
  531MOL0     C71557   1.666  10.259   4.507  0.5995  0.4590 -1.2404
  531MOL0     O71558   1.608  10.140   4.528  0.1470 -0.1031  0.0203
  531MOL0     C71559   1.550  10.077   4.409  0.2577  0.0548  0.0987
  531MOL0     C71560   1.485   9.945   4.445  0.1932  0.4976 -0.1997
  531MOL0     C71561   1.346   9.962   4.507  0.0787 -0.5621  0.0929
  531MOL0     C71562   1.283   9.836   4.555 -0.2778 -0.1781 -0.0226
  531MOL0     C71563   1.159   9.845   4.639  0.2339  0.4631 -0.9499
  531MOL0     C71564   1.098   9.693   4.639  0.7690 -0.7518 -0.2554
  531MOL0     C71565   0.946   9.717   4.646 -0.4092  0.1562  0.1956
  531MOL0     C71566   0.910   9.780   4.777 -0.2143 -0.2598  0.1809
  531MOL0     N71567   0.765   9.774   4.785  0.1812 -0.0852 -0.1394
  531MOL0     C71568   0.690   9.673   4.840  0.3460 -0.1934  0.7728
  531MOL0     C71569   0.565   9.691   4.795  0.8592  0.0402 -0.5407
  531MOL0     C71570   0.436   9.613   4.818  0.7282  0.7696  0.3734
  531MOL0     C71571   0.302   9.682   4.855 -1.3482  0.1595 -0.5560
  531MOL0     C71572   0.197   9.574   4.899  0.3360  0.6895 -1.0857
  531MOL0     C71573   0.068   9.646   4.948 -0.5015 -0.8014  0.4846
  531MOL0     O71574  -0.011   9.724   4.849 -0.2036  0.0660 -0.1189
  531MOL0     C71575  -0.120   9.800   4.879 -0.0677 -0.2144  0.2369
  531MOL0     C71576  -0.165   9.872   4.765  0.0464  0.2781 -0.6246
  531MOL0     C71577  -0.273   9.959   4.784 -0.1266  0.2878 -0.6002
  531MOL0     C71578  -0.319  10.026   4.663 -0.0820  0.9730  0.1578
  531MOL0     C71579  -0.339   9.972   4.907  0.0639 -0.5264  0.4540
  531MOL0     C71580  -0.460  10.053   4.920  0.1096  1.0731 -0.2051
  531MOL0     O71581  -0.462  10.173   4.860  0.1832 -0.4822  0.6111
  531MOL0     C71582  -0.591  10.234   4.873 -0.4961  0.8759  0.6510
  531MOL0     C71583  -0.623  10.315   4.982  0.9221  0.2419 -0.2036
  531MOL0     C71584  -0.754  10.366   5.006  1.3809 -0.1172  0.6922
  531MOL0     C71585  -0.857  10.337   4.914  0.2470  0.6797  0.4717
  531MOL0     O71586  -0.987  10.388   4.930 -0.2348 -0.3088 -0.6058
  531MOL0     C71587  -1.032  10.418   5.058 -0.2322 -0.5250 -1.1330
  531MOL0     C71588  -1.180  10.447   5.074  0.6183 -0.1816  0.6032
  531MOL0     C71589  -1.217  10.553   4.964 -1.0275 -0.2456  0.8951
  531MOL0     C71590  -1.365  10.580   4.968  0.1895 -0.6573 -0.0460
  531MOL0     C71591  -1.406  10.674   4.857  0.0724  0.4673  0.5382
  531MOL0     C71592  -1.558  10.698   4.855  0.4572  0.0038  0.1883
  531MOL0     C71593  -1.609  10.792   4.741 -0.4915  0.4595 -0.3337
  531MOL0     C71594  -1.767  10.800   4.728 -0.8330  0.0320  1.0579
  531MOL0    Cl71595  -1.835  10.867   4.879 -0.2256 -0.2641  0.1581
  531MOL0     C71596  -0.829  10.239   4.817  0.0562 -0.2631  0.6678
  531MOL0     C71597  -0.704  10.187   4.802 -0.4750 -0.2403 -0.9812
  531MOL0     O71598  -0.537  10.009   5.004 -0.3765 -0.5163 -0.2843
  531MOL0     C71599  -0.291   9.905   5.018 -0.3397 -0.5501  0.4587
  531MOL0     C71600  -0.181   9.820   5.006 -0.6858 -0.4188  0.5831
  531MOL0     N71601   0.564   9.814   4.728  0.7772  0.1948  0.1753
  531MOL0     N71602   0.682   9.864   4.725 -1.3617 -0.2320 -0.7490
  531MOL0     C71603   1.779  10.290   4.431  0.1943  0.2488 -0.0746
  531MOL0     C71604   1.848  10.410   4.430 -0.6056  0.6037 -0.7926
  531MOL0     C71605   1.861  10.877   4.543 -0.2866 -0.6175 -0.2393
  531MOL0     C71606   1.908  10.907   4.418  0.3797  0.2265  0.3079
  531MOL0     C71607   1.932  11.043   4.384 -0.8523  0.4370  0.0283
  531MOL0     C71608   1.901  11.145   4.473  0.6355 -0.1387 -0.3313
  531MOL0     O71609   1.908  11.282   4.445  0.5941  0.5844  0.1255
  531MOL0     C71610   1.837  11.327   4.333  0.0278 -0.4870 -0.5708
  531MOL0     C71611   1.910  11.448   4.271  0.1505  0.2260  0.6531
  531MOL0     C71612   2.054  11.421   4.225 -0.4938  0.4564 -0.1623
  531MOL0     C71613   2.058  11.317   4.113 -0.4294  0.4051  0.5946
  531MOL0     C71614   2.180  11.328   4.034 -0.1327 -0.3882  0.1628
  531MOL0     C71615   2.279  11.340   3.961  0.1433  0.2503 -0.8421
  531MOL0     C71616   1.857  11.113   4.599 -0.5781 -0.5881  0.5922
  531MOL0     C71617   1.832  10.982   4.633  0.8403  0.3977  0.2286
  531MOL0     H71618   1.646  10.565   4.652  1.8463  0.4642  1.3656
  531MOL0     H71619   1.519  10.354   4.638  1.0929  1.4212  2.0634
  531MOL0     H71620   1.480  10.146   4.362 -0.7733 -2.0279 -1.5811
  531MOL0     H71621   1.635  10.052   4.345 -0.2973 -0.5456 -0.4023
  531MOL0     H71622   1.467   9.886   4.354  2.9821 -2.2406  0.8461
  531MOL0     H71623   1.554   9.885   4.504  0.2138  2.9483  2.4894
  531MOL0     H71624   1.348  10.025   4.597  1.3429 -0.4490  0.0051
  531MOL0     H71625   1.265   9.994   4.440 -1.2717 -1.5174  1.1973
  531MOL0     H71626   1.262   9.766   4.474 -0.7023 -3.4253  2.6723
  531MOL0     H71627   1.355   9.788   4.622 -2.9491  0.9449  4.0754
  531MOL0     H71628   1.176   9.874   4.743  0.6608 -3.2879  0.2039
  531MOL0     H71629   1.092   9.907   4.579  0.3128  0.4626 -1.0377
  531MOL0     H71630   1.125   9.631   4.553 -1.6768 -0.2183 -1.5049
  531MOL0     H71631   1.145   9.634   4.719 -0.0581 -2.9940 -1.3455
  531MOL0     H71632   0.930   9.785   4.562 -0.6013  0.2958  0.3460
  531MOL0     H71633   0.879   9.630   4.639 -1.2473  0.7197  0.9988
  531MOL0     H71634   0.950   9.882   4.782  0.4225 -0.3058 -2.4722
  531MOL0     H71635   0.953   9.716   4.855  0.5810  0.2958  0.2078
  531MOL0     H71636   0.722   9.584   4.894 -2.1482 -1.5673  0.1271
  531MOL0     H71637   0.415   9.562   4.723 -0.6708 -0.2087  1.1685
  531MOL0     H71638   0.455   9.535   4.893  0.4959  0.7799  0.4450
  531MOL0     H71639   0.257   9.745   4.778 -3.6891  1.2626  1.5716
  531MOL0     H71640   0.325   9.737   4.947 -0.7653 -2.7151  1.1424
  531MOL0     H71641   0.238   9.510   4.978  1.5814 -1.0880 -3.0858
  531MOL0     H71642   0.173   9.508   4.816 -1.5263 -0.1806  0.0689
  531MOL0     H71643   0.098   9.719   5.023 -0.6232  0.2148 -0.4318
  531MOL0     H71644  -0.000   9.572   4.992  1.2249 -1.7075  1.7604
  531MOL0     H71645  -0.117   9.866   4.668 -3.6598 -0.7220 -2.5819
  531MOL0     H71646  -0.259   9.993   4.579  4.0786  2.1097  2.3970
  531MOL0     H71647  -0.423  10.004   4.637  0.8785 -2.5322 -1.3395
  531MOL0     H71648  -0.309  10.135   4.672  0.2107  0.8762  1.1339
  531MOL0     H71649  -0.541  10.351   5.044 -0.0692  0.9191  0.7499
  531MOL0     H71650  -0.781  10.426   5.093 -0.1808 -0.8343  0.7165
  531MOL0     H71651  -1.001  10.342   5.131 -1.0567  0.0963 -0.1010
  531MOL0     H71652  -0.981  10.510   5.089  0.2535 -0.4225 -2.1977
  531MOL0     H71653  -1.231  10.352   5.058  2.9825 -1.2875 -1.0547
  531MOL0     H71654  -1.188  10.493   5.173  0.6282 -0.0662  0.5509
  531MOL0     H71655  -1.185  10.526   4.863 -0.3277  3.1250  0.0705
  531MOL0     H71656  -1.165  10.643   4.999  0.4220 -2.1417  3.9782
  531MOL0     H71657  -1.426  10.489   4.956  2.5590 -2.2909 -0.3509
  531MOL0     H71658  -1.386  10.625   5.066 -1.2387 -1.2382 -0.0507
  531MOL0     H71659  -1.374  10.627   4.764 -0.7927  1.3736 -0.2412
  531MOL0     H71660  -1.364  10.774   4.872  2.7091 -0.3860 -0.5802
  531MOL0     H71661  -1.611  10.603   4.840  2.6922 -0.8193 -4.2834
  531MOL0     H71662  -1.592  10.745   4.948  0.1143 -1.1600  0.6621
  531MOL0     H71663  -1.568  10.748   4.650 -1.4153 -2.9135  0.7308
  531MOL0     H71664  -1.557  10.887   4.761  0.1174  0.5560 -2.2094
  531MOL0     H71665  -1.814  10.703   4.707 -2.7101  1.0824  0.1512
  531MOL0     H71666  -1.783  10.868   4.644 -0.2170 -0.5500  0.4529
  531MOL0     H71667  -0.907  10.183   4.765 -0.3754 -0.1614  1.1963
  531MOL0     H71668  -0.690  10.108   4.728  1.2435  0.4144 -1.3938
  531MOL0     H71669  -0.337   9.921   5.115 -0.5434  0.6556  0.1727
  531MOL0     H71670  -0.155   9.758   5.091 -2.6930 -0.6907  1.0536
  531MOL0     H71671   1.812  10.204   4.373 -3.2190 -0.5280 -1.0619
  531MOL0     H71672   1.942  10.432   4.382  0.1207  1.4333  0.9308
  531MOL0     H71673   1.931  10.825   4.351 -0.9046 -0.5260  0.7560
  531MOL0     H71674   1.971  11.068   4.286  0.9633 -1.6709  0.1227
  531MOL0     H71675   1.839  11.253   4.253 -0.1300  0.7720 -1.7861
  531MOL0     H71676   1.735  11.358   4.357 -1.5523 -4.6506 -1.0771
  531MOL0     H71677   1.921  11.532   4.340  0.7476  0.5493  0.1695
  531MOL0     H71678   1.857  11.487   4.184  0.0762  3.1844  1.8972
  531MOL0     H71679   2.118  11.401   4.311 -0.9318  1.5339  0.4459
  531MOL0     H71680   2.100  11.511   4.183  0.6675  1.3413  2.7366
  531MOL0     H71681   1.966  11.335   4.056 -0.1655 -1.0821 -0.3506
  531MOL0     H71682   2.040  11.216   4.151  0.7651 -1.0054 -2.3228
  531MOL0     H71683   2.359  11.349   3.890  0.7815 -1.2533 -0.3716
  531MOL0     H71684   1.844  11.198   4.665 -3.7544 -1.0835  0.7352
  531MOL0     H71685   1.786  10.967   4.730 -0.0279 -2.2904 -0.5381
  532MOL0     O71686   1.378   0.649   2.797  0.4542 -0.2312  0.4116
  532MOL0     C71687   1.343   0.699   2.904 -0.1510  0.4238 -0.0263
  532MOL0     O71688   1.408   0.682   3.025  0.7133  0.4951  0.1336
  532MOL0     C71689   1.529   0.623   3.036 -0.4947  0.8076  0.1934
  532MOL0     C71690   1.626   0.583   2.936  0.8819  0.0387  0.9222
  532MOL0     C71691   1.755   0.549   2.970 -0.2008  0.0576 -0.5980
  532MOL0     C71692   1.800   0.545   3.101  0.0716 -0.7206  0.7277
  532MOL0     O71693   1.934   0.527   3.120 -0.4088  0.3538 -0.2931
  532MOL0     C71694   1.988   0.461   3.239  0.3087 -0.4695  0.6706
  532MOL0     C71695   2.139   0.420   3.230 -0.1228 -0.0167 -0.9770
  532MOL0     C71696   2.229   0.554   3.220  0.6716  0.2681  0.0390
  532MOL0     C71697   2.370   0.498   3.235 -0.1706 -0.5681  0.2087
  532MOL0     C71698   2.468   0.599   3.169 -0.6870 -0.9434  0.6561
  532MOL0     C71699   2.611   0.542   3.173  0.0438 -0.1656 -0.1145
  532MOL0     C71700   2.729   0.630   3.117  0.4833  0.1365 -0.9967
  532MOL0     C71701   2.867   0.588   3.179 -0.3769 -0.7786  0.3008
  532MOL0     N71702   2.974   0.646   3.086 -0.0404  0.4521  0.2011
  532MOL0     C71703   3.108   0.606   3.083  0.6527 -0.0917 -0.5339
  532MOL0     C71704   3.175   0.690   3.000 -0.1448  0.1655  0.5914
  532MOL0     C71705   3.328   0.692   2.976  0.1044  0.0336  0.5269
  532MOL0     C71706   3.388   0.823   3.010  0.4934 -0.1466 -0.7545
  532MOL0     C71707   3.402   0.918   2.889  0.4489  0.2973  0.5164
  532MOL0     C71708   3.457   1.041   2.944 -0.2699  0.4057 -0.4645
  532MOL0     O71709   3.532   1.120   2.849 -0.2012  0.2824  0.0086
  532MOL0     C71710   3.471   1.186   2.747  0.0444 -0.1272  0.7948
  532MOL0     C71711   3.333   1.208   2.726 -0.7509  0.7270 -0.5838
  532MOL0     C71712   3.294   1.260   2.606 -1.4822 -0.7043  0.7789
  532MOL0     C71713   3.158   1.224   2.567  0.2038 -0.3495  0.3995
  532MOL0     C71714   3.386   1.330   2.521  0.9262  0.5378 -0.0123
  532MOL0     C71715   3.351   1.408   2.395 -0.2979  0.4632  0.3223
  532MOL0     O71716   3.463   1.457   2.334 -0.0335  0.3335  0.0549
  532MOL0     C71717   3.449   1.510   2.205 -1.7222 -0.4061  0.0075
  532MOL0     C71718   3.402   1.635   2.176 -0.4812  0.4026  0.5109
  532MOL0     C71719   3.404   1.683   2.039 -0.4767  0.6398 -0.4132
  532MOL0     C71720   3.451   1.599   1.942  0.0825  0.9515  0.8175
  532MOL0     O71721   3.446   1.630   1.811 -0.2131 -0.3159  0.0706
  532MOL0     C71722   3.449   1.776   1.778 -0.1443 -0.7574 -0.7529
  532MOL0     C71723   3.509   1.793   1.641  0.2665  1.0145  1.5062
  532MOL0     C71724   3.425   1.732   1.524 -1.0481 -0.3307  0.6511
  532MOL0     C71725   3.492   1.752   1.386 -0.1621 -0.3449 -0.0884
  532MOL0     C71726   3.418   1.674   1.282  0.0623  0.5439 -0.6193
  532MOL0     C71727   3.457   1.705   1.134  0.6191 -0.3528 -0.0647
  532MOL0     C71728   3.408   1.586   1.046 -0.3733 -1.1105 -0.0106
  532MOL0     C71729   3.392   1.632   0.905 -0.8318  0.1425 -0.0363
  532MOL0    Cl71730   3.331   1.506   0.802  0.5329 -0.3440 -0.2883
  532MOL0     C71731   3.506   1.474   1.969 -1.0546 -0.3570  0.5131
  532MOL0     C71732   3.505   1.427   2.100  0.5244  0.5602  1.2201
  532MOL0     O71733   3.234   1.411   2.350  0.2014  0.1461 -0.9579
  532MOL0     C71734   3.522   1.336   2.559 -0.5430  0.8978  0.3524
  532MOL0     C71735   3.562   1.251   2.665  0.1346  0.2078  0.0161
  532MOL0     N71736   3.083   0.773   2.936 -1.3249 -0.0602  0.0919
  532MOL0     N71737   2.959   0.735   2.988  0.1836 -0.7602  0.4497
  532MOL0     C71738   1.707   0.569   3.195 -0.0365 -0.8741 -0.3935
  532MOL0     C71739   1.576   0.606   3.170 -0.2332  0.1663  0.1413
  532MOL0     C71740   1.220   0.779   2.899  0.3975  0.2828  0.2982
  532MOL0     C71741   1.162   0.839   2.787  0.8865 -0.0162 -0.8360
  532MOL0     C71742   1.037   0.916   2.797 -0.4328  0.1893  0.8284
  532MOL0     C71743   0.980   0.941   2.925 -0.6816 -0.2801  0.0635
  532MOL0     O71744   0.868   1.015   2.945 -0.2269 -0.1435  0.5102
  532MOL0     C71745   0.874   1.152   2.892  0.3455 -0.2968 -0.4855
  532MOL0     C71746   0.747   1.211   2.941  0.3845  0.1910  0.6430
  532MOL0     C71747   0.727   1.358   2.882  0.4399  0.6237  0.3142
  532MOL0     C71748   0.786   1.468   2.966 -0.4942 -0.3890  0.5647
  532MOL0     C71749   0.722   1.501   3.092 -0.5369 -0.2550  0.3359
  532MOL0     C71750   0.681   1.534   3.198 -0.3224 -0.5989 -0.5496
  532MOL0     C71751   1.031   0.875   3.034 -0.3928  0.3387 -0.5887
  532MOL0     C71752   1.144   0.794   3.021  0.3851 -0.1613  0.8280
  532MOL0     H71753   1.594   0.589   2.833 -1.3912 -1.6067  1.4336
  532MOL0     H71754   1.832   0.527   2.897 -0.9040 -1.5951 -0.8937
  532MOL0     H71755   1.970   0.526   3.326  1.0808 -1.5572  1.6660
  532MOL0     H71756   1.923   0.375   3.257  1.0109 -0.5199  3.3730
  532MOL0     H71757   2.166   0.371   3.324 -0.4910 -0.0419 -0.8807
  532MOL0     H71758   2.146   0.344   3.151  1.7734 -3.7126  2.3590
  532MOL0     H71759   2.212   0.596   3.121 -0.7873  2.7270  1.2316
  532MOL0     H71760   2.224   0.638   3.291  1.4407  1.4124 -1.2143
  532MOL0     H71761   2.387   0.476   3.340 -0.9473  1.1569  0.7409
  532MOL0     H71762   2.383   0.406   3.177 -1.1808  0.6839 -2.1450
  532MOL0     H71763   2.449   0.630   3.066  2.0596  0.7660  0.5664
  532MOL0     H71764   2.459   0.689   3.232 -1.5565 -1.9694  2.0625
  532MOL0     H71765   2.617   0.527   3.281 -0.8647  4.2440  0.7476
  532MOL0     H71766   2.617   0.455   3.108 -1.1933  1.7484 -3.0209
  532MOL0     H71767   2.731   0.618   3.008  0.5784  0.1587 -0.9973
  532MOL0     H71768   2.712   0.736   3.136  3.4632  0.2942  1.6791
  532MOL0     H71769   2.877   0.481   3.196  0.1634 -0.8164 -0.2445
  532MOL0     H71770   2.881   0.625   3.281  2.7286  0.9333 -0.5939
  532MOL0     H71771   3.156   0.527   3.139  0.7961  0.1891 -0.2593
  532MOL0     H71772   3.379   0.608   3.025  0.0664  1.5494  3.3897
  532MOL0     H71773   3.352   0.674   2.871  2.4775 -0.5083  1.0899
  532MOL0     H71774   3.480   0.790   3.059 -2.3806 -3.2304  3.3037
  532MOL0     H71775   3.334   0.862   3.097  1.7861 -0.7073  0.3495
  532MOL0     H71776   3.306   0.934   2.837  0.7579 -1.1779 -0.5790
  532MOL0     H71777   3.483   0.885   2.823  0.0548  0.1993  0.0691
  532MOL0     H71778   3.526   1.017   3.025  0.6989  2.7359 -0.5341
  532MOL0     H71779   3.372   1.100   2.982  0.7550  2.1965 -0.8798
  532MOL0     H71780   3.254   1.175   2.792 -0.3936  1.3810  0.1969
  532MOL0     H71781   3.112   1.323   2.556  4.1662  2.4479  5.0179
  532MOL0     H71782   3.171   1.162   2.477  0.7221  1.5529 -0.8941
  532MOL0     H71783   3.108   1.162   2.642  0.0564  1.5565  1.9338
  532MOL0     H71784   3.359   1.690   2.259 -0.2724 -2.3020  2.5346
  532MOL0     H71785   3.343   1.770   2.014 -1.8659  0.6568  2.6131
  532MOL0     H71786   3.347   1.814   1.780  1.2434  3.5528  1.2232
  532MOL0     H71787   3.500   1.844   1.847  1.2475 -0.2388 -2.2234
  532MOL0     H71788   3.535   1.898   1.627 -1.4341  1.3520  0.4997
  532MOL0     H71789   3.609   1.749   1.645  0.4714  1.5617  3.1961
  532MOL0     H71790   3.330   1.786   1.510 -0.3057  0.4926 -1.5167
  532MOL0     H71791   3.410   1.628   1.553 -0.7261  0.0277  2.2342
  532MOL0     H71792   3.486   1.857   1.354  2.6692 -0.3022 -0.7428
  532MOL0     H71793   3.601   1.746   1.387 -0.0439  1.0930 -0.9436
  532MOL0     H71794   3.309   1.689   1.284 -0.1190  0.3404 -3.6629
  532MOL0     H71795   3.438   1.570   1.309 -0.5452  0.6621  0.3313
  532MOL0     H71796   3.409   1.800   1.107  2.5696  0.6262 -0.3062
  532MOL0     H71797   3.565   1.719   1.121  1.0651 -1.9865  1.4671
  532MOL0     H71798   3.305   1.554   1.066 -0.5163  0.2343  1.5913
  532MOL0     H71799   3.472   1.500   1.066  4.5520  2.4759  1.5957
  532MOL0     H71800   3.491   1.668   0.875 -0.8583 -1.9091 -2.9813
  532MOL0     H71801   3.318   1.712   0.898 -2.0731 -0.8825  0.9664
  532MOL0     H71802   3.540   1.414   1.885 -0.8138  0.1296  0.2535
  532MOL0     H71803   3.548   1.328   2.104 -0.7060 -0.0799 -0.5129
  532MOL0     H71804   3.594   1.394   2.501 -0.5884 -0.0421 -0.6877
  532MOL0     H71805   3.668   1.256   2.689  0.0152  3.1128  0.2653
  532MOL0     H71806   1.738   0.581   3.298 -0.0962  1.8200 -0.6068
  532MOL0     H71807   1.497   0.630   3.240  0.0451  1.7670 -0.0452
  532MOL0     H71808   1.226   0.829   2.701 -0.2400 -0.3429 -1.6611
  532MOL0     H71809   0.988   0.960   2.710 -0.6136 -2.4182 -0.4908
  532MOL0     H71810   0.958   1.214   2.925 -1.0524  1.2672  0.2744
  532MOL0     H71811   0.882   1.152   2.783  0.0519 -2.1822 -0.5352
  532MOL0     H71812   0.740   1.214   3.050  1.1097  1.6823  0.6839
  532MOL0     H71813   0.662   1.155   2.901  1.2815 -0.7970  0.0525
  532MOL0     H71814   0.618   1.370   2.877  0.5650  1.4913 -2.3994
  532MOL0     H71815   0.769   1.355   2.781  3.2065 -1.5159  1.4284
  532MOL0     H71816   0.797   1.556   2.903  1.0624 -1.3534 -0.5777
  532MOL0     H71817   0.881   1.426   3.000  0.3331 -0.6540 -1.8487
  532MOL0     H71818   0.639   1.567   3.291  1.2107  1.9627 -0.6921
  532MOL0     H71819   0.976   0.887   3.126  1.6735 -1.3796  0.9601
  532MOL0     H71820   1.178   0.746   3.112  3.2813  0.3510  0.0984
  533MOL0     O71821   8.325   1.084   3.187  0.2961 -0.2288 -0.4882
  533MOL0     C71822   8.263   1.036   3.283  0.6092  0.6561  0.6979
  533MOL0     O71823   8.137   1.061   3.317 -0.0059 -0.1436 -0.3206
  533MOL0     C71824   8.048   1.155   3.264 -0.0401 -0.3506 -0.5541
  533MOL0     C71825   7.938   1.197   3.343 -0.0260 -0.1185  0.1678
  533MOL0     C71826   7.839   1.281   3.300 -0.0108  0.3239  0.1793
  533MOL0     C71827   7.847   1.327   3.171 -0.2800 -0.1167  0.6818
  533MOL0     O71828   7.762   1.431   3.145 -0.9014  0.4838 -0.0712
  533MOL0     C71829   7.806   1.541   3.053  0.1150  0.1694 -0.6872
  533MOL0     C71830   7.694   1.566   2.949  0.1368  0.3069 -0.3981
  533MOL0     C71831   7.568   1.627   3.024 -0.1779  0.5733 -0.6779
  533MOL0     C71832   7.470   1.693   2.933 -0.2918 -0.4168 -0.6014
  533MOL0     C71833   7.468   1.845   2.955  0.8692 -0.3489 -0.3449
  533MOL0     C71834   7.358   1.908   2.868 -0.1092  0.1241 -0.0089
  533MOL0     C71835   7.222   1.912   2.934  0.2983  0.1073  0.1565
  533MOL0     C71836   7.125   1.907   2.824 -0.0394  0.5285  0.0503
  533MOL0     N71837   6.991   1.925   2.865  0.0772  0.4593  0.3036
  533MOL0     C71838   6.921   2.038   2.886  0.3076 -0.1150  0.9889
  533MOL0     C71839   6.801   1.997   2.923 -0.0324 -0.0065 -0.2018
  533MOL0     C71840   6.679   2.083   2.956  0.6836 -0.3105  0.3436
  533MOL0     C71841   6.552   2.036   2.872 -1.0199  0.9051  0.0433
  533MOL0     C71842   6.420   2.060   2.953  0.3378 -0.3179 -0.4446
  533MOL0     C71843   6.299   2.084   2.854  0.0151 -0.3591  0.1291
  533MOL0     O71844   6.191   2.128   2.934 -0.3472  0.3602  0.1923
  533MOL0     C71845   6.066   2.136   2.894 -0.8079  0.0626  0.9071
  533MOL0     C71846   5.984   2.172   2.996  0.3694 -0.5029  0.2470
  533MOL0     C71847   5.851   2.185   2.973  0.3342 -0.1094  0.8077
  533MOL0     C71848   5.761   2.238   3.075  0.1056  0.9330 -0.2876
  533MOL0     C71849   5.800   2.145   2.844 -0.4148  0.4461  0.5329
  533MOL0     C71850   5.652   2.142   2.809  0.0389  0.4375  0.7725
  533MOL0     O71851   5.618   2.178   2.672 -0.6569  0.0377 -0.0170
  533MOL0     C71852   5.489   2.175   2.636 -0.3543  0.3825  0.3572
  533MOL0     C71853   5.432   2.049   2.604 -0.1041 -0.2411  0.5771
  533MOL0     C71854   5.298   2.049   2.572 -0.2383  0.7052 -0.0724
  533MOL0     C71855   5.213   2.158   2.561  0.4073 -0.2533  1.0778
  533MOL0     O71856   5.079   2.154   2.550 -0.0883 -0.7953  0.5081
  533MOL0     C71857   5.003   2.041   2.559 -0.3031  1.2277  0.2953
  533MOL0     C71858   4.860   2.092   2.519 -0.9992 -0.2629  0.2002
  533MOL0     C71859   4.753   1.986   2.505 -1.1097  0.4888  0.4270
  533MOL0     C71860   4.626   2.059   2.464 -0.7805 -0.5086  0.2366
  533MOL0     C71861   4.503   1.974   2.468  0.3247  0.2113  0.4820
  533MOL0     C71862   4.394   2.076   2.459 -0.5798  0.2184 -0.3915
  533MOL0     C71863   4.254   2.007   2.456  0.4275  0.7711  0.0355
  533MOL0     C71864   4.204   1.949   2.594  1.1014 -0.1634  0.1319
  533MOL0    Cl71865   4.274   1.803   2.629  0.0026 -0.3983  0.7222
  533MOL0     C71866   5.273   2.283   2.585  0.3973  0.1959 -0.2491
  533MOL0     C71867   5.412   2.290   2.630 -0.1394  0.1792  0.4721
  533MOL0     O71868   5.567   2.108   2.892  0.1879 -0.1643 -0.6078
  533MOL0     C71869   5.891   2.122   2.736  0.1534  0.3033  0.3352
  533MOL0     C71870   6.031   2.111   2.763  0.1329  0.1098  0.2692
  533MOL0     N71871   6.795   1.860   2.910  0.6596 -0.2227 -0.1750
  533MOL0     N71872   6.902   1.818   2.868 -0.3937  0.0592 -1.2186
  533MOL0     C71873   7.941   1.277   3.082  0.0036 -0.4297 -0.2395
  533MOL0     C71874   8.050   1.205   3.130 -0.0542 -0.2162 -0.2308
  533MOL0     C71875   8.340   0.944   3.353 -0.6020  0.3496 -0.4321
  533MOL0     C71876   8.275   0.834   3.409  0.0577 -0.3347 -0.5325
  533MOL0     C71877   8.330   0.744   3.499 -0.3840 -0.1884  0.3674
  533MOL0     C71878   8.467   0.767   3.533  0.6879 -0.4764 -0.9505
  533MOL0     O71879   8.558   0.688   3.599 -0.4601 -0.0139  0.1750
  533MOL0     C71880   8.539   0.548   3.606 -0.0544  0.8814  0.6718
  533MOL0     C71881   8.568   0.473   3.477  0.1225 -0.3427 -0.6004
  533MOL0     C71882   8.721   0.489   3.441  0.6268 -0.6980  0.4705
  533MOL0     C71883   8.785   0.398   3.336  0.3579 -0.6528  0.9685
  533MOL0     C71884   8.925   0.427   3.307  0.5723 -0.4103  0.0486
  533MOL0     C71885   9.041   0.439   3.293  0.3637 -0.7068  0.2689
  533MOL0     C71886   8.527   0.896   3.496 -0.2025  0.6239 -0.7363
  533MOL0     C71887   8.468   0.973   3.399 -0.2338  0.3422 -0.7100
  533MOL0     H71888   7.933   1.150   3.441 -0.1116  0.3239  0.3736
  533MOL0     H71889   7.751   1.307   3.358  0.7865  2.8577  0.3981
  533MOL0     H71890   7.825   1.626   3.119  0.9112 -2.3814  2.6475
  533MOL0     H71891   7.903   1.518   3.007 -0.5348  1.8670 -3.1513
  533MOL0     H71892   7.727   1.634   2.870 -0.0263  1.0123  0.1344
  533MOL0     H71893   7.668   1.471   2.901 -3.3982  1.5774 -1.2917
  533MOL0     H71894   7.517   1.550   3.084  0.7764 -1.1362 -1.9817
  533MOL0     H71895   7.613   1.699   3.093  1.0662 -0.1495 -0.7193
  533MOL0     H71896   7.493   1.666   2.829  1.3949  0.0046 -0.3558
  533MOL0     H71897   7.371   1.646   2.947 -0.4033  0.3031  1.2965
  533MOL0     H71898   7.459   1.870   3.061  0.3989  0.9461 -0.6764
  533MOL0     H71899   7.571   1.875   2.931  1.2426 -0.6500  0.8254
  533MOL0     H71900   7.382   2.014   2.859  2.8335 -0.2438  2.2042
  533MOL0     H71901   7.368   1.851   2.774  0.5032 -1.0802  0.7567
  533MOL0     H71902   7.201   1.824   2.996 -0.3037  0.4281  0.4100
  533MOL0     H71903   7.211   2.007   2.987  1.8741  1.3459 -1.5962
  533MOL0     H71904   7.136   1.809   2.776  0.5195 -0.1539  1.5077
  533MOL0     H71905   7.153   1.974   2.742  2.1049 -0.4634 -0.1078
  533MOL0     H71906   6.975   2.132   2.887  0.5994 -0.1160 -2.4439
  533MOL0     H71907   6.659   2.074   3.063 -2.0410 -0.0857 -0.0678
  533MOL0     H71908   6.691   2.191   2.943  1.2868 -0.2666  1.2010
  533MOL0     H71909   6.561   1.931   2.846 -1.2823  0.8404  0.2069
  533MOL0     H71910   6.555   2.093   2.779  1.3428  4.5058  2.0534
  533MOL0     H71911   6.431   2.146   3.019 -0.7012  0.9635 -1.8972
  533MOL0     H71912   6.395   1.976   3.018 -2.2946  1.1484  0.5801
  533MOL0     H71913   6.280   1.992   2.798 -2.0414  1.3661 -2.2761
  533MOL0     H71914   6.321   2.162   2.780 -0.0486 -1.7450 -1.4048
  533MOL0     H71915   6.021   2.182   3.098 -0.8585 -1.9412  0.8652
  533MOL0     H71916   5.811   2.265   3.168 -0.7738  1.3122  0.0833
  533MOL0     H71917   5.710   2.327   3.037 -0.3893  2.0791  2.8002
  533MOL0     H71918   5.683   2.162   3.086  2.8903 -2.1894 -0.3821
  533MOL0     H71919   5.482   1.955   2.622 -0.9904 -0.4192  2.2952
  533MOL0     H71920   5.262   1.947   2.565  1.5204  0.0860 -0.4041
  533MOL0     H71921   5.040   1.966   2.490 -0.9399  0.5251  0.7037
  533MOL0     H71922   5.009   1.994   2.658 -0.3524 -0.8992 -0.6735
  533MOL0     H71923   4.837   2.174   2.588  0.1749 -0.4363  0.8346
  533MOL0     H71924   4.883   2.145   2.426  0.8818 -1.2180  0.0810
  533MOL0     H71925   4.734   1.925   2.593  1.0893 -0.8796  0.0232
  533MOL0     H71926   4.779   1.922   2.420 -4.1667  0.0378 -0.2912
  533MOL0     H71927   4.612   2.135   2.542  0.1526 -0.0537 -0.0181
  533MOL0     H71928   4.622   2.113   2.369 -3.7331  1.4463  1.3214
  533MOL0     H71929   4.505   1.915   2.560  0.3164 -5.0516 -2.4760
  533MOL0     H71930   4.499   1.909   2.380  2.9226 -1.2771  1.3794
  533MOL0     H71931   4.403   2.141   2.546 -2.3600  1.1031 -0.8194
  533MOL0     H71932   4.410   2.133   2.367  1.0996 -2.6923 -2.0282
  533MOL0     H71933   4.239   1.927   2.382  0.8541  1.4854 -0.8361
  533MOL0     H71934   4.179   2.084   2.437 -0.4435 -0.1392 -0.2758
  533MOL0     H71935   4.096   1.933   2.586  1.0396 -0.0094  0.6534
  533MOL0     H71936   4.227   2.022   2.672  0.5192  2.1519 -1.7403
  533MOL0     H71937   5.218   2.376   2.588 -1.7078 -0.9901  2.1164
  533MOL0     H71938   5.457   2.387   2.649 -1.3305  1.1247 -1.2279
  533MOL0     H71939   5.855   2.082   2.642 -0.9307 -0.5214  1.0725
  533MOL0     H71940   6.090   2.073   2.681 -0.0419 -3.9016  1.7923
  533MOL0     H71941   7.937   1.295   2.975 -1.5807 -2.6416 -0.6057
  533MOL0     H71942   8.129   1.167   3.066 -0.8713 -0.8416 -0.8895
  533MOL0     H71943   8.171   0.809   3.391  0.2186 -1.2824 -0.2145
  533MOL0     H71944   8.268   0.663   3.535 -0.0644 -0.4522  0.3236
  533MOL0     H71945   8.612   0.500   3.672 -0.4729  1.8997  1.9015
  533MOL0     H71946   8.433   0.533   3.626 -0.7512  3.7154 -0.3466
  533MOL0     H71947   8.510   0.513   3.393 -0.3028  1.6788  0.6029
  533MOL0     H71948   8.554   0.365   3.489  1.9943 -0.5309  0.1977
  533MOL0     H71949   8.787   0.476   3.527  0.0528  1.5367  1.3086
  533MOL0     H71950   8.732   0.593   3.410 -2.5943  0.5791  3.1193
  533MOL0     H71951   8.723   0.400   3.246 -2.8746 -0.8699  3.0324
  533MOL0     H71952   8.778   0.297   3.376 -1.4180 -1.3944 -1.0455
  533MOL0     H71953   9.145   0.452   3.270  0.1842 -0.8499 -0.6718
  533MOL0     H71954   8.625   0.923   3.534  0.3269 -2.7620  0.6570
  533MOL0     H71955   8.524   1.060   3.367 -0.7123  1.1689  0.6137
  534MOL0     O71956   8.375   5.139   6.934 -0.2220  0.1142  0.2277
  534MOL0     C71957   8.394   5.134   6.815  0.2220  0.0961  0.6778
  534MOL0     O71958   8.449   5.234   6.732 -0.1589 -0.0703  0.1299
  534MOL0     C71959   8.461   5.353   6.803  0.0307 -0.0155  0.4272
  534MOL0     C71960   8.374   5.456   6.758 -0.2883  0.9084  0.1464
  534MOL0     C71961   8.370   5.581   6.813 -0.0490 -0.9042  0.8365
  534MOL0     C71962   8.445   5.606   6.921 -0.0174  0.2015 -1.0368
  534MOL0     O71963   8.424   5.721   6.984  0.2319 -0.5233 -0.2045
  534MOL0     C71964   8.515   5.775   7.080  0.3759  0.0795  0.4817
  534MOL0     C71965   8.634   5.836   6.997  0.3705  0.2160  0.1370
  534MOL0     C71966   8.739   5.891   7.086 -0.1123 -0.5362 -0.4927
  534MOL0     C71967   8.860   5.951   7.016 -0.3841  0.0808 -0.0368
  534MOL0     C71968   8.909   6.083   7.087  0.3642 -0.6781 -0.6965
  534MOL0     C71969   9.057   6.117   7.065 -0.4185 -0.7129 -0.1503
  534MOL0     C71970   9.095   6.233   7.160  0.0730 -0.0448  0.4633
  534MOL0     C71971   9.199   6.332   7.101 -0.4636  0.0210  0.8967
  534MOL0     N71972   9.159   6.448   7.020 -0.9300  0.0512  0.0363
  534MOL0     C71973   9.028   6.458   6.968 -0.8289 -0.4399 -0.5617
  534MOL0     C71974   9.012   6.586   6.945  0.0523  0.5559 -0.0333
  534MOL0     C71975   8.893   6.631   6.864 -0.2373  0.1774 -0.0683
  534MOL0     C71976   8.767   6.658   6.946  0.2144  0.7903 -0.0509
  534MOL0     C71977   8.658   6.734   6.879 -0.4230 -0.6106  0.4871
  534MOL0     C71978   8.565   6.641   6.793  0.2867  0.2199 -0.3530
  534MOL0     O71979   8.505   6.554   6.891  0.1592 -0.3257  0.0625
  534MOL0     C71980   8.379   6.572   6.930 -0.2922 -0.2900 -0.1394
  534MOL0     C71981   8.281   6.590   6.842  0.5776 -1.1419  0.0301
  534MOL0     C71982   8.150   6.606   6.882  1.0095  0.2855 -0.8297
  534MOL0     C71983   8.048   6.618   6.773  0.1618  0.3428  0.0920
  534MOL0     C71984   8.116   6.592   7.024 -0.0361  0.1554 -0.1324
  534MOL0     C71985   7.983   6.606   7.085 -0.3744 -0.6991  0.2306
  534MOL0     O71986   7.977   6.581   7.220  0.6003  0.0592 -0.2688
  534MOL0     C71987   7.873   6.632   7.301 -0.4143 -0.3201 -0.1556
  534MOL0     C71988   7.799   6.748   7.284  0.3778  0.7144 -0.4251
  534MOL0     C71989   7.682   6.777   7.349 -0.7793 -0.4646  0.4671
  534MOL0     C71990   7.632   6.685   7.439 -0.6906 -0.3382 -0.3668
  534MOL0     O71991   7.513   6.731   7.493 -0.0652 -0.4365 -0.8865
  534MOL0     C71992   7.456   6.655   7.596  0.0736  0.4684  0.5276
  534MOL0     C71993   7.508   6.691   7.737 -0.4548  0.7720 -1.2334
  534MOL0     C71994   7.461   6.584   7.846 -0.5527 -0.5153 -0.0231
  534MOL0     C71995   7.442   6.644   7.982  0.9652 -0.0570 -0.4658
  534MOL0     C71996   7.379   6.540   8.083 -0.5476  0.0197  0.6063
  534MOL0     C71997   7.425   6.389   8.073  0.9398  0.5741 -0.4505
  534MOL0     C71998   7.567   6.373   8.125 -1.2377  0.1802  0.5005
  534MOL0     C71999   7.623   6.236   8.099 -0.0378 -0.2740  0.0199
  534MOL0    Cl72000   7.800   6.250   8.133  0.2753  0.1098 -0.1229
  534MOL0     C72001   7.700   6.564   7.452  0.2228  0.1370 -0.4592
  534MOL0     C72002   7.822   6.542   7.391  0.4700 -0.9475 -0.8589
  534MOL0     O72003   7.894   6.653   7.021  0.1032  0.7044 -0.2345
  534MOL0     C72004   8.223   6.548   7.104  0.2069  0.5429 -0.1334
  534MOL0     C72005   8.351   6.545   7.064 -0.4902 -0.1699  1.3147
  534MOL0     N72006   9.115   6.660   6.995 -0.4996 -0.1402 -0.6339
  534MOL0     N72007   9.211   6.570   7.027  0.6311 -1.1745 -0.5273
  534MOL0     C72008   8.536   5.506   6.962 -0.1536  0.2807 -0.3942
  534MOL0     C72009   8.553   5.376   6.907  1.0878 -0.1932  0.6769
  534MOL0     C72010   8.351   5.011   6.747  0.6815  0.4036  1.1159
  534MOL0     C72011   8.260   4.918   6.798  0.4914  0.1045  0.2071
  534MOL0     C72012   8.241   4.792   6.738 -0.9005 -0.6955  0.7291
  534MOL0     C72013   8.314   4.751   6.626 -0.1700 -0.9300  0.4341
  534MOL0     O72014   8.314   4.616   6.596  0.4441  0.7725 -0.4957
  534MOL0     C72015   8.366   4.568   6.472  0.3620  0.9193  0.8123
  534MOL0     C72016   8.259   4.482   6.399 -0.9712  0.7338 -0.6121
  534MOL0     C72017   8.127   4.552   6.378  0.2719 -0.3928 -0.4233
  534MOL0     C72018   8.030   4.465   6.297  0.2007  0.1868  0.7679
  534MOL0     C72019   7.947   4.551   6.216  0.1978 -0.0831  0.3839
  534MOL0     C72020   7.890   4.633   6.138  0.3549  0.5726  0.4302
  534MOL0     C72021   8.400   4.850   6.574 -0.4857 -0.6052 -0.3492
  534MOL0     C72022   8.412   4.983   6.628 -0.1509  0.3507 -0.0805
  534MOL0     H72023   8.316   5.433   6.669  0.5756 -0.8433 -0.0123
  534MOL0     H72024   8.306   5.653   6.763  2.9109  0.1103 -1.8825
  534MOL0     H72025   8.455   5.848   7.135 -2.7821 -2.3381  0.5214
  534MOL0     H72026   8.549   5.707   7.160 -0.1844 -0.6768  0.0911
  534MOL0     H72027   8.667   5.752   6.934 -3.2505 -0.0197 -1.7523
  534MOL0     H72028   8.599   5.915   6.929  2.1810  1.3051  0.3999
  534MOL0     H72029   8.687   5.963   7.148  2.1618  1.3832 -0.6753
  534MOL0     H72030   8.774   5.808   7.148 -2.0983 -0.5348  0.7071
  534MOL0     H72031   8.940   5.877   7.011 -1.2044 -0.8365  0.0565
  534MOL0     H72032   8.832   5.967   6.911 -1.8474 -1.4171  0.0685
  534MOL0     H72033   8.836   6.160   7.061 -0.8192 -0.5247  2.6538
  534MOL0     H72034   8.891   6.076   7.194 -0.2697  1.1616 -0.6379
  534MOL0     H72035   9.118   6.030   7.089 -1.8631 -1.0263  2.9563
  534MOL0     H72036   9.068   6.137   6.958  0.7642  0.5863  0.1868
  534MOL0     H72037   9.008   6.292   7.192  0.0747  0.5078 -0.4859
  534MOL0     H72038   9.141   6.186   7.247  1.2448 -0.2875 -0.2593
  534MOL0     H72039   9.266   6.270   7.041 -1.1590  0.3497 -0.2633
  534MOL0     H72040   9.255   6.362   7.189 -1.1673 -2.2694  2.2160
  534MOL0     H72041   8.956   6.380   6.945 -0.4317 -1.7990  2.4620
  534MOL0     H72042   8.912   6.724   6.810  0.0766  0.8045  1.0937
  534MOL0     H72043   8.872   6.553   6.789  1.6321  0.7001 -1.1902
  534MOL0     H72044   8.814   6.716   7.027 -1.7287  1.1942  0.8485
  534MOL0     H72045   8.722   6.567   6.987  1.0630 -0.8394 -2.5235
  534MOL0     H72046   8.700   6.822   6.830  1.4689 -1.2834  0.7804
  534MOL0     H72047   8.606   6.770   6.968 -0.3816 -6.1285  3.1767
  534MOL0     H72048   8.623   6.581   6.723  0.5113 -0.1554  0.1444
  534MOL0     H72049   8.498   6.715   6.748 -2.1109 -0.9956  0.9998
  534MOL0     H72050   8.311   6.594   6.738  2.3535 -2.0412  0.4761
  534MOL0     H72051   7.987   6.527   6.773  0.8369 -0.1959  2.7882
  534MOL0     H72052   7.990   6.710   6.784 -1.5011 -0.3602 -1.9598
  534MOL0     H72053   8.094   6.628   6.674 -0.9137  1.7505 -0.3088
  534MOL0     H72054   7.844   6.821   7.217  1.2354  0.8082  0.2358
  534MOL0     H72055   7.637   6.871   7.320  2.3868  0.3192 -2.3928
  534MOL0     H72056   7.349   6.672   7.588  0.0891  1.2933  1.8240
  534MOL0     H72057   7.473   6.548   7.579 -0.6514  0.7379 -2.3440
  534MOL0     H72058   7.617   6.698   7.746 -0.4503  0.5643 -1.1020
  534MOL0     H72059   7.466   6.787   7.768  0.7900  0.4280  1.9224
  534MOL0     H72060   7.544   6.514   7.853  0.1499  0.2674 -0.4390
  534MOL0     H72061   7.372   6.528   7.815  0.4037 -2.0808 -0.0550
  534MOL0     H72062   7.544   6.658   8.020  0.8053  2.9838 -0.9533
  534MOL0     H72063   7.372   6.728   7.985 -0.9917 -1.5278  4.1240
  534MOL0     H72064   7.275   6.539   8.050 -0.1010 -0.1481 -0.9050
  534MOL0     H72065   7.386   6.582   8.184 -2.8760  1.8871  0.0744
  534MOL0     H72066   7.353   6.328   8.129  1.0011  0.2753 -0.6912
  534MOL0     H72067   7.406   6.348   7.973  0.0563 -0.1001 -0.0231
  534MOL0     H72068   7.563   6.394   8.232  2.1902 -0.0246  0.7664
  534MOL0     H72069   7.635   6.452   8.091 -1.1604  0.3802  1.1190
  534MOL0     H72070   7.606   6.201   7.997 -0.4502 -2.8601  0.9094
  534MOL0     H72071   7.578   6.167   8.171 -1.5372  2.1493  1.5342
  534MOL0     H72072   7.660   6.479   7.505  1.2507 -1.2328 -1.7864
  534MOL0     H72073   7.860   6.445   7.421 -3.3844 -2.7042 -1.0307
  534MOL0     H72074   8.213   6.526   7.210 -0.1981 -0.6933 -0.4162
  534MOL0     H72075   8.435   6.537   7.132 -2.5466 -1.7332  3.8612
  534MOL0     H72076   8.596   5.527   7.050  0.5012 -1.2860 -0.4241
  534MOL0     H72077   8.636   5.309   6.929 -0.3159 -1.8423  1.2068
  534MOL0     H72078   8.231   4.923   6.903  3.8234  1.1832  1.1768
  534MOL0     H72079   8.183   4.715   6.788 -0.3527 -1.9925 -0.5602
  534MOL0     H72080   8.407   4.647   6.409 -1.1418  1.9174  1.0551
  534MOL0     H72081   8.447   4.503   6.508  0.8040  1.0851  0.1300
  534MOL0     H72082   8.254   4.391   6.460  1.6891  1.1856  0.4075
  534MOL0     H72083   8.303   4.457   6.303 -1.7783  2.5481 -1.5086
  534MOL0     H72084   8.156   4.650   6.338  1.8849  0.5690  2.7440
  534MOL0     H72085   8.081   4.596   6.468 -0.3410  2.8582 -2.1607
  534MOL0     H72086   7.960   4.413   6.363 -0.7225  1.5964  0.9336
  534MOL0     H72087   8.083   4.395   6.231 -2.2717 -0.9031 -0.2397
  534MOL0     H72088   7.837   4.713   6.090 -0.9973 -1.5208 -1.7520
  534MOL0     H72089   8.477   4.822   6.503  1.0328 -2.1671  1.7986
  534MOL0     H72090   8.485   5.054   6.590  0.8528 -0.5906  0.0365
  535MOL0     O72091   3.998   0.240   4.393 -0.5205  0.1544  0.7107
  535MOL0     C72092   4.049   0.194   4.290  0.2471 -0.3712  0.1709
  535MOL0     O72093   4.000   0.098   4.216  0.4115  0.0974  0.3164
  535MOL0     C72094   3.889   0.029   4.269 -0.3939 -0.8713 -0.3199
  535MOL0     C72095   3.906  -0.106   4.306 -0.5601 -0.4898 -0.5431
  535MOL0     C72096   3.798  -0.178   4.371 -0.1446 -0.6313  0.2025
  535MOL0     C72097   3.680  -0.111   4.404  0.4169  0.7810  0.7479
  535MOL0     O72098   3.569  -0.172   4.457  0.1265 -0.4501 -0.2229
  535MOL0     C72099   3.576  -0.202   4.591  0.1426  0.6205 -0.1401
  535MOL0     C72100   3.446  -0.256   4.640 -0.2494 -0.5451  0.0676
  535MOL0     C72101   3.391  -0.361   4.538 -0.6025  0.2487  0.1370
  535MOL0     C72102   3.258  -0.418   4.595  0.0832 -0.9407  1.6166
  535MOL0     C72103   3.165  -0.477   4.480  1.3647  0.5195 -0.4166
  535MOL0     C72104   3.022  -0.496   4.537 -0.4240 -0.3048  0.9458
  535MOL0     C72105   3.008  -0.629   4.613  0.2447  0.3850 -0.3390
  535MOL0     C72106   2.862  -0.648   4.652  0.0106 -1.3423 -0.4755
  535MOL0     N72107   2.778  -0.726   4.557  0.4672 -0.3305 -0.3857
  535MOL0     C72108   2.795  -0.856   4.529 -0.5062  0.6036 -0.5317
  535MOL0     C72109   2.677  -0.894   4.493  0.5939  0.1413 -0.9421
  535MOL0     C72110   2.661  -1.032   4.442 -0.6153  0.2637 -0.7319
  535MOL0     C72111   2.553  -1.115   4.508 -0.0780 -0.1943 -1.1077
  535MOL0     C72112   2.572  -1.142   4.666 -0.3440 -0.5602  0.6102
  535MOL0     C72113   2.465  -1.247   4.720  0.3029 -0.2700  0.4909
  535MOL0     O72114   2.498  -1.276   4.852 -0.0528  0.0802  0.3256
  535MOL0     C72115   2.460  -1.401   4.900  0.4775 -0.5077  0.2522
  535MOL0     C72116   2.327  -1.446   4.890  0.3696  0.3756 -0.3060
  535MOL0     C72117   2.293  -1.568   4.950 -1.3514 -0.2525  0.7354
  535MOL0     C72118   2.155  -1.593   4.976  0.0360 -0.3561 -0.2383
  535MOL0     C72119   2.396  -1.655   5.006  0.1568  0.0556  0.3455
  535MOL0     C72120   2.369  -1.783   5.063 -0.5946 -0.1333  0.1913
  535MOL0     O72121   2.258  -1.850   5.032 -0.5660 -0.2898 -0.0592
  535MOL0     C72122   2.206  -1.946   5.112 -0.4110  0.2864 -0.4251
  535MOL0     C72123   2.274  -2.020   5.212 -0.0662 -0.3775  0.3718
  535MOL0     C72124   2.200  -2.092   5.306  0.1431 -0.1323 -0.5235
  535MOL0     C72125   2.056  -2.113   5.295 -0.8915  0.5557  0.0412
  535MOL0     O72126   1.975  -2.193   5.371 -0.2722  0.5589 -0.3386
  535MOL0     C72127   2.035  -2.286   5.465 -0.2499 -1.0529  0.8530
  535MOL0     C72128   1.926  -2.348   5.563  0.0881 -0.2099 -0.2285
  535MOL0     C72129   1.830  -2.430   5.487  0.4126  0.4494  0.0801
  535MOL0     C72130   1.701  -2.460   5.571  0.6569 -0.2214 -0.3096
  535MOL0     C72131   1.725  -2.538   5.701 -0.4154 -1.2026  0.6449
  535MOL0     C72132   1.595  -2.560   5.786  0.4748 -0.0105 -0.3215
  535MOL0     C72133   1.646  -2.647   5.899  0.5159 -0.9639 -0.7157
  535MOL0     C72134   1.607  -2.792   5.875 -0.2559 -0.3074  0.0990
  535MOL0    Cl72135   1.434  -2.813   5.906  0.0047 -0.0506 -0.0077
  535MOL0     C72136   2.000  -2.061   5.175  0.1679 -0.3737 -0.4174
  535MOL0     C72137   2.071  -1.980   5.087  0.9847  0.0266 -0.0571
  535MOL0     O72138   2.459  -1.824   5.141  0.1104  0.8639  0.4816
  535MOL0     C72139   2.532  -1.606   5.001  0.3953 -0.6078  0.0986
  535MOL0     C72140   2.563  -1.482   4.955  0.0474 -0.3408  0.4149
  535MOL0     N72141   2.592  -0.785   4.483  0.2703 -0.6386  0.0479
  535MOL0     N72142   2.652  -0.680   4.525 -0.6949  0.2848  0.6766
  535MOL0     C72143   3.667   0.027   4.374  0.2628  0.2267 -0.4556
  535MOL0     C72144   3.775   0.093   4.320  0.1470 -0.4390 -0.6385
  535MOL0     C72145   4.175   0.251   4.247 -0.6798  0.1888  0.0019
  535MOL0     C72146   4.266   0.176   4.169 -0.0142  0.4857 -0.5957
  535MOL0     C72147   4.393   0.230   4.137 -0.3446  1.3515 -0.1507
  535MOL0     C72148   4.422   0.368   4.165 -0.5099  0.5465 -0.0683
  535MOL0     O72149   4.540   0.427   4.148 -0.0653 -0.2291 -0.3711
  535MOL0     C72150   4.650   0.342   4.109  0.3499  0.1684 -0.5586
  535MOL0     C72151   4.769   0.430   4.108 -1.1462  0.3616 -0.3509
  535MOL0     C72152   4.912   0.369   4.129  0.8673  0.1454  0.9253
  535MOL0     C72153   5.015   0.421   4.025  1.5855  1.3093  0.4871
  535MOL0     C72154   5.047   0.559   4.051 -0.9767 -0.1198 -0.3757
  535MOL0     C72155   5.056   0.680   4.059  0.0373  0.4254 -0.2664
  535MOL0     C72156   4.333   0.441   4.231  0.4976  0.1584 -0.4466
  535MOL0     C72157   4.206   0.390   4.271 -0.0554 -0.6395  0.2714
  535MOL0     H72158   4.006  -0.148   4.297  0.2871  1.1823  0.5451
  535MOL0     H72159   3.812  -0.283   4.396  0.3294  0.0395  3.1637
  535MOL0     H72160   3.649  -0.281   4.612 -1.6949 -0.8731  0.9065
  535MOL0     H72161   3.606  -0.117   4.654 -1.8991  0.1799  1.5265
  535MOL0     H72162   3.469  -0.306   4.735  1.4251  1.8297  0.9911
  535MOL0     H72163   3.383  -0.167   4.649  2.0335  1.5196 -2.6111
  535MOL0     H72164   3.366  -0.318   4.440 -2.1090 -0.1544  0.3264
  535MOL0     H72165   3.459  -0.447   4.535 -0.1642  0.4776  2.2247
  535MOL0     H72166   3.275  -0.488   4.676 -0.5858 -1.5005  1.2871
  535MOL0     H72167   3.208  -0.338   4.650  2.4624  0.8134  1.3730
  535MOL0     H72168   3.152  -0.399   4.404  0.1421 -1.0512 -1.8743
  535MOL0     H72169   3.209  -0.561   4.426  1.0526  1.0309 -1.5062
  535MOL0     H72170   3.009  -0.412   4.606  0.6139 -0.0619  0.8687
  535MOL0     H72171   2.958  -0.488   4.448  1.3041 -1.5988 -0.4894
  535MOL0     H72172   3.034  -0.720   4.557  2.9578 -0.0078  1.3819
  535MOL0     H72173   3.075  -0.622   4.699 -1.5931 -0.1534  1.1836
  535MOL0     H72174   2.813  -0.552   4.672 -0.4208 -1.5982 -0.2890
  535MOL0     H72175   2.859  -0.696   4.750  0.5341  1.9173  1.2991
  535MOL0     H72176   2.875  -0.927   4.551 -0.3626  0.9644  0.1358
  535MOL0     H72177   2.631  -1.028   4.337 -0.1715  2.3279 -0.8352
  535MOL0     H72178   2.756  -1.086   4.445  0.1276  1.5436  0.5786
  535MOL0     H72179   2.553  -1.208   4.452  0.8925  0.2087 -1.7928
  535MOL0     H72180   2.455  -1.070   4.491  0.4942  0.7492 -2.0320
  535MOL0     H72181   2.559  -1.047   4.719 -4.8778 -0.3871 -0.3826
  535MOL0     H72182   2.673  -1.181   4.678 -0.7845 -3.1348 -2.6067
  535MOL0     H72183   2.480  -1.335   4.657  0.5437  1.0812 -1.4100
  535MOL0     H72184   2.365  -1.206   4.705  0.8917 -0.1740 -5.8593
  535MOL0     H72185   2.253  -1.379   4.847 -0.5660  0.8805  1.9500
  535MOL0     H72186   2.115  -1.663   4.902  0.3721  2.3821 -3.1725
  535MOL0     H72187   2.136  -1.627   5.079 -5.8092 -0.1567 -0.9430
  535MOL0     H72188   2.091  -1.505   4.972  1.6933  0.9940  1.2910
  535MOL0     H72189   2.374  -2.008   5.250 -0.6323 -0.8064  2.0820
  535MOL0     H72190   2.246  -2.143   5.391  0.3852  0.8339 -0.0589
  535MOL0     H72191   2.072  -2.369   5.405  2.2551  0.4298  0.1793
  535MOL0     H72192   2.113  -2.240   5.526  0.8457  1.0354 -1.8942
  535MOL0     H72193   1.976  -2.398   5.646 -1.6894 -0.8169  0.5073
  535MOL0     H72194   1.880  -2.262   5.612 -1.9678 -1.2478 -0.2713
  535MOL0     H72195   1.878  -2.519   5.445 -1.9870 -0.3605 -1.1244
  535MOL0     H72196   1.792  -2.375   5.401  1.2387 -0.5711 -0.9709
  535MOL0     H72197   1.648  -2.368   5.596 -1.2648 -1.0795 -1.0229
  535MOL0     H72198   1.642  -2.529   5.511  0.0150 -1.0237  1.1906
  535MOL0     H72199   1.786  -2.469   5.761 -1.3360  3.2498 -3.0008
  535MOL0     H72200   1.771  -2.634   5.678  1.4165 -0.1211 -0.3824
  535MOL0     H72201   1.538  -2.467   5.801 -0.7908 -0.5683 -1.4157
  535MOL0     H72202   1.514  -2.619   5.741 -2.5141  0.8727  3.3719
  535MOL0     H72203   1.605  -2.606   5.992 -1.0411 -1.7276 -1.0423
  535MOL0     H72204   1.755  -2.652   5.913  0.4577  0.0619  0.3405
  535MOL0     H72205   1.668  -2.865   5.928  1.1696  0.0931 -0.9244
  535MOL0     H72206   1.635  -2.815   5.772  3.2315  0.3292  0.7522
  535MOL0     H72207   1.896  -2.090   5.163 -0.0650 -0.3245  1.2529
  535MOL0     H72208   2.016  -1.942   5.001 -1.8121 -1.4104  0.9760
  535MOL0     H72209   2.606  -1.674   5.042 -0.5103 -1.9734 -0.4579
  535MOL0     H72210   2.662  -1.440   4.968 -0.6834  1.3257  0.8936
  535MOL0     H72211   3.581   0.082   4.410  1.4315 -0.2948  3.7360
  535MOL0     H72212   3.761   0.197   4.291 -0.8880 -0.2910  0.3169
  535MOL0     H72213   4.237   0.075   4.143 -2.4455  1.2842 -1.1861
  535MOL0     H72214   4.464   0.165   4.087  0.6900  0.9232  1.7453
  535MOL0     H72215   4.661   0.269   4.190 -1.0170  3.1776  2.6074
  535MOL0     H72216   4.638   0.299   4.009 -0.5800  1.8393 -1.1977
  535MOL0     H72217   4.757   0.508   4.184  1.2249  0.2083  0.2626
  535MOL0     H72218   4.761   0.479   4.010  0.5696 -0.4205 -0.9042
  535MOL0     H72219   4.902   0.261   4.112 -1.6966  0.6164 -1.1046
  535MOL0     H72220   4.946   0.389   4.231 -2.7198  0.3891  2.2129
  535MOL0     H72221   4.968   0.420   3.926 -0.2104 -0.4487  1.2874
  535MOL0     H72222   5.105   0.360   4.021  0.9434  0.3969 -0.7581
  535MOL0     H72223   5.067   0.786   4.044  0.2106  0.2730 -1.3074
  535MOL0     H72224   4.358   0.543   4.257 -3.3132  0.9689  0.6325
  535MOL0     H72225   4.139   0.460   4.320 -0.9959  1.0829 -3.1462
  536MOL0     O72226   7.957   7.483  10.279 -0.7506  0.5791  0.3058
  536MOL0     C72227   8.012   7.589  10.257  0.9586 -0.6254  0.0493
  536MOL0     O72228   7.955   7.701  10.200  0.3893  0.2500 -0.1162
  536MOL0     C72229   7.820   7.702  10.160  0.6040  0.0427 -0.0877
  536MOL0     C72230   7.741   7.611  10.089 -0.9146  0.1033 -0.4542
  536MOL0     C72231   7.614   7.626  10.058  0.2290  1.0251  0.5385
  536MOL0     C72232   7.549   7.745  10.081 -1.1033  0.2946 -0.1724
  536MOL0     O72233   7.428   7.767  10.019  0.2089  0.1926  0.4959
  536MOL0     C72234   7.358   7.890  10.039  0.3722 -0.0845  0.4905
  536MOL0     C72235   7.206   7.881   9.997  0.9695 -0.1491 -0.3875
  536MOL0     C72236   7.184   7.852   9.846 -0.4792  0.0892 -0.2803
  536MOL0     C72237   7.045   7.882   9.786  0.1176 -0.4178 -0.1478
  536MOL0     C72238   7.029   7.838   9.642 -0.1350 -0.3085  0.1432
  536MOL0     C72239   6.894   7.876   9.581 -0.2711 -0.5909  0.3459
  536MOL0     C72240   6.870   8.026   9.595  0.1133 -0.5104 -0.4637
  536MOL0     C72241   6.764   8.072   9.492 -0.1306 -0.0305  0.7304
  536MOL0     N72242   6.628   8.061   9.556  1.0058  0.1895 -1.2583
  536MOL0     C72243   6.561   7.940   9.576 -0.2701  0.2957  0.1274
  536MOL0     C72244   6.434   7.968   9.612  1.4840 -0.1207 -0.9612
  536MOL0     C72245   6.332   7.871   9.659 -0.2982  0.4440  0.3142
  536MOL0     C72246   6.281   7.785   9.548 -1.4187 -0.4465 -0.0736
  536MOL0     C72247   6.212   7.660   9.596  0.0583 -0.2576 -0.1707
  536MOL0     C72248   6.204   7.549   9.487 -0.5986 -0.3922 -0.4998
  536MOL0     O72249   6.113   7.587   9.383 -0.1202  0.3683  0.2495
  536MOL0     C72250   5.993   7.527   9.403  0.1110 -0.0199  0.6639
  536MOL0     C72251   5.960   7.397   9.351 -0.2624 -0.6556  0.4562
  536MOL0     C72252   5.842   7.336   9.389 -0.5155 -0.1482 -0.6871
  536MOL0     C72253   5.815   7.200   9.335  0.4122 -0.0609 -0.3669
  536MOL0     C72254   5.748   7.398   9.479 -0.6999 -0.1929 -0.4725
  536MOL0     C72255   5.610   7.340   9.517 -0.2231 -0.2867  0.0857
  536MOL0     O72256   5.507   7.428   9.538 -0.5383 -0.1952 -0.5095
  536MOL0     C72257   5.385   7.387   9.592 -0.6530  0.5511  0.7439
  536MOL0     C72258   5.351   7.414   9.727  0.0458 -0.3826 -0.8241
  536MOL0     C72259   5.223   7.383   9.769  0.6665 -0.2414 -0.4159
  536MOL0     C72260   5.131   7.327   9.678 -0.0843  0.3401  0.2186
  536MOL0     O72261   5.001   7.295   9.718 -0.2646  0.4174 -0.4149
  536MOL0     C72262   4.953   7.319   9.859  0.1095  0.1439 -0.4276
  536MOL0     C72263   4.848   7.210   9.883 -0.1055  0.3797  0.3339
  536MOL0     C72264   4.918   7.093   9.956  0.0121  0.5615 -0.0425
  536MOL0     C72265   4.816   7.003  10.020  0.3073  0.1976  0.2669
  536MOL0     C72266   4.880   6.904  10.118  0.1261 -0.1971 -0.2481
  536MOL0     C72267   4.785   6.789  10.154  0.0994 -0.3221 -0.0469
  536MOL0     C72268   4.843   6.675  10.240 -0.1125 -1.0308  0.4594
  536MOL0     C72269   4.752   6.555  10.243 -0.2212 -0.2155  0.1781
  536MOL0    Cl72270   4.592   6.606  10.304 -0.0242  0.3699  0.1799
  536MOL0     C72271   5.167   7.311   9.548  1.1161  0.9047  0.7033
  536MOL0     C72272   5.292   7.339   9.505  0.0881 -0.9341 -0.3905
  536MOL0     O72273   5.610   7.218   9.529  0.3139  0.0114  0.0969
  536MOL0     C72274   5.776   7.523   9.527 -0.8248 -0.0813  0.6923
  536MOL0     C72275   5.904   7.580   9.498 -0.0854 -0.3491  0.1008
  536MOL0     N72276   6.419   8.104   9.600  0.4153  0.5661 -0.2685
  536MOL0     N72277   6.537   8.165   9.574 -0.5554  0.3695  0.7670
  536MOL0     C72278   7.616   7.834  10.173  0.2238 -0.3154  1.0860
  536MOL0     C72279   7.748   7.815  10.201 -0.0107  0.8608 -0.1386
  536MOL0     C72280   8.147   7.601  10.305  0.9295  0.2392  0.4770
  536MOL0     C72281   8.205   7.490  10.372  0.6063  0.7661  0.1212
  536MOL0     C72282   8.338   7.505  10.417  0.2984 -0.0361 -0.4106
  536MOL0     C72283   8.409   7.624  10.397 -0.0879  0.3648  0.3267
  536MOL0     O72284   8.545   7.649  10.424 -0.0860 -0.3183  0.3075
  536MOL0     C72285   8.632   7.541  10.423  0.4308  0.6014 -0.4671
  536MOL0     C72286   8.757   7.576  10.341 -0.7256 -0.8574  0.8965
  536MOL0     C72287   8.844   7.693  10.391  0.1594  0.2297  0.4490
  536MOL0     C72288   8.942   7.664  10.499 -0.1348 -0.1844  0.6253
  536MOL0     C72289   9.063   7.582  10.460  0.0834  0.2268  0.1875
  536MOL0     C72290   9.164   7.509  10.445  0.1428 -1.1776 -0.4066
  536MOL0     C72291   8.348   7.728  10.327  0.8768  0.0258 -1.3022
  536MOL0     C72292   8.212   7.720  10.285 -0.2982 -0.5059 -1.2487
  536MOL0     H72293   7.794   7.527  10.046 -2.1618 -1.3137  0.6844
  536MOL0     H72294   7.545   7.560  10.004 -1.6976  2.4303  1.1541
  536MOL0     H72295   7.366   7.927  10.142  0.2672 -1.5342  1.0505
  536MOL0     H72296   7.406   7.965   9.976 -1.9999  0.9468 -0.2003
  536MOL0     H72297   7.164   7.801  10.059  0.1476  1.1464  0.7834
  536MOL0     H72298   7.160   7.976  10.026  2.1192  0.3476 -0.1014
  536MOL0     H72299   7.245   7.912   9.777 -2.1153 -0.2334 -2.1052
  536MOL0     H72300   7.211   7.747   9.832 -1.0408 -0.3454  1.6888
  536MOL0     H72301   6.973   7.826   9.846 -1.3965  0.6448 -0.9157
  536MOL0     H72302   7.025   7.989   9.793  1.1401 -0.2014 -0.3151
  536MOL0     H72303   7.118   7.872   9.589 -0.0618  0.4383  0.7352
  536MOL0     H72304   7.032   7.729   9.638  0.3705 -0.3091  0.4898
  536MOL0     H72305   6.881   7.851   9.475  0.6863 -0.4327  0.1852
  536MOL0     H72306   6.816   7.823   9.636 -1.3211 -0.0390 -0.5591
  536MOL0     H72307   6.858   8.071   9.694  0.8593  0.3238 -0.7433
  536MOL0     H72308   6.961   8.072   9.555 -0.6243 -0.6050 -2.3716
  536MOL0     H72309   6.781   8.007   9.406 -1.8815  0.1329  0.2296
  536MOL0     H72310   6.778   8.179   9.475 -1.6929  0.0400 -0.3014
  536MOL0     H72311   6.590   7.835   9.571 -1.0953  0.0897 -3.3232
  536MOL0     H72312   6.374   7.805   9.736  1.6711  0.1323 -0.9547
  536MOL0     H72313   6.251   7.934   9.697 -1.0287 -0.4076  0.2275
  536MOL0     H72314   6.370   7.753   9.493 -0.0744 -0.2253  1.8918
  536MOL0     H72315   6.216   7.855   9.493  0.5147  1.9864  0.5512
  536MOL0     H72316   6.115   7.689   9.638  1.1261  1.0970  1.4592
  536MOL0     H72317   6.268   7.627   9.684  2.0986 -1.3056 -1.7730
  536MOL0     H72318   6.164   7.464   9.544  1.2861 -0.0604  1.4718
  536MOL0     H72319   6.298   7.514   9.444 -0.7401 -1.6436  0.1539
  536MOL0     H72320   6.032   7.343   9.291  0.2017 -0.2033  0.5962
  536MOL0     H72321   5.884   7.170   9.256 -0.1799 -1.5031 -0.3730
  536MOL0     H72322   5.836   7.134   9.420  1.0209  0.2082 -0.3064
  536MOL0     H72323   5.713   7.196   9.295  0.5504 -0.9986 -0.6567
  536MOL0     H72324   5.433   7.461   9.781 -4.5928  4.4028  3.0864
  536MOL0     H72325   5.199   7.394   9.874  2.0180 -3.7763  0.4229
  536MOL0     H72326   5.037   7.303   9.926  0.0953 -0.8095 -0.6302
  536MOL0     H72327   4.910   7.419   9.873 -1.8725 -0.7200  0.0139
  536MOL0     H72328   4.767   7.245   9.948 -0.0913 -0.1649  0.6509
  536MOL0     H72329   4.797   7.179   9.791 -1.7197 -3.9241  2.3916
  536MOL0     H72330   4.983   7.137  10.033  3.3198  0.1288 -2.3573
  536MOL0     H72331   4.986   7.038   9.890  2.2502  0.0572  2.5124
  536MOL0     H72332   4.746   7.061  10.081  1.0778  0.1899  1.1772
  536MOL0     H72333   4.761   6.948   9.943 -2.0914  2.9348 -0.1642
  536MOL0     H72334   4.914   6.945  10.214  0.2914  1.0611 -0.8314
  536MOL0     H72335   4.970   6.865  10.071  1.6128  0.8400  1.5953
  536MOL0     H72336   4.699   6.814  10.217  0.7331  0.7973  0.3948
  536MOL0     H72337   4.760   6.751  10.054  2.9004  3.2284 -2.3644
  536MOL0     H72338   4.859   6.720  10.338 -2.4781  0.2142  0.3468
  536MOL0     H72339   4.942   6.639  10.209 -0.1747 -1.1703  0.4208
  536MOL0     H72340   4.790   6.468  10.297 -1.0619  1.0783  3.0292
  536MOL0     H72341   4.750   6.517  10.140 -1.3483 -0.9427  0.4537
  536MOL0     H72342   5.088   7.283   9.479  1.9291 -1.2175  0.5650
  536MOL0     H72343   5.311   7.341   9.398  0.8740  1.1859 -0.2765
  536MOL0     H72344   5.704   7.578   9.587 -1.7607 -0.3624 -0.1468
  536MOL0     H72345   5.931   7.673   9.548 -0.0996  0.0626 -0.6483
  536MOL0     H72346   7.562   7.922  10.208 -1.5264  0.0198 -2.0488
  536MOL0     H72347   7.815   7.889  10.243  0.5079  0.8062 -0.8525
  536MOL0     H72348   8.167   7.389  10.382  1.2532  0.3740 -1.1739
  536MOL0     H72349   8.395   7.422  10.460  0.2292 -0.5457 -1.2729
  536MOL0     H72350   8.659   7.506  10.524 -2.6451  0.5595  0.4306
  536MOL0     H72351   8.586   7.458  10.370 -1.1411 -0.8616  2.8909
  536MOL0     H72352   8.737   7.608  10.238 -0.5846 -0.2791  1.0428
  536MOL0     H72353   8.824   7.491  10.326  1.9452  1.3522 -0.9170
  536MOL0     H72354   8.771   7.761  10.436  1.2234 -0.7130  3.9254
  536MOL0     H72355   8.888   7.752  10.310  0.0456  1.7209  1.4336
  536MOL0     H72356   8.890   7.619  10.584 -0.3064 -0.3597  0.4298
  536MOL0     H72357   8.978   7.762  10.530  0.8711  0.1183 -1.3264
  536MOL0     H72358   9.254   7.454  10.462  0.9729  0.5424  1.0473
  536MOL0     H72359   8.408   7.815  10.302  1.2055  0.0004 -0.6162
  536MOL0     H72360   8.177   7.809  10.234 -0.3555  0.8383  1.0265
  537MOL0     O72361   3.175   4.076   0.736 -0.9093  0.8421  0.3662
  537MOL0     C72362   3.096   4.133   0.805 -0.7603  0.2577  0.2840
  537MOL0     O72363   3.123   4.222   0.903  0.0952 -0.0076 -0.0084
  537MOL0     C72364   3.244   4.222   0.964  0.1901  0.1102 -0.1634
  537MOL0     C72365   3.306   4.107   1.018 -0.9384 -0.0091 -0.2488
  537MOL0     C72366   3.413   4.112   1.113  0.3858 -0.7200 -0.1494
  537MOL0     C72367   3.464   4.240   1.146 -0.7557 -0.5561  0.1593
  537MOL0     O72368   3.577   4.250   1.226  0.4752 -0.5100 -0.9173
  537MOL0     C72369   3.584   4.167   1.341 -0.2448  0.7189 -0.3144
  537MOL0     C72370   3.651   4.245   1.454  1.3703 -0.4921  0.4910
  537MOL0     C72371   3.666   4.154   1.574  0.3453  0.4576 -0.1457
  537MOL0     C72372   3.742   4.221   1.691  0.3850  0.4788 -0.0793
  537MOL0     C72373   3.730   4.138   1.820  0.0907  0.5696  0.2114
  537MOL0     C72374   3.831   4.022   1.836 -0.1373  0.5499  0.6487
  537MOL0     C72375   3.805   3.939   1.968 -0.3599 -0.2778  0.7649
  537MOL0     C72376   3.858   4.010   2.086  0.6994  0.4657 -0.1326
  537MOL0     N72377   3.843   3.944   2.214  0.8280 -0.0810 -0.0809
  537MOL0     C72378   3.747   3.849   2.251 -1.1584 -0.4959  0.0431
  537MOL0     C72379   3.774   3.811   2.382  1.1054 -0.6704  0.2220
  537MOL0     C72380   3.703   3.710   2.465 -0.9563 -0.1661 -0.1863
  537MOL0     C72381   3.580   3.757   2.547  0.1866 -0.2818  0.7542
  537MOL0     C72382   3.558   3.661   2.665 -0.6885  0.0474 -0.8256
  537MOL0     C72383   3.452   3.703   2.762  0.0487 -0.5256 -0.1880
  537MOL0     O72384   3.314   3.709   2.708  0.1085  0.4696 -0.0567
  537MOL0     C72385   3.232   3.603   2.728  0.3135 -0.1712 -0.3106
  537MOL0     C72386   3.268   3.475   2.752  1.2350  0.7465 -0.3399
  537MOL0     C72387   3.170   3.374   2.786 -0.5174  0.3030  0.7047
  537MOL0     C72388   3.218   3.232   2.799 -0.3508  0.7537  0.1678
  537MOL0     C72389   3.034   3.408   2.789 -0.1997 -0.1689  0.3664
  537MOL0     C72390   2.923   3.321   2.843  0.8042 -0.6826  0.0193
  537MOL0     O72391   2.801   3.352   2.784 -0.3956 -0.0438 -0.3969
  537MOL0     C72392   2.696   3.263   2.802  0.0242 -0.1064 -0.6613
  537MOL0     C72393   2.571   3.322   2.811 -0.5273  0.1102  0.1653
  537MOL0     C72394   2.451   3.260   2.788  0.2954  0.2185 -1.2544
  537MOL0     C72395   2.445   3.124   2.767 -0.9076 -0.2153 -0.4142
  537MOL0     O72396   2.333   3.068   2.714  0.3314  0.0651 -0.1168
  537MOL0     C72397   2.272   2.961   2.799 -0.1584 -0.0746 -0.6958
  537MOL0     C72398   2.151   2.902   2.735 -0.0234  0.0672  0.2976
  537MOL0     C72399   2.077   2.805   2.832  0.4786  0.6295 -0.5350
  537MOL0     C72400   1.981   2.877   2.927 -0.0882  0.5439  0.9082
  537MOL0     C72401   1.854   2.913   2.850 -0.2050 -0.0872  1.1620
  537MOL0     C72402   1.757   2.982   2.943 -0.9053  0.1110  0.3190
  537MOL0     C72403   1.621   3.005   2.879  0.3877  0.4931 -0.0749
  537MOL0     C72404   1.513   3.076   2.962  0.1635  0.6103  0.7835
  537MOL0    Cl72405   1.363   3.068   2.869  0.2500 -0.3908  0.1015
  537MOL0     C72406   2.566   3.050   2.774 -0.3941  0.3542  0.2448
  537MOL0     C72407   2.691   3.126   2.799 -0.1100  0.5467 -0.2211
  537MOL0     O72408   2.950   3.234   2.925 -0.0091 -0.4714 -0.6218
  537MOL0     C72409   2.991   3.539   2.763 -0.1767 -0.9425 -0.3620
  537MOL0     C72410   3.090   3.635   2.739  0.2056  0.0195  0.7716
  537MOL0     N72411   3.883   3.884   2.424 -0.2707  1.0772  0.0874
  537MOL0     N72412   3.923   3.956   2.320  0.2579 -0.2157 -0.2943
  537MOL0     C72413   3.408   4.355   1.098  0.0695 -0.3100  0.2458
  537MOL0     C72414   3.295   4.346   1.014 -1.4955 -0.3100  0.3863
  537MOL0     C72415   2.962   4.124   0.761  0.1848  0.1651 -0.0307
  537MOL0     C72416   2.910   4.034   0.670 -0.1802  0.5332 -0.1033
  537MOL0     C72417   2.764   4.012   0.655 -0.8703 -0.8692  0.3104
  537MOL0     C72418   2.678   4.084   0.726  0.8076  0.4192 -0.1973
  537MOL0     O72419   2.541   4.091   0.715 -0.3641  0.6645 -0.0682
  537MOL0     C72420   2.492   4.064   0.584 -0.0603 -0.1846  0.1931
  537MOL0     C72421   2.348   4.109   0.572 -0.4230  0.3457  0.3447
  537MOL0     C72422   2.298   4.109   0.432 -0.7168  0.3876 -0.3805
  537MOL0     C72423   2.164   4.185   0.423  0.2652  0.9949  0.5391
  537MOL0     C72424   2.057   4.105   0.488 -0.0144 -0.6155  0.5191
  537MOL0     C72425   1.984   4.036   0.562 -0.1422  0.2769 -0.8631
  537MOL0     C72426   2.723   4.156   0.830 -0.4566  1.0436 -0.3949
  537MOL0     C72427   2.866   4.180   0.848  0.7743 -0.0790 -0.3438
  537MOL0     H72428   3.259   4.016   0.982  1.6934 -1.0897 -1.1798
  537MOL0     H72429   3.456   4.021   1.156  1.2554 -1.5413 -2.5910
  537MOL0     H72430   3.484   4.144   1.379 -0.7388  4.2623  0.9495
  537MOL0     H72431   3.635   4.072   1.325 -1.7057 -0.0362 -0.7360
  537MOL0     H72432   3.747   4.289   1.427 -0.5461  2.2109 -2.6738
  537MOL0     H72433   3.581   4.328   1.471  2.5785  1.3376 -2.6401
  537MOL0     H72434   3.573   4.108   1.608  0.1202  0.0614 -1.2274
  537MOL0     H72435   3.725   4.069   1.536 -0.3282 -0.7846  1.4639
  537MOL0     H72436   3.844   4.225   1.651  1.2606 -5.6513  0.5763
  537MOL0     H72437   3.698   4.321   1.705  0.1963  0.4011 -0.1092
  537MOL0     H72438   3.745   4.204   1.905 -0.3602 -2.2772  2.6775
  537MOL0     H72439   3.635   4.085   1.821  1.7415 -2.7303 -0.8541
  537MOL0     H72440   3.825   3.946   1.758  2.0976  1.8076 -0.8427
  537MOL0     H72441   3.931   4.066   1.831  0.0499  0.0153 -0.6257
  537MOL0     H72442   3.699   3.911   1.969 -0.7934  1.1708 -0.5634
  537MOL0     H72443   3.865   3.848   1.959 -2.1083 -1.3951 -0.0364
  537MOL0     H72444   3.809   4.107   2.102 -0.7600 -0.6854  3.3360
  537MOL0     H72445   3.962   4.026   2.055  0.7281 -0.6128 -0.6405
  537MOL0     H72446   3.668   3.812   2.187 -2.2577  0.6643  0.6619
  537MOL0     H72447   3.666   3.630   2.399 -3.6366  0.0732  0.8834
  537MOL0     H72448   3.785   3.673   2.527 -0.0266 -0.3415 -1.4821
  537MOL0     H72449   3.491   3.757   2.484  1.1806 -0.6282 -0.7003
  537MOL0     H72450   3.600   3.859   2.581 -0.9736 -0.3250  1.6071
  537MOL0     H72451   3.644   3.655   2.732 -0.6004  1.4144 -0.7848
  537MOL0     H72452   3.535   3.564   2.619  0.2616  0.8836 -3.2009
  537MOL0     H72453   3.479   3.801   2.801 -1.0010 -0.2762 -0.0662
  537MOL0     H72454   3.461   3.636   2.848  4.5657  1.7018  1.3514
  537MOL0     H72455   3.375   3.457   2.746  1.2371 -0.0335  1.3115
  537MOL0     H72456   3.179   3.188   2.706 -1.1150  0.4444  0.6295
  537MOL0     H72457   3.325   3.209   2.794 -0.6466 -0.4591 -2.3037
  537MOL0     H72458   3.171   3.177   2.880 -1.8556  2.3489  0.4316
  537MOL0     H72459   2.559   3.430   2.818 -0.4163  0.0995  0.5265
  537MOL0     H72460   2.362   3.322   2.787 -1.2581 -1.6795  1.8795
  537MOL0     H72461   2.349   2.887   2.821 -1.2471 -1.0324  0.0075
  537MOL0     H72462   2.235   3.015   2.887 -2.2878  0.9830 -2.1593
  537MOL0     H72463   2.084   2.987   2.715 -1.2243 -0.7260  0.8276
  537MOL0     H72464   2.190   2.853   2.645  2.6528 -1.6601  2.2484
  537MOL0     H72465   2.153   2.760   2.897 -0.5283  1.1468  1.0688
  537MOL0     H72466   2.032   2.722   2.777  2.3700  0.6697 -2.2369
  537MOL0     H72467   1.960   2.798   2.999 -0.8733 -0.2797 -0.1962
  537MOL0     H72468   2.025   2.967   2.972  1.5243  0.7295 -0.8816
  537MOL0     H72469   1.811   2.826   2.798  0.1031 -0.0031  0.7606
  537MOL0     H72470   1.882   2.988   2.776  1.2477 -2.0328 -0.3668
  537MOL0     H72471   1.749   2.921   3.034  3.5594  0.1742  0.9735
  537MOL0     H72472   1.806   3.076   2.969  3.0545 -1.2687 -1.3807
  537MOL0     H72473   1.575   2.908   2.856 -0.7835  0.7893  0.9422
  537MOL0     H72474   1.644   3.056   2.785 -0.6522 -0.2722 -0.7708
  537MOL0     H72475   1.531   3.176   3.003 -0.8255  0.3109  1.9950
  537MOL0     H72476   1.484   3.018   3.050 -3.6055 -2.2761 -2.0110
  537MOL0     H72477   2.549   2.943   2.781 -2.1202  0.5260 -0.8190
  537MOL0     H72478   2.778   3.065   2.823 -0.3876  0.2980  0.1711
  537MOL0     H72479   2.886   3.565   2.770  0.0340 -0.4309  2.3992
  537MOL0     H72480   3.052   3.734   2.717  2.6291  0.3365 -2.9428
  537MOL0     H72481   3.451   4.445   1.140 -0.9236 -1.2225  3.4331
  537MOL0     H72482   3.255   4.444   0.992  0.1320  0.0831 -1.1055
  537MOL0     H72483   2.976   3.979   0.603  1.3943  2.9381 -0.6561
  537MOL0     H72484   2.722   3.942   0.584 -2.0891 -2.3374  2.3374
  537MOL0     H72485   2.551   4.110   0.505  1.5619 -1.0167  0.8755
  537MOL0     H72486   2.483   3.956   0.565  1.3887  0.2017 -3.6554
  537MOL0     H72487   2.336   4.207   0.619 -0.0585  0.5192  0.0847
  537MOL0     H72488   2.303   4.031   0.634  1.0674 -0.3127  0.6570
  537MOL0     H72489   2.288   4.006   0.398  0.3916  0.3102 -0.5023
  537MOL0     H72490   2.370   4.167   0.373  1.4289 -0.5091  1.1940
  537MOL0     H72491   2.136   4.208   0.320  0.4501  0.6726  0.4176
  537MOL0     H72492   2.173   4.286   0.465  0.6564  1.0651  0.2862
  537MOL0     H72493   1.935   3.967   0.626 -0.6196  1.0911 -0.3261
  537MOL0     H72494   2.654   4.211   0.893 -1.3244 -1.2224  0.7637
  537MOL0     H72495   2.903   4.242   0.929  3.7228  2.6723 -3.4646
  538MOL0     O72496   1.916   4.144   1.074  0.4212 -0.1540 -0.0907
  538MOL0     C72497   1.985   4.088   0.980  0.3351 -0.4160  0.6183
  538MOL0     O72498   1.935   4.037   0.868 -0.4177  0.0852  0.2087
  538MOL0     C72499   1.805   4.063   0.837  0.0401  0.8636 -0.5040
  538MOL0     C72500   1.702   3.964   0.825 -0.8621  0.1936  0.2350
  538MOL0     C72501   1.576   3.998   0.776  0.7599  0.4879  0.1294
  538MOL0     C72502   1.540   4.128   0.749  0.0869  0.9552 -0.8021
  538MOL0     O72503   1.419   4.149   0.707 -0.1338 -0.5074 -0.0984
  538MOL0     C72504   1.367   4.285   0.709 -0.0227 -0.2552 -0.3010
  538MOL0     C72505   1.386   4.347   0.566  0.3084  0.7297 -0.4900
  538MOL0     C72506   1.303   4.469   0.551 -0.1851  0.1451  0.9954
  538MOL0     C72507   1.155   4.452   0.528 -0.5430  0.6935 -1.0594
  538MOL0     C72508   1.087   4.583   0.546  0.5873 -0.3110  1.0212
  538MOL0     C72509   0.941   4.555   0.583 -0.6566 -0.4450 -1.0717
  538MOL0     C72510   0.882   4.464   0.483  0.6388 -0.0170  0.1150
  538MOL0     C72511   0.720   4.467   0.486 -0.3509  0.3882  0.6262
  538MOL0     N72512   0.659   4.389   0.597 -0.1832  0.3676 -0.5907
  538MOL0     C72513   0.617   4.262   0.585  0.5706  0.2845  0.4706
  538MOL0     C72514   0.557   4.229   0.700  0.2416  0.2927 -0.0211
  538MOL0     C72515   0.519   4.087   0.738  0.5177 -0.9493  0.0236
  538MOL0     C72516   0.407   4.092   0.842  0.8044  0.3423 -0.0001
  538MOL0     C72517   0.269   4.122   0.782 -0.0405 -0.0702  0.4083
  538MOL0     C72518   0.202   4.002   0.718 -0.5578 -0.5860  0.4851
  538MOL0     O72519   0.063   4.036   0.712 -0.8511 -0.9341  0.3745
  538MOL0     C72520  -0.030   3.955   0.665  0.5939 -0.6934  0.8506
  538MOL0     C72521  -0.157   3.966   0.721 -0.1362  0.3800  0.0412
  538MOL0     C72522  -0.260   3.874   0.687 -0.0506 -0.5168  1.0125
  538MOL0     C72523  -0.403   3.896   0.746 -0.3859 -0.1108 -0.5617
  538MOL0     C72524  -0.228   3.774   0.592 -0.4872  0.2800 -0.1841
  538MOL0     C72525  -0.321   3.664   0.546 -0.0287  0.5398 -0.0970
  538MOL0     O72526  -0.295   3.599   0.425  0.1057 -0.1165 -0.0508
  538MOL0     C72527  -0.382   3.503   0.380 -0.0170  0.0169  0.0644
  538MOL0     C72528  -0.348   3.368   0.360 -0.1643  0.0385 -0.0516
  538MOL0     C72529  -0.422   3.283   0.270  0.3142  1.1656 -1.3883
  538MOL0     C72530  -0.546   3.318   0.233 -0.2919  0.1269 -0.2275
  538MOL0     O72531  -0.629   3.229   0.168  0.6160  0.5338 -0.5744
  538MOL0     C72532  -0.740   3.264   0.079 -0.2127 -0.4939  0.7236
  538MOL0     C72533  -0.790   3.136   0.010 -0.0860  0.1240  0.8750
  538MOL0     C72534  -0.929   3.167  -0.045 -0.6567  0.5933  0.5656
  538MOL0     C72535  -1.000   3.047  -0.117  0.4813 -0.4946 -0.5047
  538MOL0     C72536  -1.137   3.081  -0.173  0.3130  0.1726  0.9389
  538MOL0     C72537  -1.193   2.956  -0.254 -0.4088 -0.1468 -0.2057
  538MOL0     C72538  -1.226   2.835  -0.171  0.4253  1.0101  0.3855
  538MOL0     C72539  -1.305   2.734  -0.250  0.7326  0.2067 -0.3986
  538MOL0    Cl72540  -1.471   2.786  -0.253  0.2687 -0.3177  0.3401
  538MOL0     C72541  -0.592   3.449   0.276 -0.3153  0.2259  0.6551
  538MOL0     C72542  -0.509   3.540   0.349  0.7958 -0.2126  0.3151
  538MOL0     O72543  -0.416   3.636   0.618  0.7266 -0.0189  0.1727
  538MOL0     C72544  -0.099   3.771   0.533 -0.5738  0.4514  0.0724
  538MOL0     C72545   0.003   3.857   0.567  1.2045  0.5482 -0.2108
  538MOL0     N72546   0.572   4.340   0.782  0.2895  0.3866  0.0240
  538MOL0     N72547   0.643   4.431   0.728 -0.2956 -0.3176  0.6767
  538MOL0     C72548   1.631   4.227   0.784  0.8095 -0.4836 -0.6455
  538MOL0     C72549   1.761   4.195   0.829 -0.9058  0.2205 -0.5185
  538MOL0     C72550   2.132   4.047   1.002 -0.3041  0.0104  0.5625
  538MOL0     C72551   2.199   4.077   1.121  0.9790  0.1398 -0.9688
  538MOL0     C72552   2.323   4.033   1.143 -0.1595  0.4878  0.2013
  538MOL0     C72553   2.394   3.964   1.043  0.3949 -0.3657  0.0211
  538MOL0     O72554   2.522   3.941   1.067 -0.2662 -0.0937 -0.0499
  538MOL0     C72555   2.584   3.832   0.997 -0.0205  0.0949 -0.0434
  538MOL0     C72556   2.717   3.793   1.069  0.4147 -0.3384 -0.4190
  538MOL0     C72557   2.813   3.912   1.072  0.5323 -0.9592 -0.1366
  538MOL0     C72558   2.955   3.869   1.122 -0.2002 -0.1814 -0.4328
  538MOL0     C72559   3.027   3.803   1.005 -0.6037  0.0334  0.7487
  538MOL0     C72560   3.075   3.747   0.908  0.2746  1.1862 -0.5221
  538MOL0     C72561   2.335   3.929   0.922  0.0352 -0.3016 -0.9116
  538MOL0     C72562   2.198   3.969   0.905  0.2703 -0.6681 -1.0113
  538MOL0     H72563   1.722   3.859   0.840 -1.9320 -0.0944 -0.3027
  538MOL0     H72564   1.504   3.917   0.766 -1.8048  2.5883  0.1843
  538MOL0     H72565   1.264   4.275   0.743  0.3953 -0.5359  0.9131
  538MOL0     H72566   1.409   4.356   0.781  0.6949  0.0170 -0.9564
  538MOL0     H72567   1.486   4.383   0.542 -0.6774  2.9343 -1.6423
  538MOL0     H72568   1.361   4.267   0.495 -0.6137  1.9626 -1.6202
  538MOL0     H72569   1.334   4.549   0.619 -0.4017 -0.0654  1.3416
  538MOL0     H72570   1.336   4.499   0.451  2.7190 -0.9120  1.5530
  538MOL0     H72571   1.146   4.397   0.434 -2.4434 -1.7363  0.4299
  538MOL0     H72572   1.116   4.387   0.606 -0.0839  1.7814  0.1068
  538MOL0     H72573   1.132   4.643   0.626 -0.7657 -0.2472  1.7576
  538MOL0     H72574   1.096   4.645   0.457 -0.0066 -1.6962 -0.0394
  538MOL0     H72575   0.939   4.515   0.684 -1.0828 -3.3346 -2.1357
  538MOL0     H72576   0.881   4.646   0.582 -0.3858 -0.2643 -1.2218
  538MOL0     H72577   0.920   4.488   0.383  1.3376 -2.1408 -0.1824
  538MOL0     H72578   0.899   4.358   0.507 -1.6928 -1.0339 -2.2888
  538MOL0     H72579   0.678   4.443   0.388 -0.6519  1.0362  0.5866
  538MOL0     H72580   0.707   4.573   0.511  0.8480  0.1450  2.4695
  538MOL0     H72581   0.636   4.194   0.502  0.3491 -1.1028  1.5209
  538MOL0     H72582   0.485   4.024   0.655 -3.8791  2.0816 -0.8144
  538MOL0     H72583   0.609   4.048   0.786  1.6302  2.1168  0.6302
  538MOL0     H72584   0.439   4.168   0.914  2.1338 -0.7812  0.6465
  538MOL0     H72585   0.416   3.994   0.890  0.4437  0.5207  0.4434
  538MOL0     H72586   0.279   4.203   0.710  1.4560 -0.4754  0.1223
  538MOL0     H72587   0.203   4.159   0.861  1.0671 -2.6311  2.7294
  538MOL0     H72588   0.217   3.909   0.773  2.7949 -0.2980  0.2679
  538MOL0     H72589   0.245   3.998   0.618 -1.3705  3.7502 -0.2398
  538MOL0     H72590  -0.182   4.050   0.786 -1.9607  0.0265 -0.1699
  538MOL0     H72591  -0.395   3.978   0.818 -0.5075  0.1790 -0.8690
  538MOL0     H72592  -0.473   3.911   0.663 -0.7876  1.1986 -0.0139
  538MOL0     H72593  -0.437   3.811   0.805 -0.2488 -0.1189 -0.4945
  538MOL0     H72594  -0.255   3.319   0.390  0.3065  0.2389 -1.1066
  538MOL0     H72595  -0.390   3.184   0.239 -1.0068 -0.2682  1.3946
  538MOL0     H72596  -0.815   3.330   0.123  1.2176  1.9270 -0.2334
  538MOL0     H72597  -0.698   3.324  -0.003 -1.7131  0.2238  0.4518
  538MOL0     H72598  -0.728   3.108  -0.075 -0.8759 -0.2057  0.3946
  538MOL0     H72599  -0.799   3.049   0.075  0.7302 -0.0623  0.7412
  538MOL0     H72600  -0.915   3.240  -0.126  0.1964 -1.0459 -0.8332
  538MOL0     H72601  -0.999   3.198   0.033 -1.5177  0.3467 -0.0954
  538MOL0     H72602  -0.945   2.998  -0.198  0.9456 -1.1317  0.1832
  538MOL0     H72603  -1.017   2.968  -0.043 -1.5457 -0.7701 -1.1959
  538MOL0     H72604  -1.138   3.160  -0.248  3.6100 -1.7786 -1.4307
  538MOL0     H72605  -1.217   3.099  -0.100 -2.2258 -2.9467 -0.7963
  538MOL0     H72606  -1.294   2.986  -0.285 -0.0124  1.4347 -0.0514
  538MOL0     H72607  -1.126   2.932  -0.338  0.8249 -1.7616  1.1716
  538MOL0     H72608  -1.273   2.872  -0.079  2.2612  1.8319  1.0313
  538MOL0     H72609  -1.129   2.790  -0.147  0.3749 -0.2658 -1.5435
  538MOL0     H72610  -1.275   2.638  -0.207  1.3809 -0.1098 -1.5206
  538MOL0     H72611  -1.266   2.727  -0.352  1.1134  1.0818 -0.3312
  538MOL0     H72612  -0.690   3.479   0.241 -1.2329 -0.5249  2.4564
  538MOL0     H72613  -0.564   3.628   0.379 -3.6935 -1.8083 -2.2903
  538MOL0     H72614  -0.071   3.706   0.451  1.6638  2.1204 -0.5948
  538MOL0     H72615   0.088   3.857   0.500 -0.2440  0.2446 -2.1357
  538MOL0     H72616   1.604   4.331   0.801  3.0295 -0.3904  3.7466
  538MOL0     H72617   1.823   4.274   0.870  1.3405 -0.7216 -1.9723
  538MOL0     H72618   2.150   4.130   1.202 -1.1671  3.9561 -4.3736
  538MOL0     H72619   2.379   4.047   1.235  1.8045 -0.7125 -0.7452
  538MOL0     H72620   2.521   3.742   1.000  1.3415 -0.9585 -1.1696
  538MOL0     H72621   2.610   3.856   0.893 -1.5285  1.5781 -0.1042
  538MOL0     H72622   2.759   3.708   1.015  5.2670  2.6658 -2.0302
  538MOL0     H72623   2.714   3.761   1.173  0.7904 -4.4717 -1.5116
  538MOL0     H72624   2.779   3.985   1.146  2.6432  0.4865 -0.5052
  538MOL0     H72625   2.808   3.961   0.974  0.8842 -0.7586 -0.0553
  538MOL0     H72626   2.921   3.803   1.203 -1.5212  0.2809 -0.5905
  538MOL0     H72627   3.011   3.954   1.162 -1.8235  1.1445 -0.8680
  538MOL0     H72628   3.112   3.691   0.825  3.9921  0.5304  1.3593
  538MOL0     H72629   2.394   3.868   0.855  1.6655 -1.0103  1.0788
  538MOL0     H72630   2.145   3.933   0.818 -2.3138 -1.8591  0.9227
  539MOL0     O72631   3.072   1.161   5.944  0.1057  0.4502  0.1486
  539MOL0     C72632   3.175   1.097   5.945 -0.4187  0.3898  0.2182
  539MOL0     O72633   3.196   0.962   5.930 -0.2671 -0.0045 -0.2906
  539MOL0     C72634   3.086   0.885   5.932 -0.9407 -0.4987 -0.6169
  539MOL0     C72635   2.987   0.897   5.831 -0.5917  0.2523  1.3711
  539MOL0     C72636   2.877   0.815   5.822 -0.2661 -0.3619  0.3365
  539MOL0     C72637   2.847   0.728   5.924  0.9922 -0.2981 -0.6340
  539MOL0     O72638   2.756   0.628   5.927 -0.2800 -0.1808 -0.0856
  539MOL0     C72639   2.625   0.687   5.950 -0.2322 -0.1417  0.8077
  539MOL0     C72640   2.508   0.586   5.951 -0.2410 -0.1344 -0.2071
  539MOL0     C72641   2.380   0.661   5.939 -0.8145 -0.0976  0.6387
  539MOL0     C72642   2.337   0.678   5.797 -0.2051 -0.3064  0.6963
  539MOL0     C72643   2.226   0.786   5.783 -0.3988 -0.5899 -0.0511
  539MOL0     C72644   2.123   0.746   5.678 -0.1990  0.3641  0.9506
  539MOL0     C72645   2.000   0.843   5.691 -0.6794 -0.1017  0.9526
  539MOL0     C72646   1.911   0.819   5.567 -1.0456  0.7358 -0.4232
  539MOL0     N72647   1.795   0.906   5.548  1.1219  0.1145  0.1254
  539MOL0     C72648   1.671   0.894   5.614 -0.7099 -0.7307 -0.1014
  539MOL0     C72649   1.583   0.963   5.541  0.4807  0.3144 -0.5861
  539MOL0     C72650   1.435   0.931   5.536  0.1170 -0.1024 -0.2744
  539MOL0     C72651   1.348   1.050   5.539  1.3900 -0.6401  0.3517
  539MOL0     C72652   1.203   1.002   5.509  0.0664  0.5005 -0.0844
  539MOL0     C72653   1.138   0.909   5.619  0.6613  0.0513 -0.1125
  539MOL0     O72654   0.996   0.895   5.593  0.1436  0.4937 -0.4922
  539MOL0     C72655   0.911   0.831   5.691 -0.1735  0.3364 -0.3399
  539MOL0     C72656   0.955   0.736   5.786 -0.6336  0.2331 -0.4451
  539MOL0     C72657   0.873   0.672   5.883  0.0823 -1.5769  0.5003
  539MOL0     C72658   0.944   0.581   5.975  0.5903 -0.2264 -0.6864
  539MOL0     C72659   0.737   0.705   5.876 -1.1878  0.0752 -1.0029
  539MOL0     C72660   0.636   0.649   5.978  0.4889  0.3537 -0.5927
  539MOL0     O72661   0.516   0.699   5.977  0.0041  1.1896  0.5593
  539MOL0     C72662   0.416   0.630   6.041 -0.3133  0.4500 -0.9717
  539MOL0     C72663   0.366   0.509   5.981  0.1949  0.3652  0.4444
  539MOL0     C72664   0.262   0.435   6.038  0.1080 -0.2425  0.4752
  539MOL0     C72665   0.203   0.485   6.155  0.4674  0.1046  0.5662
  539MOL0     O72666   0.082   0.445   6.200  0.6262 -0.1325  0.0784
  539MOL0     C72667  -0.004   0.381   6.110 -0.1461 -0.4785 -0.7031
  539MOL0     C72668  -0.141   0.368   6.178 -1.1104  0.1566  0.3719
  539MOL0     C72669  -0.133   0.279   6.307 -0.1138  0.2361  0.1629
  539MOL0     C72670  -0.274   0.251   6.363  0.5819 -1.1711  0.2026
  539MOL0     C72671  -0.283   0.165   6.490  0.5702  0.3783 -0.1611
  539MOL0     C72672  -0.431   0.159   6.535  0.6055 -0.5105 -0.1325
  539MOL0     C72673  -0.500   0.044   6.472 -0.6560  0.2013 -0.0231
  539MOL0     C72674  -0.623  -0.005   6.549 -0.9145  0.1498 -0.2557
  539MOL0    Cl72675  -0.755   0.115   6.526  0.3053 -0.0772  0.1277
  539MOL0     C72676   0.265   0.589   6.225  0.0089 -0.1452  0.2689
  539MOL0     C72677   0.374   0.667   6.166 -0.2435  0.1811 -0.7772
  539MOL0     O72678   0.672   0.573   6.066 -0.3646 -0.6076  0.2486
  539MOL0     C72679   0.689   0.796   5.775 -0.2335  0.2507 -0.2470
  539MOL0     C72680   0.777   0.850   5.691  0.7115 -0.2389  0.2656
  539MOL0     N72681   1.648   1.024   5.437 -0.2751 -0.0771 -0.4637
  539MOL0     N72682   1.771   0.987   5.442 -0.0179 -0.1531  0.6619
  539MOL0     C72683   2.937   0.732   6.035  0.6407 -0.7080 -0.1748
  539MOL0     C72684   3.061   0.799   6.037 -0.3592  0.4390 -0.6592
  539MOL0     C72685   3.298   1.182   5.964 -0.8289 -0.0148  0.7660
  539MOL0     C72686   3.425   1.125   5.970 -0.2491  0.0026 -0.4252
  539MOL0     C72687   3.548   1.201   6.003 -0.2727 -0.6179  0.6357
  539MOL0     C72688   3.534   1.338   6.009  0.7331 -0.5276 -0.5751
  539MOL0     O72689   3.635   1.428   6.039  0.1855  0.3769  0.1213
  539MOL0     C72690   3.768   1.376   6.049 -0.4868 -0.0253 -0.5608
  539MOL0     C72691   3.874   1.479   6.073 -0.9460 -0.0517 -0.0183
  539MOL0     C72692   4.010   1.415   6.034  0.0889 -0.4729 -0.4165
  539MOL0     C72693   4.113   1.522   6.057  0.8200 -0.2783  0.5081
  539MOL0     C72694   4.247   1.468   6.070  0.3974  0.5121 -0.3567
  539MOL0     C72695   4.356   1.429   6.099 -0.1507 -0.6372 -0.2034
  539MOL0     C72696   3.403   1.400   5.989 -0.6252  0.6338 -0.1776
  539MOL0     C72697   3.292   1.317   5.974 -0.0254  0.0300 -0.7312
  539MOL0     H72698   3.017   0.963   5.750  1.1670 -3.0804 -0.9430
  539MOL0     H72699   2.810   0.811   5.736 -0.8979 -1.2459  0.8588
  539MOL0     H72700   2.625   0.740   6.045 -0.3083  0.2157  0.6088
  539MOL0     H72701   2.599   0.762   5.875 -0.0841 -1.1258 -0.2525
  539MOL0     H72702   2.522   0.522   5.863 -2.8371 -0.7286 -0.2649
  539MOL0     H72703   2.514   0.518   6.036 -0.1337 -1.5538 -1.2956
  539MOL0     H72704   2.307   0.599   5.992 -0.7278 -3.7245 -2.9790
  539MOL0     H72705   2.391   0.758   5.987 -1.8109  0.0614  0.5671
  539MOL0     H72706   2.421   0.706   5.733 -1.2262  2.1715  0.3139
  539MOL0     H72707   2.312   0.577   5.763 -0.0047 -0.5977  1.3968
  539MOL0     H72708   2.178   0.789   5.881  0.8819 -3.4104  0.7580
  539MOL0     H72709   2.263   0.886   5.760 -5.9771  1.3982 -2.2050
  539MOL0     H72710   2.163   0.737   5.577  0.1926 -2.2579  1.2519
  539MOL0     H72711   2.091   0.650   5.719  2.0581 -0.8143  0.1182
  539MOL0     H72712   1.934   0.830   5.777 -3.1058 -0.8629 -0.9091
  539MOL0     H72713   2.034   0.947   5.689  0.0676 -0.3329 -1.4129
  539MOL0     H72714   1.872   0.716   5.571 -3.3429  1.5615  1.5927
  539MOL0     H72715   1.968   0.819   5.474  0.3293  0.0574  0.3863
  539MOL0     H72716   1.660   0.817   5.690  2.1840 -1.8927 -0.7302
  539MOL0     H72717   1.419   0.859   5.455  0.2853  0.9627 -1.2888
  539MOL0     H72718   1.422   0.864   5.621  1.3504 -0.6814 -0.5159
  539MOL0     H72719   1.373   1.126   5.465  0.4454 -1.7907 -1.1866
  539MOL0     H72720   1.352   1.111   5.630 -0.1045  0.9558 -0.5912
  539MOL0     H72721   1.208   0.953   5.412  2.0572  2.7893 -1.2328
  539MOL0     H72722   1.137   1.090   5.507  0.0917  0.5704  1.1080
  539MOL0     H72723   1.157   0.953   5.717  2.0357 -0.1417 -0.2613
  539MOL0     H72724   1.180   0.808   5.620 -1.1664 -0.7855  2.4607
  539MOL0     H72725   1.059   0.704   5.777 -0.4270  0.5078  0.8324
  539MOL0     H72726   0.905   0.478   5.976 -1.4235  0.4838  0.3466
  539MOL0     H72727   1.052   0.579   5.960  1.0340 -2.1662  2.1063
  539MOL0     H72728   0.925   0.609   6.079 -2.1488  0.6963 -1.3474
  539MOL0     H72729   0.405   0.485   5.883 -1.0151  0.4500 -0.0661
  539MOL0     H72730   0.216   0.361   5.974  0.4993  0.1729 -0.3048
  539MOL0     H72731  -0.028   0.438   6.020 -0.2332 -0.1171 -0.4559
  539MOL0     H72732   0.036   0.282   6.089 -1.4971 -1.2769  0.3217
  539MOL0     H72733  -0.172   0.472   6.194 -1.7070 -0.1950  1.5710
  539MOL0     H72734  -0.211   0.323   6.107 -2.8581 -2.6651  3.6355
  539MOL0     H72735  -0.069   0.332   6.378 -0.6444  0.1566  0.7080
  539MOL0     H72736  -0.087   0.188   6.267 -1.7812 -0.4717 -0.2459
  539MOL0     H72737  -0.319   0.344   6.399  2.7260  0.2629 -0.6162
  539MOL0     H72738  -0.337   0.205   6.286  0.8507 -0.9527 -0.1514
  539MOL0     H72739  -0.210   0.195   6.566 -0.8687 -0.1363  1.5001
  539MOL0     H72740  -0.251   0.066   6.456 -1.7180 -1.9640  3.6460
  539MOL0     H72741  -0.434   0.152   6.644  2.1869  0.8089  0.0326
  539MOL0     H72742  -0.475   0.257   6.517  0.2609 -0.1452  2.3660
  539MOL0     H72743  -0.438  -0.043   6.450 -0.9068 -0.0024  0.0680
  539MOL0     H72744  -0.543   0.078   6.378  1.9709  0.5325 -1.1839
  539MOL0     H72745  -0.599  -0.028   6.653 -0.2407 -3.2456 -1.0440
  539MOL0     H72746  -0.663  -0.097   6.505 -1.8053  0.7369 -0.7172
  539MOL0     H72747   0.236   0.601   6.329  2.5593  0.7127  0.9675
  539MOL0     H72748   0.432   0.741   6.221 -3.4529  2.7703 -0.5447
  539MOL0     H72749   0.585   0.828   5.770  0.5896  3.0061 -1.1278
  539MOL0     H72750   0.717   0.921   5.634 -1.6227  1.5918  4.5078
  539MOL0     H72751   2.905   0.662   6.112  2.1831 -0.2369  0.9522
  539MOL0     H72752   3.131   0.782   6.118 -0.9081  1.8280  0.1544
  539MOL0     H72753   3.433   1.018   5.955 -1.7730 -0.5065  2.0030
  539MOL0     H72754   3.641   1.149   6.021  1.1441  2.3041  2.5862
  539MOL0     H72755   3.784   1.313   6.137  1.6770 -0.9974 -1.5800
  539MOL0     H72756   3.791   1.312   5.963 -0.5164  1.3108 -1.5874
  539MOL0     H72757   3.866   1.523   6.173  1.9105  1.0307 -0.1576
  539MOL0     H72758   3.850   1.561   6.005  1.8171 -0.4586 -1.6518
  539MOL0     H72759   3.991   1.386   5.930 -2.9196  0.5539 -0.2498
  539MOL0     H72760   4.036   1.333   6.102  0.2443 -1.8813 -2.0989
  539MOL0     H72761   4.092   1.584   6.145  2.0683 -0.4106  0.9186
  539MOL0     H72762   4.115   1.589   5.971  3.2212  0.5276  1.0978
  539MOL0     H72763   4.459   1.416   6.126  0.1336  0.1028 -0.8867
  539MOL0     H72764   3.385   1.507   5.999 -1.4182  0.7702 -2.5517
  539MOL0     H72765   3.195   1.365   5.971 -0.5118 -0.7630  0.8833
  540MOL0     O72766  10.754   4.569   5.651  0.6837  0.9454  0.8259
  540MOL0     C72767  10.832   4.639   5.708 -0.5178 -0.4553 -0.5247
  540MOL0     O72768  10.799   4.719   5.813 -0.4519 -0.2272 -0.3456
  540MOL0     C72769  10.671   4.716   5.862  0.1229 -0.3792 -0.0683
  540MOL0     C72770  10.665   4.714   5.995  0.5216 -0.4439 -0.6471
  540MOL0     C72771  10.546   4.716   6.052 -0.5878 -0.2948  0.0322
  540MOL0     C72772  10.426   4.733   5.981 -0.4995 -0.7247 -0.2117
  540MOL0     O72773  10.309   4.767   6.040  0.4449 -0.2810  0.2022
  540MOL0     C72774  10.264   4.663   6.133  0.0552 -1.2873  0.7221
  540MOL0     C72775  10.135   4.706   6.190  0.3708  0.2882  0.2824
  540MOL0     C72776  10.131   4.657   6.335  0.4760 -0.2754 -0.5483
  540MOL0     C72777   9.995   4.676   6.406  1.0067 -0.1940 -0.3593
  540MOL0     C72778   9.993   4.667   6.558  0.6676 -0.1845  0.1251
  540MOL0     C72779  10.015   4.519   6.590 -1.0396 -0.3978 -0.2536
  540MOL0     C72780  10.042   4.511   6.744 -0.3521 -0.4691 -0.0403
  540MOL0     C72781  10.091   4.372   6.776 -0.3002  0.3770 -0.9959
  540MOL0     N72782  10.002   4.257   6.760 -0.0435  0.1521 -0.3150
  540MOL0     C72783   9.883   4.238   6.826  0.9167  0.6989  0.3994
  540MOL0     C72784   9.836   4.123   6.764  0.6584  0.7292 -0.6379
  540MOL0     C72785   9.690   4.069   6.779 -0.1165  0.1923 -0.2738
  540MOL0     C72786   9.648   4.025   6.919  0.5145  0.5813  0.0052
  540MOL0     C72787   9.563   4.128   6.989  0.7870  0.3826 -0.0397
  540MOL0     C72788   9.536   4.081   7.133  0.1779  0.6486  0.0039
  540MOL0     O72789   9.439   3.978   7.149 -0.3601 -0.3357  0.6688
  540MOL0     C72790   9.379   3.967   7.274  1.1046  0.2130  1.0607
  540MOL0     C72791   9.439   3.990   7.399  0.1806 -0.6727  0.2126
  540MOL0     C72792   9.382   3.959   7.513  0.6196  0.3877 -0.0793
  540MOL0     C72793   9.465   3.983   7.635 -0.5036 -0.7464 -0.2396
  540MOL0     C72794   9.245   3.913   7.510 -0.2102 -0.4941 -0.3695
  540MOL0     C72795   9.174   3.896   7.638 -0.0073 -0.1698  0.1632
  540MOL0     O72796   9.239   3.822   7.734  0.4791 -0.6601  0.5133
  540MOL0     C72797   9.166   3.794   7.844 -0.3151 -0.1548 -0.0855
  540MOL0     C72798   9.209   3.839   7.976  0.2135 -0.0687 -0.2269
  540MOL0     C72799   9.154   3.792   8.102  0.4440  0.5824  0.8714
  540MOL0     C72800   9.045   3.700   8.091  0.3908  0.0550 -0.6114
  540MOL0     O72801   8.981   3.638   8.192 -0.1989 -0.2463 -0.6405
  540MOL0     C72802   9.020   3.679   8.325 -0.7232  0.7169 -0.4892
  540MOL0     C72803   8.926   3.602   8.434 -0.3549  0.1911  0.2008
  540MOL0     C72804   8.962   3.641   8.579 -0.2996  1.1808 -0.0356
  540MOL0     C72805   8.863   3.590   8.693 -1.0541  0.4481 -0.1363
  540MOL0     C72806   8.877   3.692   8.812  0.7227  0.4181 -0.0128
  540MOL0     C72807   8.831   3.625   8.947  0.1179  0.0443  0.2903
  540MOL0     C72808   8.679   3.610   8.958 -0.0871 -0.5801 -0.0547
  540MOL0     C72809   8.634   3.562   9.093 -0.2266  0.0634  0.2457
  540MOL0    Cl72810   8.700   3.655   9.229 -0.2176  0.2992  0.0495
  540MOL0     C72811   8.994   3.669   7.958  0.2755  0.0059  0.2762
  540MOL0     C72812   9.058   3.711   7.843 -0.4328 -0.5389 -0.2544
  540MOL0     O72813   9.056   3.937   7.640 -0.4138  0.8159 -0.4185
  540MOL0     C72814   9.182   3.887   7.392  0.1092 -1.1105  0.0283
  540MOL0     C72815   9.248   3.923   7.275  0.5265 -1.0919  0.6784
  540MOL0     N72816   9.910   4.091   6.662 -0.1062 -0.2933  0.1655
  540MOL0     N72817  10.015   4.173   6.653 -0.4718 -0.7649 -0.5299
  540MOL0     C72818  10.442   4.726   5.847 -0.4693 -0.4228 -0.7884
  540MOL0     C72819  10.558   4.717   5.780  0.0585  0.5250  0.4710
  540MOL0     C72820  10.970   4.664   5.653  0.5949 -0.2689 -0.4872
  540MOL0     C72821  11.039   4.773   5.697  0.2986  0.2343  0.0485
  540MOL0     C72822  11.166   4.803   5.638 -0.3364 -0.0647 -0.3445
  540MOL0     C72823  11.225   4.723   5.542  0.2111 -0.2486  0.0826
  540MOL0     O72824  11.354   4.742   5.501 -0.2910  0.2505 -0.0565
  540MOL0     C72825  11.372   4.703   5.362 -0.1026  0.5078  0.1173
  540MOL0     C72826  11.439   4.822   5.301 -0.2888  1.0733 -0.4766
  540MOL0     C72827  11.586   4.845   5.348  0.8837 -0.2309  0.5227
  540MOL0     C72828  11.637   4.950   5.255  1.5122 -0.0184 -0.2075
  540MOL0     C72829  11.767   5.000   5.287  0.8183 -0.6287  0.5561
  540MOL0     C72830  11.883   5.040   5.295 -0.3356  0.2203  0.6193
  540MOL0     C72831  11.149   4.613   5.503  0.7447 -0.3151  0.0437
  540MOL0     C72832  11.023   4.582   5.556  0.1017  1.5249  0.2028
  540MOL0     H72833  10.757   4.699   6.049  0.3294  2.7916  0.8559
  540MOL0     H72834  10.527   4.714   6.159 -1.8644  2.4043 -0.0560
  540MOL0     H72835  10.258   4.569   6.078 -2.7428 -2.0995  2.2252
  540MOL0     H72836  10.332   4.662   6.219  2.1320 -1.0226 -0.8247
  540MOL0     H72837  10.136   4.816   6.186  2.5048  0.3003  0.3830
  540MOL0     H72838  10.054   4.656   6.135 -1.0857  0.5668  2.0520
  540MOL0     H72839  10.151   4.550   6.330  0.9254 -0.3940  2.0789
  540MOL0     H72840  10.215   4.699   6.393 -1.3809  1.7674  0.8561
  540MOL0     H72841   9.949   4.771   6.377  2.4128  1.0071  1.1543
  540MOL0     H72842   9.928   4.601   6.363  2.5800 -1.3147 -0.9477
  540MOL0     H72843  10.080   4.723   6.594  1.2403 -0.4016 -0.8973
  540MOL0     H72844   9.902   4.706   6.605 -0.8093  1.6521 -3.7867
  540MOL0     H72845   9.934   4.459   6.547 -2.9499  3.2308 -2.2565
  540MOL0     H72846  10.105   4.482   6.540 -0.8891  0.4447 -0.6267
  540MOL0     H72847  10.128   4.574   6.769  1.5301 -0.9626 -4.4067
  540MOL0     H72848   9.956   4.541   6.804 -0.5577 -2.1227  0.5555
  540MOL0     H72849  10.125   4.369   6.880 -1.8991 -2.3375 -0.4330
  540MOL0     H72850  10.181   4.358   6.715 -0.3555  0.2831 -1.0567
  540MOL0     H72851   9.844   4.300   6.905 -0.8154 -1.1335  1.0653
  540MOL0     H72852   9.627   4.156   6.761  0.9255  1.6817  2.6114
  540MOL0     H72853   9.671   3.995   6.701 -1.6118  1.6013 -1.2891
  540MOL0     H72854   9.731   4.004   6.988 -1.2147 -0.2450  1.9199
  540MOL0     H72855   9.589   3.933   6.917  0.1848  0.7973 -0.1207
  540MOL0     H72856   9.469   4.133   6.933  0.8317  2.0714 -0.0241
  540MOL0     H72857   9.601   4.231   6.988 -0.1708  0.7616  0.5906
  540MOL0     H72858   9.502   4.169   7.190 -2.7558  0.3544 -1.1343
  540MOL0     H72859   9.637   4.062   7.171  0.1954 -0.3452 -0.5235
  540MOL0     H72860   9.544   4.015   7.408  0.1682 -0.3425 -0.4950
  540MOL0     H72861   9.469   3.888   7.690 -1.5341  0.2840  1.7187
  540MOL0     H72862   9.567   4.019   7.617  0.1247 -1.4183  1.6674
  540MOL0     H72863   9.408   4.061   7.687  3.3097  3.3011 -1.5171
  540MOL0     H72864   9.290   3.911   7.976  1.5112 -1.4380 -1.8093
  540MOL0     H72865   9.199   3.822   8.196 -1.4899 -0.2347  2.1094
  540MOL0     H72866   9.126   3.669   8.347 -0.4190  3.8464  0.0445
  540MOL0     H72867   8.989   3.784   8.335 -0.0559  0.8288  0.5683
  540MOL0     H72868   8.825   3.640   8.417 -0.5511 -0.6619 -0.5854
  540MOL0     H72869   8.923   3.496   8.407 -3.6337  0.7990 -2.4725
  540MOL0     H72870   8.965   3.750   8.589 -0.6014  1.3829 -1.8328
  540MOL0     H72871   9.056   3.587   8.598  0.1199  1.7506 -0.4733
  540MOL0     H72872   8.760   3.577   8.659 -0.1815 -3.1364 -1.9345
  540MOL0     H72873   8.902   3.491   8.719 -0.5567  0.7221  0.1809
  540MOL0     H72874   8.825   3.787   8.798 -0.7151 -0.4865 -1.1744
  540MOL0     H72875   8.981   3.722   8.825  0.5658  1.9325 -1.8486
  540MOL0     H72876   8.880   3.527   8.950  1.5874  0.7845  2.2598
  540MOL0     H72877   8.865   3.683   9.033  0.7201  1.6830 -1.0113
  540MOL0     H72878   8.634   3.555   8.875  0.3127 -0.0665 -0.6238
  540MOL0     H72879   8.626   3.705   8.951  1.4735  0.4704  1.3655
  540MOL0     H72880   8.666   3.458   9.102  0.5148  0.3175  0.6534
  540MOL0     H72881   8.525   3.578   9.096 -0.2052  1.4135 -2.5630
  540MOL0     H72882   8.917   3.593   7.956  1.1037 -0.8617  0.3004
  540MOL0     H72883   9.012   3.695   7.746 -0.8665 -3.6830  0.3659
  540MOL0     H72884   9.079   3.854   7.396  0.3626 -1.9609 -0.2875
  540MOL0     H72885   9.206   3.897   7.179  2.8100 -2.2525 -0.0939
  540MOL0     H72886  10.348   4.729   5.793 -1.6196 -1.3958  1.0739
  540MOL0     H72887  10.564   4.712   5.671  0.6164 -1.6102  0.5611
  540MOL0     H72888  11.015   4.842   5.778  2.1733 -0.5162  1.3254
  540MOL0     H72889  11.217   4.894   5.668  3.0536 -1.0227 -2.6971
  540MOL0     H72890  11.428   4.610   5.348 -0.4096  0.6980 -2.8676
  540MOL0     H72891  11.287   4.685   5.296  2.8053  0.5711 -3.9927
  540MOL0     H72892  11.383   4.909   5.338 -0.0651 -0.0208  2.8112
  540MOL0     H72893  11.442   4.811   5.193 -1.1605 -1.2938 -0.3203
  540MOL0     H72894  11.645   4.753   5.348  0.5821 -0.4255  0.2774
  540MOL0     H72895  11.589   4.890   5.448  0.5417 -1.0064  0.8926
  540MOL0     H72896  11.578   5.041   5.266  2.6398  0.6223  0.7256
  540MOL0     H72897  11.630   4.911   5.153 -0.1306  0.2828 -0.2395
  540MOL0     H72898  11.985   5.073   5.297 -0.6429  2.0004 -3.1843
  540MOL0     H72899  11.179   4.545   5.424 -2.7546  1.7090 -3.3778
  540MOL0     H72900  10.967   4.497   5.516  2.1665 -0.3156  1.0424
  541MOL0     O72901   5.170   7.573   7.757  0.4699  0.6301 -0.7184
  541MOL0     C72902   5.275   7.625   7.738  0.3635 -0.0481  0.0124
  541MOL0     O72903   5.291   7.754   7.687  0.0362 -0.0223  0.6741
  541MOL0     C72904   5.179   7.835   7.700  1.2552 -0.6952  0.1186
  541MOL0     C72905   5.123   7.905   7.593 -0.1121  0.2655 -0.2828
  541MOL0     C72906   5.022   7.999   7.607 -0.3152 -0.2740  0.8144
  541MOL0     C72907   4.966   8.032   7.734 -0.8788  0.4309  1.0414
  541MOL0     O72908   4.877   8.133   7.747  0.7467  0.2656  0.0059
  541MOL0     C72909   4.943   8.267   7.748 -0.6656  0.4819 -0.7908
  541MOL0     C72910   4.836   8.360   7.801  0.5363  0.9954  0.6865
  541MOL0     C72911   4.816   8.349   7.947 -0.1175 -0.0338 -0.0882
  541MOL0     C72912   4.682   8.409   8.002 -0.2011 -0.4905  0.0994
  541MOL0     C72913   4.650   8.560   7.952 -0.8802  0.6215 -0.6135
  541MOL0     C72914   4.750   8.659   8.032 -0.1523 -0.2773 -0.4730
  541MOL0     C72915   4.745   8.806   7.975  0.0354  0.4942  0.9486
  541MOL0     C72916   4.595   8.851   7.926 -0.2334  1.0572 -0.4937
  541MOL0     N72917   4.497   8.882   8.033 -0.6839 -0.2330 -0.4268
  541MOL0     C72918   4.526   8.905   8.173 -0.4029  0.5973  0.3238
  541MOL0     C72919   4.412   8.939   8.231  0.0781 -0.0233 -0.3608
  541MOL0     C72920   4.405   8.971   8.370  0.3646 -0.1227 -0.7613
  541MOL0     C72921   4.399   8.843   8.460  0.2002 -0.3957 -0.5319
  541MOL0     C72922   4.387   8.894   8.606 -0.3477 -0.7578  0.1346
  541MOL0     C72923   4.405   8.780   8.707 -0.5025  0.0509 -0.2705
  541MOL0     O72924   4.324   8.669   8.676  0.6865  0.6225 -0.4160
  541MOL0     C72925   4.181   8.673   8.689  0.2526 -0.0122 -0.5051
  541MOL0     C72926   4.110   8.570   8.641  0.6074 -0.2078 -0.1405
  541MOL0     C72927   3.970   8.548   8.668 -0.6178 -0.2417 -0.0647
  541MOL0     C72928   3.906   8.427   8.609 -0.3883  0.6537 -0.9329
  541MOL0     C72929   3.901   8.636   8.740  0.1288 -0.3025  0.2732
  541MOL0     C72930   3.760   8.618   8.781  0.1503  0.0458  0.2826
  541MOL0     O72931   3.685   8.729   8.799 -0.6045  0.5919 -0.2178
  541MOL0     C72932   3.564   8.710   8.858  0.1291 -0.2154 -0.0574
  541MOL0     C72933   3.451   8.749   8.778 -1.0171  0.4251 -0.3146
  541MOL0     C72934   3.328   8.767   8.839  0.1177  0.8868 -0.2429
  541MOL0     C72935   3.320   8.752   8.975  0.6493  0.6919 -0.9220
  541MOL0     O72936   3.211   8.782   9.051  0.1721  0.7522  0.0553
  541MOL0     C72937   3.083   8.786   8.993 -0.3542  0.8279 -0.0416
  541MOL0     C72938   2.982   8.801   9.112  0.4367 -0.7752  0.2714
  541MOL0     C72939   2.841   8.810   9.059  0.1128  0.2203  0.8412
  541MOL0     C72940   2.743   8.776   9.174  0.0596 -0.5186  0.7942
  541MOL0     C72941   2.594   8.808   9.141  0.1100 -0.1417  0.0205
  541MOL0     C72942   2.520   8.911   9.227 -0.5100 -0.5350 -0.3736
  541MOL0     C72943   2.376   8.917   9.168 -0.3451 -0.5362  0.2284
  541MOL0     C72944   2.275   8.960   9.280 -0.3951  0.5041 -0.5268
  541MOL0    Cl72945   2.248   8.840   9.415 -0.0532  0.2720  0.4823
  541MOL0     C72946   3.435   8.720   9.058 -0.0388  0.1705  0.4242
  541MOL0     C72947   3.553   8.701   8.991  0.7919  0.6831 -0.3088
  541MOL0     O72948   3.735   8.508   8.828  0.0080 -0.3484  0.1712
  541MOL0     C72949   3.972   8.752   8.782  0.1224  0.0148  1.4116
  541MOL0     C72950   4.108   8.770   8.754 -0.2845 -0.4274  0.2124
  541MOL0     N72951   4.313   8.930   8.134 -0.3983  0.5213  0.1924
  541MOL0     N72952   4.362   8.899   8.012 -0.2053 -1.0373  0.0168
  541MOL0     C72953   5.012   7.955   7.843  0.0529 -0.0168 -0.1957
  541MOL0     C72954   5.123   7.865   7.827  0.5157 -0.9060 -0.5464
  541MOL0     C72955   5.393   7.547   7.781 -0.7679 -0.3190  0.2829
  541MOL0     C72956   5.520   7.611   7.806  0.1096 -0.5928  1.2058
  541MOL0     C72957   5.628   7.548   7.864 -0.0323  0.7270 -0.0099
  541MOL0     C72958   5.627   7.411   7.875  0.2019  1.0454 -0.3170
  541MOL0     O72959   5.749   7.355   7.902 -0.2135  0.4784  0.2840
  541MOL0     C72960   5.786   7.245   7.831  0.7138 -0.9381 -0.8379
  541MOL0     C72961   5.936   7.221   7.838  0.8841 -0.2897  0.4639
  541MOL0     C72962   6.017   7.323   7.762  0.4223  0.6100 -0.2745
  541MOL0     C72963   5.987   7.312   7.609  1.0086  0.7878 -0.3887
  541MOL0     C72964   6.101   7.366   7.532  0.0781  0.1032  0.1963
  541MOL0     C72965   6.195   7.422   7.479 -0.0202  0.6711  0.2054
  541MOL0     C72966   5.506   7.341   7.849  0.2704 -0.3964  0.4547
  541MOL0     C72967   5.391   7.403   7.801  0.0689 -0.5597  0.0620
  541MOL0     H72968   5.165   7.880   7.496  1.0493 -1.6000  0.6343
  541MOL0     H72969   4.991   8.038   7.511  1.7617 -3.1708 -1.1737
  541MOL0     H72970   5.038   8.268   7.803  1.4520 -0.5105 -4.1741
  541MOL0     H72971   4.973   8.291   7.646 -1.0913  3.3448 -0.3285
  541MOL0     H72972   4.870   8.462   7.780 -0.4202  1.4267  1.1462
  541MOL0     H72973   4.740   8.330   7.758 -0.2170 -1.1681  3.6012
  541MOL0     H72974   4.813   8.241   7.968  0.6040  0.0040  0.2254
  541MOL0     H72975   4.897   8.406   7.992  0.0588  1.3278 -2.0171
  541MOL0     H72976   4.597   8.348   7.970  2.1159 -2.2693 -3.2366
  541MOL0     H72977   4.683   8.402   8.111 -0.7707  0.7617  0.2001
  541MOL0     H72978   4.665   8.567   7.844 -0.5690  0.5878 -0.5757
  541MOL0     H72979   4.550   8.592   7.982 -0.7203 -0.7068  1.5514
  541MOL0     H72980   4.730   8.655   8.139 -0.1621 -3.0403 -0.5094
  541MOL0     H72981   4.852   8.621   8.025 -1.9297 -6.4248  0.7487
  541MOL0     H72982   4.784   8.879   8.046  0.6925 -0.3416  1.4708
  541MOL0     H72983   4.804   8.810   7.882 -2.2348  1.3135 -0.5404
  541MOL0     H72984   4.551   8.782   7.852  2.1897 -0.5391 -0.5578
  541MOL0     H72985   4.599   8.951   7.883  2.1331  1.4333  0.4946
  541MOL0     H72986   4.624   8.901   8.217 -1.0286  0.4640  1.7565
  541MOL0     H72987   4.490   9.033   8.397 -0.6945  0.4993  1.3891
  541MOL0     H72988   4.317   9.032   8.395 -0.0710 -1.3783  1.0150
  541MOL0     H72989   4.492   8.786   8.449 -0.4253 -1.8992  1.4085
  541MOL0     H72990   4.319   8.773   8.435  1.4599 -2.0364 -0.1665
  541MOL0     H72991   4.293   8.947   8.622  0.7949  1.3660  0.2285
  541MOL0     H72992   4.460   8.969   8.640 -1.8720  0.1088  1.6510
  541MOL0     H72993   4.369   8.816   8.804 -0.2021 -0.4101  0.0169
  541MOL0     H72994   4.510   8.751   8.705 -0.4515  0.1706 -3.2089
  541MOL0     H72995   4.160   8.485   8.597 -1.0033 -0.8391 -0.8556
  541MOL0     H72996   3.869   8.359   8.686 -0.8396 -1.4720 -2.9219
  541MOL0     H72997   3.837   8.457   8.531  2.8364  1.7085 -3.6031
  541MOL0     H72998   3.979   8.361   8.560 -2.9139 -2.3322 -0.9561
  541MOL0     H72999   3.455   8.780   8.674 -2.8756 -0.4992 -0.7013
  541MOL0     H73000   3.246   8.808   8.781  1.4815  2.0438 -1.4212
  541MOL0     H73001   3.073   8.860   8.913 -2.0372  1.2228  0.4968
  541MOL0     H73002   3.077   8.687   8.947 -0.1647 -0.9474  3.4070
  541MOL0     H73003   2.996   8.721   9.186 -0.6711  0.8114  2.3091
  541MOL0     H73004   2.992   8.901   9.156  0.8609 -1.4361  1.7675
  541MOL0     H73005   2.808   8.738   8.983  1.1247  0.2699  0.3455
  541MOL0     H73006   2.818   8.903   9.007 -3.5711 -1.7079 -1.4288
  541MOL0     H73007   2.757   8.673   9.209 -0.0360 -0.0177  2.4367
  541MOL0     H73008   2.766   8.829   9.267 -5.1321  2.5352  0.7332
  541MOL0     H73009   2.532   8.718   9.149  0.1802 -0.2027 -0.1056
  541MOL0     H73010   2.577   8.848   9.040 -2.8521  0.0539  0.5277
  541MOL0     H73011   2.511   8.884   9.333 -5.0489 -0.6544 -0.6116
  541MOL0     H73012   2.581   9.002   9.229 -0.6853 -0.3564 -1.8670
  541MOL0     H73013   2.337   8.817   9.143 -3.4773  0.4271  0.7471
  541MOL0     H73014   2.382   8.982   9.081  1.5515 -1.5451 -0.4478
  541MOL0     H73015   2.176   8.978   9.237 -0.8167 -3.5456 -1.7180
  541MOL0     H73016   2.316   9.048   9.330  1.8418 -1.3193  1.0581
  541MOL0     H73017   3.433   8.707   9.165  0.0626  1.3305  0.5770
  541MOL0     H73018   3.641   8.674   9.048  0.0664 -0.6277  0.2546
  541MOL0     H73019   3.923   8.828   8.842  1.1567  0.0591  2.2351
  541MOL0     H73020   4.162   8.859   8.785  0.8074 -1.3763  1.1476
  541MOL0     H73021   4.984   7.975   7.946  1.0524  2.8503 -0.3839
  541MOL0     H73022   5.160   7.814   7.915 -2.0625 -3.1866 -0.6552
  541MOL0     H73023   5.526   7.719   7.794  1.9379 -0.6793  1.0662
  541MOL0     H73024   5.719   7.607   7.875  0.4664  0.4221 -2.0705
  541MOL0     H73025   5.749   7.154   7.881 -0.5103  0.4300  0.8460
  541MOL0     H73026   5.748   7.239   7.728 -0.6874  1.0505 -0.4844
  541MOL0     H73027   5.956   7.125   7.789 -0.2174 -0.3758  0.1531
  541MOL0     H73028   5.967   7.217   7.943  2.3876  0.2097  0.0668
  541MOL0     H73029   6.121   7.311   7.793 -0.3966 -0.6690  2.2476
  541MOL0     H73030   5.981   7.424   7.786  0.8998  0.9890 -1.1174
  541MOL0     H73031   5.891   7.362   7.593 -1.0641 -2.0952  2.0018
  541MOL0     H73032   5.967   7.207   7.588 -0.7988  1.1375 -0.5656
  541MOL0     H73033   6.279   7.472   7.437  0.6858 -0.1582  0.5940
  541MOL0     H73034   5.501   7.234   7.867 -1.9595 -0.1853  1.5041
  541MOL0     H73035   5.305   7.339   7.786  1.2004 -2.3512  0.7414
  542MOL0     O73036   3.323  10.065   4.401  0.9988  0.2315 -0.2512
  542MOL0     C73037   3.335  10.081   4.519 -0.0213  0.3799  0.0413
  542MOL0     O73038   3.245  10.068   4.621 -0.4669  0.1000  0.0350
  542MOL0     C73039   3.116  10.026   4.581 -0.3356  0.2095 -0.3999
  542MOL0     C73040   3.018  10.055   4.675  0.4851  1.2756 -1.3171
  542MOL0     C73041   2.889   9.996   4.664  0.2167  0.1346  0.4681
  542MOL0     C73042   2.852   9.915   4.560 -0.0681 -0.7226  1.0336
  542MOL0     O73043   2.714   9.877   4.556  0.0603  0.4713 -0.4415
  542MOL0     C73044   2.684   9.793   4.446  0.8434 -0.1581  0.3106
  542MOL0     C73045   2.526   9.773   4.443  0.7801 -0.0211  0.9741
  542MOL0     C73046   2.485   9.691   4.566 -0.2640 -0.1239 -0.0814
  542MOL0     C73047   2.519   9.540   4.554  0.5000  0.0360  0.1120
  542MOL0     C73048   2.433   9.458   4.650  0.1354 -0.3403  0.2254
  542MOL0     C73049   2.290   9.443   4.594  0.2112  0.5971  0.3800
  542MOL0     C73050   2.188   9.416   4.706  0.2095 -0.2716 -0.1528
  542MOL0     C73051   2.040   9.432   4.650  0.0992 -0.2122 -0.8064
  542MOL0     N73052   1.932   9.390   4.740 -0.9275 -0.1556  0.2261
  542MOL0     C73053   1.853   9.281   4.723  0.0053 -0.4788  0.0800
  542MOL0     C73054   1.754   9.290   4.806  0.2975 -0.2650  0.0566
  542MOL0     C73055   1.660   9.183   4.848 -0.2139 -0.5682  0.4731
  542MOL0     C73056   1.730   9.054   4.897  0.1238 -0.3021  0.3224
  542MOL0     C73057   1.720   9.051   5.050 -1.0355 -0.5101  0.0303
  542MOL0     C73058   1.801   8.940   5.101 -0.2934  0.5231 -0.4539
  542MOL0     O73059   1.743   8.816   5.058  0.8546 -0.2913 -0.4748
  542MOL0     C73060   1.621   8.764   5.101  0.2455 -0.4680 -0.1199
  542MOL0     C73061   1.558   8.799   5.232  1.1744  0.1649  1.0746
  542MOL0     C73062   1.449   8.733   5.275  0.0470  0.1599  0.3668
  542MOL0     C73063   1.390   8.782   5.406 -0.2536  0.3135  0.4438
  542MOL0     C73064   1.390   8.627   5.193 -0.0381  0.3652 -0.5067
  542MOL0     C73065   1.268   8.558   5.252 -0.6089 -0.6856  0.3605
  542MOL0     O73066   1.287   8.425   5.278 -0.1127 -0.3015  1.1041
  542MOL0     C73067   1.189   8.347   5.333 -0.5412 -0.2535 -0.2557
  542MOL0     C73068   1.158   8.227   5.269 -0.6486 -0.3758 -0.8589
  542MOL0     C73069   1.054   8.150   5.316  0.0537 -0.1051  0.4186
  542MOL0     C73070   0.976   8.183   5.433 -0.7056 -0.0994 -0.4953
  542MOL0     O73071   0.858   8.111   5.465 -0.2543 -0.6656  0.1965
  542MOL0     C73072   0.741   8.200   5.469  0.2678  0.6134  0.2333
  542MOL0     C73073   0.622   8.108   5.454 -0.2431 -0.0648  0.3159
  542MOL0     C73074   0.483   8.170   5.467  0.2801  0.7005 -0.1636
  542MOL0     C73075   0.449   8.307   5.409 -0.2175  0.6682 -0.0004
  542MOL0     C73076   0.472   8.320   5.261 -0.1359 -0.8644  0.1285
  542MOL0     C73077   0.449   8.457   5.207  0.4231  1.0088 -0.1270
  542MOL0     C73078   0.475   8.480   5.061  0.0721 -0.5069  0.4533
  542MOL0     C73079   0.433   8.619   5.007 -0.2942 -0.3503  0.1412
  542MOL0    Cl73080   0.520   8.651   4.850  0.2888 -0.0459 -0.1557
  542MOL0     C73081   1.013   8.303   5.494  0.8848  0.0788 -0.3493
  542MOL0     C73082   1.119   8.383   5.446 -0.1189 -0.3395 -0.4350
  542MOL0     O73083   1.168   8.615   5.252  0.4103  0.0308 -0.0741
  542MOL0     C73084   1.457   8.592   5.075  0.1692 -0.7016  1.2033
  542MOL0     C73085   1.571   8.663   5.025  1.2131  0.2600 -0.1045
  542MOL0     N73086   1.767   9.414   4.874  0.0743  0.1651  1.0754
  542MOL0     N73087   1.868   9.466   4.823  1.0564 -0.7921  0.1685
  542MOL0     C73088   2.950   9.892   4.464  0.9135 -0.1967 -0.2912
  542MOL0     C73089   3.082   9.943   4.472 -0.0223 -0.1674 -0.2196
  542MOL0     C73090   3.464  10.153   4.563 -0.6505  0.2757  0.6942
  542MOL0     C73091   3.484  10.195   4.693  0.1286  0.4664 -0.6278
  542MOL0     C73092   3.590  10.284   4.724  0.7400  0.5021 -0.4257
  542MOL0     C73093   3.691  10.311   4.638  0.2311  0.6386  0.6991
  542MOL0     O73094   3.780  10.411   4.670 -0.5873  0.9878 -0.3929
  542MOL0     C73095   3.898  10.418   4.592 -0.3036 -0.4170  0.7505
  542MOL0     C73096   4.003  10.317   4.635  0.2828  0.3130 -0.3589
  542MOL0     C73097   4.036  10.310   4.785 -0.1881  0.0551  0.7317
  542MOL0     C73098   4.035  10.443   4.862  0.7904  0.0774 -0.1242
  542MOL0     C73099   4.150  10.523   4.828 -0.3402 -0.1594  0.1668
  542MOL0     C73100   4.241  10.596   4.797  0.1511 -0.0989 -0.3721
  542MOL0     C73101   3.676  10.252   4.509 -0.2184 -0.4091 -0.0207
  542MOL0     C73102   3.561  10.189   4.471 -0.0384 -0.5659  0.3260
  542MOL0     H73103   3.041  10.127   4.752  3.6700 -1.1641  0.2703
  542MOL0     H73104   2.816  10.020   4.741  2.3778  1.3444  2.3191
  542MOL0     H73105   2.708   9.855   4.359  1.4995 -0.6234  0.1520
  542MOL0     H73106   2.754   9.709   4.442  2.4902  1.1584 -3.7527
  542MOL0     H73107   2.464   9.863   4.441 -2.0506 -1.8510  0.5186
  542MOL0     H73108   2.496   9.713   4.356 -0.9239  1.0529  0.7826
  542MOL0     H73109   2.525   9.751   4.648 -0.5931  1.9226 -1.3309
  542MOL0     H73110   2.376   9.701   4.579 -0.5358 -1.2899 -1.2291
  542MOL0     H73111   2.492   9.499   4.457 -2.9653  0.2499  0.8661
  542MOL0     H73112   2.627   9.525   4.569  0.8443  1.3018 -0.9015
  542MOL0     H73113   2.475   9.357   4.662  2.5081  0.5020 -0.4307
  542MOL0     H73114   2.437   9.498   4.752 -1.6164 -0.9170  0.5703
  542MOL0     H73115   2.256   9.528   4.535  0.0008 -0.5552 -1.2050
  542MOL0     H73116   2.294   9.355   4.530  0.0222  0.2837  0.7918
  542MOL0     H73117   2.203   9.320   4.756 -0.3130  0.4414  1.4469
  542MOL0     H73118   2.209   9.489   4.785  2.0667  0.9170 -1.6361
  542MOL0     H73119   2.021   9.374   4.560 -1.1460 -0.9590 -0.0992
  542MOL0     H73120   2.032   9.538   4.623  0.0767 -0.9849 -4.2946
  542MOL0     H73121   1.859   9.197   4.655  1.7592  1.1600 -1.9527
  542MOL0     H73122   1.594   9.223   4.926 -1.0115  2.0415 -1.4232
  542MOL0     H73123   1.591   9.167   4.765 -0.1644 -0.4472  0.4085
  542MOL0     H73124   1.835   9.052   4.864  0.1249 -3.1549  0.2314
  542MOL0     H73125   1.683   8.962   4.862  0.4406 -0.9079  1.4240
  542MOL0     H73126   1.612   9.050   5.069 -1.2975  1.0032 -1.1836
  542MOL0     H73127   1.768   9.140   5.091 -1.9596 -0.6539  1.5010
  542MOL0     H73128   1.804   8.936   5.210  1.0791 -3.5594 -0.4886
  542MOL0     H73129   1.904   8.942   5.063  0.3707  0.9456  1.3032
  542MOL0     H73130   1.585   8.884   5.294 -2.5818  0.3576  2.7779
  542MOL0     H73131   1.416   8.888   5.409 -0.4076  0.4358 -1.6239
  542MOL0     H73132   1.281   8.777   5.422 -0.3667 -1.8421 -0.7191
  542MOL0     H73133   1.442   8.731   5.488  0.1733 -0.9310 -0.5792
  542MOL0     H73134   1.222   8.206   5.184  0.6325  2.6941 -0.7996
  542MOL0     H73135   1.033   8.065   5.251 -1.3947  1.1035 -0.7557
  542MOL0     H73136   0.742   8.262   5.560 -2.9669  1.2069 -0.0127
  542MOL0     H73137   0.746   8.253   5.373 -0.6339  0.0971 -0.1106
  542MOL0     H73138   0.638   8.052   5.362  1.3048 -1.7404  1.5186
  542MOL0     H73139   0.635   8.039   5.538  0.5872 -1.5048 -0.9389
  542MOL0     H73140   0.462   8.171   5.575 -0.2094 -4.0190 -0.0093
  542MOL0     H73141   0.407   8.099   5.434 -0.5127  2.0226 -1.2999
  542MOL0     H73142   0.348   8.333   5.442 -0.9532 -0.9041 -0.9342
  542MOL0     H73143   0.519   8.376   5.457 -0.9849  0.7195  1.0838
  542MOL0     H73144   0.402   8.266   5.195  1.3523  0.5387 -2.7983
  542MOL0     H73145   0.573   8.295   5.226  0.7252  2.6101 -0.2299
  542MOL0     H73146   0.346   8.483   5.233 -0.2226 -1.0349 -0.4981
  542MOL0     H73147   0.515   8.522   5.265  0.3969  0.2316  0.7977
  542MOL0     H73148   0.418   8.402   5.010 -0.9274  0.3603  0.2178
  542MOL0     H73149   0.582   8.462   5.047 -0.0752 -0.5423 -0.6496
  542MOL0     H73150   0.460   8.697   5.079 -2.9175  0.3302  0.5012
  542MOL0     H73151   0.324   8.627   4.997 -0.2881  0.8236  0.8021
  542MOL0     H73152   0.952   8.327   5.580  1.0981 -1.1782  0.1929
  542MOL0     H73153   1.152   8.474   5.495  0.8703 -0.8777 -0.0727
  542MOL0     H73154   1.420   8.515   5.008  1.1215 -1.8734  1.9957
  542MOL0     H73155   1.610   8.636   4.927 -2.8122  1.9283 -2.4399
  542MOL0     H73156   2.927   9.839   4.373  2.5522  0.6437 -1.2363
  542MOL0     H73157   3.143   9.899   4.394 -0.1001 -0.4526 -0.1202
  542MOL0     H73158   3.410  10.163   4.767  1.1172 -1.7971 -0.5254
  542MOL0     H73159   3.591  10.330   4.822  0.1463  0.8166 -0.5652
  542MOL0     H73160   3.870  10.407   4.486 -2.1002 -1.0124  1.2333
  542MOL0     H73161   3.944  10.516   4.607 -0.4300 -0.6679  3.1515
  542MOL0     H73162   4.093  10.342   4.578  2.3857  0.2454  2.6844
  542MOL0     H73163   3.959  10.223   4.600 -1.7265  1.0084  0.1628
  542MOL0     H73164   4.135  10.262   4.785 -1.1029 -1.9437  0.6447
  542MOL0     H73165   3.984  10.226   4.832  0.1479 -1.2539 -1.1406
  542MOL0     H73166   4.015  10.422   4.967 -3.7395  0.1078 -0.7664
  542MOL0     H73167   3.945  10.503   4.841  0.5317  0.9426  3.0192
  542MOL0     H73168   4.322  10.663   4.775 -1.6817  2.1872 -0.5965
  542MOL0     H73169   3.734  10.283   4.423 -2.9426 -0.5555 -2.0277
  542MOL0     H73170   3.558  10.158   4.367 -0.8572  1.6885 -0.3848
  543MOL0     O73171   1.360   7.006   8.779  0.2938  0.2333  0.2197
  543MOL0     C73172   1.334   7.124   8.751 -0.0260  0.0304  0.2032
  543MOL0     O73173   1.323   7.173   8.626 -0.1559 -0.1703 -0.3929
  543MOL0     C73174   1.321   7.083   8.519  0.2515  0.5520 -0.6811
  543MOL0     C73175   1.439   7.044   8.470  0.8092 -0.0866 -0.6670
  543MOL0     C73176   1.438   6.951   8.359 -0.6657  0.3409  0.1132
  543MOL0     C73177   1.323   6.904   8.298 -0.1747  0.0054  0.2803
  543MOL0     O73178   1.337   6.813   8.197 -0.1696 -0.2935  0.0447
  543MOL0     C73179   1.230   6.776   8.120  0.0890 -0.2474 -0.7477
  543MOL0     C73180   1.182   6.636   8.164  0.6826 -0.0573 -0.1919
  543MOL0     C73181   1.083   6.645   8.272 -0.0545  0.2690 -0.4728
  543MOL0     C73182   1.008   6.515   8.290  0.1247  0.3104  0.2237
  543MOL0     C73183   0.920   6.524   8.419 -0.1458  0.7459  0.1128
  543MOL0     C73184   0.842   6.389   8.444 -0.3728 -1.0752  0.1709
  543MOL0     C73185   0.763   6.389   8.575  0.1099 -0.1599 -0.6789
  543MOL0     C73186   0.634   6.473   8.573  0.5585 -0.1338 -0.0556
  543MOL0     N73187   0.530   6.426   8.484  0.9541 -0.0541 -0.3062
  543MOL0     C73188   0.424   6.335   8.494 -0.1291  0.5700 -0.2493
  543MOL0     C73189   0.364   6.350   8.373 -0.3481 -0.6172  0.0639
  543MOL0     C73190   0.230   6.292   8.330  0.2232 -0.2277 -0.1082
  543MOL0     C73191   0.121   6.326   8.435  0.8553  0.0245 -0.0195
  543MOL0     C73192   0.111   6.476   8.473 -0.6050 -0.1860 -0.3519
  543MOL0     C73193   0.066   6.559   8.353  0.8666  0.9947  0.0231
  543MOL0     O73194  -0.050   6.497   8.294  0.4957 -0.0409 -0.4316
  543MOL0     C73195  -0.170   6.498   8.360  0.3512 -0.1033 -0.3381
  543MOL0     C73196  -0.267   6.411   8.309  0.2467 -0.2116 -0.3294
  543MOL0     C73197  -0.397   6.403   8.369  0.0737 -0.3582 -0.9461
  543MOL0     C73198  -0.504   6.332   8.295  0.0241  0.2143 -0.7757
  543MOL0     C73199  -0.424   6.491   8.477  0.3716  0.7134 -0.2422
  543MOL0     C73200  -0.562   6.522   8.538  0.3222 -0.2356  1.2401
  543MOL0     O73201  -0.577   6.622   8.620  0.0588  0.1572  0.3539
  543MOL0     C73202  -0.695   6.634   8.678  0.2392 -0.3390  0.5265
  543MOL0     C73203  -0.800   6.726   8.630 -0.6678 -1.0712 -0.3582
  543MOL0     C73204  -0.930   6.735   8.692  0.1903  1.1676 -0.7084
  543MOL0     C73205  -0.958   6.654   8.803  0.6654 -0.9500  0.4137
  543MOL0     O73206  -1.088   6.668   8.850 -0.0168 -0.1440  0.0327
  543MOL0     C73207  -1.129   6.583   8.954  0.1102  0.4020  0.8734
  543MOL0     C73208  -1.263   6.623   9.026 -0.3409 -0.2235  0.4318
  543MOL0     C73209  -1.241   6.761   9.087  0.8565 -0.4906  0.5630
  543MOL0     C73210  -1.368   6.825   9.149 -0.3969 -0.6533 -0.5785
  543MOL0     C73211  -1.373   6.798   9.300  0.1896 -0.0747  0.0537
  543MOL0     C73212  -1.285   6.910   9.369 -0.3121  0.3002 -0.0295
  543MOL0     C73213  -1.257   6.885   9.520  0.3134  0.8661  0.7864
  543MOL0     C73214  -1.113   6.838   9.548 -0.6607 -0.4828 -0.0632
  543MOL0    Cl73215  -1.100   6.816   9.730  0.3680  0.5051 -0.2200
  543MOL0     C73216  -0.860   6.572   8.851  0.3358  0.8529  0.3176
  543MOL0     C73217  -0.738   6.550   8.784  0.5387 -0.5759 -0.2897
  543MOL0     O73218  -0.652   6.444   8.502 -0.2559 -0.5129 -0.1604
  543MOL0     C73219  -0.324   6.573   8.529 -0.9405  0.2044  0.3991
  543MOL0     C73220  -0.200   6.578   8.470  0.6655 -0.1533  0.3647
  543MOL0     N73221   0.437   6.437   8.296  0.5766 -0.2199 -0.3741
  543MOL0     N73222   0.535   6.478   8.361 -0.1347 -0.7255  0.0102
  543MOL0     C73223   1.204   6.955   8.353 -0.1254 -0.5281 -1.1495
  543MOL0     C73224   1.201   7.035   8.466  0.1915 -0.2011  0.0656
  543MOL0     C73225   1.321   7.208   8.869  1.0007 -0.5537 -0.6045
  543MOL0     C73226   1.348   7.156   8.993 -1.0322 -0.3615 -0.4782
  543MOL0     C73227   1.341   7.235   9.105  0.6179 -0.1211  0.1979
  543MOL0     C73228   1.296   7.363   9.104  0.7090 -1.0974  0.6058
  543MOL0     O73229   1.282   7.437   9.217  0.3056  0.4728  1.3139
  543MOL0     C73230   1.313   7.381   9.345  0.0171 -0.9348 -0.0182
  543MOL0     C73231   1.200   7.293   9.400  0.7286  0.0001 -0.3393
  543MOL0     C73232   1.075   7.369   9.427  0.4341 -0.4211 -0.3377
  543MOL0     C73233   0.972   7.270   9.490  1.3883  0.3431  0.5115
  543MOL0     C73234   0.896   7.195   9.384  0.4888  0.1349  0.7079
  543MOL0     C73235   0.821   7.136   9.310  0.7344 -0.9333  0.0329
  543MOL0     C73236   1.286   7.428   8.975  0.7318 -0.6989 -0.2734
  543MOL0     C73237   1.300   7.349   8.859 -0.4890  0.6771  0.6088
  543MOL0     H73238   1.526   7.099   8.503  1.9159 -1.9846 -0.2946
  543MOL0     H73239   1.528   6.919   8.307 -0.7587 -2.4867  1.4681
  543MOL0     H73240   1.146   6.845   8.131  0.0629 -0.6375  2.6050
  543MOL0     H73241   1.259   6.775   8.014 -2.8001 -1.0560 -1.6036
  543MOL0     H73242   1.120   6.604   8.080 -1.7175  2.2838  0.5472
  543MOL0     H73243   1.267   6.569   8.180  0.0821 -1.2672 -1.7950
  543MOL0     H73244   1.135   6.668   8.365 -1.3627 -1.5196  0.7608
  543MOL0     H73245   1.007   6.721   8.250 -0.7471  0.4522  2.2646
  543MOL0     H73246   0.943   6.499   8.203  0.4810  1.4643 -0.2717
  543MOL0     H73247   1.088   6.441   8.285 -0.4878 -0.2824 -2.6759
  543MOL0     H73248   0.980   6.557   8.504 -1.0133  0.9147  0.6742
  543MOL0     H73249   0.844   6.603   8.417 -1.3312 -0.3590  0.6404
  543MOL0     H73250   0.765   6.374   8.368 -0.3087 -0.3865 -0.0371
  543MOL0     H73251   0.917   6.310   8.447 -1.0548 -1.7275  2.8437
  543MOL0     H73252   0.740   6.290   8.615 -0.1947  0.8567  1.9030
  543MOL0     H73253   0.833   6.426   8.651 -2.4786  1.0320  1.2815
  543MOL0     H73254   0.648   6.581   8.564 -0.9575  0.2537  1.5308
  543MOL0     H73255   0.598   6.466   8.676  2.3324  2.7190  0.8959
  543MOL0     H73256   0.399   6.275   8.581  3.3544 -2.7718 -1.2815
  543MOL0     H73257   0.211   6.326   8.228  1.7937 -1.0048 -0.6903
  543MOL0     H73258   0.234   6.182   8.331 -1.2686 -0.3128  1.4529
  543MOL0     H73259   0.143   6.273   8.528  0.1311  0.1678  0.2397
  543MOL0     H73260   0.025   6.284   8.404  1.2906 -2.5959  1.9032
  543MOL0     H73261   0.207   6.513   8.508 -1.0122 -1.4247  2.3346
  543MOL0     H73262   0.041   6.484   8.557 -2.2912 -0.0665 -1.7090
  543MOL0     H73263   0.147   6.558   8.280 -1.1068 -0.4285 -2.3156
  543MOL0     H73264   0.048   6.664   8.377 -1.0748  0.7803 -0.2876
  543MOL0     H73265  -0.242   6.348   8.224  0.5787 -1.5955  0.7574
  543MOL0     H73266  -0.457   6.262   8.226 -0.8775 -2.1285  0.8234
  543MOL0     H73267  -0.573   6.271   8.355  0.3423  0.9446  0.3582
  543MOL0     H73268  -0.558   6.406   8.235 -0.1788 -0.6839 -1.7138
  543MOL0     H73269  -0.779   6.770   8.533  2.7983  0.8042  1.0869
  543MOL0     H73270  -1.010   6.791   8.644 -1.9164 -1.0141  0.0517
  543MOL0     H73271  -1.133   6.480   8.917  1.2195 -0.0462  1.9230
  543MOL0     H73272  -1.066   6.574   9.043  1.9101 -0.0344 -0.3779
  543MOL0     H73273  -1.343   6.642   8.953  2.8469  0.0532 -3.3690
  543MOL0     H73274  -1.279   6.547   9.102 -0.8323  0.5060  1.0737
  543MOL0     H73275  -1.204   6.822   9.004 -1.1195  0.5228  0.3715
  543MOL0     H73276  -1.159   6.765   9.160  2.6353 -2.4870 -1.1830
  543MOL0     H73277  -1.368   6.934   9.145  1.1110 -0.6526 -1.0339
  543MOL0     H73278  -1.461   6.790   9.102 -2.3980  1.8627  1.2337
  543MOL0     H73279  -1.340   6.696   9.316  1.3954  0.5628  1.9891
  543MOL0     H73280  -1.476   6.808   9.336 -0.6809  0.4340 -2.3175
  543MOL0     H73281  -1.184   6.913   9.328  1.1450 -1.1158  3.1213
  543MOL0     H73282  -1.318   7.013   9.349  2.0687  1.3741  1.0965
  543MOL0     H73283  -1.330   6.807   9.544  0.7863 -0.9499 -2.9208
  543MOL0     H73284  -1.269   6.980   9.573  1.8959  0.9269  1.0839
  543MOL0     H73285  -1.040   6.910   9.511 -2.0822  1.1788  0.2516
  543MOL0     H73286  -1.091   6.750   9.487  1.7171  1.0881 -1.6153
  543MOL0     H73287  -0.867   6.519   8.945  3.2446 -2.4824 -1.1255
  543MOL0     H73288  -0.668   6.483   8.833  3.9608  2.9833  0.2407
  543MOL0     H73289  -0.344   6.638   8.614 -0.0689 -0.8090  1.4131
  543MOL0     H73290  -0.118   6.627   8.521  1.2177  0.7931 -1.3789
  543MOL0     H73291   1.105   6.931   8.315 -0.3908 -0.0626 -0.7574
  543MOL0     H73292   1.104   7.064   8.507 -0.2215  1.5471 -1.9639
  543MOL0     H73293   1.371   7.051   9.011 -2.1693 -0.9445 -2.1716
  543MOL0     H73294   1.368   7.185   9.197 -0.2289  0.9471  1.0422
  543MOL0     H73295   1.403   7.318   9.337 -1.3233 -3.1018  0.9377
  543MOL0     H73296   1.329   7.470   9.406 -1.2768  1.5861 -3.0601
  543MOL0     H73297   1.236   7.255   9.496  0.8371  1.2716  0.1440
  543MOL0     H73298   1.178   7.212   9.331  1.4035  1.8217 -2.8524
  543MOL0     H73299   1.039   7.406   9.331  2.2297 -1.4160 -1.4468
  543MOL0     H73300   1.077   7.453   9.496 -2.9337 -1.3754  1.1246
  543MOL0     H73301   0.889   7.316   9.544 -0.5479 -3.1348  0.8172
  543MOL0     H73302   1.018   7.195   9.556 -1.1482 -0.3176  1.6714
  543MOL0     H73303   0.760   7.085   9.239  0.4425 -1.7102  0.8235
  543MOL0     H73304   1.280   7.534   8.956  4.1323 -0.3827 -0.2976
  543MOL0     H73305   1.282   7.391   8.761 -0.6248 -1.9968 -0.5824
  544MOL0     O73306   8.205   6.709   8.923  0.2169  0.3293 -0.2785
  544MOL0     C73307   8.242   6.614   8.852 -1.0173  0.1328  0.0414
  544MOL0     O73308   8.165   6.503   8.814 -0.2329 -0.6050  1.1114
  544MOL0     C73309   8.034   6.508   8.834  0.4184  0.0447 -0.1614
  544MOL0     C73310   7.975   6.389   8.883  0.9079 -0.0225  0.6239
  544MOL0     C73311   7.829   6.385   8.901 -0.8882 -0.2169  0.5171
  544MOL0     C73312   7.742   6.487   8.869  0.0155 -0.5929 -0.1925
  544MOL0     O73313   7.608   6.471   8.908 -0.0963  0.1019  0.6523
  544MOL0     C73314   7.533   6.593   8.904  0.8917 -0.2279  0.3625
  544MOL0     C73315   7.388   6.544   8.930 -0.2924  0.6859  0.5519
  544MOL0     C73316   7.281   6.642   8.890  0.6267 -0.2739  0.7441
  544MOL0     C73317   7.169   6.571   8.813 -0.6098  0.2231 -0.1488
  544MOL0     C73318   7.039   6.655   8.807  0.5009 -0.5559  0.1580
  544MOL0     C73319   6.922   6.577   8.738  0.7812  0.2600  0.0044
  544MOL0     C73320   6.785   6.647   8.745  0.9881  0.4323  0.6660
  544MOL0     C73321   6.716   6.644   8.883  1.3621  0.6704 -0.1702
  544MOL0     N73322   6.565   6.672   8.872 -0.0288  0.8236  0.4156
  544MOL0     C73323   6.496   6.773   8.939  0.3223  0.0663  0.6739
  544MOL0     C73324   6.371   6.757   8.905  0.1338  0.5529  0.2283
  544MOL0     C73325   6.254   6.854   8.918  0.3976 -0.9636 -0.3591
  544MOL0     C73326   6.195   6.836   9.059 -0.1062  0.2055 -1.0301
  544MOL0     C73327   6.078   6.943   9.081 -0.7318  0.0748  0.3246
  544MOL0     C73328   5.942   6.900   9.032 -0.5908 -0.3631  0.1210
  544MOL0     O73329   5.842   7.004   9.056 -1.2647  0.3653 -0.2987
  544MOL0     C73330   5.714   6.986   9.000 -0.3547 -0.1393  0.0016
  544MOL0     C73331   5.632   7.091   9.008  0.2071  0.0994 -0.0398
  544MOL0     C73332   5.505   7.105   8.935 -0.6829  0.4413  0.2426
  544MOL0     C73333   5.425   7.225   8.956 -0.7766  0.6586  0.3973
  544MOL0     C73334   5.457   6.995   8.860 -0.6835  0.4609 -0.0037
  544MOL0     C73335   5.347   7.004   8.768  0.3416 -0.0551 -0.4136
  544MOL0     O73336   5.268   6.882   8.763  0.7558 -0.1236 -0.7030
  544MOL0     C73337   5.138   6.900   8.710  0.0993  0.3091 -0.3166
  544MOL0     C73338   5.129   6.882   8.572  0.6216 -1.2563  0.0147
  544MOL0     C73339   5.001   6.893   8.513 -0.0270 -0.0763  0.4638
  544MOL0     C73340   4.886   6.917   8.584 -0.4376 -0.4121  0.0823
  544MOL0     O73341   4.764   6.934   8.524 -0.3288 -0.0154 -0.1869
  544MOL0     C73342   4.773   7.018   8.410  0.5146 -0.4278  0.0013
  544MOL0     C73343   4.639   7.067   8.363  0.7567 -0.0363 -0.0759
  544MOL0     C73344   4.651   7.132   8.220 -0.5948 -0.5615  0.2671
  544MOL0     C73345   4.528   7.222   8.177 -0.0100 -0.2039  0.0999
  544MOL0     C73346   4.551   7.302   8.052 -0.8641 -0.7114 -0.0426
  544MOL0     C73347   4.431   7.368   7.987  0.6191 -0.6437  0.6222
  544MOL0     C73348   4.377   7.484   8.059 -0.1755 -0.5699  0.2583
  544MOL0     C73349   4.271   7.566   7.982  0.3436 -0.1480 -0.8920
  544MOL0    Cl73350   4.118   7.476   7.967  0.3838 -0.0819 -0.0530
  544MOL0     C73351   4.893   6.927   8.719  0.2314 -0.4648  0.0372
  544MOL0     C73352   5.021   6.923   8.784 -0.5870  0.3110  0.5220
  544MOL0     O73353   5.325   7.106   8.710  0.1573  0.2219 -0.2588
  544MOL0     C73354   5.551   6.884   8.848 -0.6069 -0.0212 -0.0008
  544MOL0     C73355   5.673   6.888   8.911 -1.7966 -0.0337 -0.2233
  544MOL0     N73356   6.359   6.638   8.834  0.1257  0.4049 -0.8925
  544MOL0     N73357   6.472   6.584   8.821  0.1663  0.1572 -0.1088
  544MOL0     C73358   7.803   6.601   8.822 -0.1582  0.1369  0.9447
  544MOL0     C73359   7.946   6.613   8.799  0.0580 -0.3142  0.8561
  544MOL0     C73360   8.393   6.600   8.805  1.0793  0.4350  0.2283
  544MOL0     C73361   8.482   6.709   8.806  0.2936 -0.2395 -0.3490
  544MOL0     C73362   8.619   6.698   8.766  0.9687  0.5085 -0.0459
  544MOL0     C73363   8.662   6.564   8.724 -0.3347 -0.4643 -0.6271
  544MOL0     O73364   8.788   6.531   8.672  0.3547  0.0890 -0.6212
  544MOL0     C73365   8.879   6.641   8.659  0.2534 -0.0966 -0.0798
  544MOL0     C73366   9.017   6.586   8.629 -0.1253 -0.1246  0.0423
  544MOL0     C73367   9.027   6.531   8.481  0.2227 -0.3196  0.4474
  544MOL0     C73368   9.163   6.462   8.455 -0.0551  0.2808  0.7752
  544MOL0     C73369   9.264   6.571   8.431 -1.3465  0.6868 -1.0413
  544MOL0     C73370   9.344   6.659   8.417 -0.0595 -1.2781 -1.0407
  544MOL0     C73371   8.566   6.461   8.704 -0.1361  0.2580  0.7583
  544MOL0     C73372   8.436   6.473   8.752  0.5559  0.8702 -0.0588
  544MOL0     H73373   8.031   6.299   8.905 -0.7123 -1.6552 -1.4222
  544MOL0     H73374   7.797   6.301   8.961  2.5563 -1.9067  0.2463
  544MOL0     H73375   7.566   6.663   8.981  0.8784 -1.1522  1.2188
  544MOL0     H73376   7.531   6.636   8.803  0.2213  0.5979  0.7156
  544MOL0     H73377   7.378   6.454   8.869  2.4196 -0.7180  1.9996
  544MOL0     H73378   7.366   6.513   9.032 -1.2123 -1.6455 -0.2862
  544MOL0     H73379   7.235   6.680   8.981  0.8847 -1.3959  1.3652
  544MOL0     H73380   7.323   6.723   8.830 -2.7721  0.7158 -0.4944
  544MOL0     H73381   7.204   6.548   8.712  0.2234  0.8467 -0.0153
  544MOL0     H73382   7.136   6.474   8.852 -1.7352  0.1910 -1.1567
  544MOL0     H73383   7.012   6.677   8.911 -1.3168 -2.6821  0.2082
  544MOL0     H73384   7.072   6.743   8.752 -1.9680  0.9735  0.9347
  544MOL0     H73385   6.949   6.567   8.633  1.8738 -0.3793  0.3278
  544MOL0     H73386   6.923   6.476   8.780  0.9661 -0.8553 -2.5002
  544MOL0     H73387   6.792   6.751   8.711 -2.2392  0.2817 -0.8562
  544MOL0     H73388   6.722   6.600   8.668  1.3229  3.4658 -1.6590
  544MOL0     H73389   6.767   6.728   8.931  1.8303 -0.4334  1.3625
  544MOL0     H73390   6.730   6.551   8.940 -0.8844 -0.3355 -1.1109
  544MOL0     H73391   6.537   6.862   8.987 -1.3553  2.6821 -2.3352
  544MOL0     H73392   6.283   6.957   8.894  1.5994 -0.8746  1.3098
  544MOL0     H73393   6.183   6.819   8.842  0.9943 -1.9512 -0.4872
  544MOL0     H73394   6.271   6.860   9.134  0.0652  1.3086 -1.5236
  544MOL0     H73395   6.160   6.733   9.070  1.0389 -0.0335  0.9848
  544MOL0     H73396   6.106   7.036   9.031  2.1392 -0.7380  0.2400
  544MOL0     H73397   6.075   6.975   9.186  0.6835  1.7408 -0.1029
  544MOL0     H73398   5.916   6.815   9.097 -1.2137  2.6996  4.2657
  544MOL0     H73399   5.956   6.870   8.928  3.2646  0.5532  0.2493
  544MOL0     H73400   5.673   7.164   9.077  1.0984  1.1888 -1.6469
  544MOL0     H73401   5.430   7.280   8.862 -2.9297 -1.0175 -0.7792
  544MOL0     H73402   5.325   7.206   8.996 -1.6593  1.4317 -1.3734
  544MOL0     H73403   5.476   7.288   9.030  3.4676 -0.2926 -1.4093
  544MOL0     H73404   5.217   6.869   8.510 -0.3513 -0.4637 -1.6141
  544MOL0     H73405   4.986   6.897   8.406 -4.3292  0.3172  0.8932
  544MOL0     H73406   4.837   7.105   8.425 -2.3509  2.1183 -1.3187
  544MOL0     H73407   4.800   6.953   8.326  2.6717  1.4443 -0.8415
  544MOL0     H73408   4.566   6.986   8.353 -0.7965  1.5191 -2.3263
  544MOL0     H73409   4.604   7.142   8.435  0.9252  0.6971 -0.7497
  544MOL0     H73410   4.675   7.057   8.145  0.3991 -0.7802  0.7813
  544MOL0     H73411   4.734   7.202   8.226 -0.4936 -0.5296 -1.2637
  544MOL0     H73412   4.439   7.159   8.165 -0.0386  0.0665 -1.3134
  544MOL0     H73413   4.502   7.290   8.258 -0.7705 -1.0406  0.5867
  544MOL0     H73414   4.604   7.239   7.981 -0.4316  1.7411 -2.0543
  544MOL0     H73415   4.619   7.383   8.078 -0.2189  0.0020 -3.4598
  544MOL0     H73416   4.459   7.381   7.882 -1.3623 -2.1514 -0.1720
  544MOL0     H73417   4.337   7.312   7.982 -0.0845  0.6051 -1.4377
  544MOL0     H73418   4.462   7.551   8.068 -0.7973  0.5121 -1.4114
  544MOL0     H73419   4.332   7.451   8.153 -2.2590  0.1173 -0.4295
  544MOL0     H73420   4.301   7.587   7.879  2.4444 -2.8733 -0.9520
  544MOL0     H73421   4.246   7.656   8.039  1.4415 -1.0585  1.1190
  544MOL0     H73422   4.795   6.940   8.764 -0.4035 -1.4386 -1.0197
  544MOL0     H73423   5.018   6.903   8.890 -0.7693 -1.6948  0.1762
  544MOL0     H73424   5.543   6.801   8.778 -2.5879  1.5079 -1.7347
  544MOL0     H73425   5.737   6.803   8.890 -0.8700  1.1597 -2.7632
  544MOL0     H73426   7.747   6.685   8.784 -1.6673 -1.3248 -0.1826
  544MOL0     H73427   7.989   6.701   8.752  0.4235 -1.9502 -2.0636
  544MOL0     H73428   8.456   6.810   8.835  2.1995 -0.2534  1.6294
  544MOL0     H73429   8.684   6.784   8.755 -0.7945  1.6659 -1.8051
  544MOL0     H73430   8.829   6.699   8.580  0.3256 -0.2798 -0.2588
  544MOL0     H73431   8.881   6.699   8.752  4.9165  1.2425 -0.7811
  544MOL0     H73432   9.040   6.507   8.701 -3.5125 -0.7864  0.5614
  544MOL0     H73433   9.092   6.664   8.648  0.9254 -1.4109  1.4442
  544MOL0     H73434   9.032   6.620   8.418 -1.3470 -0.6297 -0.1527
  544MOL0     H73435   8.933   6.477   8.466 -1.0993  1.0959  2.8329
  544MOL0     H73436   9.152   6.397   8.368  2.3537 -2.3311  2.2549
  544MOL0     H73437   9.185   6.394   8.538  2.2933 -0.9338 -0.7049
  544MOL0     H73438   9.402   6.749   8.410  1.7168 -2.1369  1.3754
  544MOL0     H73439   8.598   6.368   8.658  1.4493  0.9527  0.3767
  544MOL0     H73440   8.371   6.386   8.756 -0.5769  1.7116  0.3129
  545MOL0     O73441   7.756   3.572   8.094 -0.1443 -0.2869 -0.9909
  545MOL0     C73442   7.831   3.671   8.093 -0.5763 -0.5311  0.1598
  545MOL0     O73443   7.786   3.790   8.106 -0.1949  0.2822  0.0360
  545MOL0     C73444   7.653   3.803   8.130  0.4704 -0.5494 -0.6493
  545MOL0     C73445   7.578   3.881   8.034 -0.3944  0.0279  0.1164
  545MOL0     C73446   7.441   3.895   8.050  0.6624 -0.6229  0.4839
  545MOL0     C73447   7.380   3.848   8.169 -0.5230  0.3905  0.0900
  545MOL0     O73448   7.252   3.864   8.200  0.4142 -0.2385  0.5851
  545MOL0     C73449   7.193   3.983   8.150 -0.0160 -0.0333  0.5873
  545MOL0     C73450   7.078   4.017   8.246 -0.3370 -0.2465 -0.1626
  545MOL0     C73451   7.142   4.073   8.377 -0.2394 -0.0529 -0.0509
  545MOL0     C73452   7.047   4.074   8.497 -0.7781  0.0444 -0.0360
  545MOL0     C73453   7.095   4.145   8.620 -0.6672  0.3968 -0.1748
  545MOL0     C73454   6.978   4.182   8.715  0.0692  1.3372  0.1263
  545MOL0     C73455   7.053   4.264   8.820 -0.3916 -0.0666 -0.6567
  545MOL0     C73456   6.952   4.307   8.925  0.0309 -0.1777 -0.7263
  545MOL0     N73457   6.842   4.389   8.860 -0.4255  0.0807 -0.5433
  545MOL0     C73458   6.857   4.520   8.836  0.1949 -0.0227  0.4814
  545MOL0     C73459   6.730   4.569   8.809  0.1441 -0.0469 -0.1708
  545MOL0     C73460   6.686   4.710   8.776  0.1834 -0.7078 -0.0843
  545MOL0     C73461   6.786   4.799   8.715  0.0634 -0.0863 -0.6681
  545MOL0     C73462   6.720   4.923   8.663 -0.2018  0.7745 -0.4829
  545MOL0     C73463   6.641   5.008   8.765  0.7009  0.4227 -0.1775
  545MOL0     O73464   6.605   5.119   8.687  0.3418 -0.5433 -0.5328
  545MOL0     C73465   6.541   5.228   8.763 -0.7055  0.4259  0.1645
  545MOL0     C73466   6.553   5.244   8.899 -0.3293  0.8850 -0.4933
  545MOL0     C73467   6.490   5.355   8.958 -0.0000 -0.1699  0.0497
  545MOL0     C73468   6.513   5.366   9.110  0.0492 -0.5278 -0.0219
  545MOL0     C73469   6.419   5.445   8.871 -0.1924  0.4251  0.2817
  545MOL0     C73470   6.347   5.567   8.927 -0.3173 -0.3050 -0.1215
  545MOL0     O73471   6.334   5.577   9.065  0.2674 -1.0115 -0.1552
  545MOL0     C73472   6.240   5.667   9.114  0.1596  0.1898 -0.0929
  545MOL0     C73473   6.237   5.802   9.080 -0.5329  0.1285 -0.4976
  545MOL0     C73474   6.152   5.891   9.138 -0.8607  1.1331  0.7206
  545MOL0     C73475   6.060   5.851   9.236  0.1482 -0.0975  0.2097
  545MOL0     O73476   5.994   5.947   9.311  0.1625  0.2991  1.2929
  545MOL0     C73477   6.035   5.991   9.438 -1.1935 -0.1786 -0.3346
  545MOL0     C73478   5.967   6.124   9.487 -0.0859 -0.2917  0.7969
  545MOL0     C73479   5.813   6.113   9.475  0.4359  0.0003 -0.0701
  545MOL0     C73480   5.747   6.247   9.502 -0.1622  0.8389 -0.8097
  545MOL0     C73481   5.602   6.233   9.510  0.0540 -0.1147 -1.2699
  545MOL0     C73482   5.522   6.358   9.471 -1.0799 -0.4424 -0.1872
  545MOL0     C73483   5.369   6.339   9.466 -0.3687 -0.3832 -0.3476
  545MOL0     C73484   5.301   6.476   9.488  0.5482 -0.2086 -0.0620
  545MOL0    Cl73485   5.122   6.463   9.445  0.0075  0.4662  0.6445
  545MOL0     C73486   6.056   5.719   9.259  0.3735  0.4278  0.0117
  545MOL0     C73487   6.135   5.621   9.198  0.2919 -0.0151 -0.4595
  545MOL0     O73488   6.313   5.651   8.845  0.3011  0.8934 -0.7247
  545MOL0     C73489   6.419   5.422   8.729 -0.8965  0.4004 -0.1875
  545MOL0     C73490   6.477   5.310   8.685  0.6853  0.2131  0.2065
  545MOL0     N73491   6.643   4.459   8.810 -0.4046  0.5134  0.0785
  545MOL0     N73492   6.707   4.357   8.850 -0.3370 -0.3561 -0.0063
  545MOL0     C73493   7.454   3.778   8.262  0.4895 -0.5746  0.0756
  545MOL0     C73494   7.587   3.757   8.250 -0.5264  0.4181 -0.2192
  545MOL0     C73495   7.972   3.649   8.084 -0.4904 -0.2642 -0.7910
  545MOL0     C73496   8.021   3.519   8.105 -0.1996  0.7325  0.1410
  545MOL0     C73497   8.153   3.476   8.105  0.2574  0.2127 -0.9054
  545MOL0     C73498   8.251   3.580   8.098  0.1255 -0.7747 -0.1052
  545MOL0     O73499   8.384   3.544   8.098  0.1349  0.2249  0.6859
  545MOL0     C73500   8.428   3.406   8.123 -0.0244  0.3210 -0.9275
  545MOL0     C73501   8.577   3.388   8.141  0.5703 -0.3764 -0.4772
  545MOL0     C73502   8.654   3.406   8.008 -0.2090 -0.9793 -0.6070
  545MOL0     C73503   8.613   3.330   7.884 -0.6342 -0.2868  0.1401
  545MOL0     C73504   8.483   3.366   7.835  0.4772 -0.8843 -0.1470
  545MOL0     C73505   8.373   3.398   7.791 -0.3886 -0.1628 -0.9026
  545MOL0     C73506   8.206   3.716   8.080  0.2222  0.1257 -1.0749
  545MOL0     C73507   8.072   3.753   8.072  0.5643  0.2881  0.4834
  545MOL0     H73508   7.631   3.901   7.941  2.2581 -5.5638  0.0284
  545MOL0     H73509   7.389   3.942   7.966  0.2837  0.2154  1.1810
  545MOL0     H73510   7.265   4.064   8.147 -2.8544  2.6991  1.1535
  545MOL0     H73511   7.151   3.961   8.052 -2.8603 -0.8350  1.8482
  545MOL0     H73512   7.019   4.094   8.195  0.1621  0.3766  0.1800
  545MOL0     H73513   7.017   3.932   8.276 -0.2372  0.1450  1.2256
  545MOL0     H73514   7.227   4.013   8.410 -1.1550 -0.6593  1.2703
  545MOL0     H73515   7.170   4.175   8.351 -0.8636  0.2768  0.5463
  545MOL0     H73516   6.952   4.126   8.482  0.9335  4.1124  1.6469
  545MOL0     H73517   7.023   3.971   8.523 -1.5493  0.2350  0.0434
  545MOL0     H73518   7.165   4.077   8.669 -1.4434 -0.8162 -0.7187
  545MOL0     H73519   7.146   4.229   8.573  1.3494 -2.0275 -2.6369
  545MOL0     H73520   6.901   4.237   8.661 -1.8521 -1.2666  0.0038
  545MOL0     H73521   6.938   4.088   8.754  1.9360  1.4297  2.4719
  545MOL0     H73522   7.134   4.203   8.862  0.9150  0.8028 -1.8299
  545MOL0     H73523   7.094   4.353   8.772 -1.1708  0.4774 -0.3294
  545MOL0     H73524   7.005   4.370   8.997 -0.4793  1.6777 -1.8904
  545MOL0     H73525   6.919   4.219   8.980  1.0526  0.6637  1.3285
  545MOL0     H73526   6.941   4.589   8.830 -2.4782  3.3515 -2.0734
  545MOL0     H73527   6.604   4.692   8.706  1.3631  0.5768 -1.8681
  545MOL0     H73528   6.645   4.761   8.864 -0.8423  0.0016 -0.9530
  545MOL0     H73529   6.844   4.750   8.635 -1.5112 -1.5841 -0.9437
  545MOL0     H73530   6.848   4.822   8.802 -1.7324  1.6482  0.2294
  545MOL0     H73531   6.660   4.907   8.573 -1.0242 -0.7761  0.2917
  545MOL0     H73532   6.794   4.981   8.607 -1.0702 -1.0118 -3.7409
  545MOL0     H73533   6.706   5.025   8.851 -0.6500 -0.0128  0.9794
  545MOL0     H73534   6.547   4.959   8.793  0.2420  0.8849 -0.8486
  545MOL0     H73535   6.612   5.174   8.957 -2.1915  0.6854  1.2694
  545MOL0     H73536   6.564   5.280   9.153  0.3553  0.3371  1.4014
  545MOL0     H73537   6.575   5.455   9.124 -0.8970 -0.0773  1.4307
  545MOL0     H73538   6.425   5.369   9.174  1.4862 -0.8252  2.0565
  545MOL0     H73539   6.313   5.852   9.021 -1.4096  2.0568 -0.0490
  545MOL0     H73540   6.162   5.996   9.114  0.5649  0.1917 -3.6080
  545MOL0     H73541   6.014   5.912   9.511 -3.1029 -0.0115 -0.6423
  545MOL0     H73542   6.141   6.007   9.417 -0.8679  0.4906  1.5994
  545MOL0     H73543   6.006   6.132   9.589  2.4848 -1.6484  0.0048
  545MOL0     H73544   6.015   6.209   9.437  1.2361 -0.9782  0.8358
  545MOL0     H73545   5.781   6.043   9.553  0.9849 -0.9117 -0.6402
  545MOL0     H73546   5.779   6.077   9.377  1.8254 -1.5058 -0.0468
  545MOL0     H73547   5.790   6.289   9.593 -0.0110  1.8318 -1.3123
  545MOL0     H73548   5.769   6.321   9.424 -2.3868  0.9852 -1.3697
  545MOL0     H73549   5.582   6.202   9.612  1.5074  1.6615 -0.3713
  545MOL0     H73550   5.579   6.153   9.440 -1.2549 -2.8428  2.0220
  545MOL0     H73551   5.551   6.439   9.539 -0.4040 -1.4002  0.6997
  545MOL0     H73552   5.564   6.375   9.372  1.0301 -1.8177  0.3957
  545MOL0     H73553   5.333   6.282   9.552 -0.3678 -1.3997 -1.0066
  545MOL0     H73554   5.339   6.295   9.370  1.7453 -1.0065 -0.7755
  545MOL0     H73555   5.353   6.560   9.441  0.2999  1.7958  2.9896
  545MOL0     H73556   5.300   6.492   9.596 -1.6968  2.6711 -0.3978
  545MOL0     H73557   6.003   5.684   9.347  2.7657  0.1912  1.4543
  545MOL0     H73558   6.129   5.520   9.237 -0.3818 -0.4156 -1.5621
  545MOL0     H73559   6.374   5.490   8.657 -2.3878 -3.5029 -3.2892
  545MOL0     H73560   6.462   5.290   8.579  1.3641  0.7160  0.0079
  545MOL0     H73561   7.407   3.743   8.353  0.6318 -2.2962 -0.4749
  545MOL0     H73562   7.649   3.713   8.327  0.3196  0.7003 -0.7247
  545MOL0     H73563   7.949   3.438   8.105 -1.3749  1.7357 -0.3965
  545MOL0     H73564   8.174   3.370   8.116  3.2413  0.6885 -1.0967
  545MOL0     H73565   8.387   3.387   8.223  2.3029  1.5992  0.3378
  545MOL0     H73566   8.392   3.328   8.054  1.1183 -0.9830 -0.1000
  545MOL0     H73567   8.584   3.283   8.170 -4.1584 -0.1402  2.5643
  545MOL0     H73568   8.625   3.434   8.228  1.4912 -1.1776 -0.5441
  545MOL0     H73569   8.759   3.379   8.023  0.3429  0.7794 -1.0594
  545MOL0     H73570   8.673   3.508   7.973  2.1699 -1.2119 -0.1317
  545MOL0     H73571   8.616   3.222   7.903 -4.3254 -0.7720 -1.3057
  545MOL0     H73572   8.672   3.363   7.798 -2.5265  2.8102 -0.0945
  545MOL0     H73573   8.276   3.423   7.753 -0.6128 -2.2619 -1.8307
  545MOL0     H73574   8.287   3.789   8.077  2.0615 -1.2583  3.7949
  545MOL0     H73575   8.036   3.854   8.057  1.6784  1.0816  2.7102
  546MOL0     O73576   4.989   0.089   6.133 -0.1378  1.0077 -0.6445
  546MOL0     C73577   5.065  -0.005   6.134 -0.3011 -0.4773  0.6677
  546MOL0     O73578   5.032  -0.129   6.126  0.8223 -0.3992  0.8854
  546MOL0     C73579   4.905  -0.168   6.109 -0.3583  1.2592  0.8632
  546MOL0     C73580   4.808  -0.179   6.206 -0.3933  0.1014  0.1605
  546MOL0     C73581   4.698  -0.257   6.180  0.1333 -0.4836 -0.2256
  546MOL0     C73582   4.677  -0.327   6.062 -0.7731 -0.0181 -0.4551
  546MOL0     O73583   4.560  -0.406   6.050 -0.4669 -0.4864  0.3324
  546MOL0     C73584   4.579  -0.547   5.996 -0.6095  0.4261  0.1381
  546MOL0     C73585   4.452  -0.630   6.030  0.1360 -0.2840  0.9505
  546MOL0     C73586   4.326  -0.599   5.946  0.1634 -0.2727 -0.6646
  546MOL0     C73587   4.209  -0.681   5.997 -0.3698 -0.3794  0.8243
  546MOL0     C73588   4.080  -0.646   5.926  0.1586 -0.0242  0.5406
  546MOL0     C73589   3.980  -0.747   5.972  0.5607  0.2199  0.3478
  546MOL0     C73590   3.839  -0.715   5.917 -0.3076  0.2506  0.0766
  546MOL0     C73591   3.740  -0.820   5.969  0.3885  0.0807  0.6450
  546MOL0     N73592   3.597  -0.790   5.949  0.1520 -0.5720  0.0496
  546MOL0     C73593   3.536  -0.691   5.883 -0.0999 -0.6138 -0.3244
  546MOL0     C73594   3.407  -0.730   5.885  0.2400  0.3890  1.0484
  546MOL0     C73595   3.292  -0.654   5.826 -0.3921 -0.0358  0.2330
  546MOL0     C73596   3.222  -0.561   5.928  0.7385 -0.6833  0.2859
  546MOL0     C73597   3.080  -0.514   5.883 -0.5804  1.3611 -0.0322
  546MOL0     C73598   2.987  -0.623   5.831 -0.1780  0.0996 -0.0441
  546MOL0     O73599   2.862  -0.566   5.797  0.0660 -0.4936 -0.9110
  546MOL0     C73600   2.747  -0.645   5.770 -0.2933  0.1258  0.1888
  546MOL0     C73601   2.625  -0.590   5.749 -0.0545  0.2934 -0.3440
  546MOL0     C73602   2.511  -0.664   5.708  0.6158 -0.0184  0.3266
  546MOL0     C73603   2.385  -0.590   5.718 -0.3330 -0.6881  1.4665
  546MOL0     C73604   2.519  -0.802   5.687  0.4477  0.0313 -0.2007
  546MOL0     C73605   2.412  -0.887   5.650  0.2582  0.5167  0.0032
  546MOL0     O73606   2.420  -0.942   5.525  0.0121  0.6319 -0.4198
  546MOL0     C73607   2.334  -1.044   5.481 -0.1794  0.0061 -0.0714
  546MOL0     C73608   2.249  -1.131   5.556 -1.0269  0.0370 -0.1634
  546MOL0     C73609   2.185  -1.231   5.491  0.6213 -0.2917 -0.6370
  546MOL0     C73610   2.193  -1.255   5.355 -0.5158 -0.3094  0.4984
  546MOL0     O73611   2.122  -1.354   5.287 -0.1531 -0.4433  0.2172
  546MOL0     C73612   1.982  -1.361   5.313 -0.7019 -0.2255 -0.5888
  546MOL0     C73613   1.898  -1.472   5.231 -0.1398  0.7208 -0.0198
  546MOL0     C73614   1.876  -1.599   5.315 -0.1455  0.0019  0.2482
  546MOL0     C73615   1.844  -1.708   5.207 -0.1323  0.0476 -0.5744
  546MOL0     C73616   1.698  -1.713   5.166 -0.2667 -0.1461 -0.0668
  546MOL0     C73617   1.603  -1.785   5.260 -0.5631 -0.1368 -0.6488
  546MOL0     C73618   1.646  -1.931   5.294  0.5006 -0.4686  0.2960
  546MOL0     C73619   1.524  -2.027   5.300  0.1694 -0.6130 -0.4655
  546MOL0    Cl73620   1.576  -2.157   5.413 -0.5403 -0.3030 -0.1273
  546MOL0     C73621   2.264  -1.158   5.278  0.0963 -0.0460  0.0374
  546MOL0     C73622   2.337  -1.061   5.342  0.8727 -0.7681 -1.0526
  546MOL0     O73623   2.330  -0.920   5.739  0.0131 -0.0219  0.1002
  546MOL0     C73624   2.649  -0.855   5.690  0.0134  0.1814  0.2393
  546MOL0     C73625   2.759  -0.783   5.735  0.7705 -0.1989 -0.4634
  546MOL0     N73626   3.387  -0.835   5.970 -0.3878  0.9580  0.3203
  546MOL0     N73627   3.507  -0.864   6.023 -0.1735 -0.1378  0.0407
  546MOL0     C73628   4.767  -0.312   5.958  0.4592 -0.5693  1.2878
  546MOL0     C73629   4.885  -0.230   5.982 -0.2239  0.4646 -0.0391
  546MOL0     C73630   5.212   0.017   6.128 -0.3009  0.6012 -0.7588
  546MOL0     C73631   5.259   0.133   6.179 -1.2160 -0.2805 -0.7531
  546MOL0     C73632   5.398   0.149   6.190  0.4747 -0.0707  0.0479
  546MOL0     C73633   5.484   0.052   6.139  0.0589 -0.3790 -1.5042
  546MOL0     O73634   5.612   0.073   6.173  0.2360  0.6912 -0.2367
  546MOL0     C73635   5.696  -0.043   6.171 -0.0733 -1.0645  0.0191
  546MOL0     C73636   5.821  -0.003   6.255  0.0326  0.5919 -0.0748
  546MOL0     C73637   5.926  -0.111   6.259  0.1201 -0.6018 -0.2992
  546MOL0     C73638   6.041  -0.064   6.348 -0.2343  0.3863 -0.4766
  546MOL0     C73639   6.137  -0.168   6.319 -0.6524 -0.6939 -1.2372
  546MOL0     C73640   6.220  -0.248   6.273  0.0885 -0.7671  0.0253
  546MOL0     C73641   5.429  -0.061   6.084 -0.1152  0.5134 -0.2412
  546MOL0     C73642   5.296  -0.075   6.076 -0.5341  0.0248  0.4370
  546MOL0     H73643   4.818  -0.126   6.300  0.4072  2.0076 -0.9459
  546MOL0     H73644   4.635  -0.271   6.268  1.1910 -0.0418  0.6235
  546MOL0     H73645   4.593  -0.550   5.888 -0.0935  0.2284  0.2078
  546MOL0     H73646   4.661  -0.591   6.054  1.3580  1.9596 -1.3154
  546MOL0     H73647   4.466  -0.739   6.031 -1.4990 -0.5616 -1.1889
  546MOL0     H73648   4.434  -0.613   6.137 -1.0978 -0.7256  0.8265
  546MOL0     H73649   4.299  -0.494   5.956  0.7217 -0.1633 -0.1971
  546MOL0     H73650   4.347  -0.619   5.841 -0.5679 -2.1981 -0.4958
  546MOL0     H73651   4.235  -0.784   5.972  1.2865  0.7482 -2.7647
  546MOL0     H73652   4.182  -0.678   6.103 -3.1136  1.0328  0.1895
  546MOL0     H73653   4.038  -0.546   5.938  0.2654 -0.1129  1.8515
  546MOL0     H73654   4.097  -0.678   5.823 -1.6804 -0.8116  0.4552
  546MOL0     H73655   3.999  -0.846   5.931  1.6187  0.9244 -0.9460
  546MOL0     H73656   3.979  -0.747   6.081 -2.0870  0.5376  0.3849
  546MOL0     H73657   3.812  -0.615   5.954  0.4867  0.2025  0.8216
  546MOL0     H73658   3.846  -0.720   5.808 -1.1337 -1.4798  0.0666
  546MOL0     H73659   3.752  -0.842   6.075 -1.4211  0.8629  1.0452
  546MOL0     H73660   3.752  -0.912   5.911 -3.3176 -0.4708  0.5323
  546MOL0     H73661   3.587  -0.613   5.828 -0.2573  1.8021  2.6629
  546MOL0     H73662   3.327  -0.592   5.743  0.1494 -1.1900 -0.4283
  546MOL0     H73663   3.225  -0.728   5.783  3.4645 -3.0540 -1.2110
  546MOL0     H73664   3.283  -0.474   5.952  0.8907 -0.3760 -1.1399
  546MOL0     H73665   3.203  -0.618   6.020 -1.1547 -1.4871 -0.5491
  546MOL0     H73666   3.082  -0.432   5.811  0.3316  0.6783 -0.8112
  546MOL0     H73667   3.037  -0.467   5.972 -2.3957  0.2490 -0.2682
  546MOL0     H73668   2.987  -0.690   5.918  0.8593 -0.1693 -0.2338
  546MOL0     H73669   3.026  -0.669   5.740 -1.6197  1.4435 -1.4016
  546MOL0     H73670   2.600  -0.484   5.754 -0.9582  0.0292  1.2433
  546MOL0     H73671   2.304  -0.653   5.678 -1.2837  0.7552  1.0561
  546MOL0     H73672   2.364  -0.549   5.817 -0.8334 -0.8539  1.4335
  546MOL0     H73673   2.392  -0.497   5.661 -2.9933 -2.7270 -2.7060
  546MOL0     H73674   2.241  -1.119   5.664  2.7812 -1.4879  0.4535
  546MOL0     H73675   2.119  -1.298   5.546 -0.2873  0.9774 -0.1389
  546MOL0     H73676   1.962  -1.361   5.420  0.4695 -0.3854 -0.3548
  546MOL0     H73677   1.938  -1.266   5.279  3.5551  3.2953  2.5413
  546MOL0     H73678   1.799  -1.430   5.211  0.4855  1.5679 -1.4824
  546MOL0     H73679   1.947  -1.503   5.139 -2.3352 -2.9398 -0.1627
  546MOL0     H73680   1.786  -1.589   5.376 -0.6931 -3.0490  0.1155
  546MOL0     H73681   1.954  -1.619   5.389 -0.6028  3.6041  1.8861
  546MOL0     H73682   1.902  -1.699   5.115 -0.3973 -0.5284 -0.8066
  546MOL0     H73683   1.885  -1.800   5.248  2.4251  1.0688 -0.6697
  546MOL0     H73684   1.694  -1.763   5.069 -0.0080 -1.3760  0.5379
  546MOL0     H73685   1.662  -1.613   5.142 -1.9802 -1.3307 -2.8903
  546MOL0     H73686   1.602  -1.726   5.352  0.4510 -0.4383 -0.4392
  546MOL0     H73687   1.504  -1.792   5.213 -0.9829 -0.0803  0.1982
  546MOL0     H73688   1.689  -1.938   5.394  0.5491  1.1681  0.4052
  546MOL0     H73689   1.710  -1.972   5.215  1.0514  0.2600  0.3555
  546MOL0     H73690   1.498  -2.064   5.200 -0.3508 -1.7289  0.0642
  546MOL0     H73691   1.438  -1.969   5.333 -0.4429  0.0866 -3.0989
  546MOL0     H73692   2.256  -1.154   5.170 -1.9359  2.6727  0.1770
  546MOL0     H73693   2.384  -0.978   5.290  0.9261 -0.4076 -0.4444
  546MOL0     H73694   2.652  -0.956   5.651 -1.1975  0.1786  0.0979
  546MOL0     H73695   2.850  -0.842   5.737 -0.4475 -2.4814 -4.1626
  546MOL0     H73696   4.746  -0.351   5.859  3.9616  1.4577 -0.4672
  546MOL0     H73697   4.951  -0.208   5.898 -0.1826  0.8530  0.0929
  546MOL0     H73698   5.201   0.212   6.225  2.4296  1.7122  0.8282
  546MOL0     H73699   5.431   0.232   6.251 -2.4523  1.1371  0.1736
  546MOL0     H73700   5.651  -0.131   6.218  0.9670 -2.4731 -1.5048
  546MOL0     H73701   5.726  -0.074   6.071 -2.8382  0.7002 -1.4712
  546MOL0     H73702   5.798   0.030   6.357 -0.6635 -0.7559  0.2323
  546MOL0     H73703   5.873   0.080   6.206  0.7633  0.7838  1.0069
  546MOL0     H73704   5.946  -0.145   6.157 -0.3056 -2.1334  0.0981
  546MOL0     H73705   5.890  -0.205   6.301  1.3041 -1.8227 -1.9137
  546MOL0     H73706   6.015  -0.065   6.454 -1.5747  1.6958 -0.7601
  546MOL0     H73707   6.079   0.034   6.319 -0.0839  0.3227 -0.4973
  546MOL0     H73708   6.293  -0.318   6.238  0.5826  0.9184 -2.6050
  546MOL0     H73709   5.494  -0.139   6.046  1.3780  1.3549  0.4650
  546MOL0     H73710   5.254  -0.170   6.043 -0.1051 -0.0101 -0.0119
  547MOL0     O73711   7.889   1.318   2.608 -0.4810  0.1053 -0.5005
  547MOL0     C73712   7.878   1.198   2.645 -0.4649 -0.4379  0.6177
  547MOL0     O73713   7.756   1.123   2.664  0.0242 -0.2464 -0.1208
  547MOL0     C73714   7.638   1.195   2.667 -0.9468 -0.2692  0.7641
  547MOL0     C73715   7.529   1.120   2.685 -0.6398  0.7542  0.1815
  547MOL0     C73716   7.410   1.183   2.683  0.9600 -0.1888  0.0558
  547MOL0     C73717   7.388   1.320   2.677  0.8438  0.6232 -0.4420
  547MOL0     O73718   7.266   1.384   2.696 -0.8902 -0.5105 -0.0989
  547MOL0     C73719   7.146   1.306   2.674  1.0393  0.3498  0.5909
  547MOL0     C73720   7.033   1.404   2.680  0.0460  0.6118 -1.0060
  547MOL0     C73721   6.898   1.360   2.743  0.3697  0.7320  0.4571
  547MOL0     C73722   6.907   1.332   2.901 -0.6169  0.1813  0.1594
  547MOL0     C73723   6.805   1.228   2.958 -0.2480  0.1886  0.5587
  547MOL0     C73724   6.659   1.260   2.944  0.4563 -0.5699  0.6830
  547MOL0     C73725   6.578   1.148   3.001 -0.4619  0.1518 -0.0470
  547MOL0     C73726   6.438   1.131   2.921 -0.9304 -0.5880 -0.0056
  547MOL0     N73727   6.361   1.032   2.983  0.5942  0.5791  0.1297
  547MOL0     C73728   6.241   1.044   3.043  0.5722 -0.0076 -0.5221
  547MOL0     C73729   6.219   0.926   3.115  0.4824 -0.1475  0.8523
  547MOL0     C73730   6.106   0.893   3.202  0.6901 -0.7183  0.2855
  547MOL0     C73731   6.001   0.817   3.115 -0.0407 -0.1271 -0.9950
  547MOL0     C73732   5.931   0.905   3.002 -1.0797  0.2544 -0.8626
  547MOL0     C73733   5.816   0.841   2.929 -0.2925 -0.0442 -0.3283
  547MOL0     O73734   5.719   0.783   3.018  0.4017  0.6910 -0.6672
  547MOL0     C73735   5.585   0.769   2.973  0.1816 -0.2947  0.7830
  547MOL0     C73736   5.484   0.776   3.067 -0.6735  0.2465  0.0702
  547MOL0     C73737   5.353   0.753   3.020  0.1528 -0.3802 -0.5356
  547MOL0     C73738   5.243   0.754   3.123  0.3349 -0.0148 -0.4673
  547MOL0     C73739   5.321   0.730   2.884  0.5286 -0.7057 -0.5254
  547MOL0     C73740   5.196   0.678   2.828  1.6376  0.4227  0.2125
  547MOL0     O73741   5.098   0.670   2.911 -0.9305  0.2889 -0.5774
  547MOL0     C73742   4.975   0.646   2.852  0.1323 -0.5726 -0.1113
  547MOL0     C73743   4.887   0.741   2.811  0.3692  0.6052 -0.3262
  547MOL0     C73744   4.768   0.712   2.756  0.3683  0.4602  0.7343
  547MOL0     C73745   4.726   0.582   2.743 -0.0662  0.5137 -0.2404
  547MOL0     O73746   4.594   0.568   2.704 -0.7737  0.1767  0.1270
  547MOL0     C73747   4.492   0.551   2.796  0.7293 -0.3271 -0.2646
  547MOL0     C73748   4.467   0.674   2.880  0.0897  0.0374  0.2701
  547MOL0     C73749   4.393   0.772   2.788 -0.4882  0.5901 -0.1521
  547MOL0     C73750   4.366   0.904   2.858 -0.1211  0.3308 -0.4187
  547MOL0     C73751   4.310   1.009   2.770  1.0050  0.3369  0.5452
  547MOL0     C73752   4.398   1.062   2.662  0.1554 -0.5606  0.0022
  547MOL0     C73753   4.513   1.145   2.704  0.8297  0.2790  1.0483
  547MOL0     C73754   4.575   1.202   2.577 -0.5285 -0.1986  0.0130
  547MOL0    Cl73755   4.744   1.257   2.606 -0.7818  0.1851 -0.1461
  547MOL0     C73756   4.804   0.477   2.795 -0.2721  0.3694  0.2331
  547MOL0     C73757   4.929   0.515   2.849 -0.0687  0.2470  0.6911
  547MOL0     O73758   5.187   0.654   2.703 -0.6618  0.3508 -0.0640
  547MOL0     C73759   5.434   0.741   2.795  0.2043 -0.2136 -0.8020
  547MOL0     C73760   5.560   0.763   2.839 -0.7943 -0.5909  0.7242
  547MOL0     N73761   6.326   0.843   3.082  0.0042  0.3404 -0.5902
  547MOL0     N73762   6.405   0.903   3.001 -0.0805 -0.8562  0.3022
  547MOL0     C73763   7.494   1.406   2.661 -1.0254  0.6617 -0.0190
  547MOL0     C73764   7.623   1.342   2.662  0.0167 -1.0799  0.4443
  547MOL0     C73765   7.997   1.117   2.661 -0.2841  0.3107 -0.7674
  547MOL0     C73766   8.121   1.165   2.621 -0.0787 -0.7245 -1.0439
  547MOL0     C73767   8.231   1.092   2.657 -1.4993 -0.4902 -0.5873
  547MOL0     C73768   8.225   0.984   2.736 -0.1241  0.4351  0.6750
  547MOL0     O73769   8.344   0.919   2.771  0.5101 -0.0076 -0.0486
  547MOL0     C73770   8.384   0.809   2.684  0.3867  0.0421 -0.4351
  547MOL0     C73771   8.527   0.771   2.726 -0.3095 -0.2585 -0.2548
  547MOL0     C73772   8.640   0.864   2.675 -0.7972  0.2266  0.0287
  547MOL0     C73773   8.769   0.847   2.753  0.4620 -0.4953 -0.4887
  547MOL0     C73774   8.881   0.799   2.678 -0.5820  0.5789 -1.1852
  547MOL0     C73775   8.981   0.750   2.616  0.8991 -0.2439 -0.6635
  547MOL0     C73776   8.103   0.927   2.769  0.2331  0.1687 -0.1514
  547MOL0     C73777   7.986   1.003   2.736  1.4862 -0.2846 -0.5880
  547MOL0     H73778   7.530   1.012   2.690 -0.8737  0.6538 -1.3715
  547MOL0     H73779   7.323   1.123   2.710 -0.9365  1.8095 -1.3318
  547MOL0     H73780   7.143   1.259   2.575  0.2309 -1.6188  1.4895
  547MOL0     H73781   7.132   1.231   2.753 -1.4656  0.3685  0.2408
  547MOL0     H73782   7.066   1.493   2.734  1.8498 -1.0520  0.7831
  547MOL0     H73783   7.013   1.440   2.579  0.9301 -0.1714 -1.4759
  547MOL0     H73784   6.815   1.428   2.723 -1.0510 -0.8912  0.6063
  547MOL0     H73785   6.873   1.270   2.686 -0.7526  1.0863  0.3728
  547MOL0     H73786   7.007   1.299   2.930 -0.0739 -1.0678 -2.7304
  547MOL0     H73787   6.891   1.429   2.948  2.1759  0.8230 -0.0438
  547MOL0     H73788   6.830   1.135   2.908  0.1793  1.4352 -1.6872
  547MOL0     H73789   6.824   1.230   3.066  0.1221  0.9594  0.4834
  547MOL0     H73790   6.637   1.353   2.996  1.7988 -0.6304  1.3999
  547MOL0     H73791   6.630   1.265   2.839 -1.1659  0.3495  1.1370
  547MOL0     H73792   6.629   1.052   2.989  1.1293  1.1535 -1.9944
  547MOL0     H73793   6.553   1.163   3.106  3.3324  0.4361  0.9304
  547MOL0     H73794   6.455   1.106   2.816  2.8735 -2.5117  0.8976
  547MOL0     H73795   6.388   1.227   2.934 -0.0014  0.4547 -3.2387
  547MOL0     H73796   6.178   1.133   3.035 -1.3612 -1.0013  2.1602
  547MOL0     H73797   6.140   0.840   3.291 -0.7604 -0.2597  1.1437
  547MOL0     H73798   6.050   0.980   3.238  0.1003  0.1461 -2.4704
  547MOL0     H73799   5.923   0.771   3.176 -0.0967  1.9969  0.6347
  547MOL0     H73800   6.046   0.731   3.064  4.7526  0.3788  1.7617
  547MOL0     H73801   6.003   0.924   2.921 -0.2637  0.1883 -0.1743
  547MOL0     H73802   5.900   0.999   3.048 -0.0786  1.3278 -2.2714
  547MOL0     H73803   5.855   0.776   2.849  0.9920 -0.1453  0.3588
  547MOL0     H73804   5.776   0.929   2.878 -0.4986  1.0868  1.6942
  547MOL0     H73805   5.512   0.794   3.170 -1.3328 -0.0673  0.3129
  547MOL0     H73806   5.232   0.656   3.170 -1.6959  0.6839  0.6456
  547MOL0     H73807   5.280   0.823   3.199  3.0982 -1.3735 -0.4488
  547MOL0     H73808   5.143   0.791   3.100  0.6084  0.3748 -1.0687
  547MOL0     H73809   4.907   0.847   2.825 -1.6929  0.9373  0.4910
  547MOL0     H73810   4.707   0.791   2.713  0.8019 -0.3173 -1.3909
  547MOL0     H73811   4.401   0.538   2.737  0.8587  0.1919 -0.5798
  547MOL0     H73812   4.511   0.465   2.861  0.4842 -0.2146 -0.0412
  547MOL0     H73813   4.410   0.650   2.969  0.1545  0.2015  0.3566
  547MOL0     H73814   4.564   0.715   2.911  0.5369 -2.4315  2.4442
  547MOL0     H73815   4.295   0.727   2.771 -1.0913  2.1573 -0.9971
  547MOL0     H73816   4.449   0.778   2.694  1.5783  0.9382  1.0322
  547MOL0     H73817   4.300   0.892   2.944  0.3360 -2.3497 -0.3689
  547MOL0     H73818   4.453   0.948   2.908 -1.8081  3.0697  0.3626
  547MOL0     H73819   4.279   1.095   2.829 -1.8016  0.5632 -1.0759
  547MOL0     H73820   4.222   0.970   2.718  1.7516 -1.9796  0.8792
  547MOL0     H73821   4.434   0.967   2.621 -0.8661 -1.8856  1.9914
  547MOL0     H73822   4.341   1.120   2.589  0.6046  0.2121  0.2560
  547MOL0     H73823   4.589   1.083   2.753  2.5356  1.1048 -0.3978
  547MOL0     H73824   4.493   1.227   2.775  1.4971  0.3051  1.2169
  547MOL0     H73825   4.512   1.280   2.533  1.4558  0.2910 -2.1935
  547MOL0     H73826   4.582   1.125   2.500 -2.6876 -1.0461  0.6059
  547MOL0     H73827   4.775   0.373   2.785 -1.0800  0.6129 -0.0523
  547MOL0     H73828   4.994   0.436   2.885 -2.1607 -3.5855 -2.9188
  547MOL0     H73829   5.435   0.725   2.688 -0.9429 -0.4273 -0.7937
  547MOL0     H73830   5.636   0.783   2.764  2.0927 -3.3527  2.6509
  547MOL0     H73831   7.472   1.512   2.650 -2.5319  0.4478  0.6036
  547MOL0     H73832   7.698   1.421   2.661 -0.1186 -0.9356  1.0850
  547MOL0     H73833   8.127   1.267   2.582 -1.6486  0.7954  2.2870
  547MOL0     H73834   8.332   1.127   2.641 -1.7417  0.0084 -1.0828
  547MOL0     H73835   8.322   0.719   2.679  0.1440  0.2654 -1.9172
  547MOL0     H73836   8.389   0.854   2.584  0.5393  0.7293 -0.1274
  547MOL0     H73837   8.548   0.674   2.680 -0.2992  0.0793 -0.9669
  547MOL0     H73838   8.524   0.763   2.836  0.1373  2.7081  0.0607
  547MOL0     H73839   8.609   0.969   2.672 -1.2557  0.0980  0.1448
  547MOL0     H73840   8.653   0.838   2.570 -0.0702  3.2114 -0.7282
  547MOL0     H73841   8.750   0.795   2.847  2.9670  0.7942  0.8354
  547MOL0     H73842   8.796   0.950   2.779 -0.5621  0.3957 -2.6891
  547MOL0     H73843   9.064   0.718   2.557 -0.6979 -1.3811 -2.4141
  547MOL0     H73844   8.107   0.836   2.828  1.3752 -0.9305 -1.8375
  547MOL0     H73845   7.892   0.962   2.771  0.7256  1.7612 -0.1165
  548MOL0     O73846   9.597  11.369  10.890  1.2391  0.1744 -0.6484
  548MOL0     C73847   9.649  11.423  10.985  0.0858 -0.4133 -0.0812
  548MOL0     O73848   9.603  11.433  11.113  0.3803 -0.0813 -0.3179
  548MOL0     C73849   9.472  11.394  11.141 -0.4987  0.2691  0.4311
  548MOL0     C73850   9.396  11.494  11.194  0.1553  0.8271 -0.1348
  548MOL0     C73851   9.275  11.469  11.267  0.7221  0.3288  0.3879
  548MOL0     C73852   9.234  11.330  11.276  0.6582 -0.1366  0.0566
  548MOL0     O73853   9.137  11.281  11.360  0.3394 -0.0122  0.2080
  548MOL0     C73854   9.070  11.385  11.445  0.2623 -0.5922 -0.3404
  548MOL0     C73855   8.974  11.321  11.541 -0.2634 -0.5448  0.0801
  548MOL0     C73856   8.867  11.233  11.469 -0.0571 -0.3243  0.4478
  548MOL0     C73857   8.778  11.294  11.367 -0.6442 -0.5238 -0.4277
  548MOL0     C73858   8.667  11.204  11.294 -0.6187  0.2363 -0.6437
  548MOL0     C73859   8.731  11.073  11.231 -0.5449 -0.3297  0.4585
  548MOL0     C73860   8.845  11.094  11.134  0.1382  0.2004  0.7990
  548MOL0     C73861   8.799  11.186  11.021 -0.6806  0.0446  0.1403
  548MOL0     N73862   8.906  11.191  10.922 -0.1905 -0.1770  0.3520
  548MOL0     C73863   9.011  11.284  10.920 -0.2478  1.2930 -0.2578
  548MOL0     C73864   9.071  11.259  10.800 -0.2529  0.4819 -0.1631
  548MOL0     C73865   9.192  11.335  10.749  0.0862  0.1616  0.2219
  548MOL0     C73866   9.144  11.415  10.633  0.6022 -0.6409 -0.0529
  548MOL0     C73867   9.261  11.436  10.540  0.7942  0.1166  0.3716
  548MOL0     C73868   9.363  11.527  10.613  0.3636  0.2795 -0.6464
  548MOL0     O73869   9.303  11.644  10.664 -0.3886 -0.0469 -0.6175
  548MOL0     C73870   9.374  11.739  10.737 -0.7243  0.2663 -0.7532
  548MOL0     C73871   9.315  11.865  10.771  0.5161 -0.5008 -0.1898
  548MOL0     C73872   9.394  11.971  10.813  0.7868  0.4743 -0.9103
  548MOL0     C73873   9.345  12.112  10.807 -1.1884  0.0305  0.6325
  548MOL0     C73874   9.529  11.943  10.857  0.0254 -0.2880  0.6080
  548MOL0     C73875   9.617  12.052  10.913  0.5954  0.6304 -0.5916
  548MOL0     O73876   9.761  12.045  10.886 -0.4991  0.6809 -0.5751
  548MOL0     C73877   9.834  12.129  10.973 -0.1857 -0.1681 -0.0659
  548MOL0     C73878   9.877  12.247  10.920  0.0934  0.2713  0.2760
  548MOL0     C73879   9.971  12.325  10.998  0.2116 -0.2689 -0.5851
  548MOL0     C73880   9.999  12.281  11.134 -1.3371 -0.4622 -0.0905
  548MOL0     O73881  10.095  12.344  11.214  0.2835 -0.0467 -0.2501
  548MOL0     C73882  10.174  12.453  11.165 -0.1952 -0.2141  0.5111
  548MOL0     C73883  10.251  12.523  11.269 -0.2130 -0.8129 -0.5296
  548MOL0     C73884  10.171  12.632  11.345  0.3821 -0.4143 -0.0740
  548MOL0     C73885  10.257  12.727  11.435  0.7845 -0.0133  1.3974
  548MOL0     C73886  10.208  12.868  11.462 -0.4772  0.5625  0.0966
  548MOL0     C73887  10.071  12.860  11.545  0.3222 -0.6914 -0.9746
  548MOL0     C73888   9.974  12.982  11.534  0.8183  0.8371 -0.2340
  548MOL0     C73889   9.889  12.993  11.407 -0.6766 -1.1431  0.6515
  548MOL0    Cl73890   9.767  12.853  11.389 -0.1189 -0.6413 -0.1261
  548MOL0     C73891   9.947  12.167  11.186  0.1691 -0.6781 -0.2341
  548MOL0     C73892   9.861  12.092  11.105 -0.4264 -0.4342  0.6374
  548MOL0     O73893   9.569  12.137  10.986 -0.4533  0.5849 -0.2380
  548MOL0     C73894   9.589  11.821  10.818  0.1833 -0.4753  0.9174
  548MOL0     C73895   9.512  11.720  10.759 -0.4909 -0.2823  0.3651
  548MOL0     N73896   9.005  11.157  10.726  0.7876 -0.1250  0.1155
  548MOL0     N73897   8.914  11.112  10.815 -0.0297 -0.5518 -0.2259
  548MOL0     C73898   9.308  11.230  11.210  0.1094 -0.1112  0.0173
  548MOL0     C73899   9.421  11.269  11.137 -0.9755 -0.2963  0.0191
  548MOL0     C73900   9.783  11.486  10.970  0.6893  0.3647  0.1831
  548MOL0     C73901   9.818  11.523  10.843 -0.5130  0.3611  0.8133
  548MOL0     C73902   9.936  11.591  10.816 -0.2807  0.3427  0.0194
  548MOL0     C73903  10.022  11.616  10.919 -0.1570 -0.9008  0.0843
  548MOL0     O73904  10.139  11.685  10.875  0.2450  0.0148 -1.0102
  548MOL0     C73905  10.228  11.748  10.980  0.2384 -0.1876  0.6023
  548MOL0     C73906  10.173  11.877  11.046  0.3716  0.0155  0.0050
  548MOL0     C73907  10.281  11.956  11.130  0.6525  0.0060  0.7690
  548MOL0     C73908  10.387  12.015  11.039 -0.1752 -1.2892  0.3817
  548MOL0     C73909  10.333  12.113  10.950  0.2127  0.1688 -0.3320
  548MOL0     C73910  10.287  12.196  10.880  0.1778 -0.3375  0.9546
  548MOL0     C73911   9.992  11.582  11.046 -0.3204 -0.1732 -0.0832
  548MOL0     C73912   9.867  11.528  11.078  0.2523  0.7174  0.8904
  548MOL0     H73913   9.414  11.601  11.185 -1.7860  1.1829 -0.3064
  548MOL0     H73914   9.227  11.557  11.309  1.5772  1.0186 -0.0244
  548MOL0     H73915   9.145  11.440  11.502 -0.2593 -2.2019  2.0558
  548MOL0     H73916   9.017  11.447  11.372 -1.1815 -0.4175  0.7945
  548MOL0     H73917   9.026  11.264  11.619  0.7304  1.9186  1.3273
  548MOL0     H73918   8.917  11.391  11.602  1.2285 -0.7787  1.8442
  548MOL0     H73919   8.915  11.146  11.423 -1.0907 -0.0077 -1.3246
  548MOL0     H73920   8.800  11.189  11.543 -0.5601 -1.1383 -0.4674
  548MOL0     H73921   8.723  11.374  11.418 -3.4334 -2.4976 -0.0519
  548MOL0     H73922   8.837  11.343  11.290 -0.1873  0.2699  0.4039
  548MOL0     H73923   8.588  11.186  11.367  2.0879 -0.6307  2.3014
  548MOL0     H73924   8.620  11.259  11.212 -2.4498  2.1395  1.5673
  548MOL0     H73925   8.764  11.002  11.306  0.5479  0.8662  1.1577
  548MOL0     H73926   8.651  11.028  11.171  1.3885 -1.2640 -1.5575
  548MOL0     H73927   8.929  11.137  11.189 -0.6969  1.0367  1.4554
  548MOL0     H73928   8.872  10.998  11.089  1.5024  0.4816  0.9697
  548MOL0     H73929   8.780  11.291  11.047  1.5712  1.4628 -3.2245
  548MOL0     H73930   8.711  11.149  10.967  0.7748 -1.6373 -1.1833
  548MOL0     H73931   9.038  11.354  10.999 -2.4195 -0.1700  1.9363
  548MOL0     H73932   9.237  11.392  10.831  0.0165 -0.4934  0.7237
  548MOL0     H73933   9.275  11.277  10.709  0.2315  0.3368  0.2687
  548MOL0     H73934   9.091  11.508  10.657  0.2787 -1.1777  1.4557
  548MOL0     H73935   9.070  11.357  10.578  0.4072 -0.3739 -0.0713
  548MOL0     H73936   9.227  11.493  10.453 -2.3433  0.4285  1.6635
  548MOL0     H73937   9.305  11.341  10.508  1.9093  1.4068 -2.2516
  548MOL0     H73938   9.442  11.558  10.544  0.1633 -2.8285 -2.4472
  548MOL0     H73939   9.416  11.474  10.693  1.9960  0.9088 -1.2700
  548MOL0     H73940   9.210  11.885  10.749  0.8633 -1.3668 -3.1268
  548MOL0     H73941   9.422  12.186  10.783  0.1212 -1.4219  0.2197
  548MOL0     H73942   9.262  12.126  10.738 -1.8095 -1.4307  1.0407
  548MOL0     H73943   9.299  12.142  10.902 -1.0521  0.1505  0.6616
  548MOL0     H73944   9.844  12.266  10.818  0.4105  1.6730  0.4244
  548MOL0     H73945  10.000  12.420  10.956  0.6740  0.6834  1.7319
  548MOL0     H73946  10.243  12.411  11.091  0.1232  0.1816  0.5809
  548MOL0     H73947  10.118  12.525  11.104 -0.5164  0.4394  1.5488
  548MOL0     H73948  10.297  12.452  11.339 -0.6712  0.4174  1.0798
  548MOL0     H73949  10.332  12.576  11.217  1.7036 -2.5192  0.5637
  548MOL0     H73950  10.104  12.593  11.423 -0.4271 -1.1302 -1.1102
  548MOL0     H73951  10.109  12.692  11.278  1.6122  0.1920 -0.6940
  548MOL0     H73952  10.270  12.675  11.530  1.6512 -1.2190  0.6541
  548MOL0     H73953  10.346  12.757  11.378  0.1589  0.3669  0.5858
  548MOL0     H73954  10.188  12.909  11.363  0.9700 -0.9448 -0.8664
  548MOL0     H73955  10.282  12.926  11.517 -1.1192 -0.1704  1.8170
  548MOL0     H73956  10.010  12.776  11.510  0.0355  0.5158 -3.6605
  548MOL0     H73957  10.102  12.849  11.649  4.4565 -2.4400 -2.1915
  548MOL0     H73958  10.037  13.071  11.539 -0.3521  1.6185  1.3179
  548MOL0     H73959   9.901  12.989  11.615 -0.3553 -2.7119 -0.7893
  548MOL0     H73960   9.961  13.002  11.325 -2.9461  2.8782 -1.2100
  548MOL0     H73961   9.830  13.085  11.398  2.5543  0.9998 -0.4648
  548MOL0     H73962   9.969  12.138  11.288  1.3375 -0.1209 -0.3163
  548MOL0     H73963   9.820  11.999  11.143 -1.3283 -0.1904  0.2965
  548MOL0     H73964   9.691  11.791  10.839  0.5811 -1.1256 -1.6637
  548MOL0     H73965   9.558  11.632  10.716  0.8668  0.3756  0.4070
  548MOL0     H73966   9.278  11.126  11.216 -0.1467 -0.3521 -3.5209
  548MOL0     H73967   9.483  11.194  11.089 -0.1530  1.6293 -2.1054
  548MOL0     H73968   9.757  11.502  10.756  0.8237  0.2566 -0.1289
  548MOL0     H73969   9.948  11.596  10.708 -1.4739 -0.4548 -0.1705
  548MOL0     H73970  10.256  11.678  11.059 -1.8314 -4.2860 -1.9814
  548MOL0     H73971  10.311  11.784  10.918  1.4673 -1.1933  1.6032
  548MOL0     H73972  10.088  11.837  11.103 -0.2884  0.6417 -0.5367
  548MOL0     H73973  10.132  11.942  10.969 -1.5215 -1.9842 -0.7771
  548MOL0     H73974  10.331  11.888  11.200  3.0828 -0.2126 -1.0264
  548MOL0     H73975  10.227  12.029  11.190  0.2020 -0.9347  1.5363
  548MOL0     H73976  10.439  11.938  10.981  1.8866 -0.3381  0.8621
  548MOL0     H73977  10.458  12.068  11.103 -0.8626 -0.2146  0.2910
  548MOL0     H73978  10.238  12.264  10.813 -0.3711 -0.9264  0.7438
  548MOL0     H73979  10.053  11.615  11.129 -1.8170  0.9455  0.6169
  548MOL0     H73980   9.855  11.516  11.185  1.0381 -0.7014  0.8458
  549MOL0     O73981   3.249   5.796   0.435 -0.0807  0.2658 -0.6265
  549MOL0     C73982   3.224   5.826   0.550 -0.2607  0.7431  0.3661
  549MOL0     O73983   3.101   5.843   0.596  0.3935 -0.8001  0.4699
  549MOL0     C73984   2.989   5.881   0.519 -1.2407 -0.4969 -0.4934
  549MOL0     C73985   2.985   5.907   0.381  0.1869  0.0004 -0.4334
  549MOL0     C73986   2.869   5.939   0.309  0.1792  1.1154 -0.2977
  549MOL0     C73987   2.743   5.930   0.375  0.2785 -0.5986  0.1726
  549MOL0     O73988   2.617   5.953   0.316  0.2937 -0.1368  0.9974
  549MOL0     C73989   2.597   5.977   0.175  0.7380  0.2263 -0.3884
  549MOL0     C73990   2.456   5.978   0.138  0.1220 -0.0198  0.9598
  549MOL0     C73991   2.384   6.104   0.194  0.2731 -0.1492 -0.3348
  549MOL0     C73992   2.246   6.129   0.117  0.0343 -0.1447 -0.5214
  549MOL0     C73993   2.158   6.248   0.188  0.4000  0.1765  0.0184
  549MOL0     C73994   2.228   6.380   0.211  0.2258 -0.7065 -0.6340
  549MOL0     C73995   2.131   6.496   0.229  0.7268  0.3546  0.1841
  549MOL0     C73996   2.204   6.616   0.254  0.2228 -0.1351 -0.5336
  549MOL0     N73997   2.112   6.733   0.256 -0.2791 -0.0966 -0.4979
  549MOL0     C73998   2.091   6.812   0.150  0.3324 -0.5043  0.1289
  549MOL0     C73999   2.023   6.929   0.197  0.8618  0.3291 -0.4036
  549MOL0     C74000   1.991   7.058   0.126  0.4336  0.4854 -0.5182
  549MOL0     C74001   1.864   7.134   0.174 -0.4904  1.0638  0.2701
  549MOL0     C74002   1.739   7.050   0.154 -0.2726  0.5114 -0.1408
  549MOL0     C74003   1.622   7.136   0.162 -0.1501  0.8159 -0.4593
  549MOL0     O74004   1.508   7.049   0.171 -0.2813 -0.6869  0.0619
  549MOL0     C74005   1.386   7.113   0.179 -0.2206  0.0683 -0.5021
  549MOL0     C74006   1.371   7.246   0.188 -1.0635 -0.4027 -0.2177
  549MOL0     C74007   1.250   7.307   0.232 -0.2543 -0.0028  0.2748
  549MOL0     C74008   1.267   7.443   0.292  0.0244  0.6399 -0.1627
  549MOL0     C74009   1.123   7.233   0.224 -0.6932 -0.3318  0.0695
  549MOL0     C74010   0.983   7.289   0.249 -0.2437  0.3586  0.8163
  549MOL0     O74011   0.882   7.200   0.260 -0.6672 -0.3308  0.1127
  549MOL0     C74012   0.756   7.254   0.300  0.0910 -0.6707  0.4078
  549MOL0     C74013   0.748   7.345   0.406  0.4800 -0.0575 -0.6249
  549MOL0     C74014   0.625   7.396   0.448  0.1824 -0.2700  0.1623
  549MOL0     C74015   0.507   7.343   0.399 -0.2271 -0.2900  0.3234
  549MOL0     O74016   0.386   7.366   0.458 -0.7899  0.6953 -0.8126
  549MOL0     C74017   0.260   7.326   0.390  0.1998  0.2295 -0.4360
  549MOL0     C74018   0.137   7.382   0.462  1.0463  0.6408 -0.5142
  549MOL0     C74019   0.007   7.357   0.381 -0.6271  0.0625 -0.0120
  549MOL0     C74020  -0.110   7.395   0.476 -0.1899 -0.0314  0.4844
  549MOL0     C74021  -0.237   7.430   0.391 -0.9490  0.5686 -0.5287
  549MOL0     C74022  -0.354   7.454   0.489  0.9374 -1.1728 -0.9127
  549MOL0     C74023  -0.493   7.464   0.420  0.1294 -0.3300  0.1029
  549MOL0     C74024  -0.609   7.488   0.518 -1.0410  0.3706 -0.4439
  549MOL0    Cl74025  -0.608   7.665   0.567 -0.0461 -0.0696 -0.2549
  549MOL0     C74026   0.517   7.272   0.285  0.5562 -0.6555  0.7039
  549MOL0     C74027   0.641   7.230   0.227  0.1575  0.3502  0.4811
  549MOL0     O74028   0.974   7.409   0.257  0.4020  0.1523  0.0381
  549MOL0     C74029   1.138   7.099   0.206 -0.1723  0.4401 -0.3320
  549MOL0     C74030   1.265   7.036   0.179 -0.1293  0.0873  0.1112
  549MOL0     N74031   2.007   6.909   0.334 -0.0045 -0.6452  0.6903
  549MOL0     N74032   2.057   6.789   0.369  0.4922  0.0394  0.7923
  549MOL0     C74033   2.741   5.897   0.511  0.6321  0.0409 -0.1210
  549MOL0     C74034   2.857   5.879   0.580  0.2530 -0.9972  0.2591
  549MOL0     C74035   3.347   5.826   0.639 -0.5853 -0.3301  0.2037
  549MOL0     C74036   3.478   5.830   0.588 -0.3180  0.4220  0.4067
  549MOL0     C74037   3.590   5.816   0.666  0.0922  0.2004  0.3771
  549MOL0     C74038   3.582   5.799   0.802  0.2839 -0.0207  0.3180
  549MOL0     O74039   3.680   5.766   0.889 -0.2651 -0.2147  0.1706
  549MOL0     C74040   3.809   5.767   0.825 -0.7038 -0.3174  0.4584
  549MOL0     C74041   3.911   5.722   0.923 -0.8663 -0.4946 -0.3219
  549MOL0     C74042   4.044   5.776   0.883  0.3150  0.3053 -0.0430
  549MOL0     C74043   4.148   5.712   0.973  0.2768 -0.3544  1.0477
  549MOL0     C74044   4.284   5.776   0.953  0.0566 -1.2142 -0.6122
  549MOL0     C74045   4.394   5.817   0.933 -0.1576 -0.7948 -0.1588
  549MOL0     C74046   3.454   5.787   0.851  0.4222  0.3393 -0.5756
  549MOL0     C74047   3.336   5.805   0.777 -0.8187 -0.0750 -0.0720
  549MOL0     H74048   3.075   5.908   0.321  0.3269 -0.3240 -0.2277
  549MOL0     H74049   2.867   5.972   0.206 -0.8417  2.1627  0.0345
  549MOL0     H74050   2.646   6.063   0.128 -0.3934 -0.2740 -2.6350
  549MOL0     H74051   2.645   5.890   0.130  0.6016 -1.4377  2.4869
  549MOL0     H74052   2.457   5.979   0.028 -0.2881  0.9123  0.9591
  549MOL0     H74053   2.411   5.887   0.180 -0.4770  0.5325  1.5286
  549MOL0     H74054   2.372   6.089   0.302 -1.6734 -0.2750 -0.5371
  549MOL0     H74055   2.444   6.195   0.181  2.9864 -1.8029 -0.0602
  549MOL0     H74056   2.265   6.169   0.017 -0.2158  1.3461 -0.0052
  549MOL0     H74057   2.192   6.034   0.111  0.1544 -0.2804  0.4526
  549MOL0     H74058   2.065   6.261   0.131  0.0250  0.7466  0.7543
  549MOL0     H74059   2.125   6.212   0.286 -0.7158  2.7283  0.6461
  549MOL0     H74060   2.300   6.380   0.294  0.3008 -2.2158 -0.6697
  549MOL0     H74061   2.288   6.396   0.121  1.1524  0.6623  0.1956
  549MOL0     H74062   2.076   6.505   0.135  0.3065  1.4956  0.5239
  549MOL0     H74063   2.053   6.487   0.305 -0.8202  1.2855 -1.2218
  549MOL0     H74064   2.279   6.649   0.181  0.9114  2.4726  1.2125
  549MOL0     H74065   2.249   6.602   0.353  0.8511  0.4587 -0.7289
  549MOL0     H74066   2.128   6.797   0.050 -1.1132  2.7417 -1.0673
  549MOL0     H74067   2.077   7.123   0.144  1.9396 -1.4000 -0.5658
  549MOL0     H74068   1.986   7.036   0.019 -3.2197  0.7283 -0.5057
  549MOL0     H74069   1.878   7.230   0.124  0.4236 -0.0693 -1.7803
  549MOL0     H74070   1.878   7.146   0.282  1.9203  0.6332  0.0536
  549MOL0     H74071   1.738   6.960   0.216 -0.7711  0.1823 -0.6128
  549MOL0     H74072   1.747   7.005   0.054  3.2461  0.3666  0.0941
  549MOL0     H74073   1.609   7.206   0.079 -2.0063  1.5005  0.3848
  549MOL0     H74074   1.631   7.200   0.250 -0.4022  1.6922 -1.0592
  549MOL0     H74075   1.457   7.312   0.190 -0.4934 -0.9976 -2.3372
  549MOL0     H74076   1.207   7.453   0.383 -0.0901 -0.7302 -0.0619
  549MOL0     H74077   1.371   7.475   0.305  1.3801 -3.2658  0.1465
  549MOL0     H74078   1.228   7.514   0.219  2.1705  0.8661 -1.1617
  549MOL0     H74079   0.827   7.364   0.479  0.5517 -2.0003 -0.1545
  549MOL0     H74080   0.622   7.456   0.539 -0.9049 -0.3105  0.1606
  549MOL0     H74081   0.259   7.365   0.288 -0.0557 -0.0461 -0.5402
  549MOL0     H74082   0.261   7.217   0.390  0.4068  0.2117  0.7213
  549MOL0     H74083   0.123   7.330   0.557  1.1011 -0.6208 -1.1873
  549MOL0     H74084   0.150   7.490   0.480  0.2185  1.2237 -3.0669
  549MOL0     H74085  -0.003   7.254   0.344  1.0344  0.2025 -0.9162
  549MOL0     H74086   0.006   7.425   0.296  2.3893  1.0982  0.6749
  549MOL0     H74087  -0.139   7.331   0.560  0.0318 -1.7798 -0.7196
  549MOL0     H74088  -0.079   7.490   0.522  1.2385 -0.8025  1.1860
  549MOL0     H74089  -0.263   7.336   0.341 -3.4039  1.0583 -0.2666
  549MOL0     H74090  -0.222   7.500   0.309 -1.2495 -0.1141 -1.1842
  549MOL0     H74091  -0.360   7.366   0.553 -1.4932 -0.8993 -0.6669
  549MOL0     H74092  -0.352   7.545   0.551  1.0478 -2.6104  1.3019
  549MOL0     H74093  -0.515   7.362   0.389  1.9166  0.1221 -3.0915
  549MOL0     H74094  -0.500   7.528   0.331 -0.9277 -3.1359 -1.9799
  549MOL0     H74095  -0.591   7.431   0.609  2.9482  2.0930  0.0189
  549MOL0     H74096  -0.706   7.455   0.477 -1.6594  0.3103  1.0142
  549MOL0     H74097   0.428   7.240   0.233 -0.3675 -0.1225  1.9094
  549MOL0     H74098   0.650   7.179   0.131 -1.8163  1.5438 -0.3960
  549MOL0     H74099   1.065   7.019   0.217  0.8962 -0.4305  0.7484
  549MOL0     H74100   1.276   6.930   0.160  1.9920  0.2711  0.1227
  549MOL0     H74101   2.642   5.893   0.554  0.5084 -1.2544 -0.5014
  549MOL0     H74102   2.852   5.862   0.687  0.1050 -5.7249 -0.3191
  549MOL0     H74103   3.499   5.836   0.481 -0.0421  0.2912  0.4527
  549MOL0     H74104   3.684   5.813   0.613  0.7789 -0.0703  1.5578
  549MOL0     H74105   3.812   5.706   0.734 -0.5001  1.6649 -0.9242
  549MOL0     H74106   3.842   5.869   0.802 -0.8349 -0.3031  0.3284
  549MOL0     H74107   3.906   5.615   0.943 -2.0664  0.0477  2.6266
  549MOL0     H74108   3.890   5.768   1.020 -0.8649 -2.4989  0.6802
  549MOL0     H74109   4.051   5.884   0.898 -1.0859  0.5006 -0.6255
  549MOL0     H74110   4.069   5.759   0.778 -0.9751 -1.4066 -0.1169
  549MOL0     H74111   4.184   5.614   0.942 -1.1982 -0.3747 -0.7928
  549MOL0     H74112   4.108   5.710   1.074 -2.5665  0.0913  0.0232
  549MOL0     H74113   4.496   5.843   0.915 -0.7310  1.5696 -0.2939
  549MOL0     H74114   3.445   5.768   0.958 -1.2011 -0.4543 -0.8134
  549MOL0     H74115   3.241   5.800   0.829 -0.7025 -0.1400  0.1361
  550MOL0     O74116   1.352   6.611   7.674  0.5343  0.5761 -0.6195
  550MOL0     C74117   1.307   6.589   7.561  0.6703 -0.8129 -0.1468
  550MOL0     O74118   1.173   6.592   7.526  0.6309  0.6264 -0.1663
  550MOL0     C74119   1.081   6.591   7.631 -1.2224  0.0444 -0.2820
  550MOL0     C74120   0.968   6.678   7.621 -0.5226  0.9485 -0.9664
  550MOL0     C74121   0.869   6.684   7.712  1.1012  0.5267  0.1350
  550MOL0     C74122   0.867   6.592   7.821 -0.0292 -0.4916 -0.0051
  550MOL0     O74123   0.763   6.576   7.900  0.1495  0.7564 -0.3416
  550MOL0     C74124   0.705   6.694   7.952 -0.8114 -0.5794  0.2707
  550MOL0     C74125   0.577   6.641   8.018 -1.5942 -0.0607 -0.5265
  550MOL0     C74126   0.482   6.559   7.934 -0.5218  0.3864 -0.0665
  550MOL0     C74127   0.418   6.642   7.824 -0.2027  0.5472 -0.6734
  550MOL0     C74128   0.288   6.578   7.762 -0.0793  0.4754  0.0136
  550MOL0     C74129   0.230   6.670   7.660 -1.0109  0.1537  0.1038
  550MOL0     C74130   0.096   6.624   7.588  0.1211 -0.0970  0.1715
  550MOL0     C74131  -0.027   6.614   7.680 -0.6872 -0.2698  0.2678
  550MOL0     N74132  -0.128   6.555   7.596 -0.7522 -0.0744 -0.4671
  550MOL0     C74133  -0.132   6.427   7.543 -0.0405 -0.1370 -0.7634
  550MOL0     C74134  -0.227   6.430   7.455 -0.0896 -0.3978  0.2731
  550MOL0     C74135  -0.274   6.326   7.366 -0.2237 -0.5415  0.1251
  550MOL0     C74136  -0.407   6.262   7.410 -1.5871  0.5503 -0.2668
  550MOL0     C74137  -0.528   6.356   7.388  0.3515  0.3220  0.2661
  550MOL0     C74138  -0.660   6.292   7.357  0.0225 -0.3637  0.2392
  550MOL0     O74139  -0.724   6.251   7.472 -0.3959  0.5316 -0.2972
  550MOL0     C74140  -0.856   6.232   7.470 -0.9386 -0.1607 -0.2610
  550MOL0     C74141  -0.929   6.258   7.584 -0.4515  0.2711 -0.4927
  550MOL0     C74142  -1.072   6.252   7.589 -0.4057  0.4698 -1.0701
  550MOL0     C74143  -1.127   6.279   7.731 -0.0890  0.4236  0.3669
  550MOL0     C74144  -1.135   6.223   7.475 -0.3875 -0.0708  0.6899
  550MOL0     C74145  -1.282   6.210   7.453  0.2532 -0.6819  0.4426
  550MOL0     O74146  -1.362   6.222   7.563 -0.5272 -0.2489  0.4421
  550MOL0     C74147  -1.488   6.159   7.568  0.0786 -0.5836 -0.3336
  550MOL0     C74148  -1.569   6.220   7.656  0.4415 -0.6531 -0.0295
  550MOL0     C74149  -1.702   6.163   7.688 -1.3571  0.1031 -0.0525
  550MOL0     C74150  -1.739   6.042   7.628 -0.5259  0.6866 -0.0817
  550MOL0     O74151  -1.862   5.982   7.652 -0.3346  0.0785 -0.6224
  550MOL0     C74152  -1.947   6.037   7.751 -0.7235  0.2390 -0.7379
  550MOL0     C74153  -2.055   5.923   7.774  0.1650  0.8411  0.2450
  550MOL0     C74154  -2.175   5.974   7.849 -0.1145  0.0010 -0.4631
  550MOL0     C74155  -2.311   5.967   7.778 -0.8635 -0.4340  0.7714
  550MOL0     C74156  -2.296   6.047   7.643  0.6054  0.1776 -0.0061
  550MOL0     C74157  -2.422   6.016   7.553 -0.1207 -0.2627 -0.0280
  550MOL0     C74158  -2.562   6.014   7.630  1.3915 -0.1415  0.5942
  550MOL0     C74159  -2.673   5.980   7.520 -0.5938  0.3175 -0.4844
  550MOL0    Cl74160  -2.663   5.821   7.432  0.2582 -0.4581  0.0757
  550MOL0     C74161  -1.653   5.988   7.531  0.5302 -0.6314  0.0110
  550MOL0     C74162  -1.521   6.034   7.510  0.5248 -1.3633  0.1409
  550MOL0     O74163  -1.322   6.211   7.336 -0.5834  0.2131 -0.3928
  550MOL0     C74164  -1.062   6.191   7.358  0.0594  0.5298  0.5986
  550MOL0     C74165  -0.924   6.201   7.356  0.1945  0.6457  0.5055
  550MOL0     N74166  -0.287   6.554   7.463 -0.2153 -0.1486  0.1863
  550MOL0     N74167  -0.235   6.623   7.550  0.0675 -0.2367  0.7485
  550MOL0     C74168   0.981   6.515   7.843 -1.1206  0.1703 -0.5348
  550MOL0     C74169   1.084   6.516   7.751  0.2586  1.0920  0.5193
  550MOL0     C74170   1.402   6.590   7.447  0.0447  0.7030  0.9884
  550MOL0     C74171   1.362   6.547   7.318  0.1027  0.5077 -1.1588
  550MOL0     C74172   1.451   6.541   7.210  0.2218  0.0345  0.3834
  550MOL0     C74173   1.583   6.587   7.226 -0.2879 -0.1677  1.0511
  550MOL0     O74174   1.668   6.595   7.116  0.4179 -0.1429 -0.9243
  550MOL0     C74175   1.627   6.559   6.987  0.4167  0.4608 -0.7003
  550MOL0     C74176   1.732   6.605   6.887 -0.0224 -0.5253  0.8196
  550MOL0     C74177   1.657   6.701   6.780 -0.8464  0.1748 -1.0862
  550MOL0     C74178   1.776   6.748   6.697  0.5981  0.6051 -0.2526
  550MOL0     C74179   1.722   6.818   6.587 -0.5266 -0.9632  0.0336
  550MOL0     C74180   1.671   6.881   6.496  0.4059  0.1425  0.0783
  550MOL0     C74181   1.630   6.615   7.353  0.3493  0.3961  0.0960
  550MOL0     C74182   1.540   6.609   7.460 -0.6042 -0.1493  0.3450
  550MOL0     H74183   0.963   6.741   7.533  0.5359  0.2693 -1.5419
  550MOL0     H74184   0.794   6.762   7.702 -0.0916 -0.8889 -3.3852
  550MOL0     H74185   0.773   6.751   8.016  0.9603 -0.6560 -1.4310
  550MOL0     H74186   0.666   6.763   7.877 -1.0904 -1.3402 -0.3033
  550MOL0     H74187   0.610   6.577   8.100  2.0969  2.2313  0.0376
  550MOL0     H74188   0.518   6.725   8.056 -2.1803 -0.6449 -0.1518
  550MOL0     H74189   0.537   6.469   7.903 -0.5307  0.9644 -1.8851
  550MOL0     H74190   0.394   6.522   7.988  0.1501 -0.8331  0.2377
  550MOL0     H74191   0.400   6.744   7.858 -0.8411  0.3436 -0.3869
  550MOL0     H74192   0.493   6.647   7.745  1.8698 -1.9668  0.9605
  550MOL0     H74193   0.318   6.483   7.717 -0.8995  1.0770 -1.8972
  550MOL0     H74194   0.215   6.551   7.839 -0.2988  1.5139  0.1819
  550MOL0     H74195   0.209   6.774   7.688  0.8955  0.6907 -0.3529
  550MOL0     H74196   0.303   6.701   7.585 -2.0494  1.4573 -0.4106
  550MOL0     H74197   0.069   6.705   7.519 -1.2796  0.1846  1.0099
  550MOL0     H74198   0.110   6.524   7.547 -3.0250 -0.1244 -1.1175
  550MOL0     H74199  -0.056   6.714   7.715  0.0026  1.3631 -3.3424
  550MOL0     H74200  -0.008   6.542   7.760  1.6644 -1.3743 -1.1953
  550MOL0     H74201  -0.055   6.351   7.561 -0.2669 -0.9928 -3.0777
  550MOL0     H74202  -0.294   6.380   7.273  1.6714 -1.6957 -1.0047
  550MOL0     H74203  -0.195   6.251   7.358 -0.5322 -0.6768 -3.0999
  550MOL0     H74204  -0.391   6.222   7.511 -0.8293 -2.3812 -1.4579
  550MOL0     H74205  -0.426   6.170   7.354  2.6559 -0.2970 -0.7002
  550MOL0     H74206  -0.511   6.407   7.293  0.3382 -4.6792 -2.7950
  550MOL0     H74207  -0.534   6.433   7.466  0.4205  0.4737  0.1211
  550MOL0     H74208  -0.634   6.211   7.288 -1.3414 -0.0014 -0.7365
  550MOL0     H74209  -0.732   6.351   7.300  0.3502 -1.8359 -1.8342
  550MOL0     H74210  -0.884   6.291   7.677  1.1660  2.5687 -1.9714
  550MOL0     H74211  -1.206   6.205   7.752  1.2140 -2.6573 -4.1320
  550MOL0     H74212  -1.049   6.269   7.807 -0.7616 -0.8680  0.9234
  550MOL0     H74213  -1.164   6.381   7.745 -0.4778  0.5655 -1.4862
  550MOL0     H74214  -1.523   6.302   7.709  3.3670 -0.3777 -2.7108
  550MOL0     H74215  -1.750   6.204   7.776 -4.5208 -0.0787 -1.5532
  550MOL0     H74216  -1.881   6.046   7.838  1.5467 -3.7537 -1.7990
  550MOL0     H74217  -1.989   6.133   7.721 -0.7519 -0.4540 -3.0961
  550MOL0     H74218  -2.074   5.876   7.676  0.1486  0.0119  0.6365
  550MOL0     H74219  -2.006   5.839   7.825  2.6429  0.8201 -1.9215
  550MOL0     H74220  -2.157   6.077   7.880  0.7114  0.2987 -1.8422
  550MOL0     H74221  -2.189   5.927   7.947  0.8838  0.1061 -0.2586
  550MOL0     H74222  -2.344   5.865   7.758  0.5515 -0.4547 -1.8850
  550MOL0     H74223  -2.389   6.018   7.836 -1.6559  2.6869 -2.6346
  550MOL0     H74224  -2.210   6.032   7.578  1.1221 -3.2200  1.2519
  550MOL0     H74225  -2.284   6.150   7.678 -2.4722  0.4332  0.5490
  550MOL0     H74226  -2.421   6.093   7.475  4.2435 -0.1599 -0.0736
  550MOL0     H74227  -2.420   5.924   7.495 -2.5411  0.3386 -1.2040
  550MOL0     H74228  -2.588   6.116   7.661 -0.1612 -0.4865  0.5088
  550MOL0     H74229  -2.569   5.942   7.712 -0.5700  2.0476  2.5073
  550MOL0     H74230  -2.678   6.057   7.443 -0.0516  1.1757  0.3206
  550MOL0     H74231  -2.771   5.974   7.569 -0.3650 -1.2184 -0.1375
  550MOL0     H74232  -1.666   5.899   7.471  0.3344  0.7029 -1.9951
  550MOL0     H74233  -1.456   5.967   7.455 -0.4490 -0.5691 -2.0697
  550MOL0     H74234  -1.100   6.161   7.261 -0.1115  0.0848  0.7993
  550MOL0     H74235  -0.887   6.165   7.261  0.3781  0.9760  0.4483
  550MOL0     H74236   0.993   6.452   7.931 -0.0363 -0.0049 -0.7940
  550MOL0     H74237   1.175   6.457   7.756  0.9395  1.9604 -0.8489
  550MOL0     H74238   1.254   6.534   7.320  0.1184  0.3346 -1.3765
  550MOL0     H74239   1.406   6.513   7.114  0.7281 -0.2238  0.2181
  550MOL0     H74240   1.620   6.451   6.970  0.7503  0.6852 -2.4206
  550MOL0     H74241   1.532   6.605   6.958  0.9158  2.1598  0.2467
  550MOL0     H74242   1.787   6.529   6.831  0.2081  0.8300 -0.8852
  550MOL0     H74243   1.801   6.676   6.934  0.6501 -0.0211 -0.8299
  550MOL0     H74244   1.628   6.780   6.850  0.7414 -2.4279  2.9181
  550MOL0     H74245   1.575   6.656   6.725 -1.3101  0.5993 -0.7517
  550MOL0     H74246   1.815   6.656   6.652 -1.3252 -0.0522 -0.6397
  550MOL0     H74247   1.857   6.797   6.752  1.1396 -0.8593  0.3169
  550MOL0     H74248   1.621   6.925   6.412  0.3610  0.5237  0.3021
  550MOL0     H74249   1.733   6.628   7.387  0.4244 -0.4988  0.2458
  550MOL0     H74250   1.590   6.634   7.553  0.9507 -1.7253 -0.0042
  551MOL0     O74251   0.207   0.082   2.594 -0.4328  0.1072 -0.5271
  551MOL0     C74252   0.179   0.171   2.677 -0.7267  1.1161 -0.8064
  551MOL0     O74253   0.074   0.170   2.765 -0.0567 -0.0524  0.0115
  551MOL0     C74254  -0.007   0.054   2.773 -0.2441 -0.4516  0.1914
  551MOL0     C74255  -0.008  -0.011   2.899  0.0396  0.4130  0.0122
  551MOL0     C74256  -0.086  -0.123   2.913  0.7001 -0.3919  0.1681
  551MOL0     C74257  -0.169  -0.172   2.806 -0.7736  0.5033  0.1196
  551MOL0     O74258  -0.260  -0.272   2.811  0.3048  0.4393  0.3057
  551MOL0     C74259  -0.314  -0.310   2.941 -0.7882 -0.1285 -0.3452
  551MOL0     C74260  -0.428  -0.420   2.919 -0.1554 -0.6630 -0.0268
  551MOL0     C74261  -0.482  -0.480   3.046  0.9721  0.3344 -0.5520
  551MOL0     C74262  -0.586  -0.589   3.020  0.2924 -0.2767  0.5577
  551MOL0     C74263  -0.631  -0.668   3.140  0.6973 -0.9504 -0.0958
  551MOL0     C74264  -0.696  -0.790   3.074 -0.1137 -0.5445  0.4585
  551MOL0     C74265  -0.769  -0.876   3.167  0.0551  0.2281 -0.4168
  551MOL0     C74266  -0.861  -0.993   3.101 -0.3795  0.0537  0.5908
  551MOL0     N74267  -0.952  -0.955   2.993 -0.1466 -0.0995  0.1302
  551MOL0     C74268  -1.087  -0.927   3.013  0.3778  1.0219 -0.2818
  551MOL0     C74269  -1.134  -0.901   2.891 -0.4651 -0.0806  0.6855
  551MOL0     C74270  -1.278  -0.878   2.842 -0.4871 -0.2688 -0.1417
  551MOL0     C74271  -1.372  -0.988   2.898  0.9809  0.6414 -0.1227
  551MOL0     C74272  -1.524  -0.958   2.868  1.2679  0.1582 -0.0665
  551MOL0     C74273  -1.615  -1.044   2.956  0.4505 -0.0756  1.5463
  551MOL0     O74274  -1.743  -1.043   2.909  0.1563  0.3795 -0.4895
  551MOL0     C74275  -1.843  -1.119   2.962  0.0349 -0.3864  0.1979
  551MOL0     C74276  -1.850  -1.164   3.095 -0.1457  0.7788  1.2359
  551MOL0     C74277  -1.975  -1.215   3.150 -0.2039 -0.2510 -0.2144
  551MOL0     C74278  -1.984  -1.252   3.298 -0.2985  0.4018 -0.1035
  551MOL0     C74279  -2.091  -1.211   3.068 -0.6225  0.8975  0.6711
  551MOL0     C74280  -2.225  -1.248   3.120 -0.6759 -0.8946  0.9138
  551MOL0     O74281  -2.324  -1.202   3.040  0.2590  0.6082  0.5671
  551MOL0     C74282  -2.453  -1.241   3.056 -0.6349  0.0099  1.3053
  551MOL0     C74283  -2.509  -1.318   2.957 -1.5603 -0.8120 -0.3065
  551MOL0     C74284  -2.640  -1.357   2.977 -0.3686  0.8861  0.7307
  551MOL0     C74285  -2.723  -1.331   3.084 -0.8232 -0.4258 -0.5648
  551MOL0     O74286  -2.859  -1.368   3.099 -0.0376 -0.0852 -0.6990
  551MOL0     C74287  -2.935  -1.394   2.974 -0.4733 -0.9558 -1.1116
  551MOL0     C74288  -3.085  -1.404   2.998  0.5664  0.2249 -0.0771
  551MOL0     C74289  -3.155  -1.272   3.039 -1.4614 -0.9036  0.0490
  551MOL0     C74290  -3.151  -1.177   2.911 -0.3259 -0.1342 -0.4961
  551MOL0     C74291  -3.291  -1.123   2.873  0.2317  0.1342  0.0590
  551MOL0     C74292  -3.393  -1.233   2.828 -0.0057  0.3122 -0.1929
  551MOL0     C74293  -3.528  -1.167   2.784 -1.2531 -0.3815  0.0836
  551MOL0     C74294  -3.645  -1.223   2.857  0.6763  0.4943 -0.8740
  551MOL0    Cl74295  -3.808  -1.180   2.784 -0.0516  0.0153  0.3369
  551MOL0     C74296  -2.657  -1.260   3.180  0.7270  0.2521 -0.4401
  551MOL0     C74297  -2.529  -1.208   3.169  0.7458 -0.6648 -0.0995
  551MOL0     O74298  -2.242  -1.316   3.221  0.6726 -0.3883 -0.3757
  551MOL0     C74299  -2.080  -1.163   2.934  1.0241 -0.4612  0.4824
  551MOL0     C74300  -1.954  -1.131   2.879 -0.6945 -0.4348  0.2671
  551MOL0     N74301  -1.027  -0.895   2.800  0.0174  0.8814  0.3370
  551MOL0     N74302  -0.925  -0.943   2.861  0.7561 -0.0413 -1.0015
  551MOL0     C74303  -0.153  -0.116   2.681  0.0154 -0.0097 -0.8044
  551MOL0     C74304  -0.074  -0.003   2.661 -0.3259 -0.5743  0.9666
  551MOL0     C74305   0.282   0.271   2.717 -0.3494 -0.4294 -0.2855
  551MOL0     C74306   0.423   0.253   2.689  0.9130  0.4218  0.6416
  551MOL0     C74307   0.521   0.342   2.741 -0.6845  1.3365  0.6093
  551MOL0     C74308   0.482   0.461   2.799 -0.4895  0.0500  0.0632
  551MOL0     O74309   0.586   0.539   2.839 -0.4499 -0.3342 -0.3849
  551MOL0     C74310   0.564   0.677   2.894 -0.1369  0.4645 -0.3275
  551MOL0     C74311   0.525   0.790   2.794 -0.1735 -0.1933 -0.0603
  551MOL0     C74312   0.643   0.806   2.701 -0.3594  0.4819 -0.6986
  551MOL0     C74313   0.650   0.947   2.666 -0.6852 -0.5235 -0.1365
  551MOL0     C74314   0.750   1.001   2.571  0.2194 -0.3620  0.3397
  551MOL0     C74315   0.820   1.038   2.480 -0.5025 -0.2839  0.5750
  551MOL0     C74316   0.346   0.490   2.829 -0.3913  1.3217  0.8949
  551MOL0     C74317   0.247   0.397   2.786  0.1444 -0.1709 -0.1797
  551MOL0     H74318   0.046   0.027   2.986  0.6654  0.0771 -0.2289
  551MOL0     H74319  -0.091  -0.177   3.007  1.2557 -1.4001 -0.3724
  551MOL0     H74320  -0.230  -0.344   3.002 -0.5894  1.0651  0.0830
  551MOL0     H74321  -0.347  -0.220   2.993 -0.0568  0.7337 -1.3324
  551MOL0     H74322  -0.511  -0.374   2.864 -2.5254 -5.2942 -0.8487
  551MOL0     H74323  -0.386  -0.504   2.862 -0.9930 -1.0133 -0.1495
  551MOL0     H74324  -0.404  -0.524   3.110  0.8234 -1.0287 -1.2599
  551MOL0     H74325  -0.533  -0.414   3.117 -1.5238 -3.0822  1.1869
  551MOL0     H74326  -0.671  -0.543   2.969  1.8904 -0.5808 -2.6856
  551MOL0     H74327  -0.554  -0.652   2.936  2.1158  1.0591  0.1954
  551MOL0     H74328  -0.555  -0.693   3.215  1.1071  1.0305  0.2077
  551MOL0     H74329  -0.709  -0.611   3.192  2.0988 -1.6866  3.1061
  551MOL0     H74330  -0.755  -0.768   2.985  0.6401 -3.9459 -1.0307
  551MOL0     H74331  -0.613  -0.845   3.030 -0.5208  1.5446 -3.3012
  551MOL0     H74332  -0.706  -0.930   3.238 -3.5811 -3.9571  0.0498
  551MOL0     H74333  -0.847  -0.818   3.216  1.4240  2.0227 -0.2377
  551MOL0     H74334  -0.916  -1.026   3.189  1.5670 -1.7293  1.2157
  551MOL0     H74335  -0.795  -1.073   3.066  2.0492  1.1989  2.2147
  551MOL0     H74336  -1.150  -0.937   3.101  3.2296 -0.1689  1.7509
  551MOL0     H74337  -1.311  -0.776   2.865  0.7680  0.2339 -0.5357
  551MOL0     H74338  -1.290  -0.879   2.733 -3.0486  1.3964  0.0180
  551MOL0     H74339  -1.359  -0.991   3.007 -0.3693 -1.0572  0.0323
  551MOL0     H74340  -1.350  -1.086   2.855 -2.1978 -1.2028  2.0014
  551MOL0     H74341  -1.533  -0.984   2.762  2.5130  2.5455 -0.8420
  551MOL0     H74342  -1.551  -0.853   2.874 -0.6281 -0.3638  1.9585
  551MOL0     H74343  -1.608  -0.996   3.054  0.7420  0.6461  1.1739
  551MOL0     H74344  -1.577  -1.147   2.966  1.3450  0.2716  1.8040
  551MOL0     H74345  -1.763  -1.150   3.159  0.2598  0.6661  0.7146
  551MOL0     H74346  -1.974  -1.359   3.319 -0.6929  0.6492  1.4723
  551MOL0     H74347  -1.893  -1.220   3.350  1.8444 -2.3035 -1.8549
  551MOL0     H74348  -2.068  -1.214   3.356  0.0722 -1.6121  1.9064
  551MOL0     H74349  -2.468  -1.334   2.858 -1.6301 -1.2946 -0.2594
  551MOL0     H74350  -2.688  -1.411   2.896  0.3562  1.1961  0.0861
  551MOL0     H74351  -2.915  -1.311   2.905 -2.2584  0.7000  0.2451
  551MOL0     H74352  -2.896  -1.488   2.934  2.2446 -0.6600  0.5898
  551MOL0     H74353  -3.142  -1.440   2.912 -2.0222  3.7403 -0.0631
  551MOL0     H74354  -3.101  -1.481   3.073  0.9348 -0.6311 -0.8562
  551MOL0     H74355  -3.088  -1.233   3.116  1.4178 -1.2484 -2.0901
  551MOL0     H74356  -3.259  -1.283   3.071 -0.4219 -0.9148  3.9105
  551MOL0     H74357  -3.080  -1.096   2.932  1.2379 -1.0255 -2.1318
  551MOL0     H74358  -3.113  -1.230   2.824 -2.3403 -0.0395 -1.4786
  551MOL0     H74359  -3.271  -1.045   2.799 -2.0863  0.1723 -0.6299
  551MOL0     H74360  -3.337  -1.068   2.956  0.1647 -0.4932  0.4449
  551MOL0     H74361  -3.360  -1.292   2.742  2.5761  1.7976 -0.3376
  551MOL0     H74362  -3.421  -1.299   2.910  0.2333  1.0176  0.4749
  551MOL0     H74363  -3.555  -1.178   2.679  1.3417  1.2828 -0.8615
  551MOL0     H74364  -3.529  -1.058   2.792 -1.7708 -0.3988  0.3066
  551MOL0     H74365  -3.645  -1.187   2.961  0.2387  0.2645 -0.7915
  551MOL0     H74366  -3.631  -1.331   2.848  0.9625  0.3409  0.9190
  551MOL0     H74367  -2.711  -1.229   3.269 -0.0767  0.8155 -1.1148
  551MOL0     H74368  -2.488  -1.138   3.242 -0.1814 -1.8479  1.6166
  551MOL0     H74369  -2.161  -1.145   2.865  0.5196  2.2914  1.6806
  551MOL0     H74370  -1.938  -1.096   2.777  0.7465  0.3110  0.7127
  551MOL0     H74371  -0.201  -0.157   2.593  3.1133 -3.0977 -1.2596
  551MOL0     H74372  -0.058   0.040   2.562  0.2558  0.5342  1.5184
  551MOL0     H74373   0.432   0.175   2.615 -2.1919  3.6173 -3.6254
  551MOL0     H74374   0.627   0.319   2.736 -0.3420  2.8572  0.3413
  551MOL0     H74375   0.487   0.686   2.972 -0.6345  2.3946 -0.9654
  551MOL0     H74376   0.660   0.719   2.926 -0.4558  2.2074 -1.5110
  551MOL0     H74377   0.513   0.876   2.860 -2.1910 -0.0566 -0.5407
  551MOL0     H74378   0.429   0.773   2.743 -0.3242  0.0792  0.1256
  551MOL0     H74379   0.644   0.747   2.609  0.6363 -1.3591  0.4081
  551MOL0     H74380   0.734   0.788   2.759  0.4903  1.5434 -1.6614
  551MOL0     H74381   0.658   1.012   2.754 -0.3592  4.6246 -3.5040
  551MOL0     H74382   0.552   0.962   2.619 -0.4092 -0.3213 -0.6522
  551MOL0     H74383   0.867   1.071   2.389  2.2731  0.0570  2.0279
  551MOL0     H74384   0.318   0.585   2.873 -0.1368  1.0197  1.7296
  551MOL0     H74385   0.141   0.410   2.802 -0.2575 -3.5871  0.6563
  552MOL0     O74386   1.497   2.108   1.400 -0.6540  0.1367 -0.0504
  552MOL0     C74387   1.563   2.031   1.471 -0.3310  0.1920  0.4448
  552MOL0     O74388   1.520   1.910   1.520  0.3961 -0.7995  0.4089
  552MOL0     C74389   1.390   1.861   1.497  0.4095  0.3655 -0.0489
  552MOL0     C74390   1.375   1.720   1.521  1.0803  0.9157  0.2618
  552MOL0     C74391   1.250   1.662   1.513 -0.7304  0.7939  0.4182
  552MOL0     C74392   1.128   1.734   1.480  0.5851  0.1997 -0.4817
  552MOL0     O74393   1.000   1.675   1.463 -0.0969  0.7208 -0.6361
  552MOL0     C74394   0.990   1.534   1.476  0.1910 -0.4271  0.1743
  552MOL0     C74395   0.869   1.478   1.410  1.0378  0.1408  0.7589
  552MOL0     C74396   0.739   1.546   1.451 -0.2213 -0.6615  0.1256
  552MOL0     C74397   0.633   1.446   1.441 -0.4958  0.0477  0.2182
  552MOL0     C74398   0.500   1.507   1.456 -0.3672 -0.2157  0.2666
  552MOL0     C74399   0.397   1.404   1.502  0.4638 -0.1767 -0.8487
  552MOL0     C74400   0.255   1.461   1.519  0.3276  0.6344  0.3802
  552MOL0     C74401   0.157   1.350   1.547  0.5064 -0.0482  1.0030
  552MOL0     N74402   0.031   1.414   1.592 -0.3531  0.7888 -0.4663
  552MOL0     C74403  -0.033   1.514   1.527  0.5322  0.9676 -0.3599
  552MOL0     C74404  -0.131   1.553   1.610  0.1379 -0.2338  0.2174
  552MOL0     C74405  -0.222   1.680   1.596 -0.3989 -0.6128 -0.2740
  552MOL0     C74406  -0.359   1.629   1.574  1.0971  0.6950  0.8618
  552MOL0     C74407  -0.475   1.732   1.577 -0.5711  0.2172  0.3703
  552MOL0     C74408  -0.616   1.670   1.606  0.0957  0.0394  0.1006
  552MOL0     O74409  -0.644   1.567   1.508 -0.2997 -0.1452 -0.2033
  552MOL0     C74410  -0.767   1.515   1.525  0.1098  0.4962  0.4120
  552MOL0     C74411  -0.849   1.479   1.416 -0.6163  0.2090 -0.2558
  552MOL0     C74412  -0.980   1.420   1.421  0.0468 -0.4372  0.8339
  552MOL0     C74413  -1.048   1.380   1.289 -0.5774 -0.0735 -0.1032
  552MOL0     C74414  -1.029   1.391   1.550  0.4734  0.3212  0.9247
  552MOL0     C74415  -1.163   1.330   1.573  0.8752 -0.0025  0.0415
  552MOL0     O74416  -1.271   1.355   1.496 -0.2575 -0.1639 -1.0090
  552MOL0     C74417  -1.377   1.275   1.517  1.3732 -0.3933  0.6339
  552MOL0     C74418  -1.498   1.352   1.530  0.2316  0.0453 -0.5941
  552MOL0     C74419  -1.625   1.284   1.523 -0.6483 -0.5592  0.0252
  552MOL0     C74420  -1.630   1.150   1.499  0.2747  0.0486  0.5797
  552MOL0     O74421  -1.750   1.097   1.471 -0.5157  0.0377 -0.6042
  552MOL0     C74422  -1.758   0.964   1.416  0.1457 -0.7685  0.0592
  552MOL0     C74423  -1.907   0.932   1.388 -0.4626  0.0936 -0.1511
  552MOL0     C74424  -1.993   0.976   1.505 -0.2033  0.3526  0.3618
  552MOL0     C74425  -2.128   0.907   1.504 -0.5767  0.4958 -1.0610
  552MOL0     C74426  -2.219   0.982   1.608 -0.0364  0.0853 -0.1080
  552MOL0     C74427  -2.352   0.915   1.612  1.4305  0.4344  0.2578
  552MOL0     C74428  -2.432   0.982   1.722  0.5699 -0.9847  0.0803
  552MOL0     C74429  -2.587   0.955   1.729 -0.6988 -0.6522 -0.3152
  552MOL0    Cl74430  -2.654   1.116   1.798  0.1308 -0.0722  0.1819
  552MOL0     C74431  -1.508   1.073   1.483 -0.1693 -0.1162 -0.5762
  552MOL0     C74432  -1.384   1.144   1.479  1.2359 -0.1089 -0.0261
  552MOL0     O74433  -1.163   1.260   1.677  0.0459  0.8122  0.1160
  552MOL0     C74434  -0.954   1.420   1.663  0.0516  0.1959  0.3080
  552MOL0     C74435  -0.827   1.479   1.646 -1.1331 -0.0080 -0.5505
  552MOL0     N74436  -0.138   1.463   1.714 -0.1311  0.4206  0.1280
  552MOL0     N74437  -0.038   1.379   1.708  0.0878 -0.6037 -1.0487
  552MOL0     C74438   1.151   1.871   1.443 -0.4999  0.8362  0.3573
  552MOL0     C74439   1.273   1.931   1.457 -0.6673  0.4566 -0.8519
  552MOL0     C74440   1.695   2.075   1.503  0.7438 -0.1350  1.0270
  552MOL0     C74441   1.786   1.983   1.548 -0.4513 -0.0711 -0.1633
  552MOL0     C74442   1.913   2.018   1.598 -0.3774 -0.2866  0.7420
  552MOL0     C74443   1.954   2.151   1.593 -0.1757  0.8601 -0.5025
  552MOL0     O74444   2.079   2.197   1.612 -0.5055  0.4765 -0.4074
  552MOL0     C74445   2.190   2.108   1.650 -0.3437 -0.3637 -0.3149
  552MOL0     C74446   2.249   2.024   1.534  0.5371  0.0387 -0.2778
  552MOL0     C74447   2.376   2.084   1.469  0.3768  0.3704  0.7875
  552MOL0     C74448   2.396   1.991   1.338  0.3119  0.4420 -0.3757
  552MOL0     C74449   2.526   2.014   1.275  0.6967 -0.4680 -0.4137
  552MOL0     C74450   2.633   2.034   1.217  0.4503 -0.5728 -0.2116
  552MOL0     C74451   1.865   2.247   1.546  0.1481  1.2926 -0.3283
  552MOL0     C74452   1.735   2.209   1.507  1.3499 -0.8496  0.5388
  552MOL0     H74453   1.461   1.667   1.561  1.8985  1.7569 -0.3402
  552MOL0     H74454   1.251   1.554   1.528 -1.2517  0.5076 -1.3430
  552MOL0     H74455   1.075   1.485   1.426 -0.4332  1.0983 -2.6420
  552MOL0     H74456   0.985   1.500   1.579  0.3797 -3.4945 -0.7223
  552MOL0     H74457   0.885   1.509   1.306 -2.6021 -2.0235 -0.5962
  552MOL0     H74458   0.859   1.370   1.421  1.0827  0.0491 -0.0526
  552MOL0     H74459   0.749   1.591   1.551  0.4693 -2.1840  0.7883
  552MOL0     H74460   0.712   1.627   1.383 -2.8378  0.8911  2.7751
  552MOL0     H74461   0.645   1.391   1.347  2.9782 -2.7375  2.0473
  552MOL0     H74462   0.659   1.386   1.529 -0.3185  0.7094  0.6232
  552MOL0     H74463   0.508   1.575   1.541 -1.1099 -1.0632  1.0356
  552MOL0     H74464   0.466   1.559   1.367  2.0322  0.7970 -0.1367
  552MOL0     H74465   0.385   1.328   1.424 -2.3994  0.3179 -0.9943
  552MOL0     H74466   0.435   1.363   1.596 -1.2312  0.6520  0.2653
  552MOL0     H74467   0.267   1.529   1.603  2.7844  1.7345 -0.7436
  552MOL0     H74468   0.222   1.515   1.430 -5.1541  1.9960  2.8346
  552MOL0     H74469   0.196   1.281   1.622  0.1153 -0.6632  0.6501
  552MOL0     H74470   0.137   1.289   1.458 -0.2401 -2.6355  2.8350
  552MOL0     H74471  -0.005   1.548   1.428 -0.9803 -2.2564 -2.0789
  552MOL0     H74472  -0.215   1.728   1.694  0.5268 -1.4345  0.0742
  552MOL0     H74473  -0.198   1.748   1.514 -0.8168  0.1016  0.1890
  552MOL0     H74474  -0.381   1.549   1.646  2.4933 -0.1546  0.3953
  552MOL0     H74475  -0.353   1.571   1.481  0.3913  0.0144  1.2231
  552MOL0     H74476  -0.469   1.788   1.483 -1.1926  0.9832  0.7713
  552MOL0     H74477  -0.447   1.808   1.650 -1.0119  0.4121  0.3417
  552MOL0     H74478  -0.691   1.750   1.607 -0.9739 -0.9293 -0.1747
  552MOL0     H74479  -0.608   1.622   1.705  3.1871 -1.3433 -0.6906
  552MOL0     H74480  -0.794   1.493   1.324 -0.2416 -2.3365 -0.4745
  552MOL0     H74481  -0.991   1.432   1.211 -1.0148  0.1836 -0.2606
  552MOL0     H74482  -1.045   1.274   1.265 -2.7092  0.3149 -2.6264
  552MOL0     H74483  -1.154   1.406   1.289 -0.3152  1.2543  2.0258
  552MOL0     H74484  -1.502   1.461   1.523  2.9830  0.1358 -1.6114
  552MOL0     H74485  -1.709   1.353   1.527 -0.0278  0.1576  3.4742
  552MOL0     H74486  -1.693   0.956   1.328  1.3518  3.0326  0.3863
  552MOL0     H74487  -1.730   0.894   1.495 -3.5477  0.8293  3.0854
  552MOL0     H74488  -1.940   0.980   1.295  3.4126 -1.3754 -2.5377
  552MOL0     H74489  -1.910   0.824   1.372  2.4053 -0.5967  2.7924
  552MOL0     H74490  -2.016   1.083   1.509 -1.0680  0.1281  2.5025
  552MOL0     H74491  -1.948   0.972   1.604  0.4641  3.5569  0.3071
  552MOL0     H74492  -2.163   0.906   1.400  1.2453 -3.1025 -1.8094
  552MOL0     H74493  -2.112   0.804   1.537 -0.1896  1.4150  1.8919
  552MOL0     H74494  -2.221   1.086   1.575  2.1422 -0.4276 -2.1500
  552MOL0     H74495  -2.183   0.968   1.710  2.6274 -1.1302 -1.1223
  552MOL0     H74496  -2.412   0.922   1.520 -1.0101 -3.1087  1.3886
  552MOL0     H74497  -2.342   0.809   1.637 -1.7875 -0.0620 -0.1170
  552MOL0     H74498  -2.423   1.089   1.700 -0.9715 -1.2183 -1.8922
  552MOL0     H74499  -2.372   0.967   1.813  0.0618  1.9880  1.0202
  552MOL0     H74500  -2.593   0.856   1.776  3.3183 -1.7782 -1.7158
  552MOL0     H74501  -2.622   0.939   1.627  1.0209 -2.5531 -0.6694
  552MOL0     H74502  -1.506   0.966   1.462 -1.4227  0.1410 -2.2321
  552MOL0     H74503  -1.288   1.094   1.475  1.5781  0.4133  0.9742
  552MOL0     H74504  -0.998   1.396   1.759  1.2638  1.3432  1.1950
  552MOL0     H74505  -0.773   1.493   1.738  0.1825  0.3530 -1.3534
  552MOL0     H74506   1.070   1.916   1.387  1.6918 -0.1229 -3.9871
  552MOL0     H74507   1.276   2.036   1.431  0.2367  0.3474 -1.2226
  552MOL0     H74508   1.762   1.877   1.542 -0.5265 -0.0108 -1.1076
  552MOL0     H74509   1.976   1.937   1.634 -1.3401 -0.3464  2.4203
  552MOL0     H74510   2.268   2.170   1.694 -1.1627  1.6603 -1.5304
  552MOL0     H74511   2.156   2.046   1.733 -0.9485  1.4934  0.8924
  552MOL0     H74512   2.169   2.001   1.463  1.2858  0.7802 -1.4148
  552MOL0     H74513   2.285   1.925   1.563  2.5256 -1.1527 -5.5717
  552MOL0     H74514   2.465   2.066   1.530  1.6367 -0.3384 -1.1667
  552MOL0     H74515   2.357   2.190   1.449 -1.7441 -0.0622  0.3356
  552MOL0     H74516   2.315   1.995   1.265 -0.1241 -0.6307  0.0152
  552MOL0     H74517   2.404   1.886   1.369 -3.2542 -0.0581 -0.6985
  552MOL0     H74518   2.717   2.040   1.150  0.5183  0.4230 -0.0627
  552MOL0     H74519   1.900   2.347   1.526 -0.0687  1.1615 -1.3864
  552MOL0     H74520   1.673   2.287   1.465 -1.4116 -1.4831  3.1435
  553MOL0     O74521   3.506   6.350   6.733  0.5718 -0.1521  1.1138
  553MOL0     C74522   3.428   6.320   6.831  1.1430  0.0554 -0.7360
  553MOL0     O74523   3.292   6.286   6.816  0.1506 -1.1012  0.0793
  553MOL0     C74524   3.213   6.302   6.707 -0.3884 -1.3947 -0.7801
  553MOL0     C74525   3.096   6.229   6.709  0.1173  0.3157  0.1296
  553MOL0     C74526   2.999   6.245   6.609 -0.6943  1.0355 -0.2024
  553MOL0     C74527   3.018   6.335   6.507  0.5825  0.3406  0.2116
  553MOL0     O74528   2.915   6.326   6.414 -0.1317  0.7463  0.0022
  553MOL0     C74529   2.925   6.430   6.312  0.3354  0.3778 -0.3637
  553MOL0     C74530   2.818   6.399   6.203  0.6121 -0.0949  0.1469
  553MOL0     C74531   2.796   6.501   6.093 -0.5118  0.1465 -0.0720
  553MOL0     C74532   2.764   6.428   5.961 -0.6893  0.3972 -0.3180
  553MOL0     C74533   2.615   6.407   5.950 -0.4546  0.7289 -0.6030
  553MOL0     C74534   2.581   6.349   5.816  0.3584  0.2852 -0.3832
  553MOL0     C74535   2.429   6.325   5.783 -0.0126 -0.8519  0.2856
  553MOL0     C74536   2.408   6.263   5.650  0.3069 -0.4852  0.7918
  553MOL0     N74537   2.267   6.222   5.627 -0.5548 -0.3726 -0.4208
  553MOL0     C74538   2.169   6.309   5.595  0.0232 -1.1633  0.3163
  553MOL0     C74539   2.062   6.227   5.602 -0.1642  0.4743 -0.5002
  553MOL0     C74540   1.926   6.276   5.583 -0.0967 -0.1722  0.8000
  553MOL0     C74541   1.893   6.391   5.689  0.4059 -0.2342  0.1898
  553MOL0     C74542   1.887   6.339   5.839 -0.3411 -0.1074  1.3290
  553MOL0     C74543   1.747   6.290   5.883  0.4612  0.3315 -0.2459
  553MOL0     O74544   1.749   6.265   6.027  0.1763 -0.3762 -0.4007
  553MOL0     C74545   1.637   6.218   6.093 -0.4085 -0.0716  0.3959
  553MOL0     C74546   1.506   6.199   6.047 -0.9460 -0.2913  0.5176
  553MOL0     C74547   1.413   6.123   6.123  0.3675 -0.4760  0.6622
  553MOL0     C74548   1.289   6.073   6.046 -0.4098 -0.4777  0.3693
  553MOL0     C74549   1.432   6.092   6.259 -1.5738  1.2412  0.0864
  553MOL0     C74550   1.343   6.027   6.351 -0.7238 -0.2291 -0.8541
  553MOL0     O74551   1.390   5.993   6.478  0.0960 -0.3100  0.4058
  553MOL0     C74552   1.320   5.926   6.572  1.1079 -0.1704 -0.6021
  553MOL0     C74553   1.206   5.976   6.633 -0.0494  0.2927 -0.1033
  553MOL0     C74554   1.140   5.897   6.722  0.0261 -0.9209  1.1455
  553MOL0     C74555   1.200   5.781   6.775 -0.5648  0.4290 -0.9612
  553MOL0     O74556   1.143   5.703   6.874  0.5317  0.3138 -0.5617
  553MOL0     C74557   1.170   5.560   6.880 -0.7102 -0.6704 -0.0281
  553MOL0     C74558   1.041   5.472   6.895 -0.2940  0.3183  0.1981
  553MOL0     C74559   0.979   5.494   7.030 -0.2567 -0.1530  0.6310
  553MOL0     C74560   0.863   5.397   7.032 -1.8313 -0.3146  0.0439
  553MOL0     C74561   0.779   5.415   7.156 -0.8224  0.7570  0.0844
  553MOL0     C74562   0.648   5.358   7.134 -0.0196  0.4722  0.3242
  553MOL0     C74563   0.580   5.345   7.265  0.6666  0.9580  0.3096
  553MOL0     C74564   0.435   5.289   7.234 -0.0284  0.5032  0.7533
  553MOL0    Cl74565   0.314   5.355   7.350  0.2261  0.2665 -0.0935
  553MOL0     C74566   1.325   5.740   6.727 -0.2075 -0.0426 -0.1961
  553MOL0     C74567   1.385   5.820   6.631 -0.3441 -0.6127  0.2950
  553MOL0     O74568   1.224   6.023   6.318 -0.1787 -0.2675 -0.1107
  553MOL0     C74569   1.565   6.116   6.300 -0.8367  0.0548 -0.7454
  553MOL0     C74570   1.665   6.180   6.223  0.0725  0.8044 -0.0307
  553MOL0     N74571   2.098   6.098   5.646  0.1416 -0.0838 -0.6104
  553MOL0     N74572   2.222   6.100   5.669  0.2900  0.5038 -0.0073
  553MOL0     C74573   3.136   6.413   6.500  0.3898 -0.4541 -0.4733
  553MOL0     C74574   3.237   6.393   6.598 -0.5334  0.8284 -0.1081
  553MOL0     C74575   3.478   6.302   6.965  0.2248  0.1992  0.3766
  553MOL0     C74576   3.398   6.229   7.049 -0.1834 -0.0935  0.0590
  553MOL0     C74577   3.447   6.208   7.182  0.3507  0.4207 -0.1733
  553MOL0     C74578   3.573   6.248   7.214  0.2767  0.2427 -0.3618
  553MOL0     O74579   3.616   6.216   7.336 -0.3993 -0.3273 -0.4456
  553MOL0     C74580   3.756   6.173   7.350  0.4265 -0.7729 -0.6717
  553MOL0     C74581   3.791   6.056   7.265  0.3831  0.2449  0.5035
  553MOL0     C74582   3.931   6.012   7.286  0.6562  0.9091 -0.1841
  553MOL0     C74583   3.950   5.879   7.211  0.2127  0.7836 -0.4110
  553MOL0     C74584   4.081   5.819   7.220 -0.1526 -0.0198  0.5044
  553MOL0     C74585   4.191   5.770   7.224 -1.1511 -0.5971 -1.0214
  553MOL0     C74586   3.647   6.311   7.124  0.0735  0.7623 -0.3856
  553MOL0     C74587   3.608   6.322   7.000  0.3083 -0.1946  0.1327
  553MOL0     H74588   3.075   6.155   6.786 -2.6622 -0.3276 -1.1158
  553MOL0     H74589   2.905   6.192   6.617  0.3050 -0.6650  0.9534
  553MOL0     H74590   2.900   6.525   6.360 -3.1956  0.2031 -1.5997
  553MOL0     H74591   3.024   6.424   6.265 -0.2665 -1.0035 -1.5337
  553MOL0     H74592   2.845   6.303   6.158  1.5812  0.7362 -1.1152
  553MOL0     H74593   2.722   6.387   6.255  0.3591 -0.4948 -0.4140
  553MOL0     H74594   2.716   6.568   6.126  0.9746  0.4675  3.2382
  553MOL0     H74595   2.885   6.562   6.076 -1.6021  1.9700  0.4618
  553MOL0     H74596   2.793   6.498   5.882 -2.4751  1.1744 -0.3259
  553MOL0     H74597   2.819   6.334   5.957  0.8730  1.1907  1.1423
  553MOL0     H74598   2.590   6.329   6.022 -1.3266  2.0836  0.6419
  553MOL0     H74599   2.556   6.496   5.974  0.3560  1.5837 -1.7179
  553MOL0     H74600   2.626   6.416   5.742 -0.4870 -1.3790 -2.4902
  553MOL0     H74601   2.633   6.253   5.810  1.4753  0.8164  0.3906
  553MOL0     H74602   2.390   6.255   5.858 -0.0636 -2.4904 -1.1994
  553MOL0     H74603   2.375   6.420   5.791  2.8948  0.8680  0.9730
  553MOL0     H74604   2.473   6.175   5.643  1.9251  0.7701 -1.1871
  553MOL0     H74605   2.450   6.327   5.571  0.7978 -2.6440 -0.7894
  553MOL0     H74606   2.168   6.415   5.574  1.3513 -0.6056  2.6948
  553MOL0     H74607   1.923   6.317   5.482  2.8270  0.1172  0.7345
  553MOL0     H74608   1.849   6.199   5.573 -1.8737  1.7041 -0.8890
  553MOL0     H74609   1.803   6.442   5.653  0.9717  0.8395  0.2587
  553MOL0     H74610   1.973   6.465   5.681 -1.3228  1.5516 -3.5755
  553MOL0     H74611   1.913   6.427   5.898  0.8239  0.7735 -0.3913
  553MOL0     H74612   1.962   6.261   5.855 -1.1819 -1.3634 -0.5164
  553MOL0     H74613   1.721   6.199   5.827 -1.5702  2.1571 -2.4872
  553MOL0     H74614   1.672   6.366   5.862  0.1500  0.4667  1.2143
  553MOL0     H74615   1.471   6.232   5.950 -0.5808 -0.6889  0.2496
  553MOL0     H74616   1.254   5.973   6.075 -0.0840 -1.5975 -2.6933
  553MOL0     H74617   1.208   6.145   6.057  0.3073  0.3645  0.2101
  553MOL0     H74618   1.314   6.065   5.940  0.5150  0.5655  0.4948
  553MOL0     H74619   1.158   6.066   6.598  1.0171 -0.1927 -3.1057
  553MOL0     H74620   1.040   5.921   6.758 -0.2370 -1.3654  0.7218
  553MOL0     H74621   1.227   5.528   6.792  1.3855  2.3468  0.0485
  553MOL0     H74622   1.242   5.541   6.961 -1.2226  0.5562  0.7422
  553MOL0     H74623   0.970   5.494   6.816  1.4295 -1.4862 -1.9912
  553MOL0     H74624   1.081   5.370   6.892  0.0486  0.4656 -0.3585
  553MOL0     H74625   0.955   5.599   7.050 -0.5252 -0.1573  0.3532
  553MOL0     H74626   1.044   5.453   7.107  1.1306  0.0757 -0.3752
  553MOL0     H74627   0.802   5.419   6.944 -2.4746  2.4496  1.0533
  553MOL0     H74628   0.902   5.296   7.022  2.0028  0.6894  2.7758
  553MOL0     H74629   0.786   5.519   7.189 -1.9504  0.6168  0.7877
  553MOL0     H74630   0.830   5.362   7.237 -2.0731  0.3378  0.6068
  553MOL0     H74631   0.593   5.421   7.063 -2.1092 -0.1409  1.3290
  553MOL0     H74632   0.658   5.262   7.083 -0.0624  0.6883 -0.0995
  553MOL0     H74633   0.572   5.445   7.309  1.5121  1.3769 -0.4543
  553MOL0     H74634   0.630   5.277   7.334  0.7173 -1.9926 -2.3647
  553MOL0     H74635   0.433   5.181   7.216 -0.1285  0.4044  1.3364
  553MOL0     H74636   0.419   5.327   7.133  1.0487  1.2329  0.8294
  553MOL0     H74637   1.383   5.661   6.775 -0.6992  0.5556  1.4442
  553MOL0     H74638   1.477   5.774   6.597 -0.6622 -1.6989  0.8475
  553MOL0     H74639   1.593   6.096   6.403  1.6944  2.5389 -0.8200
  553MOL0     H74640   1.764   6.182   6.267 -1.0406  0.7006  2.7202
  553MOL0     H74641   3.153   6.484   6.420 -1.1465  1.4747  0.8114
  553MOL0     H74642   3.332   6.444   6.583  1.8612 -3.0852  0.4014
  553MOL0     H74643   3.298   6.196   7.023  0.5116 -0.4322 -2.4061
  553MOL0     H74644   3.374   6.156   7.243 -0.0808  0.1069 -0.9429
  553MOL0     H74645   3.821   6.260   7.338 -1.2258  0.8413  1.1711
  553MOL0     H74646   3.764   6.140   7.454  0.3807  2.3000  0.4356
  553MOL0     H74647   3.768   6.076   7.160 -2.5301 -0.5959  0.8770
  553MOL0     H74648   3.720   5.976   7.290  2.1170 -2.0406 -1.4258
  553MOL0     H74649   3.953   6.004   7.393  3.4012  1.4702 -0.6345
  553MOL0     H74650   4.003   6.083   7.244 -1.5282  2.2464 -1.8773
  553MOL0     H74651   3.931   5.886   7.103 -2.0081 -4.5476 -0.6935
  553MOL0     H74652   3.874   5.804   7.233 -0.3812  0.8032 -2.1909
  553MOL0     H74653   4.286   5.721   7.217 -0.1055 -0.2223  5.2804
  553MOL0     H74654   3.751   6.337   7.141 -0.0716  1.2181 -0.1895
  553MOL0     H74655   3.677   6.355   6.922 -0.6363  0.1166 -0.5934
  554MOL0     O74656   6.820  10.028   1.818  0.2371  0.3252  0.4596
  554MOL0     C74657   6.763  10.062   1.717 -0.5494 -0.3740 -0.3520
  554MOL0     O74658   6.817  10.076   1.588 -0.2486 -0.1670 -0.7037
  554MOL0     C74659   6.957  10.072   1.576  0.1931 -0.0425 -0.3001
  554MOL0     C74660   7.001   9.976   1.492  0.0311 -0.5861  0.2850
  554MOL0     C74661   7.134   9.971   1.461  0.0831 -0.2665  0.6856
  554MOL0     C74662   7.225  10.069   1.508  0.1608  1.2005  1.1801
  554MOL0     O74663   7.354  10.061   1.458  0.2815  0.1760 -0.6023
  554MOL0     C74664   7.454  10.147   1.510 -1.3603 -0.1527  0.5661
  554MOL0     C74665   7.579  10.109   1.447 -0.4438 -0.6633 -0.9553
  554MOL0     C74666   7.704  10.164   1.518 -0.5454 -0.2760  0.2967
  554MOL0     C74667   7.829  10.112   1.442  0.4139  0.3913  0.3947
  554MOL0     C74668   7.969  10.148   1.500 -0.3804 -0.0082 -0.1862
  554MOL0     C74669   8.085  10.093   1.417 -0.2759  0.1884 -0.2860
  554MOL0     C74670   8.217  10.173   1.465  0.5571  1.0383  0.0994
  554MOL0     C74671   8.345  10.111   1.403  0.9738  0.0785 -0.4369
  554MOL0     N74672   8.471  10.182   1.422 -0.0464 -0.0193 -0.9026
  554MOL0     C74673   8.536  10.246   1.323 -0.2571  0.0864 -0.3800
  554MOL0     C74674   8.636  10.316   1.399  0.8563 -0.3410  0.8380
  554MOL0     C74675   8.724  10.424   1.348 -0.3835 -0.3722  0.1324
  554MOL0     C74676   8.674  10.575   1.358 -0.6093 -0.0081  0.0372
  554MOL0     C74677   8.537  10.574   1.286  0.1472 -0.8247  0.5961
  554MOL0     C74678   8.502  10.726   1.261 -0.1896 -0.8424 -0.3404
  554MOL0     O74679   8.382  10.741   1.174 -1.1205  0.1044 -0.0175
  554MOL0     C74680   8.250  10.720   1.227  0.1019  0.3953  0.1876
  554MOL0     C74681   8.213  10.675   1.349  0.2493 -0.1332  0.2190
  554MOL0     C74682   8.079  10.645   1.380 -0.3437 -0.4769  0.2926
  554MOL0     C74683   8.070  10.605   1.527  0.4738 -0.0203 -0.2067
  554MOL0     C74684   7.976  10.661   1.285 -0.5772  0.5492  0.0121
  554MOL0     C74685   7.827  10.629   1.299 -0.6336  0.4224 -0.7300
  554MOL0     O74686   7.746  10.664   1.197 -0.7747 -1.2053 -0.0825
  554MOL0     C74687   7.618  10.604   1.181 -0.9063  0.3187  0.4904
  554MOL0     C74688   7.510  10.684   1.170 -0.6808  0.0086  0.1564
  554MOL0     C74689   7.381  10.629   1.166 -0.0008  0.6031  0.3500
  554MOL0     C74690   7.365  10.486   1.169  0.0834 -0.3721  0.7073
  554MOL0     O74691   7.239  10.440   1.165 -0.0482 -0.0277 -0.0748
  554MOL0     C74692   7.202  10.328   1.250  0.5608 -0.6478  0.0162
  554MOL0     C74693   7.049  10.326   1.250 -0.1119  0.1738  0.2762
  554MOL0     C74694   6.989  10.407   1.367 -0.8369  1.0420  0.7343
  554MOL0     C74695   6.845  10.382   1.393  0.8864  0.7796  0.1094
  554MOL0     C74696   6.810  10.478   1.499  0.3722  0.3440  0.6009
  554MOL0     C74697   6.662  10.497   1.518 -0.3385 -0.0562 -0.1950
  554MOL0     C74698   6.639  10.599   1.633 -0.6135  0.8804  1.4780
  554MOL0     C74699   6.491  10.622   1.651 -0.1866  0.3512 -0.1417
  554MOL0    Cl74700   6.462  10.682   1.810 -0.0480 -0.4698 -0.1799
  554MOL0     C74701   7.479  10.403   1.167  0.2306  0.6977  0.3304
  554MOL0     C74702   7.609  10.463   1.174  0.3339  0.6665 -0.2964
  554MOL0     O74703   7.795  10.565   1.399  0.0083 -0.5428  0.1606
  554MOL0     C74704   8.018  10.720   1.162  0.1308 -0.3624  0.4949
  554MOL0     C74705   8.152  10.741   1.128 -0.7049  0.0308 -0.7744
  554MOL0     N74706   8.628  10.270   1.527  0.7509 -1.3500 -0.2552
  554MOL0     N74707   8.520  10.214   1.546  0.6754 -0.1863  0.1013
  554MOL0     C74708   7.179  10.162   1.602 -0.7244 -0.7845 -0.3366
  554MOL0     C74709   7.046  10.162   1.630  0.1462 -0.5065 -0.4429
  554MOL0     C74710   6.621  10.100   1.735  0.3815  0.1391 -0.1217
  554MOL0     C74711   6.561  10.175   1.631 -0.2146  0.1903 -0.2499
  554MOL0     C74712   6.426  10.194   1.632  0.8674 -1.0232 -0.1886
  554MOL0     C74713   6.338  10.171   1.750 -0.3243  0.6253  0.1477
  554MOL0     O74714   6.219  10.231   1.740  0.5941  0.1412  0.0079
  554MOL0     C74715   6.142  10.224   1.862  1.4572  0.4452  0.5580
  554MOL0     C74716   6.187  10.327   1.957 -0.6270 -0.2321  0.3471
  554MOL0     C74717   6.086  10.350   2.068 -0.4014  0.0994 -1.6006
  554MOL0     C74718   6.131  10.461   2.158  0.8153 -0.0821 -1.4044
  554MOL0     C74719   6.087  10.449   2.300 -0.8029 -0.8896 -0.4872
  554MOL0     C74720   6.067  10.430   2.420 -0.7879  0.0091 -0.1743
  554MOL0     C74721   6.395  10.102   1.860  0.2313 -0.5016  1.2183
  554MOL0     C74722   6.542  10.067   1.851 -0.4497  0.1172  0.7005
  554MOL0     H74723   6.938   9.893   1.460  1.2448 -1.4809  0.1143
  554MOL0     H74724   7.162   9.885   1.401  1.0653  1.3399 -1.2781
  554MOL0     H74725   7.432  10.250   1.482 -2.6242 -1.2025 -2.7987
  554MOL0     H74726   7.453  10.145   1.619  0.7413  2.1801  0.7206
  554MOL0     H74727   7.584  10.001   1.432  0.4547 -0.3189 -3.6958
  554MOL0     H74728   7.567  10.144   1.344 -0.6187  3.6278  0.2958
  554MOL0     H74729   7.698  10.273   1.517 -0.7918 -0.2712  1.3595
  554MOL0     H74730   7.721  10.123   1.618  3.7414  0.7109  0.1628
  554MOL0     H74731   7.819  10.003   1.441  0.9289  0.3268 -1.2700
  554MOL0     H74732   7.824  10.147   1.338 -1.0310  1.6314  0.8475
  554MOL0     H74733   7.966  10.257   1.494 -0.3942 -0.0922 -2.0839
  554MOL0     H74734   7.977  10.118   1.605 -0.0914  4.1542  1.1768
  554MOL0     H74735   8.098   9.986   1.437 -0.6461  0.2735  0.4016
  554MOL0     H74736   8.068  10.109   1.310 -0.1940  0.6036 -0.2411
  554MOL0     H74737   8.211  10.278   1.437 -0.2570  0.7882 -0.7266
  554MOL0     H74738   8.216  10.170   1.574 -0.1308 -2.7195  0.1365
  554MOL0     H74739   8.324  10.089   1.298 -0.0990 -2.4472  0.2113
  554MOL0     H74740   8.359  10.010   1.444  1.1773  0.5196  0.5894
  554MOL0     H74741   8.500  10.262   1.222 -0.6593 -1.6867 -0.5564
  554MOL0     H74742   8.827  10.408   1.381  1.1384  0.1096 -3.8570
  554MOL0     H74743   8.736  10.415   1.240 -1.3934  0.2092 -0.0449
  554MOL0     H74744   8.753  10.634   1.310  0.3387  0.6241  2.2751
  554MOL0     H74745   8.672  10.593   1.465 -2.0106  0.4154 -0.0377
  554MOL0     H74746   8.453  10.535   1.345 -0.9420 -0.4144 -0.6239
  554MOL0     H74747   8.528  10.507   1.200  0.4524  0.5179 -0.5271
  554MOL0     H74748   8.589  10.783   1.226 -0.0638  0.5867  2.0109
  554MOL0     H74749   8.484  10.768   1.361  0.5060 -1.4059  0.0316
  554MOL0     H74750   8.286  10.674   1.430  0.3592 -2.3267  0.1458
  554MOL0     H74751   8.065  10.689   1.596  3.7080 -0.4011  0.6684
  554MOL0     H74752   7.981  10.541   1.536  1.4687 -1.3869  0.4527
  554MOL0     H74753   8.157  10.544   1.554  0.4873 -0.1500 -0.5375
  554MOL0     H74754   7.524  10.791   1.160 -0.7205  0.0133  0.1558
  554MOL0     H74755   7.299  10.699   1.156 -1.1342 -0.8578 -1.0526
  554MOL0     H74756   7.243  10.236   1.208  1.5837  0.1998 -0.9379
  554MOL0     H74757   7.249  10.354   1.345  1.0018 -1.0113 -0.1002
  554MOL0     H74758   7.006  10.356   1.153  0.1210 -1.6454 -0.4125
  554MOL0     H74759   7.020  10.221   1.255 -2.4255  0.6914 -0.8084
  554MOL0     H74760   6.998  10.509   1.329  1.2933  0.3315 -0.8257
  554MOL0     H74761   7.039  10.375   1.459 -3.2463  1.0369  2.1248
  554MOL0     H74762   6.781  10.394   1.305 -2.4302  0.5355  2.3095
  554MOL0     H74763   6.840  10.277   1.425 -0.7910  0.7407 -0.1900
  554MOL0     H74764   6.863  10.569   1.467 -1.8885  1.5701  0.1640
  554MOL0     H74765   6.856  10.445   1.593 -1.5961  0.5875  1.6936
  554MOL0     H74766   6.621  10.541   1.426 -0.9162 -2.2254 -1.0367
  554MOL0     H74767   6.615  10.402   1.545  1.8688 -0.7522  1.4524
  554MOL0     H74768   6.694  10.688   1.600 -0.3134 -0.9766 -4.0218
  554MOL0     H74769   6.677  10.557   1.726 -2.1603  0.1445  1.8128
  554MOL0     H74770   6.437  10.528   1.638 -0.8137  0.9477 -2.0676
  554MOL0     H74771   6.454  10.688   1.571 -3.7265  0.4967  1.3922
  554MOL0     H74772   7.474  10.296   1.182  1.7919  0.6100  0.3693
  554MOL0     H74773   7.697  10.401   1.166 -1.2232 -1.4075 -2.6199
  554MOL0     H74774   7.950  10.752   1.085  0.0798 -4.4127 -1.4138
  554MOL0     H74775   8.190  10.758   1.028 -0.4705  0.0275 -0.6871
  554MOL0     H74776   7.239  10.245   1.638 -1.3728 -1.4014  2.4603
  554MOL0     H74777   7.005  10.240   1.693  0.8589 -0.3331 -0.1846
  554MOL0     H74778   6.615  10.200   1.540  1.1010  1.5483  0.8578
  554MOL0     H74779   6.374  10.234   1.546 -0.4444 -2.2362 -0.0065
  554MOL0     H74780   6.035  10.232   1.840  0.9485 -1.3632  2.0758
  554MOL0     H74781   6.141  10.126   1.911 -0.3710  0.4979  0.6899
  554MOL0     H74782   6.210  10.420   1.904  0.9545 -1.4658 -1.2359
  554MOL0     H74783   6.276  10.295   2.012 -1.6675 -1.1759  1.5549
  554MOL0     H74784   6.052  10.256   2.112 -1.8804  1.4731  0.3614
  554MOL0     H74785   5.987  10.380   2.031 -2.5944  0.2772  3.5075
  554MOL0     H74786   6.082  10.552   2.123 -1.3867  0.7285  3.0753
  554MOL0     H74787   6.239  10.478   2.160  0.8030  0.2786 -2.7314
  554MOL0     H74788   6.067  10.416   2.526  0.3336  3.0498  0.3404
  554MOL0     H74789   6.331  10.081   1.945 -2.1459  4.2561  0.9400
  554MOL0     H74790   6.595  10.002   1.919 -0.5565 -0.9185 -0.1751
  555MOL0     O74791   7.743   6.435   1.770 -0.0770  0.0972 -0.1254
  555MOL0     C74792   7.840   6.406   1.840 -0.1834  0.6803  1.2839
  555MOL0     O74793   7.835   6.350   1.969  0.2956 -0.4889  0.1624
  555MOL0     C74794   7.707   6.329   2.013 -0.2000  1.1912 -0.6658
  555MOL0     C74795   7.612   6.253   1.945  0.2056 -0.6817  0.3073
  555MOL0     C74796   7.483   6.242   1.991  0.0367  0.2720 -0.7671
  555MOL0     C74797   7.445   6.304   2.110  0.0820  0.4847 -1.1055
  555MOL0     O74798   7.325   6.290   2.173 -0.0183  0.1489  0.3779
  555MOL0     C74799   7.214   6.276   2.080  0.5664 -0.1389  0.1131
  555MOL0     C74800   7.086   6.293   2.155  0.0970 -0.1588 -0.5741
  555MOL0     C74801   7.072   6.172   2.253 -0.0036  0.7428  0.1087
  555MOL0     C74802   6.944   6.170   2.335  0.0885  0.3574 -0.1889
  555MOL0     C74803   6.811   6.124   2.255  0.4447  1.3265  0.3847
  555MOL0     C74804   6.701   6.085   2.351  0.2109  0.0924  0.0661
  555MOL0     C74805   6.577   6.011   2.292 -0.3124 -0.4690 -0.2731
  555MOL0     C74806   6.461   5.966   2.379  0.6449  0.7458  0.0326
  555MOL0     N74807   6.326   6.019   2.348  0.0608 -0.2651  0.4037
  555MOL0     C74808   6.214   5.948   2.310  0.0128 -0.2688 -0.3669
  555MOL0     C74809   6.125   6.047   2.282  0.0391 -0.4295  0.5725
  555MOL0     C74810   5.991   6.021   2.219  0.3505 -0.0046  0.1829
  555MOL0     C74811   5.903   5.933   2.313 -0.6490 -0.8452  0.0089
  555MOL0     C74812   5.793   5.877   2.228  0.6800 -0.5159 -0.0931
  555MOL0     C74813   5.691   5.992   2.206 -0.0837  0.3386 -0.4383
  555MOL0     O74814   5.585   5.956   2.122 -0.9376  0.4765  1.3316
  555MOL0     C74815   5.516   6.065   2.071  0.4284 -0.3631 -0.3685
  555MOL0     C74816   5.528   6.198   2.102 -0.2404 -0.3070 -0.4039
  555MOL0     C74817   5.436   6.295   2.058 -0.8233 -0.3640  0.7114
  555MOL0     C74818   5.470   6.438   2.102  0.1546 -0.6868 -0.3385
  555MOL0     C74819   5.334   6.260   1.964  0.8489  0.6771  0.6300
  555MOL0     C74820   5.250   6.350   1.878 -0.7949 -0.3989 -0.1116
  555MOL0     O74821   5.258   6.488   1.901 -0.0068 -0.0156 -0.0385
  555MOL0     C74822   5.196   6.565   1.809 -0.2378  0.3544 -0.5728
  555MOL0     C74823   5.273   6.623   1.710 -0.3479 -0.8781  0.1877
  555MOL0     C74824   5.216   6.712   1.613 -0.8110  0.1310  0.5500
  555MOL0     C74825   5.082   6.748   1.620  0.0953 -0.7405  0.1377
  555MOL0     O74826   5.028   6.836   1.530  0.0241  0.0255 -0.4578
  555MOL0     C74827   5.110   6.925   1.453  0.2450  0.6131  0.0416
  555MOL0     C74828   5.160   7.046   1.520 -0.2089 -0.3610 -0.5325
  555MOL0     C74829   5.244   7.140   1.438  0.6664 -1.2278 -1.1001
  555MOL0     C74830   5.385   7.096   1.412 -0.3709  0.9837  0.5056
  555MOL0     C74831   5.465   7.201   1.333  0.4994  0.1736  1.0865
  555MOL0     C74832   5.586   7.154   1.253 -0.8959 -0.4120 -0.1250
  555MOL0     C74833   5.656   7.281   1.222  0.1123  0.2559  0.1012
  555MOL0     C74834   5.785   7.263   1.144 -0.8062  1.3221 -0.6647
  555MOL0    Cl74835   5.896   7.157   1.232  0.2748 -0.0428 -0.4115
  555MOL0     C74836   4.998   6.681   1.718  0.3742 -0.3376  0.1306
  555MOL0     C74837   5.059   6.594   1.813  0.3732 -0.5138 -0.5056
  555MOL0     O74838   5.168   6.307   1.796  0.0347  0.4232  0.0600
  555MOL0     C74839   5.320   6.122   1.939 -0.3494 -0.2073 -0.0523
  555MOL0     C74840   5.413   6.028   1.979  0.0969  0.1525  0.6102
  555MOL0     N74841   6.175   6.170   2.319  0.5498 -0.4298  0.7546
  555MOL0     N74842   6.285   6.144   2.371  0.0897  0.3649 -0.2558
  555MOL0     C74843   7.542   6.378   2.189 -0.5913 -0.0107 -0.5602
  555MOL0     C74844   7.680   6.390   2.139  0.1458 -0.3255 -0.3875
  555MOL0     C74845   7.968   6.444   1.777  0.4989 -0.5507  0.0521
  555MOL0     C74846   7.986   6.499   1.648  0.2885  0.5229 -0.9191
  555MOL0     C74847   8.115   6.530   1.605  0.0855 -0.5560  0.3092
  555MOL0     C74848   8.224   6.525   1.700 -0.1190 -0.3915  0.5995
  555MOL0     O74849   8.351   6.579   1.676 -0.2051  0.6720  0.2232
  555MOL0     C74850   8.411   6.558   1.544  0.4205  0.1121  0.4939
  555MOL0     C74851   8.557   6.545   1.559  0.2016 -0.0278 -0.5953
  555MOL0     C74852   8.620   6.685   1.581  0.1132 -0.4268  0.1959
  555MOL0     C74853   8.636   6.760   1.446 -0.7620  0.3116  0.7756
  555MOL0     C74854   8.747   6.856   1.468  0.1143 -0.8413 -0.3133
  555MOL0     C74855   8.838   6.931   1.501 -0.6963 -0.8483  1.1226
  555MOL0     C74856   8.208   6.470   1.825  0.8512  0.2311 -0.2094
  555MOL0     C74857   8.080   6.427   1.861  0.9448  0.3586 -0.9387
  555MOL0     H74858   7.628   6.200   1.851  0.7114 -1.3632  0.7585
  555MOL0     H74859   7.413   6.184   1.931 -0.7382  1.3426 -0.9351
  555MOL0     H74860   7.216   6.358   2.008 -2.2399 -0.0266  0.0310
  555MOL0     H74861   7.218   6.182   2.023 -0.6226 -0.9340  1.2782
  555MOL0     H74862   7.090   6.387   2.210  1.3350  0.1651 -1.1849
  555MOL0     H74863   7.005   6.283   2.083 -0.9972 -0.1077  0.6147
  555MOL0     H74864   7.072   6.078   2.197 -0.5971  0.2657  0.8953
  555MOL0     H74865   7.157   6.166   2.321  1.0233 -2.0841 -1.3035
  555MOL0     H74866   6.965   6.105   2.420 -0.8843 -0.7794 -0.7886
  555MOL0     H74867   6.928   6.271   2.375 -3.0356  0.2941 -1.0103
  555MOL0     H74868   6.761   6.194   2.187 -3.3488 -0.3851  1.1466
  555MOL0     H74869   6.840   6.035   2.198  5.4687  1.7559  1.7644
  555MOL0     H74870   6.733   6.018   2.432 -2.2015 -0.7605  0.3835
  555MOL0     H74871   6.667   6.179   2.396 -1.2346 -0.4380  0.1420
  555MOL0     H74872   6.544   6.056   2.198 -2.0096 -0.9817  0.0420
  555MOL0     H74873   6.615   5.913   2.260 -0.9345 -0.9347  0.3910
  555MOL0     H74874   6.481   6.010   2.477 -0.9742 -2.6306  2.0425
  555MOL0     H74875   6.456   5.857   2.377  2.2035  0.5775  2.2062
  555MOL0     H74876   6.202   5.841   2.293  3.0492 -1.2003  2.1864
  555MOL0     H74877   5.958   6.124   2.205 -1.2661 -0.4497  0.5089
  555MOL0     H74878   6.006   5.973   2.122  1.5493 -1.6349  1.1173
  555MOL0     H74879   5.855   5.989   2.394 -0.5648 -2.6451  1.3755
  555MOL0     H74880   5.970   5.866   2.366  4.0478  3.2384 -0.0716
  555MOL0     H74881   5.734   5.791   2.262 -0.8400  0.2109 -0.7677
  555MOL0     H74882   5.833   5.845   2.131 -1.7052 -4.1396 -0.0851
  555MOL0     H74883   5.746   6.075   2.161 -0.7874  1.3471  0.5228
  555MOL0     H74884   5.646   6.025   2.300 -2.6310  2.0149 -2.1127
  555MOL0     H74885   5.618   6.233   2.150  0.8003 -1.9093 -1.1053
  555MOL0     H74886   5.544   6.442   2.183 -1.8459 -1.4266  1.6193
  555MOL0     H74887   5.517   6.483   2.014  2.6991  1.5212  1.9397
  555MOL0     H74888   5.381   6.498   2.121  0.0080 -1.5282  1.9941
  555MOL0     H74889   5.374   6.588   1.695 -0.7604 -0.9844 -3.0712
  555MOL0     H74890   5.283   6.739   1.533 -2.7405 -0.6117 -1.4186
  555MOL0     H74891   5.193   6.867   1.411  0.9620  2.4651 -1.2273
  555MOL0     H74892   5.047   6.951   1.367  0.0857 -1.3606 -0.4896
  555MOL0     H74893   5.068   7.098   1.549  0.2194 -0.1123  0.3905
  555MOL0     H74894   5.216   7.024   1.611  1.0850 -0.6976 -1.3829
  555MOL0     H74895   5.253   7.227   1.504  1.3181 -1.9274 -0.2299
  555MOL0     H74896   5.184   7.168   1.351  1.5774  0.1857 -1.3185
  555MOL0     H74897   5.442   7.061   1.499  0.4718 -1.3628 -0.8966
  555MOL0     H74898   5.377   7.006   1.351 -4.1723  2.1632 -1.0170
  555MOL0     H74899   5.488   7.273   1.413 -1.1913  3.2319 -1.0088
  555MOL0     H74900   5.404   7.256   1.261  2.5917  0.8456 -0.2625
  555MOL0     H74901   5.655   7.093   1.311  2.0349  0.3992 -2.5175
  555MOL0     H74902   5.554   7.114   1.156 -1.1763  0.4068 -0.3826
  555MOL0     H74903   5.671   7.342   1.312 -0.4045  0.4788  0.0461
  555MOL0     H74904   5.599   7.339   1.149  1.8902  2.2167  0.1739
  555MOL0     H74905   5.836   7.360   1.133 -2.0715  2.2766  1.2250
  555MOL0     H74906   5.770   7.222   1.044 -1.1612 -0.0689 -0.0698
  555MOL0     H74907   4.892   6.696   1.733  0.6114  1.4796  0.1844
  555MOL0     H74908   4.993   6.556   1.890  0.9961 -1.0733 -0.2314
  555MOL0     H74909   5.254   6.084   1.862 -0.3294 -2.1850  0.8339
  555MOL0     H74910   5.403   5.928   1.939 -0.9859 -0.1052  1.4954
  555MOL0     H74911   7.495   6.408   2.282 -0.9196  1.0491 -1.0599
  555MOL0     H74912   7.736   6.461   2.198 -2.3727  1.6009 -0.1390
  555MOL0     H74913   7.903   6.520   1.581 -2.3139 -0.8632  1.5815
  555MOL0     H74914   8.135   6.562   1.503  2.0529  1.9561  1.3656
  555MOL0     H74915   8.382   6.455   1.518 -1.2024  0.1474  1.9833
  555MOL0     H74916   8.388   6.630   1.465  1.6284  1.2393  1.1495
  555MOL0     H74917   8.604   6.494   1.475  2.4467 -1.1288  1.2268
  555MOL0     H74918   8.580   6.496   1.654  1.9044  0.4123 -0.7376
  555MOL0     H74919   8.709   6.684   1.645  1.1479 -0.0598 -1.2001
  555MOL0     H74920   8.548   6.740   1.643 -0.1664  3.2182 -2.9733
  555MOL0     H74921   8.549   6.809   1.401  0.1049  1.3101  0.1405
  555MOL0     H74922   8.675   6.690   1.371  2.9580 -1.4471  4.0151
  555MOL0     H74923   8.917   6.997   1.531 -1.4694 -0.4473  2.3309
  555MOL0     H74924   8.294   6.469   1.891 -0.3067  2.3496  1.4619
  555MOL0     H74925   8.077   6.377   1.958 -2.4069  0.8979 -0.6429
  556MOL0     O74926   3.110   2.069   6.438 -0.9123  0.1960  0.9283
  556MOL0     C74927   3.183   2.146   6.378 -0.0047 -0.3714 -0.1117
  556MOL0     O74928   3.140   2.243   6.304  0.5825  0.0067 -0.3184
  556MOL0     C74929   3.019   2.248   6.237  0.5412  0.3614  0.3569
  556MOL0     C74930   2.943   2.132   6.191  0.7886 -0.7283 -0.3259
  556MOL0     C74931   2.818   2.152   6.131 -0.4999  1.1966 -0.1154
  556MOL0     C74932   2.755   2.279   6.123  0.6526  0.4547 -0.5225
  556MOL0     O74933   2.617   2.282   6.088  1.0841  0.6209  0.0518
  556MOL0     C74934   2.553   2.404   6.099 -0.1732 -0.6277  0.5484
  556MOL0     C74935   2.399   2.392   6.063 -0.1715 -0.0249  0.2247
  556MOL0     C74936   2.314   2.509   6.118 -0.0287 -1.0025  0.1039
  556MOL0     C74937   2.159   2.482   6.091 -0.9102 -0.2101 -0.2114
  556MOL0     C74938   2.077   2.588   6.151  0.0296 -0.4163 -0.6368
  556MOL0     C74939   1.932   2.581   6.101  0.6135  0.4785  1.3186
  556MOL0     C74940   1.835   2.667   6.171 -0.8453 -0.2070  0.6542
  556MOL0     C74941   1.689   2.630   6.140 -0.7204  0.8280 -0.4619
  556MOL0     N74942   1.599   2.737   6.183 -0.5826  0.2202 -0.1757
  556MOL0     C74943   1.469   2.704   6.227 -0.9852 -0.8520 -0.2571
  556MOL0     C74944   1.392   2.814   6.230 -0.7447  0.6851  0.6251
  556MOL0     C74945   1.245   2.832   6.257 -0.4947 -0.5026 -0.0265
  556MOL0     C74946   1.225   2.977   6.299 -0.3640  0.1301 -0.1763
  556MOL0     C74947   1.103   2.984   6.398 -0.9737  0.2162 -0.2236
  556MOL0     C74948   0.973   2.932   6.337  0.1126 -0.0861 -0.6926
  556MOL0     O74949   0.866   2.969   6.430  0.3287 -0.0332  0.7401
  556MOL0     C74950   0.733   2.936   6.402 -0.1332  1.1311  0.0270
  556MOL0     C74951   0.640   2.949   6.501  0.0321  1.1951  0.7007
  556MOL0     C74952   0.503   2.911   6.474 -0.4749 -0.8371 -0.0681
  556MOL0     C74953   0.413   2.927   6.603  0.0196 -0.0214 -0.4152
  556MOL0     C74954   0.464   2.866   6.340 -0.5261 -0.4700 -0.1213
  556MOL0     C74955   0.319   2.832   6.318 -0.2960  0.7235 -0.3113
  556MOL0     O74956   0.302   2.734   6.227  0.4476  0.5213 -0.3825
  556MOL0     C74957   0.187   2.667   6.226  0.5204 -0.2931 -0.8654
  556MOL0     C74958   0.071   2.730   6.176 -0.5468  0.9953  1.4248
  556MOL0     C74959  -0.049   2.659   6.175 -0.4967  0.2323  0.6515
  556MOL0     C74960  -0.065   2.536   6.241 -0.2445  1.0182 -0.7373
  556MOL0     O74961  -0.180   2.474   6.253  0.5375  0.1830 -0.6910
  556MOL0     C74962  -0.188   2.331   6.237  0.2417  0.0836 -0.7786
  556MOL0     C74963  -0.339   2.287   6.236  0.3394  0.8561  0.9124
  556MOL0     C74964  -0.367   2.133   6.241  0.3609 -0.4101  0.0332
  556MOL0     C74965  -0.505   2.085   6.314 -0.7940 -0.7974  0.3782
  556MOL0     C74966  -0.556   1.943   6.263  0.5890 -0.5692 -0.1812
  556MOL0     C74967  -0.595   1.940   6.108 -0.8684 -0.4613  0.0910
  556MOL0     C74968  -0.670   1.817   6.069  0.0572 -0.8702  0.0902
  556MOL0     C74969  -0.822   1.805   6.097 -0.6300 -0.5774  0.0520
  556MOL0    Cl74970  -0.885   1.650   6.035  0.3046 -0.0250  0.0176
  556MOL0     C74971   0.058   2.479   6.298 -0.0762 -0.2266  0.2925
  556MOL0     C74972   0.185   2.545   6.291  0.0824 -0.5483  0.6025
  556MOL0     O74973   0.229   2.906   6.369 -0.2999  0.1706 -0.1217
  556MOL0     C74974   0.562   2.850   6.243 -0.0116  0.0997 -0.2643
  556MOL0     C74975   0.695   2.888   6.277  0.5168  0.1221  0.3599
  556MOL0     N74976   1.483   2.922   6.190 -0.1957  0.6952 -0.3195
  556MOL0     N74977   1.597   2.870   6.143 -0.1071 -0.7562 -0.4473
  556MOL0     C74978   2.836   2.388   6.164 -0.4975 -0.8496 -0.3415
  556MOL0     C74979   2.963   2.371   6.219  0.0522 -0.7425  0.5862
  556MOL0     C74980   3.330   2.131   6.404  0.4912  0.1121  0.2947
  556MOL0     C74981   3.420   2.218   6.352  0.0178  0.3527  0.5613
  556MOL0     C74982   3.556   2.194   6.351  0.1964  0.7414 -0.2405
  556MOL0     C74983   3.604   2.076   6.422  0.1739 -0.3589  0.5104
  556MOL0     O74984   3.733   2.046   6.450 -0.2267  0.5665  0.1228
  556MOL0     C74985   3.823   2.158   6.471 -0.0826 -0.3421  0.2148
  556MOL0     C74986   3.947   2.102   6.540  0.3492  0.3713  1.2083
  556MOL0     C74987   4.077   2.194   6.538  0.5211 -0.3002 -1.1234
  556MOL0     C74988   4.056   2.311   6.625 -0.6969 -0.2373 -0.7971
  556MOL0     C74989   4.177   2.351   6.694  0.0334  0.2228  0.3772
  556MOL0     C74990   4.284   2.379   6.746 -0.5335  0.2634  0.1156
  556MOL0     C74991   3.515   1.987   6.481 -0.4887  0.0295 -0.2252
  556MOL0     C74992   3.378   2.008   6.456  0.6738 -0.0911  0.6384
  556MOL0     H74993   2.975   2.029   6.196 -3.9637 -2.3743  2.7103
  556MOL0     H74994   2.766   2.070   6.081  0.5878  1.0257 -0.9995
  556MOL0     H74995   2.566   2.442   6.201 -2.3164  2.7427 -0.3014
  556MOL0     H74996   2.602   2.478   6.036  0.4101 -1.0049  0.5517
  556MOL0     H74997   2.378   2.392   5.956 -0.7239 -2.1172  0.2944
  556MOL0     H74998   2.363   2.296   6.100  2.6130 -0.9199  0.8483
  556MOL0     H74999   2.326   2.517   6.226 -1.8796 -1.1839  0.3410
  556MOL0     H75000   2.349   2.603   6.074  0.2310 -0.6062  1.1373
  556MOL0     H75001   2.150   2.499   5.983  0.2209 -0.3008 -0.3374
  556MOL0     H75002   2.130   2.380   6.117  2.6226 -0.8679  1.7663
  556MOL0     H75003   2.090   2.597   6.260  1.4066  1.0159 -0.8821
  556MOL0     H75004   2.116   2.685   6.117  4.2998 -1.7219  0.0019
  556MOL0     H75005   1.927   2.605   5.994 -0.5272  0.1421  1.2885
  556MOL0     H75006   1.912   2.474   6.117 -2.0080  0.9239  1.2953
  556MOL0     H75007   1.846   2.659   6.280 -1.6037 -0.6569  0.7025
  556MOL0     H75008   1.859   2.771   6.150 -0.2311 -0.6180 -0.8231
  556MOL0     H75009   1.660   2.537   6.190 -4.5713 -0.0344 -3.8257
  556MOL0     H75010   1.680   2.628   6.031 -2.9017 -1.2918 -0.3287
  556MOL0     H75011   1.439   2.600   6.240  2.2510 -1.9435 -0.5508
  556MOL0     H75012   1.182   2.824   6.168  0.2456  1.4475 -0.7868
  556MOL0     H75013   1.216   2.757   6.331  0.5372 -0.6113  0.2854
  556MOL0     H75014   1.211   3.041   6.211 -2.0423  0.6654  0.4304
  556MOL0     H75015   1.308   3.021   6.354 -0.2732  1.6087 -1.4300
  556MOL0     H75016   1.088   3.089   6.424  0.4725  0.9253 -2.0307
  556MOL0     H75017   1.121   2.924   6.488 -4.1945 -0.5404  0.0453
  556MOL0     H75018   0.978   2.823   6.340 -2.2362 -0.2439  1.1287
  556MOL0     H75019   0.957   2.969   6.235  1.5267  1.5914 -0.3518
  556MOL0     H75020   0.674   2.977   6.600  6.0598 -1.3152 -0.1921
  556MOL0     H75021   0.380   2.828   6.633  1.2681 -0.7259 -1.2925
  556MOL0     H75022   0.467   2.967   6.689 -2.2586  1.6262  0.3482
  556MOL0     H75023   0.333   2.997   6.578 -0.3631  1.0085  3.1525
  556MOL0     H75024   0.092   2.831   6.141 -2.3020  0.4856 -1.4251
  556MOL0     H75025  -0.126   2.712   6.121 -3.1294 -3.4118  0.4357
  556MOL0     H75026  -0.143   2.302   6.141 -2.3561  1.1979 -2.4507
  556MOL0     H75027  -0.139   2.276   6.318  1.0343  0.3404 -1.0691
  556MOL0     H75028  -0.393   2.336   6.318  1.1951  0.7512  1.5614
  556MOL0     H75029  -0.375   2.330   6.142  1.8545  0.7455  0.2451
  556MOL0     H75030  -0.278   2.095   6.291  0.4274 -0.3083 -0.0063
  556MOL0     H75031  -0.373   2.108   6.134  0.4197 -0.5290  0.0577
  556MOL0     H75032  -0.488   2.083   6.422  2.1357 -0.1074  0.0117
  556MOL0     H75033  -0.573   2.167   6.289  1.3007  1.0352  0.4827
  556MOL0     H75034  -0.641   1.922   6.329  0.6013  0.4188  0.1721
  556MOL0     H75035  -0.483   1.866   6.289 -1.5905 -2.2726  1.2214
  556MOL0     H75036  -0.653   2.025   6.071 -0.0093 -0.7232 -1.9996
  556MOL0     H75037  -0.501   1.941   6.053 -2.3670  0.6238 -2.6296
  556MOL0     H75038  -0.630   1.723   6.108 -3.0752 -1.2756  2.7395
  556MOL0     H75039  -0.647   1.814   5.962  1.5721 -0.7299  0.3792
  556MOL0     H75040  -0.878   1.882   6.043 -2.2591 -0.9645  1.0906
  556MOL0     H75041  -0.842   1.809   6.205 -2.1729 -3.8774 -0.0059
  556MOL0     H75042   0.047   2.378   6.337 -0.5080 -1.3797 -2.5435
  556MOL0     H75043   0.280   2.505   6.324 -1.0968 -1.8635  2.6278
  556MOL0     H75044   0.530   2.819   6.144  0.0734  1.3944 -0.7195
  556MOL0     H75045   0.761   2.888   6.191  0.9931  2.0037  0.6869
  556MOL0     H75046   2.792   2.487   6.163 -0.7589 -0.9653 -0.4455
  556MOL0     H75047   3.021   2.454   6.259 -0.7039  0.6132 -1.0112
  556MOL0     H75048   3.384   2.311   6.308  2.2492 -0.1358 -2.6345
  556MOL0     H75049   3.622   2.271   6.312  0.5540  0.5221 -0.0713
  556MOL0     H75050   3.840   2.220   6.383 -2.0067  0.6465  0.4719
  556MOL0     H75051   3.774   2.230   6.538  0.1764 -1.3463  1.5412
  556MOL0     H75052   3.971   2.012   6.482  0.7586  0.7203  0.8280
  556MOL0     H75053   3.915   2.074   6.640 -1.5980  0.4210  0.6429
  556MOL0     H75054   4.112   2.223   6.438  0.5957  0.7109 -0.8122
  556MOL0     H75055   4.159   2.134   6.580 -0.6991 -0.6185  0.9398
  556MOL0     H75056   3.985   2.288   6.705 -0.1343 -0.9546 -0.4967
  556MOL0     H75057   4.017   2.390   6.560 -0.4441 -0.9432 -1.8293
  556MOL0     H75058   4.380   2.406   6.783  0.9327  0.2964 -3.3345
  556MOL0     H75059   3.563   1.913   6.544 -0.4607 -0.8690 -1.2762
  556MOL0     H75060   3.300   1.945   6.498  1.5682  0.5664  3.5799
  557MOL0     O75061   4.036   4.984   2.109  0.1286  0.0153 -0.0883
  557MOL0     C75062   4.004   5.082   2.040  0.2056 -0.3541 -0.6197
  557MOL0     O75063   4.070   5.201   2.033 -0.3311 -0.5154 -0.0352
  557MOL0     C75064   4.206   5.209   2.070  0.3315 -0.0064  0.4930
  557MOL0     C75065   4.266   5.156   2.183  0.6450  0.1525 -0.0430
  557MOL0     C75066   4.396   5.191   2.221 -1.0028  0.1204  0.5406
  557MOL0     C75067   4.486   5.265   2.145 -0.1553  1.5429  1.4629
  557MOL0     O75068   4.616   5.275   2.178 -0.6493 -0.1966  0.3474
  557MOL0     C75069   4.700   5.356   2.091  0.3472  0.4492  0.2745
  557MOL0     C75070   4.838   5.373   2.159  0.6084  0.9075 -0.3066
  557MOL0     C75071   4.944   5.429   2.074  1.3356 -0.3234  0.3315
  557MOL0     C75072   5.055   5.488   2.163  0.0859  0.2218 -0.0814
  557MOL0     C75073   5.177   5.549   2.092  0.3505  0.1262 -0.7805
  557MOL0     C75074   5.273   5.600   2.210 -0.2867 -0.1069  0.9874
  557MOL0     C75075   5.389   5.676   2.143 -0.1222 -0.6563 -0.3957
  557MOL0     C75076   5.464   5.584   2.038 -0.5947  0.8620  0.2459
  557MOL0     N75077   5.517   5.465   2.101 -0.2252 -0.0054 -0.2383
  557MOL0     C75078   5.490   5.331   2.079  0.1468 -0.3374 -0.1803
  557MOL0     C75079   5.576   5.270   2.162  0.0489 -0.5004 -0.0714
  557MOL0     C75080   5.591   5.125   2.181  0.0328 -0.6025  0.2476
  557MOL0     C75081   5.721   5.074   2.121  1.1382 -0.0874 -0.1860
  557MOL0     C75082   5.736   5.067   1.972 -0.3254 -0.1934 -0.3059
  557MOL0     C75083   5.856   4.975   1.917 -0.5646  0.0940  0.1526
  557MOL0     O75084   5.909   5.021   1.790  0.7969 -0.6299 -0.3002
  557MOL0     C75085   5.828   5.002   1.675  0.2645  0.0670  0.3421
  557MOL0     C75086   5.710   4.929   1.672 -0.0041 -0.6591 -0.1361
  557MOL0     C75087   5.639   4.922   1.546  1.3658 -0.4204 -0.9246
  557MOL0     C75088   5.515   4.836   1.545  0.2014  0.0292 -0.7629
  557MOL0     C75089   5.684   4.996   1.434 -0.2444 -0.7732 -0.2032
  557MOL0     C75090   5.615   4.994   1.308  0.6940  0.7114  0.2286
  557MOL0     O75091   5.704   5.005   1.197  0.6320  0.1185 -0.2809
  557MOL0     C75092   5.648   4.967   1.072 -0.1046 -1.0300  0.0210
  557MOL0     C75093   5.720   5.024   0.972 -0.0374 -0.7875 -0.4531
  557MOL0     C75094   5.676   4.991   0.843 -0.2720 -0.2124 -0.0907
  557MOL0     C75095   5.580   4.896   0.810  0.1062  0.7408  1.2506
  557MOL0     O75096   5.547   4.874   0.676 -0.2103  0.5586 -0.2279
  557MOL0     C75097   5.445   4.774   0.650 -1.1866 -0.1036 -0.2265
  557MOL0     C75098   5.425   4.756   0.498  0.1363 -0.2267  0.2838
  557MOL0     C75099   5.515   4.659   0.426 -0.1264  0.0721  0.4444
  557MOL0     C75100   5.478   4.507   0.446 -0.1497 -1.4975  0.0378
  557MOL0     C75101   5.575   4.420   0.370  0.7026  0.0492 -0.0372
  557MOL0     C75102   5.554   4.410   0.224  1.0926 -0.5442  0.6057
  557MOL0     C75103   5.676   4.339   0.161 -0.3161 -0.0696 -0.3947
  557MOL0     C75104   5.658   4.308   0.013 -0.2700 -0.9214  0.2856
  557MOL0    Cl75105   5.785   4.207  -0.069  0.3885  0.2464  0.0412
  557MOL0     C75106   5.526   4.827   0.919  0.9470 -0.6390  0.3762
  557MOL0     C75107   5.560   4.862   1.049  0.1018 -0.2551 -0.6237
  557MOL0     O75108   5.496   4.973   1.303 -0.2826  0.4807 -0.1892
  557MOL0     C75109   5.810   5.065   1.438  0.2101  1.2915 -0.4262
  557MOL0     C75110   5.879   5.062   1.559 -0.1879  0.2410  0.7477
  557MOL0     N75111   5.657   5.364   2.218 -0.7475 -0.1957 -0.0380
  557MOL0     N75112   5.623   5.480   2.188 -0.6567  0.2805  0.1113
  557MOL0     C75113   4.427   5.314   2.030 -0.8002 -0.1904  0.2987
  557MOL0     C75114   4.292   5.291   1.986  0.0707 -0.5905 -0.1383
  557MOL0     C75115   3.880   5.070   1.964  0.4109  0.4334  0.0164
  557MOL0     C75116   3.856   5.154   1.857  0.0348  0.3218 -0.7528
  557MOL0     C75117   3.731   5.161   1.800  0.2922  0.7204  0.2057
  557MOL0     C75118   3.623   5.081   1.843 -0.2624 -0.0982 -1.0448
  557MOL0     O75119   3.493   5.076   1.793 -0.1701 -0.2409 -1.1280
  557MOL0     C75120   3.418   5.190   1.847  0.0184  0.5813 -0.8141
  557MOL0     C75121   3.422   5.317   1.768  0.5101 -1.0867 -0.3850
  557MOL0     C75122   3.387   5.296   1.620 -0.1139  0.6250  0.0319
  557MOL0     C75123   3.434   5.413   1.528 -0.8502  0.1431  0.4326
  557MOL0     C75124   3.380   5.538   1.574  0.1056 -0.1294 -0.6572
  557MOL0     C75125   3.332   5.639   1.617 -0.3802 -0.2707  0.4111
  557MOL0     C75126   3.653   4.990   1.943  0.1721 -0.0970  0.4852
  557MOL0     C75127   3.779   4.982   2.009 -0.0465 -0.3705  0.2862
  557MOL0     H75128   4.204   5.095   2.247 -2.1283  4.5763  2.0047
  557MOL0     H75129   4.435   5.159   2.317  1.8820 -1.9927 -1.1647
  557MOL0     H75130   4.707   5.317   1.989 -1.5723  2.6298 -0.7893
  557MOL0     H75131   4.660   5.458   2.093  1.5680  0.9411  2.6837
  557MOL0     H75132   4.829   5.436   2.248  1.8488  2.4829 -1.2413
  557MOL0     H75133   4.878   5.273   2.181  0.3656  0.3648 -2.1343
  557MOL0     H75134   4.980   5.368   1.991  3.1532 -1.0312  1.5920
  557MOL0     H75135   4.892   5.517   2.035 -2.0116 -1.9040  0.9046
  557MOL0     H75136   5.007   5.564   2.224 -4.4634 -2.0539 -0.4303
  557MOL0     H75137   5.084   5.402   2.224 -0.6419  0.5915  0.8048
  557MOL0     H75138   5.221   5.469   2.031 -0.9076  0.0494 -1.6286
  557MOL0     H75139   5.140   5.630   2.029 -1.3022  0.7714  0.9571
  557MOL0     H75140   5.212   5.669   2.269 -0.9257 -0.4358  0.7168
  557MOL0     H75141   5.314   5.514   2.263 -0.2333 -1.9391 -1.8452
  557MOL0     H75142   5.364   5.766   2.087  3.8164  1.5464  1.0210
  557MOL0     H75143   5.461   5.723   2.211  0.9239 -0.1142 -1.8155
  557MOL0     H75144   5.551   5.626   1.989  1.1198 -3.2106 -0.6289
  557MOL0     H75145   5.403   5.554   1.952  0.0432 -0.9629  0.3778
  557MOL0     H75146   5.416   5.291   2.010  0.2255  0.6444 -0.8597
  557MOL0     H75147   5.585   5.109   2.289 -0.9664  1.3211  0.5275
  557MOL0     H75148   5.504   5.079   2.132  1.7028 -0.3988 -3.1815
  557MOL0     H75149   5.720   4.969   2.151  0.1790 -0.1004 -0.2289
  557MOL0     H75150   5.810   5.125   2.159  1.0248 -0.9007  1.2411
  557MOL0     H75151   5.745   5.170   1.934 -2.1005  0.5732  1.1924
  557MOL0     H75152   5.637   5.042   1.932 -0.3732  2.5273 -2.1868
  557MOL0     H75153   5.824   4.872   1.900  0.6087 -0.0247 -1.6064
  557MOL0     H75154   5.944   4.976   1.983 -0.7195  1.0419  0.3593
  557MOL0     H75155   5.676   4.877   1.762  4.0117 -2.5971  0.4726
  557MOL0     H75156   5.418   4.884   1.528 -0.5605 -0.4874  1.6780
  557MOL0     H75157   5.523   4.758   1.469  0.6000 -1.2230  0.5087
  557MOL0     H75158   5.514   4.771   1.633 -1.7478 -0.3422 -1.0050
  557MOL0     H75159   5.788   5.106   0.993 -2.6748  1.3771  0.2599
  557MOL0     H75160   5.718   5.042   0.756 -1.8449  1.9723  0.3422
  557MOL0     H75161   5.483   4.676   0.681  0.8867  0.9951  0.8799
  557MOL0     H75162   5.353   4.791   0.706 -0.0667  1.4733  1.2055
  557MOL0     H75163   5.325   4.724   0.466  0.4186 -1.1608  0.3279
  557MOL0     H75164   5.441   4.853   0.450  1.8553 -0.7728 -0.3209
  557MOL0     H75165   5.622   4.672   0.444 -0.0107  0.1827 -0.2794
  557MOL0     H75166   5.514   4.687   0.320 -1.6395 -0.3263  0.3314
  557MOL0     H75167   5.490   4.494   0.554  2.2207 -0.5205 -0.0261
  557MOL0     H75168   5.375   4.485   0.418 -1.0053  2.4704 -0.6106
  557MOL0     H75169   5.566   4.319   0.412 -0.8343  0.3223  0.3390
  557MOL0     H75170   5.677   4.454   0.393  0.8308  0.2785 -0.8915
  557MOL0     H75171   5.457   4.363   0.203  0.2366  0.5128  2.0488
  557MOL0     H75172   5.553   4.512   0.185  3.1955  0.2911  2.5528
  557MOL0     H75173   5.685   4.245   0.215  2.1164  0.9364  1.0792
  557MOL0     H75174   5.759   4.407   0.184 -0.9644 -0.1854  2.6046
  557MOL0     H75175   5.638   4.395  -0.050 -1.2306 -2.6609 -1.9872
  557MOL0     H75176   5.568   4.247  -0.001  0.0803 -0.8325 -3.3490
  557MOL0     H75177   5.447   4.754   0.906 -1.2298  1.5922  0.3461
  557MOL0     H75178   5.513   4.805   1.129 -4.2816  1.1062 -1.9574
  557MOL0     H75179   5.856   5.125   1.360  3.3317 -0.3636  0.0006
  557MOL0     H75180   5.973   5.115   1.549 -1.0182  1.4801 -1.1361
  557MOL0     H75181   4.481   5.376   1.959  2.5572 -1.3222  1.6798
  557MOL0     H75182   4.253   5.331   1.893 -0.9814 -0.3714  0.3835
  557MOL0     H75183   3.936   5.221   1.828  0.3474 -1.2828 -4.0738
  557MOL0     H75184   3.717   5.230   1.718  1.1802  0.9186  0.2133
  557MOL0     H75185   3.315   5.152   1.838 -0.9543  2.3742  1.5899
  557MOL0     H75186   3.442   5.214   1.951 -0.8981  0.9328 -0.6654
  557MOL0     H75187   3.521   5.361   1.783 -0.8558  1.3573  2.9034
  557MOL0     H75188   3.361   5.400   1.807  4.9025  2.0961  0.5039
  557MOL0     H75189   3.281   5.275   1.603 -0.5492  0.4444  2.5951
  557MOL0     H75190   3.438   5.205   1.586 -3.0423 -1.5168  0.8979
  557MOL0     H75191   3.389   5.392   1.430 -0.6350  0.4540  0.2669
  557MOL0     H75192   3.542   5.409   1.517 -0.8099 -1.0963  1.1130
  557MOL0     H75193   3.294   5.727   1.665  1.9643  1.1825 -0.1615
  557MOL0     H75194   3.566   4.936   1.979  1.4992 -2.0617  0.8925
  557MOL0     H75195   3.794   4.907   2.086  0.1987 -3.3745 -2.4984
  558MOL0     O75196   0.114   1.531   9.724 -0.1588 -0.2338 -0.5531
  558MOL0     C75197   0.161   1.419   9.740  0.8243  0.4628  1.4589
  558MOL0     O75198   0.092   1.310   9.788 -0.3683  0.2267  1.4872
  558MOL0     C75199  -0.032   1.308   9.851  0.7375 -0.2896 -0.1369
  558MOL0     C75200  -0.126   1.205   9.830  1.0574  0.4596 -0.5149
  558MOL0     C75201  -0.254   1.216   9.891  0.0751 -0.7461  0.1719
  558MOL0     C75202  -0.281   1.323   9.978 -0.3200 -0.3503 -0.3647
  558MOL0     O75203  -0.399   1.341  10.046  0.4683 -0.6173  0.5583
  558MOL0     C75204  -0.494   1.228  10.064 -0.3872  0.4982  0.6897
  558MOL0     C75205  -0.619   1.259  10.149 -0.0789 -0.0040 -0.5439
  558MOL0     C75206  -0.703   1.376  10.099  0.0046 -0.5943  0.6423
  558MOL0     C75207  -0.763   1.461  10.207  0.6905 -0.5496  0.5937
  558MOL0     C75208  -0.862   1.379  10.285  1.0683 -0.1158  0.0118
  558MOL0     C75209  -0.970   1.474  10.339  0.0699 -0.1110 -0.5017
  558MOL0     C75210  -0.917   1.603  10.398  0.4582  0.8101  0.5876
  558MOL0     C75211  -1.004   1.656  10.519  0.2391 -0.9449  0.1904
  558MOL0     N75212  -1.045   1.799  10.509  0.4809 -0.0456 -0.9891
  558MOL0     C75213  -1.121   1.863  10.411  0.0859  0.0311  0.1836
  558MOL0     C75214  -1.115   1.993  10.441 -0.8660 -0.0271  0.6740
  558MOL0     C75215  -1.197   2.102  10.378 -0.2125  0.0819  0.7459
  558MOL0     C75216  -1.345   2.074  10.380 -0.6963  1.0011  0.2232
  558MOL0     C75217  -1.403   2.075  10.520 -0.0429 -0.1264 -0.5768
  558MOL0     C75218  -1.559   2.086  10.524 -0.9946 -0.3323  0.1828
  558MOL0     O75219  -1.602   2.045  10.652  0.2413 -0.3837  0.3774
  558MOL0     C75220  -1.732   2.088  10.689 -0.2550  0.1242 -0.0895
  558MOL0     C75221  -1.830   2.136  10.603 -0.0703 -0.2484  0.0798
  558MOL0     C75222  -1.959   2.173  10.644 -0.2412 -0.4990 -0.2937
  558MOL0     C75223  -2.061   2.226  10.540  0.6798 -0.2287  0.5956
  558MOL0     C75224  -1.993   2.142  10.776 -0.1876  0.3669  0.3097
  558MOL0     C75225  -2.130   2.155  10.826 -0.2126  0.5219  0.2509
  558MOL0     O75226  -2.219   2.047  10.821 -1.0760  0.5671  1.2183
  558MOL0     C75227  -2.347   2.048  10.858  0.4641 -0.2684 -0.1389
  558MOL0     C75228  -2.414   1.930  10.851  0.3883 -0.5362  0.4186
  558MOL0     C75229  -2.555   1.915  10.878 -0.4493  0.1991 -0.6900
  558MOL0     C75230  -2.624   2.022  10.925 -0.4170 -0.2638  0.3014
  558MOL0     O75231  -2.748   2.008  10.973  0.0845  0.2520 -0.4909
  558MOL0     C75232  -2.827   2.112  11.023 -0.6598 -0.2816  0.2157
  558MOL0     C75233  -2.895   2.189  10.904 -0.7029 -0.5224  0.1743
  558MOL0     C75234  -2.940   2.332  10.942 -0.1771  0.5641 -0.6318
  558MOL0     C75235  -3.041   2.341  11.055  0.9329 -0.1100  0.4983
  558MOL0     C75236  -3.053   2.491  11.098  0.8896 -0.3672 -0.4243
  558MOL0     C75237  -3.144   2.510  11.222  0.1318 -0.7094 -0.1902
  558MOL0     C75238  -3.171   2.664  11.228  0.8380  0.4906 -0.4799
  558MOL0     C75239  -3.273   2.685  11.334  0.3893 -0.4318  0.0998
  558MOL0    Cl75240  -3.441   2.655  11.289  0.2678  0.4468  0.3082
  558MOL0     C75241  -2.558   2.145  10.926  0.3273 -0.2981  0.4262
  558MOL0     C75242  -2.423   2.151  10.901  0.3345 -0.9142  0.6747
  558MOL0     O75243  -2.151   2.265  10.876 -0.1409 -0.7470 -0.4660
  558MOL0     C75244  -1.901   2.072  10.859  0.4110 -0.3118 -0.4367
  558MOL0     C75245  -1.775   2.055  10.814 -0.3364  0.0537 -0.3793
  558MOL0     N75246  -1.036   2.011  10.555  0.2896  0.0408 -0.0558
  558MOL0     N75247  -0.995   1.893  10.587  0.3426 -0.2188  0.1228
  558MOL0     C75248  -0.193   1.428   9.981  0.0005 -0.0602 -0.3691
  558MOL0     C75249  -0.070   1.426   9.918 -0.0490  0.3551  0.1143
  558MOL0     C75250   0.292   1.387   9.687 -0.4944 -0.2344  0.7473
  558MOL0     C75251   0.378   1.498   9.646 -0.1580 -0.4740 -0.3175
  558MOL0     C75252   0.511   1.472   9.609  0.2867 -0.6943  0.0296
  558MOL0     C75253   0.562   1.339   9.607 -0.3058 -1.1862 -0.0899
  558MOL0     O75254   0.693   1.304   9.570  0.0731 -0.0542  0.1947
  558MOL0     C75255   0.803   1.400   9.566  0.3435  1.1518 -0.4052
  558MOL0     C75256   0.926   1.358   9.655  0.1023 -1.0706  0.2456
  558MOL0     C75257   0.997   1.231   9.615  0.3196 -1.1340 -0.2188
  558MOL0     C75258   1.101   1.248   9.503  0.4203 -1.0020 -1.0477
  558MOL0     C75259   1.185   1.128   9.485 -0.3905 -0.6569 -0.4079
  558MOL0     C75260   1.264   1.040   9.471  0.7784  0.4997 -0.3305
  558MOL0     C75261   0.474   1.235   9.634  0.0199  0.3942  1.2188
  558MOL0     C75262   0.338   1.259   9.666  0.0120 -0.4298  0.5401
  558MOL0     H75263  -0.102   1.121   9.766  1.6297 -0.4805  0.8793
  558MOL0     H75264  -0.324   1.140   9.859  0.5562  0.0719 -3.1715
  558MOL0     H75265  -0.532   1.191   9.968 -1.5948 -1.0091  1.6939
  558MOL0     H75266  -0.437   1.140  10.094 -0.8083  0.3527  1.0781
  558MOL0     H75267  -0.678   1.167  10.160  0.5956 -0.5971 -1.7268
  558MOL0     H75268  -0.598   1.286  10.253 -1.6739 -2.5744  0.5419
  558MOL0     H75269  -0.645   1.446  10.038  0.9944  2.4987  4.7484
  558MOL0     H75270  -0.786   1.343  10.034  0.7861  1.2096 -1.4107
  558MOL0     H75271  -0.694   1.508  10.277 -0.2038 -0.5472  1.4902
  558MOL0     H75272  -0.807   1.550  10.161  0.5488  1.1736  3.7808
  558MOL0     H75273  -0.913   1.307  10.219  2.1371  0.0498 -1.0170
  558MOL0     H75274  -0.799   1.336  10.363  0.5363  0.2225  0.6423
  558MOL0     H75275  -1.023   1.509  10.251  0.2611 -1.2691 -1.0951
  558MOL0     H75276  -1.041   1.421  10.403  0.6720 -2.5127 -1.7008
  558MOL0     H75277  -0.814   1.580  10.428  1.0570 -0.5043 -2.0877
  558MOL0     H75278  -0.924   1.676  10.316 -0.4534 -2.1384 -2.2014
  558MOL0     H75279  -0.960   1.634  10.617 -0.0507 -2.6119 -0.0131
  558MOL0     H75280  -1.096   1.596  10.518 -0.4606  0.0031 -2.5552
  558MOL0     H75281  -1.192   1.829  10.336 -1.4202 -1.7597  2.2844
  558MOL0     H75282  -1.177   2.194  10.433 -0.0525 -0.4534  1.6044
  558MOL0     H75283  -1.157   2.110  10.277 -0.3575 -0.6437  0.6210
  558MOL0     H75284  -1.366   1.982  10.325  1.2458  1.5180 -1.5204
  558MOL0     H75285  -1.395   2.150  10.320 -1.3427 -1.7901 -3.0416
  558MOL0     H75286  -1.364   2.163  10.574 -1.1099  0.2466 -0.3971
  558MOL0     H75287  -1.363   1.986  10.570 -2.2419 -1.0408 -0.3282
  558MOL0     H75288  -1.596   2.022  10.444 -0.4713  0.0285 -0.3510
  558MOL0     H75289  -1.586   2.190  10.504  0.6230  0.2833  1.0270
  558MOL0     H75290  -1.805   2.149  10.498 -1.4897 -1.8643 -0.5225
  558MOL0     H75291  -2.058   2.168  10.447  0.3966  1.3379 -0.4334
  558MOL0     H75292  -2.161   2.241  10.581  1.6198  3.0953  2.0003
  558MOL0     H75293  -2.040   2.328  10.509 -0.5087  0.1139  0.8628
  558MOL0     H75294  -2.380   1.830  10.826 -0.1841 -0.9598  1.2784
  558MOL0     H75295  -2.592   1.813  10.874  1.0398 -0.4270  0.4487
  558MOL0     H75296  -2.902   2.069  11.090  1.7009 -1.3702  2.3086
  558MOL0     H75297  -2.785   2.193  11.083 -4.7128  2.7422 -0.6160
  558MOL0     H75298  -2.829   2.185  10.817  1.7461 -0.6964  1.9144
  558MOL0     H75299  -2.972   2.125  10.861 -2.1428  0.3704  1.3151
  558MOL0     H75300  -2.962   2.374  10.844  3.5837 -1.8490 -2.7662
  558MOL0     H75301  -2.846   2.381  10.971 -0.2597 -0.0050  0.6886
  558MOL0     H75302  -3.145   2.311  11.037 -0.0437  0.8172  3.8457
  558MOL0     H75303  -3.010   2.276  11.138  1.9943 -1.0011 -0.5610
  558MOL0     H75304  -3.105   2.538  11.014  1.5282  1.0390 -0.0781
  558MOL0     H75305  -2.959   2.545  11.113 -0.5856  2.1711  0.3236
  558MOL0     H75306  -3.233   2.447  11.212 -1.1768  0.7908  1.5012
  558MOL0     H75307  -3.086   2.477  11.308  0.7101 -4.7591 -1.8943
  558MOL0     H75308  -3.216   2.703  11.136  0.5221  0.9116 -0.1487
  558MOL0     H75309  -3.076   2.715  11.246  1.5273 -1.2565  1.1002
  558MOL0     H75310  -3.266   2.786  11.375  0.5449 -0.2128 -0.4638
  558MOL0     H75311  -3.250   2.602  11.402  0.3716 -2.0502 -1.7844
  558MOL0     H75312  -2.615   2.237  10.937  0.0431 -0.2010 -1.5202
  558MOL0     H75313  -2.387   2.253  10.910 -1.8104 -0.0848  0.4615
  558MOL0     H75314  -1.923   2.018  10.951  3.6673 -2.1198 -0.5366
  558MOL0     H75315  -1.711   1.995  10.878  0.4729  0.8322 -0.4386
  558MOL0     H75316  -0.212   1.509  10.050  2.0623 -0.8117  1.1953
  558MOL0     H75317   0.000   1.508   9.932 -0.2635  1.0958 -2.5599
  558MOL0     H75318   0.336   1.598   9.645  0.6203 -0.1422 -0.2249
  558MOL0     H75319   0.581   1.552   9.586 -1.0274 -0.0055 -1.8301
  558MOL0     H75320   0.838   1.408   9.463 -0.7802 -3.4127 -1.3526
  558MOL0     H75321   0.774   1.500   9.599  0.1876  1.8836 -2.6166
  558MOL0     H75322   0.890   1.368   9.758 -0.5690  0.0530 -0.0819
  558MOL0     H75323   0.998   1.440   9.651  0.4784 -1.3798  0.6931
  558MOL0     H75324   0.925   1.152   9.590 -2.5626 -0.1144  3.9430
  558MOL0     H75325   1.053   1.191   9.700 -0.2876  3.4445  2.6182
  558MOL0     H75326   1.156   1.339   9.527 -0.7908 -0.6360  0.5192
  558MOL0     H75327   1.052   1.278   9.410  1.7505 -1.0640 -1.7970
  558MOL0     H75328   1.329   0.955   9.473  0.3739  0.1808  2.2323
  558MOL0     H75329   0.496   1.129   9.630 -1.1585  0.1578  0.1859
  558MOL0     H75330   0.261   1.184   9.678 -0.0911 -1.1953 -3.6493
  559MOL0     O75331   0.488   9.732   3.199 -0.0255 -0.7696 -0.3487
  559MOL0     C75332   0.457   9.638   3.280 -0.9196  0.3707  0.4313
  559MOL0     O75333   0.549   9.558   3.339 -0.0924  0.8622 -0.1071
  559MOL0     C75334   0.679   9.543   3.299 -0.1279  0.4219 -0.0847
  559MOL0     C75335   0.733   9.567   3.168 -0.1279  0.1031 -0.5359
  559MOL0     C75336   0.877   9.544   3.153 -0.5008  1.3309 -1.0002
  559MOL0     C75337   0.960   9.503   3.264  0.8616 -0.7291 -0.8483
  559MOL0     O75338   1.097   9.483   3.268 -0.5664 -0.0237 -0.0233
  559MOL0     C75339   1.173   9.572   3.185 -0.5977 -0.1174  0.6524
  559MOL0     C75340   1.320   9.535   3.205 -1.1421 -0.1391  0.2512
  559MOL0     C75341   1.413   9.616   3.119  0.0428 -0.0335 -0.7909
  559MOL0     C75342   1.555   9.569   3.133  0.1228  0.3880  0.1035
  559MOL0     C75343   1.646   9.673   3.067 -0.5515 -0.3306  0.0059
  559MOL0     C75344   1.755   9.583   2.999  0.9675  0.0802  0.1309
  559MOL0     C75345   1.855   9.660   2.914  0.2587  0.5306  0.0153
  559MOL0     C75346   1.950   9.748   2.997 -0.2363 -1.0081 -0.7473
  559MOL0     N75347   2.040   9.661   3.068 -0.5990 -0.0058 -0.3738
  559MOL0     C75348   2.049   9.629   3.205 -0.6902 -0.1495  0.7961
  559MOL0     C75349   2.147   9.536   3.207  0.8966 -0.1425  0.0514
  559MOL0     C75350   2.170   9.448   3.332 -0.1525 -0.4675  0.3744
  559MOL0     C75351   2.177   9.535   3.456 -0.6465 -1.1563 -0.4639
  559MOL0     C75352   2.178   9.429   3.581 -0.2786  0.0493 -1.1518
  559MOL0     C75353   2.185   9.515   3.712 -0.4848 -0.0598 -0.6653
  559MOL0     O75354   2.161   9.435   3.830  0.3624 -0.2819 -0.3799
  559MOL0     C75355   2.028   9.392   3.840  0.5132 -0.2133  0.1353
  559MOL0     C75356   1.987   9.268   3.782 -0.3827 -1.1021 -0.1266
  559MOL0     C75357   1.851   9.239   3.787 -0.2569 -0.0327  0.7761
  559MOL0     C75358   1.817   9.107   3.729 -0.7305  0.3711 -0.1483
  559MOL0     C75359   1.756   9.323   3.853  1.1230  0.4002  0.3253
  559MOL0     C75360   1.609   9.287   3.864 -0.3645 -0.2391  0.1218
  559MOL0     O75361   1.559   9.252   3.753  0.1172  0.3487  0.4235
  559MOL0     C75362   1.426   9.248   3.742 -0.6690  1.3078 -0.6913
  559MOL0     C75363   1.358   9.324   3.647  0.2067  0.1358 -0.0456
  559MOL0     C75364   1.222   9.308   3.626  0.2912 -0.0946  0.1879
  559MOL0     C75365   1.149   9.220   3.707 -0.3035 -0.1705  0.1640
  559MOL0     O75366   1.012   9.215   3.689 -0.1777  0.1108  0.1877
  559MOL0     C75367   0.929   9.153   3.786 -0.6819 -0.0222  0.1151
  559MOL0     C75368   0.790   9.166   3.732  0.4112 -0.4740 -0.8803
  559MOL0     C75369   0.766   9.140   3.586  0.0262 -0.0053  0.6696
  559MOL0     C75370   0.622   9.146   3.540  0.1448 -0.2365  0.4921
  559MOL0     C75371   0.618   9.136   3.391  0.2517  0.4478 -1.2710
  559MOL0     C75372   0.475   9.136   3.324  0.7042  0.7496  0.0871
  559MOL0     C75373   0.466   9.104   3.167 -0.6155  0.9610 -0.5932
  559MOL0     C75374   0.388   9.212   3.087  0.5419 -0.5795  0.6248
  559MOL0    Cl75375   0.339   9.147   2.923  0.5727  0.3068 -0.0949
  559MOL0     C75376   1.217   9.134   3.795  0.4686  0.1623  0.0012
  559MOL0     C75377   1.356   9.151   3.816 -0.3967  0.7956  1.3624
  559MOL0     O75378   1.554   9.302   3.974  0.3872  0.9438  0.1771
  559MOL0     C75379   1.800   9.437   3.913  0.8997  0.3895  0.1511
  559MOL0     C75380   1.935   9.482   3.896  0.0943  0.5389 -0.0898
  559MOL0     N75381   2.203   9.517   3.089 -0.2278  0.1080  0.4395
  559MOL0     N75382   2.141   9.591   3.006  0.3130  0.2556  0.7798
  559MOL0     C75383   0.895   9.482   3.387  0.1378  0.9291 -0.1288
  559MOL0     C75384   0.760   9.492   3.401  0.1262 -0.2444 -0.3502
  559MOL0     C75385   0.315   9.621   3.317  0.3161 -0.2320 -0.2066
  559MOL0     C75386   0.228   9.731   3.289  0.0300  0.1723  0.3888
  559MOL0     C75387   0.094   9.733   3.330 -0.1017  0.0531  0.4064
  559MOL0     C75388   0.042   9.610   3.384  0.7499 -0.0287 -0.0674
  559MOL0     O75389  -0.090   9.582   3.421 -0.6062 -0.1184  0.1322
  559MOL0     C75390  -0.173   9.690   3.433  0.0991 -0.0142  0.0952
  559MOL0     C75391  -0.265   9.654   3.549 -0.5376 -0.1765  0.9063
  559MOL0     C75392  -0.332   9.517   3.516 -0.1621 -0.3962  0.1591
  559MOL0     C75393  -0.442   9.500   3.623 -0.0559  0.6179  0.4938
  559MOL0     C75394  -0.457   9.359   3.656 -0.7651 -0.0670  0.1796
  559MOL0     C75395  -0.485   9.247   3.702 -0.1883  0.4191 -0.1302
  559MOL0     C75396   0.123   9.499   3.399  0.5475 -0.2681  0.5138
  559MOL0     C75397   0.262   9.510   3.379 -0.5788 -0.4504  0.5174
  559MOL0     H75398   0.673   9.603   3.086 -0.5665  0.2885 -0.1381
  559MOL0     H75399   0.932   9.551   3.059 -1.3910 -1.8915 -1.8889
  559MOL0     H75400   1.153   9.562   3.077  1.8767  2.7447 -0.2012
  559MOL0     H75401   1.157   9.676   3.216  0.6509  0.8011 -1.5505
  559MOL0     H75402   1.333   9.540   3.314 -4.5133 -1.7407  0.8326
  559MOL0     H75403   1.340   9.431   3.178  0.8029 -0.0905  1.3043
  559MOL0     H75404   1.388   9.604   3.013 -0.6693 -2.7560 -0.4117
  559MOL0     H75405   1.415   9.718   3.159  0.9251  0.3591 -1.8039
  559MOL0     H75406   1.584   9.541   3.235  0.8412 -5.2488 -1.2946
  559MOL0     H75407   1.546   9.479   3.071 -1.2425 -1.8839  3.3592
  559MOL0     H75408   1.596   9.724   2.984 -1.1942 -1.6356 -0.4272
  559MOL0     H75409   1.688   9.745   3.139 -4.0488  1.4225  0.4894
  559MOL0     H75410   1.808   9.519   3.069  0.4077 -1.9405 -1.2230
  559MOL0     H75411   1.702   9.527   2.921  2.2495  0.4398 -1.0485
  559MOL0     H75412   1.906   9.592   2.845 -0.6086 -0.5982  0.4632
  559MOL0     H75413   1.790   9.731   2.861 -0.6743  1.1627  1.8876
  559MOL0     H75414   1.893   9.801   3.074 -1.2954 -1.9556 -0.8537
  559MOL0     H75415   1.998   9.820   2.931 -2.3717  0.0059 -1.2745
  559MOL0     H75416   1.964   9.648   3.269 -0.5009  0.3392  0.9021
  559MOL0     H75417   2.080   9.386   3.344 -0.2565 -0.2339  0.8412
  559MOL0     H75418   2.263   9.392   3.320  0.6771  0.1386  3.2442
  559MOL0     H75419   2.087   9.594   3.475 -0.6455 -2.0162  2.6651
  559MOL0     H75420   2.265   9.599   3.452 -0.3519 -1.5076  0.2775
  559MOL0     H75421   2.272   9.373   3.573  0.8803  2.1036 -3.0047
  559MOL0     H75422   2.085   9.371   3.578  0.1271 -1.0972  2.9219
  559MOL0     H75423   2.101   9.584   3.702 -0.5220  0.0311  0.2342
  559MOL0     H75424   2.279   9.570   3.707 -0.1017 -0.5229  0.9738
  559MOL0     H75425   2.062   9.194   3.755 -1.9196 -2.8332  0.1654
  559MOL0     H75426   1.842   9.118   3.623  5.2435  0.4849  0.8887
  559MOL0     H75427   1.885   9.038   3.781  1.2698 -1.9478 -5.1797
  559MOL0     H75428   1.714   9.070   3.728 -0.3869 -0.6457  0.2604
  559MOL0     H75429   1.409   9.405   3.596 -0.5667  0.4910 -0.2537
  559MOL0     H75430   1.165   9.387   3.578 -1.0264 -0.6111  0.8647
  559MOL0     H75431   0.951   9.046   3.799 -2.5363 -0.8020 -2.3424
  559MOL0     H75432   0.935   9.211   3.878 -0.9896  2.5196 -1.3907
  559MOL0     H75433   0.717   9.109   3.791 -0.4100  2.6129  1.4210
  559MOL0     H75434   0.764   9.272   3.741  4.6322  0.6888  0.1752
  559MOL0     H75435   0.807   9.041   3.566  2.7801  0.8774  1.4454
  559MOL0     H75436   0.826   9.206   3.523  0.1167 -0.3732  0.3684
  559MOL0     H75437   0.574   9.058   3.583 -0.9333 -0.3956 -0.9859
  559MOL0     H75438   0.566   9.235   3.570  1.6543  0.2985  1.9196
  559MOL0     H75439   0.660   9.038   3.365 -0.2314 -0.4958  1.2527
  559MOL0     H75440   0.681   9.211   3.343  0.6691 -0.4559 -2.1781
  559MOL0     H75441   0.403   9.080   3.385  1.3393 -0.0008  0.1606
  559MOL0     H75442   0.446   9.242   3.324 -0.5013  0.4308 -0.4932
  559MOL0     H75443   0.417   9.008   3.150 -2.1608  1.8841 -1.6051
  559MOL0     H75444   0.571   9.098   3.136 -1.0435 -1.5450 -1.8220
  559MOL0     H75445   0.449   9.303   3.079  0.0423 -0.1336  1.6618
  559MOL0     H75446   0.302   9.253   3.141 -0.2738 -1.1465 -0.2101
  559MOL0     H75447   1.158   9.068   3.858  0.1336  0.1202 -0.3488
  559MOL0     H75448   1.394   9.085   3.893 -0.9609 -0.3220  0.7117
  559MOL0     H75449   1.728   9.498   3.968  0.8037 -0.7046  1.2820
  559MOL0     H75450   1.962   9.567   3.957 -1.6482  1.7815 -0.9504
  559MOL0     H75451   0.943   9.446   3.478 -3.9034 -1.9295  1.1447
  559MOL0     H75452   0.715   9.477   3.499 -2.2250  1.4662 -1.0613
  559MOL0     H75453   0.255   9.813   3.223 -1.4810  0.4908  0.1179
  559MOL0     H75454   0.032   9.821   3.316  1.7282  1.5183  0.9711
  559MOL0     H75455  -0.124   9.785   3.457  1.2973 -0.0966 -1.7924
  559MOL0     H75456  -0.224   9.704   3.337 -0.7408 -3.1571 -0.0219
  559MOL0     H75457  -0.349   9.725   3.548 -0.7554 -0.3057 -2.4589
  559MOL0     H75458  -0.213   9.652   3.645 -0.6599 -2.7080  0.9843
  559MOL0     H75459  -0.266   9.434   3.539 -1.8636 -0.9970  3.5044
  559MOL0     H75460  -0.371   9.525   3.414  2.7706 -0.7218 -1.0771
  559MOL0     H75461  -0.533   9.545   3.583 -1.0900  0.3319  2.3645
  559MOL0     H75462  -0.419   9.544   3.721 -1.0884  2.0450  0.1286
  559MOL0     H75463  -0.516   9.151   3.740  1.3992 -1.6979 -3.6761
  559MOL0     H75464   0.079   9.412   3.446  0.4308 -1.4059 -1.5973
  559MOL0     H75465   0.321   9.423   3.404  0.7104 -0.0556 -0.9842
  560MOL0     O75466  10.117   6.840   8.228 -0.3414 -1.0271 -0.7409
  560MOL0     C75467  10.204   6.798   8.301  0.4381  0.3528 -0.4221
  560MOL0     O75468  10.197   6.813   8.444  0.0957  0.2491 -0.0568
  560MOL0     C75469  10.103   6.895   8.503 -0.4280  0.6251 -0.7989
  560MOL0     C75470  10.076   6.860   8.639 -1.2225 -0.5643  0.2238
  560MOL0     C75471   9.991   6.931   8.723 -0.7215  0.5329  0.3368
  560MOL0     C75472   9.912   7.038   8.666  0.2794 -0.5381 -0.0909
  560MOL0     O75473   9.824   7.114   8.736  0.2752 -0.3983 -0.7852
  560MOL0     C75474   9.783   7.091   8.874  0.3541 -0.3362  0.2763
  560MOL0     C75475   9.869   7.159   8.978  0.4063  0.5185 -0.0336
  560MOL0     C75476   9.867   7.306   8.946  0.8270 -0.4014 -0.6870
  560MOL0     C75477   9.920   7.398   9.066 -0.1381 -0.8381  0.7051
  560MOL0     C75478   9.951   7.542   9.007  0.3381  0.1485  0.0272
  560MOL0     C75479   9.831   7.621   8.962  0.3445  0.2990 -0.5540
  560MOL0     C75480   9.756   7.685   9.078 -0.8995  0.7471 -0.2157
  560MOL0     C75481   9.642   7.777   9.025 -0.5562  0.5569  0.2123
  560MOL0     N75482   9.577   7.850   9.137 -0.5284  0.4430 -0.1041
  560MOL0     C75483   9.637   7.958   9.199 -0.0929 -0.6242  0.6958
  560MOL0     C75484   9.543   8.017   9.274  0.1453  0.3230  0.2956
  560MOL0     C75485   9.540   8.128   9.369  0.4593  0.2057 -0.6397
  560MOL0     C75486   9.666   8.125   9.461  0.4026 -0.3622  1.1031
  560MOL0     C75487   9.667   8.236   9.571  0.6111 -0.5926  0.0147
  560MOL0     C75488   9.766   8.214   9.683 -0.4037 -0.0973  0.3814
  560MOL0     O75489   9.732   8.101   9.758  0.2508 -0.2916  0.0453
  560MOL0     C75490   9.823   8.074   9.853  0.4512  0.5068  0.0837
  560MOL0     C75491   9.828   8.143   9.973  0.5616  0.5179 -0.4150
  560MOL0     C75492   9.943   8.136  10.058  0.4123  0.7766  0.5453
  560MOL0     C75493   9.947   8.232  10.172 -1.2727 -0.5746 -0.4821
  560MOL0     C75494  10.046   8.044  10.026  0.8354  0.0547 -0.5986
  560MOL0     C75495  10.177   8.035  10.098  0.5977 -1.0962 -0.3262
  560MOL0     O75496  10.261   7.929  10.081 -0.3020 -0.5950  0.1711
  560MOL0     C75497  10.387   7.936  10.138  0.2349  0.0361 -0.2316
  560MOL0     C75498  10.425   7.818  10.202  0.0275  0.5882 -0.9284
  560MOL0     C75499  10.557   7.812  10.261 -0.3146  0.4421  0.0263
  560MOL0     C75500  10.653   7.911  10.245  0.5297 -0.2478  0.3733
  560MOL0     O75501  10.783   7.898  10.289  0.2585 -0.6440 -0.2294
  560MOL0     C75502  10.805   7.815  10.400 -1.6251 -0.0905 -0.5130
  560MOL0     C75503  10.902   7.885  10.495 -0.5033  0.3788  0.4313
  560MOL0     C75504  11.050   7.913  10.449 -0.0969  0.7300  0.1737
  560MOL0     C75505  11.142   7.951  10.567 -0.7548 -0.4832  0.3505
  560MOL0     C75506  11.280   8.000  10.515 -1.0660  0.3319  0.6403
  560MOL0     C75507  11.394   8.005  10.612 -0.4203 -0.6526  0.7251
  560MOL0     C75508  11.342   8.085  10.734 -0.5277  0.1084 -0.6337
  560MOL0     C75509  11.440   8.066  10.853 -0.1274 -0.4445 -0.7714
  560MOL0    Cl75510  11.604   8.144  10.811 -0.3099  0.0857 -0.1629
  560MOL0     C75511  10.616   8.017  10.157 -0.1291 -0.5306  0.3790
  560MOL0     C75512  10.481   8.028  10.104 -0.5195  0.1949  0.7454
  560MOL0     O75513  10.211   8.148  10.139 -0.6794  0.0378 -0.0150
  560MOL0     C75514  10.043   7.984   9.897  0.8673  0.7115  0.9977
  560MOL0     C75515   9.927   7.985   9.817 -0.5714  0.6448 -0.2048
  560MOL0     N75516   9.428   7.939   9.249 -0.0609  0.6758 -0.0057
  560MOL0     N75517   9.446   7.853   9.157 -0.7686  0.4587 -0.3198
  560MOL0     C75518   9.929   7.063   8.535 -0.0560 -0.6960  0.6259
  560MOL0     C75519  10.025   6.997   8.456  0.7427 -0.5002 -0.0095
  560MOL0     C75520  10.317   6.731   8.242  0.7181 -0.2065 -1.1028
  560MOL0     C75521  10.338   6.737   8.106 -0.4594 -0.6552 -0.5900
  560MOL0     C75522  10.463   6.680   8.058 -0.1318 -0.3019 -0.3717
  560MOL0     C75523  10.553   6.611   8.148  0.3582  0.1636  0.4796
  560MOL0     O75524  10.667   6.553   8.106 -0.4856  0.3647 -0.0644
  560MOL0     C75525  10.718   6.551   7.973  0.0866 -0.2910 -0.4870
  560MOL0     C75526  10.644   6.441   7.884 -0.3165  1.6511 -0.4963
  560MOL0     C75527  10.698   6.307   7.917  0.7561  0.8041  0.4510
  560MOL0     C75528  10.808   6.246   7.822  0.4224 -0.0114 -0.1024
  560MOL0     C75529  10.940   6.287   7.858  0.2451  0.4736  0.4557
  560MOL0     C75530  11.051   6.330   7.885  0.3988  0.0160  0.6580
  560MOL0     C75531  10.523   6.598   8.282 -0.1531  0.6073 -0.5909
  560MOL0     C75532  10.410   6.669   8.323  0.7217 -0.3636 -0.3353
  560MOL0     H75533  10.126   6.780   8.694 -1.7856  0.7238  2.7332
  560MOL0     H75534   9.981   6.891   8.823 -1.8904 -0.6300 -0.2049
  560MOL0     H75535   9.678   7.120   8.881  0.4758  0.0545  0.5724
  560MOL0     H75536   9.781   6.989   8.914 -1.9052 -0.8707 -1.0085
  560MOL0     H75537   9.827   7.147   9.078  1.0678  0.9289  0.3023
  560MOL0     H75538   9.971   7.119   8.974  1.2130  2.3596  0.8087
  560MOL0     H75539   9.923   7.323   8.853 -0.4374 -1.0270 -1.5895
  560MOL0     H75540   9.773   7.341   8.903  1.7380 -0.9164 -3.2987
  560MOL0     H75541   9.839   7.407   9.139  2.8675  1.9406  4.1154
  560MOL0     H75542  10.003   7.347   9.117 -0.8844 -3.3423 -0.4317
  560MOL0     H75543  10.005   7.595   9.086  3.5449 -2.5158 -0.2057
  560MOL0     H75544  10.022   7.530   8.926  0.7843  2.6236 -0.0192
  560MOL0     H75545   9.859   7.706   8.899  4.5218  1.3272  2.2503
  560MOL0     H75546   9.753   7.560   8.915 -1.0231  1.1650  0.5005
  560MOL0     H75547   9.716   7.609   9.146  1.2103 -0.8313 -0.6355
  560MOL0     H75548   9.837   7.743   9.124  0.3283 -1.3138  0.3697
  560MOL0     H75549   9.575   7.717   8.962 -0.4231  0.1655  0.4413
  560MOL0     H75550   9.687   7.844   8.951 -1.4639  2.0048  0.9339
  560MOL0     H75551   9.742   7.984   9.196 -0.6626  1.8141 -0.2741
  560MOL0     H75552   9.526   8.215   9.304 -2.1064 -0.6026 -1.2622
  560MOL0     H75553   9.449   8.122   9.428  0.9337 -3.3583 -0.0404
  560MOL0     H75554   9.757   8.133   9.400 -0.0473 -1.9577  0.1434
  560MOL0     H75555   9.664   8.029   9.513 -3.0151  0.0260  1.9213
  560MOL0     H75556   9.566   8.232   9.615 -0.0396  0.6862 -1.3125
  560MOL0     H75557   9.685   8.333   9.525 -4.0498  0.0133 -0.9972
  560MOL0     H75558   9.746   8.305   9.740 -2.6076  0.0127 -0.4566
  560MOL0     H75559   9.867   8.222   9.642  0.3739  0.5529  2.3423
  560MOL0     H75560   9.743   8.202  10.004 -0.6251 -0.3395 -1.8889
  560MOL0     H75561  10.028   8.304  10.164 -0.9872 -0.8402 -0.0415
  560MOL0     H75562   9.861   8.295  10.196 -0.0764 -0.2786  3.7592
  560MOL0     H75563   9.960   8.167  10.259 -0.8339  0.3582  0.1668
  560MOL0     H75564  10.352   7.740  10.218  1.4633 -0.4220  1.2163
  560MOL0     H75565  10.577   7.716  10.307 -1.0314 -0.0698 -0.6916
  560MOL0     H75566  10.710   7.805  10.454 -0.8643 -0.6537  0.7753
  560MOL0     H75567  10.839   7.720  10.359 -0.6225  0.5258 -1.1347
  560MOL0     H75568  10.851   7.968  10.544 -1.2929 -0.7751  1.6444
  560MOL0     H75569  10.920   7.805  10.567 -2.5249 -1.2688 -0.7873
  560MOL0     H75570  11.056   7.996  10.378  0.1194 -1.0177 -1.9528
  560MOL0     H75571  11.096   7.820  10.414  0.6638  0.5047  1.6733
  560MOL0     H75572  11.094   8.023  10.634 -0.7237 -1.2613  1.2387
  560MOL0     H75573  11.169   7.863  10.627  3.1791 -0.0708 -0.5520
  560MOL0     H75574  11.255   8.103  10.484 -1.2781  0.1707  0.2630
  560MOL0     H75575  11.314   7.953  10.422  2.8813 -0.4736  2.2839
  560MOL0     H75576  11.399   7.904  10.652 -0.9196 -1.2294 -0.5941
  560MOL0     H75577  11.489   8.041  10.572 -1.4443 -0.3105 -1.6010
  560MOL0     H75578  11.245   8.048  10.770  1.0055 -2.3655  1.2706
  560MOL0     H75579  11.327   8.191  10.712 -1.5562  0.3898  1.1354
  560MOL0     H75580  11.462   7.962  10.879  0.7507  0.1123  0.8027
  560MOL0     H75581  11.389   8.121  10.932 -0.4759 -0.5467 -0.9221
  560MOL0     H75582  10.689   8.092  10.129 -0.8450  0.0156 -0.0787
  560MOL0     H75583  10.450   8.109  10.039  1.5599 -1.2400 -2.2798
  560MOL0     H75584  10.115   7.904   9.882  0.0705  0.0732  0.5337
  560MOL0     H75585   9.908   7.928   9.727 -0.6535  2.2290 -1.2328
  560MOL0     H75586   9.867   7.141   8.492 -0.3634 -0.2387  1.8362
  560MOL0     H75587  10.039   7.030   8.354  0.1225 -0.5514 -0.1163
  560MOL0     H75588  10.282   6.802   8.040 -1.1604 -0.4268  0.2112
  560MOL0     H75589  10.484   6.670   7.952  1.3357 -1.5318  0.0022
  560MOL0     H75590  10.691   6.647   7.928 -3.6040 -1.1085 -0.2884
  560MOL0     H75591  10.825   6.535   7.990 -0.2490 -1.9720  0.2734
  560MOL0     H75592  10.664   6.452   7.777  1.9001 -0.3679 -0.3761
  560MOL0     H75593  10.535   6.448   7.885 -0.4287  0.4381 -1.4339
  560MOL0     H75594  10.613   6.240   7.901  0.3822  1.7548 -1.9685
  560MOL0     H75595  10.725   6.301   8.023 -2.2887 -1.5080  1.2593
  560MOL0     H75596  10.783   6.275   7.719 -1.4594  1.5806  0.7457
  560MOL0     H75597  10.804   6.136   7.814 -0.0017  0.1361 -3.7132
  560MOL0     H75598  11.151   6.351   7.918  0.7137 -3.1264  2.0958
  560MOL0     H75599  10.581   6.541   8.354 -0.7835 -0.3962 -0.8398
  560MOL0     H75600  10.392   6.660   8.430  0.2377 -0.3065 -0.4075
  561MOL0     O75601   1.436   1.682   4.021 -0.9111 -0.6454 -0.3362
  561MOL0     C75602   1.441   1.750   4.123 -0.2966 -0.1980 -0.7470
  561MOL0     O75603   1.386   1.726   4.249  0.1443 -0.4855 -1.1880
  561MOL0     C75604   1.307   1.612   4.263 -0.9286  0.0175  0.0913
  561MOL0     C75605   1.329   1.535   4.375  0.2835 -0.0374  0.0285
  561MOL0     C75606   1.249   1.419   4.396 -1.2991  0.5326 -0.3351
  561MOL0     C75607   1.150   1.383   4.304 -0.7287  0.0896  0.0428
  561MOL0     O75608   1.062   1.283   4.318  0.6835 -0.4970 -0.3394
  561MOL0     C75609   1.066   1.212   4.438 -0.1120 -0.7487 -0.2517
  561MOL0     C75610   0.986   1.092   4.444  0.6476 -0.7703  0.6488
  561MOL0     C75611   1.015   1.000   4.320  0.9184  0.0750  1.1270
  561MOL0     C75612   0.931   0.870   4.336 -0.3677 -0.4895 -0.0300
  561MOL0     C75613   0.939   0.772   4.217  0.4669  0.0129 -0.6968
  561MOL0     C75614   0.907   0.626   4.258  0.0789 -0.0502  0.6423
  561MOL0     C75615   0.756   0.616   4.304  0.2703 -0.5534 -0.1747
  561MOL0     C75616   0.717   0.470   4.308  0.2279 -0.5369 -0.1419
  561MOL0     N75617   0.586   0.464   4.377 -0.0394  0.7010 -0.6517
  561MOL0     C75618   0.578   0.493   4.513 -0.2220  0.1468  0.0414
  561MOL0     C75619   0.470   0.421   4.555  0.7985 -0.5383  0.2939
  561MOL0     C75620   0.434   0.409   4.699  0.2649 -1.2087 -0.3074
  561MOL0     C75621   0.543   0.348   4.789 -0.2306  0.3432 -0.3124
  561MOL0     C75622   0.552   0.190   4.793  0.5974  0.0251  0.4757
  561MOL0     C75623   0.568   0.120   4.655  0.5075  0.2882  0.0284
  561MOL0     O75624   0.563  -0.025   4.659  0.2946  0.1827  0.1460
  561MOL0     C75625   0.451  -0.084   4.710  0.1585  0.4331  0.1674
  561MOL0     C75626   0.321  -0.038   4.687  0.6445 -0.4227  0.0832
  561MOL0     C75627   0.204  -0.101   4.734 -0.2975 -0.1767  0.4360
  561MOL0     C75628   0.073  -0.032   4.721  0.1076 -0.7146  0.4125
  561MOL0     C75629   0.219  -0.224   4.799 -0.2452  0.1645  0.8375
  561MOL0     C75630   0.116  -0.310   4.850  0.4004 -0.0458 -0.0161
  561MOL0     O75631   0.019  -0.354   4.771 -0.1301  0.0891  0.0481
  561MOL0     C75632  -0.109  -0.385   4.812 -0.8922 -0.6385 -0.7057
  561MOL0     C75633  -0.182  -0.291   4.889 -0.1302 -0.0143 -0.7646
  561MOL0     C75634  -0.290  -0.328   4.963 -0.9478 -0.3696  0.2127
  561MOL0     C75635  -0.337  -0.463   4.952 -0.0592 -0.0655 -0.8505
  561MOL0     O75636  -0.446  -0.511   5.022 -0.0397  0.3134 -0.3347
  561MOL0     C75637  -0.560  -0.432   5.042 -0.3890 -0.0740  0.7532
  561MOL0     C75638  -0.699  -0.514   5.041  0.4557 -0.7997  0.2230
  561MOL0     C75639  -0.739  -0.571   4.903  0.2934 -0.8502  0.3945
  561MOL0     C75640  -0.647  -0.687   4.868 -0.0552  0.2072  0.0355
  561MOL0     C75641  -0.702  -0.760   4.749 -0.4215  0.0544 -0.3568
  561MOL0     C75642  -0.604  -0.867   4.697 -1.1147 -0.0874  0.1017
  561MOL0     C75643  -0.473  -0.797   4.630  1.1684  0.9204  0.1521
  561MOL0     C75644  -0.399  -0.907   4.559  0.1650  0.0819  0.1799
  561MOL0    Cl75645  -0.246  -0.850   4.491 -0.4133 -0.2367 -0.0641
  561MOL0     C75646  -0.267  -0.555   4.867  0.1827  0.1130 -0.6646
  561MOL0     C75647  -0.153  -0.516   4.797  0.6478  0.6370  0.6380
  561MOL0     O75648   0.117  -0.315   4.976  0.1152  0.2839 -0.0912
  561MOL0     C75649   0.352  -0.273   4.826  0.1615 -0.1202 -1.0166
  561MOL0     C75650   0.465  -0.211   4.774 -0.1331 -0.6533 -0.3056
  561MOL0     N75651   0.414   0.359   4.454  0.5152  0.4126  0.1301
  561MOL0     N75652   0.476   0.392   4.344  0.8672  0.2546  0.5219
  561MOL0     C75653   1.119   1.469   4.201 -0.6131  0.5619  0.0047
  561MOL0     C75654   1.201   1.577   4.175  0.3099  0.3488  0.3076
  561MOL0     C75655   1.513   1.874   4.122 -1.1305  0.8308  1.3362
  561MOL0     C75656   1.554   1.928   3.995 -1.0815 -0.3237  0.4745
  561MOL0     C75657   1.623   2.048   3.999 -1.3321  0.3896 -0.1373
  561MOL0     C75658   1.668   2.112   4.118  0.7533  0.4502  0.2981
  561MOL0     O75659   1.723   2.231   4.125  0.2516 -0.2181  0.1914
  561MOL0     C75660   1.645   2.346   4.084  0.2534 -0.0884  0.5514
  561MOL0     C75661   1.735   2.468   4.078  1.0543 -0.2660 -0.0119
  561MOL0     C75662   1.665   2.608   4.067 -0.3465  0.7806  0.1855
  561MOL0     C75663   1.519   2.619   4.130 -0.2194 -0.4718 -0.7473
  561MOL0     C75664   1.418   2.590   4.024  0.4594  0.1976 -0.0941
  561MOL0     C75665   1.342   2.582   3.931 -0.0645  0.7202  0.7676
  561MOL0     C75666   1.638   2.047   4.237 -0.1497  0.0555 -0.4581
  561MOL0     C75667   1.560   1.929   4.237  0.6230 -0.6596 -0.1573
  561MOL0     H75668   1.401   1.565   4.451  0.1089  0.2657  0.0793
  561MOL0     H75669   1.263   1.374   4.493 -0.7597  5.4705  2.2232
  561MOL0     H75670   1.171   1.185   4.456 -0.1160 -0.0314  1.0182
  561MOL0     H75671   1.034   1.278   4.519 -0.4923 -2.2076  0.8449
  561MOL0     H75672   1.014   1.029   4.530  2.0547 -2.0464 -0.6914
  561MOL0     H75673   0.879   1.114   4.444  0.4744 -1.3612 -1.9471
  561MOL0     H75674   1.002   1.042   4.219  1.0748 -5.0281 -1.2999
  561MOL0     H75675   1.121   0.973   4.313  1.2663  1.7140 -1.5973
  561MOL0     H75676   0.965   0.822   4.428  1.2138  2.1613  0.8895
  561MOL0     H75677   0.829   0.905   4.352  0.0758  0.2660  1.3394
  561MOL0     H75678   0.869   0.808   4.141 -2.0226 -1.2382  0.8450
  561MOL0     H75679   1.042   0.785   4.183  0.7837  2.7336  0.9408
  561MOL0     H75680   0.946   0.565   4.175  1.9988  0.6497  0.9690
  561MOL0     H75681   0.968   0.582   4.337 -0.5187 -1.3588  0.3964
  561MOL0     H75682   0.752   0.662   4.403  0.3317 -3.2839  1.1964
  561MOL0     H75683   0.681   0.664   4.240 -0.1660 -0.4406  0.4036
  561MOL0     H75684   0.789   0.400   4.353 -1.5650 -0.7429  2.6256
  561MOL0     H75685   0.698   0.433   4.207  0.3665 -0.9484 -0.0218
  561MOL0     H75686   0.655   0.546   4.568  3.7877 -2.1373 -2.8510
  561MOL0     H75687   0.422   0.512   4.736 -0.6604 -0.6646 -2.0181
  561MOL0     H75688   0.339   0.359   4.718 -0.2419 -0.5540 -1.0566
  561MOL0     H75689   0.539   0.378   4.894 -0.6805 -0.3180 -0.1299
  561MOL0     H75690   0.638   0.382   4.748  0.0470  0.0094  0.0512
  561MOL0     H75691   0.458   0.159   4.838  1.8626  0.2525  3.5586
  561MOL0     H75692   0.638   0.170   4.858 -0.7066  2.2520  3.0678
  561MOL0     H75693   0.653   0.171   4.608 -0.3598  0.0876 -1.8768
  561MOL0     H75694   0.485   0.146   4.589  0.0671  0.5881  0.6935
  561MOL0     H75695   0.312   0.054   4.631  2.5916 -0.6565 -0.7049
  561MOL0     H75696   0.082   0.076   4.705 -2.6239  0.2290  3.7513
  561MOL0     H75697   0.019  -0.073   4.635  4.5277 -2.8106 -1.6379
  561MOL0     H75698   0.001  -0.049   4.802  0.2189  0.3134  0.7376
  561MOL0     H75699  -0.151  -0.190   4.911 -1.3627  0.5481 -1.5238
  561MOL0     H75700  -0.340  -0.273   5.042 -0.9230 -0.9426  0.6312
  561MOL0     H75701  -0.558  -0.388   5.142  0.0666 -2.8362  2.0462
  561MOL0     H75702  -0.567  -0.361   4.959  0.1850 -0.0692  0.7055
  561MOL0     H75703  -0.710  -0.594   5.115 -1.9526 -0.5600  0.1941
  561MOL0     H75704  -0.774  -0.436   5.054 -0.8511 -1.0019 -4.3848
  561MOL0     H75705  -0.739  -0.502   4.818 -3.3554 -0.5329  0.5165
  561MOL0     H75706  -0.841  -0.608   4.912 -0.1019 -0.4397 -1.9783
  561MOL0     H75707  -0.545  -0.653   4.846 -0.0349  1.0719  1.3467
  561MOL0     H75708  -0.639  -0.756   4.952  3.0434  1.7386  1.1780
  561MOL0     H75709  -0.719  -0.685   4.671 -0.5406  0.6670  0.2456
  561MOL0     H75710  -0.792  -0.817   4.773  1.0685 -1.4220  2.1840
  561MOL0     H75711  -0.570  -0.916   4.788 -3.0751  1.7442  1.9226
  561MOL0     H75712  -0.650  -0.936   4.625 -2.5980  1.2138 -0.2657
  561MOL0     H75713  -0.404  -0.746   4.698  0.3876  2.2323 -0.0070
  561MOL0     H75714  -0.515  -0.734   4.551 -2.0110 -1.7548 -0.4838
  561MOL0     H75715  -0.446  -0.942   4.466  0.3849  0.6795 -0.1575
  561MOL0     H75716  -0.388  -0.995   4.623  0.5263 -1.3946 -1.7838
  561MOL0     H75717  -0.300  -0.658   4.874 -0.9325  0.3424 -2.0905
  561MOL0     H75718  -0.100  -0.593   4.742 -0.3191 -0.3587  1.0595
  561MOL0     H75719   0.349  -0.370   4.874  2.1951 -0.2185 -1.0019
  561MOL0     H75720   0.562  -0.253   4.799  0.5598 -0.1407 -2.0113
  561MOL0     H75721   1.035   1.436   4.141 -1.6980 -0.1844  1.8370
  561MOL0     H75722   1.172   1.633   4.087  3.5543  1.9253  0.0997
  561MOL0     H75723   1.542   1.890   3.894  3.0698 -1.4039  0.2140
  561MOL0     H75724   1.653   2.084   3.901  0.1850  1.2042  0.5744
  561MOL0     H75725   1.606   2.328   3.984 -0.6782 -0.1003  0.9027
  561MOL0     H75726   1.565   2.365   4.156 -1.6111  0.4838 -1.5862
  561MOL0     H75727   1.819   2.453   4.009  2.9066 -2.7614  2.5437
  561MOL0     H75728   1.786   2.460   4.174  3.4107 -2.3029 -1.2959
  561MOL0     H75729   1.669   2.635   3.961  1.8209  0.4577  0.1434
  561MOL0     H75730   1.719   2.677   4.133 -0.9848 -3.1902  5.5528
  561MOL0     H75731   1.507   2.723   4.163  0.5202 -1.2400  2.3648
  561MOL0     H75732   1.502   2.558   4.219  1.9548  1.1041  0.8906
  561MOL0     H75733   1.284   2.570   3.843  1.9537 -1.9464 -0.3515
  561MOL0     H75734   1.668   2.082   4.336 -1.8676  1.2619 -0.3155
  561MOL0     H75735   1.528   1.890   4.333  0.6007  1.8843  0.9575
  562MOL0     O75736   1.455  10.397   4.892  0.0612 -0.3639 -0.3781
  562MOL0     C75737   1.337  10.396   4.927  0.2060  0.1847 -0.3031
  562MOL0     O75738   1.288  10.336   5.039  0.2559 -1.2614 -0.1359
  562MOL0     C75739   1.372  10.277   5.134  0.1162 -0.5868 -0.0433
  562MOL0     C75740   1.502  10.224   5.114 -0.4586 -0.3364  0.5110
  562MOL0     C75741   1.580  10.187   5.221  0.3318 -0.1701  0.6094
  562MOL0     C75742   1.542  10.197   5.352  1.0138 -1.2050  0.5469
  562MOL0     O75743   1.618  10.155   5.457 -0.7266  1.0334  0.6417
  562MOL0     C75744   1.612  10.204   5.589  0.0430 -1.1063 -0.2117
  562MOL0     C75745   1.521  10.131   5.686  0.7073  0.3085  0.4739
  562MOL0     C75746   1.574   9.985   5.694 -0.5461  0.3570  0.3930
  562MOL0     C75747   1.554   9.908   5.828 -0.6575 -0.4211 -0.2001
  562MOL0     C75748   1.576   9.752   5.824  0.6158  0.0956 -0.8595
  562MOL0     C75749   1.470   9.664   5.751 -0.3850 -0.1328  0.3386
  562MOL0     C75750   1.481   9.515   5.764 -0.0055 -0.1576 -0.1922
  562MOL0     C75751   1.408   9.445   5.647  0.0747  0.1466 -0.2504
  562MOL0     N75752   1.262   9.475   5.659  0.0659  0.1196  0.4410
  562MOL0     C75753   1.186   9.461   5.776 -0.6974  0.3307  0.0841
  562MOL0     C75754   1.066   9.493   5.740  0.0524 -0.1418 -1.4607
  562MOL0     C75755   0.955   9.512   5.853 -0.1653  0.2118  0.0416
  562MOL0     C75756   0.808   9.523   5.791 -0.5689 -0.7787  0.1905
  562MOL0     C75757   0.786   9.669   5.741  0.7344 -0.0150  1.3011
  562MOL0     C75758   0.638   9.699   5.713 -1.0841 -0.1042  0.2753
  562MOL0     O75759   0.591   9.790   5.813  0.2641 -0.8049 -0.3264
  562MOL0     C75760   0.462   9.836   5.801 -0.3205 -0.1871  0.4947
  562MOL0     C75761   0.420   9.919   5.900 -0.2099 -0.3498 -0.1180
  562MOL0     C75762   0.289   9.979   5.911 -0.0594 -0.4212 -1.6108
  562MOL0     C75763   0.262  10.080   6.026 -0.7295  0.7147  0.2163
  562MOL0     C75764   0.188   9.923   5.831  0.2200 -0.0939  0.0882
  562MOL0     C75765   0.041   9.943   5.842  0.4568 -0.5247  0.0151
  562MOL0     O75766  -0.035   9.864   5.758  0.3932  0.2150  0.1007
  562MOL0     C75767  -0.171   9.869   5.775  0.3710  0.0105  0.1334
  562MOL0     C75768  -0.239   9.991   5.754  0.4234 -0.2512  0.5730
  562MOL0     C75769  -0.377   9.988   5.765  1.1442 -0.0974 -0.1891
  562MOL0     C75770  -0.453   9.866   5.772  0.1217  0.3893 -0.0063
  562MOL0     O75771  -0.590   9.843   5.759  1.2871 -0.1788 -0.1353
  562MOL0     C75772  -0.658   9.967   5.749 -0.5486 -0.6913  0.7739
  562MOL0     C75773  -0.806   9.942   5.747 -0.1970  0.9106 -0.4128
  562MOL0     C75774  -0.891  10.068   5.730  0.0923 -0.2944  0.0910
  562MOL0     C75775  -1.042  10.049   5.762  0.1021  0.6913  0.0471
  562MOL0     C75776  -1.120  10.020   5.631 -0.4800  0.4629 -0.2914
  562MOL0     C75777  -1.275  10.006   5.659  0.5632  0.2814 -0.1921
  562MOL0     C75778  -1.350   9.943   5.540 -0.3379  0.1481 -0.1429
  562MOL0     C75779  -1.505   9.966   5.552  0.9624  0.7982 -0.2363
  562MOL0    Cl75780  -1.612   9.877   5.669 -0.4642  0.1783 -0.2378
  562MOL0     C75781  -0.376   9.745   5.779 -0.1305 -0.0846  0.5638
  562MOL0     C75782  -0.236   9.752   5.793  0.4503  0.5447 -0.9836
  562MOL0     O75783  -0.003   9.998   5.951  0.0380 -0.9574  0.0505
  562MOL0     C75784   0.224   9.829   5.733 -0.0260 -0.1474 -0.1970
  562MOL0     C75785   0.358   9.794   5.710  0.5523  0.1425 -0.5357
  562MOL0     N75786   1.066   9.523   5.607 -0.3031  0.5700  0.3149
  562MOL0     N75787   1.183   9.507   5.556  0.4971 -0.4121 -0.0122
  562MOL0     C75788   1.411  10.249   5.370  0.1204  0.7543 -0.4957
  562MOL0     C75789   1.326  10.282   5.268  0.4214  0.6905  0.9945
  562MOL0     C75790   1.243  10.453   4.831  0.1024  0.8983 -0.0929
  562MOL0     C75791   1.273  10.552   4.737 -0.8733 -0.0633 -0.1551
  562MOL0     C75792   1.179  10.623   4.662  1.0637 -0.2308 -0.8070
  562MOL0     C75793   1.042  10.578   4.667 -0.4192  0.4289 -0.1768
  562MOL0     O75794   0.954  10.643   4.590  0.1951  0.2391 -0.7155
  562MOL0     C75795   0.867  10.729   4.662  1.1104 -0.1430 -0.0693
  562MOL0     C75796   0.934  10.854   4.713  0.8504  0.1678  0.0933
  562MOL0     C75797   0.844  10.954   4.790 -0.3151  0.3283  0.1130
  562MOL0     C75798   0.772  10.886   4.910 -0.5897 -0.5583  1.0327
  562MOL0     C75799   0.868  10.802   4.988 -0.0749  0.4835 -0.8607
  562MOL0     C75800   0.932  10.726   5.059  0.6697 -0.1490  0.4377
  562MOL0     C75801   1.005  10.485   4.763 -0.6584  1.0840  1.0808
  562MOL0     C75802   1.106  10.423   4.837 -0.5207 -0.3351  0.3017
  562MOL0     H75803   1.546  10.197   5.019  2.6330  2.5721  0.9180
  562MOL0     H75804   1.681  10.149   5.211 -0.1366 -0.9509 -2.3000
  562MOL0     H75805   1.711  10.213   5.634 -1.6121  3.1787  3.3770
  562MOL0     H75806   1.586  10.310   5.589 -1.8378 -1.5161 -1.7309
  562MOL0     H75807   1.527  10.175   5.786  1.4970 -2.4658  1.7524
  562MOL0     H75808   1.418  10.117   5.655  1.2604 -0.0133 -1.3416
  562MOL0     H75809   1.516   9.926   5.622  0.0138 -0.7185  0.7944
  562MOL0     H75810   1.679   9.975   5.664 -0.4092  2.8779 -0.1528
  562MOL0     H75811   1.639   9.948   5.885  0.0086  1.6596 -2.5071
  562MOL0     H75812   1.455   9.926   5.871 -0.0719 -1.8364  1.8927
  562MOL0     H75813   1.678   9.730   5.790  0.6928 -0.2056 -0.4425
  562MOL0     H75814   1.578   9.717   5.928  0.9890  2.4539 -0.0161
  562MOL0     H75815   1.379   9.695   5.804 -0.2231 -0.3379  0.7435
  562MOL0     H75816   1.479   9.692   5.646 -0.6986 -0.7294  0.1451
  562MOL0     H75817   1.585   9.483   5.758  0.6050  1.3114  1.6650
  562MOL0     H75818   1.450   9.475   5.861 -1.8343  1.8351  0.1205
  562MOL0     H75819   1.419   9.338   5.633  0.5321  0.2307 -0.5515
  562MOL0     H75820   1.460   9.488   5.561 -2.1739  0.1005 -1.7128
  562MOL0     H75821   1.221   9.438   5.876 -0.3344  2.7199  0.5689
  562MOL0     H75822   0.972   9.440   5.933  2.1652  0.7068  0.0766
  562MOL0     H75823   0.985   9.608   5.897 -1.2290  1.3584 -1.6008
  562MOL0     H75824   0.736   9.504   5.871 -3.0100  1.9098 -1.1858
  562MOL0     H75825   0.791   9.449   5.712 -2.1321  0.4509 -0.6891
  562MOL0     H75826   0.845   9.692   5.652  1.9796 -0.8911  1.8721
  562MOL0     H75827   0.808   9.746   5.816 -0.9409 -0.7657  2.6421
  562MOL0     H75828   0.577   9.608   5.717  1.8661 -2.2180  1.1609
  562MOL0     H75829   0.643   9.757   5.621  3.9246  0.7163  0.7958
  562MOL0     H75830   0.495   9.945   5.974 -0.3199  1.5013 -0.6038
  562MOL0     H75831   0.190  10.050   6.102  2.5698 -0.3173  3.2368
  562MOL0     H75832   0.360  10.101   6.071  0.8172 -2.1681 -1.5056
  562MOL0     H75833   0.231  10.171   5.973 -0.8251  1.3930  1.3862
  562MOL0     H75834  -0.181  10.080   5.734 -1.8497  1.4679  1.1343
  562MOL0     H75835  -0.425  10.085   5.759  1.0232  0.0337  1.8887
  562MOL0     H75836  -0.644  10.037   5.832 -3.7564 -0.0940  0.9371
  562MOL0     H75837  -0.615  10.031   5.672  2.2291 -2.2613  0.8915
  562MOL0     H75838  -0.834   9.878   5.663  0.3649  0.2384 -0.0925
  562MOL0     H75839  -0.843   9.882   5.830 -1.2485  0.2152 -1.3579
  562MOL0     H75840  -0.872  10.120   5.636  0.5900 -0.2829  0.1916
  562MOL0     H75841  -0.855  10.140   5.804 -0.2448  3.3224 -2.9979
  562MOL0     H75842  -1.063   9.968   5.832 -0.5732 -0.4033 -1.3739
  562MOL0     H75843  -1.091  10.139   5.802  0.5085  0.5742  0.8111
  562MOL0     H75844  -1.070   9.926   5.606 -1.9698 -1.0383  2.0395
  562MOL0     H75845  -1.104  10.097   5.555  1.8064  0.3230 -0.0158
  562MOL0     H75846  -1.287   9.945   5.750  1.6826 -1.2596 -1.0227
  562MOL0     H75847  -1.312  10.107   5.680  1.3313  0.6238 -0.4754
  562MOL0     H75848  -1.323   9.841   5.513 -0.2700  0.3976 -1.0507
  562MOL0     H75849  -1.316  10.000   5.453 -0.1194 -2.4403 -1.8435
  562MOL0     H75850  -1.543   9.945   5.452 -1.6507 -0.3368  0.8960
  562MOL0     H75851  -1.525  10.072   5.573 -1.1097  0.5410 -0.6876
  562MOL0     H75852  -0.421   9.646   5.778  3.6785 -2.0596  2.2654
  562MOL0     H75853  -0.174   9.664   5.811  0.3245  0.5459 -0.5416
  562MOL0     H75854   0.161   9.780   5.660  0.6858 -0.1105 -0.8519
  562MOL0     H75855   0.387   9.734   5.625  0.2693 -2.6970  1.2367
  562MOL0     H75856   1.365  10.262   5.468 -0.8554  0.3010 -0.8723
  562MOL0     H75857   1.226  10.320   5.286 -0.9647 -1.3216 -1.6157
  562MOL0     H75858   1.371  10.595   4.719 -1.3613  1.5465  0.7954
  562MOL0     H75859   1.211  10.710   4.606  0.8572 -1.0841 -2.3131
  562MOL0     H75860   0.778  10.761   4.608  0.6544  1.1223  1.3629
  562MOL0     H75861   0.827  10.680   4.752 -3.0398  0.6586 -1.2676
  562MOL0     H75862   0.980  10.899   4.624 -2.0498  0.6566 -1.2682
  562MOL0     H75863   1.013  10.823   4.781 -0.3765 -0.3834  1.2935
  562MOL0     H75864   0.775  11.002   4.720 -1.2216  2.3790  2.2798
  562MOL0     H75865   0.906  11.037   4.826 -1.0204  1.3706 -1.0144
  562MOL0     H75866   0.690  10.829   4.866 -0.0488  0.2965 -1.2494
  562MOL0     H75867   0.739  10.967   4.976  1.0383 -0.2368  1.5125
  562MOL0     H75868   0.966  10.656   5.133  4.6307  1.2030  0.1555
  562MOL0     H75869   0.909  10.437   4.778 -1.9224  3.0101 -0.4141
  562MOL0     H75870   1.074  10.345   4.906  1.9618 -2.1177 -0.4124
  563MOL0     O75871   6.007   7.701   6.068  0.7437 -0.3075  0.0427
  563MOL0     C75872   6.012   7.602   5.997 -0.2343 -1.3898  0.4759
  563MOL0     O75873   6.117   7.556   5.930 -0.0143  0.2489  0.2700
  563MOL0     C75874   6.244   7.602   5.945 -0.1377 -1.1612 -0.2736
  563MOL0     C75875   6.295   7.678   6.055  0.2768  0.2860  0.3936
  563MOL0     C75876   6.433   7.728   6.052  1.5282  0.1142  0.1491
  563MOL0     C75877   6.520   7.690   5.949 -0.0617  0.2768  0.1887
  563MOL0     O75878   6.656   7.722   5.944 -0.6523  0.4354 -0.7144
  563MOL0     C75879   6.756   7.632   5.901  0.3096  0.6731 -0.2612
  563MOL0     C75880   6.893   7.677   5.952 -0.5850  0.4419 -0.2805
  563MOL0     C75881   6.929   7.645   6.099  1.0801  0.1107 -0.5186
  563MOL0     C75882   7.083   7.649   6.127 -0.7650 -0.4333  0.1259
  563MOL0     C75883   7.131   7.599   6.263 -0.0858 -0.0280  0.4608
  563MOL0     C75884   7.041   7.489   6.331 -0.3169 -0.1303  0.2016
  563MOL0     C75885   7.099   7.466   6.473 -0.4307 -0.5032  0.5831
  563MOL0     C75886   7.079   7.572   6.578  0.6313 -0.9398 -0.4260
  563MOL0     N75887   6.945   7.628   6.586 -0.2653  0.5021 -0.6488
  563MOL0     C75888   6.835   7.546   6.599 -0.2658  0.8000 -0.2477
  563MOL0     C75889   6.732   7.642   6.613 -0.4655  0.1286  0.3353
  563MOL0     C75890   6.593   7.609   6.653 -0.2198  0.3245 -0.0621
  563MOL0     C75891   6.585   7.625   6.802  0.2162  0.9000 -0.4470
  563MOL0     C75892   6.444   7.572   6.848  0.4696  0.1393  1.0535
  563MOL0     C75893   6.337   7.675   6.825  0.2622 -0.1542 -0.9983
  563MOL0     O75894   6.292   7.693   6.693  0.0472  0.2276  0.1071
  563MOL0     C75895   6.172   7.763   6.680  0.2127 -0.3018 -0.6044
  563MOL0     C75896   6.115   7.760   6.551 -0.4526 -0.6867  0.2906
  563MOL0     C75897   5.999   7.828   6.523  0.2332  0.3554 -0.3754
  563MOL0     C75898   5.946   7.804   6.390 -0.1734 -0.3889 -0.7633
  563MOL0     C75899   5.942   7.914   6.623 -0.3325  0.0798  0.1493
  563MOL0     C75900   5.833   8.013   6.583 -0.1993 -0.3103  0.0230
  563MOL0     O75901   5.727   8.024   6.671 -0.1696 -0.1778 -0.0305
  563MOL0     C75902   5.597   8.049   6.618  0.4526 -0.1451 -0.4494
  563MOL0     C75903   5.500   8.096   6.715 -0.0995  0.2463  0.3199
  563MOL0     C75904   5.366   8.133   6.677 -0.4193  0.5437  0.2684
  563MOL0     C75905   5.329   8.123   6.542  0.2223  0.2565  0.6742
  563MOL0     O75906   5.203   8.150   6.499  0.4673 -0.0357 -0.7918
  563MOL0     C75907   5.096   8.109   6.585  1.3621 -0.2551  0.8742
  563MOL0     C75908   4.956   8.134   6.528  0.1863  0.0372  0.6542
  563MOL0     C75909   4.936   8.283   6.516 -0.3554 -0.0219 -0.2307
  563MOL0     C75910   4.815   8.322   6.438  0.7940 -0.4884 -0.5149
  563MOL0     C75911   4.829   8.290   6.288  0.5290 -0.4839  0.4053
  563MOL0     C75912   4.704   8.328   6.207  0.3699 -0.4173  0.7065
  563MOL0     C75913   4.700   8.270   6.072 -0.3785  0.3283 -0.4713
  563MOL0     C75914   4.681   8.114   6.071 -0.0435  0.6618 -0.4163
  563MOL0    Cl75915   4.522   8.078   6.136  0.0924  0.1711  0.4108
  563MOL0     C75916   5.423   8.076   6.446 -0.1270  0.0164 -1.1890
  563MOL0     C75917   5.561   8.053   6.480 -0.0859  0.5606  0.1161
  563MOL0     O75918   5.862   8.094   6.491  0.4679  0.6129 -0.0199
  563MOL0     C75919   5.990   7.899   6.750 -0.2520 -0.6194 -0.6252
  563MOL0     C75920   6.109   7.828   6.785  0.1778 -0.4358  0.0393
  563MOL0     N75921   6.783   7.771   6.603  0.1396  0.0617  0.0989
  563MOL0     N75922   6.908   7.762   6.592  0.9546  0.2678  1.6298
  563MOL0     C75923   6.466   7.614   5.835 -0.3612 -0.0776  0.3867
  563MOL0     C75924   6.333   7.566   5.838  0.6824 -0.1944 -0.3612
  563MOL0     C75925   5.888   7.548   5.957 -0.4814 -0.1731 -0.3302
  563MOL0     C75926   5.874   7.457   5.847  1.2715  0.0920 -0.5369
  563MOL0     C75927   5.753   7.414   5.795  0.7637 -0.0447  1.3379
  563MOL0     C75928   5.632   7.473   5.837 -0.5090 -0.3079 -0.2235
  563MOL0     O75929   5.504   7.449   5.788  0.0124 -0.4242  0.0645
  563MOL0     C75930   5.490   7.345   5.688  0.2839  0.2297 -0.2137
  563MOL0     C75931   5.530   7.381   5.546  1.3615  0.9638  0.3850
  563MOL0     C75932   5.442   7.473   5.469  0.3307  0.4379 -0.3884
  563MOL0     C75933   5.461   7.486   5.314  0.5331  0.0807 -0.3644
  563MOL0     C75934   5.447   7.362   5.229  0.0224 -0.1521 -0.4712
  563MOL0     C75935   5.432   7.274   5.145  0.2846 -0.5792  0.3473
  563MOL0     C75936   5.643   7.566   5.951 -0.5092  1.0783 -0.0708
  563MOL0     C75937   5.767   7.604   6.004 -0.5844 -1.1528 -0.2804
  563MOL0     H75938   6.224   7.705   6.131 -1.6532  2.3850 -1.9555
  563MOL0     H75939   6.461   7.793   6.134 -0.3601 -0.4285  1.2908
  563MOL0     H75940   6.730   7.534   5.943  1.7049  0.7650  0.8970
  563MOL0     H75941   6.762   7.633   5.792 -2.7576  4.2486 -0.5938
  563MOL0     H75942   6.971   7.634   5.889  0.0987 -1.6025  1.8398
  563MOL0     H75943   6.906   7.785   5.939  0.8221  0.2123 -0.8529
  563MOL0     H75944   6.872   7.714   6.162 -2.1653 -0.2023 -2.8453
  563MOL0     H75945   6.900   7.542   6.121 -2.8928  0.9539 -0.9466
  563MOL0     H75946   7.120   7.580   6.051  0.2331 -0.4839  0.6390
  563MOL0     H75947   7.135   7.744   6.111  0.9995 -1.0675  1.6581
  563MOL0     H75948   7.236   7.578   6.238 -0.1215  1.9190 -1.6150
  563MOL0     H75949   7.130   7.685   6.330 -1.3917  0.0075  0.4124
  563MOL0     H75950   6.938   7.525   6.334 -0.7897 -1.4146  0.1726
  563MOL0     H75951   7.032   7.400   6.268  3.5454 -0.4929 -0.1001
  563MOL0     H75952   7.054   7.370   6.502 -0.0126 -1.0925 -0.6345
  563MOL0     H75953   7.205   7.440   6.464 -0.6621 -2.0428  1.8243
  563MOL0     H75954   7.154   7.650   6.564  1.4792 -1.9593 -1.8374
  563MOL0     H75955   7.102   7.522   6.672 -0.0506  0.9857  0.8264
  563MOL0     H75956   6.821   7.439   6.609  0.3500  0.7567  0.2181
  563MOL0     H75957   6.534   7.684   6.600  2.2107  0.7655 -2.3581
  563MOL0     H75958   6.558   7.512   6.616 -0.4560  1.0099 -1.6907
  563MOL0     H75959   6.600   7.731   6.824 -1.5747  1.4984 -1.7782
  563MOL0     H75960   6.663   7.561   6.843 -0.2008  0.6200 -0.0718
  563MOL0     H75961   6.444   7.548   6.954 -1.8916  1.8842  1.5358
  563MOL0     H75962   6.418   7.480   6.795  0.3067  1.9531 -2.3436
  563MOL0     H75963   6.372   7.773   6.859 -2.3857  1.6436 -3.0711
  563MOL0     H75964   6.257   7.641   6.891 -0.9092 -0.5185 -2.5375
  563MOL0     H75965   6.170   7.687   6.493  2.5099  0.5283  1.3850
  563MOL0     H75966   5.842   7.836   6.383  0.2519  0.7567 -2.2734
  563MOL0     H75967   5.990   7.872   6.317  1.5867 -1.1587 -0.4861
  563MOL0     H75968   5.956   7.706   6.343 -1.2946  0.9557 -4.1053
  563MOL0     H75969   5.531   8.095   6.819 -0.6873 -4.2152  0.6521
  563MOL0     H75970   5.300   8.164   6.757 -1.3177 -3.0240  1.0908
  563MOL0     H75971   5.095   8.004   6.614  0.1840  0.2447  2.9271
  563MOL0     H75972   5.108   8.168   6.677  4.2975  1.2512 -0.3624
  563MOL0     H75973   4.953   8.081   6.432  4.1774 -2.1124  1.5188
  563MOL0     H75974   4.882   8.088   6.594 -0.8330 -2.0364 -1.7639
  563MOL0     H75975   5.022   8.337   6.475  0.2453 -0.3833  0.5301
  563MOL0     H75976   4.928   8.324   6.617  2.6862  1.7600 -0.5894
  563MOL0     H75977   4.731   8.277   6.491  1.4002 -2.9667 -1.4715
  563MOL0     H75978   4.795   8.429   6.449 -1.7483 -1.0541  1.1997
  563MOL0     H75979   4.846   8.182   6.280 -0.0606 -0.7782  2.5064
  563MOL0     H75980   4.908   8.351   6.243  0.1583  1.4473  2.1817
  563MOL0     H75981   4.617   8.300   6.267  0.8869 -2.4905  0.5398
  563MOL0     H75982   4.702   8.437   6.193 -0.7833 -0.1406  2.5585
  563MOL0     H75983   4.800   8.292   6.032 -0.1415  2.0705  0.9302
  563MOL0     H75984   4.625   8.323   6.013  0.1552  2.5655  0.7392
  563MOL0     H75985   4.765   8.065   6.120  0.0814 -0.0448 -1.3197
  563MOL0     H75986   4.682   8.094   5.964 -2.1699 -1.2528 -0.1620
  563MOL0     H75987   5.395   8.075   6.341  1.7617  1.1981 -1.7675
  563MOL0     H75988   5.634   8.024   6.404 -2.3223 -0.2337 -1.8373
  563MOL0     H75989   5.933   7.948   6.828  0.6976 -0.1374 -0.2172
  563MOL0     H75990   6.146   7.827   6.887 -0.8653 -2.1517  0.4494
  563MOL0     H75991   6.536   7.590   5.756  1.9186  2.4872  1.4335
  563MOL0     H75992   6.300   7.504   5.755 -1.6671  2.4545 -1.5893
  563MOL0     H75993   5.966   7.407   5.818  0.8429  1.1044 -4.1248
  563MOL0     H75994   5.755   7.344   5.713  3.4717  0.1034  1.1743
  563MOL0     H75995   5.541   7.256   5.726  1.3605  0.8063 -0.2683
  563MOL0     H75996   5.383   7.331   5.670 -0.1387  3.3734 -0.7209
  563MOL0     H75997   5.522   7.284   5.497  3.2050  2.9047 -4.4174
  563MOL0     H75998   5.630   7.424   5.536  0.2894  3.0091 -3.0582
  563MOL0     H75999   5.432   7.567   5.523 -0.7654  0.2062 -0.1553
  563MOL0     H76000   5.344   7.427   5.483  1.5833 -2.6180 -0.7280
  563MOL0     H76001   5.554   7.536   5.287  1.4709 -1.0598  0.6802
  563MOL0     H76002   5.378   7.552   5.287 -0.4718 -0.3272  1.5710
  563MOL0     H76003   5.416   7.197   5.072  2.4002 -0.9791  0.2247
  563MOL0     H76004   5.560   7.611   6.004 -0.7689 -0.5836  0.9847
  563MOL0     H76005   5.760   7.676   6.084 -1.1039 -1.9401  0.4020
  564MOL0     O76006   9.532   7.546   2.192  0.4316  0.7041 -0.5637
  564MOL0     C76007   9.568   7.491   2.295 -0.0400 -0.0350  0.0805
  564MOL0     O76008   9.482   7.469   2.403 -0.0199  0.4941  0.7087
  564MOL0     C76009   9.345   7.467   2.384 -0.1815 -0.2480  0.7527
  564MOL0     C76010   9.276   7.405   2.271  0.2827 -0.1049 -0.6066
  564MOL0     C76011   9.138   7.415   2.256 -0.7200  0.5030  0.1670
  564MOL0     C76012   9.061   7.470   2.362  0.2384 -0.7727  0.8765
  564MOL0     O76013   8.923   7.496   2.349  0.2478  0.4416  0.0548
  564MOL0     C76014   8.845   7.405   2.428 -0.7952 -1.1003 -0.2732
  564MOL0     C76015   8.702   7.463   2.432  0.1633  0.4627  0.5615
  564MOL0     C76016   8.590   7.356   2.422 -1.0552 -0.6724  0.9350
  564MOL0     C76017   8.561   7.300   2.273  0.1351  0.1331 -1.3798
  564MOL0     C76018   8.422   7.249   2.256  0.1733  0.0834  0.3168
  564MOL0     C76019   8.378   7.136   2.345 -0.5947  0.5531  0.6869
  564MOL0     C76020   8.291   7.182   2.468  0.1075 -0.0634  0.5505
  564MOL0     C76021   8.228   7.060   2.533 -0.3117 -0.6310 -0.7755
  564MOL0     N76022   8.086   7.093   2.552  0.4561 -0.1949  0.4336
  564MOL0     C76023   7.992   7.099   2.449 -0.0076  0.1889 -0.5646
  564MOL0     C76024   7.868   7.126   2.499  0.7736  0.3511  0.3782
  564MOL0     C76025   7.737   7.126   2.424 -0.5360  0.1030  0.1894
  564MOL0     C76026   7.704   6.983   2.373 -0.0906 -0.0973  0.7748
  564MOL0     C76027   7.661   6.873   2.482 -0.0529 -0.0718  0.1524
  564MOL0     C76028   7.669   6.731   2.407  0.8809  0.6241  0.0593
  564MOL0     O76029   7.615   6.625   2.495  0.0969  0.2247  0.0800
  564MOL0     C76030   7.483   6.625   2.520 -0.2733 -0.3071 -0.0459
  564MOL0     C76031   7.442   6.563   2.640 -0.2970  0.2218 -0.3073
  564MOL0     C76032   7.307   6.553   2.671 -0.1156 -0.6340 -0.3707
  564MOL0     C76033   7.287   6.464   2.793 -0.3365 -0.8930 -0.1241
  564MOL0     C76034   7.207   6.613   2.600 -0.7924  0.6035  0.1639
  564MOL0     C76035   7.072   6.623   2.656 -0.5777  0.5897 -0.3278
  564MOL0     O76036   6.968   6.633   2.573 -0.6252 -0.0734  0.3080
  564MOL0     C76037   6.839   6.639   2.623 -0.5798  0.4991  0.7367
  564MOL0     C76038   6.762   6.518   2.601  0.0961 -0.4526 -0.2387
  564MOL0     C76039   6.623   6.522   2.629 -0.2561  0.2382  0.5304
  564MOL0     C76040   6.558   6.632   2.689 -0.3349 -0.4550 -0.2609
  564MOL0     O76041   6.425   6.665   2.696  0.5020  0.3510  0.1024
  564MOL0     C76042   6.328   6.560   2.699 -0.3117 -0.5747  1.0827
  564MOL0     C76043   6.203   6.621   2.748 -0.3648  0.5910 -1.0429
  564MOL0     C76044   6.146   6.739   2.667 -0.5822 -0.2325  0.5048
  564MOL0     C76045   6.001   6.746   2.716  0.3955 -0.2044  1.0544
  564MOL0     C76046   5.930   6.846   2.624 -0.0849  1.0479  0.0563
  564MOL0     C76047   5.788   6.871   2.674 -0.3888 -1.2126 -0.2345
  564MOL0     C76048   5.722   6.982   2.591  0.0765 -0.7216 -0.4796
  564MOL0     C76049   5.594   7.026   2.663  0.1857 -0.4754  0.4916
  564MOL0    Cl76050   5.506   6.882   2.686 -0.6413 -0.4680  0.2369
  564MOL0     C76051   6.641   6.742   2.713 -0.9328 -0.0750 -0.2862
  564MOL0     C76052   6.779   6.748   2.678 -0.0573 -0.2419  0.4422
  564MOL0     O76053   7.064   6.631   2.784 -0.5249 -0.1895  0.9176
  564MOL0     C76054   7.250   6.684   2.480  0.1404 -0.1900  0.0456
  564MOL0     C76055   7.382   6.677   2.434  0.4673 -0.2541 -0.6184
  564MOL0     N76056   7.894   7.134   2.636 -0.4500 -0.3707 -0.3422
  564MOL0     N76057   8.024   7.120   2.659 -0.0707  0.2069 -0.7528
  564MOL0     C76058   9.130   7.523   2.476 -0.0863 -0.0738  0.9881
  564MOL0     C76059   9.271   7.517   2.482  0.3210  0.0306 -0.6339
  564MOL0     C76060   9.711   7.501   2.324 -1.7610 -0.0147 -0.0440
  564MOL0     C76061   9.758   7.479   2.456 -0.7033  0.4672  0.9995
  564MOL0     C76062   9.896   7.489   2.492  0.1991  0.0801 -1.0200
  564MOL0     C76063   9.987   7.522   2.394 -0.6525 -0.8559  0.3692
  564MOL0     O76064  10.126   7.548   2.416 -0.3387  0.4914 -0.4553
  564MOL0     C76065  10.181   7.550   2.548 -1.0171  0.0980  0.6236
  564MOL0     C76066  10.308   7.630   2.557 -0.5678  0.0638  0.4794
  564MOL0     C76067  10.425   7.570   2.470 -0.5696 -0.3992 -0.3833
  564MOL0     C76068  10.557   7.630   2.517  0.0385 -0.4761 -0.1273
  564MOL0     C76069  10.580   7.765   2.477  0.8196 -0.6373  0.1518
  564MOL0     C76070  10.598   7.886   2.450  0.6716 -0.1305 -0.7035
  564MOL0     C76071   9.949   7.552   2.263 -0.5434 -0.0679 -0.4556
  564MOL0     C76072   9.805   7.538   2.228  0.3912 -0.0387 -0.0572
  564MOL0     H76073   9.333   7.351   2.196  1.3870 -0.3822  0.3952
  564MOL0     H76074   9.078   7.366   2.180  0.1130  0.1392 -0.2666
  564MOL0     H76075   8.848   7.302   2.391  0.0199 -1.2736  0.2616
  564MOL0     H76076   8.876   7.411   2.533 -1.0554 -1.1350 -0.1943
  564MOL0     H76077   8.687   7.522   2.522  0.6686 -0.0823  1.0109
  564MOL0     H76078   8.684   7.533   2.350  3.2440 -0.3379 -0.9236
  564MOL0     H76079   8.614   7.276   2.492  3.0605 -1.2601 -0.8747
  564MOL0     H76080   8.493   7.403   2.442 -0.6815  1.0565 -0.9145
  564MOL0     H76081   8.568   7.386   2.206  0.0364 -0.3433 -2.0043
  564MOL0     H76082   8.630   7.220   2.247 -0.1334 -0.8648  0.7397
  564MOL0     H76083   8.346   7.327   2.274  0.9024  1.3052 -1.5000
  564MOL0     H76084   8.405   7.212   2.154  1.4182 -0.6607  0.3697
  564MOL0     H76085   8.327   7.063   2.282  0.6670  1.5412 -1.6098
  564MOL0     H76086   8.462   7.077   2.384 -0.0610  1.1833  0.5249
  564MOL0     H76087   8.349   7.231   2.547  0.3102 -0.0390  0.3883
  564MOL0     H76088   8.215   7.250   2.427 -0.2228 -1.3292 -1.0208
  564MOL0     H76089   8.271   7.031   2.629  0.9013  2.7538 -0.1592
  564MOL0     H76090   8.231   6.972   2.469 -0.9134  0.7982 -2.8643
  564MOL0     H76091   8.030   7.084   2.348  5.3175 -1.8821  1.3858
  564MOL0     H76092   7.657   7.162   2.489 -0.3171 -0.3581  0.7290
  564MOL0     H76093   7.740   7.192   2.337 -2.5821 -0.7483 -0.6000
  564MOL0     H76094   7.786   6.922   2.336 -2.4507 -3.0549  0.0030
  564MOL0     H76095   7.625   6.992   2.298 -1.3577 -2.0895  1.7753
  564MOL0     H76096   7.555   6.886   2.508 -0.6469 -1.7535 -1.2615
  564MOL0     H76097   7.727   6.879   2.569  1.7435  0.2814 -1.1829
  564MOL0     H76098   7.773   6.702   2.388  1.8483  1.6576  3.1429
  564MOL0     H76099   7.620   6.737   2.310 -1.6300  1.8273  1.3211
  564MOL0     H76100   7.516   6.527   2.711 -0.9147  0.9670  0.7410
  564MOL0     H76101   7.284   6.527   2.883  1.3779 -0.6783 -0.1789
  564MOL0     H76102   7.198   6.402   2.801  0.5318 -2.1471  0.0993
  564MOL0     H76103   7.363   6.386   2.802 -1.7081 -2.0367  3.3500
  564MOL0     H76104   6.796   6.427   2.554 -3.6991 -1.4751 -1.3678
  564MOL0     H76105   6.572   6.431   2.600  1.0907 -0.8795  1.5177
  564MOL0     H76106   6.320   6.525   2.596  1.5943 -0.9948  1.0297
  564MOL0     H76107   6.366   6.485   2.768  1.0335 -1.6321 -0.7101
  564MOL0     H76108   6.135   6.536   2.765  2.0637 -1.2607  0.0799
  564MOL0     H76109   6.221   6.671   2.844 -0.4024  0.8847 -1.1878
  564MOL0     H76110   6.150   6.715   2.560 -2.1752  1.9711 -0.1198
  564MOL0     H76111   6.200   6.832   2.686 -0.1039 -0.3342 -0.3150
  564MOL0     H76112   5.966   6.643   2.720  2.0599 -0.8700 -0.4340
  564MOL0     H76113   5.999   6.788   2.817  2.2224  2.6198  0.0586
  564MOL0     H76114   5.919   6.815   2.520 -0.5023 -1.0854  0.6930
  564MOL0     H76115   5.981   6.942   2.618  0.6329  0.8554  2.3483
  564MOL0     H76116   5.736   6.776   2.666 -2.5218 -0.2712  1.5526
  564MOL0     H76117   5.796   6.901   2.779 -1.2822  0.3797 -0.5918
  564MOL0     H76118   5.698   6.930   2.498  0.9805  0.4362 -1.4061
  564MOL0     H76119   5.786   7.071   2.586 -0.0732 -0.6792 -3.1199
  564MOL0     H76120   5.538   7.092   2.596  0.7515 -2.5422 -2.1436
  564MOL0     H76121   5.617   7.064   2.763  1.4577 -0.1645  0.1075
  564MOL0     H76122   6.585   6.830   2.744 -1.6258 -0.3573 -0.7391
  564MOL0     H76123   6.831   6.841   2.695 -0.5174 -0.0436  0.7793
  564MOL0     H76124   7.183   6.740   2.416  1.3893  1.3761  0.0417
  564MOL0     H76125   7.408   6.739   2.349  1.1198  2.2756  1.3201
  564MOL0     H76126   9.076   7.569   2.559  0.3670  0.5037  0.9711
  564MOL0     H76127   9.326   7.553   2.569 -0.5624  0.2220 -0.1431
  564MOL0     H76128   9.689   7.443   2.532  1.9017 -2.5893  2.1516
  564MOL0     H76129   9.938   7.449   2.584 -1.2225 -2.1970 -1.2970
  564MOL0     H76130  10.106   7.600   2.610 -0.7537 -1.0841  1.9318
  564MOL0     H76131  10.199   7.447   2.580 -1.2815  0.8535  3.4857
  564MOL0     H76132  10.324   7.630   2.665 -1.5967 -1.8952  0.6887
  564MOL0     H76133  10.284   7.728   2.516  0.1248 -0.4628 -1.3024
  564MOL0     H76134  10.411   7.573   2.361  2.1757 -0.2921 -0.8104
  564MOL0     H76135  10.427   7.465   2.502  1.7013 -0.5505 -0.8052
  564MOL0     H76136  10.633   7.584   2.454 -0.6837 -1.0734 -0.5746
  564MOL0     H76137  10.581   7.617   2.623  1.4198 -1.6046 -0.5453
  564MOL0     H76138  10.605   7.992   2.432 -0.8398  0.2491  0.7039
  564MOL0     H76139  10.022   7.587   2.191 -1.7679  1.4779 -0.9964
  564MOL0     H76140   9.784   7.559   2.124 -0.4613 -0.6930 -0.0243
  565MOL0     O76141  10.912   0.588   5.908  0.0811  0.2013  0.4041
  565MOL0     C76142  10.997   0.622   5.986  0.4368  0.3662  1.1056
  565MOL0     O76143  10.971   0.669   6.112  0.2924 -0.3036 -0.3941
  565MOL0     C76144  10.852   0.637   6.168  0.7133  0.2316  1.1627
  565MOL0     C76145  10.782   0.510   6.163  0.6188 -0.3829 -0.5285
  565MOL0     C76146  10.658   0.496   6.222 -0.1276  0.0692 -0.5392
  565MOL0     C76147  10.596   0.607   6.274 -0.0938  0.1900  1.0314
  565MOL0     O76148  10.472   0.592   6.321 -0.0802  0.4014  0.2865
  565MOL0     C76149  10.367   0.664   6.260  0.2421 -0.1472 -0.5470
  565MOL0     C76150  10.258   0.714   6.366 -0.1148 -0.1430  0.0821
  565MOL0     C76151  10.317   0.817   6.465 -0.5318 -0.2713 -1.1807
  565MOL0     C76152  10.211   0.901   6.535  0.6088  0.2909 -0.6602
  565MOL0     C76153  10.283   0.998   6.630 -0.0114 -0.1812 -0.1387
  565MOL0     C76154  10.186   1.093   6.708  0.6879  0.0486  0.3607
  565MOL0     C76155  10.245   1.149   6.837 -0.1724  0.2539  0.6812
  565MOL0     C76156  10.152   1.196   6.944 -0.2009  0.4808 -0.0265
  565MOL0     N76157  10.095   1.325   6.908 -0.3556  0.2743 -0.2881
  565MOL0     C76158  10.117   1.438   6.986  0.2510 -0.2588 -0.1252
  565MOL0     C76159  10.078   1.543   6.909  0.4584  0.0954  0.0724
  565MOL0     C76160  10.087   1.687   6.959  0.2842 -0.4430 -0.4199
  565MOL0     C76161  10.124   1.764   6.836  0.6895  0.5098  0.4100
  565MOL0     C76162  10.099   1.909   6.871  1.0873 -0.3908 -0.0321
  565MOL0     C76163  10.198   1.994   6.790  0.0072  0.3850  0.1268
  565MOL0     O76164  10.147   2.021   6.655  0.5293 -0.5982 -0.0600
  565MOL0     C76165  10.233   2.091   6.578 -0.2191  0.3723  0.0404
  565MOL0     C76166  10.209   2.056   6.443 -0.1702 -0.2101 -0.2055
  565MOL0     C76167  10.295   2.104   6.350  0.5493 -0.3448  0.3166
  565MOL0     C76168  10.274   2.052   6.209 -0.4902 -0.2040 -0.4838
  565MOL0     C76169  10.402   2.196   6.389  0.1464  0.0048 -0.3160
  565MOL0     C76170  10.498   2.239   6.291  0.4476  0.3945 -0.1575
  565MOL0     O76171  10.548   2.367   6.311  0.2125  0.1180 -0.1393
  565MOL0     C76172  10.616   2.432   6.216  0.0969  0.5575  1.6472
  565MOL0     C76173  10.605   2.410   6.076  0.3236  0.2257 -0.4285
  565MOL0     C76174  10.679   2.483   5.985  0.8409 -0.2376 -0.1081
  565MOL0     C76175  10.777   2.575   6.031 -0.2620  0.5907  1.2226
  565MOL0     O76176  10.841   2.648   5.934  0.1664 -0.6012  0.0017
  565MOL0     C76177  10.939   2.741   5.980  0.2810 -0.1009 -0.6331
  565MOL0     C76178  10.982   2.851   5.886 -0.4117 -0.7161 -0.4172
  565MOL0     C76179  11.063   2.802   5.771 -0.4484 -0.8893  1.2147
  565MOL0     C76180  11.109   2.915   5.687 -0.4398  0.5934  0.4427
  565MOL0     C76181  11.175   2.854   5.562  0.4033  0.4407 -0.5503
  565MOL0     C76182  11.215   2.970   5.465 -0.0933  1.7495  0.1284
  565MOL0     C76183  11.309   2.917   5.354  0.2615 -0.0072 -0.5626
  565MOL0     C76184  11.459   2.938   5.391  0.1924 -0.7917 -0.0670
  565MOL0    Cl76185  11.491   3.112   5.379  0.0963  0.5112 -0.7174
  565MOL0     C76186  10.792   2.596   6.170 -0.6112  0.7152 -0.1517
  565MOL0     C76187  10.715   2.515   6.256 -0.1578 -0.4216  0.6984
  565MOL0     O76188  10.545   2.158   6.214 -0.4680  0.0540  0.7788
  565MOL0     C76189  10.419   2.221   6.523 -0.3765  0.3597 -0.7364
  565MOL0     C76190  10.341   2.169   6.620  0.7252 -1.0808 -0.3950
  565MOL0     N76191  10.034   1.489   6.792 -0.1651  1.2425 -0.2520
  565MOL0     N76192  10.032   1.359   6.791 -0.1222  0.0881 -0.3738
  565MOL0     C76193  10.655   0.726   6.266 -0.0042 -0.3829 -0.9898
  565MOL0     C76194  10.779   0.743   6.213  0.0499  0.1703  0.1976
  565MOL0     C76195  11.133   0.630   5.939  0.3527  0.3181 -0.3433
  565MOL0     C76196  11.231   0.703   6.008 -0.8813 -0.5649 -0.4912
  565MOL0     C76197  11.369   0.707   5.970 -0.5922  0.5255 -0.1414
  565MOL0     C76198  11.400   0.650   5.846 -0.5652  0.2607  0.7784
  565MOL0     O76199  11.532   0.654   5.789  0.5457 -0.2585 -0.3542
  565MOL0     C76200  11.574   0.790   5.764  0.3083 -0.1659 -0.3342
  565MOL0     C76201  11.654   0.782   5.631  0.0286 -0.6298 -0.5064
  565MOL0     C76202  11.721   0.915   5.588  0.7180  0.2467  0.2029
  565MOL0     C76203  11.761   0.926   5.439  0.8106  0.0260 -0.4088
  565MOL0     C76204  11.867   0.835   5.399  0.1053 -0.0826  0.0596
  565MOL0     C76205  11.949   0.752   5.366  0.5109  0.0100 -0.0263
  565MOL0     C76206  11.309   0.572   5.780  0.1455  0.9177  0.1622
  565MOL0     C76207  11.181   0.560   5.828 -0.4023 -0.4206 -0.5894
  565MOL0     H76208  10.845   0.426   6.134  4.0249  2.1333 -1.0985
  565MOL0     H76209  10.608   0.400   6.228 -0.9273  0.5199  0.2843
  565MOL0     H76210  10.402   0.734   6.184  2.6924  1.9059  2.2287
  565MOL0     H76211  10.317   0.587   6.202 -0.8720  0.0337  0.1366
  565MOL0     H76212  10.172   0.754   6.311 -3.6433 -2.0157  3.7140
  565MOL0     H76213  10.216   0.632   6.425 -1.9406  1.6712  1.4483
  565MOL0     H76214  10.358   0.765   6.553  0.0788  2.5736  0.3539
  565MOL0     H76215  10.386   0.892   6.426  0.2757  1.3051  2.7432
  565MOL0     H76216  10.151   0.966   6.471  1.6166 -0.6185 -2.6212
  565MOL0     H76217  10.150   0.826   6.586  2.0994 -0.9582 -0.6196
  565MOL0     H76218  10.344   0.948   6.706  2.2665 -1.6184 -2.7437
  565MOL0     H76219  10.344   1.057   6.562  2.4811 -1.6453  0.7180
  565MOL0     H76220  10.123   1.161   6.650 -1.0201 -2.1283 -0.4983
  565MOL0     H76221  10.112   1.022   6.747  0.4307 -0.2212 -0.5980
  565MOL0     H76222  10.294   1.057   6.869  0.8294 -0.5685 -2.7441
  565MOL0     H76223  10.329   1.216   6.815 -0.0210  0.1379  0.8995
  565MOL0     H76224  10.213   1.203   7.035 -0.8268  1.7321  0.3133
  565MOL0     H76225  10.069   1.127   6.961 -0.9948  0.7843 -2.3799
  565MOL0     H76226  10.156   1.450   7.086 -2.1601 -0.1345  0.8750
  565MOL0     H76227   9.987   1.717   6.991  0.3783 -0.8247  0.2466
  565MOL0     H76228  10.153   1.703   7.044  2.5548 -1.3864 -1.9000
  565MOL0     H76229  10.070   1.748   6.742 -0.1811 -2.0215  1.2872
  565MOL0     H76230  10.229   1.740   6.817  0.5386  0.1653  0.0033
  565MOL0     H76231  10.107   1.938   6.975 -3.9094 -0.2917  0.5864
  565MOL0     H76232  10.004   1.947   6.831  1.6847  2.4824  1.0944
  565MOL0     H76233  10.289   1.934   6.778  0.1600  0.4356  0.9785
  565MOL0     H76234  10.220   2.092   6.833  1.7358  0.3364 -0.5963
  565MOL0     H76235  10.128   1.987   6.419  0.6553 -0.7173 -1.6364
  565MOL0     H76236  10.173   2.013   6.192 -0.2671 -2.6510  2.8681
  565MOL0     H76237  10.280   2.138   6.142 -1.2384  1.6084  1.6470
  565MOL0     H76238  10.347   1.975   6.182 -0.0367 -0.2907  0.9122
  565MOL0     H76239  10.516   2.357   6.044  1.8902 -2.1713 -1.0492
  565MOL0     H76240  10.654   2.478   5.879 -0.7098  0.8218  0.1850
  565MOL0     H76241  10.893   2.799   6.060  2.6575 -1.8579  2.2226
  565MOL0     H76242  11.026   2.686   6.019  2.2548  2.4231 -1.2257
  565MOL0     H76243  10.898   2.902   5.837 -1.4998 -1.3426  0.7217
  565MOL0     H76244  11.046   2.921   5.940  1.0107 -0.6882 -2.0681
  565MOL0     H76245  10.995   2.743   5.708 -0.8741  0.1733  0.6566
  565MOL0     H76246  11.147   2.735   5.793  0.2411  0.2289  2.0526
  565MOL0     H76247  11.034   2.994   5.678  1.0680  2.1917  1.3963
  565MOL0     H76248  11.187   2.957   5.751  2.1863 -3.1195  0.0392
  565MOL0     H76249  11.116   2.779   5.509  1.8515 -0.8383 -0.4025
  565MOL0     H76250  11.269   2.805   5.588 -0.1800 -0.6277 -0.4302
  565MOL0     H76251  11.126   3.015   5.420  0.3080  1.3418 -1.0984
  565MOL0     H76252  11.265   3.054   5.514 -0.1108  0.4131  2.6090
  565MOL0     H76253  11.289   2.980   5.267 -1.2842  2.6434  1.5711
  565MOL0     H76254  11.290   2.810   5.344 -2.8928 -0.2512  4.4985
  565MOL0     H76255  11.525   2.889   5.320 -0.0055 -0.4897 -0.4690
  565MOL0     H76256  11.484   2.909   5.493  2.3588  0.0896 -0.2831
  565MOL0     H76257  10.883   2.642   6.206 -0.3955  0.3211 -0.1850
  565MOL0     H76258  10.745   2.512   6.360 -3.6090 -0.8688  1.7919
  565MOL0     H76259  10.498   2.287   6.557 -0.3320  0.2467 -0.6184
  565MOL0     H76260  10.349   2.196   6.725 -3.1028  0.1633 -0.2964
  565MOL0     H76261  10.598   0.810   6.303 -0.4396 -0.9795 -0.2890
  565MOL0     H76262  10.825   0.841   6.200  3.5038 -1.3979 -0.7664
  565MOL0     H76263  11.207   0.752   6.102  0.9983 -1.0780  0.3083
  565MOL0     H76264  11.451   0.748   6.027  1.4871 -0.0599 -2.5590
  565MOL0     H76265  11.494   0.864   5.759  2.2926  2.0290 -1.2200
  565MOL0     H76266  11.635   0.833   5.843 -2.4544  1.9543  0.8121
  565MOL0     H76267  11.598   0.749   5.544 -0.5566  2.5409 -1.4871
  565MOL0     H76268  11.740   0.715   5.643  0.7623 -0.3808 -3.6234
  565MOL0     H76269  11.813   0.940   5.642  0.7419  2.0797 -0.6022
  565MOL0     H76270  11.649   0.997   5.603  0.2267 -0.2787  0.7659
  565MOL0     H76271  11.785   1.030   5.418  4.5508 -0.6601 -0.2391
  565MOL0     H76272  11.672   0.907   5.378 -0.7275  2.1199  1.0200
  565MOL0     H76273  12.021   0.675   5.344  0.1932 -0.2775 -0.0618
  565MOL0     H76274  11.338   0.515   5.692  1.5426  0.2226  1.0278
  565MOL0     H76275  11.113   0.507   5.762  1.5496 -1.0717 -2.1887
  566MOL0     O76276   1.963   1.430   2.200 -0.0723 -0.6069 -0.5394
  566MOL0     C76277   1.853   1.411   2.150  1.1810  0.3333 -0.2544
  566MOL0     O76278   1.823   1.335   2.036 -0.0277 -0.0242  0.6775
  566MOL0     C76279   1.931   1.302   1.954  0.2786 -0.0979  0.7416
  566MOL0     C76280   2.023   1.402   1.916  0.1112  0.4630  0.5441
  566MOL0     C76281   2.120   1.374   1.818  0.2868  0.2287 -0.2406
  566MOL0     C76282   2.133   1.249   1.757  0.7129  0.0295  0.0203
  566MOL0     O76283   2.227   1.224   1.661  0.0434 -0.0875  0.3484
  566MOL0     C76284   2.328   1.324   1.637  0.0696  0.1292  0.4409
  566MOL0     C76285   2.413   1.278   1.519  0.6266  0.6082  0.2228
  566MOL0     C76286   2.335   1.248   1.390  0.4769  0.2097  0.2600
  566MOL0     C76287   2.434   1.243   1.270  0.3521 -0.0164 -0.4236
  566MOL0     C76288   2.371   1.190   1.145  0.4336 -0.6053  0.2056
  566MOL0     C76289   2.263   1.292   1.085  0.3327  0.8717 -0.1406
  566MOL0     C76290   2.212   1.233   0.958  0.8212  0.4083 -0.0219
  566MOL0     C76291   2.122   1.321   0.887  0.0316 -0.0304  0.5187
  566MOL0     N76292   2.056   1.244   0.775  0.2802 -0.1146 -0.1156
  566MOL0     C76293   1.955   1.149   0.795 -0.1726 -0.3756 -0.1822
  566MOL0     C76294   1.933   1.099   0.670 -0.0573 -0.1368 -0.2144
  566MOL0     C76295   1.837   0.991   0.626 -0.3336 -0.0088 -0.3969
  566MOL0     C76296   1.697   1.048   0.599  0.0667  1.0071 -0.1516
  566MOL0     C76297   1.601   0.921   0.599 -0.6611  0.7201 -0.4404
  566MOL0     C76298   1.452   0.967   0.578 -0.6101 -0.0121  0.4664
  566MOL0     O76299   1.394   1.037   0.694 -0.5554 -0.0089  0.1531
  566MOL0     C76300   1.260   1.053   0.695  0.3783  0.1888  0.1625
  566MOL0     C76301   1.206   1.147   0.788 -0.9539 -0.6187  0.3398
  566MOL0     C76302   1.063   1.148   0.826 -0.3578  0.2236 -0.1020
  566MOL0     C76303   1.027   1.228   0.954 -0.7116 -0.4376  0.4047
  566MOL0     C76304   0.968   1.076   0.749 -1.3092  0.9098 -0.1251
  566MOL0     C76305   0.817   1.068   0.769 -0.0847  1.1324 -0.4776
  566MOL0     O76306   0.750   0.974   0.688  0.3794  0.7023 -0.6537
  566MOL0     C76307   0.615   0.968   0.709 -0.2600  0.1114  1.7628
  566MOL0     C76308   0.564   0.841   0.684  0.5842  0.3006  0.5469
  566MOL0     C76309   0.424   0.819   0.694  1.0325  0.7806  0.6756
  566MOL0     C76310   0.334   0.927   0.707 -0.2735 -0.1762  0.0344
  566MOL0     O76311   0.198   0.908   0.711  0.6822  0.0767  0.4744
  566MOL0     C76312   0.154   0.787   0.641 -0.3472 -0.4130 -0.5780
  566MOL0     C76313   0.010   0.788   0.580 -0.4791 -0.0985 -0.1880
  566MOL0     C76314  -0.018   0.881   0.463 -0.5401  0.6428 -0.2664
  566MOL0     C76315  -0.138   0.851   0.385 -0.8192 -0.4215  0.2825
  566MOL0     C76316  -0.257   0.856   0.479 -0.0514 -0.1940 -0.3009
  566MOL0     C76317  -0.384   0.851   0.385 -0.0664  0.2584 -0.4212
  566MOL0     C76318  -0.519   0.862   0.460  0.1915  0.0963  0.8111
  566MOL0     C76319  -0.524   0.959   0.580 -0.2084  0.0523 -0.3283
  566MOL0    Cl76320  -0.700   0.962   0.625 -0.1553  0.0749  0.4381
  566MOL0     C76321   0.390   1.054   0.719  0.5730  0.1951  0.0391
  566MOL0     C76322   0.526   1.073   0.721 -0.5090  0.2663 -0.1274
  566MOL0     O76323   0.768   1.144   0.854 -0.4878 -0.6204  0.5437
  566MOL0     C76324   1.030   0.998   0.649  0.2883  0.4958  0.3997
  566MOL0     C76325   1.168   0.978   0.623  0.5912  0.3499  0.8414
  566MOL0     N76326   2.017   1.151   0.575  0.0905  0.4113 -0.1611
  566MOL0     N76327   2.096   1.233   0.643  0.4762 -0.5994  0.7172
  566MOL0     C76328   2.040   1.159   1.793 -0.1195 -0.4093 -0.4116
  566MOL0     C76329   1.945   1.179   1.896  0.2481 -0.3496  0.1794
  566MOL0     C76330   1.740   1.447   2.242  0.3689  0.1568  0.4441
  566MOL0     C76331   1.612   1.380   2.249  0.4803 -1.3144  0.0334
  566MOL0     C76332   1.513   1.404   2.355  1.0847  0.4259  0.1823
  566MOL0     C76333   1.532   1.505   2.451 -0.0290  0.3963  0.6559
  566MOL0     O76334   1.434   1.523   2.540  0.9737 -0.4986 -0.2872
  566MOL0     C76335   1.442   1.648   2.616 -0.5311  0.5250  0.6091
  566MOL0     C76336   1.321   1.670   2.709  0.0346  0.0284  0.1812
  566MOL0     C76337   1.194   1.701   2.639  0.0409  0.0929  0.0860
  566MOL0     C76338   1.063   1.665   2.711  0.5072  0.3272  0.1514
  566MOL0     C76339   1.043   1.743   2.826 -0.0619 -0.6212  0.1668
  566MOL0     C76340   1.049   1.822   2.921  0.4133  0.0175 -0.6053
  566MOL0     C76341   1.654   1.570   2.436  0.5808 -0.0214 -0.3147
  566MOL0     C76342   1.752   1.543   2.340 -0.2304 -0.0696 -0.4269
  566MOL0     H76343   2.031   1.503   1.953 -1.0051 -0.3005  3.1364
  566MOL0     H76344   2.170   1.463   1.781 -1.9066  1.0252 -1.4532
  566MOL0     H76345   2.288   1.421   1.606  2.4090  1.1106  0.3258
  566MOL0     H76346   2.388   1.325   1.728  1.5639 -1.1119 -0.4702
  566MOL0     H76347   2.492   1.353   1.511  0.9256  0.2654 -0.0715
  566MOL0     H76348   2.445   1.176   1.542 -4.3282 -1.5409 -0.9412
  566MOL0     H76349   2.278   1.155   1.400  1.1725 -0.1536  0.8583
  566MOL0     H76350   2.258   1.325   1.373 -1.6648 -1.2359  2.7064
  566MOL0     H76351   2.479   1.340   1.250  0.7158 -0.3755 -1.3999
  566MOL0     H76352   2.516   1.175   1.295  0.1901 -2.0170 -4.4658
  566MOL0     H76353   2.448   1.170   1.070  0.6289  1.0731 -0.0861
  566MOL0     H76354   2.318   1.097   1.167  1.6571 -0.6295  3.6250
  566MOL0     H76355   2.174   1.312   1.145  0.6633  1.0560  0.2988
  566MOL0     H76356   2.310   1.389   1.066 -1.8334  2.2341  1.0428
  566MOL0     H76357   2.296   1.209   0.891  0.4772 -0.9903  0.0119
  566MOL0     H76358   2.171   1.132   0.970 -1.0325  0.8771 -1.7837
  566MOL0     H76359   2.181   1.402   0.844  2.7515 -1.7793  0.6870
  566MOL0     H76360   2.047   1.370   0.950 -1.1762  1.3081 -1.8236
  566MOL0     H76361   1.907   1.122   0.889  1.7670  0.9512  1.2558
  566MOL0     H76362   1.874   0.944   0.534  0.6994  2.3719 -1.2649
  566MOL0     H76363   1.844   0.918   0.707  0.6690  2.1451  1.5394
  566MOL0     H76364   1.694   1.092   0.499 -1.0963 -0.9555 -1.0527
  566MOL0     H76365   1.679   1.129   0.670 -1.1993  1.1437 -0.6114
  566MOL0     H76366   1.589   0.866   0.693 -0.7052  1.2003 -0.1609
  566MOL0     H76367   1.636   0.855   0.519 -1.2468  0.8965 -0.8460
  566MOL0     H76368   1.397   0.880   0.542 -0.4742  1.2221 -3.1124
  566MOL0     H76369   1.460   1.027   0.487  1.5035 -2.6730 -1.2596
  566MOL0     H76370   1.280   1.204   0.842 -0.1224  1.2025 -2.4852
  566MOL0     H76371   1.114   1.279   0.996  1.7340 -1.0246 -3.4471
  566MOL0     H76372   0.965   1.313   0.922  2.7426  2.1685  0.0114
  566MOL0     H76373   0.986   1.174   1.039 -2.0534  2.6076  1.8308
  566MOL0     H76374   0.634   0.759   0.674 -0.0908 -0.2864  0.5871
  566MOL0     H76375   0.391   0.716   0.687 -2.0718  1.7853 -1.9852
  566MOL0     H76376   0.214   0.774   0.549 -0.0002 -1.0042 -0.2754
  566MOL0     H76377   0.174   0.701   0.706  2.1044 -0.2571 -1.0314
  566MOL0     H76378  -0.012   0.684   0.556  1.2933 -0.4039 -0.6323
  566MOL0     H76379  -0.053   0.827   0.660 -0.2912 -0.2899  0.0537
  566MOL0     H76380   0.071   0.866   0.401  1.6424  0.3517  2.7150
  566MOL0     H76381  -0.005   0.988   0.482  0.4142  0.4976 -0.0813
  566MOL0     H76382  -0.157   0.924   0.305  0.1350  1.3558  1.6124
  566MOL0     H76383  -0.128   0.760   0.325  2.4965  0.7886 -1.2531
  566MOL0     H76384  -0.258   0.955   0.527 -1.8141 -1.4278  2.4593
  566MOL0     H76385  -0.270   0.779   0.555 -0.1287  0.5875  0.4953
  566MOL0     H76386  -0.379   0.937   0.318 -1.0759  1.6884  1.2566
  566MOL0     H76387  -0.387   0.756   0.331  1.2716  0.9812 -1.8421
  566MOL0     H76388  -0.546   0.766   0.503  0.5393 -0.4776 -0.2168
  566MOL0     H76389  -0.593   0.897   0.388 -0.0677 -0.8152  0.6232
  566MOL0     H76390  -0.489   1.059   0.551 -1.5059 -0.1528 -2.9800
  566MOL0     H76391  -0.465   0.915   0.661  1.0313  0.7177 -0.8418
  566MOL0     H76392   0.318   1.136   0.716  1.0391  0.5738 -1.6188
  566MOL0     H76393   0.572   1.171   0.736 -1.0663  0.1125  3.4622
  566MOL0     H76394   0.970   0.930   0.589  1.7348 -0.7662  0.3283
  566MOL0     H76395   1.186   0.889   0.562  1.8431 -0.8551  2.8646
  566MOL0     H76396   2.052   1.065   1.740 -1.4819 -0.7025 -0.2406
  566MOL0     H76397   1.874   1.101   1.922 -2.0305  2.1012  1.8218
  566MOL0     H76398   1.592   1.295   2.185  0.6875 -1.9776  0.8452
  566MOL0     H76399   1.433   1.332   2.363  1.5073 -0.1641 -0.7733
  566MOL0     H76400   1.532   1.633   2.675  0.5999 -0.7155 -1.3612
  566MOL0     H76401   1.449   1.737   2.552 -3.5232 -0.5788 -1.4745
  566MOL0     H76402   1.337   1.758   2.772 -1.1890  0.9936 -0.7974
  566MOL0     H76403   1.305   1.581   2.771 -6.3626  0.7705  0.2620
  566MOL0     H76404   1.198   1.639   2.549  1.1313  0.8280 -0.3907
  566MOL0     H76405   1.207   1.805   2.610  1.3602  0.1792  0.8968
  566MOL0     H76406   1.067   1.557   2.729 -0.6457 -0.1515 -2.1865
  566MOL0     H76407   0.975   1.682   2.649 -0.2075 -1.1649  0.7022
  566MOL0     H76408   1.048   1.897   2.997  1.0708 -0.0905 -0.4853
  566MOL0     H76409   1.693   1.643   2.507  1.0323  0.7519 -1.3379
  566MOL0     H76410   1.841   1.604   2.354 -3.0083  3.6676  4.0565
  567MOL0     O76411   8.561   2.613  10.821  0.0185  0.6092  0.3687
  567MOL0     C76412   8.622   2.696  10.757 -0.3339 -0.7405 -0.8703
  567MOL0     O76413   8.579   2.820  10.739 -0.8869 -0.7116  0.7841
  567MOL0     C76414   8.443   2.848  10.757 -0.3632  0.0181  0.3882
  567MOL0     C76415   8.364   2.812  10.867 -0.8576 -0.5412  0.0011
  567MOL0     C76416   8.235   2.854  10.878  0.4963  0.1157  0.1229
  567MOL0     C76417   8.185   2.926  10.772 -0.2513 -0.0855  0.8699
  567MOL0     O76418   8.058   2.985  10.776  0.0822  0.1378  0.4409
  567MOL0     C76419   7.999   2.994  10.906  0.2262 -0.6550  0.0416
  567MOL0     C76420   7.904   2.877  10.922 -0.4816  0.7113  0.2590
  567MOL0     C76421   7.803   2.895  11.031  0.3937 -0.3139 -1.0431
  567MOL0     C76422   7.686   2.793  11.034  0.0274  0.0333 -0.7988
  567MOL0     C76423   7.575   2.864  11.111  0.5752 -0.3239  0.8341
  567MOL0     C76424   7.438   2.786  11.118 -0.0549 -0.5572 -0.5589
  567MOL0     C76425   7.334   2.882  11.160 -0.5417 -0.1445  0.2849
  567MOL0     C76426   7.194   2.822  11.190  0.2612 -0.1156 -0.1079
  567MOL0     N76427   7.103   2.924  11.227  0.1476 -0.4350  0.3305
  567MOL0     C76428   7.021   2.906  11.330 -0.1357  0.0483 -0.2033
  567MOL0     C76429   6.930   3.011  11.317  0.1908  0.3765 -1.7137
  567MOL0     C76430   6.806   3.027  11.407 -1.0066  0.2738 -0.3254
  567MOL0     C76431   6.691   3.092  11.340  0.1583 -0.7277 -0.9226
  567MOL0     C76432   6.589   2.989  11.303  0.6936  0.4334  0.5170
  567MOL0     C76433   6.625   2.901  11.182  0.3802 -0.0012  0.7963
  567MOL0     O76434   6.617   2.977  11.062  0.3086 -1.1359  0.2746
  567MOL0     C76435   6.504   3.005  10.991 -0.2665  0.0159  0.1584
  567MOL0     C76436   6.523   3.063  10.861 -0.0874  0.4682 -0.8859
  567MOL0     C76437   6.413   3.078  10.780  0.1705 -0.3579  0.8483
  567MOL0     C76438   6.452   3.136  10.642 -0.3672  0.1236 -0.0723
  567MOL0     C76439   6.282   3.042  10.818 -0.0721 -0.5400  0.0180
  567MOL0     C76440   6.159   3.059  10.742 -0.3666 -0.6198 -0.3601
  567MOL0     O76441   6.055   3.008  10.804  0.1538 -0.2383  0.9408
  567MOL0     C76442   5.934   3.049  10.761 -0.3227 -0.7777 -0.2711
  567MOL0     C76443   5.845   2.939  10.732 -0.4626  0.2200  0.7804
  567MOL0     C76444   5.707   2.971  10.712 -0.4680 -0.1665  0.5260
  567MOL0     C76445   5.667   3.102  10.701  1.0640  0.0642 -0.0457
  567MOL0     O76446   5.532   3.117  10.674  0.0710  0.3435  0.3153
  567MOL0     C76447   5.462   3.228  10.736 -0.4195 -0.0750 -0.2560
  567MOL0     C76448   5.317   3.181  10.761  0.9468 -0.0331  0.0435
  567MOL0     C76449   5.232   3.293  10.812 -0.8695 -0.6949 -0.2526
  567MOL0     C76450   5.091   3.239  10.844 -0.2475 -1.0338 -0.4123
  567MOL0     C76451   4.990   3.356  10.876 -0.0323  0.4646 -0.8484
  567MOL0     C76452   4.958   3.445  10.753  0.9864 -0.3862 -0.3803
  567MOL0     C76453   4.829   3.529  10.779  0.0857 -0.8488  0.1884
  567MOL0     C76454   4.793   3.630  10.669 -0.2025 -0.3020  0.4511
  567MOL0    Cl76455   4.631   3.707  10.721 -0.2804  0.0022 -0.1744
  567MOL0     C76456   5.752   3.205  10.720 -1.4941 -0.3429  0.4402
  567MOL0     C76457   5.889   3.183  10.754 -0.7911 -0.1214  0.3849
  567MOL0     O76458   6.163   3.101  10.629  0.0562  0.7639  0.9659
  567MOL0     C76459   6.272   2.990  10.948  0.5113  0.1341  0.3032
  567MOL0     C76460   6.371   2.975  11.038  0.1581 -1.1017  0.3430
  567MOL0     N76461   6.968   3.092  11.212 -0.0782 -0.3121 -0.0287
  567MOL0     N76462   7.059   3.024  11.157 -0.0506  0.6564  0.8916
  567MOL0     C76463   8.254   2.947  10.649  0.2048 -0.8386 -0.0439
  567MOL0     C76464   8.388   2.912  10.646 -0.7352 -0.2608  0.4769
  567MOL0     C76465   8.762   2.652  10.716 -0.5810  0.0287 -0.0420
  567MOL0     C76466   8.808   2.524  10.753  0.2416  0.0111  0.1429
  567MOL0     C76467   8.940   2.498  10.706  0.3275  0.5568 -0.0838
  567MOL0     C76468   9.020   2.577  10.626  0.3453  0.1739  0.1043
  567MOL0     O76469   9.149   2.550  10.580 -0.3211  0.2088 -0.5999
  567MOL0     C76470   9.240   2.663  10.583 -0.4203 -0.0239  0.1915
  567MOL0     C76471   9.387   2.634  10.590  0.5242  0.4076  1.2257
  567MOL0     C76472   9.431   2.567  10.722  0.6394 -0.8301  0.6767
  567MOL0     C76473   9.555   2.481  10.713  0.7315  0.2252 -0.0310
  567MOL0     C76474   9.677   2.539  10.767  0.0480  0.2607  0.5584
  567MOL0     C76475   9.779   2.592  10.809 -0.2452  0.8612 -0.5552
  567MOL0     C76476   8.963   2.705  10.592 -0.0468 -0.1981  0.2288
  567MOL0     C76477   8.836   2.738  10.640 -0.8745  0.6467 -0.6608
  567MOL0     H76478   8.407   2.756  10.949  0.1920 -3.1421 -2.1807
  567MOL0     H76479   8.175   2.811  10.957 -0.4077 -0.0407 -0.6463
  567MOL0     H76480   8.080   3.000  10.980 -0.1986 -1.8822  0.6438
  567MOL0     H76481   7.952   3.093  10.906  1.0627 -0.2511  0.4167
  567MOL0     H76482   7.861   2.855  10.824  0.3476 -2.5026  0.5269
  567MOL0     H76483   7.965   2.787  10.933  0.1756  0.6284 -2.9988
  567MOL0     H76484   7.857   2.874  11.123 -1.0241  0.9726  0.1284
  567MOL0     H76485   7.766   2.997  11.023 -1.3997 -0.9609 -1.5474
  567MOL0     H76486   7.649   2.774  10.933  2.9838 -2.6554 -1.5359
  567MOL0     H76487   7.719   2.703  11.087 -2.9080  0.0197  1.2978
  567MOL0     H76488   7.609   2.890  11.211 -1.2512 -0.8754  1.6439
  567MOL0     H76489   7.547   2.956  11.059 -2.4150 -1.0171  1.0401
  567MOL0     H76490   7.421   2.757  11.014  0.8077  0.3166 -0.9646
  567MOL0     H76491   7.453   2.701  11.186  1.7461  0.5104  0.4772
  567MOL0     H76492   7.356   2.946  11.246 -0.9343  0.6268 -0.1875
  567MOL0     H76493   7.318   2.959  11.085 -0.9160  0.0603  0.5688
  567MOL0     H76494   7.192   2.749  11.271 -0.9629 -0.2402 -0.2332
  567MOL0     H76495   7.146   2.774  11.104 -2.9680  1.4958  0.6522
  567MOL0     H76496   7.023   2.839  11.416 -0.3875  2.8200  2.1269
  567MOL0     H76497   6.787   2.924  11.440  1.5469 -0.3068 -0.4585
  567MOL0     H76498   6.836   3.084  11.496 -1.6290 -0.6742  0.5177
  567MOL0     H76499   6.709   3.154  11.252  4.0495  0.3997  0.4847
  567MOL0     H76500   6.654   3.170  11.406 -1.2697 -2.2417  0.1450
  567MOL0     H76501   6.491   3.038  11.295  1.6023  2.4121  1.0351
  567MOL0     H76502   6.564   2.924  11.388  2.9746  1.5854  2.1949
  567MOL0     H76503   6.553   2.820  11.168  1.2052 -0.8417  1.2905
  567MOL0     H76504   6.730   2.870  11.186  0.6972  1.1080  1.4134
  567MOL0     H76505   6.626   3.074  10.830  0.3296  0.6644  0.4914
  567MOL0     H76506   6.443   3.067  10.558 -2.0639  0.1455  0.0496
  567MOL0     H76507   6.377   3.213  10.621  0.9811  1.4798 -0.0555
  567MOL0     H76508   6.549   3.185  10.651  0.3467 -1.0592 -1.0819
  567MOL0     H76509   5.876   2.835  10.737 -2.4245 -0.4284  0.5586
  567MOL0     H76510   5.635   2.893  10.692  0.0675 -0.6813  0.5608
  567MOL0     H76511   5.510   3.259  10.830 -0.9944  1.9164 -0.5621
  567MOL0     H76512   5.465   3.324  10.684  0.9939 -0.4416 -0.8947
  567MOL0     H76513   5.270   3.131  10.676 -0.3143 -2.9439  2.3103
  567MOL0     H76514   5.320   3.106  10.841 -1.2166 -0.7274 -0.4612
  567MOL0     H76515   5.222   3.378  10.744 -5.2715 -0.0440  0.8674
  567MOL0     H76516   5.274   3.345  10.898  2.0708 -1.8183 -0.8964
  567MOL0     H76517   5.055   3.178  10.761  1.0989 -1.4488 -0.7165
  567MOL0     H76518   5.082   3.182  10.938 -0.2823  1.2108  1.0234
  567MOL0     H76519   5.023   3.412  10.964 -0.8707 -1.8760  1.0791
  567MOL0     H76520   4.896   3.308  10.907  2.7273 -3.8551  2.1022
  567MOL0     H76521   5.036   3.520  10.740  1.3246 -0.8251 -0.9197
  567MOL0     H76522   4.946   3.390  10.659  0.9702  0.5249 -0.9246
  567MOL0     H76523   4.849   3.583  10.872  4.6610  1.3484 -1.7264
  567MOL0     H76524   4.736   3.473  10.788  0.4850 -1.7595 -1.0577
  567MOL0     H76525   4.783   3.595  10.566 -0.5952  1.8281 -0.2804
  567MOL0     H76526   4.877   3.698  10.652 -1.7638  0.9071 -3.3419
  567MOL0     H76527   5.712   3.306  10.723  0.2732  0.5241 -1.8793
  567MOL0     H76528   5.953   3.264  10.786 -0.5882 -0.2791  0.3852
  567MOL0     H76529   6.175   2.954  10.979 -0.0996 -1.0732 -2.6396
  567MOL0     H76530   6.342   2.930  11.132 -0.5718 -0.6351  0.3476
  567MOL0     H76531   8.206   2.996  10.565  0.9145  0.1310  0.1085
  567MOL0     H76532   8.452   2.942  10.564 -0.0750 -1.8169  0.3842
  567MOL0     H76533   8.755   2.472  10.832 -1.2636  2.1130  0.6169
  567MOL0     H76534   8.988   2.405  10.733 -0.2608 -0.3602 -2.0379
  567MOL0     H76535   9.214   2.720  10.493 -2.3699 -0.8718  0.1605
  567MOL0     H76536   9.218   2.727  10.668 -1.2410 -0.8616  0.6310
  567MOL0     H76537   9.444   2.724  10.569  1.9348 -0.6902  0.1539
  567MOL0     H76538   9.408   2.567  10.506 -0.5132  0.2452  1.0806
  567MOL0     H76539   9.352   2.504  10.764  1.3826 -1.9419  0.4234
  567MOL0     H76540   9.447   2.652  10.789 -0.8149 -1.4279  1.8599
  567MOL0     H76541   9.568   2.434  10.615 -0.8538 -0.2973 -0.0309
  567MOL0     H76542   9.522   2.401  10.780 -0.5847 -0.3934 -1.3557
  567MOL0     H76543   9.873   2.633  10.839 -1.1541  2.4713  0.1865
  567MOL0     H76544   9.012   2.782  10.535 -0.9125 -0.4861 -0.9433
  567MOL0     H76545   8.803   2.841  10.629 -2.6045 -0.0457 -2.5739
  568MOL0     O76546   0.299   9.503   4.175 -0.5457  0.2748  0.0975
  568MOL0     C76547   0.388   9.460   4.244 -0.0706 -0.8040  0.0029
  568MOL0     O76548   0.377   9.416   4.374 -0.7618  0.4889 -0.6022
  568MOL0     C76549   0.251   9.398   4.422 -0.5114  0.5790  0.6160
  568MOL0     C76550   0.179   9.507   4.466  0.2143  1.0202 -0.5863
  568MOL0     C76551   0.066   9.484   4.537  0.0076 -0.7224 -0.1097
  568MOL0     C76552   0.023   9.357   4.583 -0.9518  0.9405  0.3314
  568MOL0     O76553  -0.099   9.340   4.637  0.4110  0.1171  0.5800
  568MOL0     C76554  -0.136   9.435   4.743  0.4293  0.1543 -0.0971
  568MOL0     C76555  -0.269   9.389   4.797  0.0420  0.3868 -0.5980
  568MOL0     C76556  -0.329   9.476   4.903  0.5937  0.2185 -0.2648
  568MOL0     C76557  -0.462   9.423   4.945 -0.2779  0.5600  0.4064
  568MOL0     C76558  -0.500   9.485   5.079  0.3954  0.8326 -0.8536
  568MOL0     C76559  -0.652   9.447   5.113 -0.6472  0.2625  0.7396
  568MOL0     C76560  -0.735   9.545   5.040  0.4791 -0.0596 -0.5467
  568MOL0     C76561  -0.882   9.492   5.041  0.3867  0.1668  0.2987
  568MOL0     N76562  -0.908   9.373   4.950 -0.3345 -0.4000  0.1534
  568MOL0     C76563  -1.000   9.377   4.857 -0.1495 -0.4638 -0.1201
  568MOL0     C76564  -1.008   9.247   4.818 -0.2298  0.4570 -0.5914
  568MOL0     C76565  -1.109   9.186   4.719  0.9943 -0.2022  0.5617
  568MOL0     C76566  -1.236   9.130   4.772  0.1331 -0.4998  0.1149
  568MOL0     C76567  -1.330   9.230   4.832 -0.5726 -0.1087  0.1977
  568MOL0     C76568  -1.472   9.171   4.843  0.1210  0.1760 -0.2260
  568MOL0     O76569  -1.536   9.198   4.716  0.2186  0.9780 -0.2811
  568MOL0     C76570  -1.675   9.206   4.713  0.3571 -0.5379  0.3272
  568MOL0     C76571  -1.736   9.245   4.593 -0.6514  0.8095 -0.0353
  568MOL0     C76572  -1.875   9.240   4.574 -0.1524  0.7361 -0.8478
  568MOL0     C76573  -1.930   9.299   4.449  0.2835  0.0419  0.8706
  568MOL0     C76574  -1.963   9.189   4.678 -0.1462  0.8113  0.7177
  568MOL0     C76575  -2.121   9.182   4.674 -0.2937 -0.6481  0.8122
  568MOL0     O76576  -2.178   9.188   4.556 -0.6919  0.8551  0.4977
  568MOL0     C76577  -2.306   9.141   4.534 -0.5431  0.6178  1.1924
  568MOL0     C76578  -2.415   9.141   4.619  1.0606  0.1611 -0.6515
  568MOL0     C76579  -2.537   9.105   4.576 -0.1269 -0.4231  0.9339
  568MOL0     C76580  -2.561   9.073   4.440  0.7761  0.0422  0.7962
  568MOL0     O76581  -2.683   9.030   4.391 -0.3440 -0.6123  0.0283
  568MOL0     C76582  -2.800   9.003   4.464  1.1631  0.2377 -0.5649
  568MOL0     C76583  -2.872   8.895   4.380  0.6326  0.1069 -0.2510
  568MOL0     C76584  -3.013   8.871   4.434 -0.7335 -0.9691 -0.2217
  568MOL0     C76585  -3.129   8.969   4.387 -0.0340  1.0219 -0.5564
  568MOL0     C76586  -3.262   8.964   4.479 -0.1167  0.4193  1.0194
  568MOL0     C76587  -3.329   8.819   4.471  0.3436 -0.4388 -0.7569
  568MOL0     C76588  -3.464   8.799   4.537  0.8529 -0.0271 -0.5155
  568MOL0     C76589  -3.551   8.922   4.547  1.2672 -0.3200  0.6925
  568MOL0    Cl76590  -3.674   8.928   4.408 -0.2110 -0.3789  0.1657
  568MOL0     C76591  -2.448   9.067   4.357  0.5150 -0.6398 -0.0936
  568MOL0     C76592  -2.318   9.097   4.402  0.2008 -0.6143 -0.0341
  568MOL0     O76593  -2.175   9.172   4.780 -0.5694  0.2858  0.8477
  568MOL0     C76594  -1.898   9.148   4.795  0.1269  0.2632 -0.5760
  568MOL0     C76595  -1.761   9.156   4.810  0.4132  0.4378 -0.3763
  568MOL0     N76596  -0.928   9.167   4.903  0.2526 -0.5521  0.1974
  568MOL0     N76597  -0.860   9.248   4.969  0.6389 -0.6934  0.2794
  568MOL0     C76598   0.100   9.245   4.539  0.2941  0.5979 -0.4397
  568MOL0     C76599   0.212   9.267   4.459 -0.5988 -0.7725  0.3163
  568MOL0     C76600   0.529   9.468   4.197 -0.7408  1.0820  0.9493
  568MOL0     C76601   0.548   9.473   4.053  0.4116 -0.3695  0.1974
  568MOL0     C76602   0.680   9.455   4.004 -0.2065 -0.0482  0.7599
  568MOL0     C76603   0.788   9.440   4.100 -0.0640 -0.9635  0.2284
  568MOL0     O76604   0.921   9.420   4.074 -0.3999 -0.6153 -0.1508
  568MOL0     C76605   0.991   9.487   3.968 -0.1609  0.0389 -0.1602
  568MOL0     C76606   1.142   9.465   3.993 -0.0203  1.1078 -0.0623
  568MOL0     C76607   1.177   9.542   4.120 -0.3495  0.7111 -0.0876
  568MOL0     C76608   1.324   9.554   4.154 -0.2422  0.1770 -0.0858
  568MOL0     C76609   1.394   9.602   4.030  0.5855  0.1194  0.3478
  568MOL0     C76610   1.451   9.645   3.930  0.3934 -0.0358  0.2592
  568MOL0     C76611   0.768   9.442   4.235 -0.4253  0.1375 -0.3662
  568MOL0     C76612   0.637   9.445   4.284  0.0942 -0.1872 -0.3451
  568MOL0     H76613   0.222   9.605   4.445  1.9717  0.0494 -1.6804
  568MOL0     H76614   0.007   9.573   4.555  0.3582 -0.5031 -0.0288
  568MOL0     H76615  -0.061   9.438   4.822 -1.4287  0.0473  1.7519
  568MOL0     H76616  -0.154   9.540   4.718 -2.3517  0.0044  0.8753
  568MOL0     H76617  -0.343   9.376   4.717 -0.0110 -5.2064 -0.0092
  568MOL0     H76618  -0.259   9.287   4.835 -3.7603  0.2488  0.5035
  568MOL0     H76619  -0.258   9.467   4.986 -1.7088 -0.2581  1.7677
  568MOL0     H76620  -0.347   9.578   4.869  0.8661  0.2222 -0.3969
  568MOL0     H76621  -0.533   9.441   4.863  0.4374 -3.4409 -1.3210
  568MOL0     H76622  -0.463   9.314   4.943  0.4490  0.5298 -2.8351
  568MOL0     H76623  -0.440   9.437   5.156 -0.0357  3.3411  1.2075
  568MOL0     H76624  -0.479   9.592   5.091 -3.5900  1.8308 -1.2675
  568MOL0     H76625  -0.667   9.340   5.094  1.5380  0.0608 -0.1796
  568MOL0     H76626  -0.672   9.464   5.219 -2.3634  2.1555  0.1696
  568MOL0     H76627  -0.744   9.637   5.100 -0.9758 -0.4826 -0.0703
  568MOL0     H76628  -0.698   9.565   4.939 -2.7424 -1.9423 -2.2540
  568MOL0     H76629  -0.953   9.574   5.026 -0.0357 -0.3715 -0.7902
  568MOL0     H76630  -0.896   9.446   5.139 -2.7184  0.1722 -0.0503
  568MOL0     H76631  -1.050   9.461   4.810 -0.6155 -1.0528 -0.6968
  568MOL0     H76632  -1.133   9.255   4.638  3.3521 -0.1789 -0.1919
  568MOL0     H76633  -1.057   9.107   4.664  1.1556  1.8733 -2.5083
  568MOL0     H76634  -1.209   9.049   4.841  1.4018  0.1730  0.4353
  568MOL0     H76635  -1.288   9.076   4.693 -0.2064 -0.6036  0.4074
  568MOL0     H76636  -1.330   9.315   4.763  0.5084 -1.1192 -1.0848
  568MOL0     H76637  -1.305   9.279   4.927  1.7332  0.0123 -0.4279
  568MOL0     H76638  -1.525   9.216   4.927  0.0067 -0.3384 -0.0197
  568MOL0     H76639  -1.457   9.066   4.869 -0.3228  0.2158  0.1954
  568MOL0     H76640  -1.675   9.286   4.513 -1.1505  2.0736  0.2066
  568MOL0     H76641  -2.016   9.366   4.465  2.1141  3.2320 -1.4100
  568MOL0     H76642  -1.856   9.361   4.398  1.7933 -1.5341  1.0416
  568MOL0     H76643  -1.966   9.227   4.375 -1.2936  1.7535 -0.1165
  568MOL0     H76644  -2.415   9.177   4.721 -0.9906 -2.2831  0.3399
  568MOL0     H76645  -2.616   9.103   4.651 -1.3841 -0.8040 -0.3583
  568MOL0     H76646  -2.783   8.947   4.557  3.3743 -1.9405 -2.1318
  568MOL0     H76647  -2.857   9.096   4.474 -1.2290 -1.2461  0.3635
  568MOL0     H76648  -2.888   8.922   4.275 -1.0756 -2.7762 -0.8350
  568MOL0     H76649  -2.820   8.798   4.383  1.4995  0.5710  3.2156
  568MOL0     H76650  -3.008   8.876   4.543  0.2966  0.6634 -0.3164
  568MOL0     H76651  -3.049   8.773   4.401  1.1593 -2.0276  0.6895
  568MOL0     H76652  -3.087   9.070   4.389 -0.4267  1.1878  0.9309
  568MOL0     H76653  -3.153   8.960   4.281  0.8583  2.3059 -0.8910
  568MOL0     H76654  -3.331   9.023   4.417  1.5269 -1.2950 -2.7646
  568MOL0     H76655  -3.231   9.013   4.571  1.6302  2.2672 -0.4625
  568MOL0     H76656  -3.330   8.778   4.370  1.0495 -0.8178 -0.6166
  568MOL0     H76657  -3.270   8.758   4.541  0.3126 -0.0830 -0.4165
  568MOL0     H76658  -3.452   8.747   4.632  2.9415  2.2697  0.5881
  568MOL0     H76659  -3.516   8.727   4.473  1.9298 -0.7818 -0.5596
  568MOL0     H76660  -3.498   9.018   4.546  1.0646 -0.1425 -2.3135
  568MOL0     H76661  -3.600   8.909   4.644 -0.8587 -2.1390 -0.5416
  568MOL0     H76662  -2.474   9.024   4.261  1.3300 -0.1702 -0.5358
  568MOL0     H76663  -2.234   9.110   4.335  0.0964  3.4268  0.3366
  568MOL0     H76664  -1.961   9.104   4.871 -3.0897  0.9349 -2.6194
  568MOL0     H76665  -1.706   9.109   4.891  1.7692  1.9496 -0.3711
  568MOL0     H76666   0.077   9.143   4.568  1.1204  0.7008  0.6421
  568MOL0     H76667   0.282   9.193   4.423  0.3246  0.1462  0.1569
  568MOL0     H76668   0.475   9.482   3.974 -1.0112 -2.3526  1.2002
  568MOL0     H76669   0.707   9.449   3.898 -3.6885 -0.3038 -0.2359
  568MOL0     H76670   0.966   9.449   3.868  2.9446  0.2643 -1.1544
  568MOL0     H76671   0.955   9.589   3.987  0.0584  0.3394 -1.2392
  568MOL0     H76672   1.198   9.506   3.908  0.9072  0.9827  0.4711
  568MOL0     H76673   1.161   9.357   3.999 -1.8448  0.6922 -0.8676
  568MOL0     H76674   1.110   9.518   4.204 -3.7147  0.1217 -2.7237
  568MOL0     H76675   1.148   9.644   4.093 -1.1607  0.3862 -0.4864
  568MOL0     H76676   1.368   9.456   4.172  2.6585  0.7297 -3.2569
  568MOL0     H76677   1.352   9.608   4.245  3.7524 -0.6542 -0.6357
  568MOL0     H76678   1.513   9.678   3.849  2.4379  1.1855  2.2114
  568MOL0     H76679   0.862   9.427   4.287  1.3055  0.7595 -3.0941
  568MOL0     H76680   0.624   9.421   4.389 -3.2093  4.0517  0.4923
  569MOL0     O76681   0.656   3.766   6.479 -0.1517 -0.0603 -0.3061
  569MOL0     C76682   0.731   3.675   6.456 -0.0646 -0.8771  0.0549
  569MOL0     O76683   0.712   3.568   6.362  0.0797 -0.1528  0.0897
  569MOL0     C76684   0.595   3.573   6.291  0.0089  0.0813  0.3807
  569MOL0     C76685   0.468   3.606   6.337 -0.0882 -0.2763  0.7853
  569MOL0     C76686   0.352   3.609   6.262 -0.2396 -0.6842  0.0786
  569MOL0     C76687   0.374   3.579   6.129  0.4968 -0.8065  0.3660
  569MOL0     O76688   0.261   3.601   6.043  0.0454 -0.1561 -0.9802
  569MOL0     C76689   0.286   3.656   5.912 -0.1624 -0.4061 -0.4701
  569MOL0     C76690   0.168   3.719   5.847 -0.2937 -0.0301  0.7195
  569MOL0     C76691   0.044   3.638   5.822  0.3546 -0.2479 -0.2985
  569MOL0     C76692  -0.093   3.716   5.814 -0.4584 -0.3662 -0.2697
  569MOL0     C76693  -0.220   3.624   5.824 -0.4430 -0.0658  0.8096
  569MOL0     C76694  -0.355   3.696   5.813  0.2022  0.7816  0.8451
  569MOL0     C76695  -0.470   3.602   5.811  0.4732 -0.0058  0.1129
  569MOL0     C76696  -0.501   3.544   5.952  0.1690  0.6076 -0.4241
  569MOL0     N76697  -0.611   3.446   5.957  0.2295  0.2147  0.7951
  569MOL0     C76698  -0.708   3.443   5.858 -2.4067 -1.1642 -0.2100
  569MOL0     C76699  -0.773   3.333   5.890  0.6873  0.2279 -0.3930
  569MOL0     C76700  -0.892   3.280   5.811 -0.0767 -0.3850  0.0164
  569MOL0     C76701  -1.019   3.344   5.858 -0.4675  0.8803 -0.2111
  569MOL0     C76702  -1.062   3.261   5.989  0.5689  0.2041  0.8376
  569MOL0     C76703  -1.207   3.276   6.023 -0.7482 -0.0945 -0.7074
  569MOL0     O76704  -1.290   3.239   5.918  0.2618  0.5944 -0.0691
  569MOL0     C76705  -1.418   3.264   5.927  0.3892 -0.6715 -0.4424
  569MOL0     C76706  -1.499   3.244   5.817 -0.5505  0.1562  0.2240
  569MOL0     C76707  -1.633   3.277   5.814 -0.6926 -0.2669  0.6443
  569MOL0     C76708  -1.690   3.252   5.670  0.5079  0.2164  0.2334
  569MOL0     C76709  -1.700   3.333   5.929  0.4372 -0.6646 -0.5671
  569MOL0     C76710  -1.838   3.377   5.938 -0.0302  0.2340 -0.7316
  569MOL0     O76711  -1.891   3.362   6.063  0.0554 -0.5215  0.4635
  569MOL0     C76712  -2.010   3.431   6.083  0.2018 -0.2542  0.3091
  569MOL0     C76713  -2.021   3.543   6.156 -0.7390 -0.3289  0.4359
  569MOL0     C76714  -2.144   3.599   6.192  0.5229 -0.9905  0.9728
  569MOL0     C76715  -2.264   3.535   6.141 -1.2087 -0.4539 -0.0224
  569MOL0     O76716  -2.378   3.603   6.161  0.7088 -0.0903 -0.4426
  569MOL0     C76717  -2.477   3.601   6.058 -0.7279 -0.5178  0.3170
  569MOL0     C76718  -2.584   3.498   6.106 -1.0009  0.0490 -0.2666
  569MOL0     C76719  -2.693   3.470   5.998 -0.2809  0.1296  0.3718
  569MOL0     C76720  -2.819   3.551   6.013  0.2559  0.3723 -0.4152
  569MOL0     C76721  -2.924   3.544   5.905  0.5268 -0.6551 -0.6955
  569MOL0     C76722  -2.980   3.404   5.886  0.6434  0.8351  0.5419
  569MOL0     C76723  -3.111   3.409   5.811 -0.1139  0.2957  0.4359
  569MOL0     C76724  -3.231   3.433   5.907  0.1365  0.0132 -0.1344
  569MOL0    Cl76725  -3.376   3.501   5.821  0.1816 -0.0855 -0.0351
  569MOL0     C76726  -2.257   3.426   6.059 -0.0405 -0.2542 -0.8977
  569MOL0     C76727  -2.132   3.379   6.025 -0.8053 -0.3436 -0.4819
  569MOL0     O76728  -1.894   3.420   5.833  0.0790 -0.2912  0.1776
  569MOL0     C76729  -1.614   3.352   6.041 -0.1427  0.6255 -0.3791
  569MOL0     C76730  -1.477   3.318   6.043  0.4407  0.9301 -0.0443
  569MOL0     N76731  -0.740   3.279   6.014  0.4236 -0.7273 -0.2569
  569MOL0     N76732  -0.634   3.349   6.054 -0.4766 -0.0914  0.3712
  569MOL0     C76733   0.508   3.546   6.077  1.0418 -0.1858  0.4892
  569MOL0     C76734   0.610   3.547   6.167 -0.4920 -0.4315 -0.0753
  569MOL0     C76735   0.871   3.671   6.527 -0.2666 -0.0233  0.7610
  569MOL0     C76736   0.971   3.605   6.454  0.1706 -0.5483  0.1934
  569MOL0     C76737   1.096   3.588   6.504  0.0325 -0.2026  0.6273
  569MOL0     C76738   1.130   3.645   6.616 -0.4570  0.4339 -0.1314
  569MOL0     O76739   1.264   3.659   6.647 -0.4832 -0.0905  0.3889
  569MOL0     C76740   1.306   3.582   6.771  0.2836 -0.6875  1.0454
  569MOL0     C76741   1.304   3.661   6.900  1.1595  0.7223 -0.0519
  569MOL0     C76742   1.369   3.800   6.869  0.2518  0.1029 -1.1380
  569MOL0     C76743   1.385   3.870   7.003  0.1236 -0.1269  0.2206
  569MOL0     C76744   1.521   3.923   7.019  0.5774 -1.0393  0.6135
  569MOL0     C76745   1.624   3.975   7.050  0.0254  0.8315  0.4390
  569MOL0     C76746   1.038   3.719   6.694  0.4819  0.1148  0.6216
  569MOL0     C76747   0.906   3.735   6.643 -0.3340  0.3001  0.3253
  569MOL0     H76748   0.464   3.633   6.442  5.6805 -1.4266  1.6259
  569MOL0     H76749   0.262   3.640   6.315  1.0446  1.9922  0.9187
  569MOL0     H76750   0.368   3.727   5.930 -1.8133  1.9072 -1.5986
  569MOL0     H76751   0.314   3.570   5.850 -1.2591 -1.6644  0.6979
  569MOL0     H76752   0.141   3.807   5.905 -0.2373  1.8665 -1.9573
  569MOL0     H76753   0.207   3.753   5.751  0.7486 -0.7187  0.8917
  569MOL0     H76754   0.055   3.571   5.736 -0.5425  0.2393 -0.8101
  569MOL0     H76755   0.024   3.578   5.911  1.4025  0.2173  0.2604
  569MOL0     H76756  -0.092   3.781   5.901  0.7090 -1.6076  0.6858
  569MOL0     H76757  -0.091   3.786   5.730  6.1954  0.7975  0.3404
  569MOL0     H76758  -0.217   3.546   5.747  0.9575 -1.4562  2.1918
  569MOL0     H76759  -0.214   3.570   5.919  0.2410 -1.8305 -0.1967
  569MOL0     H76760  -0.353   3.772   5.891  0.2599 -1.5600  3.2552
  569MOL0     H76761  -0.364   3.737   5.712  1.0552 -4.2216 -1.5712
  569MOL0     H76762  -0.556   3.657   5.773  0.0917  1.3668  2.7500
  569MOL0     H76763  -0.449   3.521   5.741 -1.8414  0.8457 -1.7062
  569MOL0     H76764  -0.518   3.638   6.004  2.2714  0.8985 -0.1838
  569MOL0     H76765  -0.410   3.493   5.983 -1.9018 -3.1679  0.0683
  569MOL0     H76766  -0.719   3.500   5.766 -1.5385 -1.3946 -0.4661
  569MOL0     H76767  -0.865   3.311   5.710  0.0340  1.1578  0.4945
  569MOL0     H76768  -0.896   3.171   5.821  1.2856 -0.2702  2.6706
  569MOL0     H76769  -1.093   3.337   5.777  0.3939  1.1352 -1.0416
  569MOL0     H76770  -1.001   3.449   5.879  3.0337  0.9523 -2.6693
  569MOL0     H76771  -0.998   3.299   6.069  0.5686  2.1941 -0.0611
  569MOL0     H76772  -1.047   3.153   5.975 -2.6445  0.0962 -4.7413
  569MOL0     H76773  -1.224   3.377   6.061  0.8569  0.6437 -1.8242
  569MOL0     H76774  -1.217   3.209   6.109 -3.3546 -1.8078 -2.1741
  569MOL0     H76775  -1.452   3.204   5.727 -0.7125  2.6152 -1.0605
  569MOL0     H76776  -1.799   3.251   5.678  0.5307  0.4743  0.5667
  569MOL0     H76777  -1.647   3.320   5.595  1.6202 -0.7450 -0.0287
  569MOL0     H76778  -1.658   3.161   5.620  2.6741  1.9648 -1.8414
  569MOL0     H76779  -1.929   3.586   6.196 -1.0625 -0.6722  1.5930
  569MOL0     H76780  -2.145   3.696   6.239  2.5396 -1.5091  2.2309
  569MOL0     H76781  -2.517   3.703   6.056 -0.8694 -0.5213  1.8753
  569MOL0     H76782  -2.440   3.567   5.960  0.6512 -0.4202  0.7921
  569MOL0     H76783  -2.528   3.406   6.128  0.0133 -0.2792 -3.5751
  569MOL0     H76784  -2.630   3.544   6.194  0.9060  2.6379 -0.5091
  569MOL0     H76785  -2.727   3.369   6.022 -0.3714  0.2095  0.5845
  569MOL0     H76786  -2.644   3.474   5.900 -0.8372 -2.3845 -0.0834
  569MOL0     H76787  -2.859   3.538   6.114  2.5834 -0.4058  0.4658
  569MOL0     H76788  -2.796   3.658   6.008 -0.0264  0.4221 -0.7591
  569MOL0     H76789  -2.886   3.583   5.811 -0.8109  0.1345 -0.9361
  569MOL0     H76790  -3.009   3.597   5.950  0.5468 -1.5195  0.4091
  569MOL0     H76791  -2.906   3.356   5.821  0.4200  1.9418 -0.5581
  569MOL0     H76792  -2.986   3.349   5.980 -2.0545  0.1851  0.0774
  569MOL0     H76793  -3.127   3.320   5.750 -1.6560  0.7643  0.0921
  569MOL0     H76794  -3.120   3.497   5.745 -1.5656 -1.2038 -1.5156
  569MOL0     H76795  -3.196   3.492   5.992  0.1995 -2.0397  1.3299
  569MOL0     H76796  -3.256   3.339   5.956 -0.7599  0.8297  1.0376
  569MOL0     H76797  -2.341   3.377   6.012  0.7943 -1.5231 -1.1124
  569MOL0     H76798  -2.120   3.289   5.965 -0.2885 -0.3091 -0.4356
  569MOL0     H76799  -1.652   3.389   6.136 -0.0289  3.7120 -1.4256
  569MOL0     H76800  -1.425   3.321   6.138  2.1644 -3.2737 -0.6143
  569MOL0     H76801   0.530   3.519   5.975  3.8799 -0.0367  0.9818
  569MOL0     H76802   0.706   3.509   6.136  0.1493  0.6317  0.5659
  569MOL0     H76803   0.945   3.563   6.357 -0.3609 -3.2474  1.3855
  569MOL0     H76804   1.177   3.534   6.456  1.8463  2.8145  0.0726
  569MOL0     H76805   1.244   3.492   6.774 -1.3997 -0.1854 -5.0009
  569MOL0     H76806   1.411   3.559   6.754  0.9495  3.8699 -3.3115
  569MOL0     H76807   1.364   3.614   6.978 -0.8016 -0.8062  0.6065
  569MOL0     H76808   1.204   3.678   6.942  0.0162 -0.6295 -2.0352
  569MOL0     H76809   1.310   3.863   6.802 -1.6160  2.1701  2.1626
  569MOL0     H76810   1.465   3.776   6.823  0.5757 -2.3883  0.6541
  569MOL0     H76811   1.359   3.797   7.079  2.0834 -2.0237 -0.8276
  569MOL0     H76812   1.318   3.957   7.005  0.3898  0.0906 -0.0800
  569MOL0     H76813   1.717   4.015   7.087 -1.6211  2.8093  2.7996
  569MOL0     H76814   1.055   3.783   6.780 -3.9453  1.3841  0.7830
  569MOL0     H76815   0.838   3.800   6.697  1.8752  0.6019  2.9788
  570MOL0     O76816   6.473  10.228   5.333 -0.2449 -0.0007 -0.3026
  570MOL0     C76817   6.568  10.307   5.321  0.6269 -0.7429 -0.9759
  570MOL0     O76818   6.565  10.448   5.337  0.7415 -0.0594 -0.1405
  570MOL0     C76819   6.432  10.497   5.350 -0.2550  0.3550  0.1682
  570MOL0     C76820   6.339  10.501   5.251  0.5505 -0.2743  0.9436
  570MOL0     C76821   6.212  10.562   5.277 -0.6334 -0.1869  0.0995
  570MOL0     C76822   6.183  10.619   5.393  0.4382 -0.5855 -0.2486
  570MOL0     O76823   6.061  10.679   5.420 -0.8837 -0.2957 -0.0482
  570MOL0     C76824   6.078  10.815   5.430 -0.0108 -0.5546  0.1772
  570MOL0     C76825   5.982  10.879   5.326 -0.5287 -0.1899 -0.5365
  570MOL0     C76826   5.837  10.839   5.349  0.5580 -0.0219  1.1186
  570MOL0     C76827   5.734  10.927   5.269 -0.6616  0.2306  1.0564
  570MOL0     C76828   5.594  10.893   5.322 -0.5445 -0.3781 -1.0459
  570MOL0     C76829   5.494  11.005   5.302 -1.5015  0.7332 -0.8042
  570MOL0     C76830   5.477  11.028   5.160 -0.0353  0.2121  0.8021
  570MOL0     C76831   5.420  11.168   5.135  0.3579 -0.3442 -0.3260
  570MOL0     N76832   5.276  11.172   5.116 -0.3189 -0.2653 -0.7671
  570MOL0     C76833   5.165  11.185   5.203  0.1457  0.2167 -0.5118
  570MOL0     C76834   5.057  11.152   5.124 -0.9393 -0.2382 -0.3571
  570MOL0     C76835   4.921  11.168   5.177 -0.1100 -0.2046 -0.4298
  570MOL0     C76836   4.869  11.038   5.245  0.1458 -0.3904 -0.1141
  570MOL0     C76837   4.845  10.915   5.145 -0.4870  0.0832 -0.0525
  570MOL0     C76838   4.849  10.786   5.221 -1.6203 -0.4603 -0.5366
  570MOL0     O76839   4.754  10.788   5.325  0.3789 -0.4872  0.4337
  570MOL0     C76840   4.615  10.800   5.299  0.5744  0.8576 -0.5182
  570MOL0     C76841   4.536  10.846   5.403  0.8706  0.3428 -0.8330
  570MOL0     C76842   4.391  10.861   5.401 -0.7619  0.4989  0.4563
  570MOL0     C76843   4.324  10.888   5.531  0.1411 -0.1308 -0.4953
  570MOL0     C76844   4.326  10.819   5.278 -0.1801 -0.0505 -0.4681
  570MOL0     C76845   4.181  10.805   5.265  0.2672  0.2601 -0.0618
  570MOL0     O76846   4.132  10.722   5.173 -0.2059  0.6018  0.4979
  570MOL0     C76847   4.009  10.662   5.188 -0.3570 -0.5636  0.5240
  570MOL0     C76848   3.972  10.606   5.309  0.0926 -0.7388  0.4987
  570MOL0     C76849   3.847  10.547   5.331 -0.0987 -0.0217  0.0382
  570MOL0     C76850   3.752  10.537   5.227  0.2151  0.2144  0.9320
  570MOL0     O76851   3.635  10.481   5.261 -0.0996  0.6376  0.1928
  570MOL0     C76852   3.559  10.424   5.158  1.0371 -0.0438  0.3867
  570MOL0     C76853   3.483  10.297   5.209  0.1993 -0.6616  0.0690
  570MOL0     C76854   3.418  10.223   5.087 -0.5530  0.7666  0.2426
  570MOL0     C76855   3.324  10.116   5.140  0.0223  0.7357 -0.8021
  570MOL0     C76856   3.245  10.049   5.027 -0.4582  0.0845  0.8182
  570MOL0     C76857   3.161   9.932   5.077 -0.7114  0.5297 -0.5892
  570MOL0     C76858   3.048   9.971   5.154  0.5117 -1.3583 -0.1037
  570MOL0     C76859   2.959   9.847   5.179 -0.1837 -0.0526  0.6737
  570MOL0    Cl76860   2.903   9.763   5.038 -0.0939 -0.1113  0.4443
  570MOL0     C76861   3.794  10.588   5.105 -0.0887  0.9807  0.1007
  570MOL0     C76862   3.915  10.650   5.087 -1.1251  0.2949 -0.1470
  570MOL0     O76863   4.108  10.873   5.340 -0.2092  0.1284  0.1673
  570MOL0     C76864   4.409  10.786   5.171  0.4274  0.4935 -0.0691
  570MOL0     C76865   4.548  10.772   5.177 -0.5285 -0.3264 -0.5596
  570MOL0     N76866   5.098  11.125   4.993 -0.4290 -0.4381  0.3337
  570MOL0     N76867   5.225  11.145   4.989  0.2500 -0.6257  0.2679
  570MOL0     C76868   6.285  10.622   5.495  0.3112 -0.7870  0.2529
  570MOL0     C76869   6.411  10.559   5.475  0.4816  0.5925  0.5490
  570MOL0     C76870   6.700  10.255   5.301 -0.7186 -0.7524  0.7905
  570MOL0     C76871   6.811  10.348   5.261  0.1281  0.6744  0.6816
  570MOL0     C76872   6.929  10.294   5.215  0.3432  0.8540 -0.1996
  570MOL0     C76873   6.956  10.161   5.240 -0.2404 -1.0746 -0.7240
  570MOL0     O76874   7.077  10.108   5.205  0.6204 -0.4717  0.2825
  570MOL0     C76875   7.185  10.113   5.296 -0.0840  0.5923  0.2523
  570MOL0     C76876   7.304  10.016   5.270  0.1652  0.5818 -0.2319
  570MOL0     C76877   7.421  10.055   5.344 -0.6803  0.0701  0.6280
  570MOL0     C76878   7.527   9.951   5.326 -0.6295  0.0313 -0.9401
  570MOL0     C76879   7.588   9.916   5.450 -0.5389 -0.6906 -0.2284
  570MOL0     C76880   7.641   9.890   5.555  0.0678 -0.1917  0.4820
  570MOL0     C76881   6.859  10.078   5.293  0.5951 -0.1491  0.2675
  570MOL0     C76882   6.729  10.123   5.317 -0.3909  0.1333  0.4683
  570MOL0     H76883   6.361  10.470   5.150 -0.7022  1.6354  0.0220
  570MOL0     H76884   6.143  10.568   5.194  0.0150 -0.7934 -0.5040
  570MOL0     H76885   6.051  10.851   5.530 -1.2388  0.2104 -0.4032
  570MOL0     H76886   6.180  10.850   5.413 -0.2612 -0.2419 -0.7587
  570MOL0     H76887   5.990  10.988   5.331 -0.2002 -0.2629  0.8950
  570MOL0     H76888   6.003  10.856   5.221 -2.5240 -1.6179 -0.6598
  570MOL0     H76889   5.803  10.736   5.335 -2.0589  1.0218 -1.0596
  570MOL0     H76890   5.809  10.863   5.453 -3.2856  1.3529 -0.0384
  570MOL0     H76891   5.764  11.031   5.259  0.5566 -0.3209 -2.7076
  570MOL0     H76892   5.736  10.903   5.162 -1.7748  0.7585  0.9047
  570MOL0     H76893   5.566  10.796   5.279  0.4129 -1.1073 -0.0935
  570MOL0     H76894   5.605  10.890   5.431  0.8015 -0.1409 -1.1565
  570MOL0     H76895   5.404  10.972   5.355 -0.5390 -2.0612 -0.7570
  570MOL0     H76896   5.534  11.097   5.345  1.9618 -2.0153  2.5061
  570MOL0     H76897   5.571  11.035   5.105 -0.0481 -2.3064  0.3153
  570MOL0     H76898   5.421  10.944   5.116  0.6663  0.5531 -0.8261
  570MOL0     H76899   5.472  11.212   5.050  3.1085 -2.5392  0.0903
  570MOL0     H76900   5.447  11.241   5.211  0.8220  2.5083 -3.0227
  570MOL0     H76901   5.172  11.217   5.306 -0.8945  1.2450 -0.7412
  570MOL0     H76902   4.924  11.261   5.235  1.0281  1.4652 -3.0021
  570MOL0     H76903   4.851  11.182   5.094 -1.9704  1.0583  1.2365
  570MOL0     H76904   4.779  11.055   5.304  1.2002 -1.2186  1.8170
  570MOL0     H76905   4.941  11.017   5.324 -1.8766  2.8143  2.8516
  570MOL0     H76906   4.926  10.909   5.071 -0.0683  0.9053  0.3229
  570MOL0     H76907   4.744  10.931   5.106 -1.1228 -0.7342  1.2006
  570MOL0     H76908   4.949  10.779   5.264 -1.5747 -2.2017 -0.8228
  570MOL0     H76909   4.839  10.708   5.145  2.1567 -1.3792 -0.2698
  570MOL0     H76910   4.598  10.858   5.491  0.6625 -0.3494 -0.5910
  570MOL0     H76911   4.251  10.810   5.558  0.9640 -0.2200  1.6153
  570MOL0     H76912   4.394  10.890   5.615 -2.1294  1.4980  1.4708
  570MOL0     H76913   4.266  10.980   5.530  2.4743  1.4243 -0.6824
  570MOL0     H76914   4.044  10.619   5.389  0.4338  2.7402 -0.2211
  570MOL0     H76915   3.818  10.503   5.426 -0.8649 -1.0464 -0.6547
  570MOL0     H76916   3.496  10.502   5.113  1.5671 -0.3024 -0.8493
  570MOL0     H76917   3.625  10.398   5.075 -0.0518  0.3530 -0.6337
  570MOL0     H76918   3.547  10.229   5.266  3.2793  1.4765 -0.5819
  570MOL0     H76919   3.407  10.329   5.281  0.1162 -4.7788  2.0551
  570MOL0     H76920   3.490  10.165   5.029 -0.7775  0.0098  0.7008
  570MOL0     H76921   3.368  10.281   5.009  0.4849  1.4822  0.0861
  570MOL0     H76922   3.389  10.044   5.191 -1.4784 -1.7625 -2.2552
  570MOL0     H76923   3.263  10.160   5.220  0.2669 -2.4381  1.3429
  570MOL0     H76924   3.315  10.023   4.947 -0.2605  0.4078  0.8832
  570MOL0     H76925   3.186  10.127   4.976 -1.3244 -0.3082  1.1920
  570MOL0     H76926   3.122   9.895   4.982 -0.8756  0.7082 -0.5903
  570MOL0     H76927   3.233   9.862   5.121  1.1530  2.0202 -1.1339
  570MOL0     H76928   2.992  10.045   5.095  4.4358  2.6860  0.6701
  570MOL0     H76929   3.069  10.019   5.250 -0.4738  0.9670 -0.9771
  570MOL0     H76930   2.873   9.878   5.239 -0.2867  0.4827  0.2500
  570MOL0     H76931   3.027   9.775   5.227  0.2780 -0.4257 -0.4980
  570MOL0     H76932   3.734  10.599   5.015 -1.4099 -2.3845  0.4198
  570MOL0     H76933   3.936  10.674   4.983  0.4781  0.2931  0.1504
  570MOL0     H76934   4.349  10.766   5.082 -0.4267  3.6488 -0.3279
  570MOL0     H76935   4.589  10.732   5.085 -0.3629 -1.1382 -0.1356
  570MOL0     H76936   6.285  10.681   5.586  0.9552 -2.5029  1.4086
  570MOL0     H76937   6.497  10.555   5.542  0.8835 -0.9057 -0.0046
  570MOL0     H76938   6.793  10.454   5.241 -1.7729  0.2353 -0.1627
  570MOL0     H76939   7.007  10.359   5.177 -0.0105  0.7359 -1.1413
  570MOL0     H76940   7.231  10.213   5.301  0.1684  0.5002 -0.1883
  570MOL0     H76941   7.142  10.096   5.395 -0.2107 -2.5983 -0.2631
  570MOL0     H76942   7.330  10.025   5.165  3.5580  0.0545  0.4555
  570MOL0     H76943   7.279   9.909   5.268  1.0308  0.3643  0.0466
  570MOL0     H76944   7.388  10.054   5.448 -1.9073  3.1825  0.3803
  570MOL0     H76945   7.460  10.154   5.319  3.0675 -1.4702 -0.4730
  570MOL0     H76946   7.603   9.983   5.253  1.1165 -4.1329 -1.2592
  570MOL0     H76947   7.501   9.849   5.297 -0.0195 -0.5959  0.6473
  570MOL0     H76948   7.673   9.858   5.653 -0.1727 -3.4335 -0.3944
  570MOL0     H76949   6.876   9.975   5.323 -0.0846 -0.2917  0.1721
  570MOL0     H76950   6.659  10.049   5.354 -0.2694 -0.0405  0.3535
  571MOL0     O76951   4.854  10.500   4.820  0.4646 -0.7286  0.0906
  571MOL0     C76952   4.864  10.441   4.930 -0.7442  0.0360 -0.4719
  571MOL0     O76953   4.798  10.330   4.979  0.0287 -0.0504  0.2027
  571MOL0     C76954   4.736  10.262   4.888 -0.8093 -0.2863  0.7424
  571MOL0     C76955   4.794  10.147   4.846 -0.2869  1.7327  0.3787
  571MOL0     C76956   4.721  10.059   4.759  0.3349 -0.4003 -0.1492
  571MOL0     C76957   4.594  10.099   4.713 -1.1949  0.1869 -0.1865
  571MOL0     O76958   4.515  10.020   4.627 -0.2747 -0.1720 -0.1130
  571MOL0     C76959   4.370  10.027   4.643  0.5777  0.7036  0.5825
  571MOL0     C76960   4.315   9.912   4.555  0.3078 -0.3042 -0.5566
  571MOL0     C76961   4.174   9.895   4.565  0.4942  0.3211  1.1962
  571MOL0     C76962   4.114   9.811   4.450  0.0806 -0.3068  0.6471
  571MOL0     C76963   3.956   9.792   4.446 -0.2796 -0.2233  0.0560
  571MOL0     C76964   3.920   9.680   4.348 -0.4792 -0.1566  1.4273
  571MOL0     C76965   3.770   9.645   4.375  0.0510 -0.6769 -0.6442
  571MOL0     C76966   3.673   9.751   4.319 -0.0797 -0.8974 -0.6567
  571MOL0     N76967   3.527   9.721   4.314 -0.5805 -0.2750 -0.2776
  571MOL0     C76968   3.482   9.596   4.265  0.3879  0.5122 -0.9680
  571MOL0     C76969   3.352   9.595   4.298 -0.1947  0.3145 -0.6748
  571MOL0     C76970   3.256   9.474   4.276  1.1868 -0.4235 -0.0792
  571MOL0     C76971   3.110   9.531   4.253  0.3115 -0.8828  0.1145
  571MOL0     C76972   3.009   9.435   4.188  0.5942  0.4344  0.2336
  571MOL0     C76973   2.865   9.492   4.185  0.2250 -0.5047 -0.0346
  571MOL0     O76974   2.861   9.614   4.111 -1.1913  0.3653  0.1509
  571MOL0     C76975   2.742   9.675   4.116 -0.0436 -0.5380  0.0413
  571MOL0     C76976   2.618   9.612   4.111  0.3164 -1.2091 -0.5248
  571MOL0     C76977   2.491   9.680   4.106 -0.7373  0.5401  0.3253
  571MOL0     C76978   2.374   9.594   4.110  0.2642 -0.3164 -0.1765
  571MOL0     C76979   2.490   9.821   4.088 -0.5300 -0.4671  1.1372
  571MOL0     C76980   2.366   9.900   4.074  0.4679 -0.3985 -1.0502
  571MOL0     O76981   2.380  10.033   4.111  0.1708 -0.4321 -0.0009
  571MOL0     C76982   2.272  10.113   4.105  0.5771 -0.3144  0.1048
  571MOL0     C76983   2.218  10.163   4.227  0.5530 -0.0614  0.6252
  571MOL0     C76984   2.104  10.243   4.223  0.5565  0.9117  0.1215
  571MOL0     C76985   2.036  10.268   4.101  0.6388 -0.6873  0.3778
  571MOL0     O76986   1.937  10.358   4.100 -0.1473  0.1350  0.7329
  571MOL0     C76987   1.824  10.334   4.015  0.3780 -0.4121  0.1788
  571MOL0     C76988   1.699  10.421   4.049  0.9894 -0.1423  0.1441
  571MOL0     C76989   1.693  10.555   3.983 -0.1731  1.1109  0.0832
  571MOL0     C76990   1.625  10.546   3.842 -0.7269  0.1661 -0.4784
  571MOL0     C76991   1.687  10.640   3.746  0.1725 -0.5382 -0.1035
  571MOL0     C76992   1.607  10.625   3.613 -0.4510 -0.2908 -0.3410
  571MOL0     C76993   1.618  10.759   3.538  0.3228 -0.6961  0.4228
  571MOL0     C76994   1.526  10.788   3.416  0.1402  0.0574  0.3648
  571MOL0    Cl76995   1.581  10.649   3.308  0.7319 -0.1434 -0.1783
  571MOL0     C76996   2.080  10.209   3.985  0.1751  0.2593 -0.1037
  571MOL0     C76997   2.196  10.129   3.988  0.2847 -0.7500  0.6048
  571MOL0     O76998   2.265   9.850   4.019 -0.2533  0.1961  0.1119
  571MOL0     C76999   2.608   9.894   4.081  1.2273  0.0809 -0.7889
  571MOL0     C77000   2.724   9.817   4.094 -0.2887 -0.0293  0.4895
  571MOL0     N77001   3.323   9.717   4.363  0.5949  0.2929 -0.6145
  571MOL0     N77002   3.432   9.786   4.388  0.4064  0.2251  0.1605
  571MOL0     C77003   4.540  10.220   4.762 -0.2228  0.2267  0.5073
  571MOL0     C77004   4.610  10.300   4.852 -0.5093 -0.0881  0.6144
  571MOL0     C77005   4.972  10.488   5.020 -0.8821  0.5960 -0.7083
  571MOL0     C77006   5.068  10.577   4.960 -0.0496  1.3938 -0.2051
  571MOL0     C77007   5.176  10.626   5.036 -0.1531  1.5350 -0.4901
  571MOL0     C77008   5.202  10.589   5.173 -0.0384  0.0665  0.2074
  571MOL0     O77009   5.301  10.647   5.253 -0.4507  0.1418  0.8946
  571MOL0     C77010   5.312  10.616   5.389 -0.7380 -0.9943 -0.3269
  571MOL0     C77011   5.210  10.685   5.471  0.7303  0.1795  0.9708
  571MOL0     C77012   5.202  10.639   5.620 -0.4686 -0.1369  0.2390
  571MOL0     C77013   5.133  10.511   5.652 -0.3134 -0.8601  0.2068
  571MOL0     C77014   5.161  10.471   5.786 -1.4027 -0.3013  0.0811
  571MOL0     C77015   5.179  10.428   5.896 -0.0928  0.4239 -0.2667
  571MOL0     C77016   5.115  10.491   5.221  0.0200  0.2998  0.9198
  571MOL0     C77017   5.003  10.442   5.151  0.0237  0.0944 -0.6821
  571MOL0     H77018   4.891  10.113   4.880 -0.2336  1.1829 -0.2951
  571MOL0     H77019   4.749   9.955   4.745 -3.0590 -1.8929  2.4763
  571MOL0     H77020   4.335  10.008   4.745 -0.3125  1.0489  0.3486
  571MOL0     H77021   4.325  10.122   4.613  1.6173  1.6075  1.7900
  571MOL0     H77022   4.342   9.945   4.454  2.1077 -0.3325 -0.1096
  571MOL0     H77023   4.359   9.814   4.572  0.3876 -0.7662 -3.1037
  571MOL0     H77024   4.147   9.843   4.658  0.1648  0.7163  1.3224
  571MOL0     H77025   4.119   9.989   4.559  0.1194  0.0310 -1.0544
  571MOL0     H77026   4.133   9.856   4.353 -2.6551  2.0458  1.0716
  571MOL0     H77027   4.168   9.716   4.453 -1.1587 -1.0171  2.2628
  571MOL0     H77028   3.933   9.759   4.547  0.6063  1.0370  0.6973
  571MOL0     H77029   3.911   9.891   4.432  1.0631  0.7004  1.9254
  571MOL0     H77030   3.927   9.712   4.243  2.2394 -1.1417  1.2508
  571MOL0     H77031   3.983   9.592   4.354  2.9462  2.0044  0.2691
  571MOL0     H77032   3.747   9.542   4.344  1.6255 -1.1569 -0.2964
  571MOL0     H77033   3.737   9.634   4.478 -2.0865 -1.4319 -1.3474
  571MOL0     H77034   3.699   9.778   4.216 -0.7839 -0.3912 -0.7147
  571MOL0     H77035   3.694   9.838   4.382  2.8315 -2.6394  0.9485
  571MOL0     H77036   3.541   9.517   4.221  3.0414 -0.3349  3.5508
  571MOL0     H77037   3.285   9.394   4.208  1.3733 -1.8847  1.6506
  571MOL0     H77038   3.253   9.418   4.370  2.5977  2.3357  1.7543
  571MOL0     H77039   3.112   9.630   4.205 -2.1757 -1.0747 -0.5335
  571MOL0     H77040   3.063   9.556   4.349 -1.5257  1.5367 -1.2929
  571MOL0     H77041   3.000   9.343   4.247 -1.2393  1.4504  1.6329
  571MOL0     H77042   3.035   9.420   4.082  1.1751  1.8961  0.1600
  571MOL0     H77043   2.827   9.514   4.285  0.4225  0.6918 -0.2067
  571MOL0     H77044   2.797   9.414   4.149  1.0372 -1.5135  0.5752
  571MOL0     H77045   2.607   9.506   4.130  1.9096 -1.5465 -1.2930
  571MOL0     H77046   2.320   9.592   4.015 -1.6129  2.1403  0.7239
  571MOL0     H77047   2.404   9.497   4.152  0.9234  0.3690  1.0095
  571MOL0     H77048   2.306   9.633   4.186  0.4610  0.1050 -0.2149
  571MOL0     H77049   2.268  10.150   4.323  1.4607  1.5994  0.4137
  571MOL0     H77050   2.053  10.289   4.307 -2.7030 -0.0514 -1.1706
  571MOL0     H77051   1.853  10.366   3.914  1.0257 -1.1505  0.1258
  571MOL0     H77052   1.801  10.228   4.025  0.6992 -0.8805 -2.8715
  571MOL0     H77053   1.614  10.354   4.029  1.1612 -0.2364 -0.2931
  571MOL0     H77054   1.695  10.435   4.157 -0.8141 -1.4406  0.2967
  571MOL0     H77055   1.796  10.590   3.984 -0.6786  2.8952 -2.0426
  571MOL0     H77056   1.641  10.623   4.052  1.4476  0.8012  1.6952
  571MOL0     H77057   1.648  10.443   3.813  2.7559  0.4506  0.8059
  571MOL0     H77058   1.518  10.568   3.841 -0.2881  2.5775 -1.5025
  571MOL0     H77059   1.791  10.613   3.726 -0.0721 -3.9985  2.4545
  571MOL0     H77060   1.685  10.744   3.782 -2.0149 -1.2992  2.2381
  571MOL0     H77061   1.655  10.536   3.571 -1.2210 -1.0211  0.2864
  571MOL0     H77062   1.503  10.597   3.631 -0.3059  0.2254  1.5368
  571MOL0     H77063   1.719  10.777   3.499  0.2329  1.1616  0.9388
  571MOL0     H77064   1.586  10.834   3.611 -0.8831 -1.2494  0.4984
  571MOL0     H77065   1.548  10.884   3.368 -1.7895  0.7092  0.6923
  571MOL0     H77066   1.417  10.785   3.425  0.1532  0.8923  0.9184
  571MOL0     H77067   2.029  10.217   3.890  0.9966  2.3325 -0.4143
  571MOL0     H77068   2.234  10.077   3.901  0.9859  0.8375 -0.0740
  571MOL0     H77069   2.614  10.000   4.060 -1.5618  0.7143  1.1220
  571MOL0     H77070   2.818   9.869   4.082  0.4617 -1.3376  0.5024
  571MOL0     H77071   4.447  10.259   4.721  2.2288  5.2016 -1.1083
  571MOL0     H77072   4.566  10.396   4.878 -1.3033 -0.7151  1.7183
  571MOL0     H77073   5.048  10.621   4.862 -0.8508 -1.4821 -1.4493
  571MOL0     H77074   5.245  10.695   4.987 -0.4278  1.5208 -0.9016
  571MOL0     H77075   5.313  10.510   5.415  0.2896 -1.0791 -0.6662
  571MOL0     H77076   5.412  10.651   5.415 -0.8519  0.2125 -1.3908
  571MOL0     H77077   5.108  10.685   5.432  1.6080  0.5135 -1.5312
  571MOL0     H77078   5.227  10.793   5.476 -1.3910  0.6604 -0.8193
  571MOL0     H77079   5.155  10.715   5.683  2.3949  0.4869  1.8290
  571MOL0     H77080   5.305  10.641   5.658  0.3305  1.3989 -1.8567
  571MOL0     H77081   5.154  10.433   5.579 -3.3837  1.1506 -3.2113
  571MOL0     H77082   5.026  10.533   5.654 -0.1146  0.2167 -0.0571
  571MOL0     H77083   5.181  10.358   5.977  3.9391 -0.3982 -0.8623
  571MOL0     H77084   5.128  10.458   5.323 -0.5465  0.7418  1.1413
  571MOL0     H77085   4.936  10.371   5.199  1.2472 -0.4695  0.2445
  572MOL0     O77086   3.303   5.607   2.985  0.1819  0.2102 -0.7553
  572MOL0     C77087   3.320   5.672   3.087  0.7675  0.1644  0.5357
  572MOL0     O77088   3.226   5.764   3.144  0.6267 -0.1254  0.2327
  572MOL0     C77089   3.101   5.796   3.077 -0.8575  0.4416  0.7195
  572MOL0     C77090   3.017   5.686   3.063 -1.5517 -0.0139  0.1352
  572MOL0     C77091   2.899   5.703   2.992 -0.7236  0.2832  0.2304
  572MOL0     C77092   2.856   5.831   2.956 -0.0277  0.5241  0.4084
  572MOL0     O77093   2.739   5.834   2.888 -0.1893  0.3635  0.3183
  572MOL0     C77094   2.735   5.930   2.788 -0.1060 -0.1085  0.5100
  572MOL0     C77095   2.642   5.869   2.674 -0.8060  0.6234  0.8599
  572MOL0     C77096   2.495   5.860   2.701 -0.4638  0.4385 -0.9020
  572MOL0     C77097   2.425   5.793   2.584  0.3569 -0.2105  0.4079
  572MOL0     C77098   2.277   5.791   2.569  0.3501  0.0471 -0.4652
  572MOL0     C77099   2.229   5.786   2.423 -0.7588  0.2525  0.1277
  572MOL0     C77100   2.080   5.779   2.411  0.2900 -0.4786 -0.3772
  572MOL0     C77101   2.031   5.753   2.264  0.5560  0.0862 -0.2560
  572MOL0     N77102   1.884   5.744   2.262 -0.3245 -0.5204 -0.0674
  572MOL0     C77103   1.798   5.711   2.366  0.0481  0.5834 -0.6992
  572MOL0     C77104   1.674   5.738   2.328  0.4605  0.8223  0.2379
  572MOL0     C77105   1.547   5.722   2.405  0.0974  0.0694 -0.4385
  572MOL0     C77106   1.483   5.841   2.467 -0.2625 -0.2386 -0.0032
  572MOL0     C77107   1.361   5.789   2.555 -0.1199 -0.4092  1.8223
  572MOL0     C77108   1.240   5.720   2.489 -0.7185 -0.4275 -0.5976
  572MOL0     O77109   1.148   5.700   2.596  0.9328 -0.3551 -0.1526
  572MOL0     C77110   1.031   5.634   2.577 -0.9731 -0.3994  0.1753
  572MOL0     C77111   0.994   5.583   2.451 -0.8966  0.0059 -0.2837
  572MOL0     C77112   0.883   5.501   2.435  0.8963  1.0521  0.1141
  572MOL0     C77113   0.856   5.451   2.294  0.6286  0.0215  0.4249
  572MOL0     C77114   0.811   5.450   2.546 -0.3902  0.4361  0.7479
  572MOL0     C77115   0.703   5.342   2.544 -0.4593  0.1575 -0.3223
  572MOL0     O77116   0.697   5.268   2.664  0.1989 -0.2518 -0.1271
  572MOL0     C77117   0.609   5.160   2.665 -0.2422 -0.3699 -0.0492
  572MOL0     C77118   0.466   5.161   2.671 -0.7849  0.3083 -0.6867
  572MOL0     C77119   0.382   5.041   2.650 -0.5964 -0.3042 -0.3144
  572MOL0     C77120   0.453   4.918   2.632 -0.9741  0.0994  0.9281
  572MOL0     O77121   0.385   4.797   2.621  0.4192 -0.4529 -0.3179
  572MOL0     C77122   0.467   4.675   2.657  0.7301  0.7523 -0.0780
  572MOL0     C77123   0.384   4.542   2.661  0.0408 -0.9195  0.1187
  572MOL0     C77124   0.366   4.479   2.525  0.3709 -0.3461  0.4885
  572MOL0     C77125   0.273   4.354   2.536 -0.1478  0.4019 -0.4358
  572MOL0     C77126   0.124   4.385   2.536 -0.0024  0.0960  0.1307
  572MOL0     C77127   0.041   4.254   2.551  0.9520 -0.0387  0.2648
  572MOL0     C77128  -0.110   4.274   2.503 -0.1755  0.4059 -0.1940
  572MOL0     C77129  -0.153   4.143   2.446  0.1126  0.3048 -0.1314
  572MOL0    Cl77130  -0.325   4.124   2.433  0.3903  0.0251 -0.2531
  572MOL0     C77131   0.592   4.918   2.637  0.4937  0.2289 -0.2832
  572MOL0     C77132   0.664   5.035   2.656 -0.3711  0.3548  0.5419
  572MOL0     O77133   0.625   5.327   2.449 -0.1711  0.0360 -0.6897
  572MOL0     C77134   0.865   5.492   2.671  0.2033  0.4015  0.9007
  572MOL0     C77135   0.969   5.582   2.686  0.5837  0.5565  0.0534
  572MOL0     N77136   1.684   5.796   2.201 -0.7544 -0.3688 -0.3592
  572MOL0     N77137   1.811   5.798   2.164  0.4410  0.3706  0.2257
  572MOL0     C77138   2.937   5.940   2.989  0.2460  0.7374 -0.0840
  572MOL0     C77139   3.065   5.923   3.046  0.0350 -0.2244  0.4453
  572MOL0     C77140   3.433   5.631   3.170 -0.5829  0.6060  0.4772
  572MOL0     C77141   3.454   5.691   3.285 -0.1149 -0.5585 -0.0081
  572MOL0     C77142   3.564   5.654   3.375  0.6132  0.6094 -0.4423
  572MOL0     C77143   3.644   5.545   3.341  0.2743 -0.7435  0.1734
  572MOL0     O77144   3.746   5.531   3.431 -0.0290  0.4890  0.3951
  572MOL0     C77145   3.829   5.410   3.422  0.5921 -0.5230  1.1943
  572MOL0     C77146   3.941   5.425   3.320 -0.3099 -0.8805  0.8141
  572MOL0     C77147   4.015   5.560   3.340 -0.1861 -0.4624 -0.1870
  572MOL0     C77148   4.034   5.632   3.473 -0.3666 -0.4291 -0.5548
  572MOL0     C77149   4.126   5.742   3.455 -0.1369 -0.4377  0.8892
  572MOL0     C77150   4.197   5.835   3.426  0.3314  0.7842  0.0711
  572MOL0     C77151   3.630   5.488   3.214  0.3932  0.5662  0.0600
  572MOL0     C77152   3.526   5.532   3.127  0.5460  0.1871  0.0908
  572MOL0     H77153   3.045   5.591   3.107 -1.2582  0.5884  1.3073
  572MOL0     H77154   2.848   5.608   2.976  1.9013 -0.8305 -2.3948
  572MOL0     H77155   2.686   6.019   2.828  0.8102 -0.1309  1.7647
  572MOL0     H77156   2.837   5.951   2.753 -1.1928  1.0273 -2.1811
  572MOL0     H77157   2.658   5.922   2.580  0.1913 -0.7575  0.2226
  572MOL0     H77158   2.681   5.771   2.643 -0.0881  1.7717 -2.2503
  572MOL0     H77159   2.463   5.809   2.793 -2.2925 -2.0442 -2.7431
  572MOL0     H77160   2.460   5.963   2.711  0.3337  0.4666  3.3736
  572MOL0     H77161   2.464   5.851   2.500 -0.0927 -0.1762  0.2249
  572MOL0     H77162   2.463   5.692   2.568 -0.5605 -0.1029 -3.3353
  572MOL0     H77163   2.225   5.716   2.630 -5.0356  2.9155 -0.9616
  572MOL0     H77164   2.243   5.885   2.613  0.8305 -0.4737  1.1116
  572MOL0     H77165   2.263   5.866   2.357  1.2347 -1.3669 -0.9238
  572MOL0     H77166   2.263   5.697   2.370 -2.8079 -0.9861  0.8050
  572MOL0     H77167   2.035   5.698   2.469 -1.4842 -0.8333 -2.1151
  572MOL0     H77168   2.028   5.862   2.460  2.1582  0.3667  0.2298
  572MOL0     H77169   2.069   5.653   2.242 -2.9364 -1.9135  1.7735
  572MOL0     H77170   2.072   5.828   2.196  0.0932 -1.3350 -2.1944
  572MOL0     H77171   1.829   5.673   2.463 -0.5831  4.1855  1.0706
  572MOL0     H77172   1.479   5.663   2.343 -0.8662  0.6472  0.0345
  572MOL0     H77173   1.577   5.651   2.483 -1.4254 -0.0414  0.0855
  572MOL0     H77174   1.455   5.907   2.384 -0.2169 -0.7657 -0.4437
  572MOL0     H77175   1.555   5.898   2.526  0.6723  0.3960 -1.6974
  572MOL0     H77176   1.324   5.876   2.609  0.3360  1.1626 -0.2484
  572MOL0     H77177   1.388   5.714   2.630 -0.0781 -2.7879 -0.4147
  572MOL0     H77178   1.279   5.631   2.439  3.0769  1.1642 -0.8324
  572MOL0     H77179   1.200   5.775   2.403  1.1146  0.3474 -1.0121
  572MOL0     H77180   1.048   5.615   2.363 -0.9328 -0.8783 -0.6359
  572MOL0     H77181   0.872   5.530   2.220 -0.0985  0.1879  0.4333
  572MOL0     H77182   0.927   5.369   2.281 -2.1189 -2.1694 -2.0225
  572MOL0     H77183   0.761   5.401   2.272  0.8933 -1.0618  1.6470
  572MOL0     H77184   0.418   5.258   2.669 -2.2252 -0.3907 -1.8034
  572MOL0     H77185   0.275   5.024   2.644 -0.6791  0.5835 -2.3702
  572MOL0     H77186   0.544   4.658   2.582  1.0858  1.6800  0.0600
  572MOL0     H77187   0.500   4.692   2.760 -0.2513 -1.3410  0.6508
  572MOL0     H77188   0.439   4.471   2.724 -0.0944  1.3825  3.0835
  572MOL0     H77189   0.284   4.556   2.705  1.1361  0.7532  2.3175
  572MOL0     H77190   0.466   4.462   2.483  0.6955  0.5685  0.8747
  572MOL0     H77191   0.318   4.553   2.461  0.5656  0.0728  0.8269
  572MOL0     H77192   0.314   4.286   2.460  0.0113 -0.3719  0.3294
  572MOL0     H77193   0.285   4.303   2.632 -2.6742  1.6252  0.6107
  572MOL0     H77194   0.104   4.443   2.445 -0.7039  0.3740  0.4540
  572MOL0     H77195   0.099   4.434   2.630 -0.5444 -1.3099  0.7437
  572MOL0     H77196   0.092   4.175   2.494 -0.5064 -2.2100  1.7938
  572MOL0     H77197   0.049   4.215   2.653  2.1182  1.4902  0.7919
  572MOL0     H77198  -0.122   4.346   2.422  2.9062 -1.3553 -2.4241
  572MOL0     H77199  -0.172   4.301   2.590  2.8042  2.4419  1.4615
  572MOL0     H77200  -0.117   4.070   2.519 -0.6622  0.7352  0.7000
  572MOL0     H77201  -0.106   4.135   2.347 -0.5800  3.7392 -0.8697
  572MOL0     H77202   0.666   4.840   2.621  3.2356  1.6566  3.7548
  572MOL0     H77203   0.772   5.026   2.656 -0.0820  1.5181 -3.5602
  572MOL0     H77204   0.833   5.449   2.766 -1.4863 -1.2561 -0.3534
  572MOL0     H77205   0.987   5.623   2.785  1.5557 -2.4100  1.2077
  572MOL0     H77206   2.901   6.038   2.957  1.7728  0.7146 -2.0593
  572MOL0     H77207   3.127   6.011   3.056 -3.3191  2.5666 -1.0103
  572MOL0     H77208   3.394   5.780   3.302  0.4051 -0.8577  4.6278
  572MOL0     H77209   3.590   5.719   3.458  2.4597 -1.0137  0.3258
  572MOL0     H77210   3.879   5.391   3.518  1.5983 -0.1170  0.7682
  572MOL0     H77211   3.772   5.319   3.400  1.2625 -0.1978 -2.5982
  572MOL0     H77212   3.904   5.409   3.218 -0.1757  1.3932  0.3478
  572MOL0     H77213   4.023   5.354   3.335  0.4185  0.0770  1.4805
  572MOL0     H77214   3.961   5.622   3.267 -2.2504 -2.3059 -0.3538
  572MOL0     H77215   4.117   5.544   3.303 -0.5706 -1.4552 -0.8859
  572MOL0     H77216   4.076   5.572   3.555  1.5302  0.4393 -0.8258
  572MOL0     H77217   3.943   5.681   3.509 -0.2417 -1.2463  0.9991
  572MOL0     H77218   4.262   5.913   3.392  0.4003 -0.0604 -1.8807
  572MOL0     H77219   3.690   5.404   3.182 -2.6495 -2.0440  0.7868
  572MOL0     H77220   3.504   5.477   3.035  0.9138 -0.9347  0.6496
  573MOL0     O77221   5.444   3.611   5.973 -0.4972 -0.1937 -0.4836
  573MOL0     C77222   5.468   3.495   5.990 -0.9673  0.2537  0.2315
  573MOL0     O77223   5.398   3.407   6.071  0.5998 -0.0705 -0.1688
  573MOL0     C77224   5.278   3.443   6.137  0.0530  0.1706 -0.9709
  573MOL0     C77225   5.239   3.361   6.249  0.6489  0.9976  0.1427
  573MOL0     C77226   5.121   3.373   6.311 -0.4250  0.9831  0.5178
  573MOL0     C77227   5.028   3.459   6.265 -0.3290 -0.4755 -0.8246
  573MOL0     O77228   4.901   3.461   6.322  0.1964  0.4685  0.3475
  573MOL0     C77229   4.794   3.495   6.235 -0.3755  0.1163  0.3070
  573MOL0     C77230   4.669   3.486   6.316  1.0710  1.0556 -0.6265
  573MOL0     C77231   4.536   3.515   6.249  0.3067 -0.4124 -1.2688
  573MOL0     C77232   4.431   3.531   6.352  1.2310 -0.4922  0.4247
  573MOL0     C77233   4.285   3.516   6.298 -0.3234  0.2659 -0.1639
  573MOL0     C77234   4.240   3.376   6.264 -0.2114 -0.0310  0.7285
  573MOL0     C77235   4.112   3.369   6.176 -0.0620 -0.7670  0.4582
  573MOL0     C77236   4.131   3.408   6.025  0.4034 -0.0931 -0.1309
  573MOL0     N77237   4.014   3.388   5.948 -0.1508 -0.4621  1.1103
  573MOL0     C77238   3.905   3.302   5.969 -0.0440 -1.2133  0.2920
  573MOL0     C77239   3.802   3.353   5.901  0.2727  0.2959 -0.1952
  573MOL0     C77240   3.658   3.296   5.921 -0.7549  0.8062  0.0112
  573MOL0     C77241   3.569   3.421   5.921  0.0298 -0.2462 -0.1244
  573MOL0     C77242   3.582   3.514   6.040 -0.9683 -0.0578  0.2208
  573MOL0     C77243   3.491   3.635   6.056 -0.1224  0.3725  0.7690
  573MOL0     O77244   3.356   3.588   6.051 -0.1358  0.0190 -0.2057
  573MOL0     C77245   3.253   3.661   5.987 -0.0412 -0.0350 -1.1391
  573MOL0     C77246   3.162   3.595   5.911  0.4714  0.4905  0.6133
  573MOL0     C77247   3.048   3.659   5.855  0.2155 -0.8979 -0.2176
  573MOL0     C77248   2.941   3.579   5.799  0.3347  0.0872 -0.0505
  573MOL0     C77249   3.031   3.799   5.873  0.3165  1.2216 -0.3843
  573MOL0     C77250   2.917   3.892   5.825  0.0380 -0.2802  0.0755
  573MOL0     O77251   2.814   3.843   5.741 -0.0319  0.4025  0.4334
  573MOL0     C77252   2.702   3.926   5.728  0.0529 -0.4762 -0.7459
  573MOL0     C77253   2.624   3.991   5.826 -0.2085 -0.5815 -0.4963
  573MOL0     C77254   2.507   4.050   5.788  0.5823 -0.3240 -0.8444
  573MOL0     C77255   2.464   4.062   5.657 -1.6014 -0.0840  0.0871
  573MOL0     O77256   2.351   4.142   5.638  0.8331 -0.0658  0.1057
  573MOL0     C77257   2.287   4.147   5.505  0.0368 -0.7463 -0.8223
  573MOL0     C77258   2.175   4.034   5.502  0.0695 -0.9351 -0.2715
  573MOL0     C77259   2.086   4.030   5.375  0.4832 -0.3332  0.0428
  573MOL0     C77260   1.963   3.937   5.393 -0.2181 -0.3899 -0.9260
  573MOL0     C77261   1.852   3.968   5.281  0.4513  0.4588  0.9205
  573MOL0     C77262   1.737   3.861   5.303 -0.5099 -1.1053 -0.2887
  573MOL0     C77263   1.618   3.859   5.217  0.4319 -0.2610 -1.3544
  573MOL0     C77264   1.509   3.775   5.280 -0.3422 -0.5749 -0.4715
  573MOL0    Cl77265   1.364   3.779   5.191  0.0073  0.2929 -0.0527
  573MOL0     C77266   2.538   4.001   5.558  0.5217  0.2876  0.1507
  573MOL0     C77267   2.657   3.930   5.594 -0.1493 -1.0048 -0.4511
  573MOL0     O77268   2.920   4.013   5.867 -0.0359 -0.1420 -0.5014
  573MOL0     C77269   3.130   3.862   5.952 -0.6100 -0.7328  0.2773
  573MOL0     C77270   3.239   3.797   6.015  0.0649 -0.6499  0.1420
  573MOL0     N77271   3.849   3.462   5.830 -0.3120 -0.4504  0.3009
  573MOL0     N77272   3.970   3.473   5.854 -0.5303 -0.9699  0.5054
  573MOL0     C77273   5.061   3.545   6.161  0.3487 -0.6175 -0.5610
  573MOL0     C77274   5.186   3.529   6.093  0.0778 -1.6130  0.2886
  573MOL0     C77275   5.590   3.449   5.915 -0.6567  0.5314  0.7618
  573MOL0     C77276   5.655   3.340   5.967 -1.0148 -0.0103  0.0918
  573MOL0     C77277   5.784   3.304   5.911  0.6875 -0.1918 -0.5736
  573MOL0     C77278   5.845   3.381   5.801 -0.6152  0.4905  0.1182
  573MOL0     O77279   5.977   3.371   5.755  0.5639 -0.2685 -0.2839
  573MOL0     C77280   6.079   3.287   5.807 -0.7575 -0.4387 -1.1254
  573MOL0     C77281   6.219   3.328   5.756  0.1419 -0.5722  0.0723
  573MOL0     C77282   6.261   3.464   5.819  0.3319  0.4379  0.1297
  573MOL0     C77283   6.320   3.455   5.964 -0.4474  0.1058 -0.1968
  573MOL0     C77284   6.418   3.349   5.976 -0.9730  0.4277 -0.7041
  573MOL0     C77285   6.495   3.263   5.983 -0.5599  0.1996 -0.4521
  573MOL0     C77286   5.775   3.490   5.755 -0.6243  0.3533 -0.6578
  573MOL0     C77287   5.652   3.525   5.813 -1.3357  0.4704 -0.5943
  573MOL0     H77288   5.301   3.281   6.285  0.2535 -0.6275 -2.5080
  573MOL0     H77289   5.090   3.323   6.403  0.8105  1.4938  1.2284
  573MOL0     H77290   4.802   3.601   6.210  2.4122 -0.2273 -0.7606
  573MOL0     H77291   4.791   3.434   6.143  3.0100  0.4777 -0.2011
  573MOL0     H77292   4.664   3.388   6.364 -2.8358  2.2692  1.9363
  573MOL0     H77293   4.668   3.571   6.385 -2.7271  2.4644 -2.1536
  573MOL0     H77294   4.553   3.611   6.198  0.5268  0.3954  0.2435
  573MOL0     H77295   4.514   3.433   6.181 -3.5022 -2.0308  1.5176
  573MOL0     H77296   4.450   3.461   6.435  2.0233  1.2692  1.7875
  573MOL0     H77297   4.431   3.631   6.396  2.4971 -1.5595  3.0638
  573MOL0     H77298   4.209   3.564   6.361  0.1532  0.8801 -0.0535
  573MOL0     H77299   4.287   3.565   6.200  1.4638 -0.0947 -0.3319
  573MOL0     H77300   4.322   3.328   6.210  0.7614 -0.4213  2.4947
  573MOL0     H77301   4.222   3.316   6.353 -2.1351  0.3114  0.6268
  573MOL0     H77302   4.061   3.274   6.197 -0.8732 -0.3043  0.6417
  573MOL0     H77303   4.033   3.435   6.213  1.3466  0.6267  1.0700
  573MOL0     H77304   4.213   3.342   5.994 -0.4363  0.2161 -3.3365
  573MOL0     H77305   4.167   3.511   6.026 -0.8640  0.3830 -1.4078
  573MOL0     H77306   3.911   3.224   6.045  1.4642 -1.9133 -0.4917
  573MOL0     H77307   3.635   3.234   5.834 -2.0003 -0.7243  1.3599
  573MOL0     H77308   3.658   3.235   6.012 -1.0635  0.8281  0.0291
  573MOL0     H77309   3.468   3.379   5.930  0.2303 -0.2901  4.2692
  573MOL0     H77310   3.581   3.469   5.824  0.9350 -0.5380 -0.1579
  573MOL0     H77311   3.678   3.565   6.047 -0.4913 -1.0209  0.8749
  573MOL0     H77312   3.580   3.459   6.135  1.4176  3.1306  2.3005
  573MOL0     H77313   3.518   3.710   5.981  1.0115 -0.7253  0.0343
  573MOL0     H77314   3.500   3.681   6.154 -2.2594 -1.7160  2.0299
  573MOL0     H77315   3.172   3.487   5.902  0.7148  0.6079 -0.8840
  573MOL0     H77316   2.847   3.597   5.852  0.2338 -0.8930  0.1350
  573MOL0     H77317   2.917   3.607   5.696 -4.1309  1.5013  1.1744
  573MOL0     H77318   2.962   3.472   5.790  0.2888  0.0698  0.0466
  573MOL0     H77319   2.640   3.984   5.933  0.8354 -1.6759 -0.7041
  573MOL0     H77320   2.434   4.079   5.863  1.3771 -0.6038  0.0646
  573MOL0     H77321   2.232   4.239   5.481  0.4905 -0.6299 -1.4300
  573MOL0     H77322   2.354   4.146   5.419 -0.5373 -0.8601 -1.2751
  573MOL0     H77323   2.222   3.935   5.504  1.0670 -0.4901 -0.7559
  573MOL0     H77324   2.117   4.048   5.594  0.5189 -0.2146 -0.0952
  573MOL0     H77325   2.140   4.012   5.282  1.5463  1.3396  0.2808
  573MOL0     H77326   2.055   4.134   5.362  0.5169 -0.3337 -0.0465
  573MOL0     H77327   2.011   3.839   5.381  2.0266  0.7813 -2.3409
  573MOL0     H77328   1.924   3.933   5.495  2.2145 -1.7979  0.0370
  573MOL0     H77329   1.901   3.956   5.185  1.1172  1.4348  1.1203
  573MOL0     H77330   1.813   4.070   5.292 -0.6303  0.1660 -0.0666
  573MOL0     H77331   1.772   3.757   5.297  0.7046 -0.6946 -0.5975
  573MOL0     H77332   1.719   3.875   5.410  4.2426  3.7003  0.3106
  573MOL0     H77333   1.654   3.805   5.129  4.4735 -2.3434  1.2654
  573MOL0     H77334   1.589   3.960   5.184 -1.7427 -0.8269 -1.3756
  573MOL0     H77335   1.479   3.829   5.370 -0.5385 -0.7265 -0.4432
  573MOL0     H77336   1.540   3.672   5.302  0.9907  0.0342  0.5447
  573MOL0     H77337   2.505   4.008   5.455 -1.6990  2.7602  0.9071
  573MOL0     H77338   2.718   3.883   5.518 -1.3339  0.1473 -2.1625
  573MOL0     H77339   3.118   3.969   5.966 -3.3430 -1.1451  1.7424
  573MOL0     H77340   3.309   3.843   6.084 -0.5619 -0.8606  0.9301
  573MOL0     H77341   4.996   3.613   6.107 -0.6310 -0.2375  1.0367
  573MOL0     H77342   5.203   3.579   5.998  0.5911  0.8937  1.6197
  573MOL0     H77343   5.610   3.281   6.047  0.6302  0.7557  1.6654
  573MOL0     H77344   5.832   3.227   5.971 -1.5794  0.9813  3.0609
  573MOL0     H77345   6.089   3.281   5.916  3.1612  2.9471 -1.0353
  573MOL0     H77346   6.056   3.191   5.761  2.9842 -0.4533 -3.4472
  573MOL0     H77347   6.218   3.345   5.648 -1.8835  2.0819  0.4232
  573MOL0     H77348   6.296   3.252   5.776 -0.4573 -1.5723 -1.2881
  573MOL0     H77349   6.171   3.524   5.835  1.0699  1.5139  0.3225
  573MOL0     H77350   6.330   3.516   5.752 -0.8844  2.4631  0.3574
  573MOL0     H77351   6.245   3.437   6.041 -0.4234  0.0605 -0.1835
  573MOL0     H77352   6.358   3.553   5.994  0.6000 -0.8095  1.6324
  573MOL0     H77353   6.571   3.189   5.989  1.0285  1.4672 -3.1141
  573MOL0     H77354   5.823   3.554   5.682  0.0570  1.8968  1.0585
  573MOL0     H77355   5.617   3.622   5.782  1.2078  1.2112 -1.3699
  574MOL0     O77356   8.234   8.166   5.820 -0.5592  0.1519 -0.0034
  574MOL0     C77357   8.256   8.213   5.706 -0.7047  0.3612  0.5222
  574MOL0     O77358   8.173   8.278   5.633  0.2799  0.5059  0.4944
  574MOL0     C77359   8.048   8.297   5.677  0.0281  0.5140 -0.2960
  574MOL0     C77360   7.946   8.241   5.603  0.0560 -0.1163  0.1991
  574MOL0     C77361   7.812   8.251   5.648  0.0562 -0.5170 -0.1790
  574MOL0     C77362   7.781   8.332   5.753  0.0070 -0.6166  0.2679
  574MOL0     O77363   7.652   8.344   5.799  0.4925  0.6699 -0.6872
  574MOL0     C77364   7.564   8.415   5.702 -1.0882 -0.7063  0.7751
  574MOL0     C77365   7.467   8.304   5.646 -0.2997 -0.2043 -0.1889
  574MOL0     C77366   7.376   8.366   5.533  0.2582  0.3126  0.3464
  574MOL0     C77367   7.258   8.280   5.496  0.2653  0.6452 -0.7259
  574MOL0     C77368   7.167   8.335   5.391  1.2586 -0.4648 -0.0074
  574MOL0     C77369   7.063   8.231   5.353  0.2405 -0.9603 -0.4366
  574MOL0     C77370   6.963   8.295   5.255  0.8192  0.2944 -0.7282
  574MOL0     C77371   6.883   8.195   5.168  0.6609  0.3259 -0.1551
  574MOL0     N77372   6.790   8.252   5.070  0.2397  0.0699  0.2455
  574MOL0     C77373   6.667   8.304   5.104 -0.1780 -0.5107 -0.1873
  574MOL0     C77374   6.602   8.324   4.988 -0.8296  0.8751  0.1172
  574MOL0     C77375   6.459   8.356   4.992 -0.1846 -0.0705  0.2919
  574MOL0     C77376   6.407   8.429   4.866  0.1787 -0.2092 -0.5953
  574MOL0     C77377   6.400   8.346   4.740  0.4330  0.6966  0.6889
  574MOL0     C77378   6.296   8.227   4.745  0.5034 -0.4563 -0.1271
  574MOL0     O77379   6.157   8.266   4.774 -0.0197  0.2303 -0.1001
  574MOL0     C77380   6.062   8.174   4.730  0.3296  0.9209 -0.1623
  574MOL0     C77381   6.075   8.046   4.684 -0.2975  1.0882 -0.1468
  574MOL0     C77382   5.962   7.966   4.647  0.3553 -0.6397  0.3267
  574MOL0     C77383   5.984   7.839   4.582 -0.2200  0.3013  0.8431
  574MOL0     C77384   5.830   8.023   4.668  0.4352  0.8763 -0.8017
  574MOL0     C77385   5.708   7.941   4.628  0.4157  1.1104 -0.1184
  574MOL0     O77386   5.612   8.010   4.555 -0.3310 -0.1400  1.0511
  574MOL0     C77387   5.508   7.938   4.506 -0.6594  0.4248 -0.1304
  574MOL0     C77388   5.464   7.948   4.376  0.1012 -0.4596 -0.4705
  574MOL0     C77389   5.362   7.864   4.330 -0.1845  0.0216 -0.5945
  574MOL0     C77390   5.275   7.801   4.424 -0.1847  0.4947 -0.0582
  574MOL0     O77391   5.172   7.726   4.383 -0.0427 -0.4335  0.0898
  574MOL0     C77392   5.058   7.687   4.465  0.3063 -0.4374 -0.6143
  574MOL0     C77393   4.925   7.676   4.388 -0.6894  0.4298 -0.8134
  574MOL0     C77394   4.818   7.601   4.464  0.3124  0.2346 -0.1661
  574MOL0     C77395   4.680   7.620   4.396  0.5717 -0.7175  0.4673
  574MOL0     C77396   4.559   7.530   4.455 -1.2694  0.0553  1.6990
  574MOL0     C77397   4.577   7.378   4.429  0.2044 -0.4753  0.6682
  574MOL0     C77398   4.493   7.305   4.534 -0.2279  0.1037  0.7655
  574MOL0     C77399   4.461   7.165   4.482 -0.4010  0.2840 -0.4574
  574MOL0    Cl77400   4.321   7.188   4.364 -0.3871 -0.0560 -0.0896
  574MOL0     C77401   5.313   7.804   4.560  0.7892  0.0488  0.0461
  574MOL0     C77402   5.422   7.871   4.595  1.0208  1.0276 -0.3043
  574MOL0     O77403   5.702   7.814   4.649  0.3921  0.1433  0.0628
  574MOL0     C77404   5.816   8.147   4.716 -0.7440 -0.0217  0.1567
  574MOL0     C77405   5.929   8.220   4.743 -0.3007 -0.4466  0.3929
  574MOL0     N77406   6.680   8.282   4.883 -0.2155 -1.3522  0.1993
  574MOL0     N77407   6.793   8.244   4.934  0.7958  0.1031 -0.8368
  574MOL0     C77408   7.875   8.402   5.821  0.2103  0.0840  0.1237
  574MOL0     C77409   8.011   8.380   5.788 -0.1746 -1.2346  0.3147
  574MOL0     C77410   8.385   8.206   5.648 -0.1657  0.3727 -0.6154
  574MOL0     C77411   8.494   8.167   5.729  0.4253 -0.0305  0.5367
  574MOL0     C77412   8.622   8.151   5.669 -0.3326 -0.1402 -1.0449
  574MOL0     C77413   8.640   8.171   5.530  0.4144  0.1283 -0.6806
  574MOL0     O77414   8.763   8.160   5.466 -0.8605 -0.1811  0.5192
  574MOL0     C77415   8.866   8.094   5.542  0.5784  0.6562  0.1564
  574MOL0     C77416   8.983   8.083   5.440  0.2593 -0.4575  0.8260
  574MOL0     C77417   9.055   8.211   5.408 -0.0485  0.0216 -0.1198
  574MOL0     C77418   9.161   8.249   5.511 -1.1093 -0.6911  0.2059
  574MOL0     C77419   9.288   8.177   5.486  0.7830 -0.3106 -0.3665
  574MOL0     C77420   9.382   8.112   5.481 -0.1815 -0.9701  0.1271
  574MOL0     C77421   8.536   8.198   5.451 -0.6189 -0.8448  0.4014
  574MOL0     C77422   8.408   8.217   5.507  0.3379  0.2784  0.0478
  574MOL0     H77423   7.959   8.186   5.511  0.5488  2.7556 -1.5567
  574MOL0     H77424   7.731   8.212   5.587 -0.4794 -0.6133  0.5744
  574MOL0     H77425   7.505   8.491   5.755 -1.0708  0.2204 -0.4863
  574MOL0     H77426   7.618   8.467   5.622 -0.6736 -1.7426  0.3593
  574MOL0     H77427   7.521   8.220   5.601 -1.9604 -0.3437 -2.1169
  574MOL0     H77428   7.408   8.261   5.727  1.0486  1.5818  1.8318
  574MOL0     H77429   7.336   8.459   5.575  1.3788  0.5838  0.8619
  574MOL0     H77430   7.425   8.388   5.438 -1.5022 -1.3033 -1.0026
  574MOL0     H77431   7.291   8.181   5.464 -0.3570  0.1526  0.1134
  574MOL0     H77432   7.199   8.267   5.587  0.0510 -2.2193 -1.2054
  574MOL0     H77433   7.118   8.425   5.430 -1.4287 -1.4371 -0.8664
  574MOL0     H77434   7.216   8.373   5.301 -1.6009  4.2576  0.0675
  574MOL0     H77435   7.124   8.159   5.297  2.0635  1.7678 -2.2381
  574MOL0     H77436   6.997   8.192   5.431  0.0526 -0.1305 -0.1677
  574MOL0     H77437   6.885   8.354   5.304  2.7883  2.7505 -0.3472
  574MOL0     H77438   7.022   8.352   5.182 -1.0347 -0.1396 -2.6547
  574MOL0     H77439   6.828   8.128   5.234  0.6516  0.2362 -0.2540
  574MOL0     H77440   6.961   8.146   5.109  1.5376  2.5122 -0.9147
  574MOL0     H77441   6.640   8.323   5.208  3.7509 -3.1826  1.6203
  574MOL0     H77442   6.396   8.269   5.011 -0.0872 -0.4167 -0.8750
  574MOL0     H77443   6.439   8.436   5.063 -1.2962  1.9407 -2.1416
  574MOL0     H77444   6.478   8.508   4.840  2.2279 -2.2813 -1.7537
  574MOL0     H77445   6.311   8.476   4.887  0.6936 -0.2634  2.3493
  574MOL0     H77446   6.496   8.299   4.718 -0.7055 -1.0695 -0.9138
  574MOL0     H77447   6.363   8.412   4.661 -0.6525 -0.8746 -0.1712
  574MOL0     H77448   6.330   8.152   4.818 -0.1921  1.9243  2.8344
  574MOL0     H77449   6.301   8.186   4.644 -0.0468 -3.1270  0.8294
  574MOL0     H77450   6.165   7.985   4.681 -0.6367  0.5846 -0.2291
  574MOL0     H77451   5.939   7.840   4.482 -0.6522 -1.5454  0.9810
  574MOL0     H77452   6.091   7.825   4.564 -0.6208 -0.8314 -0.9577
  574MOL0     H77453   5.939   7.757   4.639 -0.2087 -2.4593 -2.7409
  574MOL0     H77454   5.521   8.026   4.325  3.1399 -0.7716  2.1548
  574MOL0     H77455   5.342   7.856   4.224  2.0426 -0.1527 -1.0395
  574MOL0     H77456   5.086   7.594   4.515  1.1441  0.6931  1.1055
  574MOL0     H77457   5.036   7.760   4.544 -1.0686  1.0897 -2.3340
  574MOL0     H77458   4.885   7.775   4.364 -0.7813  0.8136  0.7521
  574MOL0     H77459   4.937   7.625   4.292 -1.0667  0.3233 -0.8059
  574MOL0     H77460   4.806   7.638   4.566 -2.2781 -2.8802  0.8164
  574MOL0     H77461   4.844   7.495   4.462  4.1401  0.9991  0.7549
  574MOL0     H77462   4.651   7.725   4.404  0.3783 -0.8685  2.1231
  574MOL0     H77463   4.698   7.594   4.291  0.2612  1.1221 -0.0636
  574MOL0     H77464   4.459   7.557   4.418  0.4450  2.9035 -1.3398
  574MOL0     H77465   4.545   7.545   4.562 -2.1281 -2.3904  2.0002
  574MOL0     H77466   4.550   7.343   4.328  0.5438 -2.6194  1.2682
  574MOL0     H77467   4.681   7.346   4.441  0.6853  1.2965  1.5022
  574MOL0     H77468   4.407   7.359   4.575 -0.5852 -0.0276  0.1965
  574MOL0     H77469   4.562   7.294   4.619 -0.5799  0.8266  1.1547
  574MOL0     H77470   4.441   7.097   4.565 -1.0578 -0.7154 -1.4093
  574MOL0     H77471   4.537   7.114   4.421  0.9807  0.1964  1.2423
  574MOL0     H77472   5.260   7.739   4.629 -3.4758  2.2364 -0.8172
  574MOL0     H77473   5.435   7.891   4.701 -0.7709  2.1186 -0.2496
  574MOL0     H77474   5.717   8.192   4.724 -0.4043  0.5542  1.3664
  574MOL0     H77475   5.916   8.326   4.764  2.6473 -0.1398  1.1124
  574MOL0     H77476   7.831   8.463   5.900  1.2753  0.0651  0.7450
  574MOL0     H77477   8.083   8.440   5.843 -2.1489  0.2214  1.3881
  574MOL0     H77478   8.479   8.147   5.835 -0.8719  0.6914  0.5188
  574MOL0     H77479   8.688   8.109   5.745 -1.6198  0.1940  0.3141
  574MOL0     H77480   8.902   8.158   5.623  1.2624  2.9656 -1.8574
  574MOL0     H77481   8.826   8.000   5.581  1.8189  1.4470  3.7838
  574MOL0     H77482   8.943   8.031   5.353 -2.1484  0.1430  1.5062
  574MOL0     H77483   9.060   8.019   5.483  0.0339 -0.5591  1.0817
  574MOL0     H77484   8.978   8.289   5.415 -0.3825 -0.3259  0.1393
  574MOL0     H77485   9.105   8.220   5.311  0.7454  0.9736  0.3583
  574MOL0     H77486   9.121   8.232   5.611 -0.1681 -0.7956  0.5674
  574MOL0     H77487   9.197   8.352   5.518  0.3888 -1.0707 -1.3319
  574MOL0     H77488   9.464   8.047   5.456 -0.4857 -0.8011 -1.3879
  574MOL0     H77489   8.554   8.209   5.344 -1.1067 -1.0361  0.2977
  574MOL0     H77490   8.330   8.245   5.437  0.2082 -0.7677 -0.2375
  575MOL0     O77491   5.582   5.348   8.526 -0.1558 -0.3245 -0.4295
  575MOL0     C77492   5.511   5.246   8.556  0.4829  0.3023  1.4325
  575MOL0     O77493   5.389   5.216   8.490  0.4168 -0.6239 -0.2343
  575MOL0     C77494   5.317   5.303   8.406  0.0644 -1.4371 -0.1298
  575MOL0     C77495   5.371   5.420   8.345  0.4854  0.4024  0.9692
  575MOL0     C77496   5.293   5.499   8.257  0.2107 -0.0901 -0.9969
  575MOL0     C77497   5.157   5.476   8.236  0.0715 -0.5270  1.1936
  575MOL0     O77498   5.106   5.576   8.155 -0.6908  0.2299 -0.3654
  575MOL0     C77499   4.966   5.593   8.149  0.4739  0.1281  0.4746
  575MOL0     C77500   4.900   5.704   8.067 -0.4783  0.9017 -0.5065
  575MOL0     C77501   4.748   5.690   8.055 -0.4432 -0.5521 -0.0332
  575MOL0     C77502   4.694   5.824   7.995 -0.2769  0.8954 -0.3773
  575MOL0     C77503   4.544   5.818   7.951  0.5051 -0.2626 -0.1920
  575MOL0     C77504   4.514   5.725   7.833 -0.1790  0.0778  0.0796
  575MOL0     C77505   4.366   5.717   7.804  0.0950  0.2234  0.4950
  575MOL0     C77506   4.288   5.846   7.823  0.2174  0.5961  0.2829
  575MOL0     N77507   4.158   5.850   7.763  0.6858  0.1562 -0.5998
  575MOL0     C77508   4.041   5.803   7.814  0.0558  0.5009  0.4123
  575MOL0     C77509   3.962   5.818   7.703 -0.3079 -0.2380 -0.5922
  575MOL0     C77510   3.811   5.786   7.710 -0.8726  0.5223  1.0307
  575MOL0     C77511   3.738   5.818   7.575  0.3879  0.8520 -0.0997
  575MOL0     C77512   3.591   5.774   7.600  0.1311 -0.7197  0.0341
  575MOL0     C77513   3.490   5.822   7.500 -0.0203 -0.0272 -0.7844
  575MOL0     O77514   3.491   5.767   7.366 -0.7487 -0.2421  0.3561
  575MOL0     C77515   3.407   5.818   7.277  1.0401 -0.4308  0.3526
  575MOL0     C77516   3.286   5.888   7.307  0.5662  0.1558 -0.2914
  575MOL0     C77517   3.199   5.927   7.207 -0.2396 -1.0590  0.6599
  575MOL0     C77518   3.067   5.977   7.258  0.0335 -1.2288  0.2221
  575MOL0     C77519   3.220   5.898   7.067  1.3766 -0.0333 -0.3018
  575MOL0     C77520   3.115   5.922   6.958  0.5527 -0.6584 -0.2727
  575MOL0     O77521   3.129   5.871   6.835  0.4782 -0.1781 -0.0284
  575MOL0     C77522   3.012   5.842   6.765 -0.6493  0.9320  0.2661
  575MOL0     C77523   2.908   5.751   6.792 -0.0228 -0.0433  0.0858
  575MOL0     C77524   2.809   5.756   6.693  0.6833  0.3859  0.5219
  575MOL0     C77525   2.814   5.827   6.576  0.8745 -0.4865  0.1376
  575MOL0     O77526   2.702   5.827   6.496 -0.5740 -0.4937  0.1605
  575MOL0     C77527   2.640   5.957   6.480 -0.1821 -0.4000 -0.3862
  575MOL0     C77528   2.498   5.948   6.419  0.4812 -0.7834  1.1747
  575MOL0     C77529   2.460   6.062   6.314  1.4431 -0.0084 -0.2610
  575MOL0     C77530   2.468   6.199   6.390 -0.0101  0.4247  0.2758
  575MOL0     C77531   2.438   6.314   6.297  0.6049  0.2225  0.1620
  575MOL0     C77532   2.301   6.313   6.223 -0.2441  0.7101  0.1237
  575MOL0     C77533   2.280   6.438   6.142 -0.2362 -0.8800 -0.2890
  575MOL0     C77534   2.168   6.423   6.031  0.7140  1.0110 -0.2841
  575MOL0    Cl77535   2.139   6.574   5.937 -0.3653  0.1393 -0.0062
  575MOL0     C77536   2.917   5.912   6.550  0.5453 -0.5268 -1.2751
  575MOL0     C77537   3.017   5.914   6.646  0.6516  0.1257  0.7118
  575MOL0     O77538   3.033   6.019   6.981  0.1907  0.2665  1.0037
  575MOL0     C77539   3.341   5.838   7.033  0.3229  0.0487 -0.1653
  575MOL0     C77540   3.431   5.797   7.133  0.2528 -0.6619 -0.0756
  575MOL0     N77541   4.026   5.863   7.595 -0.1972 -0.4127  0.9607
  575MOL0     N77542   4.149   5.882   7.632  0.5635  0.1218  0.7740
  575MOL0     C77543   5.100   5.370   8.311 -0.7349 -0.4728  0.4049
  575MOL0     C77544   5.178   5.281   8.386  0.0275  0.7992 -0.4218
  575MOL0     C77545   5.549   5.151   8.658  0.5947  0.8741  0.2744
  575MOL0     C77546   5.649   5.184   8.758 -0.4188  0.6230  0.0514
  575MOL0     C77547   5.672   5.086   8.856 -0.1535  0.1389 -0.3998
  575MOL0     C77548   5.601   4.972   8.876  0.1847  0.3160 -0.6263
  575MOL0     O77549   5.645   4.886   8.974  0.1092  0.1902  0.6763
  575MOL0     C77550   5.553   4.791   9.027  0.2713 -0.6137 -0.0138
  575MOL0     C77551   5.625   4.738   9.147 -0.0930  0.6437 -0.3875
  575MOL0     C77552   5.766   4.686   9.125  0.1822 -1.1485 -0.1179
  575MOL0     C77553   5.832   4.618   9.253  0.0811  0.2692 -0.4311
  575MOL0     C77554   5.754   4.487   9.263  0.3205 -0.0754 -0.3573
  575MOL0     C77555   5.690   4.391   9.293  0.8215  0.2120 -0.1297
  575MOL0     C77556   5.502   4.936   8.786  0.4260  0.2041  0.5597
  575MOL0     C77557   5.471   5.034   8.684  0.0170  0.5225 -0.2834
  575MOL0     H77558   5.474   5.448   8.364  1.0620 -2.6566  2.9778
  575MOL0     H77559   5.341   5.578   8.201 -0.5507  1.7400  0.8252
  575MOL0     H77560   4.917   5.501   8.116  0.5683 -0.1704  1.1577
  575MOL0     H77561   4.933   5.604   8.253  1.1210 -4.5218  1.3712
  575MOL0     H77562   4.939   5.797   8.108 -1.7464  0.5094  1.7764
  575MOL0     H77563   4.934   5.705   7.963  2.1137  0.6491  0.2709
  575MOL0     H77564   4.720   5.599   7.999  0.9183 -1.9660  1.4834
  575MOL0     H77565   4.701   5.677   8.153 -4.6012  1.6313 -1.4610
  575MOL0     H77566   4.713   5.896   8.075  2.9409 -1.4107  1.1417
  575MOL0     H77567   4.755   5.855   7.910  0.7626  1.2456  0.4799
  575MOL0     H77568   4.498   5.790   8.046  3.0011  1.4473  1.6305
  575MOL0     H77569   4.511   5.916   7.916 -0.1331 -0.1033  0.8361
  575MOL0     H77570   4.577   5.757   7.749 -0.0170  0.5718  0.3799
  575MOL0     H77571   4.537   5.619   7.846 -0.0974 -0.2337 -2.1850
  575MOL0     H77572   4.352   5.682   7.701 -1.1885  1.3774  0.2506
  575MOL0     H77573   4.315   5.642   7.866  0.7203 -0.9313 -0.3310
  575MOL0     H77574   4.340   5.931   7.778 -1.1473  1.6658  0.6502
  575MOL0     H77575   4.279   5.871   7.929  1.4704  1.6680  0.1553
  575MOL0     H77576   4.015   5.771   7.914  0.5992 -1.4207 -0.0056
  575MOL0     H77577   3.813   5.678   7.728 -1.3915 -0.0282 -1.7329
  575MOL0     H77578   3.774   5.844   7.795 -1.7664  1.4879  0.0191
  575MOL0     H77579   3.776   5.763   7.488  0.8796  2.2755 -0.8211
  575MOL0     H77580   3.745   5.925   7.553 -3.2200  0.9522 -1.3489
  575MOL0     H77581   3.554   5.814   7.695 -1.4163  1.4748 -1.4095
  575MOL0     H77582   3.592   5.664   7.605  0.3809 -0.6539  2.2421
  575MOL0     H77583   3.509   5.930   7.493  2.3658 -0.3539 -0.4404
  575MOL0     H77584   3.389   5.815   7.542  0.9784 -4.5912  1.4450
  575MOL0     H77585   3.255   5.906   7.410  0.6663 -0.2333 -0.1902
  575MOL0     H77586   3.038   5.930   7.352  1.2912 -0.5442  0.9712
  575MOL0     H77587   3.068   6.086   7.261  2.8039 -0.9932 -2.9348
  575MOL0     H77588   2.984   5.946   7.193 -0.0810  0.3883 -0.4514
  575MOL0     H77589   2.901   5.686   6.878 -1.6059  1.1978  0.9624
  575MOL0     H77590   2.716   5.700   6.704 -0.5044  2.1233 -0.2466
  575MOL0     H77591   2.614   5.984   6.583 -2.0224 -2.1965 -0.3298
  575MOL0     H77592   2.708   6.024   6.426  2.0831 -2.5837 -0.4414
  575MOL0     H77593   2.503   5.852   6.368 -1.6884 -0.7587  0.8137
  575MOL0     H77594   2.417   5.928   6.490  1.0501 -0.9394  1.7957
  575MOL0     H77595   2.363   6.046   6.265  1.3382  0.6704 -0.2903
  575MOL0     H77596   2.530   6.069   6.231 -0.1804  0.2648 -1.6776
  575MOL0     H77597   2.396   6.197   6.472 -2.0491 -0.6135 -1.4244
  575MOL0     H77598   2.566   6.212   6.438 -0.3520 -2.3501  1.9751
  575MOL0     H77599   2.527   6.318   6.233  0.3391  0.2563 -0.2122
  575MOL0     H77600   2.441   6.399   6.365 -0.9757 -0.3791  1.0218
  575MOL0     H77601   2.274   6.232   6.155 -0.3924  0.7320  0.1548
  575MOL0     H77602   2.223   6.315   6.301 -0.7995  0.4924 -0.4177
  575MOL0     H77603   2.373   6.469   6.094 -0.4685 -0.6579 -0.5967
  575MOL0     H77604   2.239   6.516   6.207 -1.0589  0.3232 -2.1611
  575MOL0     H77605   2.070   6.398   6.073  0.7129 -1.2218 -1.4730
  575MOL0     H77606   2.198   6.339   5.968 -1.5913 -0.8321  0.9080
  575MOL0     H77607   2.917   5.960   6.453 -1.0687  0.7106 -0.7137
  575MOL0     H77608   3.104   5.976   6.624 -1.1971  1.8783 -2.3832
  575MOL0     H77609   3.357   5.822   6.926 -1.5200 -0.6230 -0.3860
  575MOL0     H77610   3.517   5.738   7.101 -0.6159 -1.1886 -1.5083
  575MOL0     H77611   4.996   5.339   8.305 -0.6975 -0.4734 -0.4284
  575MOL0     H77612   5.129   5.196   8.431 -0.7226  1.6272  0.3679
  575MOL0     H77613   5.719   5.266   8.755 -1.4496  1.5798  1.3978
  575MOL0     H77614   5.756   5.112   8.921 -1.3247 -0.8664  1.6045
  575MOL0     H77615   5.458   4.844   9.041 -0.5749 -1.4001 -2.3188
  575MOL0     H77616   5.531   4.715   8.951  0.3587 -0.5242 -0.1296
  575MOL0     H77617   5.557   4.658   9.177  0.3512  0.8633  1.2770
  575MOL0     H77618   5.640   4.811   9.227 -0.3626  0.0954  0.1709
  575MOL0     H77619   5.821   4.772   9.086 -2.0479 -0.0659 -1.0941
  575MOL0     H77620   5.768   4.616   9.042  3.1822  0.1031 -1.2490
  575MOL0     H77621   5.811   4.680   9.341  0.4616  1.7915 -1.3674
  575MOL0     H77622   5.937   4.599   9.230 -0.3215 -0.7121 -1.5699
  575MOL0     H77623   5.620   4.314   9.319 -1.1817  2.0032  0.1018
  575MOL0     H77624   5.458   4.837   8.789 -0.1379  0.3677 -1.3079
  575MOL0     H77625   5.387   5.020   8.617 -1.4521  2.1693  1.1162
  576MOL0     O77626   9.082   4.277   5.495 -0.9134 -0.0964 -0.6236
  576MOL0     C77627   9.111   4.338   5.598  0.0645  0.5298 -0.6903
  576MOL0     O77628   9.023   4.426   5.669 -0.0665  1.2232 -0.6763
  576MOL0     C77629   8.903   4.450   5.605  0.0495 -0.2940 -0.0253
  576MOL0     C77630   8.905   4.519   5.487 -0.7847 -0.3269  0.0446
  576MOL0     C77631   8.785   4.545   5.417 -0.2556 -0.3753 -0.3642
  576MOL0     C77632   8.663   4.501   5.469  0.4933 -0.4850  0.4042
  576MOL0     O77633   8.559   4.552   5.388 -0.8602  0.8453  0.0410
  576MOL0     C77634   8.433   4.501   5.389  1.1122  0.5339 -0.4258
  576MOL0     C77635   8.353   4.555   5.269  1.0491 -0.0423  0.1912
  576MOL0     C77636   8.326   4.709   5.262  0.0399 -0.7186 -0.3901
  576MOL0     C77637   8.264   4.768   5.131  0.8790  0.4477 -0.0101
  576MOL0     C77638   8.367   4.791   5.020  0.8982  0.4123  0.3931
  576MOL0     C77639   8.293   4.850   4.900  0.4343 -0.0951 -0.5743
  576MOL0     C77640   8.377   4.892   4.794 -0.5517  0.5809 -0.0308
  576MOL0     C77641   8.420   4.780   4.693 -0.2426  0.0345 -0.0416
  576MOL0     N77642   8.532   4.843   4.624  0.3063 -0.3962 -0.1171
  576MOL0     C77643   8.534   4.940   4.532  0.1608  0.4328 -0.7702
  576MOL0     C77644   8.657   4.935   4.476  0.8707  0.2379  0.6059
  576MOL0     C77645   8.708   5.014   4.358 -0.5336  0.6074  1.3535
  576MOL0     C77646   8.760   5.156   4.399 -0.2934 -0.4199  0.2483
  576MOL0     C77647   8.815   5.226   4.275 -0.7041 -0.0269  0.0836
  576MOL0     C77648   8.894   5.347   4.309 -0.1481  0.6785  0.2743
  576MOL0     O77649   9.019   5.295   4.362  0.4378 -0.3597 -0.1546
  576MOL0     C77650   9.118   5.392   4.375  1.2014  0.0449 -0.0363
  576MOL0     C77651   9.088   5.534   4.378 -0.4262 -0.4725 -0.0860
  576MOL0     C77652   9.190   5.632   4.406 -0.7995  0.0519 -0.4779
  576MOL0     C77653   9.155   5.774   4.412 -0.5897 -0.5764 -0.0337
  576MOL0     C77654   9.320   5.581   4.445  0.2792 -0.0013  0.7008
  576MOL0     C77655   9.442   5.663   4.462  0.2635  0.0727 -0.4718
  576MOL0     O77656   9.493   5.675   4.584  0.3637  0.1650  0.3955
  576MOL0     C77657   9.617   5.731   4.586 -0.1969  0.2466 -0.7087
  576MOL0     C77658   9.736   5.656   4.614 -0.9993 -0.2157  1.0238
  576MOL0     C77659   9.856   5.724   4.613 -0.5826 -0.1261 -0.6163
  576MOL0     C77660   9.864   5.862   4.589  0.5950  0.2108 -0.4367
  576MOL0     O77661   9.993   5.909   4.590 -0.1039 -0.4714 -0.4003
  576MOL0     C77662  10.027   6.019   4.503  0.5711  0.1298  0.3010
  576MOL0     C77663  10.051   6.142   4.585  0.1298 -0.3798  0.6632
  576MOL0     C77664  10.058   6.275   4.511  0.6815 -0.6660  0.3288
  576MOL0     C77665   9.913   6.334   4.492  0.4462 -0.1025 -0.1133
  576MOL0     C77666   9.920   6.443   4.390 -0.1338  0.3177  0.8449
  576MOL0     C77667   9.780   6.483   4.338  0.0000  0.2886 -1.1652
  576MOL0     C77668   9.778   6.530   4.197 -0.2738  0.5636 -0.2874
  576MOL0     C77669   9.816   6.418   4.104  0.2801  0.0248  0.9605
  576MOL0    Cl77670   9.869   6.468   3.942 -0.6630  0.1236 -0.7569
  576MOL0     C77671   9.748   5.936   4.588  0.2773 -0.5324  0.1272
  576MOL0     C77672   9.623   5.871   4.588  0.5371 -0.2334 -0.0852
  576MOL0     O77673   9.478   5.718   4.366 -0.3253 -0.4248  0.7448
  576MOL0     C77674   9.348   5.441   4.445 -0.5859 -0.0470 -0.6826
  576MOL0     C77675   9.248   5.352   4.412  0.9636  0.3772  0.6888
  576MOL0     N77676   8.729   4.828   4.530  0.7779  0.9407 -1.4039
  576MOL0     N77677   8.653   4.778   4.624 -0.6248  0.0815 -0.7325
  576MOL0     C77678   8.653   4.419   5.576 -0.4406  1.1213 -0.6599
  576MOL0     C77679   8.780   4.399   5.651  0.7919  0.6055 -0.4747
  576MOL0     C77680   9.240   4.313   5.663  0.3432  0.5983 -0.2305
  576MOL0     C77681   9.310   4.192   5.624  0.0124  0.5844  0.1192
  576MOL0     C77682   9.449   4.189   5.656  0.3357  0.6045 -0.3226
  576MOL0     C77683   9.510   4.296   5.722  0.4819  0.5468  0.7562
  576MOL0     O77684   9.650   4.286   5.710 -0.0969 -0.8859 -0.0968
  576MOL0     C77685   9.690   4.302   5.574 -0.2497  0.2938  0.6913
  576MOL0     C77686   9.813   4.209   5.570 -0.5469 -1.1158  1.3439
  576MOL0     C77687   9.783   4.061   5.603 -0.1813  0.6189 -0.6918
  576MOL0     C77688   9.907   3.967   5.583  0.7839  0.5878 -0.0286
  576MOL0     C77689   9.878   3.821   5.603 -0.4656  0.1195  0.6559
  576MOL0     C77690   9.874   3.701   5.608 -0.5697 -0.3597 -0.4417
  576MOL0     C77691   9.441   4.401   5.781 -0.6154 -0.6503 -0.0252
  576MOL0     C77692   9.303   4.403   5.755 -0.0255  0.1781 -0.4109
  576MOL0     H77693   9.003   4.549   5.452  0.0379 -1.6255  1.1393
  576MOL0     H77694   8.792   4.600   5.324  0.4425  2.8498  1.3950
  576MOL0     H77695   8.427   4.392   5.402 -0.4758  0.7300  0.7471
  576MOL0     H77696   8.380   4.550   5.471 -0.7464 -3.1257  0.7795
  576MOL0     H77697   8.396   4.507   5.181 -0.9499 -0.5761 -0.5254
  576MOL0     H77698   8.253   4.515   5.286 -0.2759  2.2050 -1.7128
  576MOL0     H77699   8.260   4.741   5.343  0.0173  2.7989 -1.6268
  576MOL0     H77700   8.418   4.763   5.284 -1.4631  1.8608 -0.0537
  576MOL0     H77701   8.188   4.701   5.090  1.7448 -1.6980  1.7170
  576MOL0     H77702   8.211   4.861   5.153 -0.5278 -1.0508  3.6161
  576MOL0     H77703   8.448   4.857   5.054  0.4125  0.5836  1.2185
  576MOL0     H77704   8.414   4.695   4.995  1.9896  0.9218  0.4412
  576MOL0     H77705   8.227   4.773   4.861 -2.5735  1.1970  1.5997
  576MOL0     H77706   8.234   4.933   4.940  2.2203 -0.3044  2.9994
  576MOL0     H77707   8.324   4.961   4.728 -0.6902 -0.5007 -1.0846
  576MOL0     H77708   8.472   4.935   4.828  0.8025 -1.9107 -0.4445
  576MOL0     H77709   8.336   4.753   4.629  0.9561 -0.7546 -1.3539
  576MOL0     H77710   8.462   4.692   4.743  0.8642  1.3127  1.4018
  576MOL0     H77711   8.454   5.006   4.504  1.3166  0.8711 -3.2757
  576MOL0     H77712   8.789   4.954   4.316 -1.4611  0.1537  0.1490
  576MOL0     H77713   8.630   5.020   4.282  0.4245 -0.3722  0.2678
  576MOL0     H77714   8.841   5.142   4.471  0.7042  1.4817 -0.4214
  576MOL0     H77715   8.683   5.222   4.440  0.2553  0.0250  0.5728
  576MOL0     H77716   8.738   5.247   4.200  1.4023 -0.5951 -2.4069
  576MOL0     H77717   8.878   5.151   4.226 -0.1118  0.0946  0.6472
  576MOL0     H77718   8.832   5.408   4.376 -4.4433 -1.1611 -1.6469
  576MOL0     H77719   8.916   5.413   4.224 -1.5051  1.6389  0.6396
  576MOL0     H77720   8.985   5.567   4.371 -0.7407 -1.4759 -0.3625
  576MOL0     H77721   9.191   5.820   4.320  3.0619 -0.5212  1.2862
  576MOL0     H77722   9.046   5.780   4.420 -0.4419  0.5182  1.6605
  576MOL0     H77723   9.191   5.828   4.499 -0.3307  0.1989 -0.6123
  576MOL0     H77724   9.739   5.548   4.625  1.5496 -0.0177  3.1028
  576MOL0     H77725   9.939   5.660   4.642  0.0306  0.3216 -1.3427
  576MOL0     H77726  10.125   5.990   4.464  0.7495 -1.4888  1.8308
  576MOL0     H77727   9.955   6.050   4.427 -0.3963  3.6213  2.3885
  576MOL0     H77728   9.978   6.154   4.665 -0.2163  0.2277  0.2586
  576MOL0     H77729  10.145   6.121   4.638  0.2238 -2.3794 -0.1861
  576MOL0     H77730  10.111   6.259   4.417 -1.8545 -0.3737 -1.2420
  576MOL0     H77731  10.115   6.344   4.574  0.6839 -0.2405 -0.1307
  576MOL0     H77732   9.849   6.259   4.446  1.8119 -0.5418 -1.3785
  576MOL0     H77733   9.883   6.372   4.590  2.6305  1.2941  0.0942
  576MOL0     H77734   9.984   6.412   4.307 -2.1559 -0.0202 -0.6580
  576MOL0     H77735   9.977   6.526   4.433  1.1048  0.3205 -0.7263
  576MOL0     H77736   9.713   6.397   4.338  0.9506 -0.6818  2.7533
  576MOL0     H77737   9.735   6.559   4.403  0.2221 -0.7063  0.1981
  576MOL0     H77738   9.856   6.606   4.184  2.2159 -1.6757  0.7089
  576MOL0     H77739   9.675   6.564   4.178 -0.5540  0.3303  0.7787
  576MOL0     H77740   9.722   6.365   4.086 -0.4280  2.0462 -2.1715
  576MOL0     H77741   9.885   6.337   4.130 -0.2431 -1.2987 -1.4669
  576MOL0     H77742   9.747   6.044   4.577 -0.6771 -0.4666  0.7313
  576MOL0     H77743   9.537   5.936   4.575  1.4917  1.7205  2.5936
  576MOL0     H77744   9.448   5.409   4.472 -0.4140 -0.7212 -2.0092
  576MOL0     H77745   9.270   5.245   4.413 -1.9284 -0.3002  1.3361
  576MOL0     H77746   8.562   4.378   5.619  0.0069  0.7122 -0.0792
  576MOL0     H77747   8.780   4.336   5.740  1.2613  0.0486 -0.8672
  576MOL0     H77748   9.276   4.108   5.565 -1.0464  1.5618 -0.7250
  576MOL0     H77749   9.515   4.115   5.611 -1.3885  0.5143 -2.9969
  576MOL0     H77750   9.618   4.265   5.500  1.0282 -1.9963  0.4990
  576MOL0     H77751   9.724   4.402   5.545  1.9845 -0.2103  1.3247
  576MOL0     H77752   9.892   4.259   5.626  2.1895 -3.0475 -0.4842
  576MOL0     H77753   9.856   4.213   5.469  3.2269 -1.6687  2.7715
  576MOL0     H77754   9.712   4.023   5.529 -0.8486  0.0711  0.2214
  576MOL0     H77755   9.742   4.057   5.704  1.6835  0.2885  0.0799
  576MOL0     H77756   9.987   3.999   5.651 -0.2182  0.5703  1.2074
  576MOL0     H77757   9.941   3.975   5.480 -0.3475  0.0349 -0.4610
  576MOL0     H77758   9.883   3.595   5.593  2.3792 -0.1268 -0.9832
  576MOL0     H77759   9.491   4.470   5.848 -0.4991 -0.2840 -0.4866
  576MOL0     H77760   9.245   4.482   5.801  0.5947 -1.1851  3.0416
  577MOL0     O77761   5.169   7.390   4.187 -0.4370  0.7835 -0.3250
  577MOL0     C77762   5.197   7.423   4.072  0.4203 -0.1133  0.4628
  577MOL0     O77763   5.119   7.397   3.951 -0.3037  0.5726 -0.0822
  577MOL0     C77764   4.995   7.341   3.963 -0.4850 -0.5700  0.2993
  577MOL0     C77765   4.902   7.364   4.066 -0.0360 -0.0187  0.2100
  577MOL0     C77766   4.777   7.301   4.066  0.2421 -0.9688 -0.2572
  577MOL0     C77767   4.738   7.227   3.952  0.3140 -0.5037  0.4905
  577MOL0     O77768   4.619   7.163   3.966  0.4535  0.2278 -0.5718
  577MOL0     C77769   4.568   7.097   3.851 -0.5245 -0.1740 -0.2118
  577MOL0     C77770   4.439   7.021   3.889 -0.9095 -0.8458  0.5090
  577MOL0     C77771   4.393   6.951   3.756  0.3145  0.1997 -0.3327
  577MOL0     C77772   4.257   6.883   3.782 -0.4588 -0.1848 -0.2570
  577MOL0     C77773   4.237   6.770   3.679  0.3623  0.4347 -0.3556
  577MOL0     C77774   4.102   6.704   3.671 -0.2591  0.2092  0.0524
  577MOL0     C77775   4.106   6.585   3.573 -0.3046  0.1582  0.2209
  577MOL0     C77776   3.983   6.499   3.596  0.3954  0.6901 -1.1373
  577MOL0     N77777   3.864   6.567   3.545 -0.5675 -0.6512 -0.5655
  577MOL0     C77778   3.736   6.529   3.588  0.2136 -0.9191 -0.7376
  577MOL0     C77779   3.658   6.592   3.495 -0.1931 -0.5137 -0.1455
  577MOL0     C77780   3.512   6.573   3.483 -0.0651  1.3047  0.8526
  577MOL0     C77781   3.430   6.682   3.561  0.4062 -0.3933  0.7723
  577MOL0     C77782   3.294   6.626   3.589 -0.1970 -0.4922  0.1611
  577MOL0     C77783   3.203   6.587   3.467 -0.5188  0.9294  0.1758
  577MOL0     O77784   3.066   6.563   3.506 -0.2951  1.0432 -0.5568
  577MOL0     C77785   2.981   6.540   3.408  0.1764 -0.5399 -0.8259
  577MOL0     C77786   2.982   6.416   3.335 -0.6385 -0.0061 -0.4480
  577MOL0     C77787   2.881   6.396   3.242 -0.2670  1.3711 -0.7858
  577MOL0     C77788   2.889   6.266   3.162  1.0259  1.0510 -1.4441
  577MOL0     C77789   2.772   6.487   3.233  0.1996 -0.0682  1.4119
  577MOL0     C77790   2.650   6.465   3.141 -0.5174  0.2216  0.7005
  577MOL0     O77791   2.675   6.411   3.020  0.4475  0.1302  0.1545
  577MOL0     C77792   2.577   6.363   2.939 -0.0463 -0.2356  0.8144
  577MOL0     C77793   2.441   6.400   2.938 -0.2685  0.0613 -0.3167
  577MOL0     C77794   2.355   6.357   2.836  0.5883 -0.0571  0.7331
  577MOL0     C77795   2.406   6.274   2.733 -0.2355  0.1850  0.2079
  577MOL0     O77796   2.316   6.210   2.651  0.3187  0.5917  0.2572
  577MOL0     C77797   2.336   6.225   2.514  0.0135 -0.1130  0.2942
  577MOL0     C77798   2.224   6.169   2.435 -0.0459 -0.3547 -0.2593
  577MOL0     C77799   2.099   6.250   2.471 -0.8302 -0.4172  0.3843
  577MOL0     C77800   1.991   6.254   2.364 -0.7198  0.1405  0.2214
  577MOL0     C77801   1.870   6.326   2.415  0.5520 -0.1304 -0.2310
  577MOL0     C77802   1.770   6.232   2.490  0.7781  0.5171  0.6438
  577MOL0     C77803   1.712   6.117   2.401 -0.5315 -0.8110  0.2951
  577MOL0     C77804   1.680   6.140   2.257  0.3391  0.1380 -0.0661
  577MOL0    Cl77805   1.550   6.248   2.226  0.1626  0.1875  0.4553
  577MOL0     C77806   2.541   6.238   2.737 -0.2660 -0.2175 -0.0068
  577MOL0     C77807   2.623   6.286   2.838 -0.8442 -0.1709 -0.0623
  577MOL0     O77808   2.538   6.476   3.197 -0.3236  0.6360 -0.1614
  577MOL0     C77809   2.788   6.616   3.293  0.8301  1.1242 -0.3456
  577MOL0     C77810   2.888   6.638   3.385  0.0120 -0.7306  0.0485
  577MOL0     N77811   3.742   6.669   3.410  0.2357  0.4756 -0.2948
  577MOL0     N77812   3.861   6.664   3.449  0.3476  0.1743 -0.1606
  577MOL0     C77813   4.827   7.209   3.844 -0.7340 -1.1264  0.2105
  577MOL0     C77814   4.949   7.273   3.847  0.2544 -0.0905 -0.1712
  577MOL0     C77815   5.336   7.464   4.039  0.3335 -0.8195 -0.5389
  577MOL0     C77816   5.410   7.513   4.149  0.0833  0.4163  1.2794
  577MOL0     C77817   5.540   7.569   4.119 -0.0532 -0.0866 -0.2695
  577MOL0     C77818   5.586   7.588   3.984 -0.3931 -0.0296 -0.0229
  577MOL0     O77819   5.708   7.641   3.956 -0.1972  0.2331 -0.8580
  577MOL0     C77820   5.812   7.636   4.049  0.5893 -0.0456 -0.8510
  577MOL0     C77821   5.929   7.734   4.009  0.4319  0.2058 -0.4352
  577MOL0     C77822   6.019   7.665   3.911 -0.7774 -0.0732 -0.0205
  577MOL0     C77823   6.127   7.751   3.846  0.8225 -0.2353 -0.4026
  577MOL0     C77824   6.195   7.685   3.743  0.0311 -0.4622 -0.4264
  577MOL0     C77825   6.275   7.634   3.664  0.2653  0.1390 -0.3133
  577MOL0     C77826   5.510   7.544   3.879 -0.1285 -0.2889  0.0168
  577MOL0     C77827   5.388   7.484   3.911  0.1443  1.3402  0.6470
  577MOL0     H77828   4.921   7.425   4.153  1.4660 -0.9948  0.5991
  577MOL0     H77829   4.700   7.303   4.143  1.9886 -3.7736  1.7388
  577MOL0     H77830   4.558   7.173   3.773  0.6758 -0.3293 -0.5358
  577MOL0     H77831   4.633   7.019   3.809  1.8066  0.9490  1.1483
  577MOL0     H77832   4.461   6.946   3.966 -1.8479 -3.8124 -1.8782
  577MOL0     H77833   4.371   7.094   3.933  0.5253  1.2705 -0.6545
  577MOL0     H77834   4.369   7.018   3.673 -1.7765  0.3931  0.3664
  577MOL0     H77835   4.462   6.874   3.719 -0.0114 -0.3642  0.2125
  577MOL0     H77836   4.250   6.840   3.882  1.6886  3.7459  1.7809
  577MOL0     H77837   4.185   6.963   3.761  3.4753  3.2114 -2.3327
  577MOL0     H77838   4.262   6.810   3.580  2.5155  0.3946  0.1181
  577MOL0     H77839   4.311   6.690   3.685  0.0443  0.2529  4.2386
  577MOL0     H77840   4.088   6.657   3.769 -0.2362 -1.6216 -0.8017
  577MOL0     H77841   4.026   6.778   3.644 -1.4532 -0.7150  0.7536
  577MOL0     H77842   4.112   6.622   3.470  2.0632 -0.3391  0.1313
  577MOL0     H77843   4.189   6.518   3.595 -1.1438 -1.0640 -0.2319
  577MOL0     H77844   3.977   6.479   3.704  2.1274  2.2446 -0.7074
  577MOL0     H77845   3.995   6.409   3.535  1.3246 -2.6130  3.3404
  577MOL0     H77846   3.704   6.463   3.668  0.3301  0.2513  0.3059
  577MOL0     H77847   3.489   6.563   3.376  3.3168  0.1111  0.1051
  577MOL0     H77848   3.486   6.475   3.524  2.7924  0.1588  0.1903
  577MOL0     H77849   3.416   6.782   3.521 -0.5842 -0.3799  1.1252
  577MOL0     H77850   3.489   6.695   3.653  2.8831 -2.5253 -0.3586
  577MOL0     H77851   3.246   6.705   3.647 -1.7637 -2.5855  1.9221
  577MOL0     H77852   3.302   6.548   3.666 -0.6371  0.4599  1.2012
  577MOL0     H77853   3.233   6.487   3.434 -4.0965 -0.6172  1.1328
  577MOL0     H77854   3.223   6.650   3.381  1.2474 -1.2813 -1.1259
  577MOL0     H77855   3.057   6.339   3.355  2.6191  3.7282  3.8999
  577MOL0     H77856   2.793   6.215   3.147  0.7837  1.1771 -0.3659
  577MOL0     H77857   2.935   6.303   3.070  1.4066  1.9466 -0.9001
  577MOL0     H77858   2.955   6.197   3.215 -0.7415  0.2881 -0.0896
  577MOL0     H77859   2.395   6.449   3.023 -0.0989 -3.6914  2.2054
  577MOL0     H77860   2.252   6.386   2.853  1.4031  2.2028  2.2771
  577MOL0     H77861   2.348   6.329   2.481 -1.4795  0.2168  0.7325
  577MOL0     H77862   2.430   6.181   2.481 -0.4230  0.0383 -1.2393
  577MOL0     H77863   2.259   6.174   2.331  2.5703 -3.6936  0.2664
  577MOL0     H77864   2.196   6.064   2.448 -2.7533  0.3921  0.5415
  577MOL0     H77865   2.127   6.352   2.501  1.0633 -1.2841  1.8127
  577MOL0     H77866   2.050   6.204   2.557 -2.3794 -0.0521 -0.2750
  577MOL0     H77867   2.040   6.307   2.283  0.4149  0.7424  1.2778
  577MOL0     H77868   1.980   6.153   2.323  1.1269 -0.0815  0.1965
  577MOL0     H77869   1.807   6.369   2.337 -0.0492  1.2047  0.9434
  577MOL0     H77870   1.903   6.408   2.480  2.9428 -1.4265  0.3036
  577MOL0     H77871   1.814   6.183   2.577 -1.1627 -0.8032  0.9549
  577MOL0     H77872   1.687   6.298   2.519 -0.2465 -0.0487 -0.8498
  577MOL0     H77873   1.625   6.062   2.439 -0.5007 -0.0690  1.5088
  577MOL0     H77874   1.797   6.049   2.403  1.0208  1.0755  1.0815
  577MOL0     H77875   1.659   6.044   2.208 -1.3175  1.0273 -1.1812
  577MOL0     H77876   1.770   6.190   2.222 -1.0664  2.5624 -0.4702
  577MOL0     H77877   2.572   6.165   2.663 -1.2122  0.2160 -0.8631
  577MOL0     H77878   2.730   6.267   2.836 -0.6423  0.8161  0.5324
  577MOL0     H77879   2.710   6.691   3.281 -3.3993 -2.7759  0.0356
  577MOL0     H77880   2.888   6.734   3.436 -1.3169 -0.0052 -1.2578
  577MOL0     H77881   4.800   7.146   3.760  0.0351 -0.1872 -0.7686
  577MOL0     H77882   5.018   7.279   3.764 -1.4522 -1.0627 -1.7489
  577MOL0     H77883   5.377   7.510   4.253 -3.4372 -3.5076  0.3151
  577MOL0     H77884   5.588   7.613   4.207 -1.0220  2.8649 -1.0938
  577MOL0     H77885   5.773   7.678   4.142 -0.3926 -0.6993 -0.9443
  577MOL0     H77886   5.854   7.538   4.072  2.2344  0.2283 -2.5191
  577MOL0     H77887   6.002   7.749   4.089  3.1093 -4.7419 -1.4893
  577MOL0     H77888   5.889   7.826   3.967 -0.1242 -0.7208 -2.0557
  577MOL0     H77889   5.964   7.614   3.831  0.9818 -0.9216 -0.7363
  577MOL0     H77890   6.067   7.579   3.958  2.5259  2.0934  0.8757
  577MOL0     H77891   6.195   7.792   3.922  2.1993 -3.4673  0.2715
  577MOL0     H77892   6.091   7.845   3.802  4.6160  2.0153  0.8518
  577MOL0     H77893   6.331   7.584   3.588  2.4807  2.4653 -0.3551
  577MOL0     H77894   5.551   7.547   3.779 -0.1632 -0.8859 -0.0195
  577MOL0     H77895   5.322   7.446   3.834 -1.2399  0.8032  2.0675
  578MOL0     O77896   1.003   0.028   6.285 -0.3880  0.3318 -0.4404
  578MOL0     C77897   0.995   0.139   6.237  0.2416 -0.6371  0.3243
  578MOL0     O77898   0.877   0.212   6.227  0.7295  0.1021 -0.5803
  578MOL0     C77899   0.760   0.168   6.286  0.0680  1.1091 -0.2408
  578MOL0     C77900   0.745   0.069   6.384  0.0865  0.2872 -0.0004
  578MOL0     C77901   0.627   0.046   6.465 -0.3535  0.0109  0.4922
  578MOL0     C77902   0.507   0.108   6.417  0.0114  0.0345 -0.4209
  578MOL0     O77903   0.381   0.074   6.480 -0.1958 -0.5626  0.6839
  578MOL0     C77904   0.268   0.137   6.430 -0.1929  0.3056  0.3965
  578MOL0     C77905   0.169   0.134   6.546 -0.6021  0.7449  0.0263
  578MOL0     C77906   0.135  -0.004   6.610  0.7235 -0.1448 -0.2600
  578MOL0     C77907   0.018   0.005   6.706  0.5741  0.2462  0.1155
  578MOL0     C77908  -0.015  -0.139   6.764 -0.2349 -0.3677  0.6263
  578MOL0     C77909  -0.123  -0.128   6.879  0.4877  0.3649  0.0235
  578MOL0     C77910  -0.252  -0.055   6.847 -0.5222 -0.2645 -0.0856
  578MOL0     C77911  -0.357  -0.074   6.952 -0.5804 -0.2658 -0.0255
  578MOL0     N77912  -0.469   0.017   6.933 -0.0484  0.1868  0.2438
  578MOL0     C77913  -0.469   0.146   6.911 -0.3896  0.5309  0.2611
  578MOL0     C77914  -0.596   0.183   6.892  1.0810 -0.3506  0.5745
  578MOL0     C77915  -0.653   0.324   6.861  0.1748  0.1077  0.3080
  578MOL0     C77916  -0.662   0.416   6.991 -1.1646  0.0858 -0.4318
  578MOL0     C77917  -0.670   0.344   7.128  0.0197  0.2338  0.1767
  578MOL0     C77918  -0.679   0.441   7.242  0.0595 -0.0225  0.4534
  578MOL0     O77919  -0.782   0.530   7.214 -0.3926 -0.3746  0.0724
  578MOL0     C77920  -0.906   0.492   7.255  0.1151  0.2908  0.0466
  578MOL0     C77921  -0.956   0.367   7.287  0.1823  0.8203  0.2844
  578MOL0     C77922  -1.089   0.349   7.335 -0.6365 -0.2577  0.7865
  578MOL0     C77923  -1.127   0.205   7.367  0.4127 -0.9679  0.1516
  578MOL0     C77924  -1.185   0.452   7.326 -0.3038  0.6341  0.0920
  578MOL0     C77925  -1.324   0.438   7.384 -0.5964 -1.4833 -0.2557
  578MOL0     O77926  -1.341   0.361   7.492  0.0460 -0.1586  0.7847
  578MOL0     C77927  -1.453   0.349   7.552  0.7169 -0.1907 -0.9147
  578MOL0     C77928  -1.513   0.463   7.610 -0.3094  0.4133 -0.2398
  578MOL0     C77929  -1.627   0.450   7.685  0.0946  0.4210  0.1815
  578MOL0     C77930  -1.682   0.318   7.717 -0.2817 -0.6988 -0.0672
  578MOL0     O77931  -1.799   0.317   7.791 -0.5096  0.9892 -0.1303
  578MOL0     C77932  -1.840   0.196   7.859 -0.6093  0.8389 -0.2175
  578MOL0     C77933  -1.753   0.164   7.976 -1.1104  0.4785  0.3407
  578MOL0     C77934  -1.824   0.144   8.118  0.1470  0.2314  1.2274
  578MOL0     C77935  -1.846   0.268   8.194 -0.1740  0.6700  0.3958
  578MOL0     C77936  -1.911   0.248   8.335  0.0149  0.7365 -0.2288
  578MOL0     C77937  -1.902   0.391   8.393 -0.2743 -0.1336  0.5393
  578MOL0     C77938  -1.977   0.412   8.531 -0.3231  0.3209 -0.1127
  578MOL0     C77939  -1.917   0.325   8.645 -0.1818 -0.2008  0.4518
  578MOL0    Cl77940  -2.040   0.349   8.778 -0.1957 -0.1106  0.4886
  578MOL0     C77941  -1.631   0.204   7.648  0.0130  0.2492 -1.0636
  578MOL0     C77942  -1.509   0.225   7.572  0.8884 -0.7021  0.4507
  578MOL0     O77943  -1.409   0.509   7.334 -0.5832  0.0142  0.3958
  578MOL0     C77944  -1.126   0.579   7.289  0.3017 -0.2177 -0.3394
  578MOL0     C77945  -0.996   0.593   7.260  0.0346  0.6241  0.3403
  578MOL0     N77946  -0.676   0.070   6.900 -0.1709 -0.0399 -0.0411
  578MOL0     N77947  -0.595  -0.027   6.930 -0.8745  0.1236  0.2895
  578MOL0     C77948   0.521   0.193   6.311 -0.4040  0.0545  0.3132
  578MOL0     C77949   0.642   0.219   6.250  0.7532 -0.6979  0.1426
  578MOL0     C77950   1.114   0.173   6.158 -0.1015 -0.7833 -0.6340
  578MOL0     C77951   1.228   0.092   6.148  0.1528  0.9091  0.4424
  578MOL0     C77952   1.332   0.127   6.070  0.1539 -0.5176 -0.4702
  578MOL0     C77953   1.328   0.242   5.987 -0.6109 -0.0919 -0.5606
  578MOL0     O77954   1.442   0.288   5.916 -0.1537  0.0764 -0.4306
  578MOL0     C77955   1.537   0.198   5.869 -0.9410 -1.0233  0.1460
  578MOL0     C77956   1.472   0.116   5.757 -0.9976  0.5057  0.2676
  578MOL0     C77957   1.558   0.002   5.703  0.6457 -0.3267 -0.1667
  578MOL0     C77958   1.689   0.035   5.641 -0.1365  0.1980  0.3799
  578MOL0     C77959   1.674   0.059   5.494 -0.4188  0.2195 -0.4076
  578MOL0     C77960   1.657   0.099   5.382 -0.2131  0.0097 -0.2384
  578MOL0     C77961   1.212   0.314   5.987  0.1638  0.3155 -0.9778
  578MOL0     C77962   1.109   0.286   6.080  0.5304  0.2121 -0.1707
  578MOL0     H77963   0.826   0.014   6.430 -0.3421 -1.0692 -0.8219
  578MOL0     H77964   0.625  -0.032   6.540 -2.3858  0.2485  0.7551
  578MOL0     H77965   0.277   0.243   6.404 -0.7583 -0.0344 -1.2806
  578MOL0     H77966   0.225   0.099   6.337  1.6446  2.1929 -1.3388
  578MOL0     H77967   0.200   0.199   6.629  1.9964 -1.2358  0.7470
  578MOL0     H77968   0.076   0.173   6.505 -3.3343 -3.2423  1.7276
  578MOL0     H77969   0.110  -0.083   6.538 -1.3777 -0.8865  1.1866
  578MOL0     H77970   0.219  -0.041   6.669  0.4193 -1.0587 -0.3720
  578MOL0     H77971   0.030   0.078   6.787  1.0299  0.8244 -0.4602
  578MOL0     H77972  -0.072   0.042   6.655 -1.5011  0.3039  3.4847
  578MOL0     H77973  -0.059  -0.203   6.687 -1.8599 -0.7525  1.8152
  578MOL0     H77974   0.077  -0.192   6.790 -0.6458 -2.4748 -1.7794
  578MOL0     H77975  -0.137  -0.228   6.920  6.0040 -0.8953 -0.3967
  578MOL0     H77976  -0.079  -0.082   6.968 -1.4932  2.2402  0.1221
  578MOL0     H77977  -0.233   0.052   6.842 -1.6568 -0.0527 -0.2790
  578MOL0     H77978  -0.292  -0.103   6.757 -4.1014  0.5910  0.8752
  578MOL0     H77979  -0.311  -0.068   7.051  2.2962  0.5252 -1.2761
  578MOL0     H77980  -0.401  -0.174   6.955  0.8084 -0.8836  1.4475
  578MOL0     H77981  -0.386   0.217   6.909 -1.6617  2.0943 -2.2138
  578MOL0     H77982  -0.584   0.373   6.792 -0.5836 -0.5141 -0.9413
  578MOL0     H77983  -0.749   0.309   6.810  0.7381  0.0318 -0.7586
  578MOL0     H77984  -0.750   0.478   6.972 -1.2420 -0.8586 -3.8611
  578MOL0     H77985  -0.576   0.482   7.005  1.0446 -3.1558  3.0141
  578MOL0     H77986  -0.589   0.274   7.147  1.2128  1.7338  0.8872
  578MOL0     H77987  -0.757   0.280   7.110  0.2305 -0.0806  0.2805
  578MOL0     H77988  -0.584   0.494   7.236  0.3759 -0.6648 -0.4047
  578MOL0     H77989  -0.695   0.392   7.339  2.7407 -0.9806  0.4820
  578MOL0     H77990  -0.898   0.275   7.278  2.1365  2.1131 -1.5183
  578MOL0     H77991  -1.118   0.179   7.473 -3.5658  0.6935  1.0835
  578MOL0     H77992  -1.230   0.179   7.342  0.2687 -1.0949  0.8470
  578MOL0     H77993  -1.077   0.132   7.304 -0.6864 -1.5739 -0.0451
  578MOL0     H77994  -1.467   0.560   7.596 -2.8437  2.0681  1.8739
  578MOL0     H77995  -1.675   0.537   7.728 -1.0295 -0.4325  0.7114
  578MOL0     H77996  -1.939   0.210   7.902 -0.7720  1.8996 -0.9147
  578MOL0     H77997  -1.840   0.108   7.793 -0.1406  0.0310  0.8203
  578MOL0     H77998  -1.694   0.075   7.954 -1.9266 -0.6071  2.2321
  578MOL0     H77999  -1.680   0.245   7.983  0.3698 -0.6671 -1.1473
  578MOL0     H78000  -1.755   0.085   8.179  0.5107 -0.9428 -0.2551
  578MOL0     H78001  -1.920   0.093   8.106 -0.3950  1.7045 -1.3288
  578MOL0     H78002  -1.753   0.324   8.205  1.7811 -2.1428 -0.5563
  578MOL0     H78003  -1.911   0.328   8.130  1.3915 -1.8562 -4.0336
  578MOL0     H78004  -1.854   0.185   8.405  0.1119  2.6041  1.4714
  578MOL0     H78005  -2.018   0.225   8.336  0.3880 -1.3287 -1.1026
  578MOL0     H78006  -1.801   0.433   8.398 -0.6241  0.5953  1.7606
  578MOL0     H78007  -1.946   0.460   8.320  2.2635  2.4575  1.2615
  578MOL0     H78008  -2.084   0.390   8.519  0.0296 -1.5906  0.0002
  578MOL0     H78009  -1.969   0.519   8.552  2.4953  0.1837 -0.1011
  578MOL0     H78010  -1.812   0.346   8.669 -0.6975  0.6082  2.0832
  578MOL0     H78011  -1.920   0.218   8.620 -2.9761  0.0151 -0.5104
  578MOL0     H78012  -1.679   0.107   7.647 -0.0497  0.2786 -1.5409
  578MOL0     H78013  -1.465   0.139   7.523 -0.9978 -2.3226  1.4354
  578MOL0     H78014  -1.186   0.669   7.286  0.7579  0.6654  5.6242
  578MOL0     H78015  -0.968   0.691   7.223  2.1542 -0.3362 -0.7237
  578MOL0     H78016   0.436   0.249   6.273 -0.6796  2.0475  3.4869
  578MOL0     H78017   0.634   0.288   6.166  0.6767  0.5126  1.1138
  578MOL0     H78018   1.228  -0.004   6.200 -0.4924  0.9105  0.4505
  578MOL0     H78019   1.418   0.062   6.062  0.8983  0.3176  0.5523
  578MOL0     H78020   1.620   0.263   5.841 -1.9225  1.7642  3.1438
  578MOL0     H78021   1.587   0.145   5.951  0.4687 -0.0286 -0.0373
  578MOL0     H78022   1.457   0.185   5.673 -3.1164 -0.5646 -0.3115
  578MOL0     H78023   1.381   0.066   5.790 -0.7598  0.0500  0.2532
  578MOL0     H78024   1.504  -0.054   5.626  0.6190 -0.2638 -0.1935
  578MOL0     H78025   1.569  -0.067   5.787 -0.3109  0.9116  1.0240
  578MOL0     H78026   1.764  -0.044   5.651 -0.7394 -0.3409  0.7086
  578MOL0     H78027   1.732   0.117   5.699  2.3137  2.4896 -4.1743
  578MOL0     H78028   1.628   0.130   5.283 -1.3748 -0.3400 -0.0200
  578MOL0     H78029   1.210   0.403   5.925 -2.9245  2.0600  1.3181
  578MOL0     H78030   1.012   0.333   6.072 -0.6485 -1.5548  2.4605
  579MOL0     O78031   2.071   7.728   5.506 -0.2042 -0.3553  0.2107
  579MOL0     C78032   2.011   7.765   5.606 -0.1854 -0.2379  0.2212
  579MOL0     O78033   1.950   7.689   5.693  0.3054  0.1684  0.4845
  579MOL0     C78034   1.949   7.555   5.688  0.0343 -0.5220  0.0716
  579MOL0     C78035   2.067   7.483   5.661  0.1495  0.4514  0.0459
  579MOL0     C78036   2.052   7.344   5.658 -0.6658  0.2600 -0.1910
  579MOL0     C78037   1.932   7.274   5.683 -0.4233  0.1893  0.2734
  579MOL0     O78038   1.907   7.147   5.675  0.7800  0.3940  0.2172
  579MOL0     C78039   1.985   7.058   5.597 -1.0522 -0.3415 -0.1331
  579MOL0     C78040   1.947   7.077   5.458  0.3082 -0.1749 -1.0112
  579MOL0     C78041   2.037   6.991   5.371 -0.5332  0.0071  0.7925
  579MOL0     C78042   1.993   7.014   5.228 -0.7987 -0.0605  0.7741
  579MOL0     C78043   2.082   6.920   5.139 -0.2572  0.4252 -0.0077
  579MOL0     C78044   2.215   6.977   5.143 -0.2618 -1.4098  0.2510
  579MOL0     C78045   2.310   6.921   5.037  0.3234 -0.0579  0.1865
  579MOL0     C78046   2.458   6.952   5.048 -0.2333  0.3354  1.2989
  579MOL0     N78047   2.514   6.970   4.914 -0.5730  0.1699 -0.1229
  579MOL0     C78048   2.581   6.869   4.845 -0.1682 -0.0350 -0.1734
  579MOL0     C78049   2.575   6.913   4.714 -0.0035 -0.1448 -1.4494
  579MOL0     C78050   2.626   6.830   4.600 -0.2105  0.4838  0.1499
  579MOL0     C78051   2.512   6.790   4.498 -0.4031  0.5246 -0.7159
  579MOL0     C78052   2.561   6.695   4.392 -0.2885 -0.7827  0.6724
  579MOL0     C78053   2.616   6.563   4.449  0.2056 -0.3883 -0.1388
  579MOL0     O78054   2.680   6.493   4.343  0.6814  0.3137  0.0592
  579MOL0     C78055   2.813   6.464   4.368 -0.0190  1.0846 -0.8352
  579MOL0     C78056   2.859   6.331   4.359  0.5118  0.5590 -0.3341
  579MOL0     C78057   3.002   6.304   4.387  0.2248  0.8292  0.6179
  579MOL0     C78058   3.051   6.164   4.358  1.2255  0.0014  0.7148
  579MOL0     C78059   3.085   6.402   4.434  0.1597  0.3052  0.0821
  579MOL0     C78060   3.219   6.379   4.494 -0.7712 -0.5752  0.0290
  579MOL0     O78061   3.304   6.486   4.483 -0.0552 -0.5583 -0.0815
  579MOL0     C78062   3.440   6.463   4.517  0.1842 -0.4721 -0.8381
  579MOL0     C78063   3.503   6.540   4.610 -0.2941  0.4546  0.4665
  579MOL0     C78064   3.629   6.502   4.653 -0.5379 -0.8539 -0.2304
  579MOL0     C78065   3.696   6.395   4.607 -0.0652 -0.1447 -0.1372
  579MOL0     O78066   3.822   6.373   4.664  0.5247 -0.1894  0.1284
  579MOL0     C78067   3.891   6.249   4.633 -0.6661 -1.1414 -0.0359
  579MOL0     C78068   4.047   6.269   4.664 -0.0278 -0.6279 -0.4725
  579MOL0     C78069   4.116   6.355   4.550  0.2553 -0.4672  0.4847
  579MOL0     C78070   4.270   6.354   4.544 -0.1318  0.4018 -0.3016
  579MOL0     C78071   4.322   6.442   4.662 -0.2374  1.0459 -0.1678
  579MOL0     C78072   4.476   6.475   4.652 -0.3386 -0.0966  1.0105
  579MOL0     C78073   4.531   6.527   4.775 -0.5668  0.5645 -0.1108
  579MOL0     C78074   4.682   6.535   4.775 -0.6105  0.0548  0.8708
  579MOL0    Cl78075   4.743   6.635   4.923  0.5680  0.1539  0.5160
  579MOL0     C78076   3.649   6.327   4.493  0.3994 -0.4027 -0.6958
  579MOL0     C78077   3.519   6.354   4.461  0.4791 -0.4890 -0.3894
  579MOL0     O78078   3.241   6.271   4.550  0.2286  0.5643  0.2176
  579MOL0     C78079   3.036   6.527   4.452  0.1855 -0.4765 -0.1436
  579MOL0     C78080   2.904   6.562   4.406 -0.5309  0.7873  0.3758
  579MOL0     N78081   2.517   7.037   4.709  0.7976 -0.1205  0.4215
  579MOL0     N78082   2.490   7.072   4.831 -0.5278  0.7072 -0.1081
  579MOL0     C78083   1.816   7.355   5.708 -0.5432 -0.0682  0.5047
  579MOL0     C78084   1.829   7.493   5.708  0.9106  0.1555  0.2708
  579MOL0     C78085   2.031   7.907   5.638  0.0037  0.3539  0.5614
  579MOL0     C78086   2.028   7.955   5.771  0.1212  0.4108 -0.5832
  579MOL0     C78087   2.047   8.086   5.797  0.5929 -0.1835 -0.2627
  579MOL0     C78088   2.059   8.180   5.687 -0.1262 -0.0754  0.2937
  579MOL0     O78089   2.081   8.317   5.706 -0.5725 -0.2782 -0.6924
  579MOL0     C78090   2.153   8.355   5.824 -0.7514  0.1676 -0.2553
  579MOL0     C78091   2.203   8.507   5.825  0.4007 -0.5583  0.1816
  579MOL0     C78092   2.281   8.518   5.953  0.3010  0.3716 -0.0076
  579MOL0     C78093   2.429   8.499   5.952 -0.7509  0.7623 -0.1420
  579MOL0     C78094   2.475   8.366   5.908  0.1724  0.3158  0.1603
  579MOL0     C78095   2.506   8.259   5.874 -0.2207  0.1105  0.5566
  579MOL0     C78096   2.064   8.133   5.555  0.4251 -0.6405 -0.1542
  579MOL0     C78097   2.052   7.999   5.536  0.6084  0.1682  0.6365
  579MOL0     H78098   2.158   7.535   5.636 -1.3821  2.7906 -1.0040
  579MOL0     H78099   2.134   7.284   5.619 -2.0320 -1.9725  0.1871
  579MOL0     H78100   2.089   7.084   5.617 -1.7284  1.3902  1.3623
  579MOL0     H78101   1.987   6.954   5.633 -1.2391 -0.3731 -0.2134
  579MOL0     H78102   1.843   7.044   5.454  0.2810 -0.2724  0.1522
  579MOL0     H78103   1.965   7.182   5.432 -2.0198  0.7214  0.6646
  579MOL0     H78104   2.139   7.027   5.387 -0.6544  0.4737  0.5258
  579MOL0     H78105   2.037   6.884   5.391 -0.2785 -0.4379 -1.3387
  579MOL0     H78106   1.887   6.990   5.216 -0.1056 -1.7933 -3.6850
  579MOL0     H78107   2.006   7.120   5.203 -0.5806 -0.4276 -0.7884
  579MOL0     H78108   2.076   6.820   5.182 -2.2627 -0.1134 -1.3513
  579MOL0     H78109   2.037   6.915   5.039  2.0046 -0.6724 -1.0394
  579MOL0     H78110   2.221   7.086   5.134  3.3916 -1.3572  1.7337
  579MOL0     H78111   2.258   6.959   5.242 -3.0878 -1.6791  1.5262
  579MOL0     H78112   2.303   6.812   5.030  0.4306 -0.0269 -0.4024
  579MOL0     H78113   2.266   6.954   4.942 -2.5090 -1.3640  0.9209
  579MOL0     H78114   2.521   6.883   5.105  3.0252  0.4364 -1.8482
  579MOL0     H78115   2.471   7.054   5.086 -0.9802  2.1102 -2.7078
  579MOL0     H78116   2.623   6.776   4.882 -2.0947  0.3830  3.5127
  579MOL0     H78117   2.707   6.891   4.559  2.6738 -1.0500  3.2019
  579MOL0     H78118   2.678   6.741   4.633 -2.7336 -1.5263 -0.9198
  579MOL0     H78119   2.469   6.884   4.462 -2.8652  0.1431  0.9911
  579MOL0     H78120   2.432   6.736   4.549  0.2442 -1.4464 -1.6881
  579MOL0     H78121   2.644   6.739   4.335 -0.2055 -0.6371  0.9036
  579MOL0     H78122   2.482   6.672   4.320 -1.1286  0.5534  1.1285
  579MOL0     H78123   2.533   6.505   4.491 -0.4730  0.6429 -0.0110
  579MOL0     H78124   2.685   6.571   4.533  0.8638 -0.7349 -0.6383
  579MOL0     H78125   2.788   6.255   4.327  0.8608  0.1386 -0.1161
  579MOL0     H78126   3.132   6.154   4.285 -1.2722 -0.3726 -2.2288
  579MOL0     H78127   3.079   6.119   4.453  0.5340  2.6307  2.2569
  579MOL0     H78128   2.978   6.094   4.316  0.3060  0.8210  0.8837
  579MOL0     H78129   3.458   6.625   4.660 -1.9964 -1.0604  1.6311
  579MOL0     H78130   3.678   6.567   4.726 -0.8436 -0.0740 -0.7120
  579MOL0     H78131   3.854   6.162   4.688 -0.0511  0.3555  2.9689
  579MOL0     H78132   3.888   6.226   4.526  0.3408 -2.4518  0.1842
  579MOL0     H78133   4.056   6.327   4.756 -1.9233  2.5317 -2.0938
  579MOL0     H78134   4.087   6.167   4.667 -2.3049 -1.6388 -1.7172
  579MOL0     H78135   4.071   6.453   4.566  1.4333  0.0229  0.9137
  579MOL0     H78136   4.088   6.327   4.448 -0.0004  2.0083 -0.1824
  579MOL0     H78137   4.303   6.250   4.539 -0.0534  0.4572 -1.1073
  579MOL0     H78138   4.294   6.405   4.450  0.2624 -0.7060 -0.8167
  579MOL0     H78139   4.284   6.384   4.747 -0.0206 -2.7724 -2.4464
  579MOL0     H78140   4.256   6.529   4.654 -2.8675 -0.8882 -0.7993
  579MOL0     H78141   4.512   6.375   4.627 -1.7381 -0.5439  0.7186
  579MOL0     H78142   4.506   6.540   4.568  0.3463 -1.0140  0.5258
  579MOL0     H78143   4.497   6.469   4.862 -0.6209  0.2882 -0.3116
  579MOL0     H78144   4.495   6.630   4.783  2.3703  1.8615 -2.2637
  579MOL0     H78145   4.728   6.584   4.688 -3.0019 -0.1347 -0.5811
  579MOL0     H78146   4.729   6.436   4.778 -0.5375 -0.0251 -1.1726
  579MOL0     H78147   3.690   6.240   4.444 -0.9704 -1.4648 -0.0583
  579MOL0     H78148   3.465   6.299   4.384 -0.4786  0.3272 -0.3306
  579MOL0     H78149   3.096   6.611   4.488  2.8500 -2.4634  0.4230
  579MOL0     H78150   2.876   6.667   4.404 -3.4698  0.0917  0.7937
  579MOL0     H78151   1.720   7.305   5.716 -0.0802 -1.2613 -0.8575
  579MOL0     H78152   1.747   7.559   5.731  3.5623  2.8615  2.8786
  579MOL0     H78153   2.013   7.885   5.853  3.7153 -0.3981 -0.4608
  579MOL0     H78154   2.056   8.126   5.898 -1.6065 -0.8171  0.2316
  579MOL0     H78155   2.092   8.337   5.913 -1.2917  1.3900 -0.3601
  579MOL0     H78156   2.243   8.293   5.836  1.9416  3.9573  1.1178
  579MOL0     H78157   2.122   8.579   5.806 -0.7419 -1.9939 -0.6120
  579MOL0     H78158   2.271   8.533   5.743 -0.5545  3.1067  0.3790
  579MOL0     H78159   2.244   8.445   6.025 -0.4960 -0.9720 -1.7155
  579MOL0     H78160   2.262   8.618   5.995 -2.9086 -0.0727 -0.1186
  579MOL0     H78161   2.461   8.515   6.055 -0.7302 -0.9426  0.1325
  579MOL0     H78162   2.476   8.566   5.879  4.7203 -1.6794  0.6836
  579MOL0     H78163   2.543   8.163   5.843  0.2162  0.3734  0.2417
  579MOL0     H78164   2.084   8.206   5.477  0.5379 -0.1299  0.3473
  579MOL0     H78165   2.068   7.961   5.435  1.7001 -1.1227  1.2566
  580MOL0     O78166   8.331   0.386   3.854  0.1756  0.7269  0.0704
  580MOL0     C78167   8.235   0.322   3.897 -0.1880  0.5646 -0.6161
  580MOL0     O78168   8.101   0.334   3.845 -0.0726 -0.0282  0.9550
  580MOL0     C78169   8.079   0.411   3.732  0.2278 -0.0917 -0.8309
  580MOL0     C78170   8.160   0.401   3.615  0.0179  0.8136  0.0184
  580MOL0     C78171   8.119   0.464   3.494 -1.1527 -0.4350 -0.1378
  580MOL0     C78172   7.993   0.514   3.487  0.9209 -0.1505 -0.3342
  580MOL0     O78173   7.939   0.545   3.364  0.2590  0.8752  1.2712
  580MOL0     C78174   7.848   0.656   3.351  0.3320  0.4746  0.6228
  580MOL0     C78175   7.874   0.739   3.226  0.0190 -0.5614  0.7520
  580MOL0     C78176   7.803   0.878   3.239  0.0139  0.0258 -0.0212
  580MOL0     C78177   7.662   0.902   3.198  0.7272  0.4556  0.8712
  580MOL0     C78178   7.634   1.053   3.185  0.5220  0.9300 -0.9196
  580MOL0     C78179   7.489   1.084   3.135 -0.1635 -0.0811 -0.1243
  580MOL0     C78180   7.491   1.233   3.100 -0.5194  0.2701 -0.0985
  580MOL0     C78181   7.352   1.280   3.057 -0.0140  0.1780 -0.1400
  580MOL0     N78182   7.263   1.324   3.163 -0.4163 -0.1230 -0.0591
  580MOL0     C78183   7.131   1.286   3.181  0.1840  0.5107  0.1855
  580MOL0     C78184   7.087   1.369   3.277  0.0314 -0.1736 -0.2081
  580MOL0     C78185   6.943   1.356   3.328 -0.0003  0.1574  1.0084
  580MOL0     C78186   6.901   1.479   3.414 -0.2658 -0.8002  0.1581
  580MOL0     C78187   6.888   1.608   3.337  0.0432  0.5195 -0.3376
  580MOL0     C78188   6.782   1.621   3.234 -0.5030  0.2272  1.1241
  580MOL0     O78189   6.662   1.658   3.303 -0.8496  0.0303 -0.6405
  580MOL0     C78190   6.542   1.667   3.237  0.7231 -0.4086  0.9503
  580MOL0     C78191   6.525   1.669   3.099  0.3833  0.2721  0.0150
  580MOL0     C78192   6.390   1.664   3.046  0.1764  0.5059  0.2622
  580MOL0     C78193   6.371   1.648   2.899  0.7603 -1.0427 -0.0772
  580MOL0     C78194   6.274   1.679   3.126  0.6913  0.6664  0.3907
  580MOL0     C78195   6.128   1.699   3.088  0.1747  0.5165 -1.0179
  580MOL0     O78196   6.033   1.718   3.182  0.3891  0.5666  0.1829
  580MOL0     C78197   5.898   1.727   3.142 -0.4540  1.1160 -0.0641
  580MOL0     C78198   5.845   1.834   3.066  0.1116  1.0529 -0.4821
  580MOL0     C78199   5.716   1.813   3.013 -0.4708 -0.1574 -0.0879
  580MOL0     C78200   5.630   1.706   3.040 -0.2196 -0.0902 -0.2942
  580MOL0     O78201   5.508   1.699   2.979 -0.1502  0.0097 -0.3835
  580MOL0     C78202   5.447   1.823   2.929 -0.6457  0.0524  0.1946
  580MOL0     C78203   5.291   1.823   2.906  0.1092  0.6523  0.0906
  580MOL0     C78204   5.247   1.685   2.853  0.1940 -0.6543 -0.1130
  580MOL0     C78205   5.108   1.690   2.791  0.6248  0.1746  0.3307
  580MOL0     C78206   4.985   1.705   2.885  0.2240 -0.3422 -0.2063
  580MOL0     C78207   4.855   1.665   2.812 -0.4238 -0.7478  0.8957
  580MOL0     C78208   4.724   1.660   2.898 -0.5632  0.1445 -0.7346
  580MOL0     C78209   4.606   1.708   2.805 -0.9396  0.5763  0.2282
  580MOL0    Cl78210   4.461   1.698   2.902 -0.5482  0.1738  0.0314
  580MOL0     C78211   5.681   1.612   3.127  0.1061 -0.2067 -0.6373
  580MOL0     C78212   5.816   1.616   3.175 -0.0802  0.6899 -0.1357
  580MOL0     O78213   6.097   1.671   2.972  0.1124 -0.3749  0.7210
  580MOL0     C78214   6.304   1.670   3.266 -0.2708  0.2707  0.1881
  580MOL0     C78215   6.427   1.668   3.319  0.5072  0.3732 -0.3474
  580MOL0     N78216   7.183   1.468   3.303  0.6800  0.0784 -1.2740
  580MOL0     N78217   7.284   1.437   3.232 -0.1774 -0.2399  0.1220
  580MOL0     C78218   7.908   0.519   3.601 -0.0261  0.2855  0.7234
  580MOL0     C78219   7.957   0.481   3.727 -0.8457  0.2501  0.3247
  580MOL0     C78220   8.245   0.229   4.008  0.4439  0.8858 -0.5222
  580MOL0     C78221   8.139   0.141   4.041  0.9611  0.1356 -0.0887
  580MOL0     C78222   8.159   0.049   4.142 -0.9743  0.9553 -0.1816
  580MOL0     C78223   8.283   0.021   4.204  0.3988 -0.6897  0.3192
  580MOL0     O78224   8.320  -0.076   4.303  0.7656 -0.1698 -0.5226
  580MOL0     C78225   8.240  -0.202   4.287 -0.1987 -0.6494  0.4266
  580MOL0     C78226   8.302  -0.306   4.371  0.8620  0.4973  0.0662
  580MOL0     C78227   8.292  -0.261   4.519  0.5550 -0.5451 -0.4829
  580MOL0     C78228   8.181  -0.336   4.591 -0.1376  0.3380  0.0556
  580MOL0     C78229   8.053  -0.297   4.542  0.8381 -0.0402 -1.0679
  580MOL0     C78230   7.934  -0.255   4.518 -0.0240  0.0433 -0.5566
  580MOL0     C78231   8.380   0.106   4.158  0.0935  0.0422 -0.0767
  580MOL0     C78232   8.368   0.215   4.069  0.0842  0.5266 -1.3891
  580MOL0     H78233   8.246   0.335   3.621 -1.2473 -0.8005  1.6778
  580MOL0     H78234   8.178   0.454   3.403 -1.5445  1.1359 -0.5919
  580MOL0     H78235   7.749   0.611   3.341  0.9103 -0.4007 -1.7111
  580MOL0     H78236   7.854   0.727   3.435  4.1921  0.5224  0.5203
  580MOL0     H78237   7.980   0.749   3.204 -0.0690 -0.6678  0.2633
  580MOL0     H78238   7.828   0.696   3.137 -1.0410  2.5073 -0.2974
  580MOL0     H78239   7.807   0.921   3.339  0.8284  1.8526 -0.7889
  580MOL0     H78240   7.871   0.942   3.181 -0.7314  1.0948  0.2371
  580MOL0     H78241   7.651   0.875   3.093  1.6879  0.1625  0.8340
  580MOL0     H78242   7.588   0.858   3.267  0.5077  0.5490  0.6949
  580MOL0     H78243   7.650   1.101   3.283 -0.1128 -0.8291  0.0849
  580MOL0     H78244   7.711   1.104   3.127  2.7459  0.9427  1.8159
  580MOL0     H78245   7.455   1.022   3.051 -0.0053 -0.3439  0.0037
  580MOL0     H78246   7.426   1.073   3.224 -0.9974 -2.8265 -0.9785
  580MOL0     H78247   7.534   1.302   3.174  0.7679 -1.0749  0.4693
  580MOL0     H78248   7.561   1.246   3.017  0.5592  1.3869  0.9449
  580MOL0     H78249   7.311   1.206   2.988  1.2479  1.3776 -2.2758
  580MOL0     H78250   7.368   1.374   3.004 -0.5237  0.8724  0.9080
  580MOL0     H78251   7.082   1.208   3.122  2.9715 -2.0705  1.0337
  580MOL0     H78252   6.871   1.345   3.246  1.4021 -2.2266  0.0078
  580MOL0     H78253   6.927   1.266   3.387 -2.5410  0.7338  1.3143
  580MOL0     H78254   6.980   1.501   3.486 -0.4271 -0.1923  0.1552
  580MOL0     H78255   6.807   1.460   3.467 -2.3145  2.7516 -1.8174
  580MOL0     H78256   6.985   1.609   3.286  1.3681 -4.0470  1.5165
  580MOL0     H78257   6.892   1.686   3.413  2.6952 -0.4592  0.6593
  580MOL0     H78258   6.762   1.531   3.175 -1.5954  1.4063 -0.3908
  580MOL0     H78259   6.802   1.702   3.163  0.6476 -1.0335 -0.0531
  580MOL0     H78260   6.617   1.673   3.042  1.1881  1.2086  1.3346
  580MOL0     H78261   6.471   1.652   2.854 -0.3860  0.8093 -2.7317
  580MOL0     H78262   6.331   1.552   2.867 -0.0910 -0.2146 -1.5981
  580MOL0     H78263   6.314   1.731   2.857  0.4748 -1.3680 -0.3310
  580MOL0     H78264   5.908   1.917   3.035  0.0658  1.1887 -0.2183
  580MOL0     H78265   5.685   1.893   2.947 -1.1825  1.1471  1.7581
  580MOL0     H78266   5.472   1.901   3.002  1.7281 -0.6088  0.1936
  580MOL0     H78267   5.497   1.838   2.833 -4.0693  0.7047 -1.6276
  580MOL0     H78268   5.237   1.855   2.994 -2.4574 -0.7448 -0.8607
  580MOL0     H78269   5.288   1.896   2.825  2.9761 -0.3683 -1.1054
  580MOL0     H78270   5.258   1.609   2.931 -1.5726 -0.6707  0.1643
  580MOL0     H78271   5.310   1.651   2.770  2.5798 -0.5643  1.5679
  580MOL0     H78272   5.102   1.769   2.716  3.0734  2.3072  2.1622
  580MOL0     H78273   5.095   1.598   2.734  0.9793 -1.1280  2.2621
  580MOL0     H78274   4.984   1.801   2.937  1.2861 -0.2528 -0.3234
  580MOL0     H78275   5.002   1.631   2.964 -0.4820 -1.4171 -1.0319
  580MOL0     H78276   4.846   1.739   2.732  1.3553 -1.0972  0.3302
  580MOL0     H78277   4.877   1.564   2.775  4.1245  0.7609 -1.1951
  580MOL0     H78278   4.741   1.721   2.988  0.3028 -2.3599  0.9099
  580MOL0     H78279   4.705   1.558   2.933 -2.8347  1.0393  0.8917
  580MOL0     H78280   4.597   1.642   2.718 -4.1660  2.0119 -0.6564
  580MOL0     H78281   4.629   1.811   2.775  0.4003  0.1504 -0.3179
  580MOL0     H78282   5.607   1.537   3.152 -1.3989  1.9653  1.9644
  580MOL0     H78283   5.863   1.534   3.228 -2.4468 -1.2342 -0.8036
  580MOL0     H78284   6.226   1.678   3.341  0.5749 -2.1792  1.4601
  580MOL0     H78285   6.433   1.676   3.427 -0.7515  1.1079 -0.3223
  580MOL0     H78286   7.803   0.544   3.590  0.0152  1.9735  3.2575
  580MOL0     H78287   7.893   0.492   3.813 -0.6705 -0.6260  0.5819
  580MOL0     H78288   8.039   0.153   4.000  0.5528 -3.0765 -0.3366
  580MOL0     H78289   8.077  -0.018   4.167  0.2011 -0.4127  0.1975
  580MOL0     H78290   8.141  -0.173   4.321 -1.2443  0.5691 -3.2630
  580MOL0     H78291   8.224  -0.239   4.185  0.0271 -1.9564  0.8396
  580MOL0     H78292   8.404  -0.339   4.349  1.8076  0.9162  3.3130
  580MOL0     H78293   8.240  -0.395   4.378  2.5210 -0.5626  2.4116
  580MOL0     H78294   8.280  -0.153   4.531  2.3757 -0.4894  1.0830
  580MOL0     H78295   8.389  -0.286   4.563 -0.0389  0.0833  1.2667
  580MOL0     H78296   8.183  -0.328   4.700 -0.0708 -1.1256  0.1844
  580MOL0     H78297   8.207  -0.442   4.577  2.5697  1.0537 -0.9504
  580MOL0     H78298   7.837  -0.215   4.500 -0.0589  0.3924  0.3458
  580MOL0     H78299   8.482   0.076   4.181  0.7365 -1.6297 -4.1675
  580MOL0     H78300   8.454   0.273   4.039  1.4451 -0.5821  0.1950
  581MOL0     O78301  10.421   5.859   8.545  0.2465 -0.0882  0.4162
  581MOL0     C78302  10.509   5.941   8.528 -0.1016 -0.0634  0.1730
  581MOL0     O78303  10.502   6.083   8.541  0.5288  1.0556 -0.2144
  581MOL0     C78304  10.380   6.152   8.557 -0.7985  0.1350 -0.2972
  581MOL0     C78305  10.401   6.287   8.591 -0.1811  0.7570  0.7889
  581MOL0     C78306  10.295   6.377   8.607  0.2112 -0.4159 -0.2689
  581MOL0     C78307  10.164   6.329   8.583 -0.3080 -0.1813  0.2825
  581MOL0     O78308  10.065   6.420   8.589 -0.3947 -0.3143  0.3294
  581MOL0     C78309   9.941   6.380   8.537  0.4495 -0.0101  0.1896
  581MOL0     C78310   9.860   6.505   8.512 -0.0968 -1.1853 -1.1627
  581MOL0     C78311   9.812   6.563   8.643  0.8700 -0.0506  0.2507
  581MOL0     C78312   9.719   6.671   8.607  0.5998 -1.3563 -0.3082
  581MOL0     C78313   9.632   6.727   8.726 -1.0137  1.4135  0.5845
  581MOL0     C78314   9.559   6.850   8.667  0.9113  0.3127 -0.1322
  581MOL0     C78315   9.470   6.927   8.775 -0.2288  0.3388 -0.2911
  581MOL0     C78316   9.348   6.845   8.815 -0.6086 -0.5035 -0.1383
  581MOL0     N78317   9.291   6.934   8.931  0.1400  0.2769  0.6482
  581MOL0     C78318   9.311   6.916   9.065 -0.9234 -0.5522 -0.2472
  581MOL0     C78319   9.221   7.000   9.117 -1.0799  0.1845 -0.6243
  581MOL0     C78320   9.208   7.031   9.266  0.0756  0.0773  0.7295
  581MOL0     C78321   9.246   7.177   9.301  0.7803 -1.4442 -0.0863
  581MOL0     C78322   9.124   7.274   9.302 -0.1229 -0.5985  0.4831
  581MOL0     C78323   9.135   7.373   9.411  0.6110  0.1548  0.4000
  581MOL0     O78324   9.114   7.332   9.546 -0.2381 -0.3223 -0.1591
  581MOL0     C78325   8.988   7.280   9.563 -0.1847 -0.3889 -0.4382
  581MOL0     C78326   8.967   7.138   9.562  0.7540 -0.4968 -0.5719
  581MOL0     C78327   8.839   7.082   9.572 -0.2089 -0.8296  0.2967
  581MOL0     C78328   8.820   6.934   9.586 -0.6125 -0.9013 -0.7981
  581MOL0     C78329   8.732   7.174   9.584 -0.6542  0.7037 -1.3912
  581MOL0     C78330   8.596   7.129   9.604  0.6759 -0.0584  0.0743
  581MOL0     O78331   8.518   7.215   9.534 -0.2605  0.6156  0.4643
  581MOL0     C78332   8.380   7.205   9.542 -0.7288 -0.7719  0.4116
  581MOL0     C78333   8.301   7.095   9.584  0.2735 -0.0343  1.3164
  581MOL0     C78334   8.159   7.103   9.580 -0.1655 -0.1887  0.1790
  581MOL0     C78335   8.093   7.218   9.551 -0.3301 -0.5387 -0.0296
  581MOL0     O78336   7.955   7.219   9.544 -0.4215  0.9428  0.1333
  581MOL0     C78337   7.897   7.288   9.433 -0.2231  0.3489 -0.7092
  581MOL0     C78338   7.750   7.266   9.454 -0.3551  0.3501 -0.2762
  581MOL0     C78339   7.693   7.326   9.323 -0.2079  0.1593 -0.4377
  581MOL0     C78340   7.545   7.303   9.317 -1.4038  1.0005  0.1504
  581MOL0     C78341   7.489   7.349   9.181 -0.0966 -0.9128 -0.3789
  581MOL0     C78342   7.337   7.347   9.189  0.5858 -0.6011  0.1479
  581MOL0     C78343   7.289   7.406   9.057  0.9916  0.3521  0.2855
  581MOL0     C78344   7.141   7.410   9.047  0.3950 -0.7513 -0.4782
  581MOL0    Cl78345   7.093   7.525   8.921  0.1705 -0.1616 -0.0033
  581MOL0     C78346   8.174   7.328   9.521  0.1226 -0.2691  0.4207
  581MOL0     C78347   8.317   7.322   9.509  0.6890  0.6410 -0.3350
  581MOL0     O78348   8.560   7.042   9.682  0.3458 -0.2718 -0.2438
  581MOL0     C78349   8.755   7.314   9.584  0.0346 -0.0167  0.3983
  581MOL0     C78350   8.877   7.360   9.567 -0.0520 -0.2058  1.1058
  581MOL0     N78351   9.158   7.075   9.017  0.2086  0.0172  0.3584
  581MOL0     N78352   9.200   7.036   8.900 -0.9413 -0.6786 -0.4754
  581MOL0     C78353  10.145   6.192   8.542 -0.2255 -0.2928 -0.6602
  581MOL0     C78354  10.254   6.107   8.529 -0.6775 -0.4797 -0.1264
  581MOL0     C78355  10.644   5.892   8.495 -0.0039 -0.2042 -0.8090
  581MOL0     C78356  10.760   5.979   8.507  0.1180  0.4361 -0.3118
  581MOL0     C78357  10.891   5.928   8.485  0.7193 -0.6237 -0.6535
  581MOL0     C78358  10.905   5.796   8.452 -0.1242 -0.5663  0.0654
  581MOL0     O78359  11.034   5.764   8.416 -0.4930  0.5452 -0.2257
  581MOL0     C78360  11.067   5.656   8.326 -0.3944 -0.7867 -0.1671
  581MOL0     C78361  11.205   5.669   8.253 -0.3252  0.7738  0.5980
  581MOL0     C78362  11.330   5.713   8.334  0.8293  0.2850 -0.4819
  581MOL0     C78363  11.464   5.725   8.254 -0.1483  0.3080  0.0982
  581MOL0     C78364  11.463   5.830   8.153 -0.5438  0.9729 -0.0521
  581MOL0     C78365  11.451   5.921   8.076 -0.0289  0.0710 -0.6095
  581MOL0     C78366  10.794   5.714   8.433 -0.2105  1.2923  0.7744
  581MOL0     C78367  10.669   5.757   8.463 -0.9795 -0.2853  0.2836
  581MOL0     H78368  10.501   6.320   8.617  0.2875  1.7663 -1.8657
  581MOL0     H78369  10.321   6.480   8.629  1.3486 -0.3724 -1.6634
  581MOL0     H78370   9.954   6.340   8.436 -0.6785  1.1182 -0.4244
  581MOL0     H78371   9.888   6.308   8.601 -1.6370  2.3904  1.3411
  581MOL0     H78372   9.908   6.595   8.472 -2.4515  1.7925  2.1202
  581MOL0     H78373   9.777   6.480   8.444 -1.3123 -1.9638  0.5222
  581MOL0     H78374   9.760   6.490   8.705  1.4236 -0.9523 -0.3343
  581MOL0     H78375   9.899   6.594   8.702  0.7710  0.2798  0.2271
  581MOL0     H78376   9.780   6.754   8.569  0.4911 -0.1922  1.8785
  581MOL0     H78377   9.648   6.644   8.529  0.3292 -1.0472 -0.1728
  581MOL0     H78378   9.570   6.645   8.763 -1.5328  0.1558 -2.7534
  581MOL0     H78379   9.704   6.766   8.798 -0.1577  0.9235  0.0094
  581MOL0     H78380   9.635   6.924   8.639  0.3583  1.0814  0.3413
  581MOL0     H78381   9.505   6.826   8.575  2.7017  3.9090 -2.3704
  581MOL0     H78382   9.532   6.934   8.864  2.2243 -1.3402 -1.7359
  581MOL0     H78383   9.444   7.024   8.731 -2.0981 -0.2622 -0.6179
  581MOL0     H78384   9.355   6.747   8.862  0.5715 -0.2212  0.3082
  581MOL0     H78385   9.273   6.839   8.736  1.1018 -2.8186 -1.7038
  581MOL0     H78386   9.374   6.849   9.122 -0.9571 -0.4553 -0.0959
  581MOL0     H78387   9.111   7.003   9.308 -1.0053  4.6442  1.7724
  581MOL0     H78388   9.287   6.970   9.313  0.7818 -1.5495 -2.3085
  581MOL0     H78389   9.312   7.205   9.219 -2.5804 -3.9243 -4.0564
  581MOL0     H78390   9.300   7.170   9.396  1.6906 -0.4064 -0.5170
  581MOL0     H78391   9.030   7.218   9.314  1.1586 -3.2034 -0.8357
  581MOL0     H78392   9.122   7.316   9.201 -0.3484  2.8578  1.7980
  581MOL0     H78393   9.055   7.443   9.382  0.0957  0.5762  2.6641
  581MOL0     H78394   9.231   7.425   9.417  0.2611  0.8767 -0.0318
  581MOL0     H78395   9.050   7.069   9.549  2.2575  1.1255 -0.0443
  581MOL0     H78396   8.741   6.906   9.516 -1.3364  0.0630 -0.3870
  581MOL0     H78397   8.908   6.875   9.560  1.6549  2.1662 -0.5959
  581MOL0     H78398   8.780   6.902   9.683  0.2382  0.6487  0.1181
  581MOL0     H78399   8.340   6.995   9.598  0.7591  0.1425  1.2173
  581MOL0     H78400   8.109   7.009   9.600  0.0688 -0.4289 -0.3541
  581MOL0     H78401   7.923   7.394   9.428  3.0844 -0.3190  0.1985
  581MOL0     H78402   7.936   7.242   9.342 -0.8076  1.5957 -1.6224
  581MOL0     H78403   7.723   7.162   9.474  1.0280  0.3381  1.7741
  581MOL0     H78404   7.713   7.318   9.543 -0.7717  0.0715 -0.2837
  581MOL0     H78405   7.738   7.272   9.240  2.5057  1.3742  0.1426
  581MOL0     H78406   7.715   7.433   9.323  1.5114 -0.1176 -2.6589
  581MOL0     H78407   7.528   7.196   9.329  0.8913  0.3907 -1.5271
  581MOL0     H78408   7.503   7.361   9.400  0.1075  2.2243  0.1130
  581MOL0     H78409   7.536   7.283   9.108  1.6691  0.1033 -0.2160
  581MOL0     H78410   7.527   7.449   9.159  2.6585 -1.3230  1.9294
  581MOL0     H78411   7.302   7.245   9.207 -0.2309 -0.6056 -1.3196
  581MOL0     H78412   7.302   7.409   9.272 -1.8127  1.5749 -2.3052
  581MOL0     H78413   7.345   7.350   8.982 -0.3408 -0.9247  0.1885
  581MOL0     H78414   7.322   7.509   9.069  2.2084  0.0110  0.0216
  581MOL0     H78415   7.098   7.435   9.144  0.9327 -0.4974 -0.2993
  581MOL0     H78416   7.104   7.309   9.029 -1.3763  0.2293 -2.9030
  581MOL0     H78417   8.130   7.424   9.495 -2.0044 -0.9839  1.2162
  581MOL0     H78418   8.381   7.408   9.491 -2.1715  3.4285  1.7395
  581MOL0     H78419   8.668   7.379   9.590 -1.3005 -1.4778 -1.7613
  581MOL0     H78420   8.900   7.461   9.537 -1.8145 -0.5560 -1.7435
  581MOL0     H78421  10.048   6.157   8.509 -0.1888  0.5313 -1.6992
  581MOL0     H78422  10.242   6.003   8.501 -1.1086 -0.6562  0.6754
  581MOL0     H78423  10.747   6.085   8.527 -2.5961 -0.4081  3.5222
  581MOL0     H78424  10.975   5.996   8.491 -0.4443  0.7501  1.1239
  581MOL0     H78425  11.075   5.562   8.382  0.1580 -0.5880  0.0972
  581MOL0     H78426  10.988   5.645   8.251  0.3766 -2.0844 -0.8202
  581MOL0     H78427  11.195   5.737   8.168  0.5301  1.7542  1.2628
  581MOL0     H78428  11.228   5.573   8.205 -0.3186  1.8272 -1.5932
  581MOL0     H78429  11.351   5.644   8.417  1.0941  1.3522  0.3755
  581MOL0     H78430  11.314   5.816   8.368 -2.0724  0.3838 -1.8342
  581MOL0     H78431  11.472   5.638   8.188  2.9902  0.1024  0.5578
  581MOL0     H78432  11.551   5.726   8.321 -1.4183 -1.4134  1.8507
  581MOL0     H78433  11.416   6.000   8.012 -0.4510  1.5280  1.2950
  581MOL0     H78434  10.803   5.614   8.392 -2.2085  1.3894 -0.0274
  581MOL0     H78435  10.584   5.691   8.450  0.8084 -2.1751 -3.4530
  582MOL0     O78436   0.555  10.508   8.653 -0.9773  0.3968  0.6228
  582MOL0     C78437   0.663  10.488   8.716  0.5426 -0.2166  0.2365
  582MOL0     O78438   0.673  10.496   8.851 -0.4144  0.3187 -0.6942
  582MOL0     C78439   0.555  10.521   8.921  0.4541  0.1703  0.4999
  582MOL0     C78440   0.503  10.424   8.995  1.3213  0.7699 -0.3257
  582MOL0     C78441   0.398  10.450   9.083 -1.1335  0.2027  0.0101
  582MOL0     C78442   0.348  10.585   9.101  0.2274  0.8267  0.4476
  582MOL0     O78443   0.234  10.597   9.183  0.1712 -0.5060 -0.0380
  582MOL0     C78444   0.170  10.727   9.195  0.0131 -0.4972 -0.3967
  582MOL0     C78445   0.031  10.698   9.257 -0.5213  0.9228  1.0404
  582MOL0     C78446  -0.041  10.824   9.306 -0.0673  0.6449  0.2583
  582MOL0     C78447  -0.194  10.785   9.326 -0.5697  0.6854  0.4462
  582MOL0     C78448  -0.291  10.905   9.353  0.0039 -1.0632 -0.3073
  582MOL0     C78449  -0.252  11.006   9.463 -0.0816  0.1105 -0.0588
  582MOL0     C78450  -0.352  11.114   9.488  0.4061  0.8092  0.2466
  582MOL0     C78451  -0.330  11.239   9.404 -0.1498  0.0209 -1.1664
  582MOL0     N78452  -0.451  11.320   9.393  0.3533 -0.3972 -1.3964
  582MOL0     C78453  -0.536  11.363   9.489  0.3060 -0.3240  0.3776
  582MOL0     C78454  -0.641  11.429   9.427  0.1847 -0.1743  0.6834
  582MOL0     C78455  -0.757  11.498   9.485 -0.2251  0.3281 -0.1727
  582MOL0     C78456  -0.874  11.402   9.529  0.3931  0.0218 -0.9925
  582MOL0     C78457  -0.955  11.327   9.418 -0.1613  0.0536  0.4766
  582MOL0     C78458  -1.044  11.408   9.321  0.0252 -0.3535  0.5963
  582MOL0     O78459  -1.090  11.327   9.203 -0.8027 -0.5642 -0.1375
  582MOL0     C78460  -1.012  11.313   9.090  1.2677  0.0217 -0.1456
  582MOL0     C78461  -1.064  11.227   8.983  0.1510 -0.1518 -0.0577
  582MOL0     C78462  -0.991  11.207   8.862  0.2506 -0.2922  0.5843
  582MOL0     C78463  -1.055  11.103   8.773  0.1236 -0.1774  0.3775
  582MOL0     C78464  -0.866  11.267   8.833  0.1818 -0.3677 -1.6893
  582MOL0     C78465  -0.794  11.241   8.711 -0.7173  0.6077 -0.4088
  582MOL0     O78466  -0.661  11.234   8.734 -0.3511  0.2131 -0.7467
  582MOL0     C78467  -0.585  11.220   8.627 -0.1692 -0.4179  0.4159
  582MOL0     C78468  -0.537  11.335   8.569  0.3261  0.1026  0.6248
  582MOL0     C78469  -0.428  11.338   8.486 -0.8714  1.0372  0.0618
  582MOL0     C78470  -0.365  11.217   8.446  0.1665 -0.5010  0.8115
  582MOL0     O78471  -0.264  11.227   8.351 -0.1303 -0.1777  0.3924
  582MOL0     C78472  -0.149  11.143   8.362 -0.0485 -0.9313 -0.0733
  582MOL0     C78473  -0.042  11.196   8.275  0.7620  0.0329 -0.1066
  582MOL0     C78474   0.053  11.309   8.332 -0.0013  0.4617  0.2753
  582MOL0     C78475   0.132  11.380   8.227  0.5240  0.2141 -0.1203
  582MOL0     C78476   0.233  11.282   8.160  0.0961 -0.1969 -0.5767
  582MOL0     C78477   0.308  11.354   8.042 -0.1338  0.2108  0.6087
  582MOL0     C78478   0.435  11.433   8.079  0.4155 -0.2746 -0.0467
  582MOL0     C78479   0.492  11.524   7.963 -0.1188 -0.4550 -1.0536
  582MOL0    Cl78480   0.615  11.437   7.870 -0.4546 -0.1356  0.7531
  582MOL0     C78481  -0.413  11.098   8.503  0.0512  0.5136  0.4667
  582MOL0     C78482  -0.521  11.099   8.591  1.0084 -0.2643  0.7612
  582MOL0     O78483  -0.849  11.248   8.601  0.0725 -0.4154 -0.4294
  582MOL0     C78484  -0.821  11.342   8.944  0.0171 -0.8068  0.3286
  582MOL0     C78485  -0.886  11.368   9.072 -0.2048  0.2509  0.3183
  582MOL0     N78486  -0.618  11.426   9.291  0.1396 -0.1961  0.1387
  582MOL0     N78487  -0.508  11.363   9.277  0.4987 -0.3679  0.4814
  582MOL0     C78488   0.420  10.683   9.031  0.5924  0.1410  0.8938
  582MOL0     C78489   0.518  10.651   8.941 -0.1805 -0.2349  0.7020
  582MOL0     C78490   0.784  10.445   8.642 -0.5008 -0.5185 -0.6039
  582MOL0     C78491   0.895  10.384   8.709 -0.7780 -0.7339 -0.1081
  582MOL0     C78492   1.009  10.341   8.640  0.5847 -0.6430 -0.0940
  582MOL0     C78493   1.018  10.361   8.495 -0.1949  0.8518 -0.2794
  582MOL0     O78494   1.115  10.328   8.407 -0.5979 -0.6711 -1.2427
  582MOL0     C78495   1.234  10.255   8.461 -0.5177 -0.8249  0.5375
  582MOL0     C78496   1.332  10.364   8.501 -0.3521 -0.6146 -0.1815
  582MOL0     C78497   1.477  10.307   8.522  0.1941 -0.2191 -0.5641
  582MOL0     C78498   1.564  10.421   8.552  0.0985  0.5846  0.4297
  582MOL0     C78499   1.703  10.383   8.581  0.2594 -0.2760  0.5882
  582MOL0     C78500   1.818  10.367   8.623  0.0153 -0.0891  0.5768
  582MOL0     C78501   0.903  10.405   8.424  0.4587  1.1368 -0.0439
  582MOL0     C78502   0.788  10.437   8.500 -0.0996  0.2357  0.2658
  582MOL0     H78503   0.550  10.327   9.007  1.0810  0.4888 -1.5547
  582MOL0     H78504   0.369  10.372   9.153  0.3518  0.8225  1.3729
  582MOL0     H78505   0.223  10.796   9.262 -0.7679 -2.5363  2.5366
  582MOL0     H78506   0.152  10.781   9.102 -1.5319 -0.9094 -0.3617
  582MOL0     H78507  -0.026  10.641   9.183  0.5081  0.4283  0.6030
  582MOL0     H78508   0.043  10.634   9.345 -0.2956  1.1469  1.1746
  582MOL0     H78509  -0.002  10.864   9.400 -4.2327  2.3534  1.4708
  582MOL0     H78510  -0.041  10.901   9.229  0.4398  2.4350  1.9578
  582MOL0     H78511  -0.239  10.741   9.237 -0.3516 -3.3491  2.0999
  582MOL0     H78512  -0.190  10.706   9.402 -0.6616  0.3445  0.1004
  582MOL0     H78513  -0.305  10.975   9.270  3.8640 -1.0332 -1.1191
  582MOL0     H78514  -0.386  10.857   9.378 -0.4360 -0.0468  0.0117
  582MOL0     H78515  -0.241  10.945   9.553 -3.7620  0.3314  0.7224
  582MOL0     H78516  -0.152  11.047   9.445  0.5307  0.0170  2.7040
  582MOL0     H78517  -0.451  11.073   9.464  1.4229 -0.7271 -1.6802
  582MOL0     H78518  -0.350  11.125   9.597  2.0132 -1.0571  0.4692
  582MOL0     H78519  -0.294  11.209   9.305  0.2083 -1.9507 -0.4751
  582MOL0     H78520  -0.256  11.299   9.459 -0.9020 -0.5262  0.4832
  582MOL0     H78521  -0.521  11.347   9.595  2.0002  0.5797  0.3081
  582MOL0     H78522  -0.722  11.558   9.570  0.6802 -0.0210 -0.2915
  582MOL0     H78523  -0.803  11.569   9.415 -1.0160  2.1941  2.0995
  582MOL0     H78524  -0.954  11.461   9.574  0.6131 -1.3511  1.3387
  582MOL0     H78525  -0.840  11.336   9.609 -2.2386 -0.5245 -0.2582
  582MOL0     H78526  -1.021  11.249   9.459  0.1880  0.8462  2.7178
  582MOL0     H78527  -0.889  11.273   9.349 -0.4389  1.0923 -0.6158
  582MOL0     H78528  -1.014  11.511   9.299 -0.4166 -0.6530 -1.6459
  582MOL0     H78529  -1.135  11.426   9.379  1.3294  0.6409  2.4648
  582MOL0     H78530  -1.154  11.169   8.999  0.1221  0.1361  0.9082
  582MOL0     H78531  -1.076  11.009   8.825  1.3097 -0.9847 -0.5659
  582MOL0     H78532  -1.140  11.144   8.718  0.0121  1.1038  1.4453
  582MOL0     H78533  -0.986  11.077   8.693 -1.8854 -3.7289 -0.3798
  582MOL0     H78534  -0.574  11.436   8.587  1.4660  1.0070 -1.6897
  582MOL0     H78535  -0.409  11.437   8.446 -0.5745  0.4795 -1.2374
  582MOL0     H78536  -0.105  11.143   8.462 -0.7036  2.2034  0.3156
  582MOL0     H78537  -0.170  11.040   8.334 -0.0866 -0.4103 -2.0961
  582MOL0     H78538   0.033  11.117   8.265  1.0375  0.3949 -0.9868
  582MOL0     H78539  -0.087  11.216   8.178 -0.6571 -0.4530  0.4236
  582MOL0     H78540   0.116  11.272   8.413 -0.0115  0.4417  0.2738
  582MOL0     H78541  -0.009  11.382   8.385 -0.7185 -0.3695  0.5999
  582MOL0     H78542   0.065  11.416   8.149  1.3489 -0.5608 -1.2290
  582MOL0     H78543   0.183  11.464   8.275 -0.5294  0.9200 -0.2139
  582MOL0     H78544   0.175  11.201   8.116 -2.8654  1.9086 -0.8973
  582MOL0     H78545   0.305  11.234   8.227 -0.7662 -0.5477  0.1133
  582MOL0     H78546   0.333  11.279   7.966 -0.7818  0.4521  0.1426
  582MOL0     H78547   0.242  11.421   7.987  1.1015  1.7247  0.9104
  582MOL0     H78548   0.517  11.362   8.100 -0.4043 -0.7020  1.9086
  582MOL0     H78549   0.422  11.498   8.166 -0.5741 -0.4280 -0.0784
  582MOL0     H78550   0.548  11.600   8.019 -1.6532 -2.0064  2.8959
  582MOL0     H78551   0.420  11.585   7.906 -1.4476  1.3408  2.2793
  582MOL0     H78552  -0.370  11.000   8.489 -1.1615 -0.1721  1.3852
  582MOL0     H78553  -0.555  11.011   8.644  1.2723  0.0523  1.4678
  582MOL0     H78554  -0.725  11.389   8.922 -1.0728  0.2726 -2.6532
  582MOL0     H78555  -0.831  11.430   9.142 -0.0961  0.8019 -0.2458
  582MOL0     H78556   0.386  10.784   9.055  0.9327  0.2828  0.7822
  582MOL0     H78557   0.574  10.732   8.895 -1.9745  1.5084  1.4899
  582MOL0     H78558   0.910  10.398   8.816 -1.0070 -3.7137  0.3811
  582MOL0     H78559   1.104  10.307   8.681  1.5604 -0.0158 -1.7432
  582MOL0     H78560   1.210  10.185   8.542  0.2902 -1.6400  0.1009
  582MOL0     H78561   1.270  10.184   8.386 -0.4061 -2.2743  1.9036
  582MOL0     H78562   1.298  10.396   8.599 -0.3135 -1.6400  0.1821
  582MOL0     H78563   1.332  10.442   8.425 -2.2773 -1.0709 -0.7114
  582MOL0     H78564   1.506  10.251   8.433 -0.5696 -0.5454 -0.6119
  582MOL0     H78565   1.484  10.227   8.597 -2.5271 -2.2290 -2.2491
  582MOL0     H78566   1.525  10.474   8.640 -0.4013  0.2540  0.4142
  582MOL0     H78567   1.555  10.492   8.469  1.0374  0.2671  0.0498
  582MOL0     H78568   1.908  10.344   8.676 -0.8801  0.7405  2.5782
  582MOL0     H78569   0.914  10.400   8.316  1.3099 -2.5769  0.0699
  582MOL0     H78570   0.702  10.470   8.444  1.1817  0.7148 -1.5284
  583MOL0     O78571   1.171   0.613   3.877  0.2747  0.7922  0.3633
  583MOL0     C78572   1.099   0.712   3.860 -0.6066 -0.4272  0.0678
  583MOL0     O78573   0.957   0.711   3.852 -0.3093  0.2517 -0.2237
  583MOL0     C78574   0.883   0.595   3.853 -0.4773  0.5349  0.7327
  583MOL0     C78575   0.931   0.478   3.791 -0.4065 -0.8720 -0.4014
  583MOL0     C78576   0.858   0.359   3.782  0.0570 -0.4718 -0.7242
  583MOL0     C78577   0.733   0.345   3.845 -0.3157  1.2563 -0.2665
  583MOL0     O78578   0.655   0.238   3.843  0.0573  0.2008 -0.1461
  583MOL0     C78579   0.670   0.156   3.731 -0.1021 -0.3022  0.1351
  583MOL0     C78580   0.541   0.079   3.734  0.3588  0.6538  0.3582
  583MOL0     C78581   0.528  -0.003   3.610  0.0494  0.0560  0.2816
  583MOL0     C78582   0.376  -0.016   3.575 -0.4933 -0.6552  0.1008
  583MOL0     C78583   0.355  -0.078   3.435  0.1510  0.7832 -0.9828
  583MOL0     C78584   0.217  -0.067   3.390 -0.4538  0.6964  0.6009
  583MOL0     C78585   0.130  -0.176   3.434  0.3393  0.5201  0.0044
  583MOL0     C78586  -0.015  -0.142   3.396 -0.0841 -0.8890 -0.1056
  583MOL0     N78587  -0.090  -0.259   3.352 -0.3637  0.0153  0.5603
  583MOL0     C78588  -0.120  -0.362   3.437  0.5234 -0.2030  0.9612
  583MOL0     C78589  -0.203  -0.438   3.366 -0.3335 -0.3201  0.3023
  583MOL0     C78590  -0.277  -0.559   3.405  0.1906 -0.1814  0.1525
  583MOL0     C78591  -0.247  -0.608   3.548  0.4560  0.7759  0.6333
  583MOL0     C78592  -0.319  -0.741   3.562  0.1019  0.0350  0.4728
  583MOL0     C78593  -0.239  -0.826   3.657  0.4001  0.3288  0.0168
  583MOL0     O78594  -0.301  -0.957   3.682  0.7970 -0.5887  0.3595
  583MOL0     C78595  -0.426  -0.954   3.721  0.4721 -0.5183 -0.1437
  583MOL0     C78596  -0.515  -1.030   3.652  0.1782  0.4709 -0.0927
  583MOL0     C78597  -0.648  -1.028   3.676  0.7485 -1.0296  0.0564
  583MOL0     C78598  -0.730  -1.121   3.593  0.1232 -0.4873 -0.0101
  583MOL0     C78599  -0.697  -0.939   3.779  0.4135  1.1503  0.4234
  583MOL0     C78600  -0.838  -0.936   3.819  0.2984 -0.1307  0.0576
  583MOL0     O78601  -0.865  -0.872   3.946  0.4934 -0.0679 -0.9556
  583MOL0     C78602  -0.992  -0.876   4.002  0.1626  0.0371 -1.0288
  583MOL0     C78603  -1.006  -0.780   4.105  0.2486  0.1808 -0.7468
  583MOL0     C78604  -1.139  -0.766   4.164  0.4086  0.4349  0.3557
  583MOL0     C78605  -1.254  -0.842   4.128  0.1256  1.1478  0.0376
  583MOL0     O78606  -1.363  -0.820   4.201 -0.4008 -0.1892 -0.7239
  583MOL0     C78607  -1.477  -0.918   4.200 -0.3200 -0.1918 -0.2839
  583MOL0     C78608  -1.582  -0.878   4.307 -0.3139  0.9263  1.0439
  583MOL0     C78609  -1.715  -0.925   4.247  0.9269 -1.0100 -0.5053
  583MOL0     C78610  -1.835  -0.872   4.338 -0.6549 -0.7760 -0.0754
  583MOL0     C78611  -1.972  -0.860   4.272 -0.0853 -0.9386  0.3853
  583MOL0     C78612  -2.082  -0.845   4.372  0.2850 -0.4979  0.2990
  583MOL0     C78613  -2.213  -0.798   4.313 -0.7109 -0.5410 -0.1904
  583MOL0     C78614  -2.330  -0.896   4.306 -0.1760  0.5995  0.3829
  583MOL0    Cl78615  -2.307  -1.040   4.209  0.6413  0.3541  0.1947
  583MOL0     C78616  -1.228  -0.941   4.040  0.2831 -0.3498 -0.3307
  583MOL0     C78617  -1.101  -0.952   3.969 -1.1911 -0.5404 -1.1249
  583MOL0     O78618  -0.922  -0.983   3.742  0.0427  0.2991 -0.0672
  583MOL0     C78619  -0.609  -0.861   3.857  0.1442 -0.6966  0.3877
  583MOL0     C78620  -0.471  -0.870   3.830  0.0030  0.0536 -0.5065
  583MOL0     N78621  -0.228  -0.372   3.247 -0.1566 -0.6053  0.3099
  583MOL0     N78622  -0.161  -0.260   3.241  0.0124 -0.5919 -0.0943
  583MOL0     C78623   0.681   0.470   3.910 -0.0866  0.8404 -0.5183
  583MOL0     C78624   0.755   0.591   3.907 -0.4670 -0.1865 -0.5817
  583MOL0     C78625   1.167   0.841   3.852 -0.1332 -0.7054  0.0088
  583MOL0     C78626   1.107   0.961   3.808 -0.1775  0.7550 -0.0190
  583MOL0     C78627   1.176   1.084   3.818  0.8234  0.1456  0.4090
  583MOL0     C78628   1.315   1.084   3.848 -0.0425 -0.7126  0.9550
  583MOL0     O78629   1.382   1.206   3.838 -0.1673  0.5911  0.3444
  583MOL0     C78630   1.375   1.277   3.963 -0.2855  0.5610 -0.4377
  583MOL0     C78631   1.485   1.227   4.056 -0.6456 -0.3358 -0.9902
  583MOL0     C78632   1.472   1.278   4.197 -0.1720 -1.0122  0.4955
  583MOL0     C78633   1.580   1.233   4.285  0.2769  0.0304  0.0376
  583MOL0     C78634   1.605   1.296   4.413 -0.7285  0.3260 -0.0926
  583MOL0     C78635   1.634   1.350   4.521 -0.0006  0.4760 -0.9151
  583MOL0     C78636   1.377   0.960   3.879 -0.2456 -0.3199 -0.0413
  583MOL0     C78637   1.309   0.840   3.882  0.7662 -0.7077 -1.1836
  583MOL0     H78638   1.023   0.486   3.733 -0.1406  1.3101  0.2193
  583MOL0     H78639   0.910   0.284   3.722  0.3527 -3.0560  2.5122
  583MOL0     H78640   0.678   0.205   3.634  0.1909 -0.6598 -0.0264
  583MOL0     H78641   0.746   0.079   3.747  2.6576  2.0724 -0.6686
  583MOL0     H78642   0.530   0.013   3.821  2.6445  0.1605  0.3278
  583MOL0     H78643   0.464   0.158   3.733 -0.3745  0.1500 -4.5242
  583MOL0     H78644   0.573   0.050   3.525  0.3324  0.1547  0.4928
  583MOL0     H78645   0.567  -0.105   3.613 -2.0017 -0.8796 -1.7974
  583MOL0     H78646   0.326  -0.077   3.651 -1.4486  0.4995  0.4266
  583MOL0     H78647   0.334   0.085   3.572  2.2036  0.5260 -0.9427
  583MOL0     H78648   0.428  -0.039   3.364 -0.2055  1.9292 -0.7445
  583MOL0     H78649   0.384  -0.183   3.447  1.0792  1.3294  3.5292
  583MOL0     H78650   0.176   0.029   3.425 -0.7879  0.9166 -0.3533
  583MOL0     H78651   0.211  -0.061   3.281 -0.1796  1.9005  0.6346
  583MOL0     H78652   0.164  -0.267   3.383 -0.4183  0.3441 -0.1952
  583MOL0     H78653   0.122  -0.198   3.541 -1.1570 -1.5306 -0.4732
  583MOL0     H78654  -0.014  -0.081   3.305 -2.7560  2.0307  1.6043
  583MOL0     H78655  -0.056  -0.080   3.477  1.3288  0.2462 -0.2334
  583MOL0     H78656  -0.090  -0.376   3.540  3.8804 -3.4240 -0.2166
  583MOL0     H78657  -0.382  -0.530   3.394  0.8698  2.3380 -0.2544
  583MOL0     H78658  -0.259  -0.641   3.335 -0.0221  0.6037 -0.8465
  583MOL0     H78659  -0.283  -0.522   3.607  2.7063  2.1702  0.0945
  583MOL0     H78660  -0.138  -0.608   3.559  0.7448  1.2904 -1.7172
  583MOL0     H78661  -0.334  -0.788   3.465  2.4947  1.8939 -0.9289
  583MOL0     H78662  -0.414  -0.719   3.611  0.1424  0.1983  0.4796
  583MOL0     H78663  -0.209  -0.786   3.754 -0.4330 -1.3136  0.9908
  583MOL0     H78664  -0.149  -0.857   3.601 -2.4377 -3.1009 -3.1936
  583MOL0     H78665  -0.474  -1.086   3.568 -0.9101  1.1888 -1.1231
  583MOL0     H78666  -0.775  -1.186   3.669 -2.1683  1.6939  0.6343
  583MOL0     H78667  -0.814  -1.064   3.553 -1.4731 -0.6803  2.7631
  583MOL0     H78668  -0.680  -1.190   3.525 -1.2752  0.1837 -1.8052
  583MOL0     H78669  -0.921  -0.727   4.147 -0.8704  0.4366  1.3596
  583MOL0     H78670  -1.156  -0.708   4.254  1.2787 -0.7944  1.3534
  583MOL0     H78671  -1.521  -0.916   4.100  1.0977  1.8856 -0.9372
  583MOL0     H78672  -1.435  -1.018   4.214  1.5368  0.7768  1.6271
  583MOL0     H78673  -1.568  -0.930   4.402 -3.0630 -0.2105  0.9408
  583MOL0     H78674  -1.579  -0.771   4.328 -0.9422  1.6026 -1.7903
  583MOL0     H78675  -1.721  -1.026   4.206  1.2551 -0.4157 -2.0817
  583MOL0     H78676  -1.732  -0.871   4.153  1.8734  1.7437  0.7744
  583MOL0     H78677  -1.841  -0.949   4.416  1.3861 -0.3040  0.6219
  583MOL0     H78678  -1.808  -0.774   4.378  0.6954 -0.9515 -0.5014
  583MOL0     H78679  -1.988  -0.949   4.210 -0.1994 -0.2296 -0.6185
  583MOL0     H78680  -1.977  -0.765   4.220  0.6476  1.2772  4.0098
  583MOL0     H78681  -2.104  -0.933   4.432 -0.7309 -1.9532 -2.0704
  583MOL0     H78682  -2.037  -0.775   4.443 -0.8182 -0.5468  1.0705
  583MOL0     H78683  -2.203  -0.752   4.214  3.8543  3.1199  1.5978
  583MOL0     H78684  -2.254  -0.718   4.375 -2.2188 -1.9051  0.6480
  583MOL0     H78685  -2.406  -0.834   4.257  2.9607  2.7902 -2.1926
  583MOL0     H78686  -2.355  -0.922   4.410 -2.9042 -1.7321 -0.7293
  583MOL0     H78687  -1.311  -1.006   4.014 -0.7211  0.7661  0.0415
  583MOL0     H78688  -1.092  -1.037   3.902  1.6772 -1.8295  0.6896
  583MOL0     H78689  -0.644  -0.809   3.946  0.6020 -1.0332  0.7717
  583MOL0     H78690  -0.397  -0.814   3.885 -2.3307  2.0842  0.7554
  583MOL0     H78691   0.587   0.463   3.965 -0.3626  1.1420 -0.9480
  583MOL0     H78692   0.709   0.686   3.936 -1.0077 -0.5855 -0.1150
  583MOL0     H78693   1.005   0.950   3.773 -1.1197 -0.1859  2.7385
  583MOL0     H78694   1.126   1.181   3.814  1.5688  0.7123  2.9769
  583MOL0     H78695   1.393   1.383   3.944  0.5986  0.3689 -0.6867
  583MOL0     H78696   1.276   1.261   4.008 -0.7739  0.3366 -1.5429
  583MOL0     H78697   1.575   1.267   4.009 -2.4377 -0.3382 -4.8035
  583MOL0     H78698   1.494   1.119   4.041  0.8795 -0.5184  0.8111
  583MOL0     H78699   1.375   1.239   4.230 -1.2207  3.4269  3.4665
  583MOL0     H78700   1.454   1.386   4.201 -1.4321 -1.1875  0.1271
  583MOL0     H78701   1.664   1.254   4.219  0.3320  2.1788  0.7117
  583MOL0     H78702   1.566   1.125   4.302  0.5980 -0.0062  0.0726
  583MOL0     H78703   1.650   1.407   4.610 -1.5672 -1.2349  0.5645
  583MOL0     H78704   1.482   0.963   3.905 -0.3547 -0.2019  0.3868
  583MOL0     H78705   1.366   0.755   3.920 -0.3538 -0.9321  0.1166
  584MOL0     O78706   8.066   2.241   5.244 -0.0986  0.2612 -0.5521
  584MOL0     C78707   8.101   2.189   5.139 -0.0261 -1.5713 -0.0543
  584MOL0     O78708   8.229   2.178   5.102 -0.1399  0.1858  0.5007
  584MOL0     C78709   8.332   2.213   5.180  0.1546  0.3789  0.4040
  584MOL0     C78710   8.412   2.106   5.215 -0.8362  0.1513  0.4002
  584MOL0     C78711   8.531   2.125   5.282  0.6683  0.7120 -0.2717
  584MOL0     C78712   8.569   2.254   5.317 -0.1449 -0.4825 -0.2067
  584MOL0     O78713   8.692   2.259   5.377  0.4815  0.2930  0.3498
  584MOL0     C78714   8.717   2.368   5.467 -0.4406 -0.0391 -0.2798
  584MOL0     C78715   8.843   2.340   5.560 -0.3512  0.3674  0.0744
  584MOL0     C78716   8.977   2.314   5.491 -0.5038 -0.3690  0.4844
  584MOL0     C78717   9.005   2.426   5.389  0.1462  0.0354 -0.9784
  584MOL0     C78718   9.044   2.576   5.453 -0.1163  0.3888 -0.6021
  584MOL0     C78719   9.154   2.589   5.558 -0.4929  0.9464  0.0299
  584MOL0     C78720   9.283   2.536   5.502  0.9486  0.0556 -0.2567
  584MOL0     C78721   9.407   2.567   5.576 -0.1964  0.2097 -0.4654
  584MOL0     N78722   9.394   2.537   5.721 -0.1447 -0.3540  0.2632
  584MOL0     C78723   9.398   2.635   5.820 -0.7039 -0.2374 -0.2275
  584MOL0     C78724   9.419   2.565   5.935  0.4540  0.0266  0.5958
  584MOL0     C78725   9.443   2.606   6.070  0.5006  0.3801 -0.1055
  584MOL0     C78726   9.338   2.553   6.165  0.6508 -0.6138 -1.5676
  584MOL0     C78727   9.217   2.642   6.185 -1.2016  0.3023 -0.7189
  584MOL0     C78728   9.101   2.605   6.085  1.1421 -0.0491 -0.1381
  584MOL0     O78729   8.993   2.705   6.099 -0.2908  0.3191  0.4517
  584MOL0     C78730   8.899   2.700   5.998  0.4070 -0.2259 -1.2314
  584MOL0     C78731   8.800   2.603   6.004  0.3288  0.2363  0.1676
  584MOL0     C78732   8.709   2.598   5.900 -0.2803 -0.1262 -0.0947
  584MOL0     C78733   8.598   2.508   5.920 -0.0551  0.7090  0.4081
  584MOL0     C78734   8.728   2.683   5.782  0.5797  0.5184 -0.4106
  584MOL0     C78735   8.639   2.666   5.664 -0.0774 -0.3935 -0.0003
  584MOL0     O78736   8.526   2.603   5.680 -0.9479 -0.0328 -0.0827
  584MOL0     C78737   8.414   2.613   5.607  0.8467 -0.2709  0.0005
  584MOL0     C78738   8.302   2.535   5.647  0.3145 -0.2300  0.5728
  584MOL0     C78739   8.179   2.531   5.583  0.2095 -1.0419  0.9466
  584MOL0     C78740   8.165   2.614   5.465  0.2210  0.0083 -0.6724
  584MOL0     O78741   8.043   2.635   5.410  0.1976  0.3697  0.2965
  584MOL0     C78742   7.948   2.527   5.403  0.6467  0.0806  0.0219
  584MOL0     C78743   7.846   2.539   5.280 -0.5902  0.0413 -0.3724
  584MOL0     C78744   7.727   2.440   5.295 -0.1107  0.0909  0.6291
  584MOL0     C78745   7.615   2.466   5.195  0.0962 -0.1987 -0.4678
  584MOL0     C78746   7.520   2.346   5.186  0.2194 -0.0531 -0.6062
  584MOL0     C78747   7.415   2.353   5.076  0.6759 -0.1533  0.3211
  584MOL0     C78748   7.456   2.322   4.929  0.0586 -0.2262  0.1110
  584MOL0     C78749   7.354   2.227   4.860 -0.3566 -0.3059 -0.4120
  584MOL0    Cl78750   7.190   2.309   4.867 -0.2772 -0.4087  0.0455
  584MOL0     C78751   8.265   2.703   5.432  0.7155  0.3789  0.5500
  584MOL0     C78752   8.386   2.702   5.499 -0.2956  0.0064  0.2385
  584MOL0     O78753   8.686   2.723   5.559  0.0432 -0.1976  0.5042
  584MOL0     C78754   8.836   2.771   5.783 -0.2664 -0.2009 -0.6379
  584MOL0     C78755   8.917   2.781   5.891 -0.2064  0.5845  0.1065
  584MOL0     N78756   9.431   2.433   5.904  0.2134  0.0358  0.4150
  584MOL0     N78757   9.403   2.417   5.781 -0.4670  0.2941  0.2443
  584MOL0     C78758   8.495   2.367   5.279 -0.4945  0.6724 -0.6439
  584MOL0     C78759   8.374   2.346   5.209 -0.2508  0.0264 -0.1105
  584MOL0     C78760   8.004   2.129   5.044 -0.4492 -0.7540 -1.1166
  584MOL0     C78761   8.053   2.075   4.923  0.3135  0.1462  0.5853
  584MOL0     C78762   7.963   2.011   4.833  0.4026  0.0264  0.1756
  584MOL0     C78763   7.828   2.003   4.864  0.4979 -0.9230 -0.2166
  584MOL0     O78764   7.736   1.932   4.787 -0.0252  0.1802 -0.0516
  584MOL0     C78765   7.736   1.797   4.816  0.0686 -1.3560  0.3998
  584MOL0     C78766   7.750   1.724   4.681 -0.4950 -0.5683  0.6774
  584MOL0     C78767   7.603   1.715   4.617  0.0053 -0.0002 -1.1119
  584MOL0     C78768   7.597   1.616   4.498  0.1072 -0.3298 -0.0540
  584MOL0     C78769   7.680   1.490   4.515 -0.3393  0.0448 -0.6193
  584MOL0     C78770   7.770   1.407   4.512  0.1702 -0.0552 -0.4807
  584MOL0     C78771   7.775   2.077   4.980 -0.3031 -0.5436 -0.2382
  584MOL0     C78772   7.862   2.136   5.068  0.6198 -0.3743  0.1915
  584MOL0     H78773   8.366   2.010   5.195  0.4953 -0.6595  1.0837
  584MOL0     H78774   8.599   2.047   5.313  0.7990  1.2305  0.7857
  584MOL0     H78775   8.725   2.463   5.414  1.1734  0.0663  0.0847
  584MOL0     H78776   8.622   2.371   5.521 -1.7767 -2.3220 -2.3290
  584MOL0     H78777   8.855   2.426   5.626 -0.4660  0.4521 -0.0144
  584MOL0     H78778   8.830   2.253   5.625  0.5637  1.4991  1.8663
  584MOL0     H78779   9.051   2.314   5.572 -2.4550 -0.6264  2.3662
  584MOL0     H78780   8.994   2.224   5.431 -2.1038  0.4556 -1.3028
  584MOL0     H78781   9.099   2.399   5.339  0.1936 -0.7333 -0.4942
  584MOL0     H78782   8.925   2.429   5.315  0.9121  0.5042 -1.8035
  584MOL0     H78783   9.068   2.639   5.367  4.5844 -0.5035 -0.2161
  584MOL0     H78784   8.959   2.626   5.498  0.8421  1.7904 -0.2844
  584MOL0     H78785   9.158   2.692   5.592  4.4752  0.9414  0.2167
  584MOL0     H78786   9.117   2.526   5.639 -2.0415 -0.4904 -1.6940
  584MOL0     H78787   9.278   2.427   5.502  1.2635 -0.0682  3.1352
  584MOL0     H78788   9.286   2.576   5.400 -0.6542  0.6787 -0.0867
  584MOL0     H78789   9.418   2.675   5.570 -0.9032  0.3885  1.1243
  584MOL0     H78790   9.492   2.518   5.528  1.1590 -1.0384  2.9147
  584MOL0     H78791   9.402   2.742   5.800 -0.9731 -0.4792 -1.6656
  584MOL0     H78792   9.539   2.563   6.098  1.7359  0.7457 -3.3723
  584MOL0     H78793   9.449   2.715   6.075  1.6336  0.4591 -2.0147
  584MOL0     H78794   9.381   2.556   6.265 -0.9968  0.7930 -0.8597
  584MOL0     H78795   9.301   2.450   6.155 -0.9418 -0.5281  1.9239
  584MOL0     H78796   9.236   2.748   6.162 -3.1350  0.6531 -0.9170
  584MOL0     H78797   9.189   2.640   6.290  0.1822  0.3162 -0.3381
  584MOL0     H78798   9.050   2.511   6.109 -2.6063  1.9876  0.7069
  584MOL0     H78799   9.145   2.591   5.986  1.8688  0.3409  0.1271
  584MOL0     H78800   8.800   2.530   6.084  1.1629  2.3559  2.2352
  584MOL0     H78801   8.609   2.426   5.849 -4.1481  1.8925 -1.8998
  584MOL0     H78802   8.600   2.449   6.012 -0.9126 -1.0242 -0.6427
  584MOL0     H78803   8.500   2.550   5.899 -1.2395 -1.7400  0.6814
  584MOL0     H78804   8.319   2.488   5.743 -3.3202 -2.2290  0.4423
  584MOL0     H78805   8.092   2.481   5.623 -2.4079  1.5252 -1.0696
  584MOL0     H78806   8.003   2.434   5.387 -2.7059 -1.8486 -1.4292
  584MOL0     H78807   7.895   2.517   5.498  0.1226  2.1836  0.0062
  584MOL0     H78808   7.808   2.640   5.262 -1.0865 -0.1944 -0.6695
  584MOL0     H78809   7.893   2.513   5.185  0.7338  4.9123 -1.3118
  584MOL0     H78810   7.681   2.444   5.394 -3.1014 -1.0366 -0.5896
  584MOL0     H78811   7.758   2.336   5.279 -2.0169 -0.3873 -0.2646
  584MOL0     H78812   7.563   2.548   5.246 -0.8784 -1.8143  1.2279
  584MOL0     H78813   7.663   2.491   5.099 -1.8692 -2.6673 -2.2285
  584MOL0     H78814   7.469   2.333   5.282  0.2869  0.1810 -0.5390
  584MOL0     H78815   7.579   2.254   5.170  2.0922  1.2689 -1.7484
  584MOL0     H78816   7.336   2.282   5.099  1.2795 -1.4457 -1.4093
  584MOL0     H78817   7.364   2.449   5.085 -2.7944 -1.6588 -1.5109
  584MOL0     H78818   7.553   2.274   4.945 -0.4657 -1.8818 -1.3139
  584MOL0     H78819   7.457   2.418   4.877 -2.8202 -0.7739 -1.1939
  584MOL0     H78820   7.357   2.127   4.905 -1.1604 -0.0369  0.2496
  584MOL0     H78821   7.383   2.207   4.757 -0.0733 -0.7044 -0.2575
  584MOL0     H78822   8.268   2.759   5.339  1.3503 -1.3507 -0.5243
  584MOL0     H78823   8.452   2.779   5.459 -0.7842 -0.1211 -0.8678
  584MOL0     H78824   8.870   2.824   5.694  1.5547  1.1954  0.8099
  584MOL0     H78825   9.009   2.836   5.872  1.6478 -1.7495  1.7632
  584MOL0     H78826   8.527   2.465   5.311  2.1535 -0.9354  2.2221
  584MOL0     H78827   8.319   2.437   5.188  0.3384  1.1447  2.7043
  584MOL0     H78828   8.158   2.049   4.916 -0.3075 -2.7270  0.7366
  584MOL0     H78829   7.990   1.944   4.752 -0.9488 -1.8796  1.2096
  584MOL0     H78830   7.824   1.768   4.874 -0.2610 -0.8691  1.1664
  584MOL0     H78831   7.653   1.770   4.882  0.7080 -0.7702  1.4714
  584MOL0     H78832   7.789   1.623   4.692 -0.4709 -0.4828  1.4094
  584MOL0     H78833   7.825   1.777   4.620  0.3329 -0.8160  1.4493
  584MOL0     H78834   7.563   1.811   4.585  1.4288  0.9195 -0.2153
  584MOL0     H78835   7.546   1.661   4.694  2.0973 -4.0417 -2.1035
  584MOL0     H78836   7.631   1.670   4.409 -0.0742  1.9405  1.1842
  584MOL0     H78837   7.493   1.587   4.482 -0.0032 -0.5137  0.9034
  584MOL0     H78838   7.846   1.337   4.537  0.7090  0.6680 -0.0706
  584MOL0     H78839   7.666   2.079   4.984 -0.6209 -4.0905 -2.1893
  584MOL0     H78840   7.826   2.184   5.159  2.1047  2.1985 -0.4757
  585MOL0     O78841   7.695   9.127   8.328 -0.1252  0.3385  0.3666
  585MOL0     C78842   7.785   9.210   8.334  0.2319 -0.8464  0.1870
  585MOL0     O78843   7.757   9.351   8.351  0.6777 -0.5144  0.0865
  585MOL0     C78844   7.624   9.378   8.351 -0.0676 -0.1380 -0.2117
  585MOL0     C78845   7.541   9.369   8.241  0.2351 -1.1948 -0.4914
  585MOL0     C78846   7.403   9.391   8.254 -0.0965 -0.0258 -0.0473
  585MOL0     C78847   7.342   9.411   8.376 -0.1442  0.0561  0.3108
  585MOL0     O78848   7.205   9.423   8.377  0.6002  0.0822 -0.1730
  585MOL0     C78849   7.139   9.461   8.499  1.0099 -0.6319  0.2926
  585MOL0     C78850   7.005   9.532   8.466 -0.0957  0.0774 -0.5843
  585MOL0     C78851   6.890   9.441   8.426 -0.0351 -0.2493  0.2485
  585MOL0     C78852   6.794   9.421   8.553 -0.0080  0.0914 -0.0955
  585MOL0     C78853   6.653   9.366   8.527 -0.3676  0.2353  0.3847
  585MOL0     C78854   6.657   9.216   8.505 -0.5181  0.0904  0.9380
  585MOL0     C78855   6.524   9.147   8.498  0.2744  0.2418  0.4732
  585MOL0     C78856   6.548   8.992   8.498 -0.8082 -0.2015 -1.2693
  585MOL0     N78857   6.604   8.936   8.376 -0.9236 -0.4587 -0.5017
  585MOL0     C78858   6.744   8.936   8.351  0.1005 -0.0747 -0.7174
  585MOL0     C78859   6.754   8.843   8.250  0.6921  0.4620 -0.2687
  585MOL0     C78860   6.886   8.801   8.199 -0.0939  0.3235  0.5046
  585MOL0     C78861   6.977   8.726   8.290  0.2382  0.3964  0.6142
  585MOL0     C78862   6.946   8.580   8.333 -0.0825 -0.3654 -0.1739
  585MOL0     C78863   6.952   8.477   8.217 -1.0667 -0.3759 -0.3175
  585MOL0     O78864   6.944   8.347   8.280  0.8745 -0.6348  0.4468
  585MOL0     C78865   7.046   8.257   8.254 -0.1041  0.6032  0.2327
  585MOL0     C78866   7.175   8.285   8.289 -0.1787 -0.0378 -0.3166
  585MOL0     C78867   7.284   8.188   8.267  0.5077  0.0339 -1.1680
  585MOL0     C78868   7.419   8.239   8.319 -0.4758  0.1761 -0.5445
  585MOL0     C78869   7.250   8.064   8.198  0.1444 -0.4543  0.6535
  585MOL0     C78870   7.349   7.947   8.173 -0.7772 -0.3779  0.1202
  585MOL0     O78871   7.482   7.967   8.212  0.6963 -0.0773 -0.3152
  585MOL0     C78872   7.576   7.869   8.203 -0.1645  0.7566  0.2702
  585MOL0     C78873   7.601   7.786   8.093  0.2405  0.2790 -0.7867
  585MOL0     C78874   7.722   7.724   8.090 -0.2163  0.0748  0.1874
  585MOL0     C78875   7.825   7.732   8.185  0.0558  0.1298 -0.8001
  585MOL0     O78876   7.952   7.679   8.169 -0.5659 -0.0600 -0.1703
  585MOL0     C78877   8.051   7.691   8.276  0.8062  0.1083  0.1859
  585MOL0     C78878   8.178   7.627   8.235 -0.1916 -0.9610  0.6892
  585MOL0     C78879   8.252   7.682   8.112  0.4867  0.1325 -0.3062
  585MOL0     C78880   8.396   7.626   8.109  0.4292 -0.0229  1.2992
  585MOL0     C78881   8.457   7.662   7.980 -0.1037  0.1574  0.3816
  585MOL0     C78882   8.603   7.639   7.966  0.1224  0.0284  0.3842
  585MOL0     C78883   8.707   7.749   8.009  0.5815  0.7539 -0.3584
  585MOL0     C78884   8.703   7.788   8.157 -0.5927 -0.6756 -0.3923
  585MOL0    Cl78885   8.836   7.899   8.166  0.1143  0.1033 -0.3101
  585MOL0     C78886   7.793   7.801   8.301 -0.7084 -0.6816  0.4414
  585MOL0     C78887   7.668   7.866   8.312  0.8972  0.5521 -0.4706
  585MOL0     O78888   7.296   7.844   8.147 -0.2554 -0.5765  0.2789
  585MOL0     C78889   7.115   8.052   8.148 -0.9099  0.3676  0.3209
  585MOL0     C78890   7.013   8.139   8.190  0.3875  0.3286  0.6158
  585MOL0     N78891   6.625   8.803   8.215 -0.0059  0.4586 -0.0138
  585MOL0     N78892   6.537   8.870   8.285 -0.1522 -0.7209 -0.2336
  585MOL0     C78893   7.428   9.413   8.484 -0.3826  1.0506 -0.7162
  585MOL0     C78894   7.567   9.401   8.477 -0.2862  0.0014  0.2291
  585MOL0     C78895   7.925   9.169   8.332 -0.1020 -0.0380 -0.4228
  585MOL0     C78896   7.956   9.037   8.355 -0.3502  0.8208 -0.2809
  585MOL0     C78897   8.094   8.985   8.343  0.0614  0.2302  0.1012
  585MOL0     C78898   8.194   9.073   8.314 -0.4348 -0.7488  0.2878
  585MOL0     O78899   8.310   9.009   8.289 -0.6508  0.2593 -0.1544
  585MOL0     C78900   8.427   9.091   8.308  0.2371 -0.1259  0.5007
  585MOL0     C78901   8.536   8.990   8.344 -0.6816  0.5331  0.5426
  585MOL0     C78902   8.598   8.921   8.213  0.4377  0.0904  0.5104
  585MOL0     C78903   8.732   8.861   8.247  0.0101 -0.5530 -0.0649
  585MOL0     C78904   8.805   8.798   8.133  0.2170 -0.5014  0.3615
  585MOL0     C78905   8.886   8.772   8.042 -0.1374  0.3542  1.4556
  585MOL0     C78906   8.168   9.206   8.306 -0.3176 -0.5433  0.4574
  585MOL0     C78907   8.038   9.253   8.320 -0.3296  0.3597  0.1709
  585MOL0     H78908   7.582   9.353   8.141  1.1645 -1.2973 -0.1075
  585MOL0     H78909   7.343   9.390   8.164  1.1765  0.5408 -0.9386
  585MOL0     H78910   7.122   9.372   8.560 -0.5483 -0.3099  0.3624
  585MOL0     H78911   7.201   9.538   8.547 -2.0434  0.4481  2.8636
  585MOL0     H78912   6.988   9.599   8.550 -0.1442  0.1116 -0.6218
  585MOL0     H78913   7.023   9.600   8.382  0.7877  0.7880  0.1627
  585MOL0     H78914   6.833   9.476   8.339 -2.9581 -2.3964  1.1400
  585MOL0     H78915   6.928   9.343   8.398 -0.9132 -0.8754  1.1995
  585MOL0     H78916   6.833   9.349   8.627 -1.6457 -3.3021 -2.2963
  585MOL0     H78917   6.783   9.521   8.597 -4.2742  0.2122 -1.0093
  585MOL0     H78918   6.603   9.389   8.621 -0.4096 -0.1168  0.4464
  585MOL0     H78919   6.600   9.414   8.444 -2.5824  1.8649  2.5792
  585MOL0     H78920   6.716   9.199   8.415 -2.5528  4.3938 -1.5375
  585MOL0     H78921   6.710   9.177   8.593 -1.2993  0.3714  1.5426
  585MOL0     H78922   6.460   9.175   8.582  0.4215  1.2786  0.2440
  585MOL0     H78923   6.471   9.173   8.406  1.1699  1.7929  0.3669
  585MOL0     H78924   6.443   8.960   8.502 -1.9866  3.3871  0.9794
  585MOL0     H78925   6.609   8.962   8.583 -2.2382  2.7394  0.9526
  585MOL0     H78926   6.818   8.972   8.422  0.8926 -2.5128 -0.2176
  585MOL0     H78927   6.861   8.739   8.112 -1.5948  0.0531  1.0918
  585MOL0     H78928   6.935   8.892   8.163  2.2372 -0.9486  0.2360
  585MOL0     H78929   6.977   8.796   8.374  1.7306  5.0272 -2.7969
  585MOL0     H78930   7.079   8.728   8.249  0.6867 -0.2182  1.6517
  585MOL0     H78931   6.839   8.598   8.353 -0.9141 -2.3747 -2.3337
  585MOL0     H78932   7.010   8.561   8.419  0.1063 -1.0902 -0.4665
  585MOL0     H78933   7.049   8.487   8.169  1.0100  1.3575  3.7192
  585MOL0     H78934   6.866   8.506   8.155 -0.3076 -1.1976 -1.7939
  585MOL0     H78935   7.192   8.373   8.350 -2.7132  0.2283  0.0843
  585MOL0     H78936   7.467   8.166   8.384  0.9610  1.5391 -0.0060
  585MOL0     H78937   7.479   8.277   8.236 -1.0965  1.2540 -0.5320
  585MOL0     H78938   7.403   8.326   8.384  1.7402  1.3711 -1.4920
  585MOL0     H78939   7.536   7.779   8.006 -0.0837  0.0617 -0.5331
  585MOL0     H78940   7.747   7.674   7.997  2.3063  1.8631 -0.1820
  585MOL0     H78941   8.064   7.798   8.298  1.3434  0.3874 -1.3477
  585MOL0     H78942   8.011   7.640   8.364 -0.1601 -1.2180 -0.9707
  585MOL0     H78943   8.238   7.632   8.326  0.9783 -0.8789 -0.0761
  585MOL0     H78944   8.167   7.518   8.223 -2.6407 -0.6965 -0.1677
  585MOL0     H78945   8.252   7.791   8.108 -0.8446  0.1013 -2.1999
  585MOL0     H78946   8.207   7.651   8.018  2.3230 -3.8573 -0.0752
  585MOL0     H78947   8.452   7.674   8.189  0.0425  2.0159  0.3991
  585MOL0     H78948   8.388   7.517   8.115  1.9245 -0.3359 -0.9753
  585MOL0     H78949   8.441   7.769   7.967  2.3128  0.6532  1.0116
  585MOL0     H78950   8.405   7.606   7.902  2.5596  1.7099 -2.7773
  585MOL0     H78951   8.628   7.546   8.018  3.9213 -0.3297 -1.6708
  585MOL0     H78952   8.617   7.618   7.859 -0.5157 -0.6060  0.4219
  585MOL0     H78953   8.707   7.835   7.941 -0.4343 -0.7674 -2.3931
  585MOL0     H78954   8.802   7.700   7.990 -0.5269 -1.6279 -0.1602
  585MOL0     H78955   8.714   7.711   8.234  4.0220  1.9923  2.0044
  585MOL0     H78956   8.616   7.851   8.179  0.7151  0.4900  1.7847
  585MOL0     H78957   7.853   7.820   8.389  2.9461 -0.6636 -1.8535
  585MOL0     H78958   7.653   7.922   8.404  5.3161 -0.4563  1.0833
  585MOL0     H78959   7.090   7.961   8.094  1.2394 -0.7581  1.0863
  585MOL0     H78960   6.907   8.131   8.171  0.8654 -0.1018 -2.2848
  585MOL0     H78961   7.397   9.430   8.587  0.5954  0.6185 -0.3420
  585MOL0     H78962   7.634   9.412   8.562 -0.8226 -1.6725  0.9076
  585MOL0     H78963   7.883   8.958   8.371  0.1657  0.1377 -1.2076
  585MOL0     H78964   8.105   8.879   8.360 -4.5732 -0.1525  2.3399
  585MOL0     H78965   8.443   9.153   8.219  0.6457 -1.2947 -0.2603
  585MOL0     H78966   8.404   9.163   8.387 -0.1769  2.0700 -1.4931
  585MOL0     H78967   8.510   8.912   8.416  1.1387 -1.3665 -0.7732
  585MOL0     H78968   8.610   9.057   8.389  2.3465 -0.7549 -2.1465
  585MOL0     H78969   8.607   9.004   8.141  0.4569  0.7036  1.2135
  585MOL0     H78970   8.533   8.845   8.169  2.7457 -0.9445 -1.3685
  585MOL0     H78971   8.711   8.782   8.318 -0.4507 -0.7431 -0.4044
  585MOL0     H78972   8.795   8.937   8.293 -3.7046  3.1696 -0.4925
  585MOL0     H78973   8.951   8.751   7.959  2.0113  1.1462  2.8430
  585MOL0     H78974   8.253   9.271   8.285 -0.5917  0.3207  1.8768
  585MOL0     H78975   8.029   9.359   8.296  0.0948  0.4583  0.4457
  586MOL0     O78976   4.595   6.657   6.781  0.3738 -0.6042  0.5206
  586MOL0     C78977   4.560   6.578   6.862 -0.2413  0.6012  0.1544
  586MOL0     O78978   4.432   6.526   6.860 -0.0895  0.2185 -0.0088
  586MOL0     C78979   4.341   6.565   6.762  0.4869  0.2928 -0.0027
  586MOL0     C78980   4.371   6.550   6.629  0.2536  0.5094 -0.2752
  586MOL0     C78981   4.279   6.579   6.522  0.2381  0.0370 -0.0993
  586MOL0     C78982   4.157   6.650   6.563  0.0596 -0.0714 -0.6319
  586MOL0     O78983   4.071   6.700   6.465  0.1045  0.7676  0.1876
  586MOL0     C78984   3.939   6.738   6.503  0.2356  0.1415 -1.2909
  586MOL0     C78985   3.944   6.888   6.528 -0.1760  0.8003  0.1295
  586MOL0     C78986   3.921   6.985   6.412  0.1467 -0.0791 -1.2565
  586MOL0     C78987   4.023   7.102   6.403 -0.1723 -0.2476  0.8234
  586MOL0     C78988   4.005   7.210   6.510 -0.3700  1.0561 -0.3698
  586MOL0     C78989   4.096   7.331   6.458  0.0768  0.1852  0.1297
  586MOL0     C78990   4.077   7.461   6.537 -0.6381  0.3466 -0.6765
  586MOL0     C78991   4.153   7.593   6.485  0.0813  0.5830  0.7661
  586MOL0     N78992   4.095   7.715   6.546 -0.0081 -0.5557 -0.5768
  586MOL0     C78993   3.990   7.794   6.491 -0.4585 -0.1232  0.4910
  586MOL0     C78994   3.984   7.900   6.581 -0.3030 -0.1293  0.7924
  586MOL0     C78995   3.887   8.011   6.579 -0.7883 -0.4478  0.6776
  586MOL0     C78996   3.944   8.133   6.649 -0.1809  0.7435  0.8978
  586MOL0     C78997   3.822   8.219   6.681  0.7149 -0.2758  0.0808
  586MOL0     C78998   3.848   8.351   6.763  0.4023  0.4896  0.2757
  586MOL0     O78999   3.954   8.325   6.864 -0.5045  0.1090 -0.0394
  586MOL0     C79000   3.954   8.405   6.974 -0.4711  0.0958 -0.3972
  586MOL0     C79001   4.033   8.353   7.078 -0.8470 -0.6245  0.0902
  586MOL0     C79002   4.065   8.421   7.199  0.1906  0.1939 -0.1681
  586MOL0     C79003   4.154   8.353   7.300  0.0738  0.4783 -0.6663
  586MOL0     C79004   4.020   8.557   7.203  0.6517  0.3627  0.1745
  586MOL0     C79005   4.051   8.644   7.316 -0.4368  0.5007 -0.4943
  586MOL0     O79006   3.950   8.733   7.352  0.0518 -0.1589  0.2960
  586MOL0     C79007   3.967   8.820   7.457  0.9316  0.4433 -0.9581
  586MOL0     C79008   4.082   8.863   7.528 -0.2582 -0.1442  0.2802
  586MOL0     C79009   4.074   8.964   7.618  0.3574 -0.3263 -1.0568
  586MOL0     C79010   3.945   9.019   7.649 -1.0283 -0.3769 -0.1414
  586MOL0     O79011   3.937   9.106   7.755 -0.7088  0.5834  0.6588
  586MOL0     C79012   4.046   9.193   7.794  0.2089  1.2083 -0.0410
  586MOL0     C79013   4.005   9.282   7.914 -0.2454  0.4292 -0.1352
  586MOL0     C79014   3.894   9.376   7.871 -0.4739 -0.4949 -1.1040
  586MOL0     C79015   3.819   9.451   7.993  0.3688  0.5937 -0.0586
  586MOL0     C79016   3.709   9.353   8.034  0.3928  0.1198 -0.1684
  586MOL0     C79017   3.618   9.424   8.140  0.3739  0.8429 -0.0098
  586MOL0     C79018   3.499   9.344   8.176  0.1293  0.0441  0.3450
  586MOL0     C79019   3.413   9.404   8.291  0.0962  0.2585  0.1914
  586MOL0    Cl79020   3.510   9.465   8.436 -0.5747  0.5623 -0.1184
  586MOL0     C79021   3.838   8.989   7.577  0.2404  0.9232 -1.3188
  586MOL0     C79022   3.843   8.894   7.484 -0.4097  1.6538  0.3017
  586MOL0     O79023   4.157   8.631   7.375  0.5057  0.1512 -0.0863
  586MOL0     C79024   3.929   8.611   7.108 -0.2160 -0.5015  0.8183
  586MOL0     C79025   3.897   8.532   6.993  0.0516 -0.3834 -0.1961
  586MOL0     N79026   4.085   7.888   6.672  0.5279 -0.4808  0.4691
  586MOL0     N79027   4.148   7.781   6.648 -0.4321 -0.0170 -0.4085
  586MOL0     C79028   4.136   6.670   6.703 -0.7467 -0.6721  0.0766
  586MOL0     C79029   4.227   6.628   6.800  0.8402 -0.6264 -0.3922
  586MOL0     C79030   4.649   6.528   6.954  0.1946 -0.2199 -0.5532
  586MOL0     C79031   4.590   6.444   7.063 -0.7019  0.7252  0.0826
  586MOL0     C79032   4.671   6.383   7.153 -0.1906  0.6746 -0.2770
  586MOL0     C79033   4.809   6.411   7.146 -0.5146 -0.5582  0.4281
  586MOL0     O79034   4.907   6.356   7.236  0.2606 -0.0735 -0.1842
  586MOL0     C79035   4.873   6.371   7.369  0.4882  0.1647  0.2543
  586MOL0     C79036   4.998   6.350   7.456  0.5171  0.4847 -0.3360
  586MOL0     C79037   5.106   6.442   7.421  0.5546 -0.1868 -0.0495
  586MOL0     C79038   5.240   6.398   7.484  0.3831 -1.1685 -0.4330
  586MOL0     C79039   5.248   6.427   7.626 -0.1029  0.9620  0.5029
  586MOL0     C79040   5.263   6.436   7.745 -0.1680  0.2817 -0.4571
  586MOL0     C79041   4.857   6.490   7.048 -0.4189 -1.0083 -0.2367
  586MOL0     C79042   4.784   6.560   6.947  0.5869  0.2503  0.5762
  586MOL0     H79043   4.470   6.509   6.614 -0.1705 -0.8622  0.4401
  586MOL0     H79044   4.294   6.570   6.415 -4.6962 -0.5127 -0.9619
  586MOL0     H79045   3.882   6.714   6.412 -2.0102  0.1825  0.0510
  586MOL0     H79046   3.904   6.669   6.579 -0.2354 -0.7876 -2.3178
  586MOL0     H79047   3.870   6.909   6.605 -0.6302  2.2645 -0.6830
  586MOL0     H79048   4.042   6.907   6.573  0.6153 -0.9717 -0.7175
  586MOL0     H79049   3.949   6.933   6.320  1.2301 -0.3258 -0.8030
  586MOL0     H79050   3.818   7.020   6.423  0.8105  1.2436  2.5455
  586MOL0     H79051   4.128   7.071   6.398 -0.0543  0.3067 -2.9427
  586MOL0     H79052   4.007   7.147   6.304  2.6966 -1.0056 -0.1151
  586MOL0     H79053   3.900   7.226   6.536 -0.8650 -3.2094  1.0687
  586MOL0     H79054   4.052   7.172   6.601  2.0600  1.4063 -1.4164
  586MOL0     H79055   4.200   7.298   6.460  1.3166  3.3330 -2.8459
  586MOL0     H79056   4.058   7.343   6.356 -1.7039  0.9292  0.8401
  586MOL0     H79057   3.971   7.488   6.537 -0.4636  1.2442  1.6470
  586MOL0     H79058   4.106   7.446   6.641  0.9699  0.7246 -1.0408
  586MOL0     H79059   4.148   7.606   6.376 -0.3954  1.7631  0.9156
  586MOL0     H79060   4.258   7.589   6.516  0.6035 -0.6610 -0.9929
  586MOL0     H79061   3.927   7.780   6.404 -0.0465  0.5203  0.0826
  586MOL0     H79062   3.864   8.035   6.475  2.6476  1.4069  0.2183
  586MOL0     H79063   3.792   7.978   6.622 -0.6718 -2.5010 -0.5283
  586MOL0     H79064   4.013   8.187   6.584 -0.7412  1.5074  0.9176
  586MOL0     H79065   3.991   8.104   6.743  0.7861  3.6573  1.4196
  586MOL0     H79066   3.755   8.161   6.745 -0.3882  2.2081  1.3454
  586MOL0     H79067   3.768   8.254   6.592 -0.0377  1.0074  1.0001
  586MOL0     H79068   3.761   8.384   6.822  3.0226  1.3435  4.0383
  586MOL0     H79069   3.861   8.420   6.680 -3.5287 -3.1451 -3.8641
  586MOL0     H79070   4.078   8.255   7.067  1.4916  0.5724 -1.9222
  586MOL0     H79071   4.258   8.388   7.296  0.5764 -0.9681 -0.7906
  586MOL0     H79072   4.112   8.376   7.398 -0.5285 -1.3027 -0.4746
  586MOL0     H79073   4.160   8.245   7.280  1.6477  0.5412 -0.6766
  586MOL0     H79074   4.180   8.817   7.519  0.0427  0.3999  0.6989
  586MOL0     H79075   4.158   9.011   7.668 -0.8936  1.0977 -0.2272
  586MOL0     H79076   4.130   9.129   7.822 -0.8605 -0.1587  0.1674
  586MOL0     H79077   4.077   9.257   7.711 -0.0819  0.8017 -0.4704
  586MOL0     H79078   3.984   9.211   7.994 -1.8601 -0.4161 -1.2495
  586MOL0     H79079   4.089   9.342   7.952  1.2231 -0.5042 -1.7377
  586MOL0     H79080   3.817   9.332   7.807  0.1117 -0.7193 -1.6666
  586MOL0     H79081   3.941   9.452   7.808  0.2157  0.8619  0.9378
  586MOL0     H79082   3.880   9.484   8.078  4.1647  1.5821 -2.9083
  586MOL0     H79083   3.772   9.539   7.948 -1.2316  0.3575  1.0659
  586MOL0     H79084   3.748   9.264   8.084 -2.6017 -1.0002  0.4080
  586MOL0     H79085   3.649   9.329   7.945 -0.0848  0.3086  0.0967
  586MOL0     H79086   3.684   9.430   8.227  0.1825  3.1896  0.0399
  586MOL0     H79087   3.583   9.521   8.106 -1.2042  0.4763  0.4829
  586MOL0     H79088   3.531   9.242   8.198 -0.9101 -0.5594 -0.7935
  586MOL0     H79089   3.432   9.329   8.091 -1.1110 -2.7723  1.7023
  586MOL0     H79090   3.345   9.329   8.332  0.3374 -0.3693 -0.5429
  586MOL0     H79091   3.358   9.490   8.251 -0.4094 -0.0961  0.1192
  586MOL0     H79092   3.748   9.045   7.601  0.6503  0.4564  1.8374
  586MOL0     H79093   3.761   8.864   7.421 -1.0685  0.1924  1.7735
  586MOL0     H79094   3.895   8.714   7.111  2.4606  0.4304  2.1503
  586MOL0     H79095   3.840   8.585   6.917  3.1004  1.5324 -1.3666
  586MOL0     H79096   4.058   6.735   6.740  1.8869  0.6058  3.9771
  586MOL0     H79097   4.211   6.664   6.901  3.9080 -1.6580  0.5657
  586MOL0     H79098   4.485   6.419   7.066 -0.7007  0.7461  0.3081
  586MOL0     H79099   4.630   6.314   7.226  1.2413  1.1032  0.9889
  586MOL0     H79100   4.846   6.474   7.393  0.6666 -0.3155  2.8564
  586MOL0     H79101   4.793   6.300   7.394 -2.8251  3.1898 -0.9989
  586MOL0     H79102   5.040   6.250   7.440  2.8763  1.1263  1.2595
  586MOL0     H79103   4.985   6.362   7.564  0.8342 -0.2431 -0.2124
  586MOL0     H79104   5.083   6.547   7.441 -1.3868 -0.5883  0.0325
  586MOL0     H79105   5.123   6.432   7.314  0.7825 -1.6140  0.0926
  586MOL0     H79106   5.307   6.475   7.444 -2.0260  2.2286  1.5767
  586MOL0     H79107   5.268   6.293   7.470 -1.2781 -1.8131  0.7174
  586MOL0     H79108   5.296   6.444   7.846 -0.1936  1.9762 -0.5534
  586MOL0     H79109   4.965   6.498   7.038 -0.0277 -1.0898  2.9125
  586MOL0     H79110   4.817   6.636   6.876 -2.6832  1.7884  0.5071
  587MOL0     O79111   1.980   2.800   9.188  0.2124 -0.1268  0.5228
  587MOL0     C79112   2.012   2.683   9.204  0.1694 -0.6823 -0.3853
  587MOL0     O79113   1.931   2.574   9.215 -0.0987 -1.0538 -0.0660
  587MOL0     C79114   1.802   2.588   9.180  0.1263 -0.8839 -1.3758
  587MOL0     C79115   1.700   2.537   9.268  0.4403 -0.0622 -0.6852
  587MOL0     C79116   1.562   2.538   9.233  0.4068 -0.2740 -0.4401
  587MOL0     C79117   1.527   2.573   9.102 -0.1062  0.3842 -0.1955
  587MOL0     O79118   1.401   2.560   9.059 -0.4843  0.2358  0.3129
  587MOL0     C79119   1.374   2.553   8.915 -0.2498 -0.3469 -0.7989
  587MOL0     C79120   1.230   2.539   8.890 -0.8973 -0.9987  0.3589
  587MOL0     C79121   1.202   2.515   8.743  0.3370 -0.5280 -0.1913
  587MOL0     C79122   1.195   2.647   8.667 -0.3705  0.9582  0.4467
  587MOL0     C79123   1.173   2.639   8.512 -0.6261  0.4096  0.5663
  587MOL0     C79124   1.046   2.573   8.464  0.0548  0.8700  0.4661
  587MOL0     C79125   0.927   2.643   8.522 -0.1391  0.4036 -0.3158
  587MOL0     C79126   0.792   2.579   8.479 -0.6532 -0.4030 -0.3055
  587MOL0     N79127   0.766   2.549   8.341 -0.0381  0.3612  0.5397
  587MOL0     C79128   0.761   2.640   8.239  0.1119  0.6577  0.3938
  587MOL0     C79129   0.719   2.578   8.127 -0.9333  0.1683 -0.3991
  587MOL0     C79130   0.708   2.639   7.992 -0.3709  0.4924 -0.1056
  587MOL0     C79131   0.677   2.540   7.883 -0.1128  0.6971  0.2147
  587MOL0     C79132   0.809   2.472   7.838 -0.3121  0.3296  0.8684
  587MOL0     C79133   0.791   2.357   7.739 -0.1236  1.2978 -0.3760
  587MOL0     O79134   0.919   2.310   7.708 -0.7376 -0.0992  0.0331
  587MOL0     C79135   0.990   2.226   7.792  0.5579  0.7941  0.5982
  587MOL0     C79136   0.927   2.135   7.883  0.0628  0.6538  0.3646
  587MOL0     C79137   1.002   2.045   7.959  0.1493 -0.1092  0.0911
  587MOL0     C79138   0.928   1.941   8.059 -0.8144 -0.3625 -0.3524
  587MOL0     C79139   1.143   2.035   7.934 -0.6121 -0.8993  0.2713
  587MOL0     C79140   1.239   1.946   7.997  0.2679  0.0095  0.4420
  587MOL0     O79141   1.373   1.988   8.014  1.3356  0.5094 -0.2966
  587MOL0     C79142   1.467   1.902   8.066  0.4529  0.1401  0.7376
  587MOL0     C79143   1.537   1.811   7.978 -0.1517  0.3603 -0.1452
  587MOL0     C79144   1.627   1.727   8.023 -0.4437  0.4294  0.2840
  587MOL0     C79145   1.677   1.727   8.149  1.0905  0.9120 -0.3061
  587MOL0     O79146   1.783   1.647   8.177 -0.2422 -0.2254 -0.1568
  587MOL0     C79147   1.814   1.626   8.323  0.0023 -0.0598  0.1943
  587MOL0     C79148   1.926   1.513   8.339 -0.4679  0.3114  0.3245
  587MOL0     C79149   2.061   1.539   8.263 -0.4276  0.0588 -0.2677
  587MOL0     C79150   2.115   1.685   8.273 -0.6785  0.1229  0.5201
  587MOL0     C79151   2.263   1.705   8.226  0.4058  0.4112 -0.4695
  587MOL0     C79152   2.360   1.620   8.307  1.3002  0.1232  0.2405
  587MOL0     C79153   2.513   1.654   8.274 -0.3326 -0.6503  0.2007
  587MOL0     C79154   2.601   1.541   8.323 -0.8146  0.2982 -0.2256
  587MOL0    Cl79155   2.600   1.558   8.508  0.0287  0.4199  0.2375
  587MOL0     C79156   1.617   1.814   8.239  0.6056  0.4292 -0.2937
  587MOL0     C79157   1.511   1.898   8.200 -1.5439  0.5595  0.6236
  587MOL0     O79158   1.193   1.837   8.036  0.0555  0.2142 -0.3718
  587MOL0     C79159   1.201   2.131   7.849 -0.4988  0.6856 -0.0351
  587MOL0     C79160   1.131   2.228   7.780  0.0280  0.5593  0.0632
  587MOL0     N79161   0.711   2.443   8.156 -0.7552 -0.7338 -0.2719
  587MOL0     N79162   0.734   2.424   8.284  0.7874  0.0772 -0.4666
  587MOL0     C79163   1.630   2.627   9.023 -0.3258  0.0788 -0.1384
  587MOL0     C79164   1.763   2.638   9.064 -0.1041 -0.2760  0.5872
  587MOL0     C79165   2.155   2.664   9.207 -0.4330  0.6170 -0.2266
  587MOL0     C79166   2.204   2.548   9.272  0.0293 -0.5066 -0.4828
  587MOL0     C79167   2.341   2.521   9.293  0.0148  0.9301  0.7581
  587MOL0     C79168   2.431   2.619   9.242 -0.5061  0.0930  0.6258
  587MOL0     O79169   2.570   2.612   9.230 -0.2013 -0.5047 -0.3387
  587MOL0     C79170   2.641   2.533   9.331  0.5241 -0.9751  0.5098
  587MOL0     C79171   2.783   2.581   9.360  0.2139 -0.1364  0.0212
  587MOL0     C79172   2.861   2.495   9.459  0.1913  0.1201  0.9980
  587MOL0     C79173   3.008   2.537   9.454 -0.6008  0.7463 -0.6229
  587MOL0     C79174   3.076   2.458   9.560 -1.5295 -0.1469 -0.3651
  587MOL0     C79175   3.160   2.407   9.637 -0.1614  0.5997  0.5281
  587MOL0     C79176   2.381   2.727   9.169 -0.2863 -0.2896  0.0671
  587MOL0     C79177   2.249   2.753   9.151  0.2068 -0.5245 -0.1469
  587MOL0     H79178   1.728   2.496   9.365  2.8141  2.2153 -0.2890
  587MOL0     H79179   1.481   2.495   9.292  1.0803 -1.9447 -0.6874
  587MOL0     H79180   1.419   2.640   8.866  2.8187 -1.6775 -0.5825
  587MOL0     H79181   1.424   2.468   8.867  0.2549 -1.8751  2.2044
  587MOL0     H79182   1.180   2.459   8.947  0.3778 -1.7778  0.4282
  587MOL0     H79183   1.180   2.628   8.929  2.9630  0.9936  1.2010
  587MOL0     H79184   1.272   2.445   8.696 -2.0286 -2.7179 -0.7231
  587MOL0     H79185   1.108   2.460   8.733  0.8619 -1.5054  0.0714
  587MOL0     H79186   1.113   2.703   8.714 -2.1613 -1.7621  0.7859
  587MOL0     H79187   1.288   2.703   8.681 -0.3461  0.9935  0.1480
  587MOL0     H79188   1.182   2.741   8.473  1.4918  0.4428  1.0295
  587MOL0     H79189   1.254   2.583   8.464 -2.0512 -1.0873 -0.1792
  587MOL0     H79190   1.048   2.568   8.355 -1.7392  1.3969  0.3831
  587MOL0     H79191   1.046   2.471   8.503  1.7206  1.2141  1.5115
  587MOL0     H79192   0.924   2.632   8.631  1.3115 -3.8499 -0.5439
  587MOL0     H79193   0.935   2.747   8.488 -0.6156  0.0545 -1.5454
  587MOL0     H79194   0.702   2.634   8.508 -2.6064 -3.2824 -0.5512
  587MOL0     H79195   0.779   2.482   8.528 -2.1912  1.3530  3.1329
  587MOL0     H79196   0.779   2.745   8.257  0.7510  0.7363 -0.6424
  587MOL0     H79197   0.625   2.711   7.994 -1.8822 -1.1066  3.3687
  587MOL0     H79198   0.806   2.686   7.979  1.9150 -3.5487  0.9814
  587MOL0     H79199   0.645   2.595   7.794  1.3841  0.4224 -0.5281
  587MOL0     H79200   0.598   2.471   7.914  1.1402 -2.2030 -2.4679
  587MOL0     H79201   0.864   2.437   7.926 -0.9786  0.6449  1.4214
  587MOL0     H79202   0.870   2.547   7.787  0.7399  1.3473  3.4253
  587MOL0     H79203   0.751   2.388   7.642  0.8141  0.7282 -0.9540
  587MOL0     H79204   0.728   2.276   7.776  0.8122  0.2752 -0.9643
  587MOL0     H79205   0.818   2.130   7.884  0.0968 -1.9900  2.5687
  587MOL0     H79206   0.823   1.970   8.075 -1.0748 -1.5562  0.1936
  587MOL0     H79207   0.933   1.840   8.018 -0.2292 -0.7706  0.6881
  587MOL0     H79208   0.969   1.939   8.160 -3.5777  1.5079  0.9422
  587MOL0     H79209   1.508   1.805   7.873  0.4269 -0.6475 -0.2562
  587MOL0     H79210   1.660   1.641   7.965 -1.5624  1.4421 -1.9857
  587MOL0     H79211   1.846   1.723   8.364  1.5312 -1.3488  2.2622
  587MOL0     H79212   1.724   1.585   8.371  2.2497 -1.5794  3.5219
  587MOL0     H79213   1.964   1.508   8.441  3.7928  0.3152 -1.0487
  587MOL0     H79214   1.894   1.411   8.317  0.0199  0.2940 -0.3509
  587MOL0     H79215   2.062   1.495   8.163 -2.5540 -0.6049 -0.0368
  587MOL0     H79216   2.138   1.475   8.309 -1.3371 -0.6251  0.3561
  587MOL0     H79217   2.042   1.735   8.208 -0.5568 -0.9556 -0.4982
  587MOL0     H79218   2.106   1.716   8.377  3.2510  1.3242  0.6878
  587MOL0     H79219   2.280   1.813   8.228  0.3586  0.4823 -2.2000
  587MOL0     H79220   2.266   1.688   8.118 -3.6137 -0.4066 -0.6151
  587MOL0     H79221   2.341   1.636   8.413  4.0203  2.9458  0.4537
  587MOL0     H79222   2.342   1.513   8.292 -3.3089  0.6873  0.4006
  587MOL0     H79223   2.541   1.744   8.329  3.0438 -0.9447 -0.8463
  587MOL0     H79224   2.522   1.670   8.167  0.9665 -2.7622 -0.0690
  587MOL0     H79225   2.704   1.558   8.291  0.1090 -1.1097  1.7901
  587MOL0     H79226   2.572   1.443   8.282 -0.2453  0.5348 -1.2446
  587MOL0     H79227   1.653   1.812   8.341 -0.5959  1.0926  0.1642
  587MOL0     H79228   1.474   1.967   8.275  2.7938  2.7227  1.0787
  587MOL0     H79229   1.305   2.115   7.825 -0.3307  0.4740  0.7935
  587MOL0     H79230   1.187   2.292   7.713  2.1194  0.9459  2.0374
  587MOL0     H79231   1.610   2.675   8.927 -1.2704 -0.5530 -0.2643
  587MOL0     H79232   1.839   2.670   8.993 -1.0140  1.3669  0.3248
  587MOL0     H79233   2.129   2.486   9.321 -1.4226  0.6396 -1.1842
  587MOL0     H79234   2.368   2.439   9.359 -2.5162  0.0744  0.8396
  587MOL0     H79235   2.576   2.542   9.419 -0.6276  2.2298 -0.5361
  587MOL0     H79236   2.654   2.427   9.307  1.0864 -0.6882 -0.5225
  587MOL0     H79237   2.778   2.682   9.400  4.9422  1.6899 -3.0828
  587MOL0     H79238   2.829   2.569   9.261 -5.6403 -0.5735 -3.1455
  587MOL0     H79239   2.863   2.391   9.427  2.2902 -0.6106  3.2252
  587MOL0     H79240   2.809   2.496   9.555 -4.0995 -2.0806 -0.9774
  587MOL0     H79241   3.025   2.639   9.490  2.1540  0.3623 -0.6657
  587MOL0     H79242   3.038   2.522   9.350 -1.3751  0.1000 -0.7622
  587MOL0     H79243   3.242   2.380   9.701 -0.6574  0.3533  1.0715
  587MOL0     H79244   2.456   2.795   9.130  1.4044 -2.6624 -1.0874
  587MOL0     H79245   2.208   2.837   9.096  1.8169  0.6379  0.3544
  588MOL0     O79246   3.903   4.023  10.239  0.2640  0.3687 -0.2055
  588MOL0     C79247   3.992   3.941  10.236 -0.7126  0.1187  0.0092
  588MOL0     O79248   4.009   3.847  10.140  0.5045  0.1952  0.4316
  588MOL0     C79249   3.941   3.851  10.026 -0.2370  0.1086 -0.1646
  588MOL0     C79250   3.804   3.811  10.018 -0.6699 -0.2405 -0.3448
  588MOL0     C79251   3.734   3.816   9.905 -0.2614  0.2993  0.0004
  588MOL0     C79252   3.800   3.848   9.786 -0.0277  1.0733 -1.3993
  588MOL0     O79253   3.727   3.843   9.677 -0.3579 -0.3382  0.5339
  588MOL0     C79254   3.763   3.912   9.556 -0.5905 -1.2251 -0.9664
  588MOL0     C79255   3.641   3.921   9.457 -0.5371  0.0033  0.1530
  588MOL0     C79256   3.545   4.017   9.513  0.0045  0.2986 -0.1415
  588MOL0     C79257   3.421   4.026   9.437 -0.1993 -0.8388  0.0971
  588MOL0     C79258   3.316   4.129   9.511  0.7113  0.1397 -0.2909
  588MOL0     C79259   3.202   4.152   9.414 -0.0019  0.5367 -0.1168
  588MOL0     C79260   3.068   4.201   9.468  0.5652 -0.2035  0.5310
  588MOL0     C79261   3.074   4.341   9.532 -0.0307 -0.2461 -0.1779
  588MOL0     N79262   3.115   4.443   9.434  0.6984  0.1366 -1.2610
  588MOL0     C79263   3.033   4.512   9.348  0.4918 -0.9126  0.0847
  588MOL0     C79264   3.119   4.601   9.294 -0.1437  0.2485  0.5802
  588MOL0     C79265   3.074   4.697   9.183  0.0788  0.5529 -0.2599
  588MOL0     C79266   2.928   4.702   9.140 -0.3967  0.1825  0.1372
  588MOL0     C79267   2.883   4.838   9.086  0.9921  0.6485  0.2008
  588MOL0     C79268   2.934   4.872   8.947  0.7609  0.0950 -0.2634
  588MOL0     O79269   2.890   4.782   8.856  0.0429 -0.4391  0.6284
  588MOL0     C79270   2.757   4.787   8.813  0.0917  0.1409 -0.3788
  588MOL0     C79271   2.661   4.883   8.847  0.5795 -1.4115  0.0785
  588MOL0     C79272   2.534   4.888   8.793 -0.3087  0.2620  0.2847
  588MOL0     C79273   2.444   5.010   8.826  0.1875 -0.0416  0.5871
  588MOL0     C79274   2.486   4.781   8.711  0.0743  0.0235  0.7323
  588MOL0     C79275   2.343   4.761   8.677 -0.1809  0.6849  1.2041
  588MOL0     O79276   2.246   4.827   8.739  0.4881 -0.3290  0.7147
  588MOL0     C79277   2.118   4.801   8.704  0.2490 -0.3906 -0.2108
  588MOL0     C79278   2.062   4.858   8.589 -0.4818 -0.2350  0.0122
  588MOL0     C79279   1.929   4.822   8.561 -0.6117  0.2269 -0.0709
  588MOL0     C79280   1.854   4.735   8.639  0.4189  0.1506  0.8528
  588MOL0     O79281   1.732   4.711   8.591 -0.0663 -0.1165 -0.9590
  588MOL0     C79282   1.658   4.601   8.652 -0.0398 -0.3221  0.0104
  588MOL0     C79283   1.559   4.649   8.767 -0.5152  0.5928  0.2472
  588MOL0     C79284   1.520   4.533   8.857  0.1910 -0.8131 -0.1150
  588MOL0     C79285   1.473   4.408   8.792  0.8933  0.2344  0.2553
  588MOL0     C79286   1.383   4.326   8.889  0.0782  0.0565 -1.0514
  588MOL0     C79287   1.239   4.363   8.871 -0.6207 -0.1331  0.5554
  588MOL0     C79288   1.152   4.311   8.980  0.8449  0.2091 -0.4030
  588MOL0     C79289   1.007   4.323   8.935 -0.0480 -0.2214 -0.9699
  588MOL0    Cl79290   0.987   4.501   8.921  0.3451 -0.6110 -0.3900
  588MOL0     C79291   1.909   4.684   8.756  0.0416 -0.0203 -0.0077
  588MOL0     C79292   2.039   4.727   8.794  0.5139 -0.8588  0.4539
  588MOL0     O79293   2.320   4.688   8.579  0.1088 -0.1257  0.6073
  588MOL0     C79294   2.577   4.683   8.674 -0.3022 -0.4766 -0.6368
  588MOL0     C79295   2.714   4.688   8.730  0.0370 -0.5122  0.9112
  588MOL0     N79296   3.249   4.577   9.333 -0.6157 -0.6070  0.2667
  588MOL0     N79297   3.244   4.475   9.422  1.0889  0.7887 -0.0563
  588MOL0     C79298   3.934   3.891   9.787  0.3522 -0.1119  0.9471
  588MOL0     C79299   4.001   3.891   9.908  0.4754  0.2939 -0.7343
  588MOL0     C79300   4.081   3.931  10.354 -0.2597 -0.0990 -0.0171
  588MOL0     C79301   4.050   4.014  10.462 -0.7536  0.1031 -0.1830
  588MOL0     C79302   4.134   4.016  10.578  0.0102  0.0868 -0.2598
  588MOL0     C79303   4.242   3.931  10.593 -0.4993 -0.5570 -0.4794
  588MOL0     O79304   4.312   3.920  10.718  0.7498  0.6252 -0.2749
  588MOL0     C79305   4.295   4.012  10.828 -0.2242  0.0024 -0.6165
  588MOL0     C79306   4.407   4.021  10.923 -0.3203 -0.4085 -0.5017
  588MOL0     C79307   4.426   3.889  11.004 -0.0023 -0.5938  0.3999
  588MOL0     C79308   4.567   3.892  11.078  0.5390  0.3352 -0.4173
  588MOL0     C79309   4.610   3.754  11.122 -0.3450  0.0912 -0.3892
  588MOL0     C79310   4.647   3.643  11.151  0.5420  0.0217  1.1027
  588MOL0     C79311   4.269   3.846  10.484 -0.3698  0.4029  0.8869
  588MOL0     C79312   4.193   3.852  10.363 -0.4811 -0.2811  0.7181
  588MOL0     H79313   3.754   3.787  10.111 -0.1217  1.9815  0.5926
  588MOL0     H79314   3.630   3.787   9.914 -0.4194  0.5998 -0.7857
  588MOL0     H79315   3.805   4.009   9.584  0.7210 -1.8795 -0.5738
  588MOL0     H79316   3.850   3.861   9.516  1.7761  0.4037  1.6883
  588MOL0     H79317   3.686   3.969   9.369  2.6341 -0.1352  1.5742
  588MOL0     H79318   3.597   3.826   9.426 -1.0114  0.1529  0.3654
  588MOL0     H79319   3.506   3.981   9.609 -0.3489  2.1462  0.4509
  588MOL0     H79320   3.594   4.114   9.532 -1.2355  0.3627  3.6388
  588MOL0     H79321   3.451   4.063   9.338  0.4894  1.5655  1.1257
  588MOL0     H79322   3.375   3.927   9.438 -1.3567 -0.3261  1.3623
  588MOL0     H79323   3.283   4.077   9.602  0.2128  0.1124 -0.4884
  588MOL0     H79324   3.370   4.219   9.541  1.5876 -0.6512  0.6100
  588MOL0     H79325   3.238   4.221   9.337  2.9827 -0.1014  0.6035
  588MOL0     H79326   3.178   4.055   9.369  0.9982  0.8278 -1.3185
  588MOL0     H79327   2.999   4.193   9.384 -0.1499  0.7549  1.0059
  588MOL0     H79328   3.033   4.130   9.543 -0.7822 -0.6773 -0.5185
  588MOL0     H79329   3.157   4.334   9.603 -0.4917 -2.4639  0.2090
  588MOL0     H79330   2.981   4.362   9.587  0.0666  1.7149 -0.6747
  588MOL0     H79331   2.925   4.514   9.332  0.4435  2.7046  0.0532
  588MOL0     H79332   3.100   4.795   9.224 -1.6575  0.4577  1.2386
  588MOL0     H79333   3.142   4.691   9.098  0.2958  0.2122 -0.0649
  588MOL0     H79334   2.860   4.694   9.226 -2.2643  0.7498 -1.2388
  588MOL0     H79335   2.899   4.638   9.057  0.6514  1.1856 -1.0472
  588MOL0     H79336   2.905   4.915   9.161  0.3305 -0.0088  1.0766
  588MOL0     H79337   2.774   4.845   9.090  0.8849 -1.2668  1.7032
  588MOL0     H79338   3.042   4.881   8.960  1.1033 -2.8546 -0.3202
  588MOL0     H79339   2.900   4.975   8.929  2.9085  1.2796  1.8795
  588MOL0     H79340   2.685   4.964   8.915 -0.7899 -0.3756 -0.6263
  588MOL0     H79341   2.395   5.040   8.733  3.1403 -1.4802 -1.6013
  588MOL0     H79342   2.373   4.971   8.899 -3.3557 -0.6340 -2.8467
  588MOL0     H79343   2.497   5.096   8.867 -0.9189  0.0539  1.8648
  588MOL0     H79344   2.125   4.907   8.516 -1.2866 -0.2975 -0.7492
  588MOL0     H79345   1.889   4.862   8.468  1.1717  0.9154 -0.5910
  588MOL0     H79346   1.597   4.558   8.572 -2.8953 -0.0614  1.9292
  588MOL0     H79347   1.714   4.512   8.685 -0.8486 -0.9920 -0.3805
  588MOL0     H79348   1.593   4.743   8.812  2.8880 -0.0119 -0.7574
  588MOL0     H79349   1.466   4.684   8.720  0.9848  1.9180 -1.9501
  588MOL0     H79350   1.441   4.569   8.923  0.3726  3.3719 -1.8860
  588MOL0     H79351   1.609   4.510   8.917  0.9307  0.3967 -0.7039
  588MOL0     H79352   1.418   4.436   8.701 -1.9268 -0.0901  1.7608
  588MOL0     H79353   1.562   4.348   8.772  2.3415  1.8773  1.4495
  588MOL0     H79354   1.415   4.333   8.994 -2.0557 -3.3781 -0.0271
  588MOL0     H79355   1.401   4.223   8.859  2.7846 -0.1968  1.0413
  588MOL0     H79356   1.238   4.470   8.850 -0.9854 -0.6645 -2.5027
  588MOL0     H79357   1.211   4.317   8.776 -1.3881  2.6302 -0.6476
  588MOL0     H79358   1.163   4.374   9.069  0.5693 -0.4989  0.1511
  588MOL0     H79359   1.163   4.205   9.003 -0.5510  0.4333  1.5970
  588MOL0     H79360   0.937   4.277   9.006  0.0561 -0.7286 -1.1930
  588MOL0     H79361   0.986   4.274   8.840 -0.4731  1.4867 -1.7940
  588MOL0     H79362   1.843   4.631   8.825 -0.2412  3.5105  2.7222
  588MOL0     H79363   2.071   4.685   8.889 -0.8638  2.3061  2.4739
  588MOL0     H79364   2.549   4.599   8.611 -0.7694 -1.7496  1.1744
  588MOL0     H79365   2.787   4.613   8.699  0.5610  0.9677 -1.7405
  588MOL0     H79366   3.999   3.917   9.705 -0.2273 -1.2644  0.0958
  588MOL0     H79367   4.105   3.920   9.920  0.1397  0.7944  1.3662
  588MOL0     H79368   3.978   4.094  10.456  2.0126  2.8908  1.0904
  588MOL0     H79369   4.103   4.093  10.648 -1.9532 -0.3291 -0.5901
  588MOL0     H79370   4.293   4.110  10.779 -4.4650  0.3997 -0.0439
  588MOL0     H79371   4.194   4.005  10.869 -1.5660  4.0978 -2.6427
  588MOL0     H79372   4.393   4.105  10.992  1.9431  0.8543 -1.4872
  588MOL0     H79373   4.498   4.039  10.866 -0.6081 -0.9831 -1.1536
  588MOL0     H79374   4.429   3.803  10.936 -1.6421 -2.2255  2.2713
  588MOL0     H79375   4.347   3.872  11.078 -0.5246 -2.0944 -0.4485
  588MOL0     H79376   4.565   3.958  11.165 -0.6777 -2.2333  1.6168
  588MOL0     H79377   4.641   3.934  11.009  0.2348  2.5882  0.5445
  588MOL0     H79378   4.675   3.548  11.191  0.7761 -0.0785  0.7100
  588MOL0     H79379   4.351   3.776  10.484 -2.6729 -2.5190 -0.9656
  588MOL0     H79380   4.221   3.781  10.285  0.3733 -1.9936  2.5099
  589MOL0     O79381   1.713   8.121   4.211 -0.3595  0.3153 -0.4139
  589MOL0     C79382   1.785   8.025   4.230 -1.0849  0.1159 -0.1266
  589MOL0     O79383   1.751   7.895   4.221 -0.1492 -0.0218 -0.5412
  589MOL0     C79384   1.623   7.849   4.224  0.2223  0.1390 -0.2553
  589MOL0     C79385   1.518   7.897   4.147  0.6903  0.1904  0.1348
  589MOL0     C79386   1.394   7.830   4.144 -0.2233 -0.2283 -0.5484
  589MOL0     C79387   1.365   7.713   4.210 -0.8645 -0.3692  0.0033
  589MOL0     O79388   1.246   7.653   4.192  0.4143  0.5820 -1.0422
  589MOL0     C79389   1.243   7.525   4.249 -0.3277  0.2059 -0.1476
  589MOL0     C79390   1.129   7.450   4.178  0.4182 -0.2099  0.3969
  589MOL0     C79391   0.989   7.509   4.222  1.4950  0.4933 -0.7523
  589MOL0     C79392   0.860   7.465   4.151 -0.3261  0.2976 -0.0741
  589MOL0     C79393   0.739   7.547   4.207 -0.5901 -0.1728 -0.2802
  589MOL0     C79394   0.612   7.450   4.188  0.3189 -0.9704 -0.7768
  589MOL0     C79395   0.486   7.540   4.204  0.5562  0.1247 -0.1946
  589MOL0     C79396   0.355   7.454   4.210 -0.3841  0.8510  0.0077
  589MOL0     N79397   0.230   7.528   4.205 -0.5611 -0.2891 -0.1881
  589MOL0     C79398   0.220   7.652   4.268 -0.9333 -0.2183 -0.3067
  589MOL0     C79399   0.110   7.708   4.208 -0.6275  0.4874 -0.6015
  589MOL0     C79400   0.066   7.856   4.228 -0.6150  0.9817 -0.5194
  589MOL0     C79401  -0.084   7.852   4.241  0.1436  0.1805  0.3364
  589MOL0     C79402  -0.138   7.747   4.353  0.4488  0.5692 -0.1065
  589MOL0     C79403  -0.291   7.773   4.389  0.0108  1.2729  0.5234
  589MOL0     O79404  -0.368   7.792   4.272 -0.8845  0.0356 -0.2658
  589MOL0     C79405  -0.497   7.829   4.277 -1.5070 -0.1301 -0.1491
  589MOL0     C79406  -0.542   7.929   4.360 -0.4901  0.1884 -0.1585
  589MOL0     C79407  -0.667   7.985   4.338 -0.3512 -1.0240 -0.8857
  589MOL0     C79408  -0.710   8.101   4.426 -0.9047  0.3838 -0.4036
  589MOL0     C79409  -0.750   7.928   4.241 -0.7539  0.1458 -0.1329
  589MOL0     C79410  -0.886   7.985   4.212  0.4478  0.7329  0.4318
  589MOL0     O79411  -0.930   8.110   4.253 -0.1199  0.4110  0.1377
  589MOL0     C79412  -1.064   8.120   4.255 -0.4673 -0.7133  0.2539
  589MOL0     C79413  -1.128   8.174   4.139 -0.2090 -0.0525  0.5386
  589MOL0     C79414  -1.268   8.186   4.139  0.3965 -0.4112  0.9469
  589MOL0     C79415  -1.342   8.149   4.247  0.0217  0.4585  0.1944
  589MOL0     O79416  -1.483   8.153   4.234 -0.6134 -0.2415  0.1490
  589MOL0     C79417  -1.550   8.042   4.282  1.4134  0.4461 -0.0912
  589MOL0     C79418  -1.699   8.037   4.240 -0.4859  0.4469 -0.2271
  589MOL0     C79419  -1.773   7.922   4.303  0.1747 -1.0436 -0.4884
  589MOL0     C79420  -1.889   7.891   4.206 -0.6753  0.4086  0.8602
  589MOL0     C79421  -1.985   7.788   4.265 -0.0397  0.1719 -0.2866
  589MOL0     C79422  -2.090   7.763   4.158 -0.4167  0.5966  0.4160
  589MOL0     C79423  -2.174   7.879   4.101 -0.8636  0.8755  0.4332
  589MOL0     C79424  -2.298   7.828   4.024  0.7178  0.4788  0.6190
  589MOL0    Cl79425  -2.413   7.770   4.137  0.3616 -0.0335  0.1966
  589MOL0     C79426  -1.276   8.104   4.365 -0.5171 -0.2919  0.1258
  589MOL0     C79427  -1.140   8.089   4.369  0.2297 -0.0661 -0.5077
  589MOL0     O79428  -0.955   7.914   4.130 -0.2280  0.2526  0.0474
  589MOL0     C79429  -0.699   7.814   4.169  0.2958 -0.1434 -0.3707
  589MOL0     C79430  -0.570   7.766   4.182  0.1851 -0.1087  0.1814
  589MOL0     N79431   0.057   7.610   4.127 -0.6723 -0.5693 -0.0210
  589MOL0     N79432   0.132   7.500   4.119  0.4648 -0.8891 -0.5963
  589MOL0     C79433   1.468   7.675   4.301  0.6224  0.9385 -0.2866
  589MOL0     C79434   1.597   7.734   4.302 -0.6076  0.3003  0.4087
  589MOL0     C79435   1.928   8.057   4.238  0.6743 -0.1617 -0.0696
  589MOL0     C79436   2.020   7.949   4.254 -0.5739  0.0628  0.7105
  589MOL0     C79437   2.152   7.970   4.286 -0.1256  0.8997  0.3659
  589MOL0     C79438   2.204   8.098   4.287 -0.5255 -0.3647  0.4267
  589MOL0     O79439   2.333   8.134   4.319  0.8324  0.0601  0.4533
  589MOL0     C79440   2.443   8.033   4.328 -0.3494  0.0355  1.0339
  589MOL0     C79441   2.451   7.970   4.472  0.4790 -0.9995  0.4493
  589MOL0     C79442   2.503   8.078   4.557  0.2206 -0.2277  0.5003
  589MOL0     C79443   2.508   8.046   4.698 -1.3146 -0.2770  0.1465
  589MOL0     C79444   2.598   7.942   4.719  0.3604 -0.4073  0.3101
  589MOL0     C79445   2.670   7.848   4.723  0.3568 -0.0460 -0.2784
  589MOL0     C79446   2.121   8.207   4.269  0.1305  0.1434 -0.2823
  589MOL0     C79447   1.981   8.189   4.253  0.4459 -0.1261  0.4934
  589MOL0     H79448   1.521   7.984   4.082 -2.7078  1.3138  1.2502
  589MOL0     H79449   1.320   7.859   4.071  0.6638  1.7168 -0.7485
  589MOL0     H79450   1.337   7.477   4.221  0.8173  2.1146  0.2295
  589MOL0     H79451   1.227   7.538   4.357  3.1147  3.6274  0.1829
  589MOL0     H79452   1.145   7.463   4.070  0.4413 -3.3056 -0.0449
  589MOL0     H79453   1.131   7.342   4.190  3.8165 -0.5649 -1.8876
  589MOL0     H79454   0.965   7.497   4.328 -0.3144  1.2483 -1.0406
  589MOL0     H79455   0.995   7.615   4.194 -3.1438  0.9967 -0.6065
  589MOL0     H79456   0.889   7.482   4.047 -0.6426 -2.8455 -0.7699
  589MOL0     H79457   0.852   7.357   4.161  4.0156 -0.7059 -3.7684
  589MOL0     H79458   0.751   7.573   4.313 -1.8639  2.8306 -0.7657
  589MOL0     H79459   0.733   7.639   4.148  0.5543  0.2981  0.2974
  589MOL0     H79460   0.620   7.410   4.087  0.2082 -0.1670 -1.1094
  589MOL0     H79461   0.610   7.359   4.249  1.0039 -1.5635 -1.6156
  589MOL0     H79462   0.484   7.611   4.287 -0.3343  3.4903 -2.8545
  589MOL0     H79463   0.484   7.600   4.112  1.2604  1.2221  0.4768
  589MOL0     H79464   0.355   7.402   4.306 -1.4850 -1.4359 -1.1534
  589MOL0     H79465   0.351   7.388   4.122  2.1718  2.5191 -1.5029
  589MOL0     H79466   0.277   7.720   4.331 -0.3564  1.2389 -2.3074
  589MOL0     H79467   0.126   7.886   4.314 -0.2949 -3.7399  1.2230
  589MOL0     H79468   0.092   7.915   4.140  4.5480 -1.6451 -1.1103
  589MOL0     H79469  -0.118   7.809   4.146  1.1585 -2.1117  0.9443
  589MOL0     H79470  -0.140   7.943   4.266 -1.7533 -1.4586  2.5123
  589MOL0     H79471  -0.079   7.731   4.444  0.0079 -1.5051 -0.1383
  589MOL0     H79472  -0.142   7.654   4.294 -0.6616 -0.0690  0.9244
  589MOL0     H79473  -0.286   7.863   4.451 -1.5749  1.4486  0.4489
  589MOL0     H79474  -0.336   7.685   4.437 -1.4551  0.2307 -2.5295
  589MOL0     H79475  -0.478   7.967   4.438 -0.4287 -2.3960  1.1773
  589MOL0     H79476  -0.631   8.111   4.501 -2.5596  0.3418  1.4144
  589MOL0     H79477  -0.720   8.195   4.370  1.1251  0.4368 -0.7776
  589MOL0     H79478  -0.799   8.080   4.486 -2.2170  0.6639 -2.1626
  589MOL0     H79479  -1.070   8.210   4.055  1.5566 -0.4026  1.5608
  589MOL0     H79480  -1.318   8.215   4.047  2.2475  1.3368  0.4146
  589MOL0     H79481  -1.502   7.947   4.257 -0.7142 -0.7073 -0.0555
  589MOL0     H79482  -1.561   8.049   4.391 -1.3337  1.6457 -0.3573
  589MOL0     H79483  -1.759   8.124   4.269 -2.9531 -0.4396 -2.3027
  589MOL0     H79484  -1.702   8.027   4.131  0.1171  1.9327 -0.3987
  589MOL0     H79485  -1.809   7.956   4.400 -0.0989  2.2324 -1.6274
  589MOL0     H79486  -1.709   7.833   4.309  0.1917 -0.9429  1.2853
  589MOL0     H79487  -1.936   7.987   4.185 -0.0950  0.2926 -1.1400
  589MOL0     H79488  -1.843   7.848   4.117 -2.3297 -0.2687  0.2961
  589MOL0     H79489  -2.033   7.813   4.360 -1.5763  0.7850 -1.1681
  589MOL0     H79490  -1.932   7.694   4.281  0.1750  0.1839 -0.8840
  589MOL0     H79491  -2.046   7.713   4.072  1.4700 -3.5016  3.4039
  589MOL0     H79492  -2.166   7.696   4.201  2.0273 -0.8455  2.8274
  589MOL0     H79493  -2.105   7.933   4.035  0.8976 -2.0108 -0.2938
  589MOL0     H79494  -2.205   7.947   4.180  0.2436  0.6253  1.1094
  589MOL0     H79495  -2.258   7.752   3.956  1.5886  1.3625  0.1293
  589MOL0     H79496  -2.344   7.906   3.962  0.7742 -0.1234 -0.2076
  589MOL0     H79497  -1.334   8.070   4.450  0.4784  1.2171  1.4499
  589MOL0     H79498  -1.100   8.043   4.458 -2.9713  1.3371  1.8470
  589MOL0     H79499  -0.772   7.771   4.100 -0.7397  2.5972 -1.1170
  589MOL0     H79500  -0.538   7.681   4.123  1.7053  1.6382 -1.7028
  589MOL0     H79501   1.459   7.586   4.363  1.3780  0.2922 -1.0847
  589MOL0     H79502   1.678   7.701   4.366 -0.7821 -1.6825 -0.3187
  589MOL0     H79503   1.994   7.845   4.236  0.8311 -0.1922  0.0162
  589MOL0     H79504   2.220   7.885   4.290 -1.4169 -0.1196  3.5143
  589MOL0     H79505   2.421   7.954   4.257  3.3469  0.3160 -0.6605
  589MOL0     H79506   2.535   8.077   4.289 -0.9120  0.6876  0.4366
  589MOL0     H79507   2.504   7.875   4.471  2.7910  0.2001 -0.6208
  589MOL0     H79508   2.350   7.956   4.511  0.4753 -0.3828  0.6842
  589MOL0     H79509   2.444   8.168   4.534 -0.3550 -0.3989  1.2601
  589MOL0     H79510   2.602   8.105   4.520 -0.5735  0.7462 -1.0375
  589MOL0     H79511   2.415   8.014   4.746 -1.5919  0.2545 -0.0240
  589MOL0     H79512   2.538   8.133   4.757 -2.1950 -0.4554  0.8810
  589MOL0     H79513   2.737   7.764   4.725  2.9945  1.8723 -2.1592
  589MOL0     H79514   2.140   8.312   4.287 -1.0392  0.0052  2.1734
  589MOL0     H79515   1.912   8.272   4.256 -0.7392 -1.1008  1.3343
  590MOL0     O79516   4.611   9.798   0.831  0.1899 -0.2580  0.1901
  590MOL0     C79517   4.529   9.735   0.896 -0.4986  0.4526 -0.0898
  590MOL0     O79518   4.562   9.628   0.973  0.1489 -0.0908 -0.2702
  590MOL0     C79519   4.681   9.560   0.943  0.0541 -0.1071  1.2977
  590MOL0     C79520   4.792   9.610   1.016 -0.6773  0.3378  0.8828
  590MOL0     C79521   4.914   9.548   1.001 -0.0401  0.8565  0.4299
  590MOL0     C79522   4.931   9.447   0.893 -1.1116 -0.3849 -0.3350
  590MOL0     O79523   5.045   9.383   0.872  0.7868 -0.2902  0.3858
  590MOL0     C79524   5.170   9.435   0.922  0.4647  0.1339  0.0971
  590MOL0     C79525   5.273   9.337   0.878 -0.1130  0.2851  0.2018
  590MOL0     C79526   5.264   9.193   0.942 -0.4767 -0.7448 -0.3186
  590MOL0     C79527   5.329   9.087   0.850  0.4433  0.2451 -1.0224
  590MOL0     C79528   5.247   9.054   0.725  0.0731 -0.7526  1.0493
  590MOL0     C79529   5.333   8.963   0.627 -0.5747  0.4478  0.1086
  590MOL0     C79530   5.252   8.913   0.496 -0.9335  0.8019 -0.3613
  590MOL0     C79531   5.331   8.809   0.421 -1.0266  0.4767 -0.2815
  590MOL0     N79532   5.458   8.855   0.359 -0.7652 -0.4710 -1.2783
  590MOL0     C79533   5.558   8.772   0.326 -0.6782  0.3282 -0.2463
  590MOL0     C79534   5.645   8.857   0.275  0.3872 -0.1966 -0.1983
  590MOL0     C79535   5.779   8.801   0.240  0.3815  0.3973 -0.4878
  590MOL0     C79536   5.839   8.886   0.124 -0.1863  0.2421  0.2123
  590MOL0     C79537   5.983   8.864   0.098  0.5314 -0.7344  1.0809
  590MOL0     C79538   6.000   8.843  -0.050 -0.2308 -0.0307 -1.1345
  590MOL0     O79539   6.137   8.790  -0.081  0.5578 -0.2222  0.1575
  590MOL0     C79540   6.241   8.882  -0.097 -0.1747 -0.5169  0.5651
  590MOL0     C79541   6.243   9.014  -0.063 -0.3488 -0.8315  0.6047
  590MOL0     C79542   6.353   9.098  -0.086  0.1249  0.2403  0.0774
  590MOL0     C79543   6.363   9.234  -0.017  0.7055 -0.6329 -0.8223
  590MOL0     C79544   6.468   9.042  -0.147 -0.0748 -0.0920 -0.6354
  590MOL0     C79545   6.597   9.117  -0.182  0.0045  0.4845 -0.0359
  590MOL0     O79546   6.705   9.037  -0.204 -0.6589 -0.7505 -0.4126
  590MOL0     C79547   6.823   9.108  -0.203 -0.3213  0.5887  0.7522
  590MOL0     C79548   6.921   9.061  -0.284  0.1382  0.0489  0.7939
  590MOL0     C79549   7.055   9.117  -0.295  0.0482 -0.0727 -0.0326
  590MOL0     C79550   7.083   9.226  -0.213 -0.6599 -0.1562 -0.8101
  590MOL0     O79551   7.190   9.302  -0.216 -0.2030  0.3906  0.1775
  590MOL0     C79552   7.315   9.233  -0.223 -0.9410  1.0620  0.3133
  590MOL0     C79553   7.422   9.335  -0.183 -0.0543  1.4289 -0.0545
  590MOL0     C79554   7.568   9.283  -0.203  0.1824  0.2519 -0.0028
  590MOL0     C79555   7.593   9.162  -0.112 -0.9373  0.7512 -1.0568
  590MOL0     C79556   7.732   9.108  -0.133  0.4561  0.2506 -0.5823
  590MOL0     C79557   7.848   9.201  -0.101 -0.0030  0.1161  0.5150
  590MOL0     C79558   7.989   9.130  -0.119  0.1759  0.5301 -0.0186
  590MOL0     C79559   8.094   9.226  -0.064 -0.4549 -0.3029  0.0461
  590MOL0    Cl79560   8.055   9.294   0.101 -0.3666  0.1486 -0.1510
  590MOL0     C79561   6.992   9.265  -0.122 -0.1901 -0.5116  0.2454
  590MOL0     C79562   6.860   9.213  -0.115  0.4286 -0.5441  1.2595
  590MOL0     O79563   6.599   9.239  -0.181  0.5548 -0.3422  0.5154
  590MOL0     C79564   6.465   8.902  -0.170 -0.7558 -0.1266 -0.8641
  590MOL0     C79565   6.356   8.824  -0.147 -1.2168  0.8919  0.5263
  590MOL0     N79566   5.600   8.986   0.261 -0.4521 -0.2049 -0.5378
  590MOL0     N79567   5.484   8.986   0.317 -0.8646  0.0728  0.4099
  590MOL0     C79568   4.814   9.402   0.822 -0.7009  0.1668  0.1471
  590MOL0     C79569   4.690   9.467   0.840  0.5814 -0.4252  0.1582
  590MOL0     C79570   4.389   9.786   0.905 -0.6233  0.6714  0.1090
  590MOL0     C79571   4.302   9.718   0.987  0.2618 -0.3635 -0.0190
  590MOL0     C79572   4.170   9.758   0.998 -0.4956  1.0465 -1.3923
  590MOL0     C79573   4.119   9.869   0.927 -0.0807 -0.4034 -0.2751
  590MOL0     O79574   3.986   9.882   0.938 -0.2661 -0.1070 -0.5868
  590MOL0     C79575   3.908   9.958   0.843 -0.1479 -0.8876 -0.3714
  590MOL0     C79576   3.768   9.993   0.908 -0.5268  0.3697 -0.1978
  590MOL0     C79577   3.667  10.059   0.808  0.0722 -0.0000 -0.7536
  590MOL0     C79578   3.535  10.107   0.870 -0.5407  0.0412 -0.6146
  590MOL0     C79579   3.567  10.237   0.942  0.3293  0.7813 -0.4930
  590MOL0     C79580   3.578  10.338   1.008  0.3898 -0.1830  0.0246
  590MOL0     C79581   4.199   9.945   0.849 -0.3094 -0.3405  0.3950
  590MOL0     C79582   4.335   9.897   0.837  0.5734 -0.2521  0.1427
  590MOL0     H79583   4.768   9.672   1.101 -4.2353  0.3766  0.0037
  590MOL0     H79584   4.999   9.590   1.054  1.0949  0.5800 -1.0842
  590MOL0     H79585   5.191   9.538   0.890  1.0172 -0.0559 -0.1649
  590MOL0     H79586   5.176   9.427   1.031 -2.0641  0.1122  0.2960
  590MOL0     H79587   5.258   9.323   0.770 -0.7347 -1.1292  0.4453
  590MOL0     H79588   5.366   9.390   0.897 -1.1082  2.6691 -1.0833
  590MOL0     H79589   5.301   9.206   1.044 -3.6132 -0.2057  0.8577
  590MOL0     H79590   5.161   9.159   0.952 -0.7932 -0.5124 -2.3690
  590MOL0     H79591   5.424   9.134   0.822  0.8445  1.0522  1.4683
  590MOL0     H79592   5.348   8.996   0.908 -1.1214  1.6092  1.8290
  590MOL0     H79593   5.154   9.001   0.746 -1.6394  1.5379 -0.2092
  590MOL0     H79594   5.225   9.145   0.669 -0.2351 -0.1805  2.0719
  590MOL0     H79595   5.421   9.021   0.598  0.1540 -0.0050  1.3190
  590MOL0     H79596   5.366   8.873   0.679  3.5267  1.2900 -0.7072
  590MOL0     H79597   5.152   8.872   0.515 -1.2041  1.7029  0.2347
  590MOL0     H79598   5.235   8.997   0.428 -0.3036  0.4377 -0.9743
  590MOL0     H79599   5.262   8.782   0.341 -1.1780  0.7689 -0.2505
  590MOL0     H79600   5.334   8.717   0.480 -2.3837 -0.0727 -1.0265
  590MOL0     H79601   5.577   8.668   0.351  3.3882  0.4507 -2.0098
  590MOL0     H79602   5.838   8.802   0.332  0.1894 -0.4780 -0.3514
  590MOL0     H79603   5.767   8.695   0.218 -2.0090  0.1945  1.3698
  590MOL0     H79604   5.836   8.989   0.159 -1.0213 -0.0244  0.9643
  590MOL0     H79605   5.776   8.868   0.036 -2.4205  0.4327  1.6826
  590MOL0     H79606   6.007   8.777   0.161 -2.5738 -1.1641  1.8609
  590MOL0     H79607   6.044   8.952   0.117 -0.6152  0.1565  0.7551
  590MOL0     H79608   5.964   8.931  -0.103 -0.2992  2.6839  2.9935
  590MOL0     H79609   5.926   8.769  -0.082  1.8657 -2.2603 -1.1256
  590MOL0     H79610   6.162   9.058  -0.005 -1.9859 -0.4513 -1.7669
  590MOL0     H79611   6.462   9.234   0.029  0.4586 -1.4678 -0.2596
  590MOL0     H79612   6.347   9.313  -0.090 -0.2359 -0.1935 -0.1593
  590MOL0     H79613   6.281   9.254   0.053 -0.6280 -1.2087 -2.1513
  590MOL0     H79614   6.891   8.979  -0.348 -2.2794  0.6866  1.0168
  590MOL0     H79615   7.132   9.068  -0.355  0.4953 -0.9711  1.2309
  590MOL0     H79616   7.315   9.150  -0.152  1.4646 -0.8923 -1.7801
  590MOL0     H79617   7.333   9.194  -0.324 -0.9942 -1.0154  1.0602
  590MOL0     H79618   7.406   9.424  -0.244 -2.7860  2.9690  2.6686
  590MOL0     H79619   7.411   9.365  -0.079  1.1386 -1.3053  0.9744
  590MOL0     H79620   7.633   9.370  -0.193  0.0404  0.7178 -2.4783
  590MOL0     H79621   7.587   9.252  -0.306  0.5488  1.6038 -0.3737
  590MOL0     H79622   7.577   9.186  -0.007  2.1134 -0.3099 -0.2535
  590MOL0     H79623   7.528   9.076  -0.127 -0.0872  0.0143 -0.5796
  590MOL0     H79624   7.750   9.071  -0.235 -0.0709 -0.4983 -0.4166
  590MOL0     H79625   7.742   9.023  -0.065  2.3847  0.6729 -0.2675
  590MOL0     H79626   7.845   9.288  -0.167 -3.2421  1.7539  2.5365
  590MOL0     H79627   7.833   9.229   0.003  0.2550  0.7761  0.3750
  590MOL0     H79628   8.021   9.103  -0.220  1.6775 -1.2094  0.8581
  590MOL0     H79629   7.975   9.033  -0.071 -0.3100 -0.9320 -2.8964
  590MOL0     H79630   8.109   9.309  -0.135 -0.8716 -0.0032  0.3014
  590MOL0     H79631   8.196   9.188  -0.065  1.0236  2.9554  3.3543
  590MOL0     H79632   7.027   9.351  -0.066  0.2576  0.4561 -1.4470
  590MOL0     H79633   6.792   9.258  -0.044 -0.4698  1.1575 -0.5765
  590MOL0     H79634   6.548   8.844  -0.208 -0.4445 -0.7153  0.6634
  590MOL0     H79635   6.352   8.717  -0.168  1.1324  0.9995 -0.7843
  590MOL0     H79636   4.818   9.331   0.740 -0.0913 -1.8978  1.8762
  590MOL0     H79637   4.599   9.446   0.785 -0.3561  0.1321  1.4447
  590MOL0     H79638   4.332   9.627   1.037 -2.3251 -0.9323  0.6505
  590MOL0     H79639   4.091   9.700   1.045  1.6086 -1.7523 -1.0097
  590MOL0     H79640   3.970  10.043   0.812  1.1500 -1.5279  0.3825
  590MOL0     H79641   3.883   9.895   0.757 -1.5725  2.4133 -2.5709
  590MOL0     H79642   3.798  10.050   0.997 -1.3164  0.0239  0.3028
  590MOL0     H79643   3.734   9.896   0.944  1.3341  0.9906  3.8105
  590MOL0     H79644   3.638   9.980   0.738  2.6611 -1.6575 -0.1058
  590MOL0     H79645   3.717  10.143   0.758 -0.1470  0.7574  0.2680
  590MOL0     H79646   3.494  10.039   0.945  1.8065 -0.4926  0.2403
  590MOL0     H79647   3.454  10.130   0.799 -2.4754  1.6094  1.9141
  590MOL0     H79648   3.583  10.429   1.065  1.8329  0.1992 -0.6575
  590MOL0     H79649   4.169  10.036   0.799 -0.5377 -0.5081  0.2261
  590MOL0     H79650   4.403   9.960   0.781 -0.1981  0.0216 -0.5063
  591MOL0     O79651   4.939   1.743  10.085 -0.0477  0.1963  0.1692
  591MOL0     C79652   4.979   1.658  10.169 -0.0547  1.1822 -0.0310
  591MOL0     O79653   4.897   1.560  10.221  0.4537  0.5360 -0.8134
  591MOL0     C79654   4.767   1.556  10.179 -0.4690  0.6159  0.6158
  591MOL0     C79655   4.684   1.646  10.240  0.6435  0.5028  0.7565
  591MOL0     C79656   4.543   1.646  10.202 -0.1144 -0.1726 -0.7956
  591MOL0     C79657   4.488   1.541  10.127 -0.2455  1.0692 -0.6345
  591MOL0     O79658   4.358   1.555  10.088  1.6150 -0.0281  0.4441
  591MOL0     C79659   4.304   1.471   9.977  0.3588  0.2496  0.7827
  591MOL0     C79660   4.354   1.526   9.832 -0.1156 -0.2242 -0.1536
  591MOL0     C79661   4.252   1.495   9.724 -0.1345  0.8135  0.3893
  591MOL0     C79662   4.241   1.340   9.713 -0.0788 -0.1433 -0.7175
  591MOL0     C79663   4.127   1.297   9.611 -0.3109 -1.1391 -0.8788
  591MOL0     C79664   4.125   1.156   9.588 -0.6513  0.7778 -0.0889
  591MOL0     C79665   3.989   1.109   9.523  0.4328  0.3625 -0.6169
  591MOL0     C79666   3.940   1.177   9.399  0.0575 -0.6028  0.3004
  591MOL0     N79667   3.815   1.110   9.354 -0.3391 -0.0358  0.1969
  591MOL0     C79668   3.692   1.160   9.319  0.3208  0.5257  0.6262
  591MOL0     C79669   3.620   1.054   9.279 -0.4511 -0.1374  0.0201
  591MOL0     C79670   3.484   1.088   9.217 -0.7570 -0.3663 -1.6927
  591MOL0     C79671   3.367   1.067   9.310  0.9597 -0.1710  0.4404
  591MOL0     C79672   3.219   1.036   9.249 -0.3221 -0.2249 -0.0001
  591MOL0     C79673   3.165   1.134   9.144  0.6345 -0.2477 -0.0420
  591MOL0     O79674   3.120   1.249   9.219 -0.6697 -0.7386 -0.3570
  591MOL0     C79675   2.990   1.281   9.244 -0.1682 -0.4723  0.6003
  591MOL0     C79676   2.955   1.412   9.270  0.1667 -0.0528 -0.1242
  591MOL0     C79677   2.820   1.447   9.271 -0.6994  0.0030  0.1486
  591MOL0     C79678   2.788   1.591   9.263 -0.1214  0.3741  0.2858
  591MOL0     C79679   2.723   1.339   9.271 -0.3140 -0.4246  0.9290
  591MOL0     C79680   2.573   1.361   9.274  0.4170  0.0424  0.6539
  591MOL0     O79681   2.520   1.452   9.358 -0.4873 -0.6033 -0.1876
  591MOL0     C79682   2.389   1.501   9.330 -0.3443 -0.1099  0.0382
  591MOL0     C79683   2.362   1.633   9.322  0.5625 -0.6364 -0.0231
  591MOL0     C79684   2.235   1.686   9.307  0.2250  0.0687 -0.5287
  591MOL0     C79685   2.128   1.604   9.350  0.5961  0.2904 -0.5901
  591MOL0     O79686   1.997   1.642   9.375 -0.6675 -0.6411  0.0997
  591MOL0     C79687   1.985   1.783   9.400 -0.2974 -0.2278  0.2973
  591MOL0     C79688   1.860   1.804   9.474  0.4716  0.5136 -0.1380
  591MOL0     C79689   1.728   1.752   9.407 -0.2089  0.3588 -0.2456
  591MOL0     C79690   1.610   1.843   9.444  0.2041 -0.2357 -0.2778
  591MOL0     C79691   1.470   1.777   9.419 -0.2977  0.0765 -0.5167
  591MOL0     C79692   1.348   1.861   9.466 -0.6606  0.6568  0.3528
  591MOL0     C79693   1.211   1.816   9.407  0.3177  0.1314 -0.3423
  591MOL0     C79694   1.158   1.687   9.474 -0.0872 -0.1145 -0.5215
  591MOL0    Cl79695   1.242   1.553   9.398  0.0747 -0.6159  0.4783
  591MOL0     C79696   2.153   1.471   9.375  0.2332 -0.9776 -0.7624
  591MOL0     C79697   2.286   1.417   9.370  0.3855 -0.1450  0.2346
  591MOL0     O79698   2.504   1.296   9.192 -0.7928 -0.4360  0.0941
  591MOL0     C79699   2.762   1.213   9.252 -0.3017  0.1496  0.0224
  591MOL0     C79700   2.891   1.179   9.240  0.4673  0.4116  0.2563
  591MOL0     N79701   3.696   0.939   9.281 -0.0790 -0.4089  0.9470
  591MOL0     N79702   3.804   0.971   9.337 -0.1968 -0.0488  0.6400
  591MOL0     C79703   4.579   1.434  10.091 -0.8221 -0.6578 -0.3085
  591MOL0     C79704   4.715   1.455  10.107  0.0446  0.4309  0.6999
  591MOL0     C79705   5.117   1.651  10.228  0.0899 -0.8861 -0.1057
  591MOL0     C79706   5.226   1.723  10.168  0.3171 -0.2499  0.1421
  591MOL0     C79707   5.347   1.707  10.220  0.4758 -0.1896  0.3124
  591MOL0     C79708   5.377   1.611  10.320  0.1235 -0.1760 -1.0905
  591MOL0     O79709   5.501   1.591  10.368  0.0470 -0.2587 -0.2393
  591MOL0     C79710   5.602   1.594  10.267 -0.5012  1.1319  0.0411
  591MOL0     C79711   5.729   1.511  10.318  0.2462  0.5819  0.3310
  591MOL0     C79712   5.696   1.367  10.338 -0.2992 -0.3247 -0.0737
  591MOL0     C79713   5.824   1.303  10.381 -0.2997  0.7950 -0.2127
  591MOL0     C79714   5.808   1.153  10.392 -0.3577 -0.6198 -0.1364
  591MOL0     C79715   5.790   1.037  10.412  0.1187 -0.2706  0.4352
  591MOL0     C79716   5.279   1.533  10.379 -0.1103  0.0341 -0.1558
  591MOL0     C79717   5.145   1.561  10.332  0.1340 -0.7883 -0.0508
  591MOL0     H79718   4.724   1.718  10.310 -2.6793  0.1398  3.2430
  591MOL0     H79719   4.474   1.722  10.237 -0.2778 -1.6681  2.5235
  591MOL0     H79720   4.335   1.366   9.977  2.2872  0.7794  0.0992
  591MOL0     H79721   4.194   1.472   9.977  0.3250  2.5348  0.1514
  591MOL0     H79722   4.366   1.634   9.833 -2.4981  0.1435 -2.1617
  591MOL0     H79723   4.450   1.481   9.803  0.8271  0.3904  1.8504
  591MOL0     H79724   4.153   1.541   9.722 -1.5916 -2.1473 -0.9349
  591MOL0     H79725   4.290   1.523   9.625  0.0862  1.4382  0.6456
  591MOL0     H79726   4.330   1.289   9.675  0.9566  1.5578 -0.6996
  591MOL0     H79727   4.225   1.309   9.816 -0.3165 -0.4007 -0.8306
  591MOL0     H79728   4.032   1.331   9.651  0.9062  2.8910 -0.9742
  591MOL0     H79729   4.152   1.347   9.516  0.4111 -1.6426 -0.9663
  591MOL0     H79730   4.211   1.118   9.532 -1.5452 -0.8139 -0.4269
  591MOL0     H79731   4.118   1.109   9.686 -3.2631 -1.1904 -1.1128
  591MOL0     H79732   3.999   1.001   9.512  1.0040  0.5028 -1.6276
  591MOL0     H79733   3.909   1.138   9.592  0.9715 -0.0093  0.1794
  591MOL0     H79734   4.008   1.177   9.312 -3.1027 -0.4393 -2.3485
  591MOL0     H79735   3.925   1.280   9.434  2.9684  0.7390 -1.8869
  591MOL0     H79736   3.657   1.262   9.315 -2.6146 -0.4133  0.0084
  591MOL0     H79737   3.488   1.196   9.200 -0.8335 -0.3649 -1.7019
  591MOL0     H79738   3.470   1.037   9.121  1.2778 -2.8392 -0.7978
  591MOL0     H79739   3.345   1.160   9.364  1.1002 -0.0070  0.2156
  591MOL0     H79740   3.392   0.994   9.387 -0.6146 -0.2951  0.8808
  591MOL0     H79741   3.150   1.032   9.333  2.0981  0.7103  2.2002
  591MOL0     H79742   3.228   0.946   9.188  3.0132  0.2215 -0.3873
  591MOL0     H79743   3.079   1.096   9.088 -0.1087  2.4600 -0.8941
  591MOL0     H79744   3.246   1.163   9.077  3.1647  0.2248  2.9948
  591MOL0     H79745   3.033   1.488   9.262  1.1926 -0.8778  1.6415
  591MOL0     H79746   2.811   1.642   9.357  1.6669 -0.5563  0.3980
  591MOL0     H79747   2.861   1.639   9.196 -0.1546 -0.8831 -0.6935
  591MOL0     H79748   2.695   1.610   9.208  1.6163  0.7280 -2.7510
  591MOL0     H79749   2.441   1.707   9.317 -1.6122  1.7528 -0.6716
  591MOL0     H79750   2.223   1.793   9.302  0.6988  0.7504  5.5600
  591MOL0     H79751   2.067   1.823   9.461  0.3950  1.7826 -1.8210
  591MOL0     H79752   1.982   1.839   9.306 -1.3280 -0.5502  0.1291
  591MOL0     H79753   1.872   1.759   9.573 -1.1730  0.3321  0.0045
  591MOL0     H79754   1.842   1.912   9.482  1.3093  0.5993  0.8644
  591MOL0     H79755   1.716   1.651   9.447  1.5700 -0.0165 -0.5572
  591MOL0     H79756   1.736   1.742   9.298 -1.0851  0.4943 -0.3312
  591MOL0     H79757   1.618   1.859   9.552  1.2707 -0.4755 -0.3161
  591MOL0     H79758   1.621   1.945   9.407 -0.0653 -0.0545  0.1303
  591MOL0     H79759   1.484   1.677   9.461  1.2869  0.3430 -0.3344
  591MOL0     H79760   1.459   1.756   9.312 -1.7191  4.0652 -1.3155
  591MOL0     H79761   1.331   1.867   9.574  0.8817  0.0870  0.6507
  591MOL0     H79762   1.358   1.964   9.430 -1.0752  0.2577 -0.9641
  591MOL0     H79763   1.203   1.814   9.298 -2.4128  0.9750 -0.2195
  591MOL0     H79764   1.144   1.893   9.446  0.2089 -0.9159  1.6748
  591MOL0     H79765   1.049   1.683   9.463 -0.2962  2.4754 -0.0292
  591MOL0     H79766   1.170   1.700   9.582 -3.9926 -2.1757  0.3581
  591MOL0     H79767   2.063   1.421   9.408  0.2982 -2.9740 -3.2703
  591MOL0     H79768   2.312   1.321   9.411 -1.2845 -0.4434  0.6683
  591MOL0     H79769   2.690   1.133   9.242 -0.8209  0.6458 -0.2858
  591MOL0     H79770   2.910   1.077   9.208 -2.3542  0.4576 -2.0638
  591MOL0     H79771   4.547   1.347  10.035 -2.4469  0.6827 -1.6122
  591MOL0     H79772   4.779   1.382  10.060 -1.4927  0.1117 -1.0152
  591MOL0     H79773   5.212   1.789  10.083  0.3583  1.9404  1.7516
  591MOL0     H79774   5.429   1.760  10.172 -2.1830  1.3159 -3.0723
  591MOL0     H79775   5.574   1.536  10.179  0.5336 -1.3248  1.2074
  591MOL0     H79776   5.645   1.689  10.236 -1.8906  0.9240 -2.8101
  591MOL0     H79777   5.756   1.557  10.413  3.0103  0.0370 -0.1077
  591MOL0     H79778   5.821   1.522  10.259  1.0789 -1.6982  1.0791
  591MOL0     H79779   5.650   1.318  10.252  1.1760 -2.9612  0.5093
  591MOL0     H79780   5.625   1.371  10.421  3.1106  1.6769  3.0717
  591MOL0     H79781   5.878   1.357  10.459 -0.5287  0.5870  0.0912
  591MOL0     H79782   5.897   1.308  10.299  0.4854 -2.4093  0.1581
  591MOL0     H79783   5.760   0.936  10.433 -0.1142  0.1239  2.1316
  591MOL0     H79784   5.302   1.451  10.446  0.5950 -2.7295 -3.5070
  591MOL0     H79785   5.065   1.498  10.369 -0.6495 -2.0124 -3.4037
  592MOL0     O79786   3.016   4.096   2.521  0.1134  0.6341  0.0835
  592MOL0     C79787   3.010   4.082   2.645 -0.1398  0.5561  0.6888
  592MOL0     O79788   2.896   4.093   2.710 -1.1857 -0.3208 -0.4438
  592MOL0     C79789   2.780   4.137   2.665  0.4908 -0.9012 -0.0901
  592MOL0     C79790   2.765   4.231   2.558 -0.7785 -0.0720 -0.4604
  592MOL0     C79791   2.632   4.272   2.515 -0.6791 -0.0970 -0.3639
  592MOL0     C79792   2.519   4.217   2.576 -0.3538  0.1042 -0.1404
  592MOL0     O79793   2.405   4.275   2.525 -0.0733 -0.1028  0.1045
  592MOL0     C79794   2.281   4.268   2.606  0.9019 -0.6495  0.4993
  592MOL0     C79795   2.182   4.376   2.561  0.4571 -0.1712 -0.1083
  592MOL0     C79796   2.245   4.519   2.557 -0.4907  1.0224  0.2733
  592MOL0     C79797   2.244   4.590   2.692  0.0849  0.2557  0.4900
  592MOL0     C79798   2.371   4.571   2.773 -1.0997 -0.1683 -0.4619
  592MOL0     C79799   2.479   4.673   2.744  0.1576 -0.0222  0.4638
  592MOL0     C79800   2.627   4.645   2.806  0.3289 -0.0804  0.7300
  592MOL0     C79801   2.716   4.578   2.696  0.2908  0.1435  0.1344
  592MOL0     N79802   2.855   4.585   2.752  0.0696 -0.5744  0.0766
  592MOL0     C79803   2.917   4.482   2.814  0.0845  0.4025 -0.5912
  592MOL0     C79804   3.043   4.517   2.835  0.3292 -0.9676  0.6445
  592MOL0     C79805   3.167   4.447   2.869  0.7892  0.3619  0.3334
  592MOL0     C79806   3.273   4.540   2.923 -0.3910  0.0853  0.3889
  592MOL0     C79807   3.249   4.630   3.046  0.0814  0.0474  0.3498
  592MOL0     C79808   3.333   4.762   3.055 -0.0618 -0.2835  0.0278
  592MOL0     O79809   3.295   4.837   3.167 -0.1261 -0.3362  0.5308
  592MOL0     C79810   3.170   4.885   3.185  0.0980  0.4504 -0.2141
  592MOL0     C79811   3.135   4.918   3.312 -0.3761  0.3380 -0.0250
  592MOL0     C79812   2.999   4.956   3.337 -1.4455 -0.4775 -0.3208
  592MOL0     C79813   2.967   4.977   3.482 -0.3905 -0.3351 -0.0370
  592MOL0     C79814   2.909   4.958   3.232  0.5644 -0.1737  1.0243
  592MOL0     C79815   2.765   4.969   3.251 -0.2572 -0.5519 -0.7897
  592MOL0     O79816   2.695   4.941   3.134 -0.4351 -0.2338  0.0051
  592MOL0     C79817   2.560   4.921   3.126 -0.3017  0.9171 -0.4610
  592MOL0     C79818   2.510   4.799   3.115  0.3266  0.2003  0.3470
  592MOL0     C79819   2.375   4.780   3.106 -0.1711 -0.5540 -0.5182
  592MOL0     C79820   2.288   4.891   3.111  0.6588  1.1859  0.3444
  592MOL0     O79821   2.157   4.856   3.110 -0.4259 -0.4537 -0.9069
  592MOL0     C79822   2.058   4.961   3.093  0.2664 -0.5200 -0.2920
  592MOL0     C79823   2.024   4.987   2.955  0.4774 -0.5406 -0.9487
  592MOL0     C79824   1.977   4.868   2.861  0.2708  0.3209 -0.0886
  592MOL0     C79825   1.833   4.822   2.867  0.3610 -0.0527  0.1665
  592MOL0     C79826   1.807   4.717   2.763  0.1674  0.1354 -0.0313
  592MOL0     C79827   1.672   4.652   2.796 -0.6128  0.2913  1.0304
  592MOL0     C79828   1.624   4.548   2.702  0.1531  0.2333 -0.2695
  592MOL0     C79829   1.481   4.503   2.715 -0.1963  0.0866  0.1033
  592MOL0    Cl79830   1.463   4.450   2.889  0.2247 -0.5421  0.0705
  592MOL0     C79831   2.335   5.019   3.116 -0.3126 -0.2176 -0.3210
  592MOL0     C79832   2.476   5.036   3.128 -0.4872 -0.1622  0.8787
  592MOL0     O79833   2.714   4.978   3.361  0.1225 -0.0179 -0.0633
  592MOL0     C79834   2.961   4.936   3.100  0.1562 -0.4177 -0.2327
  592MOL0     C79835   3.096   4.914   3.077  0.2399  0.5798 -0.0208
  592MOL0     N79836   3.049   4.648   2.783  0.1588  0.2867 -0.7846
  592MOL0     N79837   2.931   4.697   2.752  1.0535  0.3269  0.2800
  592MOL0     C79838   2.532   4.123   2.677  0.2443  0.1256 -0.4538
  592MOL0     C79839   2.659   4.085   2.725  0.4369 -0.8183 -0.4342
  592MOL0     C79840   3.147   4.083   2.712 -0.4124 -0.3114 -0.2509
  592MOL0     C79841   3.266   4.069   2.638 -0.0522 -0.1704 -0.5987
  592MOL0     C79842   3.391   4.086   2.701  0.0276 -0.8527  0.0558
  592MOL0     C79843   3.398   4.099   2.843  0.9543 -0.8856  0.6136
  592MOL0     O79844   3.522   4.107   2.909 -0.5597  0.6779 -0.8616
  592MOL0     C79845   3.577   4.237   2.940 -0.0720  0.0940 -0.6716
  592MOL0     C79846   3.547   4.271   3.081 -0.6757 -0.5168  0.3746
  592MOL0     C79847   3.633   4.391   3.122 -0.1613  0.3560  0.6423
  592MOL0     C79848   3.582   4.462   3.244  0.5265 -0.1469 -0.1370
  592MOL0     C79849   3.694   4.531   3.314 -1.0931 -0.0796  0.0946
  592MOL0     C79850   3.802   4.569   3.358  1.3915  0.2368  0.1996
  592MOL0     C79851   3.277   4.113   2.911 -0.0149  0.0691  0.2063
  592MOL0     C79852   3.152   4.098   2.853 -0.2385  0.1702 -0.1297
  592MOL0     H79853   2.859   4.268   2.518 -0.5204  1.7689  1.6437
  592MOL0     H79854   2.634   4.342   2.432 -0.3079 -0.7623 -0.9347
  592MOL0     H79855   2.219   4.181   2.581 -0.3847 -0.7843  3.6702
  592MOL0     H79856   2.295   4.283   2.714  1.9140  2.5046  0.0220
  592MOL0     H79857   2.144   4.357   2.460 -1.9214  1.1960  0.4654
  592MOL0     H79858   2.096   4.365   2.627  0.9474 -2.7870  0.2252
  592MOL0     H79859   2.350   4.526   2.528 -0.1483  1.1261  1.4898
  592MOL0     H79860   2.195   4.584   2.485 -0.9634  0.0552 -0.2961
  592MOL0     H79861   2.234   4.696   2.668  0.5868 -0.7400 -5.5345
  592MOL0     H79862   2.155   4.563   2.750 -1.1579  2.1193 -0.4780
  592MOL0     H79863   2.333   4.586   2.875 -1.7578 -0.5470 -0.6466
  592MOL0     H79864   2.413   4.471   2.762  1.8500  0.9305 -0.2345
  592MOL0     H79865   2.484   4.669   2.634  3.4256 -4.1501  0.4779
  592MOL0     H79866   2.442   4.774   2.762  0.1164  0.0334  0.0892
  592MOL0     H79867   2.675   4.736   2.842 -1.2625 -0.0250  2.9361
  592MOL0     H79868   2.630   4.585   2.897  1.0163 -0.0776  0.7134
  592MOL0     H79869   2.693   4.626   2.600 -0.4861 -2.0759 -0.8603
  592MOL0     H79870   2.671   4.479   2.690 -3.4109  1.5572  1.5442
  592MOL0     H79871   2.881   4.381   2.826 -0.8238  0.9461  2.0443
  592MOL0     H79872   3.130   4.380   2.947 -4.0976  1.2630 -0.8279
  592MOL0     H79873   3.211   4.403   2.779 -2.0950  2.0480 -2.0924
  592MOL0     H79874   3.306   4.604   2.840  1.1649 -4.9681 -3.3830
  592MOL0     H79875   3.350   4.474   2.964 -1.5905 -3.0572 -2.0445
  592MOL0     H79876   3.278   4.577   3.138 -0.4485  0.6628  0.8782
  592MOL0     H79877   3.141   4.646   3.053  0.1827  1.7367 -1.1104
  592MOL0     H79878   3.326   4.822   2.964 -3.1257  0.8033  0.8498
  592MOL0     H79879   3.433   4.722   3.074 -0.5786 -2.2039 -1.0028
  592MOL0     H79880   3.196   4.899   3.400 -1.7133  0.5526  0.9775
  592MOL0     H79881   2.915   4.882   3.498 -2.5547  0.8733  0.4182
  592MOL0     H79882   3.057   4.981   3.544 -2.2440 -0.2110  2.8085
  592MOL0     H79883   2.900   5.057   3.513 -2.2620 -1.1043 -1.8349
  592MOL0     H79884   2.581   4.718   3.109  0.5287  0.3488  0.7264
  592MOL0     H79885   2.338   4.678   3.108  3.0862 -1.8369  0.0197
  592MOL0     H79886   1.968   4.920   3.141  0.5777  0.4658  1.2062
  592MOL0     H79887   2.080   5.052   3.150 -1.6268  1.0429 -1.9001
  592MOL0     H79888   1.945   5.063   2.949  0.2664 -0.4728  1.6235
  592MOL0     H79889   2.111   5.030   2.904  0.0016  2.0312  0.2343
  592MOL0     H79890   2.044   4.783   2.878 -2.4801 -1.9822  0.0211
  592MOL0     H79891   1.993   4.887   2.755 -0.4437 -2.3799 -0.7637
  592MOL0     H79892   1.822   4.778   2.967  1.8782 -1.4419 -0.2467
  592MOL0     H79893   1.764   4.905   2.847  1.3462  0.8204  0.2530
  592MOL0     H79894   1.875   4.633   2.780 -1.7185 -1.1273  1.7011
  592MOL0     H79895   1.811   4.752   2.660  2.6843  0.8054  0.2328
  592MOL0     H79896   1.677   4.617   2.900 -0.4124 -0.9628  0.6258
  592MOL0     H79897   1.605   4.738   2.802 -0.7700  0.1624  1.1631
  592MOL0     H79898   1.686   4.459   2.721 -0.0961  0.0116 -0.4865
  592MOL0     H79899   1.643   4.585   2.601  2.1670  1.0608  0.3705
  592MOL0     H79900   1.450   4.426   2.644 -0.5764  0.1492  0.1978
  592MOL0     H79901   1.430   4.598   2.698  0.6573  0.9266  1.8967
  592MOL0     H79902   2.272   5.107   3.104 -0.1353 -0.4561 -4.2772
  592MOL0     H79903   2.523   5.132   3.140 -0.1815  0.1731 -2.2273
  592MOL0     H79904   2.902   4.938   3.009 -0.7509  2.1149  0.3465
  592MOL0     H79905   3.139   4.895   2.980  1.2124  1.5620  0.1990
  592MOL0     H79906   2.442   4.094   2.731 -0.4496  0.9296 -1.1540
  592MOL0     H79907   2.672   4.014   2.805 -0.2322 -1.4092 -0.8379
  592MOL0     H79908   3.259   4.060   2.530 -1.2798 -0.3000 -0.5220
  592MOL0     H79909   3.483   4.072   2.646 -1.2837 -2.4228 -1.9046
  592MOL0     H79910   3.686   4.237   2.933  0.1293  1.3372  1.4893
  592MOL0     H79911   3.538   4.305   2.863  1.3568  1.6771 -0.0687
  592MOL0     H79912   3.567   4.185   3.146  0.0534 -0.1899  0.5910
  592MOL0     H79913   3.443   4.302   3.091 -0.4381 -0.0292  1.4272
  592MOL0     H79914   3.626   4.464   3.041  0.8319  0.4451  0.6351
  592MOL0     H79915   3.737   4.365   3.143 -0.2244  0.3839  0.9965
  592MOL0     H79916   3.529   4.391   3.307  0.0203  1.7354  1.6598
  592MOL0     H79917   3.511   4.534   3.201 -0.2400 -2.1806 -2.5366
  592MOL0     H79918   3.898   4.583   3.404  0.5939  1.5818  1.5592
  592MOL0     H79919   3.278   4.134   3.017  1.2176 -0.4962  0.3264
  592MOL0     H79920   3.061   4.083   2.910  0.3607 -1.2636  0.4983
  593MOL0     O79921   7.752   2.274   8.350 -0.4865  0.0701 -0.0333
  593MOL0     C79922   7.743   2.259   8.224  0.5481  0.1614 -0.8387
  593MOL0     O79923   7.626   2.239   8.154 -0.3744 -0.3014  0.4398
  593MOL0     C79924   7.505   2.236   8.223 -1.0826  0.2520 -1.0222
  593MOL0     C79925   7.415   2.340   8.200  0.1301  1.5062 -0.2591
  593MOL0     C79926   7.306   2.346   8.293  0.9883 -0.6087  0.1246
  593MOL0     C79927   7.272   2.244   8.380  0.6050 -0.5385 -0.2816
  593MOL0     O79928   7.160   2.253   8.465 -0.7652 -0.1468  0.0969
  593MOL0     C79929   7.178   2.263   8.600 -0.3449 -0.1124  0.1165
  593MOL0     C79930   7.048   2.253   8.678 -0.1091 -0.0193 -0.2862
  593MOL0     C79931   6.972   2.391   8.682  0.4504  0.5160  0.4660
  593MOL0     C79932   6.835   2.357   8.748 -0.7042  0.2198  0.2116
  593MOL0     C79933   6.747   2.474   8.762 -1.3889  0.4951 -0.1743
  593MOL0     C79934   6.622   2.445   8.843  0.1706 -0.2393 -0.4957
  593MOL0     C79935   6.524   2.564   8.828 -0.1977  0.0420 -0.1819
  593MOL0     C79936   6.390   2.510   8.870  1.0130 -1.1028  0.0382
  593MOL0     N79937   6.293   2.610   8.843  0.6636 -0.1414 -0.5284
  593MOL0     C79938   6.160   2.606   8.857  0.1801  0.2250  0.1727
  593MOL0     C79939   6.108   2.733   8.842 -0.6033 -0.0971  0.0818
  593MOL0     C79940   5.958   2.767   8.840  0.2671  0.7452  0.2304
  593MOL0     C79941   5.923   2.815   8.977  0.4405 -0.3656  0.2718
  593MOL0     C79942   5.955   2.965   9.010  0.2626  0.5658 -0.2086
  593MOL0     C79943   5.899   2.993   9.149 -0.0568  0.8147  0.4119
  593MOL0     O79944   5.950   3.126   9.195 -0.1141  0.5764  0.2508
  593MOL0     C79945   5.855   3.230   9.191  0.5449 -0.2125  0.3375
  593MOL0     C79946   5.723   3.221   9.218 -0.1743 -0.3701 -0.9886
  593MOL0     C79947   5.630   3.329   9.220 -0.0120  0.1162 -0.0476
  593MOL0     C79948   5.485   3.281   9.233  0.6703  0.1030  1.0135
  593MOL0     C79949   5.681   3.461   9.204  0.0629 -0.3538  0.6561
  593MOL0     C79950   5.597   3.583   9.216 -0.8392 -1.0556  1.1669
  593MOL0     O79951   5.663   3.710   9.231  0.5413  0.8204  0.0490
  593MOL0     C79952   5.584   3.828   9.246 -1.2719  0.5783 -0.1937
  593MOL0     C79953   5.483   3.876   9.168 -0.8651  0.0445  0.7961
  593MOL0     C79954   5.413   3.995   9.207 -0.5925 -0.1077  0.5197
  593MOL0     C79955   5.437   4.063   9.327 -0.0720  0.3753  0.2552
  593MOL0     O79956   5.358   4.170   9.384 -0.3420  0.9799 -0.1954
  593MOL0     C79957   5.297   4.255   9.293 -0.5631 -0.1758  0.4912
  593MOL0     C79958   5.264   4.392   9.354 -0.0683  0.3489 -0.2989
  593MOL0     C79959   5.183   4.504   9.279  0.6984  1.3500 -0.5835
  593MOL0     C79960   5.276   4.575   9.183  0.0508 -0.0324  0.0393
  593MOL0     C79961   5.202   4.658   9.072  0.3231 -0.2216 -0.2089
  593MOL0     C79962   5.175   4.798   9.121  0.1022 -0.3103 -0.1889
  593MOL0     C79963   5.153   4.913   9.013 -0.3776  0.3522  0.3504
  593MOL0     C79964   5.101   5.046   9.058 -0.0993 -0.5636 -0.1884
  593MOL0    Cl79965   4.931   5.031   9.099  0.2105 -0.3498  0.3503
  593MOL0     C79966   5.531   4.007   9.413  0.2409  0.2446  0.0097
  593MOL0     C79967   5.600   3.891   9.367  0.7346  0.2686 -0.5974
  593MOL0     O79968   5.474   3.576   9.200 -0.4262 -0.2109 -1.0254
  593MOL0     C79969   5.818   3.475   9.169  0.7432 -0.5931 -1.1444
  593MOL0     C79970   5.899   3.357   9.175 -0.4362  0.3216 -0.2558
  593MOL0     N79971   6.220   2.815   8.816 -0.1723 -0.3267  0.2327
  593MOL0     N79972   6.322   2.738   8.824  0.5797  0.1959 -0.4011
  593MOL0     C79973   7.361   2.137   8.386 -0.0832  0.4652  0.2281
  593MOL0     C79974   7.475   2.135   8.317  0.3778  0.4626 -0.4135
  593MOL0     C79975   7.876   2.234   8.147  1.0599  0.5825  0.0007
  593MOL0     C79976   7.887   2.241   8.012 -0.3590  0.8854  0.9825
  593MOL0     C79977   8.009   2.196   7.944  0.4085 -0.2087  0.4220
  593MOL0     C79978   8.103   2.134   8.018 -0.5453  0.5629 -0.6243
  593MOL0     O79979   8.214   2.091   7.938  0.0491  0.1888  0.0418
  593MOL0     C79980   8.334   2.035   7.999  0.3675  0.1755  0.6481
  593MOL0     C79981   8.419   2.146   8.075 -0.8213 -0.3223 -0.0392
  593MOL0     C79982   8.553   2.171   7.992  0.3338  0.0401 -0.0561
  593MOL0     C79983   8.636   2.296   8.052 -0.1077  0.3810  0.5194
  593MOL0     C79984   8.554   2.408   8.100 -0.8772 -0.5625  0.0933
  593MOL0     C79985   8.470   2.483   8.147 -0.2508 -0.6489  1.7191
  593MOL0     C79986   8.099   2.126   8.160  0.5469 -0.7491  0.6739
  593MOL0     C79987   7.989   2.185   8.216  0.5570  0.4503 -1.0270
  593MOL0     H79988   7.426   2.422   8.130 -0.0379 -0.5131 -2.8079
  593MOL0     H79989   7.252   2.441   8.289  2.4624  0.2188 -2.9176
  593MOL0     H79990   7.239   2.181   8.639 -1.4933 -2.4663 -2.6425
  593MOL0     H79991   7.229   2.356   8.626  2.1110 -0.7697 -2.0260
  593MOL0     H79992   6.976   2.186   8.629 -0.2742 -0.0291 -0.0331
  593MOL0     H79993   7.073   2.210   8.776  3.2823 -0.5137 -1.2460
  593MOL0     H79994   7.030   2.465   8.739 -1.4561  0.4767  2.5712
  593MOL0     H79995   6.954   2.427   8.580 -1.0575 -0.3630  0.3956
  593MOL0     H79996   6.786   2.273   8.697 -1.3003  0.4873  0.3312
  593MOL0     H79997   6.860   2.318   8.848  1.4890 -2.5211 -1.2428
  593MOL0     H79998   6.804   2.558   8.802  3.2894 -2.5009  0.2400
  593MOL0     H79999   6.718   2.511   8.662 -1.3930  0.8146 -0.0567
  593MOL0     H80000   6.579   2.347   8.818  2.3937 -1.3710 -0.1378
  593MOL0     H80001   6.638   2.426   8.949  1.3227  2.0535 -0.2164
  593MOL0     H80002   6.558   2.648   8.890  0.1503 -0.1527 -0.1082
  593MOL0     H80003   6.505   2.601   8.727  1.6678  0.0900 -0.5510
  593MOL0     H80004   6.384   2.481   8.975  0.7516  0.7643  0.5876
  593MOL0     H80005   6.353   2.428   8.808 -2.5328  1.4407 -1.5257
  593MOL0     H80006   6.108   2.514   8.884  2.1810 -0.8433  0.5875
  593MOL0     H80007   5.939   2.838   8.758 -2.7312  0.1090  0.2657
  593MOL0     H80008   5.897   2.679   8.818 -0.4772  1.4371 -0.6037
  593MOL0     H80009   5.971   2.750   9.050  1.3573 -2.1511 -1.8116
  593MOL0     H80010   5.815   2.799   8.992  0.5278 -2.9286 -1.2877
  593MOL0     H80011   5.918   3.040   8.939  1.3867 -1.9936 -3.7900
  593MOL0     H80012   6.064   2.978   9.011  0.6371 -1.7374 -2.0226
  593MOL0     H80013   5.916   2.919   9.227 -2.8721 -0.3364  0.0629
  593MOL0     H80014   5.791   2.981   9.132  0.2431 -0.7574 -0.5577
  593MOL0     H80015   5.676   3.124   9.234 -0.4488  0.2886  3.4611
  593MOL0     H80016   5.413   3.358   9.202 -2.1768 -2.0056  1.9360
  593MOL0     H80017   5.468   3.206   9.155  1.6373 -0.4899  1.3600
  593MOL0     H80018   5.477   3.247   9.337  0.6669  0.5821  1.1716
  593MOL0     H80019   5.447   3.819   9.084  0.2894  1.8887 -1.0323
  593MOL0     H80020   5.329   4.026   9.147  0.9472 -2.5873 -3.2566
  593MOL0     H80021   5.362   4.280   9.209  0.3334 -1.2828  0.8337
  593MOL0     H80022   5.211   4.202   9.250  0.2578 -1.5493  0.4911
  593MOL0     H80023   5.206   4.378   9.446 -1.7628  0.3819 -1.3164
  593MOL0     H80024   5.357   4.437   9.388 -0.3757  1.4066 -0.7890
  593MOL0     H80025   5.132   4.573   9.347 -0.0561  1.2183 -1.0020
  593MOL0     H80026   5.100   4.461   9.223 -0.5648  1.7480  0.9333
  593MOL0     H80027   5.348   4.637   9.239  0.1645  1.2102 -1.4255
  593MOL0     H80028   5.333   4.503   9.125 -0.9419  1.3321 -2.7888
  593MOL0     H80029   5.108   4.611   9.044  1.5808 -3.4323  0.5501
  593MOL0     H80030   5.264   4.668   8.982  0.7786 -3.1082 -0.2952
  593MOL0     H80031   5.090   4.784   9.188  0.9148 -0.2802  0.8726
  593MOL0     H80032   5.256   4.831   9.187 -0.8979  0.2474  0.7941
  593MOL0     H80033   5.088   4.874   8.935 -0.2851  1.4558 -0.3095
  593MOL0     H80034   5.251   4.941   8.971 -0.2183 -0.5737  0.0897
  593MOL0     H80035   5.121   5.122   8.983  2.9290 -1.4244 -0.4042
  593MOL0     H80036   5.155   5.081   9.147  0.2555 -2.0508  0.2191
  593MOL0     H80037   5.551   4.068   9.501 -4.3404 -0.4841  1.8384
  593MOL0     H80038   5.688   3.864   9.426  2.1040 -0.4064 -2.7908
  593MOL0     H80039   5.857   3.574   9.148  0.5362 -0.3085 -0.2580
  593MOL0     H80040   6.004   3.366   9.149 -1.2664  0.9692 -3.9766
  593MOL0     H80041   7.333   2.047   8.439 -0.5696  0.0285 -0.7454
  593MOL0     H80042   7.536   2.046   8.311 -0.4077 -0.1392  0.2251
  593MOL0     H80043   7.796   2.280   7.967 -1.2198 -2.8293 -0.8913
  593MOL0     H80044   8.032   2.214   7.840 -0.0669  3.5620  0.8045
  593MOL0     H80045   8.296   1.961   8.071  1.0980 -0.0966  0.7690
  593MOL0     H80046   8.389   1.975   7.926  0.3518 -1.1626  1.6858
  593MOL0     H80047   8.432   2.122   8.182  1.9055 -1.0736 -0.4453
  593MOL0     H80048   8.354   2.233   8.077  0.0895  0.3943 -0.8330
  593MOL0     H80049   8.529   2.192   7.887  1.7106  0.9504 -0.2198
  593MOL0     H80050   8.612   2.079   7.998 -1.7949 -1.4997 -1.4306
  593MOL0     H80051   8.709   2.338   7.982  1.2992 -3.1927 -0.3956
  593MOL0     H80052   8.682   2.258   8.144 -1.4830  3.3543  2.5979
  593MOL0     H80053   8.398   2.552   8.186  0.6535  1.3262  0.0554
  593MOL0     H80054   8.180   2.090   8.222 -1.5962  0.8728  4.7979
  593MOL0     H80055   7.983   2.181   8.324  0.5530 -1.1091 -1.0517
  594MOL0     O80056   4.434   4.000   0.444 -0.0129  0.7072  0.0496
  594MOL0     C80057   4.456   4.121   0.461  0.1004 -0.0594  0.7540
  594MOL0     O80058   4.548   4.192   0.400 -0.3807 -0.3294  0.4322
  594MOL0     C80059   4.647   4.138   0.325  0.7540  0.1329  1.1756
  594MOL0     C80060   4.783   4.173   0.346 -0.0164  0.1252 -0.3599
  594MOL0     C80061   4.880   4.120   0.264 -0.2894 -0.0609 -0.2765
  594MOL0     C80062   4.848   4.014   0.173 -0.8101  0.4379  0.4197
  594MOL0     O80063   4.946   3.946   0.100 -0.0547 -0.4840  0.2629
  594MOL0     C80064   4.943   3.955  -0.040 -0.4970 -0.0685 -0.1634
  594MOL0     C80065   5.037   3.860  -0.108 -0.0630  0.0127  0.7347
  594MOL0     C80066   5.020   3.883  -0.261  0.4018 -0.8335  0.2743
  594MOL0     C80067   5.092   3.780  -0.353  0.0389  0.0628 -0.2953
  594MOL0     C80068   5.242   3.803  -0.351 -0.0074  0.3494  0.4316
  594MOL0     C80069   5.320   3.701  -0.437  0.7435 -0.9522  1.5205
  594MOL0     C80070   5.463   3.677  -0.399 -0.1885  0.0617  1.1367
  594MOL0     C80071   5.544   3.563  -0.467 -0.2899 -0.5853 -0.4151
  594MOL0     N80072   5.564   3.591  -0.603 -0.5367 -0.0479  0.7929
  594MOL0     C80073   5.684   3.610  -0.677 -0.6345 -0.3162 -0.5560
  594MOL0     C80074   5.644   3.617  -0.801  0.6668  0.4969  0.1752
  594MOL0     C80075   5.729   3.638  -0.921  0.0977 -0.2249  0.9303
  594MOL0     C80076   5.832   3.752  -0.903 -0.0348 -0.1746 -0.1870
  594MOL0     C80077   5.797   3.883  -0.958  0.8197 -1.0345 -0.5057
  594MOL0     C80078   5.649   3.920  -0.921  0.8826 -0.4830  0.5321
  594MOL0     O80079   5.610   4.048  -0.910  0.5819 -0.1421 -0.1680
  594MOL0     C80080   5.481   4.090  -0.903  0.4567  0.1026  0.0845
  594MOL0     C80081   5.376   3.995  -0.877  0.8584 -0.0594 -0.5296
  594MOL0     C80082   5.238   4.031  -0.875  0.5670  0.1408 -0.7747
  594MOL0     C80083   5.143   3.923  -0.848  0.4936  0.1915 -0.1430
  594MOL0     C80084   5.199   4.171  -0.893  0.0729  1.2713 -0.5889
  594MOL0     C80085   5.065   4.225  -0.888  0.7494 -0.5238  0.7355
  594MOL0     O80086   4.958   4.137  -0.878 -0.0435 -0.2578 -0.1037
  594MOL0     C80087   4.830   4.188  -0.882 -0.3520 -0.1918  0.2221
  594MOL0     C80088   4.786   4.289  -0.980  0.3699  0.8522  0.3781
  594MOL0     C80089   4.644   4.303  -1.000 -0.6521 -0.2321 -0.2127
  594MOL0     C80090   4.548   4.226  -0.932 -0.1951 -0.4039 -0.9920
  594MOL0     O80091   4.414   4.231  -0.952 -0.1484 -0.0630 -0.1160
  594MOL0     C80092   4.366   4.307  -1.059  0.8304  0.3707  0.2430
  594MOL0     C80093   4.234   4.236  -1.115  0.8604 -0.1833 -0.3590
  594MOL0     C80094   4.184   4.335  -1.219 -0.6758  0.2940 -0.7865
  594MOL0     C80095   4.068   4.270  -1.290  0.3940  0.1410  0.7416
  594MOL0     C80096   4.024   4.350  -1.409 -0.3082  0.0202  0.6794
  594MOL0     C80097   3.923   4.262  -1.491  0.0922 -0.2784 -0.6133
  594MOL0     C80098   3.787   4.234  -1.426  0.4364 -0.5173 -0.8954
  594MOL0     C80099   3.671   4.210  -1.531 -0.4250  0.4816 -0.0787
  594MOL0    Cl80100   3.664   4.343  -1.650 -0.5046  0.2135 -0.4465
  594MOL0     C80101   4.589   4.140  -0.835 -0.0973  0.0571 -0.3097
  594MOL0     C80102   4.729   4.119  -0.807  0.6220  0.7656 -0.2160
  594MOL0     O80103   5.053   4.348  -0.877 -0.2223 -0.3971  0.5007
  594MOL0     C80104   5.303   4.258  -0.936 -1.4114 -0.3860  0.4000
  594MOL0     C80105   5.441   4.221  -0.934 -0.6830 -0.3525 -0.9846
  594MOL0     N80106   5.511   3.588  -0.803 -0.2517 -0.2689  0.3661
  594MOL0     N80107   5.460   3.574  -0.688  0.1252 -0.1945  0.6893
  594MOL0     C80108   4.711   3.979   0.146 -0.2833  0.6225  0.1647
  594MOL0     C80109   4.613   4.041   0.229  0.2108  0.2741  0.1198
  594MOL0     C80110   4.373   4.195   0.558  0.1227 -0.1638 -0.0959
  594MOL0     C80111   4.399   4.329   0.596  0.1326  0.6546  0.2920
  594MOL0     C80112   4.325   4.389   0.703  0.9837  0.4964  0.5041
  594MOL0     C80113   4.223   4.325   0.757  0.2012 -0.9520  0.3338
  594MOL0     O80114   4.158   4.394   0.858 -0.7751  0.7446  0.9406
  594MOL0     C80115   4.035   4.339   0.891  0.3824 -0.8247  0.4845
  594MOL0     C80116   3.971   4.441   0.988  0.5883 -0.2098 -0.6497
  594MOL0     C80117   3.820   4.432   1.002  0.6507 -0.3212 -1.3001
  594MOL0     C80118   3.769   4.552   1.091 -0.5259  0.9938 -0.1564
  594MOL0     C80119   3.815   4.557   1.230  0.4282  0.2733  0.0753
  594MOL0     C80120   3.869   4.558   1.338 -0.1231 -0.3851 -0.1851
  594MOL0     C80121   4.192   4.193   0.722 -0.3322 -0.1590 -0.3686
  594MOL0     C80122   4.269   4.125   0.625  0.1835  0.7075  0.1356
  594MOL0     H80123   4.806   4.250   0.419  2.8211 -1.6629  0.8065
  594MOL0     H80124   4.984   4.153   0.266 -0.7823  1.9765 -2.8243
  594MOL0     H80125   4.841   3.928  -0.071 -0.8654 -0.4040  1.2668
  594MOL0     H80126   4.973   4.055  -0.071  0.8280  0.2488  1.9757
  594MOL0     H80127   5.140   3.888  -0.085  0.0321  1.0967 -0.8370
  594MOL0     H80128   5.032   3.754  -0.082  6.3880 -0.6423  0.8983
  594MOL0     H80129   4.913   3.867  -0.280 -0.8227  2.4464  3.3156
  594MOL0     H80130   5.040   3.984  -0.298  0.9405 -1.8675 -2.4855
  594MOL0     H80131   5.072   3.676  -0.328 -0.1129 -0.1948 -1.4433
  594MOL0     H80132   5.067   3.799  -0.458  0.0112  2.6143  0.0991
  594MOL0     H80133   5.266   3.903  -0.388  1.0498 -0.8858 -2.5246
  594MOL0     H80134   5.281   3.788  -0.250  0.0728  1.8811  0.6579
  594MOL0     H80135   5.261   3.608  -0.436 -4.3801  1.9236  2.7659
  594MOL0     H80136   5.319   3.751  -0.534 -2.9384 -0.9196  1.4359
  594MOL0     H80137   5.518   3.766  -0.430  2.1818 -1.9445 -0.8951
  594MOL0     H80138   5.471   3.662  -0.291 -0.8341  0.9365  1.3134
  594MOL0     H80139   5.499   3.464  -0.456  3.9006 -2.5196  1.8530
  594MOL0     H80140   5.646   3.547  -0.431 -0.7768  0.8077  1.7562
  594MOL0     H80141   5.786   3.622  -0.641 -0.9041 -1.3224  0.5878
  594MOL0     H80142   5.782   3.548  -0.954  0.8367  0.2836  0.6889
  594MOL0     H80143   5.669   3.657  -1.010 -0.4892 -1.0178  1.1447
  594MOL0     H80144   5.925   3.728  -0.955  1.2598  1.7302  1.1326
  594MOL0     H80145   5.861   3.769  -0.799  1.1461  2.6492 -0.9034
  594MOL0     H80146   5.816   3.904  -1.063 -0.7789  0.4032 -0.5540
  594MOL0     H80147   5.852   3.957  -0.900 -2.0448  0.6391  0.2860
  594MOL0     H80148   5.623   3.874  -0.825 -2.5466 -2.3729 -1.0978
  594MOL0     H80149   5.582   3.872  -0.993  1.0201  1.4399 -0.9531
  594MOL0     H80150   5.409   3.895  -0.851  2.0997  1.0729  2.6658
  594MOL0     H80151   5.073   3.951  -0.768  2.5375  2.9433  0.8096
  594MOL0     H80152   5.086   3.914  -0.941  0.7969  0.6557 -0.3772
  594MOL0     H80153   5.180   3.820  -0.842  0.6054  0.3183  3.2443
  594MOL0     H80154   4.869   4.339  -1.030 -0.7507  0.5178 -1.8974
  594MOL0     H80155   4.618   4.385  -1.066  1.6712  0.8392  0.1130
  594MOL0     H80156   4.344   4.400  -1.007 -2.1155 -0.6067  0.9702
  594MOL0     H80157   4.430   4.333  -1.144 -0.3899 -0.7884 -1.0800
  594MOL0     H80158   4.258   4.137  -1.154 -0.5653 -0.5606 -0.3221
  594MOL0     H80159   4.160   4.224  -1.036 -0.7696  2.7200 -1.3015
  594MOL0     H80160   4.267   4.360  -1.285 -2.4360  0.6866 -2.9526
  594MOL0     H80161   4.133   4.426  -1.187 -1.8187 -0.0835 -1.4720
  594MOL0     H80162   4.093   4.170  -1.327 -1.2264 -0.2762  0.6992
  594MOL0     H80163   3.996   4.260  -1.208  0.7944 -1.0425  0.9667
  594MOL0     H80164   4.108   4.381  -1.472 -2.0131  0.0952 -1.6541
  594MOL0     H80165   3.970   4.441  -1.382 -1.1847  1.0527 -3.8675
  594MOL0     H80166   3.899   4.324  -1.577 -0.8119 -4.1204 -3.3992
  594MOL0     H80167   3.977   4.173  -1.525 -1.6606 -1.2970 -0.8371
  594MOL0     H80168   3.753   4.317  -1.364 -0.0004 -0.2845 -1.4439
  594MOL0     H80169   3.796   4.150  -1.356 -1.3689  0.3197  0.4135
  594MOL0     H80170   3.572   4.192  -1.489 -0.1197 -0.4670  0.2433
  594MOL0     H80171   3.697   4.127  -1.597  1.3382  1.7670 -1.0771
  594MOL0     H80172   4.515   4.083  -0.779 -0.9006  1.6499  0.3018
  594MOL0     H80173   4.761   4.033  -0.749  4.0499  1.7480 -0.4206
  594MOL0     H80174   5.289   4.357  -0.978  2.6580  1.2477  2.2825
  594MOL0     H80175   5.512   4.300  -0.955 -1.6141  0.7885 -0.0068
  594MOL0     H80176   4.678   3.896   0.084 -0.5658 -2.1639  3.7460
  594MOL0     H80177   4.506   4.031   0.221  0.1157 -0.7029  2.0825
  594MOL0     H80178   4.476   4.388   0.548 -1.7721  3.3841  0.3377
  594MOL0     H80179   4.350   4.491   0.729 -1.8602  2.6840 -4.0694
  594MOL0     H80180   3.977   4.333   0.798  2.9973  2.0087 -1.5151
  594MOL0     H80181   4.028   4.242   0.942  0.3418 -2.1413 -1.8974
  594MOL0     H80182   4.010   4.537   0.953  1.4555 -0.1160  0.5298
  594MOL0     H80183   4.011   4.426   1.088 -3.6625 -1.4281  1.1185
  594MOL0     H80184   3.796   4.336   1.049 -0.2348  0.2058 -0.6546
  594MOL0     H80185   3.768   4.442   0.906 -0.4827  0.6472 -0.5995
  594MOL0     H80186   3.661   4.535   1.094 -0.2692 -1.4076 -1.6416
  594MOL0     H80187   3.785   4.648   1.041 -2.3319  0.9881 -0.8066
  594MOL0     H80188   3.924   4.574   1.429 -1.3526 -0.2842  0.5680
  594MOL0     H80189   4.122   4.138   0.784 -0.7506  0.1382 -0.5738
  594MOL0     H80190   4.256   4.018   0.611  0.5280  0.8255 -1.1912
  595MOL0     O80191   3.024   1.443   8.347  1.0109  0.0681  0.0111
  595MOL0     C80192   3.093   1.397   8.257  0.2169  1.1233 -0.7731
  595MOL0     O80193   3.047   1.320   8.149  0.2156 -0.4815 -0.4869
  595MOL0     C80194   2.920   1.361   8.117  0.6043 -0.0453 -0.0003
  595MOL0     C80195   2.820   1.262   8.122 -0.2087 -0.8595  0.3187
  595MOL0     C80196   2.693   1.295   8.070 -0.0678 -0.4310  0.1349
  595MOL0     C80197   2.674   1.424   8.013  0.5627  0.7106  1.2364
  595MOL0     O80198   2.553   1.457   7.956  0.0758 -0.1255 -0.0813
  595MOL0     C80199   2.558   1.495   7.816 -0.1223  0.1752 -0.0493
  595MOL0     C80200   2.483   1.401   7.719  0.2613 -0.6669 -0.3580
  595MOL0     C80201   2.347   1.448   7.692  0.4885 -0.3650  0.8163
  595MOL0     C80202   2.256   1.336   7.629 -0.8260 -0.2421 -0.3377
  595MOL0     C80203   2.239   1.208   7.719  0.4598  0.2127  0.7380
  595MOL0     C80204   2.204   1.230   7.865  0.9506  0.2305 -0.6632
  595MOL0     C80205   2.054   1.271   7.880  0.2509  0.4111 -0.4187
  595MOL0     C80206   1.975   1.150   7.924  0.1095  0.3218  0.6832
  595MOL0     N80207   1.841   1.178   7.966 -0.9044  0.1495 -0.3916
  595MOL0     C80208   1.793   1.177   8.092  1.2906 -0.2387  0.3555
  595MOL0     C80209   1.660   1.190   8.078  0.6473 -0.0788 -0.5428
  595MOL0     C80210   1.556   1.177   8.199 -0.0185  0.0051  0.3051
  595MOL0     C80211   1.434   1.268   8.205  0.0033 -0.1243 -0.3349
  595MOL0     C80212   1.449   1.418   8.182  0.8473 -0.7449  0.6549
  595MOL0     C80213   1.362   1.463   8.060 -0.1337 -0.8766  0.0745
  595MOL0     O80214   1.227   1.407   8.047  0.7503  0.4631 -0.0814
  595MOL0     C80215   1.118   1.472   8.099  0.0579 -0.4416  0.0343
  595MOL0     C80216   1.129   1.557   8.208 -0.1373 -0.0251 -0.8031
  595MOL0     C80217   1.019   1.625   8.262  0.2061  0.1319  0.3012
  595MOL0     C80218   1.057   1.724   8.378 -0.1759  0.3518  0.6988
  595MOL0     C80219   0.885   1.596   8.213 -0.1209  0.5473  0.7715
  595MOL0     C80220   0.756   1.657   8.257  0.0432 -0.8847 -1.3404
  595MOL0     O80221   0.756   1.717   8.379 -0.9303 -0.3134 -0.5521
  595MOL0     C80222   0.644   1.792   8.413 -0.2245 -0.1423  0.7614
  595MOL0     C80223   0.667   1.918   8.466  0.0705 -0.4273 -0.2175
  595MOL0     C80224   0.563   2.011   8.502  0.7485  0.4357 -0.6146
  595MOL0     C80225   0.432   1.976   8.466  0.9985 -0.3761 -0.3848
  595MOL0     O80226   0.318   2.062   8.480  0.0916  1.1458 -0.7862
  595MOL0     C80227   0.331   2.208   8.463  0.2309  0.3050  0.4715
  595MOL0     C80228   0.369   2.233   8.314  0.2699 -0.1096  0.3616
  595MOL0     C80229   0.368   2.388   8.289 -0.4785  0.1948  0.4540
  595MOL0     C80230   0.308   2.418   8.149  0.2443 -0.6322 -0.1878
  595MOL0     C80231   0.335   2.558   8.119 -0.0566  0.3993  0.7049
  595MOL0     C80232   0.211   2.641   8.091 -0.6870  0.2647 -0.5453
  595MOL0     C80233   0.272   2.773   8.039 -0.4687 -0.6578  0.5536
  595MOL0     C80234   0.260   2.882   8.146  0.0659  0.3092  0.2593
  595MOL0    Cl80235   0.359   3.027   8.091  0.2584  0.1211  0.3750
  595MOL0     C80236   0.408   1.847   8.421 -0.7929 -0.2726  0.7024
  595MOL0     C80237   0.510   1.750   8.406  0.3047  0.7107  0.6746
  595MOL0     O80238   0.661   1.649   8.181  1.0854 -0.3435  0.0868
  595MOL0     C80239   0.882   1.513   8.098  0.0549 -0.2577 -0.4547
  595MOL0     C80240   0.994   1.450   8.042  0.3686  0.4073 -0.7115
  595MOL0     N80241   1.631   1.197   7.940  0.3456 -0.1197 -0.2603
  595MOL0     N80242   1.743   1.187   7.874 -0.2177 -0.4930  0.2491
  595MOL0     C80243   2.768   1.523   8.018 -0.2624 -0.4316  0.0245
  595MOL0     C80244   2.892   1.492   8.070  0.0260  0.4244 -0.4371
  595MOL0     C80245   3.242   1.413   8.278 -0.2439  0.5181 -0.2816
  595MOL0     C80246   3.333   1.358   8.184  0.3203  0.2583 -0.4381
  595MOL0     C80247   3.471   1.377   8.199  0.7174 -1.2017 -0.2876
  595MOL0     C80248   3.515   1.433   8.322  1.1084 -0.7517 -0.0305
  595MOL0     O80249   3.649   1.445   8.333 -0.9168 -0.6152  0.8164
  595MOL0     C80250   3.717   1.519   8.444  0.2474  0.4305  0.3711
  595MOL0     C80251   3.712   1.420   8.566 -0.5990  0.1158  0.2548
  595MOL0     C80252   3.790   1.485   8.689 -0.2140  0.5310 -0.0926
  595MOL0     C80253   3.831   1.375   8.787  0.3871  0.6161  0.4230
  595MOL0     C80254   3.925   1.282   8.726  0.5732 -0.0248 -0.5127
  595MOL0     C80255   3.989   1.196   8.679  0.2913 -0.0900  0.3004
  595MOL0     C80256   3.424   1.499   8.413  0.4134  0.8384 -0.0706
  595MOL0     C80257   3.285   1.490   8.387  0.4278 -0.4281  0.4704
  595MOL0     H80258   2.848   1.159   8.140 -0.1006 -1.1647 -1.3682
  595MOL0     H80259   2.620   1.215   8.060  0.4801 -1.2894  2.3509
  595MOL0     H80260   2.526   1.599   7.804  3.0984  1.2386 -0.5030
  595MOL0     H80261   2.662   1.500   7.781  0.4613 -2.4921  1.0313
  595MOL0     H80262   2.538   1.393   7.625  2.7240  3.3898  0.4910
  595MOL0     H80263   2.488   1.302   7.767 -0.2022 -0.4862  0.0791
  595MOL0     H80264   2.298   1.485   7.783  1.3266 -1.2624  1.6520
  595MOL0     H80265   2.350   1.534   7.624  1.0362 -0.6836  0.4247
  595MOL0     H80266   2.156   1.378   7.610 -1.2833 -0.8591  0.6084
  595MOL0     H80267   2.311   1.317   7.537  0.7525  0.0604  0.5167
  595MOL0     H80268   2.170   1.138   7.671  1.9767  0.0606 -1.3950
  595MOL0     H80269   2.337   1.160   7.718  0.1989 -0.3234  0.7384
  595MOL0     H80270   2.232   1.145   7.929  2.4546 -0.2047 -1.8396
  595MOL0     H80271   2.269   1.308   7.906  0.7138 -1.2240  2.8495
  595MOL0     H80272   2.048   1.355   7.951  1.5957  1.7259 -1.7949
  595MOL0     H80273   2.019   1.324   7.791  3.6204  1.6424 -1.1303
  595MOL0     H80274   2.022   1.102   8.011 -1.0067 -0.9315  0.6145
  595MOL0     H80275   1.973   1.077   7.843 -2.4952  1.5975 -0.5142
  595MOL0     H80276   1.848   1.182   8.185  0.2547  1.1204  0.9409
  595MOL0     H80277   1.537   1.069   8.204  0.7865 -0.0802  3.5384
  595MOL0     H80278   1.614   1.195   8.290  0.6384  2.2656 -0.4953
  595MOL0     H80279   1.387   1.259   8.304  1.1400 -1.8745  0.0899
  595MOL0     H80280   1.367   1.225   8.130 -3.3460  2.5789  0.8355
  595MOL0     H80281   1.553   1.439   8.156  0.1159  1.3142 -0.9540
  595MOL0     H80282   1.416   1.463   8.276  1.6220 -2.0741  1.5797
  595MOL0     H80283   1.429   1.450   7.974  1.6540  1.2103  1.0556
  595MOL0     H80284   1.359   1.572   8.058  1.6902 -0.7848  0.2510
  595MOL0     H80285   1.227   1.584   8.244  0.0571 -2.5610  0.7732
  595MOL0     H80286   1.073   1.656   8.462  0.6265 -0.9410 -0.4441
  595MOL0     H80287   1.149   1.780   8.358 -0.5233  1.1970  1.4179
  595MOL0     H80288   0.979   1.795   8.405 -0.9587 -1.3537  3.2340
  595MOL0     H80289   0.772   1.933   8.487  0.5176 -1.2464 -1.6668
  595MOL0     H80290   0.579   2.105   8.554  0.7769  0.0264  0.1312
  595MOL0     H80291   0.230   2.243   8.486 -0.0002 -1.0926  1.7125
  595MOL0     H80292   0.401   2.256   8.533 -0.0313  2.2184 -0.4950
  595MOL0     H80293   0.465   2.191   8.283 -0.0525 -1.2961  0.8975
  595MOL0     H80294   0.292   2.186   8.253 -1.5913  1.0370  1.7290
  595MOL0     H80295   0.474   2.416   8.292 -0.4379  0.2312 -1.0183
  595MOL0     H80296   0.307   2.440   8.364 -1.8164 -0.9681  0.2069
  595MOL0     H80297   0.333   2.353   8.065 -0.9339  0.0381 -1.0780
  595MOL0     H80298   0.199   2.413   8.161  0.1578  2.0930  1.0813
  595MOL0     H80299   0.394   2.557   8.027  2.1220  1.1162  2.0418
  595MOL0     H80300   0.407   2.612   8.180  2.2672 -0.7963 -0.8255
  595MOL0     H80301   0.143   2.598   8.017 -0.2706 -1.6962  0.1514
  595MOL0     H80302   0.156   2.661   8.183  0.9084  0.4477  0.4112
  595MOL0     H80303   0.221   2.811   7.950  4.5219  0.8677 -2.0809
  595MOL0     H80304   0.376   2.752   8.012 -0.3604 -2.0499  1.9231
  595MOL0     H80305   0.300   2.851   8.242  3.5091  4.6942  0.6066
  595MOL0     H80306   0.155   2.908   8.160 -0.2549 -0.9226  0.1593
  595MOL0     H80307   0.312   1.814   8.382  0.2319  0.0525 -2.3618
  595MOL0     H80308   0.487   1.646   8.385 -0.1826  1.0347 -0.5124
  595MOL0     H80309   0.794   1.505   8.036  0.8028  1.9885 -1.9302
  595MOL0     H80310   0.986   1.395   7.949  0.8009  1.4292 -1.3705
  595MOL0     H80311   2.765   1.615   7.960  4.5751 -0.6442 -0.9529
  595MOL0     H80312   2.974   1.563   8.062 -1.0448  1.6698 -0.8084
  595MOL0     H80313   3.307   1.300   8.096  4.9026  1.0314 -2.6033
  595MOL0     H80314   3.525   1.327   8.119 -0.5418 -0.2384 -1.8041
  595MOL0     H80315   3.821   1.542   8.418  0.3498 -0.3675  0.0223
  595MOL0     H80316   3.670   1.617   8.455 -2.8677 -0.6666 -1.6904
  595MOL0     H80317   3.761   1.329   8.529  0.0228  0.9532 -1.0749
  595MOL0     H80318   3.608   1.400   8.593 -0.2589 -2.2124  0.0794
  595MOL0     H80319   3.721   1.550   8.743 -0.7389 -1.9832  2.4940
  595MOL0     H80320   3.877   1.541   8.655  0.6757  0.2953  1.6756
  595MOL0     H80321   3.746   1.312   8.816  2.7345 -1.4907  3.4000
  595MOL0     H80322   3.880   1.413   8.877  0.8825 -2.3099  1.5342
  595MOL0     H80323   4.047   1.124   8.624  0.7575 -1.1030  2.0395
  595MOL0     H80324   3.465   1.543   8.503 -1.1351  0.0767  1.0560
  595MOL0     H80325   3.211   1.523   8.459  0.7858  0.0570  0.6188
  596MOL0     O80326   0.118   2.179   9.574  0.6944  1.0778  0.5234
  596MOL0     C80327   0.197   2.245   9.509  0.8974 -0.9900 -0.2749
  596MOL0     O80328   0.305   2.305   9.560  0.0973 -0.8943 -0.3887
  596MOL0     C80329   0.306   2.343   9.693 -0.4719  0.7489  0.3044
  596MOL0     C80330   0.211   2.422   9.760  0.6755 -0.0666  0.3744
  596MOL0     C80331   0.196   2.431   9.896 -0.9388  0.5684 -0.0632
  596MOL0     C80332   0.303   2.384   9.973 -0.1782 -0.1627  0.0402
  596MOL0     O80333   0.299   2.386  10.112  0.5980 -0.5833 -0.1347
  596MOL0     C80334   0.232   2.497  10.176  1.1127 -0.1914  0.0539
  596MOL0     C80335   0.275   2.642  10.142  0.2606 -0.2461 -0.4781
  596MOL0     C80336   0.421   2.670  10.150 -0.3683 -0.1580  0.6936
  596MOL0     C80337   0.472   2.619  10.285 -0.4936 -0.9649  0.7344
  596MOL0     C80338   0.622   2.655  10.313 -0.1459 -0.2615 -0.6642
  596MOL0     C80339   0.713   2.570  10.221  1.3573 -0.9613 -0.2400
  596MOL0     C80340   0.860   2.600  10.256  0.4423  0.3387  0.1403
  596MOL0     C80341   0.953   2.520  10.157 -1.0200  0.8553 -0.7765
  596MOL0     N80342   1.087   2.563  10.189 -0.0077  0.1598  0.3752
  596MOL0     C80343   1.161   2.505  10.293 -0.1969  0.0342  0.3809
  596MOL0     C80344   1.275   2.582  10.294  0.3098  0.7438  0.4039
  596MOL0     C80345   1.395   2.544  10.372 -0.1736 -0.3501  0.4967
  596MOL0     C80346   1.429   2.611  10.498 -0.3270 -0.3216 -0.0043
  596MOL0     C80347   1.304   2.611  10.602 -0.7322  0.7801 -0.0663
  596MOL0     C80348   1.302   2.491  10.689 -0.1416  0.0389  0.1893
  596MOL0     O80349   1.235   2.385  10.614 -0.0398  0.3246  0.1722
  596MOL0     C80350   1.128   2.343  10.683 -0.1755  0.6018  0.5831
  596MOL0     C80351   1.004   2.365  10.625  0.2390 -0.2423 -0.2521
  596MOL0     C80352   0.883   2.327  10.690 -0.2437  0.3835 -0.3926
  596MOL0     C80353   0.761   2.340  10.607  0.2802  0.5495  0.0341
  596MOL0     C80354   0.889   2.283  10.819  0.1716  0.8918 -0.1783
  596MOL0     C80355   0.762   2.271  10.897 -0.1050  0.5589  0.4868
  596MOL0     O80356   0.721   2.155  10.953 -0.1335  0.6596 -0.7097
  596MOL0     C80357   0.603   2.154  11.029  0.2190 -0.4715 -0.2291
  596MOL0     C80358   0.600   2.094  11.154  0.7380  0.3068 -0.0152
  596MOL0     C80359   0.481   2.076  11.221  0.0154 -0.6151 -0.6107
  596MOL0     C80360   0.357   2.118  11.159 -0.6029  0.2582  0.1728
  596MOL0     O80361   0.230   2.098  11.211 -0.2937 -0.1738  0.3895
  596MOL0     C80362   0.210   2.124  11.352 -0.1911 -0.1750 -0.4075
  596MOL0     C80363   0.063   2.107  11.402  0.1447  0.1353  0.0803
  596MOL0     C80364   0.005   1.961  11.391 -0.0320  0.4200  0.3791
  596MOL0     C80365  -0.152   1.969  11.403 -1.1123  0.7303 -0.2340
  596MOL0     C80366  -0.227   1.837  11.372  0.3541 -0.1267 -0.3840
  596MOL0     C80367  -0.372   1.824  11.423  0.2489  1.5882  1.8122
  596MOL0     C80368  -0.431   1.682  11.392  0.4810 -0.1727  0.4390
  596MOL0     C80369  -0.576   1.677  11.439 -0.7705 -0.2436 -0.0042
  596MOL0    Cl80370  -0.652   1.515  11.411  0.4553 -0.3692 -0.0319
  596MOL0     C80371   0.358   2.189  11.035 -0.7359  0.5026  0.3987
  596MOL0     C80372   0.483   2.208  10.974  0.9553 -0.9503 -0.1113
  596MOL0     O80373   0.703   2.376  10.905  0.8110  0.2352 -0.3358
  596MOL0     C80374   1.013   2.257  10.877  0.4941  0.1986  0.3874
  596MOL0     C80375   1.132   2.277  10.807  0.4884  0.0188 -0.9409
  596MOL0     N80376   1.263   2.674  10.191 -0.2317 -0.5966 -0.8815
  596MOL0     N80377   1.145   2.673  10.137 -0.5836 -0.5357 -0.4212
  596MOL0     C80378   0.405   2.302   9.916  0.5877 -0.8751  0.3283
  596MOL0     C80379   0.406   2.286   9.778  0.8634 -0.9282  0.3404
  596MOL0     C80380   0.193   2.221   9.363 -0.1957  0.0044  0.3253
  596MOL0     C80381   0.073   2.175   9.301  0.0530  0.1628 -0.2767
  596MOL0     C80382   0.075   2.145   9.172 -0.2237  1.4242 -0.3564
  596MOL0     C80383   0.181   2.179   9.090 -0.1947  0.2838  0.2886
  596MOL0     O80384   0.191   2.177   8.954 -0.1384 -0.0357  0.7420
  596MOL0     C80385   0.108   2.086   8.880  0.3584  0.4774  0.1118
  596MOL0     C80386   0.181   1.951   8.898  0.2466  0.1365  1.0397
  596MOL0     C80387   0.155   1.876   8.761  0.5602  0.1485 -0.1505
  596MOL0     C80388   0.206   1.735   8.743 -0.9315  0.3313  0.3206
  596MOL0     C80389   0.156   1.673   8.623  1.0165 -0.4056 -1.1115
  596MOL0     C80390   0.112   1.620   8.521 -0.3040  0.1162  0.3989
  596MOL0     C80391   0.294   2.235   9.148  0.5933  0.0480 -0.5512
  596MOL0     C80392   0.306   2.257   9.285  0.0817 -0.4803  0.4030
  596MOL0     H80393   0.128   2.455   9.698  0.0857 -0.2366  1.0644
  596MOL0     H80394   0.108   2.468   9.948  0.1196 -0.4177  2.6187
  596MOL0     H80395   0.123   2.490  10.165  0.7767 -0.4982  2.7868
  596MOL0     H80396   0.251   2.474  10.281  1.1511 -3.8472 -0.6103
  596MOL0     H80397   0.237   2.665  10.042  1.7134  0.2080 -0.9515
  596MOL0     H80398   0.217   2.704  10.211  0.5216 -3.6869  3.1985
  596MOL0     H80399   0.477   2.634  10.063  0.9058  0.6799  1.1483
  596MOL0     H80400   0.427   2.779  10.154 -0.0922 -0.2214  2.7070
  596MOL0     H80401   0.405   2.677  10.350 -1.3090 -2.6721  1.4686
  596MOL0     H80402   0.474   2.512  10.306  4.6417 -1.5244 -1.0462
  596MOL0     H80403   0.648   2.757  10.285 -1.8813  0.8284  1.3432
  596MOL0     H80404   0.652   2.652  10.419  3.2931 -0.7852 -1.5275
  596MOL0     H80405   0.704   2.461  10.222 -1.7266 -0.8106 -0.5644
  596MOL0     H80406   0.698   2.602  10.118  3.8900  0.6766 -0.1652
  596MOL0     H80407   0.873   2.707  10.237 -0.7244  0.4845  0.0985
  596MOL0     H80408   0.885   2.576  10.359  1.2827  2.2225  0.4223
  596MOL0     H80409   0.938   2.556  10.055  2.9678 -2.1824 -2.7080
  596MOL0     H80410   0.950   2.411  10.155 -1.9810  0.8137  0.8449
  596MOL0     H80411   1.130   2.415  10.345 -3.7843 -0.0996 -1.6079
  596MOL0     H80412   1.381   2.438  10.395  1.5134 -0.5895  0.5047
  596MOL0     H80413   1.471   2.566  10.296 -0.0912  1.8989  1.1790
  596MOL0     H80414   1.447   2.716  10.473 -0.1292 -0.2228  0.5377
  596MOL0     H80415   1.523   2.580  10.543  0.1425  1.9170  0.6604
  596MOL0     H80416   1.206   2.614  10.554 -1.5657 -1.3242  1.3692
  596MOL0     H80417   1.301   2.699  10.667 -0.8795  1.3255 -0.8038
  596MOL0     H80418   1.249   2.520  10.781  3.4603  0.3368  2.3739
  596MOL0     H80419   1.402   2.456  10.716 -0.6527 -2.9104 -1.3724
  596MOL0     H80420   0.987   2.404  10.525 -4.3369 -2.4692 -0.5982
  596MOL0     H80421   0.709   2.429  10.642  0.4881 -0.4812  3.2405
  596MOL0     H80422   0.787   2.368  10.504  0.7237  2.9962  0.7459
  596MOL0     H80423   0.707   2.245  10.612  0.9538  0.2095  1.4396
  596MOL0     H80424   0.693   2.055  11.194  1.4847 -3.8846 -4.8687
  596MOL0     H80425   0.481   2.025  11.317 -2.9004 -0.1819 -0.2825
  596MOL0     H80426   0.268   2.049  11.408 -4.3492 -4.0863 -0.7619
  596MOL0     H80427   0.239   2.223  11.388 -1.8917  0.1459  0.1332
  596MOL0     H80428   0.072   2.127  11.509  1.4816 -0.4554  0.0979
  596MOL0     H80429   0.003   2.180  11.347  1.8701  1.8790  0.4036
  596MOL0     H80430   0.052   1.886  11.456  0.7288  2.1609  1.9427
  596MOL0     H80431   0.028   1.925  11.291  0.9772  1.8776  0.0463
  596MOL0     H80432  -0.184   1.989  11.505 -2.1193 -3.4429  0.4339
  596MOL0     H80433  -0.182   2.058  11.346 -1.8203  1.9340  1.9156
  596MOL0     H80434  -0.178   1.755  11.425 -0.1219 -0.8031 -0.9495
  596MOL0     H80435  -0.227   1.804  11.267  0.6408 -2.6582  0.3298
  596MOL0     H80436  -0.369   1.842  11.531  3.8621 -1.8077  2.4946
  596MOL0     H80437  -0.432   1.899  11.372 -4.2298 -1.9354  1.2902
  596MOL0     H80438  -0.375   1.610  11.453 -0.5040  0.1241  1.7334
  596MOL0     H80439  -0.422   1.659  11.286  1.8030 -1.5891  0.8211
  596MOL0     H80440  -0.646   1.751  11.401 -0.0084 -0.3620 -1.7298
  596MOL0     H80441  -0.580   1.696  11.547  0.6644  3.3770 -0.4661
  596MOL0     H80442   0.263   2.219  10.991 -1.6128 -1.9469  0.5017
  596MOL0     H80443   0.479   2.258  10.878  3.9833  0.9864  0.6559
  596MOL0     H80444   1.019   2.222  10.980  0.4204 -0.9796  0.0092
  596MOL0     H80445   1.227   2.253  10.853  0.6205  3.0686  0.6310
  596MOL0     H80446   0.479   2.250   9.976  1.8499  1.0620  0.5421
  596MOL0     H80447   0.481   2.223   9.732  1.4370  0.8568 -1.2964
  596MOL0     H80448  -0.004   2.155   9.374  0.5620 -0.1603  0.1762
  596MOL0     H80449  -0.013   2.097   9.131  1.1909 -0.7574 -1.0419
  596MOL0     H80450   0.009   2.089   8.928  1.1142  3.9090  1.7350
  596MOL0     H80451   0.099   2.115   8.775  1.5608  2.0592  0.4026
  596MOL0     H80452   0.130   1.894   8.976 -1.2117 -1.0923 -0.7182
  596MOL0     H80453   0.290   1.960   8.906  0.7464  0.4720 -3.3037
  596MOL0     H80454   0.204   1.936   8.684 -1.5979  3.7565  1.0046
  596MOL0     H80455   0.046   1.869   8.749 -0.0341 -0.3572  4.1275
  596MOL0     H80456   0.178   1.680   8.834 -0.1594 -0.5323  0.0572
  596MOL0     H80457   0.315   1.735   8.746 -0.9129 -0.5847  0.1614
  596MOL0     H80458   0.076   1.589   8.425 -0.4327  2.7310 -0.4655
  596MOL0     H80459   0.374   2.278   9.089  0.1280  0.0612 -1.1859
  596MOL0     H80460   0.395   2.302   9.327  1.4788 -0.0953 -2.7380
  597MOL0     O80461   5.447   0.636   8.672 -0.4337  0.4663  0.3935
  597MOL0     C80462   5.419   0.695   8.564  0.4960  0.4827 -0.5867
  597MOL0     O80463   5.305   0.668   8.487 -0.5449 -0.0408 -0.0907
  597MOL0     C80464   5.223   0.565   8.524 -0.1932 -0.2382 -0.9565
  597MOL0     C80465   5.087   0.584   8.523 -0.4425  0.1873 -0.3678
  597MOL0     C80466   4.992   0.489   8.569 -0.0892 -0.0569  0.3178
  597MOL0     C80467   5.040   0.363   8.605 -0.6246  0.1160 -0.1890
  597MOL0     O80468   4.952   0.264   8.651 -0.5082  0.2483  0.4520
  597MOL0     C80469   4.900   0.188   8.540  0.0680  0.0797 -0.1197
  597MOL0     C80470   4.785   0.105   8.585 -0.4977 -0.2298 -0.7382
  597MOL0     C80471   4.704   0.046   8.472 -0.0045 -0.1016  0.3933
  597MOL0     C80472   4.584  -0.028   8.525  1.1882 -0.0530  0.1459
  597MOL0     C80473   4.515  -0.128   8.429 -0.0082 -0.1686 -0.7611
  597MOL0     C80474   4.433  -0.063   8.315 -0.2946  0.3521  0.6312
  597MOL0     C80475   4.375  -0.176   8.219  0.1830 -0.9344  0.2758
  597MOL0     C80476   4.283  -0.277   8.279  0.1972 -0.7234 -0.0675
  597MOL0     N80477   4.234  -0.378   8.183  0.3912 -0.7132  0.0014
  597MOL0     C80478   4.204  -0.363   8.055 -0.6268  0.2937  0.1408
  597MOL0     C80479   4.143  -0.480   8.018  0.4089 -0.3505 -0.6657
  597MOL0     C80480   4.079  -0.503   7.882  0.8793  0.6886 -0.3061
  597MOL0     C80481   3.944  -0.567   7.902  0.2579  0.4506  0.3939
  597MOL0     C80482   3.847  -0.545   7.784 -0.1538 -0.2339 -0.8446
  597MOL0     C80483   3.704  -0.570   7.833  0.2937 -0.1160 -0.2203
  597MOL0     O80484   3.636  -0.631   7.726 -0.3254 -0.0661 -0.5498
  597MOL0     C80485   3.502  -0.619   7.737  0.0889 -0.4504 -0.0228
  597MOL0     C80486   3.425  -0.662   7.843  0.9361  0.0387 -0.7356
  597MOL0     C80487   3.292  -0.638   7.859 -0.3752 -0.6512 -0.5270
  597MOL0     C80488   3.234  -0.706   7.982  1.1026  1.0177  0.0892
  597MOL0     C80489   3.220  -0.563   7.760 -0.3396  1.2325  0.4146
  597MOL0     C80490   3.071  -0.523   7.773 -0.7954  0.8744  0.0276
  597MOL0     O80491   3.008  -0.511   7.650  0.2757 -0.0437 -0.9578
  597MOL0     C80492   2.873  -0.523   7.655  0.8871  1.1526  0.0910
  597MOL0     C80493   2.804  -0.637   7.600 -0.5341 -0.3061 -0.5394
  597MOL0     C80494   2.661  -0.641   7.610 -0.3357  0.0821 -0.5365
  597MOL0     C80495   2.587  -0.539   7.680 -0.1042  0.3443  0.0894
  597MOL0     O80496   2.456  -0.532   7.717 -0.6048  0.2270 -0.1896
  597MOL0     C80497   2.371  -0.636   7.677  0.5296 -0.2665  0.6772
  597MOL0     C80498   2.272  -0.599   7.570  0.5395 -0.2771  0.0643
  597MOL0     C80499   2.155  -0.698   7.525 -0.3450  0.1059 -0.2919
  597MOL0     C80500   2.043  -0.623   7.460 -0.2185 -0.7779 -0.4300
  597MOL0     C80501   1.932  -0.713   7.406  0.6628 -0.1713 -0.2061
  597MOL0     C80502   1.835  -0.640   7.313  0.7118 -0.5269  0.0998
  597MOL0     C80503   1.750  -0.731   7.227 -0.6936  0.8001  0.3929
  597MOL0     C80504   1.679  -0.652   7.117 -0.8279  0.6539 -0.5578
  597MOL0    Cl80505   1.546  -0.547   7.185  0.1877  0.2836  0.0452
  597MOL0     C80506   2.657  -0.427   7.714  0.5216  0.9167 -0.5594
  597MOL0     C80507   2.795  -0.414   7.698  0.1000  0.4982 -0.0404
  597MOL0     O80508   3.018  -0.505   7.877 -0.3640 -0.3121 -0.1267
  597MOL0     C80509   3.297  -0.521   7.655  0.4059 -0.8538  1.1608
  597MOL0     C80510   3.431  -0.548   7.639 -0.3361  0.7345 -0.2781
  597MOL0     N80511   4.156  -0.569   8.127  0.1923 -0.0140 -0.0145
  597MOL0     N80512   4.211  -0.502   8.224 -0.2914  0.1223  0.2660
  597MOL0     C80513   5.175   0.337   8.613  0.0015 -0.0759 -0.2175
  597MOL0     C80514   5.267   0.440   8.570  0.3547  0.2311  0.2064
  597MOL0     C80515   5.499   0.806   8.521  0.0671  0.4460  0.6201
  597MOL0     C80516   5.492   0.826   8.381 -0.0520 -0.0650 -0.2059
  597MOL0     C80517   5.562   0.923   8.315  1.0271  0.6466 -0.2998
  597MOL0     C80518   5.644   1.007   8.388  0.0199  0.0247 -0.8799
  597MOL0     O80519   5.694   1.121   8.331 -0.6019 -0.4860  0.4516
  597MOL0     C80520   5.833   1.114   8.298  1.0483 -0.3032 -0.3900
  597MOL0     C80521   5.854   1.086   8.147 -0.4800  0.4091 -0.2211
  597MOL0     C80522   5.797   1.199   8.065  0.5954 -0.1523  0.6841
  597MOL0     C80523   5.805   1.166   7.919  0.3681 -0.4974  0.8474
  597MOL0     C80524   5.735   1.281   7.848 -0.0419  0.3623 -0.0494
  597MOL0     C80525   5.699   1.377   7.785 -0.1078  0.1500  0.8734
  597MOL0     C80526   5.645   0.996   8.530  0.2586  0.2209 -0.4462
  597MOL0     C80527   5.569   0.902   8.598  0.0240  0.7249 -0.0263
  597MOL0     H80528   5.041   0.679   8.494 -1.0296 -0.1723 -0.6362
  597MOL0     H80529   4.890   0.514   8.596 -0.2817 -2.2769  1.9349
  597MOL0     H80530   4.867   0.257   8.462 -0.9773 -0.5800 -0.2776
  597MOL0     H80531   4.973   0.122   8.492 -2.6811 -3.0518 -0.2861
  597MOL0     H80532   4.833   0.026   8.643  2.1840  1.1463 -0.9173
  597MOL0     H80533   4.722   0.160   8.655  1.6402 -0.1014  1.2007
  597MOL0     H80534   4.679   0.132   8.409 -0.9032 -0.9619 -0.4618
  597MOL0     H80535   4.759  -0.022   8.406 -1.8641 -0.4219 -0.9202
  597MOL0     H80536   4.624  -0.079   8.613  1.6607  3.3741  2.0811
  597MOL0     H80537   4.508   0.037   8.569 -0.9412 -1.6514 -1.0125
  597MOL0     H80538   4.582  -0.193   8.372 -1.6636 -0.7660 -2.1212
  597MOL0     H80539   4.441  -0.182   8.490 -0.7935 -0.0714 -1.5901
  597MOL0     H80540   4.348  -0.006   8.354 -2.6077 -2.1059 -0.4639
  597MOL0     H80541   4.499  -0.001   8.254 -2.5204  1.0098 -1.2589
  597MOL0     H80542   4.314  -0.125   8.144  0.7001 -1.8826 -0.8396
  597MOL0     H80543   4.450  -0.228   8.158 -0.5814 -0.5884 -1.0098
  597MOL0     H80544   4.203  -0.227   8.333  2.4662  1.2633  1.6996
  597MOL0     H80545   4.340  -0.320   8.362 -1.0495  0.7721  1.6441
  597MOL0     H80546   4.208  -0.265   8.008 -0.5732  1.2524  2.0611
  597MOL0     H80547   4.063  -0.403   7.840 -0.2120  1.8979  2.7559
  597MOL0     H80548   4.145  -0.569   7.825 -1.1097 -1.1226 -0.6568
  597MOL0     H80549   3.897  -0.526   7.992 -1.8675  1.6313 -1.1545
  597MOL0     H80550   3.959  -0.675   7.908  0.0834  0.4225  0.3397
  597MOL0     H80551   3.878  -0.609   7.701 -0.7813 -2.0104  0.2362
  597MOL0     H80552   3.866  -0.441   7.755 -0.7965  1.5891  4.2586
  597MOL0     H80553   3.661  -0.478   7.873  0.6261  1.1449 -2.5932
  597MOL0     H80554   3.713  -0.647   7.910 -1.4166 -0.5290 -0.3708
  597MOL0     H80555   3.476  -0.711   7.926  0.7820 -0.9277 -1.1912
  597MOL0     H80556   3.163  -0.636   8.028 -1.5261 -1.4474  0.0962
  597MOL0     H80557   3.180  -0.799   7.962  3.2359 -0.6175  1.4309
  597MOL0     H80558   3.314  -0.735   8.051  0.2667  0.3306  0.8037
  597MOL0     H80559   2.866  -0.712   7.551  1.0645  2.4971 -3.1717
  597MOL0     H80560   2.611  -0.723   7.560 -2.9631  2.2038 -1.6593
  597MOL0     H80561   2.425  -0.726   7.647  0.7086 -0.9841  2.9710
  597MOL0     H80562   2.314  -0.654   7.769 -0.8752  0.8499  0.0566
  597MOL0     H80563   2.220  -0.509   7.603  2.4555  0.6674  0.6663
  597MOL0     H80564   2.329  -0.589   7.477 -0.1800 -0.3411 -0.3917
  597MOL0     H80565   2.122  -0.757   7.611 -1.3613  2.0043  0.6885
  597MOL0     H80566   2.201  -0.766   7.454  2.2334  0.8089  0.6125
  597MOL0     H80567   1.999  -0.551   7.529 -0.4031  1.2929 -2.5846
  597MOL0     H80568   2.084  -0.559   7.382  0.9084 -0.9602 -0.0046
  597MOL0     H80569   1.877  -0.757   7.490  0.3582  0.3343 -0.1359
  597MOL0     H80570   1.981  -0.794   7.350  1.7042 -1.8175  2.8107
  597MOL0     H80571   1.778  -0.569   7.372 -0.2494  0.5342 -1.9754
  597MOL0     H80572   1.889  -0.571   7.247 -3.1180  1.7534 -0.9247
  597MOL0     H80573   1.674  -0.793   7.277 -2.7613  1.1589 -2.0635
  597MOL0     H80574   1.814  -0.800   7.172  0.5672  4.5557 -3.3472
  597MOL0     H80575   1.641  -0.723   7.043 -0.4680 -1.2525  1.0254
  597MOL0     H80576   1.755  -0.583   7.078 -0.2249  2.0066  2.6883
  597MOL0     H80577   2.604  -0.352   7.772  0.6203  0.2687  0.3818
  597MOL0     H80578   2.842  -0.321   7.727 -0.2074  0.6786 -0.1145
  597MOL0     H80579   3.250  -0.469   7.572 -0.1931 -1.5664  1.0411
  597MOL0     H80580   3.493  -0.512   7.557 -0.5918  0.6695 -0.5025
  597MOL0     H80581   5.217   0.241   8.641  0.8288  0.6040  1.0154
  597MOL0     H80582   5.372   0.411   8.575  0.3894  0.2867 -0.2076
  597MOL0     H80583   5.444   0.759   8.311 -1.2201 -0.1726  0.6680
  597MOL0     H80584   5.559   0.920   8.207 -0.5531 -2.0131 -0.2610
  597MOL0     H80585   5.887   1.202   8.334  0.1570  0.4681 -0.9077
  597MOL0     H80586   5.876   1.032   8.356 -1.5017 -1.7479 -0.3888
  597MOL0     H80587   5.797   0.993   8.142  1.9275 -1.4027  2.9490
  597MOL0     H80588   5.960   1.069   8.129 -0.6905 -3.4250  1.2961
  597MOL0     H80589   5.851   1.293   8.078 -0.2884  1.1321 -3.3389
  597MOL0     H80590   5.691   1.211   8.090  0.1847 -0.1716 -0.9000
  597MOL0     H80591   5.749   1.074   7.898 -3.0629  1.4917  0.5541
  597MOL0     H80592   5.907   1.174   7.880 -0.9163  2.7234 -2.3148
  597MOL0     H80593   5.638   1.452   7.738  0.9207 -0.7757 -2.1144
  597MOL0     H80594   5.699   1.073   8.583  0.7416 -0.3640 -0.0776
  597MOL0     H80595   5.576   0.903   8.707  1.9784  4.6441  0.0044
  598MOL0     O80596   4.404   6.594   7.638  0.2811 -0.4499  0.3749
  598MOL0     C80597   4.452   6.486   7.599 -0.8335  0.0547  0.8425
  598MOL0     O80598   4.480   6.463   7.468 -0.0201 -0.6908  0.0007
  598MOL0     C80599   4.431   6.548   7.378  0.3171  0.3819 -0.7412
  598MOL0     C80600   4.520   6.650   7.346 -0.3605  1.3076 -0.3463
  598MOL0     C80601   4.488   6.740   7.243  0.7698  0.5885 -0.2289
  598MOL0     C80602   4.378   6.723   7.161  0.4159 -0.0311 -0.7963
  598MOL0     O80603   4.340   6.806   7.056 -0.6474  0.0049 -0.4031
  598MOL0     C80604   4.448   6.895   7.021  0.5292  0.8070  0.3670
  598MOL0     C80605   4.395   6.964   6.900  0.0181 -0.1280 -0.1549
  598MOL0     C80606   4.299   7.071   6.935  0.0630 -0.5461  0.0073
  598MOL0     C80607   4.162   7.048   6.887  0.2383  0.0250  0.1771
  598MOL0     C80608   4.071   7.163   6.925  0.6096  0.5568  0.2326
  598MOL0     C80609   3.914   7.134   6.902 -0.1605  0.2251  0.1380
  598MOL0     C80610   3.823   7.248   6.929  0.6523 -0.2985 -0.3504
  598MOL0     C80611   3.677   7.205   6.910  0.3715 -0.3590  0.7109
  598MOL0     N80612   3.636   7.226   6.762 -0.8363  0.2273 -0.9219
  598MOL0     C80613   3.586   7.130   6.677  0.4656 -0.1951  1.0901
  598MOL0     C80614   3.547   7.202   6.566 -0.6365 -1.0058 -0.3401
  598MOL0     C80615   3.489   7.138   6.441  0.1637  0.0129 -0.0531
  598MOL0     C80616   3.333   7.125   6.446  0.1586 -0.6175  0.4628
  598MOL0     C80617   3.274   7.266   6.429 -0.1278  0.0344  0.5916
  598MOL0     C80618   3.125   7.280   6.440 -0.1238  0.1549 -0.0629
  598MOL0     O80619   3.054   7.202   6.537  0.5240  0.1851 -0.3065
  598MOL0     C80620   3.078   7.215   6.669 -0.5195 -1.3046  0.3561
  598MOL0     C80621   3.146   7.325   6.720  0.0638 -0.3483 -0.3129
  598MOL0     C80622   3.190   7.335   6.860 -0.0667 -0.0646  0.2247
  598MOL0     C80623   3.262   7.471   6.883  1.1633  0.5102  0.0637
  598MOL0     C80624   3.143   7.241   6.955 -0.6114 -0.1829 -0.2945
  598MOL0     C80625   3.179   7.226   7.094  0.0963  0.4214  0.6213
  598MOL0     O80626   3.081   7.185   7.184  0.0402  0.2134  0.2272
  598MOL0     C80627   3.125   7.155   7.312 -0.2282  0.1525  0.0196
  598MOL0     C80628   3.150   7.262   7.405 -0.6951  0.2314 -0.6099
  598MOL0     C80629   3.193   7.234   7.528 -0.0021  0.7640 -1.3586
  598MOL0     C80630   3.188   7.105   7.587  0.4015 -0.5357 -0.2798
  598MOL0     O80631   3.210   7.085   7.717  0.6185  0.0196  0.2865
  598MOL0     C80632   3.319   7.004   7.759  0.4976 -0.2098 -0.4677
  598MOL0     C80633   3.309   6.994   7.910 -1.0011 -0.3832  0.0410
  598MOL0     C80634   3.190   6.908   7.951  0.4205  0.4394  0.3689
  598MOL0     C80635   3.195   6.894   8.107  0.5700  1.1872  1.0061
  598MOL0     C80636   3.105   6.772   8.148 -1.0292  0.2399 -0.4317
  598MOL0     C80637   2.960   6.822   8.163  0.8614  0.2569 -0.5871
  598MOL0     C80638   2.870   6.804   8.038 -0.3444 -0.8113  0.1568
  598MOL0     C80639   2.780   6.920   7.996  0.2901  0.8600 -0.7600
  598MOL0    Cl80640   2.653   6.967   8.115  0.4530 -0.1025 -0.0671
  598MOL0     C80641   3.173   6.999   7.495 -0.2772 -0.4010  0.2577
  598MOL0     C80642   3.147   7.019   7.353 -0.2849  0.2906 -0.4580
  598MOL0     O80643   3.293   7.264   7.130 -0.2317 -0.1475 -0.2299
  598MOL0     C80644   3.055   7.145   6.903 -0.5867  0.5154  0.1866
  598MOL0     C80645   3.035   7.126   6.766 -0.3334  0.5642 -0.1455
  598MOL0     N80646   3.567   7.342   6.594 -0.7697  0.6353  0.5111
  598MOL0     N80647   3.619   7.350   6.713 -0.3235  0.2527 -0.1389
  598MOL0     C80648   4.302   6.618   7.186  0.0836  0.0693 -0.1080
  598MOL0     C80649   4.323   6.531   7.297 -0.4410  1.1182 -0.8683
  598MOL0     C80650   4.507   6.396   7.707  0.4012  0.4634 -0.3153
  598MOL0     C80651   4.511   6.451   7.836 -0.8221  0.2318 -0.9644
  598MOL0     C80652   4.564   6.379   7.949  0.1791  0.2132  0.6448
  598MOL0     C80653   4.607   6.246   7.933  0.2028  0.5153  0.1825
  598MOL0     O80654   4.655   6.159   8.028  0.1378  0.1195 -0.5712
  598MOL0     C80655   4.687   6.212   8.160 -0.7478  0.4624 -0.8182
  598MOL0     C80656   4.834   6.232   8.171 -0.6691  0.7042 -0.5073
  598MOL0     C80657   4.920   6.099   8.164 -0.0124 -0.5086  0.5617
  598MOL0     C80658   5.073   6.138   8.174  0.1743 -0.4430 -0.3953
  598MOL0     C80659   5.153   6.015   8.182  0.9552 -0.4210  0.4601
  598MOL0     C80660   5.206   5.905   8.185  0.7986  0.0793  0.2740
  598MOL0     C80661   4.598   6.185   7.805  0.8412 -0.9828  0.9735
  598MOL0     C80662   4.555   6.263   7.692  0.6737 -0.9593  0.5201
  598MOL0     H80663   4.615   6.647   7.398 -1.2318 -0.5817  1.2888
  598MOL0     H80664   4.556   6.825   7.243  0.5421  0.7928 -1.3441
  598MOL0     H80665   4.473   6.968   7.099 -1.5605  1.4843  0.4748
  598MOL0     H80666   4.537   6.837   6.995 -0.0011  0.5958 -1.0480
  598MOL0     H80667   4.485   7.014   6.864  0.6754 -0.1238  1.3914
  598MOL0     H80668   4.357   6.895   6.824 -0.3700 -1.3198  1.0752
  598MOL0     H80669   4.308   7.093   7.042  0.7477  0.4818 -0.2435
  598MOL0     H80670   4.349   7.153   6.884  3.7293 -2.5912 -0.0261
  598MOL0     H80671   4.180   7.030   6.781 -0.0626 -0.2300  0.1637
  598MOL0     H80672   4.122   6.956   6.931 -2.6872  1.3072  0.4100
  598MOL0     H80673   4.078   7.202   7.027  0.5001  1.9425 -0.2613
  598MOL0     H80674   4.104   7.244   6.860 -0.1793  0.7757  0.0923
  598MOL0     H80675   3.896   7.100   6.799  3.1994 -3.7090  0.5998
  598MOL0     H80676   3.883   7.048   6.963 -1.1901  1.1465  0.9602
  598MOL0     H80677   3.829   7.274   7.034 -0.1097  1.9057 -0.8127
  598MOL0     H80678   3.853   7.334   6.869  3.5288 -1.4437 -0.7416
  598MOL0     H80679   3.625   7.278   6.972 -2.0294 -1.4066  0.0384
  598MOL0     H80680   3.666   7.100   6.936  0.6483 -0.3065  1.0484
  598MOL0     H80681   3.594   7.022   6.674  1.5463 -0.1575 -2.9788
  598MOL0     H80682   3.519   7.209   6.364 -1.8563  1.6904  0.5858
  598MOL0     H80683   3.535   7.041   6.425 -1.2644 -0.4227 -1.7136
  598MOL0     H80684   3.306   7.072   6.538 -0.7020 -1.1128 -0.0631
  598MOL0     H80685   3.307   7.055   6.367 -0.3094 -2.4873  2.1988
  598MOL0     H80686   3.303   7.310   6.333  1.8897 -2.0454  0.1805
  598MOL0     H80687   3.314   7.329   6.509  1.9958  0.7471 -0.9602
  598MOL0     H80688   3.087   7.249   6.342 -0.6784 -0.6031  0.3788
  598MOL0     H80689   3.090   7.384   6.439  0.8499  0.4924 -0.7911
  598MOL0     H80690   3.153   7.412   6.656 -1.5691 -0.6355 -0.9324
  598MOL0     H80691   3.331   7.465   6.968  0.0258 -1.0722  0.9349
  598MOL0     H80692   3.315   7.498   6.792 -0.8629 -1.0366 -1.6633
  598MOL0     H80693   3.185   7.543   6.912 -0.7997 -0.3972 -2.5391
  598MOL0     H80694   3.134   7.368   7.387 -1.1121  0.9031  2.9725
  598MOL0     H80695   3.234   7.309   7.595  3.2388 -1.1494 -1.0004
  598MOL0     H80696   3.318   6.908   7.705  1.8003 -0.8194  0.5391
  598MOL0     H80697   3.413   7.055   7.738 -0.3107  1.6814  0.3131
  598MOL0     H80698   3.405   6.945   7.932 -0.9846 -0.4561 -0.1948
  598MOL0     H80699   3.314   7.091   7.960  0.0798  0.1288 -1.0016
  598MOL0     H80700   3.209   6.813   7.902  1.6246  0.7097  0.2991
  598MOL0     H80701   3.099   6.954   7.911  1.8936  0.5322 -3.2947
  598MOL0     H80702   3.298   6.869   8.133  2.0381  2.2635 -3.0301
  598MOL0     H80703   3.164   6.989   8.152 -0.3051 -0.4236  4.0962
  598MOL0     H80704   3.145   6.740   8.244  3.5662  0.6336 -1.9692
  598MOL0     H80705   3.112   6.692   8.074 -1.6782 -0.6582  0.4581
  598MOL0     H80706   2.914   6.775   8.251 -0.6386  2.0085 -0.3700
  598MOL0     H80707   2.961   6.930   8.179  2.4561  0.0761  0.8764
  598MOL0     H80708   2.800   6.721   8.054 -0.5627 -0.9193 -1.2273
  598MOL0     H80709   2.934   6.788   7.951 -1.2486  0.5325 -0.7973
  598MOL0     H80710   2.722   6.879   7.912  1.2695 -1.0378 -0.5573
  598MOL0     H80711   2.842   7.005   7.965  0.2014  0.5200 -1.9382
  598MOL0     H80712   3.168   6.898   7.534 -0.3331  0.0051  1.3430
  598MOL0     H80713   3.139   6.934   7.285  2.0653 -0.8542  0.5765
  598MOL0     H80714   3.012   7.074   6.972  0.0558 -0.1580 -0.0890
  598MOL0     H80715   2.978   7.042   6.729  0.1931  0.3331 -0.4420
  598MOL0     H80716   4.214   6.591   7.128 -1.0130 -1.0891  2.0044
  598MOL0     H80717   4.256   6.446   7.308 -0.1889  0.8103 -1.6206
  598MOL0     H80718   4.488   6.555   7.854  2.4102  1.0250 -0.8243
  598MOL0     H80719   4.577   6.439   8.038 -0.7105  0.9370  0.3011
  598MOL0     H80720   4.642   6.308   8.185 -1.4579  0.3955 -1.7889
  598MOL0     H80721   4.665   6.132   8.232  1.2449 -0.2937 -0.9826
  598MOL0     H80722   4.859   6.283   8.264 -0.7297  0.4518 -0.3517
  598MOL0     H80723   4.871   6.310   8.103  2.2510  0.8701  1.1081
  598MOL0     H80724   4.900   6.057   8.065 -0.8434 -0.4305  0.6866
  598MOL0     H80725   4.898   6.028   8.245  1.9410 -1.4948  0.2879
  598MOL0     H80726   5.101   6.201   8.259 -2.2232  0.7308 -0.4030
  598MOL0     H80727   5.110   6.183   8.081  4.7648 -0.9228  0.9254
  598MOL0     H80728   5.257   5.810   8.189  1.0784  0.2551  1.0753
  598MOL0     H80729   4.629   6.082   7.790  0.1831 -1.2766  1.5473
  598MOL0     H80730   4.541   6.206   7.601 -1.2792 -0.9348  0.7612
  599MOL0     O80731   9.602   0.664  10.481 -0.1137 -0.3718 -0.5910
  599MOL0     C80732   9.693   0.713  10.413  0.2117  0.1541 -0.3053
  599MOL0     O80733   9.679   0.787  10.300 -0.4834 -0.2386  0.1009
  599MOL0     C80734   9.551   0.812  10.252 -0.8963 -0.9402  0.0991
  599MOL0     C80735   9.537   0.799  10.110 -0.5820 -0.3753 -0.2243
  599MOL0     C80736   9.414   0.825  10.052 -0.8805 -0.0896  0.6518
  599MOL0     C80737   9.292   0.841  10.128 -0.3907  0.2373  0.8593
  599MOL0     O80738   9.176   0.850  10.059 -0.2219 -0.8660 -0.0807
  599MOL0     C80739   9.068   0.938  10.114 -0.9417  0.5592  1.3199
  599MOL0     C80740   8.961   0.951  10.005 -0.1316 -1.0651 -0.1788
  599MOL0     C80741   8.916   0.828   9.930  0.2158 -0.0066  0.5471
  599MOL0     C80742   8.795   0.877   9.847  0.0901  0.4163 -1.1228
  599MOL0     C80743   8.719   0.756   9.797 -0.2833  0.0223 -0.8049
  599MOL0     C80744   8.618   0.771   9.681 -0.0907  1.0601  0.1048
  599MOL0     C80745   8.501   0.871   9.708 -0.3186 -0.3360  0.7961
  599MOL0     C80746   8.413   0.854   9.835 -1.1333 -0.2113  0.3640
  599MOL0     N80747   8.357   0.724   9.835  0.5588  0.5910  0.4583
  599MOL0     C80748   8.227   0.687   9.797 -0.3025  0.0838 -0.7518
  599MOL0     C80749   8.234   0.548   9.823  1.3724  1.2214 -1.1690
  599MOL0     C80750   8.112   0.458   9.827 -0.0841  0.2823 -0.1319
  599MOL0     C80751   8.128   0.329   9.746 -0.1840 -0.0016  0.1874
  599MOL0     C80752   8.162   0.345   9.598  0.3228 -0.8962 -0.8072
  599MOL0     C80753   8.053   0.407   9.520  0.5061 -0.0179  0.2860
  599MOL0     O80754   8.093   0.438   9.383  0.6350 -0.1236  0.6520
  599MOL0     C80755   8.069   0.348   9.284  0.2987  0.3226 -0.1829
  599MOL0     C80756   8.152   0.244   9.266 -0.1083 -0.1785 -0.1087
  599MOL0     C80757   8.144   0.152   9.155  0.9627  0.5117  0.5333
  599MOL0     C80758   8.253   0.056   9.133  0.0441 -0.2188 -1.2682
  599MOL0     C80759   8.041   0.167   9.067  0.2952 -1.0196  0.8130
  599MOL0     C80760   8.027   0.081   8.942 -0.1306  0.5775  0.1503
  599MOL0     O80761   7.921   0.128   8.871  0.0065  0.0796 -0.0833
  599MOL0     C80762   7.873   0.054   8.760 -0.0370  0.2993  0.0672
  599MOL0     C80763   7.947   0.049   8.644  0.1243 -0.0153 -0.3079
  599MOL0     C80764   7.897  -0.021   8.534 -0.5605  1.0728  0.7104
  599MOL0     C80765   7.764  -0.076   8.534  0.0109  0.3641  1.1375
  599MOL0     O80766   7.699  -0.111   8.419 -0.1075  0.8131  0.6548
  599MOL0     C80767   7.630  -0.238   8.416  0.1127 -0.3168 -0.7623
  599MOL0     C80768   7.603  -0.285   8.269 -0.1688  0.8340  0.3546
  599MOL0     C80769   7.569  -0.186   8.163 -0.7097 -1.9056  0.0947
  599MOL0     C80770   7.498  -0.235   8.036  0.3250 -0.9140  0.0875
  599MOL0     C80771   7.411  -0.120   7.976  0.8203 -0.4287  0.6074
  599MOL0     C80772   7.292  -0.161   7.886 -0.1850 -0.0550  0.2713
  599MOL0     C80773   7.173  -0.064   7.884  0.6090 -0.4054 -0.5454
  599MOL0     C80774   7.088  -0.086   8.010 -0.4373 -0.4491 -0.1003
  599MOL0    Cl80775   7.016  -0.251   7.997 -0.0284 -0.1953  0.1613
  599MOL0     C80776   7.698  -0.076   8.652  0.2923  0.4850 -0.9940
  599MOL0     C80777   7.748  -0.004   8.760 -0.3833 -1.0327 -0.7573
  599MOL0     O80778   8.085  -0.024   8.919  0.1093 -0.7086  0.0571
  599MOL0     C80779   7.945   0.272   9.091 -0.2025  0.0837  0.2419
  599MOL0     C80780   7.960   0.361   9.201 -0.2200  0.6867 -0.5697
  599MOL0     N80781   8.356   0.507   9.866 -0.2980 -0.1175  0.2811
  599MOL0     N80782   8.428   0.612   9.870  0.8052 -0.2749 -0.1021
  599MOL0     C80783   9.311   0.856  10.267  0.9989  0.1408  0.4850
  599MOL0     C80784   9.442   0.846  10.327  0.4225 -0.1930 -0.3967
  599MOL0     C80785   9.831   0.677  10.441 -0.1254  0.0576 -0.2990
  599MOL0     C80786   9.865   0.583  10.544  0.3177  0.3196  0.4969
  599MOL0     C80787   9.989   0.538  10.571 -0.5599  0.2770  0.1217
  599MOL0     C80788  10.091   0.576  10.485  0.5556 -0.0847 -0.0385
  599MOL0     O80789  10.223   0.551  10.505  0.0782 -0.4386 -0.3039
  599MOL0     C80790  10.268   0.477  10.628 -0.0028 -0.0365 -0.4553
  599MOL0     C80791  10.418   0.461  10.636  0.2439  0.1718  0.8785
  599MOL0     C80792  10.478   0.596  10.639 -0.6412  0.3257 -0.1158
  599MOL0     C80793  10.618   0.589  10.567 -0.8895 -0.2958 -0.3599
  599MOL0     C80794  10.707   0.491  10.635 -0.1777  0.1462  0.3012
  599MOL0     C80795  10.778   0.407  10.687 -0.0708  0.6667  0.2518
  599MOL0     C80796  10.067   0.672  10.385  0.5925  0.5990  0.8302
  599MOL0     C80797   9.935   0.716  10.352 -0.1947 -0.1323 -0.1955
  599MOL0     H80798   9.625   0.785  10.047  0.8124  0.5922  1.4365
  599MOL0     H80799   9.404   0.815   9.945 -1.0220 -0.2966  0.6828
  599MOL0     H80800   9.022   0.891  10.202 -1.8943  2.4011  1.8618
  599MOL0     H80801   9.103   1.037  10.146 -1.0953  0.5948  1.3762
  599MOL0     H80802   8.875   0.994  10.058 -2.5402 -1.5308 -3.3657
  599MOL0     H80803   9.007   1.021   9.935  0.6483  0.2427  1.5697
  599MOL0     H80804   8.994   0.781   9.870 -0.6273 -1.5484  0.6200
  599MOL0     H80805   8.876   0.748   9.992 -5.5866  0.6014 -1.7913
  599MOL0     H80806   8.731   0.933   9.917  1.6926 -0.0588  0.8070
  599MOL0     H80807   8.826   0.952   9.774  0.3513 -0.0602 -1.5061
  599MOL0     H80808   8.788   0.685   9.749 -3.5512 -3.4218 -0.8938
  599MOL0     H80809   8.684   0.706   9.888  0.4676  3.1496  1.3608
  599MOL0     H80810   8.673   0.798   9.590  0.2841 -1.8713 -0.6146
  599MOL0     H80811   8.576   0.675   9.650 -1.1066  1.3525  0.5281
  599MOL0     H80812   8.532   0.976   9.714 -1.2515 -0.0308  0.4972
  599MOL0     H80813   8.435   0.862   9.622 -1.2644 -1.2066  1.5861
  599MOL0     H80814   8.336   0.932   9.835 -2.1413 -1.0459 -2.8766
  599MOL0     H80815   8.480   0.857   9.922  2.9116 -1.4443 -2.4209
  599MOL0     H80816   8.151   0.757   9.764 -0.7315  1.0590  2.0372
  599MOL0     H80817   8.081   0.438   9.930 -0.5514 -0.8070 -0.4733
  599MOL0     H80818   8.031   0.519   9.786 -1.6030 -2.0160 -0.7782
  599MOL0     H80819   8.035   0.274   9.766  0.1668  0.6468  4.8065
  599MOL0     H80820   8.203   0.266   9.794  0.1659  0.2274 -0.0558
  599MOL0     H80821   8.195   0.248   9.561  2.1881 -0.7476  0.3570
  599MOL0     H80822   8.255   0.401   9.584 -0.0149 -0.2195 -0.3760
  599MOL0     H80823   8.039   0.500   9.576  0.3330 -0.1853  0.5220
  599MOL0     H80824   7.959   0.352   9.522  0.2112  0.4985  1.2590
  599MOL0     H80825   8.237   0.230   9.333  0.0063 -4.0365 -0.8440
  599MOL0     H80826   8.338   0.083   9.196 -1.3113  0.0437  0.5570
  599MOL0     H80827   8.221  -0.041   9.172  1.8002 -0.7010 -0.9742
  599MOL0     H80828   8.281   0.043   9.028 -1.1098 -5.4011 -1.1689
  599MOL0     H80829   8.045   0.095   8.645  1.4840 -2.6425 -1.7940
  599MOL0     H80830   7.957  -0.025   8.443  0.1978 -1.2914  1.2506
  599MOL0     H80831   7.691  -0.315   8.462 -0.3099  0.7968  1.8343
  599MOL0     H80832   7.536  -0.243   8.472  0.3874 -0.4732 -0.3154
  599MOL0     H80833   7.701  -0.324   8.238  0.5854  1.0925  2.2416
  599MOL0     H80834   7.520  -0.356   8.263 -1.4837  2.0986  2.3223
  599MOL0     H80835   7.653  -0.124   8.129 -2.1277  1.5008  2.2322
  599MOL0     H80836   7.509  -0.110   8.215  4.1846  3.4129 -0.9080
  599MOL0     H80837   7.572  -0.259   7.958 -0.5146  2.9420 -2.1893
  599MOL0     H80838   7.435  -0.323   8.052 -1.1527 -0.1753 -1.3158
  599MOL0     H80839   7.473  -0.051   7.918  0.2139 -0.3811 -0.0076
  599MOL0     H80840   7.362  -0.060   8.054  0.7118 -0.2717  0.4228
  599MOL0     H80841   7.321  -0.193   7.785 -0.9242 -1.4217  0.4696
  599MOL0     H80842   7.264  -0.261   7.922  1.3321 -0.3761  0.6655
  599MOL0     H80843   7.112  -0.079   7.795  0.3680  0.5532 -0.5554
  599MOL0     H80844   7.212   0.038   7.885 -0.3587 -0.0206  0.5647
  599MOL0     H80845   7.022   0.001   8.022  1.8026  1.3535 -0.2200
  599MOL0     H80846   7.155  -0.085   8.097 -0.2426  0.2979 -0.2507
  599MOL0     H80847   7.603  -0.129   8.663  0.6929 -1.0950 -3.9927
  599MOL0     H80848   7.692   0.010   8.852  1.2254 -0.5964  0.2156
  599MOL0     H80849   7.869   0.292   9.016 -2.7571 -2.2676  2.0231
  599MOL0     H80850   7.898   0.449   9.215 -1.2641 -0.2666  1.1603
  599MOL0     H80851   9.229   0.900  10.323 -0.6936  0.6887 -2.2337
  599MOL0     H80852   9.440   0.878  10.431 -0.8502  1.3327 -0.8357
  599MOL0     H80853   9.785   0.541  10.605  2.3172 -3.5796  0.7559
  599MOL0     H80854  10.009   0.470  10.653  1.8610 -0.7660 -1.2190
  599MOL0     H80855  10.234   0.507  10.727 -0.6298 -4.7947  1.0482
  599MOL0     H80856  10.219   0.380  10.610  0.4491 -0.2613 -0.4689
  599MOL0     H80857  10.462   0.400  10.557 -0.9850 -2.1188  1.8348
  599MOL0     H80858  10.433   0.404  10.729  0.2497 -0.6299  0.4010
  599MOL0     H80859  10.499   0.633  10.740  1.4573 -1.1554  0.0457
  599MOL0     H80860  10.417   0.666  10.581 -0.4712 -0.0845 -0.7928
  599MOL0     H80861  10.673   0.681  10.545 -2.3386  0.2045 -2.0918
  599MOL0     H80862  10.611   0.561  10.462  1.7281  0.4181 -0.7907
  599MOL0     H80863  10.826   0.318  10.723  0.1461  0.6853  0.0124
  599MOL0     H80864  10.149   0.702  10.319  1.7981  1.0146  2.4452
  599MOL0     H80865   9.922   0.777  10.262 -0.1529  0.1128 -0.0357
  600MOL0     O80866   4.764   1.723   7.142 -0.2247  0.2956 -0.1395
  600MOL0     C80867   4.688   1.663   7.061 -0.0086 -0.3566  0.7121
  600MOL0     O80868   4.691   1.688   6.917 -0.2584  0.2020 -0.0098
  600MOL0     C80869   4.793   1.752   6.858 -0.8304 -0.5462  0.1139
  600MOL0     C80870   4.759   1.809   6.735 -0.0398 -1.0536 -0.9524
  600MOL0     C80871   4.849   1.883   6.659  0.7540  0.2505 -0.5067
  600MOL0     C80872   4.973   1.902   6.704 -0.5994 -0.6518 -0.8903
  600MOL0     O80873   5.052   1.982   6.636  0.3259  0.0302 -0.5535
  600MOL0     C80874   5.196   1.966   6.646 -0.1203 -0.7229  0.6992
  600MOL0     C80875   5.269   2.043   6.532  0.5287  0.3001  0.1923
  600MOL0     C80876   5.257   2.195   6.548  0.3138 -0.3613  0.3018
  600MOL0     C80877   5.400   2.253   6.532 -0.5568 -0.4529  1.1082
  600MOL0     C80878   5.393   2.409   6.498 -0.4506  0.1042  0.8123
  600MOL0     C80879   5.297   2.492   6.586 -0.0046  1.0324  0.5073
  600MOL0     C80880   5.312   2.642   6.553 -0.6030 -0.4104  0.3507
  600MOL0     C80881   5.242   2.722   6.667  0.2775  0.3523  0.8212
  600MOL0     N80882   5.191   2.851   6.615 -0.1020  0.2353  0.7077
  600MOL0     C80883   5.071   2.864   6.549 -0.6194  0.3320 -0.3947
  600MOL0     C80884   5.048   2.998   6.553 -0.6583 -0.5065  0.3092
  600MOL0     C80885   4.934   3.079   6.503 -0.2981  0.6249  0.4595
  600MOL0     C80886   4.899   3.034   6.357  0.2649 -0.7821 -0.3044
  600MOL0     C80887   4.762   3.096   6.306 -0.0695  0.1940 -0.2600
  600MOL0     C80888   4.716   3.050   6.173  0.1273 -0.0163  0.9832
  600MOL0     O80889   4.660   2.921   6.185  0.2954 -0.3034  0.4574
  600MOL0     C80890   4.534   2.916   6.140  0.1070 -0.0688 -0.5772
  600MOL0     C80891   4.498   2.880   6.014 -0.2314 -0.5259 -1.4098
  600MOL0     C80892   4.368   2.884   5.975 -0.1282 -0.0734 -1.5264
  600MOL0     C80893   4.351   2.840   5.830 -0.1105 -0.0598 -0.6230
  600MOL0     C80894   4.273   2.932   6.069 -0.8814  0.0424  1.1343
  600MOL0     C80895   4.138   2.960   6.025  0.3198 -0.0597  0.8205
  600MOL0     O80896   4.029   2.935   6.110 -0.0294 -0.1060  0.3602
  600MOL0     C80897   3.903   2.921   6.061 -0.2954  0.5548  0.2650
  600MOL0     C80898   3.877   2.886   5.924 -0.4034 -0.5590  0.2412
  600MOL0     C80899   3.741   2.867   5.882 -0.7384 -0.2259 -0.2398
  600MOL0     C80900   3.639   2.896   5.971  0.9375  0.5170 -0.7944
  600MOL0     O80901   3.512   2.893   5.924 -0.5943  0.2297  0.6887
  600MOL0     C80902   3.429   2.982   6.000  0.7171 -0.1331  0.3264
  600MOL0     C80903   3.318   3.015   5.885 -0.4111 -0.3894  0.0563
  600MOL0     C80904   3.216   3.136   5.911  0.2908 -0.4714  0.4461
  600MOL0     C80905   3.109   3.098   6.017  0.3181 -0.4755  0.2043
  600MOL0     C80906   3.008   3.211   6.025 -0.6083 -0.8090  0.3591
  600MOL0     C80907   2.890   3.178   6.108  0.8727 -0.3181  0.8904
  600MOL0     C80908   2.780   3.296   6.102  0.4573 -0.3438 -0.4609
  600MOL0     C80909   2.643   3.236   6.151 -0.9515  0.4367  0.2859
  600MOL0    Cl80910   2.539   3.358   6.199 -0.0105 -0.2000 -0.0471
  600MOL0     C80911   3.668   2.917   6.106 -0.3404 -0.4943 -0.4457
  600MOL0     C80912   3.801   2.929   6.148 -0.2111 -0.9122  0.7707
  600MOL0     O80913   4.140   3.034   5.927  0.2728 -0.7097 -0.5263
  600MOL0     C80914   4.306   2.951   6.198  0.4689  0.4397 -0.3755
  600MOL0     C80915   4.437   2.948   6.238 -0.7281 -0.3556  0.7474
  600MOL0     N80916   5.161   3.057   6.610  0.4873  0.7229 -0.1150
  600MOL0     N80917   5.245   2.973   6.646  0.2949  0.5730 -0.6944
  600MOL0     C80918   5.017   1.835   6.820  0.0027  0.4206  0.0226
  600MOL0     C80919   4.930   1.766   6.896 -0.5569  0.2606 -0.1275
  600MOL0     C80920   4.576   1.596   7.126  0.3200 -0.2291  0.5308
  600MOL0     C80921   4.584   1.559   7.255 -0.1878  0.3357  0.6292
  600MOL0     C80922   4.471   1.495   7.308  0.2367 -0.1403 -0.5100
  600MOL0     C80923   4.363   1.451   7.233  0.6907 -0.1861  0.3379
  600MOL0     O80924   4.262   1.391   7.299  0.2624  0.0497  0.3306
  600MOL0     C80925   4.132   1.389   7.230 -0.1296 -0.0545 -0.6623
  600MOL0     C80926   4.026   1.337   7.324  0.0405  0.0395 -0.1087
  600MOL0     C80927   4.038   1.185   7.359  0.1743  0.3906 -0.5416
  600MOL0     C80928   3.966   1.164   7.493  0.9880 -0.3550  0.8006
  600MOL0     C80929   3.819   1.157   7.462 -1.2522  0.3417 -0.2151
  600MOL0     C80930   3.701   1.148   7.451 -0.1953 -0.4341 -0.6003
  600MOL0     C80931   4.369   1.485   7.098  0.1518 -0.4326 -0.3469
  600MOL0     C80932   4.470   1.558   7.046 -1.1216 -0.0630  0.4934
  600MOL0     H80933   4.659   1.805   6.692 -0.2732 -0.1001 -0.5305
  600MOL0     H80934   4.812   1.929   6.568  2.2397 -1.8518 -2.2832
  600MOL0     H80935   5.236   2.005   6.740 -0.2908  1.6010 -0.1255
  600MOL0     H80936   5.219   1.860   6.634  2.1892 -0.1349 -0.6089
  600MOL0     H80937   5.374   2.016   6.541  1.0192  0.4290 -3.5193
  600MOL0     H80938   5.228   2.008   6.437  0.9791  0.8799 -0.2233
  600MOL0     H80939   5.193   2.242   6.473  1.6183 -0.4871 -0.9416
  600MOL0     H80940   5.216   2.222   6.645  1.9955 -2.4987  1.6997
  600MOL0     H80941   5.454   2.251   6.628  0.5945 -1.0111  0.4631
  600MOL0     H80942   5.468   2.202   6.463  2.7000  1.8809  2.3255
  600MOL0     H80943   5.497   2.440   6.511  1.1842 -5.1755  3.5777
  600MOL0     H80944   5.373   2.427   6.392  0.3805  2.4751  1.0100
  600MOL0     H80945   5.197   2.457   6.560 -2.0249  3.2966  4.3578
  600MOL0     H80946   5.323   2.472   6.690 -0.6447 -0.1188  0.4602
  600MOL0     H80947   5.418   2.670   6.556  1.0269 -3.6688 -6.6397
  600MOL0     H80948   5.268   2.662   6.455 -0.5970  2.5678  0.8773
  600MOL0     H80949   5.322   2.731   6.742  2.3532 -0.8200 -1.1090
  600MOL0     H80950   5.152   2.668   6.694 -1.7237  1.5757 -2.6918
  600MOL0     H80951   5.023   2.777   6.505  0.0737  0.6262 -1.8086
  600MOL0     H80952   4.853   3.047   6.569 -3.2378  2.0415 -2.2207
  600MOL0     H80953   4.955   3.185   6.519  1.2528  0.4802 -0.4096
  600MOL0     H80954   4.879   2.927   6.343 -4.2598  0.0910 -2.3748
  600MOL0     H80955   4.982   3.065   6.292  1.4295  0.4041  1.6474
  600MOL0     H80956   4.775   3.205   6.310 -0.5227  0.2189  1.6643
  600MOL0     H80957   4.675   3.090   6.372 -1.8709  2.0888 -2.2818
  600MOL0     H80958   4.797   3.044   6.099  0.3178  0.3341  1.1597
  600MOL0     H80959   4.651   3.122   6.122 -0.0628 -2.2617 -2.2595
  600MOL0     H80960   4.576   2.849   5.946  1.2773 -1.4270  0.6450
  600MOL0     H80961   4.431   2.778   5.788  0.3048  1.6690 -2.5472
  600MOL0     H80962   4.259   2.788   5.802  1.3720 -1.4804 -3.2420
  600MOL0     H80963   4.348   2.933   5.773  1.3910  0.2060 -0.3235
  600MOL0     H80964   3.952   2.854   5.852  1.4300  1.8625  0.9395
  600MOL0     H80965   3.719   2.830   5.782 -1.1567  1.2255 -0.7119
  600MOL0     H80966   3.379   2.941   6.088 -0.8003  0.8969 -0.0268
  600MOL0     H80967   3.489   3.069   6.027 -1.2210  1.3324  0.0975
  600MOL0     H80968   3.375   3.050   5.799 -0.5592 -0.1988  0.0344
  600MOL0     H80969   3.253   2.928   5.873 -2.4499  1.1760 -0.8182
  600MOL0     H80970   3.181   3.161   5.811 -1.4498 -0.3072  1.0655
  600MOL0     H80971   3.258   3.227   5.955  0.5399 -0.3560 -0.0290
  600MOL0     H80972   3.057   3.010   5.976 -2.2294  1.6242 -1.4269
  600MOL0     H80973   3.163   3.074   6.108 -3.0372 -1.2131  2.1744
  600MOL0     H80974   2.977   3.242   5.924  6.0882 -0.5025 -2.1286
  600MOL0     H80975   3.067   3.291   6.070  1.2896 -0.8167 -1.9265
  600MOL0     H80976   2.849   3.096   6.048 -1.3320  1.1894  0.1757
  600MOL0     H80977   2.925   3.153   6.208  2.3460  1.1312  0.7715
  600MOL0     H80978   2.769   3.338   6.001  2.2132 -1.4939 -1.1900
  600MOL0     H80979   2.818   3.369   6.174  2.7704  0.8687 -2.7490
  600MOL0     H80980   2.654   3.183   6.246  1.4537 -0.1271 -0.2538
  600MOL0     H80981   2.596   3.158   6.091 -4.6180 -0.8881  4.3379
  600MOL0     H80982   3.587   2.924   6.176 -2.2372 -0.9506 -2.4849
  600MOL0     H80983   3.811   2.943   6.255 -2.5796 -1.2364  1.0731
  600MOL0     H80984   4.225   2.976   6.265 -0.1822  0.3915 -1.1366
  600MOL0     H80985   4.456   2.974   6.341 -3.7514 -0.7524  1.4976
  600MOL0     H80986   5.120   1.829   6.854 -0.5296 -1.5598  1.5002
  600MOL0     H80987   4.961   1.724   6.991  0.1028 -0.4220 -0.6344
  600MOL0     H80988   4.666   1.576   7.324  0.4791  0.6292 -0.2275
  600MOL0     H80989   4.471   1.468   7.413  1.5253  1.0610 -0.1744
  600MOL0     H80990   4.100   1.490   7.206 -0.6717  0.2313  1.1552
  600MOL0     H80991   4.127   1.320   7.145 -0.1900 -2.6737  1.3216
  600MOL0     H80992   3.933   1.358   7.270 -1.7256 -0.8436  2.3682
  600MOL0     H80993   4.021   1.393   7.418  0.6655 -1.0709  0.6170
  600MOL0     H80994   4.140   1.145   7.366 -0.5068 -1.1337  3.3825
  600MOL0     H80995   3.978   1.139   7.280  0.1259  2.8559 -2.0638
  600MOL0     H80996   3.985   1.244   7.565  3.9943  0.5452 -0.8148
  600MOL0     H80997   3.988   1.067   7.539  1.2454  0.1850  1.8527
  600MOL0     H80998   3.598   1.124   7.433  0.2434 -1.2621 -2.2269
  600MOL0     H80999   4.291   1.445   7.034  0.1131 -2.1831  0.7499
  600MOL0     H81000   4.467   1.591   6.943  1.0459 -0.3538  0.2930
  601MOL0     O81001   6.084   4.873  10.329  0.1215 -0.4691 -0.1444
  601MOL0     C81002   6.015   4.950  10.273  0.4960 -0.5169  0.4263
  601MOL0     O81003   6.005   5.077  10.305  0.1018  0.1740  0.4909
  601MOL0     C81004   6.047   5.108  10.439  0.5076  0.2066  0.2297
  601MOL0     C81005   5.980   5.044  10.548  0.3087 -1.3244  1.2304
  601MOL0     C81006   6.008   5.082  10.678 -0.5885  0.0511  0.0050
  601MOL0     C81007   6.097   5.181  10.706 -0.3495  0.4956  1.2160
  601MOL0     O81008   6.123   5.226  10.835 -0.0359 -0.0502  0.5963
  601MOL0     C81009   6.071   5.156  10.945  0.6149  0.2951 -0.9965
  601MOL0     C81010   6.087   5.246  11.071  1.0722  0.3631 -0.4624
  601MOL0     C81011   6.001   5.210  11.194 -0.8009 -0.2271  0.3924
  601MOL0     C81012   6.029   5.310  11.301 -0.4771 -0.5115  0.0313
  601MOL0     C81013   6.172   5.323  11.349  0.2281 -0.2397 -0.1637
  601MOL0     C81014   6.194   5.446  11.440 -0.3234  0.6525 -0.5755
  601MOL0     C81015   6.327   5.422  11.517  0.9443  0.0536 -0.0382
  601MOL0     C81016   6.363   5.535  11.604 -0.3515 -0.0742  0.5928
  601MOL0     N81017   6.276   5.550  11.722 -0.4126  0.3350 -0.0709
  601MOL0     C81018   6.296   5.476  11.835 -0.3293  0.3305 -0.1907
  601MOL0     C81019   6.218   5.531  11.929  0.0580 -0.3607 -0.1763
  601MOL0     C81020   6.230   5.491  12.076  1.4098  0.5470 -0.2732
  601MOL0     C81021   6.141   5.367  12.111  0.5579 -1.0972 -0.6865
  601MOL0     C81022   5.990   5.414  12.119 -0.1942 -0.0981  0.7097
  601MOL0     C81023   5.900   5.279  12.149  0.1492 -0.9178 -1.0796
  601MOL0     O81024   5.886   5.211  12.024 -0.0211  0.5154 -0.4182
  601MOL0     C81025   5.804   5.270  11.938  0.5895  0.3102  0.5400
  601MOL0     C81026   5.857   5.343  11.826 -0.7595  0.5288 -0.8268
  601MOL0     C81027   5.773   5.420  11.740 -0.1899  0.6106 -1.1787
  601MOL0     C81028   5.842   5.478  11.613  0.0735  0.3445  0.1977
  601MOL0     C81029   5.629   5.430  11.769  0.0165 -0.4979  0.8465
  601MOL0     C81030   5.533   5.517  11.708  0.4870 -0.3541  1.1408
  601MOL0     O81031   5.402   5.484  11.735 -0.3487  0.5180  0.1949
  601MOL0     C81032   5.302   5.573  11.704  0.4822 -0.0827  0.0657
  601MOL0     C81033   5.171   5.538  11.660 -0.4564  0.1993  0.0533
  601MOL0     C81034   5.063   5.632  11.651  0.3774 -0.8475 -1.1555
  601MOL0     C81035   5.089   5.771  11.682  0.0554  0.3283 -0.8299
  601MOL0     O81036   4.986   5.856  11.663  0.1720  0.4676 -0.7557
  601MOL0     C81037   4.999   5.989  11.713 -0.4796  0.4341 -0.2640
  601MOL0     C81038   5.041   6.078  11.589 -0.2841  0.4146 -0.1306
  601MOL0     C81039   5.022   6.227  11.615 -0.4124 -0.3124 -0.3287
  601MOL0     C81040   4.867   6.259  11.632 -0.3695  0.1053 -0.2748
  601MOL0     C81041   4.826   6.406  11.633 -0.6827 -0.0523 -0.4086
  601MOL0     C81042   4.794   6.473  11.494  0.4046  0.8095 -0.4388
  601MOL0     C81043   4.656   6.409  11.451 -0.1134  0.3975  0.3377
  601MOL0     C81044   4.618   6.474  11.315  0.7156 -0.0919  0.1384
  601MOL0    Cl81045   4.449   6.410  11.272 -0.2495 -0.0817  0.2083
  601MOL0     C81046   5.221   5.807  11.728 -0.8569 -0.5093 -0.2235
  601MOL0     C81047   5.313   5.704  11.747 -0.1110 -0.5450  0.7977
  601MOL0     O81048   5.563   5.617  11.641  0.8781 -0.1232  0.2685
  601MOL0     C81049   5.583   5.357  11.880  0.0902 -0.4569  0.5660
  601MOL0     C81050   5.667   5.272  11.954  0.5651  0.1302 -0.0079
  601MOL0     N81051   6.164   5.644  11.867  0.1861  0.3865  1.1394
  601MOL0     N81052   6.203   5.660  11.740 -0.0704 -0.3946 -0.1740
  601MOL0     C81053   6.161   5.249  10.597 -0.6292 -0.1605 -0.1738
  601MOL0     C81054   6.132   5.213  10.466  0.3140 -0.2223 -0.1062
  601MOL0     C81055   5.926   4.890  10.180  0.5959  0.3269 -0.0555
  601MOL0     C81056   5.958   4.773  10.116  0.0868  0.2980  0.1107
  601MOL0     C81057   5.863   4.715  10.028 -0.1282 -0.5348 -0.2536
  601MOL0     C81058   5.749   4.783   9.980 -0.3118  0.0568 -0.1551
  601MOL0     O81059   5.667   4.726   9.883 -0.5398 -0.3434 -0.1891
  601MOL0     C81060   5.556   4.798   9.841  0.5066  0.4391 -0.5665
  601MOL0     C81061   5.467   4.699   9.767 -0.0437 -0.3908 -0.5568
  601MOL0     C81062   5.542   4.636   9.643 -0.0502 -0.7351 -0.0320
  601MOL0     C81063   5.608   4.504   9.672 -0.1833  1.0187  0.1623
  601MOL0     C81064   5.509   4.405   9.714  0.1884  0.4695 -0.5650
  601MOL0     C81065   5.420   4.321   9.745 -1.0145  0.3963  0.1718
  601MOL0     C81066   5.718   4.897  10.049  0.3314 -0.4314 -0.3116
  601MOL0     C81067   5.801   4.945  10.152  0.4631 -0.1032 -0.5491
  601MOL0     H81068   5.911   4.960  10.536 -0.3527 -0.9241  2.1719
  601MOL0     H81069   5.956   5.034  10.760  0.6308 -1.2419  0.0452
  601MOL0     H81070   5.965   5.144  10.920  0.6144 -0.0405 -0.8357
  601MOL0     H81071   6.127   5.063  10.960  1.4149  1.0146  0.8684
  601MOL0     H81072   6.193   5.241  11.099  0.4882 -0.0517  1.8902
  601MOL0     H81073   6.065   5.349  11.040 -3.6003 -0.8069 -1.8258
  601MOL0     H81074   5.894   5.207  11.171 -0.1205 -0.3580 -3.3657
  601MOL0     H81075   6.036   5.110  11.221 -0.7892 -0.4893 -0.5555
  601MOL0     H81076   5.993   5.402  11.252  1.8883 -0.3211 -1.5086
  601MOL0     H81077   5.961   5.287  11.383  0.0265  1.1996  0.9730
  601MOL0     H81078   6.194   5.233  11.408 -0.3924 -1.6793 -2.0402
  601MOL0     H81079   6.249   5.330  11.272 -0.5863 -2.3714 -1.2472
  601MOL0     H81080   6.211   5.531  11.374 -0.2503 -0.4003 -1.9534
  601MOL0     H81081   6.107   5.478  11.499 -0.3190 -0.4429  0.0560
  601MOL0     H81082   6.328   5.332  11.579 -1.4907  1.4728  2.2817
  601MOL0     H81083   6.410   5.422  11.446  0.8626  3.4764 -0.2806
  601MOL0     H81084   6.361   5.621  11.536  2.2284  0.6286  1.2831
  601MOL0     H81085   6.470   5.526  11.625  0.5174  3.2639 -1.6178
  601MOL0     H81086   6.363   5.392  11.851 -2.2204 -1.2343 -0.1214
  601MOL0     H81087   6.337   5.476  12.095  1.6910 -0.0169 -2.0902
  601MOL0     H81088   6.197   5.575  12.137  2.5701  1.9530 -1.5187
  601MOL0     H81089   6.166   5.316  12.205  2.6375 -3.4050 -2.3455
  601MOL0     H81090   6.164   5.290  12.037  3.7126 -0.6277 -0.3542
  601MOL0     H81091   5.965   5.459  12.023 -1.0987 -1.9977 -0.0026
  601MOL0     H81092   5.981   5.492  12.196  2.2304  1.1938 -0.2168
  601MOL0     H81093   5.805   5.304  12.197  1.0910 -2.1641  1.6197
  601MOL0     H81094   5.948   5.215  12.223  1.2976 -0.1892 -1.1729
  601MOL0     H81095   5.963   5.333  11.804 -0.5149  0.5807  0.2992
  601MOL0     H81096   5.774   5.458  11.530  1.4664 -2.1399 -0.4723
  601MOL0     H81097   5.853   5.586  11.621 -2.9462  0.6490  1.3584
  601MOL0     H81098   5.943   5.440  11.596  0.9390  2.3730  0.5932
  601MOL0     H81099   5.155   5.434  11.630 -0.4875 -0.7761  3.1542
  601MOL0     H81100   4.957   5.619  11.631 -1.2671  1.2294  4.3377
  601MOL0     H81101   4.903   6.021  11.755  0.7636  2.6014  1.0991
  601MOL0     H81102   5.064   5.992  11.801  0.0210  1.9438 -0.6584
  601MOL0     H81103   5.146   6.058  11.563 -0.2806  1.1453 -0.6975
  601MOL0     H81104   4.989   6.046  11.499  3.3396  3.6597 -3.7571
  601MOL0     H81105   5.054   6.286  11.529  0.2862 -2.0393 -1.3009
  601MOL0     H81106   5.086   6.269  11.694  4.4296 -1.3095 -3.3193
  601MOL0     H81107   4.810   6.202  11.559  3.7514 -3.1469 -1.3583
  601MOL0     H81108   4.844   6.221  11.732 -1.1400 -0.4372 -0.6573
  601MOL0     H81109   4.916   6.455  11.672 -0.0054 -1.4619 -0.1444
  601MOL0     H81110   4.739   6.419  11.698 -1.3162 -1.6622 -0.8786
  601MOL0     H81111   4.789   6.580  11.515 -2.0949  0.8383 -0.7756
  601MOL0     H81112   4.880   6.460  11.428 -1.2290 -1.0627 -2.3811
  601MOL0     H81113   4.579   6.418  11.528 -1.7549 -2.8197 -0.7383
  601MOL0     H81114   4.664   6.303  11.428  0.1431 -0.1304  2.6082
  601MOL0     H81115   4.692   6.453  11.238  2.6472 -0.7551  2.0812
  601MOL0     H81116   4.622   6.583  11.328  4.1150 -0.0290 -0.5769
  601MOL0     H81117   5.240   5.909  11.758 -3.8639 -0.1011  0.5028
  601MOL0     H81118   5.399   5.735  11.805  0.4593 -0.3236 -0.1597
  601MOL0     H81119   5.482   5.376  11.915 -0.2127  1.2114 -1.0646
  601MOL0     H81120   5.621   5.205  12.026  2.3816  2.9775  4.1860
  601MOL0     H81121   6.233   5.323  10.630  0.5367 -1.8763  1.3206
  601MOL0     H81122   6.177   5.264  10.382 -1.4359  0.1928 -0.8264
  601MOL0     H81123   6.046   4.716  10.141  0.8379  0.1715 -2.5765
  601MOL0     H81124   5.883   4.619   9.981 -0.7580 -2.2064  2.6167
  601MOL0     H81125   5.492   4.842   9.918  1.7704  3.1553 -0.9467
  601MOL0     H81126   5.578   4.874   9.766 -0.2671  1.7943  0.5278
  601MOL0     H81127   5.382   4.761   9.740  0.0099  0.2089  0.5807
  601MOL0     H81128   5.429   4.622   9.835 -2.4252 -0.5048 -1.9400
  601MOL0     H81129   5.615   4.705   9.598 -0.0413 -0.8159 -0.1437
  601MOL0     H81130   5.474   4.610   9.562  3.9795 -2.5300 -3.2105
  601MOL0     H81131   5.695   4.519   9.738 -0.0293  0.8862 -0.0078
  601MOL0     H81132   5.666   4.471   9.585  1.5463  0.9161  1.2882
  601MOL0     H81133   5.353   4.247   9.782 -1.6581  0.2519 -1.2330
  601MOL0     H81134   5.629   4.955  10.025 -0.0482 -1.4177 -1.4071
  601MOL0     H81135   5.760   5.031  10.204  2.2178 -0.0225  0.7550
  602MOL0     O81136   8.687   5.684   8.847  0.5788  0.5087  0.0613
  602MOL0     C81137   8.767   5.727   8.767 -0.0622 -0.7169  0.6808
  602MOL0     O81138   8.738   5.780   8.645  0.2765 -0.1464  0.3295
  602MOL0     C81139   8.615   5.764   8.582  0.3561 -0.0120 -0.3564
  602MOL0     C81140   8.615   5.784   8.441 -0.3849  0.3719  0.9114
  602MOL0     C81141   8.492   5.764   8.371  0.6150 -0.5914  0.5571
  602MOL0     C81142   8.365   5.751   8.434 -0.7408 -0.6892  0.2356
  602MOL0     O81143   8.251   5.748   8.359  0.0498 -0.7123 -0.3232
  602MOL0     C81144   8.122   5.758   8.426  0.1104 -0.1690  0.8145
  602MOL0     C81145   8.086   5.613   8.472 -0.4298 -0.3610  0.0662
  602MOL0     C81146   7.928   5.593   8.469 -0.7446  0.1906  0.0268
  602MOL0     C81147   7.884   5.443   8.442  0.0293 -0.6007 -0.2331
  602MOL0     C81148   7.739   5.413   8.475 -0.1539  0.2025 -1.0198
  602MOL0     C81149   7.701   5.264   8.446  0.0736  1.3145  0.2629
  602MOL0     C81150   7.557   5.221   8.480 -0.0433  0.4284 -0.4155
  602MOL0     C81151   7.451   5.338   8.464  0.0841  0.4570 -0.6659
  602MOL0     N81152   7.308   5.281   8.494 -0.2634 -0.8175 -0.1370
  602MOL0     C81153   7.266   5.227   8.618  0.2463 -0.2212 -0.0506
  602MOL0     C81154   7.150   5.176   8.586 -0.5278  0.2163  0.0435
  602MOL0     C81155   7.058   5.086   8.672 -0.6482 -0.0510 -0.1757
  602MOL0     C81156   7.116   5.065   8.811  0.2403 -0.3347  0.1125
  602MOL0     C81157   7.219   4.952   8.831 -0.3312 -0.4351  0.4568
  602MOL0     C81158   7.302   4.975   8.959  0.8949 -0.5720  0.0609
  602MOL0     O81159   7.397   4.869   8.994  0.2782  0.6887 -0.7842
  602MOL0     C81160   7.527   4.873   8.950 -0.2176  0.0784  0.1846
  602MOL0     C81161   7.614   4.794   9.020  0.0565 -0.2153  0.9345
  602MOL0     C81162   7.747   4.780   8.982 -0.4440  0.4461  0.2236
  602MOL0     C81163   7.821   4.663   9.048 -0.6422  0.7456 -0.1867
  602MOL0     C81164   7.795   4.857   8.875 -0.4929  0.0271  0.8512
  602MOL0     C81165   7.945   4.869   8.850  0.2339  0.0385 -0.3163
  602MOL0     O81166   8.033   4.865   8.953 -0.2187 -0.3313  0.0047
  602MOL0     C81167   8.165   4.871   8.920 -1.3253  0.3730  0.2653
  602MOL0     C81168   8.250   4.808   9.011  0.2979  0.5182 -0.2601
  602MOL0     C81169   8.395   4.803   8.997  0.3199 -0.4836 -0.4949
  602MOL0     C81170   8.462   4.875   8.897 -0.7478 -0.0943  0.1956
  602MOL0     O81171   8.596   4.880   8.874  0.3461  0.3425 -0.2096
  602MOL0     C81172   8.679   4.837   8.990 -0.4620 -0.4004  0.1579
  602MOL0     C81173   8.824   4.873   8.958  0.7820 -0.1370 -0.5087
  602MOL0     C81174   8.928   4.827   9.072  0.4600 -0.4927 -0.0255
  602MOL0     C81175   9.078   4.849   9.036 -0.0352 -0.0579 -0.5097
  602MOL0     C81176   9.174   4.765   9.129  0.4385  0.0215 -0.7704
  602MOL0     C81177   9.323   4.778   9.114  0.2657  0.0672  0.7547
  602MOL0     C81178   9.407   4.854   9.213 -0.0509  0.0453 -0.5870
  602MOL0     C81179   9.557   4.819   9.199 -0.2622 -0.5002  0.1397
  602MOL0    Cl81180   9.652   4.844   9.345 -0.4680 -0.0263 -0.9083
  602MOL0     C81181   8.375   4.938   8.800 -0.8830 -0.1475  0.1743
  602MOL0     C81182   8.230   4.942   8.817 -0.6812  0.3734 -0.2990
  602MOL0     O81183   7.974   4.891   8.732 -0.5658  0.3467  0.1030
  602MOL0     C81184   7.708   4.947   8.815 -0.2014  0.0840  0.8118
  602MOL0     C81185   7.574   4.954   8.846 -0.5920 -0.1125  0.6354
  602MOL0     N81186   7.113   5.195   8.455  0.2977  0.3476 -0.0167
  602MOL0     N81187   7.211   5.262   8.403  0.1164 -0.4383  0.1983
  602MOL0     C81188   8.366   5.740   8.573 -0.8169  0.6812 -0.0291
  602MOL0     C81189   8.491   5.750   8.647 -0.1074  0.3770  0.5462
  602MOL0     C81190   8.905   5.737   8.815 -0.4384 -0.1928  0.6145
  602MOL0     C81191   9.001   5.790   8.733 -0.4791 -0.7874  0.5760
  602MOL0     C81192   9.133   5.799   8.771 -0.8057 -0.6231  0.1412
  602MOL0     C81193   9.184   5.748   8.896  0.3161  0.6380 -0.0549
  602MOL0     O81194   9.325   5.746   8.919 -0.3384 -0.0626 -0.0150
  602MOL0     C81195   9.380   5.674   9.032  0.3573 -0.2514  0.4065
  602MOL0     C81196   9.533   5.683   9.020  0.4460 -0.2791  0.5376
  602MOL0     C81197   9.594   5.601   9.135 -0.0465 -0.8447  0.6368
  602MOL0     C81198   9.745   5.619   9.121 -0.5372 -0.1450 -1.3044
  602MOL0     C81199   9.797   5.527   9.027 -0.7603 -0.0242 -0.6769
  602MOL0     C81200   9.832   5.436   8.953  0.3447 -0.6451  0.1263
  602MOL0     C81201   9.084   5.682   8.974 -0.7476 -0.3543  0.0020
  602MOL0     C81202   8.952   5.686   8.932  0.2628  0.2702 -0.5832
  602MOL0     H81203   8.707   5.796   8.385 -1.4609 -2.9003 -1.9103
  602MOL0     H81204   8.495   5.755   8.263 -0.0783 -1.2786  0.5865
  602MOL0     H81205   8.118   5.836   8.502 -0.5977 -0.4673  1.0901
  602MOL0     H81206   8.060   5.799   8.345  0.9912 -0.7930 -0.2051
  602MOL0     H81207   8.121   5.554   8.387  1.0149  0.5682 -0.0319
  602MOL0     H81208   8.119   5.583   8.571 -1.6929  0.1037  0.6468
  602MOL0     H81209   7.892   5.642   8.560  2.5177 -0.2546  1.7109
  602MOL0     H81210   7.878   5.645   8.387  2.5077  0.1345 -2.1812
  602MOL0     H81211   7.901   5.418   8.337  2.5832 -0.5509  0.1006
  602MOL0     H81212   7.952   5.381   8.501  0.4660  0.0574 -0.0304
  602MOL0     H81213   7.723   5.415   8.583  1.7691  0.9666 -0.7028
  602MOL0     H81214   7.677   5.489   8.427 -0.3274  0.3613 -0.5461
  602MOL0     H81215   7.706   5.236   8.340 -5.3142 -4.1361  0.8769
  602MOL0     H81216   7.761   5.195   8.505 -0.2843 -0.0169 -0.8778
  602MOL0     H81217   7.522   5.147   8.407  0.9505 -0.2567 -0.2216
  602MOL0     H81218   7.558   5.163   8.573  1.6358  0.2157 -0.5321
  602MOL0     H81219   7.451   5.383   8.364 -0.2502 -0.0795 -0.9153
  602MOL0     H81220   7.475   5.422   8.529 -0.8493  2.9836 -3.3370
  602MOL0     H81221   7.320   5.223   8.713  0.4905 -0.1007 -0.1835
  602MOL0     H81222   6.955   5.123   8.674 -1.1809 -1.3127 -1.7807
  602MOL0     H81223   7.045   4.990   8.621  0.2034  0.2198 -0.9377
  602MOL0     H81224   7.037   5.031   8.878  1.9522 -2.8028  1.0547
  602MOL0     H81225   7.154   5.157   8.856  1.0821 -0.5532 -0.1387
  602MOL0     H81226   7.293   4.948   8.750  0.6312 -1.1987  1.3517
  602MOL0     H81227   7.167   4.855   8.835 -3.3942  1.0037 -0.9993
  602MOL0     H81228   7.233   4.986   9.043  1.4096  0.7444  0.3341
  602MOL0     H81229   7.355   5.069   8.944  0.9994 -0.6021  0.2511
  602MOL0     H81230   7.569   4.754   9.110 -0.6375  0.8522  1.0817
  602MOL0     H81231   7.834   4.698   9.150 -1.2702  0.3079  0.0536
  602MOL0     H81232   7.768   4.567   9.051  0.0883  0.3527  0.2809
  602MOL0     H81233   7.919   4.643   9.004 -0.2761 -1.9452  1.6394
  602MOL0     H81234   8.209   4.742   9.087  0.3060  0.1967 -0.5341
  602MOL0     H81235   8.463   4.757   9.067  3.1274  2.7171 -0.8651
  602MOL0     H81236   8.641   4.866   9.088  0.0778  1.5932 -0.1865
  602MOL0     H81237   8.671   4.729   9.008 -2.5277  0.0036  2.0574
  602MOL0     H81238   8.860   4.821   8.868  2.4400 -1.4724  0.8466
  602MOL0     H81239   8.829   4.981   8.941  0.4253  0.2299  1.5498
  602MOL0     H81240   8.911   4.725   9.106  3.2389 -0.7549  0.8186
  602MOL0     H81241   8.899   4.882   9.162  1.8393 -1.8156  1.2673
  602MOL0     H81242   9.083   4.807   8.935  2.7233 -2.0473  0.3270
  602MOL0     H81243   9.104   4.955   9.036  0.4985 -0.1841 -1.0473
  602MOL0     H81244   9.144   4.661   9.115 -5.0651  1.1421  0.4244
  602MOL0     H81245   9.148   4.786   9.233 -1.9295  0.5342 -1.4116
  602MOL0     H81246   9.361   4.676   9.103 -2.4807 -1.4558  3.6434
  602MOL0     H81247   9.341   4.820   9.015 -1.8390 -0.1278  0.2458
  602MOL0     H81248   9.376   4.826   9.314 -1.2953 -4.6453 -2.0257
  602MOL0     H81249   9.396   4.962   9.201  1.9595  0.3307 -0.3045
  602MOL0     H81250   9.601   4.873   9.114  5.3147 -3.0529  0.9818
  602MOL0     H81251   9.562   4.712   9.181  1.9364 -0.7859  2.0013
  602MOL0     H81252   8.410   4.995   8.715 -2.6683  0.1247 -0.4194
  602MOL0     H81253   8.173   4.996   8.742 -0.9606 -1.1995 -1.2660
  602MOL0     H81254   7.746   5.014   8.739 -1.9416 -0.5978 -0.7077
  602MOL0     H81255   7.509   5.019   8.789  1.6571  1.3764 -0.3529
  602MOL0     H81256   8.277   5.727   8.635  0.2128  1.6681  1.7520
  602MOL0     H81257   8.471   5.742   8.753 -0.7565 -3.7208  0.2854
  602MOL0     H81258   8.980   5.831   8.635 -1.5567 -0.0296  1.1092
  602MOL0     H81259   9.207   5.840   8.703 -0.9010  4.5294  2.6336
  602MOL0     H81260   9.352   5.718   9.129 -0.9091 -2.4369  1.1104
  602MOL0     H81261   9.338   5.573   9.028  0.4663 -0.2490 -1.0837
  602MOL0     H81262   9.561   5.785   9.045 -2.4609  0.7513 -0.0490
  602MOL0     H81263   9.580   5.667   8.922 -2.8881  0.9744 -1.4244
  602MOL0     H81264   9.543   5.504   9.143 -2.8096  0.2363 -1.8643
  602MOL0     H81265   9.566   5.648   9.230 -0.0797 -2.3917  1.4239
  602MOL0     H81266   9.790   5.604   9.219 -0.9749 -0.3004 -1.1241
  602MOL0     H81267   9.781   5.720   9.100  2.8914 -0.7180  1.0121
  602MOL0     H81268   9.856   5.356   8.886 -0.6039 -0.5131 -0.3812
  602MOL0     H81269   9.109   5.639   9.071  1.3396 -2.0831 -1.2114
  602MOL0     H81270   8.883   5.648   9.007  1.8029  1.5727  1.6430
  603MOL0     O81271   1.901   9.746   2.609  0.4667  1.0132 -0.1396
  603MOL0     C81272   1.899   9.816   2.510 -0.3151  0.4400 -0.7556
  603MOL0     O81273   1.793   9.867   2.445 -0.5984  0.3890 -0.0338
  603MOL0     C81274   1.672   9.863   2.507  1.0440  1.6625 -0.3860
  603MOL0     C81275   1.601   9.977   2.536 -0.7296  0.1827  1.0151
  603MOL0     C81276   1.481   9.968   2.601 -0.1140  0.1472  0.1767
  603MOL0     C81277   1.419   9.844   2.631  0.5614  0.5735  0.6219
  603MOL0     O81278   1.293   9.842   2.678 -0.1784 -0.4892 -1.0878
  603MOL0     C81279   1.242   9.719   2.722 -0.1541 -0.4188 -0.2736
  603MOL0     C81280   1.142   9.742   2.837  0.1295  0.1912  0.3440
  603MOL0     C81281   1.017   9.810   2.787  0.0752 -0.3579  0.1943
  603MOL0     C81282   0.885   9.735   2.806  0.2987 -0.2546 -0.6627
  603MOL0     C81283   0.763   9.833   2.806  0.3051 -0.1447 -0.3359
  603MOL0     C81284   0.619   9.775   2.786  0.1635  1.1623 -0.6053
  603MOL0     C81285   0.520   9.887   2.786  0.0481 -0.9467 -0.3017
  603MOL0     C81286   0.381   9.851   2.846  1.2704 -0.0476 -0.4849
  603MOL0     N81287   0.314   9.981   2.886 -0.8319 -0.4403  0.1600
  603MOL0     C81288   0.372  10.058   2.985 -0.1115  0.2880  0.0470
  603MOL0     C81289   0.307  10.173   2.968  0.1997  0.1759  0.2630
  603MOL0     C81290   0.347  10.302   3.040 -0.2673 -0.1743 -0.2627
  603MOL0     C81291   0.410  10.393   2.937  0.3596 -0.2544  0.4783
  603MOL0     C81292   0.305  10.484   2.851 -0.2766 -0.4018  0.0306
  603MOL0     C81293   0.382  10.605   2.792 -0.0442  0.8766 -0.2970
  603MOL0     O81294   0.472  10.560   2.694 -0.5066  0.1688  0.0705
  603MOL0     C81295   0.598  10.609   2.708  0.4325 -0.0927 -0.1249
  603MOL0     C81296   0.685  10.561   2.800  0.3312 -0.0727 -0.1034
  603MOL0     C81297   0.800  10.633   2.830 -0.2011  0.0854 -0.6544
  603MOL0     C81298   0.891  10.576   2.942 -0.2991  0.2137  0.3793
  603MOL0     C81299   0.825  10.759   2.766 -0.1751  0.3506  0.5303
  603MOL0     C81300   0.948  10.839   2.796  0.0870 -0.1671  0.0795
  603MOL0     O81301   1.049  10.803   2.878  0.1295 -0.5461  0.1294
  603MOL0     C81302   1.137  10.884   2.936  0.4457  0.3037 -0.7008
  603MOL0     C81303   1.221  10.961   2.871  0.1347  0.6136 -0.0281
  603MOL0     C81304   1.321  11.042   2.935  0.2987  0.7724 -0.1314
  603MOL0     C81305   1.313  11.056   3.075  1.0111 -0.0820 -0.3705
  603MOL0     O81306   1.412  11.137   3.127 -0.7000 -0.2612 -0.9079
  603MOL0     C81307   1.406  11.186   3.262  0.5647 -0.1053 -0.5071
  603MOL0     C81308   1.542  11.236   3.320 -1.0642 -0.3206 -0.3135
  603MOL0     C81309   1.631  11.327   3.230 -0.0204  0.0524  0.5574
  603MOL0     C81310   1.560  11.430   3.148  0.3247 -0.0662  0.6890
  603MOL0     C81311   1.529  11.554   3.226  0.8772 -0.0117  0.0777
  603MOL0     C81312   1.438  11.649   3.140 -0.3938  0.8812 -0.1227
  603MOL0     C81313   1.297  11.604   3.146  0.4158  0.5699 -0.5332
  603MOL0     C81314   1.207  11.710   3.080 -0.0519  0.0536  0.1359
  603MOL0    Cl81315   1.202  11.858   3.178  0.2870 -0.0031  0.0724
  603MOL0     C81316   1.213  10.987   3.145 -0.0672  0.0779  0.8709
  603MOL0     C81317   1.133  10.899   3.070 -1.1676  0.4931 -0.6887
  603MOL0     O81318   0.949  10.948   2.742 -0.0132 -0.0954  0.1223
  603MOL0     C81319   0.728  10.817   2.683  1.0590 -0.1750 -0.1943
  603MOL0     C81320   0.617  10.735   2.651  0.5515  1.1555 -0.5455
  603MOL0     N81321   0.211  10.157   2.873 -0.1693  0.6573  0.0462
  603MOL0     N81322   0.213  10.049   2.825  0.0064  0.7399  0.1274
  603MOL0     C81323   1.490   9.728   2.591 -0.0349  0.1962  0.0743
  603MOL0     C81324   1.619   9.734   2.535  0.1142 -0.3006  0.3387
  603MOL0     C81325   2.031   9.822   2.446  0.5356 -0.9104  0.3627
  603MOL0     C81326   2.145   9.762   2.507 -0.2973 -0.0894 -0.2685
  603MOL0     C81327   2.278   9.783   2.459  0.2091 -0.3219  0.3230
  603MOL0     C81328   2.295   9.866   2.344  0.1487 -0.3856 -0.6353
  603MOL0     O81329   2.417   9.891   2.285 -0.2892  0.3216  0.2085
  603MOL0     C81330   2.522   9.804   2.313 -0.2212 -0.4805 -0.1001
  603MOL0     C81331   2.519   9.678   2.235 -0.3325  0.0258  1.4389
  603MOL0     C81332   2.632   9.582   2.273  0.7720 -0.7130  0.3807
  603MOL0     C81333   2.770   9.632   2.240  0.1925  0.4735  0.4786
  603MOL0     C81334   2.777   9.664   2.101  0.2863 -0.3221  0.3921
  603MOL0     C81335   2.793   9.689   1.982  0.1783 -0.5075  0.5672
  603MOL0     C81336   2.184   9.933   2.280 -1.1339 -0.5589 -1.6550
  603MOL0     C81337   2.052   9.908   2.330 -0.3502 -0.1090  0.3112
  603MOL0     H81338   1.654  10.070   2.521  2.1777 -1.5454 -0.3697
  603MOL0     H81339   1.422  10.057   2.622 -1.2892 -1.1062  2.6522
  603MOL0     H81340   1.194   9.663   2.641 -0.0895  1.0417 -1.3481
  603MOL0     H81341   1.332   9.667   2.760 -0.1596 -1.4667 -1.6223
  603MOL0     H81342   1.118   9.639   2.865  0.1575 -0.0133 -0.3671
  603MOL0     H81343   1.177   9.793   2.927 -2.0699  0.8422  0.9007
  603MOL0     H81344   1.023   9.910   2.831  0.3732 -0.3078  0.0423
  603MOL0     H81345   1.014   9.825   2.679  0.4790  3.6749  0.6103
  603MOL0     H81346   0.865   9.658   2.731  0.2730 -2.8019  1.8142
  603MOL0     H81347   0.878   9.687   2.904 -1.2033  1.1990 -0.0007
  603MOL0     H81348   0.768   9.899   2.893 -0.1057 -0.1130 -0.3374
  603MOL0     H81349   0.773   9.898   2.718 -0.5055  0.0695 -0.2724
  603MOL0     H81350   0.606   9.709   2.699 -1.9410 -2.0017  1.8848
  603MOL0     H81351   0.608   9.696   2.861  4.2046  0.3872 -0.6062
  603MOL0     H81352   0.563   9.951   2.864 -2.2362  0.0276  0.2554
  603MOL0     H81353   0.516   9.933   2.687 -3.7145 -0.1674  0.0312
  603MOL0     H81354   0.373   9.785   2.933  1.5938 -1.8769 -1.7830
  603MOL0     H81355   0.316   9.802   2.773 -1.8326  1.6780  0.9376
  603MOL0     H81356   0.456  10.025   3.045 -0.4492 -1.4295 -0.3649
  603MOL0     H81357   0.251  10.337   3.079 -1.2233 -0.9216 -1.8315
  603MOL0     H81358   0.412  10.270   3.123 -1.7109  2.1101  1.8955
  603MOL0     H81359   0.473  10.338   2.866 -0.9432 -0.6121 -0.4518
  603MOL0     H81360   0.469  10.461   2.998  0.3612 -2.7777  3.5454
  603MOL0     H81361   0.220  10.518   2.911 -0.5565 -0.4354 -0.3442
  603MOL0     H81362   0.264  10.425   2.769 -1.0179  0.9176 -0.5857
  603MOL0     H81363   0.428  10.653   2.878  2.4731 -0.2470 -0.9106
  603MOL0     H81364   0.310  10.677   2.753  0.1264  2.5402  2.2783
  603MOL0     H81365   0.661  10.472   2.859  1.4100 -0.9257 -0.9193
  603MOL0     H81366   0.885  10.645   3.026 -1.4707  2.0304 -1.1221
  603MOL0     H81367   0.863  10.475   2.973  1.4397 -1.0828 -1.9593
  603MOL0     H81368   0.995  10.566   2.912  0.3339  1.9627  1.8162
  603MOL0     H81369   1.221  10.953   2.762  3.0219  1.3203 -0.1779
  603MOL0     H81370   1.395  11.078   2.865 -0.0405 -2.9445 -2.6985
  603MOL0     H81371   1.334  11.267   3.272 -0.1336 -0.5131 -1.8883
  603MOL0     H81372   1.371  11.105   3.326 -0.7553  0.4016 -0.5605
  603MOL0     H81373   1.524  11.298   3.409  0.6652 -0.1224 -0.0547
  603MOL0     H81374   1.607  11.153   3.350  0.8355  1.5978  1.2692
  603MOL0     H81375   1.683  11.268   3.154  0.9337  0.8266  0.5899
  603MOL0     H81376   1.704  11.366   3.301  1.3708  0.6417 -1.0978
  603MOL0     H81377   1.625  11.460   3.065 -0.1344 -0.4258  0.1874
  603MOL0     H81378   1.469  11.391   3.102  0.0703  1.6971 -0.4305
  603MOL0     H81379   1.621  11.606   3.252  0.7589 -0.4666  1.5382
  603MOL0     H81380   1.478  11.534   3.321  0.5433  3.2587  0.7047
  603MOL0     H81381   1.453  11.745   3.189  0.7005  0.7804 -0.2494
  603MOL0     H81382   1.480  11.651   3.040  2.1353 -2.7603  0.6452
  603MOL0     H81383   1.272  11.611   3.252  2.6521 -1.6553  0.2332
  603MOL0     H81384   1.273  11.500   3.120 -1.3756  0.2425  2.1021
  603MOL0     H81385   1.109  11.668   3.054  0.8051 -4.2313  2.8884
  603MOL0     H81386   1.258  11.737   2.986  1.3569 -0.8932  0.6018
  603MOL0     H81387   1.205  10.979   3.253  1.8590 -0.1685  1.0291
  603MOL0     H81388   1.054  10.846   3.123 -0.0400  0.8857  1.4879
  603MOL0     H81389   0.730  10.919   2.648 -0.6877  0.5726  1.6401
  603MOL0     H81390   0.538  10.777   2.589  1.1785  0.5975 -1.7591
  603MOL0     H81391   1.442   9.631   2.603  2.2307 -0.9839  0.2057
  603MOL0     H81392   1.681   9.650   2.506  1.6317  1.0044 -0.3046
  603MOL0     H81393   2.135   9.707   2.600 -1.5119 -0.2166 -0.4640
  603MOL0     H81394   2.362   9.743   2.515  0.6821 -1.1747 -0.9514
  603MOL0     H81395   2.618   9.851   2.290 -0.6038  1.0862  1.2343
  603MOL0     H81396   2.534   9.778   2.419  1.6891  2.8616  0.6602
  603MOL0     H81397   2.506   9.701   2.128  1.6044  1.5914  1.4801
  603MOL0     H81398   2.427   9.622   2.253 -1.1465  0.3931 -1.0589
  603MOL0     H81399   2.620   9.486   2.221 -1.4477 -1.6001  2.3447
  603MOL0     H81400   2.629   9.547   2.377 -0.3200  0.0251  0.6130
  603MOL0     H81401   2.828   9.541   2.256 -1.1903 -0.5099  0.1078
  603MOL0     H81402   2.798   9.714   2.306 -1.1998  1.1517  0.2596
  603MOL0     H81403   2.821   9.691   1.879  2.8549  0.1502  1.2226
  603MOL0     H81404   2.209   9.994   2.193 -1.5937 -1.1237 -2.1944
  603MOL0     H81405   1.970   9.945   2.270  0.5184  0.8839 -0.3052
  604MOL0     O81406   3.927   9.773   1.392 -0.1123 -0.6399  0.4551
  604MOL0     C81407   3.984   9.871   1.442 -0.1713  0.0459  0.3507
  604MOL0     O81408   3.931   9.982   1.482 -0.4178 -1.0639 -0.3906
  604MOL0     C81409   3.801  10.021   1.452  0.6918 -0.0349  0.7146
  604MOL0     C81410   3.771  10.033   1.312  0.3955 -0.6192 -0.1543
  604MOL0     C81411   3.644  10.080   1.275 -0.8898  1.2743  0.3797
  604MOL0     C81412   3.543  10.094   1.367  0.2186 -0.1443 -0.1035
  604MOL0     O81413   3.421  10.141   1.342  0.0616  0.1179 -1.0328
  604MOL0     C81414   3.372  10.125   1.209  0.2566  0.9914 -0.0426
  604MOL0     C81415   3.215  10.113   1.215  1.0186  0.0293 -0.9755
  604MOL0     C81416   3.154  10.097   1.078 -0.3258 -0.4432  0.8122
  604MOL0     C81417   3.179   9.963   1.002  0.1997  0.3901 -0.2392
  604MOL0     C81418   3.131   9.979   0.859 -0.6828  0.1787 -0.0877
  604MOL0     C81419   3.105   9.846   0.800  0.6996 -0.6777  0.1600
  604MOL0     C81420   3.231   9.771   0.752  0.6982 -0.6684 -0.5317
  604MOL0     C81421   3.206   9.640   0.688 -0.3892 -0.1799  0.0442
  604MOL0     N81422   3.130   9.662   0.557  0.4258  0.7643 -0.4124
  604MOL0     C81423   3.069   9.554   0.487 -0.0989 -0.3879 -1.0231
  604MOL0     C81424   2.995   9.617   0.393 -0.4839  0.4805 -0.5184
  604MOL0     C81425   2.902   9.550   0.292 -0.2657 -1.3456 -0.1519
  604MOL0     C81426   2.818   9.446   0.353 -0.0940 -0.0753 -0.1978
  604MOL0     C81427   2.691   9.505   0.424  0.4261  0.1510  0.4095
  604MOL0     C81428   2.622   9.392   0.494  0.2569 -0.0389 -0.5552
  604MOL0     O81429   2.501   9.443   0.548 -0.3414  0.5109 -0.0502
  604MOL0     C81430   2.371   9.390   0.514 -0.4124  0.2904 -0.6495
  604MOL0     C81431   2.332   9.268   0.560 -0.0658  0.0483 -0.5596
  604MOL0     C81432   2.202   9.211   0.544  0.7684  0.1938  0.3281
  604MOL0     C81433   2.166   9.078   0.613 -0.2839 -0.1860  0.9391
  604MOL0     C81434   2.113   9.289   0.467 -0.3202 -0.8638 -0.0844
  604MOL0     C81435   1.974   9.263   0.438  0.7543 -0.6117  0.7884
  604MOL0     O81436   1.927   9.303   0.316  0.0318  0.3318  0.0798
  604MOL0     C81437   1.788   9.307   0.307  0.2200  0.3778 -0.0778
  604MOL0     C81438   1.712   9.410   0.370  0.4982  0.6433  0.2492
  604MOL0     C81439   1.567   9.391   0.375  0.0018  0.8348 -1.1711
  604MOL0     C81440   1.506   9.273   0.323 -0.0293 -0.9425  0.0041
  604MOL0     O81441   1.382   9.236   0.324  0.0741  0.0058 -0.6494
  604MOL0     C81442   1.298   9.281   0.428 -0.1497  0.5294  0.0191
  604MOL0     C81443   1.205   9.163   0.458 -0.6849 -0.6290  0.2819
  604MOL0     C81444   1.118   9.119   0.343 -0.1933 -1.2328  0.5977
  604MOL0     C81445   1.077   8.977   0.352  0.6069 -0.5038  0.4113
  604MOL0     C81446   0.990   8.946   0.236  0.0931  1.1400  1.1185
  604MOL0     C81447   1.069   8.917   0.104 -0.1074 -0.1238  0.1309
  604MOL0     C81448   1.189   8.823   0.124  0.6514 -0.3058  0.3183
  604MOL0     C81449   1.241   8.773  -0.010  0.3173 -0.5463 -0.3306
  604MOL0    Cl81450   1.116   8.691  -0.105 -0.1643 -0.2122 -0.1109
  604MOL0     C81451   1.587   9.185   0.256 -0.1710  0.3259 -0.0669
  604MOL0     C81452   1.719   9.202   0.256 -0.7481  1.1177 -0.0470
  604MOL0     O81453   1.911   9.204   0.526  0.9301  0.0376 -0.1902
  604MOL0     C81454   2.156   9.413   0.422  0.7169  0.5116 -0.6963
  604MOL0     C81455   2.282   9.465   0.437  0.7295 -0.4091 -0.0170
  604MOL0     N81456   3.023   9.750   0.401 -0.3083  0.7150  0.1873
  604MOL0     N81457   3.107   9.770   0.494  0.0674 -0.0425  0.0255
  604MOL0     C81458   3.573  10.075   1.504  0.4582  0.4599  0.0800
  604MOL0     C81459   3.702  10.042   1.545  0.4352 -1.0139 -0.4926
  604MOL0     C81460   4.134   9.868   1.464 -0.4967 -0.7291  0.6075
  604MOL0     C81461   4.231   9.793   1.393  0.2737 -0.1739 -0.4824
  604MOL0     C81462   4.368   9.800   1.426  0.1101 -0.3318 -0.5623
  604MOL0     C81463   4.411   9.887   1.526  0.2780  0.5160 -0.3572
  604MOL0     O81464   4.547   9.899   1.551  0.0908 -0.0661 -0.2847
  604MOL0     C81465   4.598  10.030   1.598  1.1302 -0.8602 -0.3452
  604MOL0     C81466   4.623  10.010   1.749  0.7816  0.2173 -0.2997
  604MOL0     C81467   4.682  10.130   1.822 -0.0970 -0.3255  0.3524
  604MOL0     C81468   4.678  10.118   1.968 -0.2269  0.0230  0.0779
  604MOL0     C81469   4.754  10.239   2.028  0.9161  0.1089 -0.8851
  604MOL0     C81470   4.833  10.313   2.080  0.0774  0.1192  0.1626
  604MOL0     C81471   4.312   9.948   1.601  0.3887 -0.2129  0.2306
  604MOL0     C81472   4.178   9.940   1.574  1.1596  0.2923 -0.6187
  604MOL0     H81473   3.849  10.015   1.239 -1.2229  3.5722 -3.3648
  604MOL0     H81474   3.621  10.086   1.169  1.9753  0.1290 -0.4100
  604MOL0     H81475   3.399  10.217   1.156  5.8048 -0.4986 -0.3477
  604MOL0     H81476   3.414  10.039   1.156  1.3675  0.6871  1.2850
  604MOL0     H81477   3.175  10.022   1.262 -1.4216  0.8141 -1.4066
  604MOL0     H81478   3.175  10.200   1.268 -0.7877 -2.4478  2.1080
  604MOL0     H81479   3.048  10.124   1.073 -0.5672 -1.3629  0.7910
  604MOL0     H81480   3.199  10.165   1.005  0.0822 -1.6169 -0.0633
  604MOL0     H81481   3.285   9.941   0.988 -0.2301  0.1737 -4.0232
  604MOL0     H81482   3.125   9.883   1.052  1.7222 -1.4398 -1.4149
  604MOL0     H81483   3.042  10.042   0.850  1.7074  3.6145 -2.8153
  604MOL0     H81484   3.214  10.031   0.809  2.1354 -1.6125  2.3817
  604MOL0     H81485   3.054   9.781   0.871  0.7577 -1.6101 -0.6416
  604MOL0     H81486   3.035   9.861   0.717  0.1575  0.6957  0.8198
  604MOL0     H81487   3.280   9.838   0.681  1.2751 -1.7618 -1.1967
  604MOL0     H81488   3.293   9.755   0.841 -0.2826  0.9821  0.4994
  604MOL0     H81489   3.149   9.572   0.753 -1.9044  0.2359 -0.8197
  604MOL0     H81490   3.303   9.594   0.669 -0.1160 -0.4020  1.7466
  604MOL0     H81491   3.068   9.448   0.510  0.2069 -0.7816 -2.7413
  604MOL0     H81492   2.843   9.630   0.248 -2.5427  0.4464  5.2608
  604MOL0     H81493   2.966   9.513   0.212  1.2674  2.2947 -0.8083
  604MOL0     H81494   2.869   9.377   0.421 -3.3872 -0.4594  2.1426
  604MOL0     H81495   2.785   9.375   0.277 -0.9047  0.1853 -0.1032
  604MOL0     H81496   2.621   9.545   0.350  1.1520  1.9857  0.6386
  604MOL0     H81497   2.713   9.594   0.484  4.6358 -0.8457  0.6517
  604MOL0     H81498   2.672   9.344   0.578 -1.4187 -1.4575 -0.2885
  604MOL0     H81499   2.602   9.312   0.422  1.8216  0.8672 -2.0704
  604MOL0     H81500   2.408   9.216   0.617  1.6736 -0.3261 -3.0383
  604MOL0     H81501   2.148   9.086   0.721  0.1263  0.1831  0.9839
  604MOL0     H81502   2.084   9.033   0.557 -1.4788  0.2493  2.2861
  604MOL0     H81503   2.250   9.009   0.603 -1.7335 -2.1102  1.4114
  604MOL0     H81504   1.758   9.498   0.414 -1.3323  0.7594  2.0816
  604MOL0     H81505   1.503   9.462   0.426  0.5258  0.9684 -0.6863
  604MOL0     H81506   1.349   9.296   0.524 -1.6334 -0.9730  1.0911
  604MOL0     H81507   1.252   9.375   0.398 -0.4045  0.7257  0.9931
  604MOL0     H81508   1.264   9.080   0.498 -1.6942 -0.1680  2.9328
  604MOL0     H81509   1.142   9.201   0.539  0.0583 -1.0839  1.0941
  604MOL0     H81510   1.173   9.135   0.250  1.7096 -2.7019  1.3965
  604MOL0     H81511   1.034   9.188   0.346  0.9565  0.1809  0.9903
  604MOL0     H81512   1.164   8.910   0.352  1.7802  0.8851 -1.9769
  604MOL0     H81513   1.029   8.962   0.449  4.5119 -0.2820  2.6227
  604MOL0     H81514   0.911   9.020   0.217 -3.3193 -2.4354  0.2083
  604MOL0     H81515   0.930   8.862   0.273 -0.7341  2.2030  2.2924
  604MOL0     H81516   0.995   8.887   0.029 -2.1755 -0.0667  2.0394
  604MOL0     H81517   1.108   9.015   0.073  1.0180 -0.6921 -0.3012
  604MOL0     H81518   1.161   8.729   0.173 -0.1488 -0.9548 -1.3124
  604MOL0     H81519   1.271   8.884   0.164 -1.3557  1.7532  1.4974
  604MOL0     H81520   1.318   8.695   0.001 -1.7899 -3.2775 -3.2173
  604MOL0     H81521   1.283   8.854  -0.071  1.2919  0.0533  1.0896
  604MOL0     H81522   1.540   9.093   0.223 -4.3834  0.9216  3.3239
  604MOL0     H81523   1.775   9.115   0.221 -1.3747  1.2784 -1.5304
  604MOL0     H81524   2.097   9.474   0.354  1.5592  0.6794 -1.2977
  604MOL0     H81525   2.303   9.565   0.402  1.6904 -0.2114  1.0691
  604MOL0     H81526   3.505  10.115   1.578  1.4605  0.8995  0.7754
  604MOL0     H81527   3.731  10.020   1.648 -0.4142  1.2671  0.3083
  604MOL0     H81528   4.207   9.726   1.311  2.4800 -1.9657  0.2454
  604MOL0     H81529   4.445   9.751   1.369  1.4522 -3.4078  3.4099
  604MOL0     H81530   4.691  10.060   1.550 -0.0186  2.6127 -0.7199
  604MOL0     H81531   4.531  10.112   1.570  1.9455  0.5222  1.5469
  604MOL0     H81532   4.697   9.929   1.747 -1.4312 -1.9200 -1.1155
  604MOL0     H81533   4.541   9.964   1.806  1.4129 -1.9236 -1.0123
  604MOL0     H81534   4.632  10.225   1.800 -3.2929 -1.9575  0.0082
  604MOL0     H81535   4.785  10.131   1.785 -0.3151 -0.0614 -0.2520
  604MOL0     H81536   4.731  10.024   1.986 -0.5828 -0.4765 -1.2931
  604MOL0     H81537   4.575  10.106   2.004 -0.5789 -0.7563 -1.1238
  604MOL0     H81538   4.894  10.389   2.123  0.7318  0.1895 -0.8673
  604MOL0     H81539   4.352   9.997   1.690  3.0459 -3.7518  1.1854
  604MOL0     H81540   4.105   9.995   1.633 -0.4311 -1.7951 -0.5109
  605MOL0     O81541   7.305  10.120   7.908  0.4039 -0.0002  0.0256
  605MOL0     C81542   7.300  10.214   7.833  0.1847 -0.0411 -0.2184
  605MOL0     O81543   7.183  10.262   7.778  0.1161 -0.1166  0.1566
  605MOL0     C81544   7.074  10.181   7.795  0.9673  0.1644  0.6894
  605MOL0     C81545   7.031  10.092   7.703  0.3434 -0.3891 -0.0533
  605MOL0     C81546   6.917  10.023   7.723 -0.4121 -0.2597 -0.4995
  605MOL0     C81547   6.849  10.029   7.843  0.1428  0.0653 -0.2030
  605MOL0     O81548   6.733   9.957   7.850  0.3750 -0.1892 -0.7900
  605MOL0     C81549   6.690   9.913   7.983 -0.2063 -0.1839  0.1330
  605MOL0     C81550   6.612   9.776   7.971 -0.4425 -0.2247 -0.1022
  605MOL0     C81551   6.547   9.732   8.103 -0.3498 -0.8805  1.6961
  605MOL0     C81552   6.466   9.604   8.079  0.2875  0.5384  0.4221
  605MOL0     C81553   6.413   9.559   8.209  0.2486  0.5054  0.0943
  605MOL0     C81554   6.307   9.446   8.201  0.2883 -0.1155 -0.4812
  605MOL0     C81555   6.280   9.390   8.342  0.3106  0.1452 -0.3119
  605MOL0     C81556   6.184   9.486   8.426 -0.0127  0.1063  0.0785
  605MOL0     N81557   6.144   9.429   8.554  0.1794  0.2639  0.4340
  605MOL0     C81558   6.230   9.410   8.657  1.1223 -0.2878 -0.2802
  605MOL0     C81559   6.161   9.338   8.745  0.3543 -0.1136 -0.2831
  605MOL0     C81560   6.218   9.308   8.881  0.0244 -0.6248  0.2715
  605MOL0     C81561   6.348   9.223   8.866  0.1592  0.5957 -0.6932
  605MOL0     C81562   6.300   9.076   8.886 -0.6316  0.5128 -0.5795
  605MOL0     C81563   6.421   8.981   8.853 -0.0539 -0.6233  0.9058
  605MOL0     O81564   6.533   9.015   8.937 -0.1578  0.1827  0.0448
  605MOL0     C81565   6.649   8.987   8.874 -0.3022  0.1644  0.0605
  605MOL0     C81566   6.690   8.864   8.829  0.5850 -0.1063 -0.3419
  605MOL0     C81567   6.818   8.834   8.785  0.5252 -0.3583 -0.5971
  605MOL0     C81568   6.841   8.694   8.744 -0.1957  0.3298 -0.0436
  605MOL0     C81569   6.916   8.936   8.780  0.2144 -0.1130  0.2246
  605MOL0     C81570   7.060   8.923   8.752  0.2430  0.2270  0.7736
  605MOL0     O81571   7.107   8.795   8.771 -0.8872  0.1172  0.1985
  605MOL0     C81572   7.227   8.765   8.708 -0.4622  0.6529  0.3942
  605MOL0     C81573   7.258   8.792   8.572  0.4675 -0.3807 -0.2002
  605MOL0     C81574   7.375   8.747   8.512  0.2043 -0.9945  0.2151
  605MOL0     C81575   7.477   8.695   8.590  0.1383 -0.0224  0.5624
  605MOL0     O81576   7.588   8.646   8.536 -0.0972  0.7921 -0.8452
  605MOL0     C81577   7.593   8.572   8.417  0.4913  0.2093 -1.1314
  605MOL0     C81578   7.734   8.535   8.388  0.4300 -0.4173  0.4368
  605MOL0     C81579   7.802   8.642   8.301 -0.5682  0.1047 -0.3616
  605MOL0     C81580   7.941   8.599   8.268 -0.3472 -0.1073 -0.5543
  605MOL0     C81581   7.986   8.683   8.143 -0.1487 -0.1389  0.8798
  605MOL0     C81582   8.140   8.675   8.116  0.8629  0.1568  0.1076
  605MOL0     C81583   8.192   8.552   8.040  0.0129 -0.0309 -0.1362
  605MOL0     C81584   8.339   8.573   7.988  0.7078  0.2555 -0.3903
  605MOL0    Cl81585   8.472   8.557   8.097 -0.2887  0.0681 -0.4114
  605MOL0     C81586   7.453   8.677   8.728  0.4444  0.1137  0.1237
  605MOL0     C81587   7.327   8.710   8.783  1.2798  0.2535 -0.3227
  605MOL0     O81588   7.121   9.020   8.719  0.0976  0.4740  1.2171
  605MOL0     C81589   6.868   9.065   8.821 -1.3874  0.1251  0.4537
  605MOL0     C81590   6.741   9.091   8.872 -0.5607  0.9265  1.0536
  605MOL0     N81591   6.025   9.334   8.703 -1.1425  0.0544  0.4769
  605MOL0     N81592   6.026   9.384   8.587 -0.5728 -0.4311  0.9471
  605MOL0     C81593   6.898  10.119   7.948 -0.8836 -0.0383  0.3248
  605MOL0     C81594   7.007  10.203   7.918 -0.0350 -0.0916 -0.7867
  605MOL0     C81595   7.425  10.283   7.804  0.6706 -0.3373 -0.0154
  605MOL0     C81596   7.544  10.207   7.779  0.6550  0.9478  0.4206
  605MOL0     C81597   7.660  10.271   7.739  0.1715  0.7805  0.7201
  605MOL0     C81598   7.671  10.408   7.746 -0.0794 -0.0698 -0.1785
  605MOL0     O81599   7.777  10.486   7.713 -0.4196 -0.3232  0.7830
  605MOL0     C81600   7.911  10.434   7.699  0.5156  0.0981 -0.8804
  605MOL0     C81601   7.956  10.420   7.847 -0.1676 -0.7115 -0.3728
  605MOL0     C81602   7.981  10.557   7.902 -0.1069  0.2546 -0.5669
  605MOL0     C81603   7.854  10.645   7.914 -0.0729 -0.4586  0.2854
  605MOL0     C81604   7.894  10.758   7.999  0.1399  0.1326  0.1193
  605MOL0     C81605   7.934  10.854   8.068 -0.1620  1.0983 -0.6631
  605MOL0     C81606   7.558  10.476   7.801 -0.6781 -0.7730 -0.2378
  605MOL0     C81607   7.433  10.417   7.816  0.1361 -1.0877  0.9628
  605MOL0     H81608   7.084  10.092   7.608 -0.8545  2.5747 -0.8146
  605MOL0     H81609   6.883   9.968   7.636  2.4340  1.3007 -2.7970
  605MOL0     H81610   6.781   9.894   8.040 -0.5586 -0.1266  0.7357
  605MOL0     H81611   6.635   9.996   8.029  3.5433  2.3171  0.4751
  605MOL0     H81612   6.527   9.793   7.904  1.2830 -0.7139 -2.5564
  605MOL0     H81613   6.688   9.705   7.938  0.8049 -0.1234  2.3398
  605MOL0     H81614   6.618   9.717   8.185 -0.1186  2.9002  2.3962
  605MOL0     H81615   6.486   9.813   8.146 -0.3872  0.2185 -0.2985
  605MOL0     H81616   6.388   9.603   8.001 -0.3906 -1.4595  1.0386
  605MOL0     H81617   6.534   9.524   8.048 -2.9476 -1.3608 -2.6654
  605MOL0     H81618   6.495   9.527   8.274  0.5259 -2.0352 -1.3969
  605MOL0     H81619   6.362   9.645   8.256 -0.5155  0.4892 -0.6972
  605MOL0     H81620   6.210   9.477   8.161 -0.5754 -3.2173 -1.0839
  605MOL0     H81621   6.351   9.359   8.151 -0.5597  0.6537 -2.6641
  605MOL0     H81622   6.230   9.295   8.321  0.8660 -0.8473  2.3769
  605MOL0     H81623   6.374   9.370   8.395  0.6174 -1.5935 -1.3989
  605MOL0     H81624   6.097   9.508   8.363  0.8999 -0.3575 -1.4133
  605MOL0     H81625   6.242   9.575   8.453  1.4702 -1.0806  0.9706
  605MOL0     H81626   6.331   9.450   8.650  0.4462  1.7369  0.7680
  605MOL0     H81627   6.249   9.404   8.924  1.1726 -0.2984 -1.2064
  605MOL0     H81628   6.138   9.261   8.939  1.0382 -2.2477  0.4060
  605MOL0     H81629   6.415   9.250   8.948 -2.1491  5.0296  0.0529
  605MOL0     H81630   6.401   9.242   8.772  0.8553 -4.9060 -1.7416
  605MOL0     H81631   6.218   9.046   8.820 -1.6168 -2.1527  1.6543
  605MOL0     H81632   6.276   9.057   8.991  0.6329  2.1116  0.0542
  605MOL0     H81633   6.454   8.995   8.750 -0.1264 -5.5688 -0.0209
  605MOL0     H81634   6.398   8.875   8.864 -1.9936 -0.3926 -0.5549
  605MOL0     H81635   6.615   8.786   8.817 -0.6452  0.5568  2.3737
  605MOL0     H81636   6.911   8.695   8.660  1.9474  1.7983  1.6321
  605MOL0     H81637   6.887   8.637   8.826  2.1480 -1.5731 -2.5040
  605MOL0     H81638   6.748   8.642   8.718  0.0285 -0.1103  0.0185
  605MOL0     H81639   7.179   8.840   8.516 -0.4030 -1.3883  0.1280
  605MOL0     H81640   7.392   8.765   8.406  0.8091  0.6909  0.5544
  605MOL0     H81641   7.549   8.476   8.445 -0.5194  1.0768  0.4048
  605MOL0     H81642   7.557   8.618   8.325 -0.8074  0.1092 -0.6918
  605MOL0     H81643   7.791   8.505   8.476  3.4016  1.0189 -0.8455
  605MOL0     H81644   7.725   8.443   8.330  0.2668  1.2790 -2.4535
  605MOL0     H81645   7.798   8.735   8.359  0.5528  0.2101 -0.4323
  605MOL0     H81646   7.747   8.659   8.208  0.3210 -0.2777 -0.9784
  605MOL0     H81647   8.010   8.624   8.349 -2.5108  1.1356  1.0269
  605MOL0     H81648   7.944   8.490   8.262  1.6371 -0.1852  0.9105
  605MOL0     H81649   7.952   8.787   8.140 -0.2984 -0.2010 -0.3357
  605MOL0     H81650   7.941   8.634   8.056  0.4784 -2.2824  1.6935
  605MOL0     H81651   8.175   8.761   8.058  3.1607 -0.1984  0.8367
  605MOL0     H81652   8.203   8.675   8.206 -0.5867 -1.4502  1.1849
  605MOL0     H81653   8.133   8.519   7.954 -3.8297 -0.2843  2.3749
  605MOL0     H81654   8.186   8.464   8.105  1.6755 -0.9850 -1.1954
  605MOL0     H81655   8.356   8.675   7.952 -1.8336  1.6338  1.9284
  605MOL0     H81656   8.351   8.486   7.924 -2.3074 -2.5325  2.4688
  605MOL0     H81657   7.529   8.638   8.795  1.1237 -0.4921 -0.9711
  605MOL0     H81658   7.315   8.695   8.890 -1.6172  0.6305 -0.4974
  605MOL0     H81659   6.941   9.145   8.825 -0.4298 -0.1950 -4.4975
  605MOL0     H81660   6.703   9.187   8.905 -0.6400  2.4429 -2.8659
  605MOL0     H81661   6.847  10.125   8.044  1.1847 -0.8998  1.5158
  605MOL0     H81662   7.043  10.263   8.000 -1.6629 -1.4282  0.9942
  605MOL0     H81663   7.538  10.099   7.765  0.7379  1.0251 -0.2212
  605MOL0     H81664   7.740  10.207   7.702 -1.1942 -1.0552  0.8136
  605MOL0     H81665   7.916  10.338   7.647  0.2556 -1.2838  1.4871
  605MOL0     H81666   7.971  10.505   7.641  0.2899  0.9382 -0.1150
  605MOL0     H81667   8.050  10.364   7.847  0.2403 -0.1025  1.5722
  605MOL0     H81668   7.880  10.367   7.905 -0.5309 -0.8278 -0.9488
  605MOL0     H81669   8.048  10.600   7.827  0.7461 -2.5653 -1.5633
  605MOL0     H81670   8.027  10.548   8.001 -1.7462 -1.3264  0.0915
  605MOL0     H81671   7.764  10.605   7.961 -0.7761 -1.1131 -1.5284
  605MOL0     H81672   7.819  10.688   7.819 -0.4537  1.3915  1.2073
  605MOL0     H81673   7.981  10.926   8.132  0.7458 -0.4223  0.4453
  605MOL0     H81674   7.569  10.578   7.836  0.7622 -0.9826 -0.0061
  605MOL0     H81675   7.351  10.486   7.833  1.4746  0.7808  0.1974
  606MOL0     O81676   7.185   0.323   6.333  0.0814  1.1735 -0.3247
  606MOL0     C81677   7.100   0.247   6.289 -1.1854  0.3797  0.2624
  606MOL0     O81678   7.021   0.274   6.180 -0.2101  0.1277 -0.8329
  606MOL0     C81679   7.006   0.397   6.142  0.1094 -0.7556  0.0049
  606MOL0     C81680   7.105   0.449   6.060 -1.1652  0.3762 -0.4512
  606MOL0     C81681   7.100   0.575   6.008  0.9969 -0.1473 -0.3833
  606MOL0     C81682   6.992   0.655   6.048  0.8655 -0.6418  0.1668
  606MOL0     O81683   6.978   0.780   5.979  0.2824  0.5085  0.1127
  606MOL0     C81684   6.946   0.893   6.058 -0.3777 -0.0279  0.4423
  606MOL0     C81685   6.923   1.006   5.964  0.4308 -0.2370  0.3869
  606MOL0     C81686   6.795   0.970   5.875 -0.4469  0.6012  0.5793
  606MOL0     C81687   6.783   1.068   5.753  0.7565 -0.8703  0.7794
  606MOL0     C81688   6.647   1.044   5.682  0.0148 -0.2189  0.7824
  606MOL0     C81689   6.531   1.127   5.748 -0.6498  0.2521  0.2088
  606MOL0     C81690   6.400   1.078   5.690 -0.2001  0.1643 -0.0589
  606MOL0     C81691   6.386   1.110   5.541 -0.1368  0.2868  0.2781
  606MOL0     N81692   6.256   1.085   5.485 -0.5877  0.2909 -0.1108
  606MOL0     C81693   6.157   1.185   5.458 -0.2224  0.0333 -0.3283
  606MOL0     C81694   6.060   1.112   5.397 -0.4781 -1.0622 -0.4721
  606MOL0     C81695   5.924   1.163   5.361  0.6645 -0.6965 -0.5480
  606MOL0     C81696   5.839   1.100   5.236 -0.1963 -0.0758 -0.1821
  606MOL0     C81697   5.711   1.176   5.214 -0.0713 -0.1521  0.4746
  606MOL0     C81698   5.651   1.129   5.083 -0.2336  0.3403  0.2956
  606MOL0     O81699   5.541   1.210   5.052  0.1644 -0.5974 -0.1777
  606MOL0     C81700   5.445   1.150   4.966 -0.0190 -0.4233 -0.5706
  606MOL0     C81701   5.446   1.015   4.907  0.7710 -0.3597  0.3051
  606MOL0     C81702   5.347   0.963   4.819 -0.8194 -0.0928 -0.6846
  606MOL0     C81703   5.374   0.819   4.776  0.9782  0.5294  1.0876
  606MOL0     C81704   5.237   1.048   4.799  0.1038 -0.0146 -0.3452
  606MOL0     C81705   5.112   0.993   4.723 -0.2927 -0.8048  0.9013
  606MOL0     O81706   5.001   1.082   4.718 -0.9309 -0.2720 -0.5047
  606MOL0     C81707   4.886   1.077   4.640 -0.0915 -0.3209  0.0577
  606MOL0     C81708   4.860   1.188   4.560  0.5692 -0.6831 -0.1087
  606MOL0     C81709   4.745   1.203   4.493  0.2290  0.0112  0.6124
  606MOL0     C81710   4.641   1.102   4.502 -0.8107 -0.2142  0.1022
  606MOL0     O81711   4.516   1.118   4.448  0.0503 -0.5417 -0.8081
  606MOL0     C81712   4.489   1.235   4.372 -0.0754  0.3828  0.4203
  606MOL0     C81713   4.335   1.253   4.343 -0.5632 -0.1085 -0.1702
  606MOL0     C81714   4.264   1.263   4.485  0.6318  0.3882 -0.3440
  606MOL0     C81715   4.116   1.236   4.455 -0.4565 -0.1888  0.0597
  606MOL0     C81716   4.032   1.240   4.579  0.1869 -0.4768 -0.2858
  606MOL0     C81717   3.933   1.131   4.566  0.3556  0.6718  0.6098
  606MOL0     C81718   3.856   1.131   4.703  0.4140  0.3902 -0.3361
  606MOL0     C81719   3.722   1.057   4.672 -0.5877 -0.8404 -0.3595
  606MOL0    Cl81720   3.633   1.163   4.564 -0.3439 -0.1089  0.2204
  606MOL0     C81721   4.670   0.988   4.571  0.4527 -0.0847  0.4889
  606MOL0     C81722   4.792   0.977   4.639 -0.5129 -0.2598 -0.1361
  606MOL0     O81723   5.111   0.879   4.669  0.0394 -0.3914  0.1341
  606MOL0     C81724   5.232   1.179   4.849  0.3530  0.7755  0.2724
  606MOL0     C81725   5.332   1.223   4.929 -0.5973 -0.3302 -0.3912
  606MOL0     N81726   6.101   0.974   5.385 -0.0054 -0.0891 -0.2804
  606MOL0     N81727   6.211   0.962   5.453  0.3573 -0.0228 -0.0428
  606MOL0     C81728   6.888   0.612   6.133 -0.5437  0.6026  1.4338
  606MOL0     C81729   6.898   0.482   6.182 -0.0170 -0.1310 -1.2008
  606MOL0     C81730   7.073   0.121   6.359  0.2692  0.1756  0.3503
  606MOL0     C81731   6.961   0.037   6.327  0.2479 -0.8472  0.7816
  606MOL0     C81732   6.928  -0.077   6.390  0.5185 -0.1196  0.0168
  606MOL0     C81733   6.986  -0.103   6.519  0.6949 -0.3007  0.8738
  606MOL0     O81734   6.946  -0.217   6.584 -0.3034 -0.1952  0.7053
  606MOL0     C81735   6.997  -0.232   6.714  0.9209  0.3409  0.5668
  606MOL0     C81736   6.961  -0.363   6.776  0.0309 -0.2715  0.5336
  606MOL0     C81737   7.037  -0.378   6.913 -0.5867  0.7999  0.3892
  606MOL0     C81738   6.986  -0.311   7.042  0.2084 -0.0277  0.5122
  606MOL0     C81739   6.848  -0.338   7.086 -0.1524  0.2093  0.1923
  606MOL0     C81740   6.744  -0.358   7.139  0.9414  0.0538 -0.7684
  606MOL0     C81741   7.091  -0.018   6.558  0.0833 -0.1668  0.2122
  606MOL0     C81742   7.127   0.095   6.485 -0.0558  0.4680  0.1398
  606MOL0     H81743   7.183   0.376   6.041 -0.8571 -0.2914  2.7888
  606MOL0     H81744   7.187   0.600   5.947  2.9219 -2.7459  1.1231
  606MOL0     H81745   6.846   0.882   6.101 -1.2289  0.4070 -1.3078
  606MOL0     H81746   7.030   0.915   6.124 -0.9713 -1.8526  1.9025
  606MOL0     H81747   6.912   1.104   6.012 -0.3807  0.5691 -1.3672
  606MOL0     H81748   7.018   1.010   5.908  0.3109  1.1203  0.2385
  606MOL0     H81749   6.799   0.869   5.834 -1.1250  0.7919  0.0236
  606MOL0     H81750   6.705   0.970   5.937 -1.4924 -0.6968 -0.8651
  606MOL0     H81751   6.793   1.172   5.786 -1.9638 -0.4465  0.4769
  606MOL0     H81752   6.864   1.039   5.686 -1.5216 -2.9852 -1.2312
  606MOL0     H81753   6.652   1.063   5.574  4.7111  1.5429  1.0767
  606MOL0     H81754   6.624   0.937   5.689 -0.0745 -0.1258  2.0937
  606MOL0     H81755   6.537   1.129   5.857 -0.0289  0.2571  0.1783
  606MOL0     H81756   6.545   1.232   5.720 -1.9301 -0.1133 -2.0857
  606MOL0     H81757   6.390   0.970   5.704  1.4546 -0.0870 -0.5748
  606MOL0     H81758   6.325   1.140   5.738 -1.7490 -3.7354  3.1346
  606MOL0     H81759   6.456   1.039   5.493  1.0573  1.9860 -0.6022
  606MOL0     H81760   6.424   1.211   5.525  0.5693  0.6847  3.7947
  606MOL0     H81761   6.146   1.289   5.486 -3.3476  0.4110 -2.5222
  606MOL0     H81762   5.858   1.174   5.447  0.9438 -2.5157 -0.0513
  606MOL0     H81763   5.942   1.267   5.334 -1.8724  0.8386  2.9487
  606MOL0     H81764   5.829   0.992   5.249 -1.1841 -0.0846 -0.9399
  606MOL0     H81765   5.897   1.103   5.143  1.6123  1.1171  0.9127
  606MOL0     H81766   5.733   1.283   5.219 -1.3056  0.0878  4.1247
  606MOL0     H81767   5.643   1.148   5.296 -0.9446  0.7872  0.0878
  606MOL0     H81768   5.611   1.027   5.092  0.9178 -0.1059  0.6291
  606MOL0     H81769   5.724   1.122   5.002 -0.1547  1.5410  0.2425
  606MOL0     H81770   5.530   0.948   4.927  1.5140  0.2895 -0.6018
  606MOL0     H81771   5.287   0.758   4.800  0.9434 -1.4385 -3.0999
  606MOL0     H81772   5.370   0.812   4.667 -0.4046 -0.2954  1.1699
  606MOL0     H81773   5.465   0.766   4.806  0.6254 -3.3560 -3.5002
  606MOL0     H81774   4.928   1.270   4.543  2.2182 -2.3113 -1.8502
  606MOL0     H81775   4.732   1.291   4.431 -1.2613  0.3935  1.4052
  606MOL0     H81776   4.526   1.331   4.410  3.9853 -1.0487  0.5362
  606MOL0     H81777   4.544   1.230   4.278 -0.2209 -3.8787  0.3652
  606MOL0     H81778   4.310   1.337   4.278  1.9307  1.4439  0.7445
  606MOL0     H81779   4.312   1.159   4.294  1.7266 -1.9870  2.0950
  606MOL0     H81780   4.281   1.362   4.529  0.5513  1.4172 -2.5019
  606MOL0     H81781   4.302   1.185   4.551 -0.6041  1.1738  1.3786
  606MOL0     H81782   4.076   1.305   4.380 -0.9798 -1.6886 -1.0936
  606MOL0     H81783   4.115   1.132   4.421  1.3576 -0.6969  1.3980
  606MOL0     H81784   3.981   1.336   4.571  2.0642  0.4428 -2.2330
  606MOL0     H81785   4.099   1.235   4.666  2.4573 -0.1327 -1.9171
  606MOL0     H81786   3.873   1.131   4.474  2.6198 -3.0718 -1.1164
  606MOL0     H81787   3.990   1.038   4.565 -1.9633 -0.8613  1.5299
  606MOL0     H81788   3.846   1.233   4.743  0.7021 -0.6153  2.5536
  606MOL0     H81789   3.900   1.067   4.780 -0.0521 -0.7786 -1.0207
  606MOL0     H81790   3.658   1.063   4.760  0.4241  0.3006  0.3364
  606MOL0     H81791   3.730   0.956   4.629  2.4111 -1.2079  0.7661
  606MOL0     H81792   4.599   0.907   4.556  1.0504 -0.2023 -2.3914
  606MOL0     H81793   4.817   0.900   4.710  1.0001  1.4429  1.2811
  606MOL0     H81794   5.144   1.234   4.818  1.2375  2.7202  1.0550
  606MOL0     H81795   5.336   1.326   4.963 -3.2488  0.0072 -0.9182
  606MOL0     H81796   6.804   0.675   6.157 -2.1390 -0.7898 -0.1864
  606MOL0     H81797   6.836   0.451   6.265 -0.8058  4.8801  0.3650
  606MOL0     H81798   6.914   0.049   6.230 -0.9710 -0.6780  1.3702
  606MOL0     H81799   6.857  -0.141   6.338  0.1584  1.4611 -1.5032
  606MOL0     H81800   7.106  -0.230   6.707  0.9618 -2.6345 -2.3504
  606MOL0     H81801   6.972  -0.148   6.778  2.5887  2.7472 -1.7425
  606MOL0     H81802   6.995  -0.436   6.702  0.6727 -0.2935  0.8461
  606MOL0     H81803   6.854  -0.371   6.799 -0.7424 -0.3802 -2.6592
  606MOL0     H81804   7.143  -0.351   6.908 -0.2794 -0.4629 -0.6760
  606MOL0     H81805   7.050  -0.484   6.936  1.5635  1.0281  0.4072
  606MOL0     H81806   6.982  -0.203   7.025 -0.7762  0.0194  1.0029
  606MOL0     H81807   7.054  -0.324   7.127  0.9474  0.0866 -0.0479
  606MOL0     H81808   6.657  -0.384   7.195  0.4659 -1.5877 -2.1993
  606MOL0     H81809   7.138  -0.027   6.655 -0.0232 -1.8089  0.1265
  606MOL0     H81810   7.200   0.156   6.537 -0.3726 -0.0383  1.2008
  607MOL0     O81811   7.227   1.700   1.301  0.1959  0.2720  0.7830
  607MOL0     C81812   7.281   1.697   1.188  0.6418 -0.2675 -0.3483
  607MOL0     O81813   7.213   1.651   1.078  0.0026 -0.0214  0.1330
  607MOL0     C81814   7.080   1.607   1.096 -0.2955  0.6909 -0.2602
  607MOL0     C81815   7.030   1.533   1.204 -0.6234 -0.2136  0.5544
  607MOL0     C81816   6.896   1.496   1.219 -0.3869  0.2984  0.1615
  607MOL0     C81817   6.808   1.523   1.111 -0.9094  0.3877  0.4861
  607MOL0     O81818   6.680   1.482   1.118  0.1771  0.6594 -0.9653
  607MOL0     C81819   6.585   1.487   1.008 -0.6429  0.2156 -0.4982
  607MOL0     C81820   6.463   1.425   1.074 -0.2769  0.8697 -0.3314
  607MOL0     C81821   6.390   1.501   1.191 -0.7827  0.0844  0.3428
  607MOL0     C81822   6.275   1.591   1.140 -0.0594 -0.2405  0.1385
  607MOL0     C81823   6.135   1.531   1.149  0.1970 -0.0222 -0.0534
  607MOL0     C81824   6.099   1.473   1.287  0.0117  0.0267 -1.2350
  607MOL0     C81825   5.952   1.421   1.282  0.0736  0.0520  0.2365
  607MOL0     C81826   5.904   1.386   1.425  0.1429  0.0373 -0.0162
  607MOL0     N81827   5.765   1.368   1.416 -0.2012  0.2471 -0.7371
  607MOL0     C81828   5.671   1.475   1.428  0.4368  0.3518 -0.4200
  607MOL0     C81829   5.540   1.413   1.424 -0.0749 -0.2006 -0.8015
  607MOL0     C81830   5.410   1.475   1.430  0.2653 -0.4976  0.2695
  607MOL0     C81831   5.290   1.376   1.449 -0.6585 -0.7964  0.1011
  607MOL0     C81832   5.169   1.441   1.528 -0.1065  0.1561  0.5404
  607MOL0     C81833   5.058   1.339   1.518 -0.3300  0.7989  0.3912
  607MOL0     O81834   5.017   1.311   1.383 -0.0728  0.4802  0.0434
  607MOL0     C81835   4.966   1.419   1.312  1.2033 -0.2103  0.4147
  607MOL0     C81836   5.006   1.424   1.177 -0.1807  0.2042  0.6157
  607MOL0     C81837   4.953   1.521   1.095 -0.5962  0.2110 -1.1376
  607MOL0     C81838   4.997   1.502   0.942 -0.0903  0.1628 -0.7259
  607MOL0     C81839   4.849   1.608   1.136 -0.2597 -0.1966 -0.7302
  607MOL0     C81840   4.775   1.701   1.050  0.4036  0.0596  0.5144
  607MOL0     O81841   4.646   1.710   1.083  0.3751  0.5153  0.1913
  607MOL0     C81842   4.541   1.775   1.022 -0.3648 -0.8155  0.6192
  607MOL0     C81843   4.428   1.805   1.095 -0.2283  0.4827 -0.0623
  607MOL0     C81844   4.320   1.870   1.038 -0.9685 -0.8881  0.3141
  607MOL0     C81845   4.324   1.908   0.903  0.7370 -0.8202  0.0148
  607MOL0     O81846   4.219   1.990   0.866 -0.6008  0.5072  0.4378
  607MOL0     C81847   4.107   1.918   0.815 -0.9235  0.0357 -0.4541
  607MOL0     C81848   3.984   2.011   0.822  0.1189  0.2867 -0.3912
  607MOL0     C81849   3.857   1.977   0.749  0.9010 -0.6201 -0.5357
  607MOL0     C81850   3.761   2.097   0.745  0.6857 -0.7166 -0.1070
  607MOL0     C81851   3.646   2.094   0.638 -0.0975  0.2830 -0.1314
  607MOL0     C81852   3.602   1.953   0.609  0.0046 -0.0496 -0.1058
  607MOL0     C81853   3.484   1.940   0.512 -0.2250 -0.3245  0.3299
  607MOL0     C81854   3.363   2.013   0.567 -0.2382  0.0573 -0.0641
  607MOL0    Cl81855   3.302   1.954   0.723 -0.1591  0.2891 -0.1014
  607MOL0     C81856   4.424   1.855   0.825  0.2504 -0.4764 -0.2409
  607MOL0     C81857   4.538   1.806   0.885 -0.0973  0.1609  0.2425
  607MOL0     O81858   4.838   1.758   0.960 -0.4259  0.0670 -0.2265
  607MOL0     C81859   4.816   1.614   1.277  0.1663 -0.4815 -0.8110
  607MOL0     C81860   4.865   1.506   1.358 -0.7434  0.6916 -0.0774
  607MOL0     N81861   5.576   1.274   1.420 -0.4985 -0.3976  0.0925
  607MOL0     N81862   5.700   1.252   1.412 -0.4203  0.8048 -0.5813
  607MOL0     C81863   6.857   1.595   1.001  0.9678 -0.0329 -0.2015
  607MOL0     C81864   6.988   1.630   0.992 -0.2371  0.4660  0.5481
  607MOL0     C81865   7.414   1.745   1.171 -0.6654 -0.4473  0.1962
  607MOL0     C81866   7.452   1.872   1.205 -0.2105  0.0081 -0.6081
  607MOL0     C81867   7.592   1.906   1.192 -0.1641  0.0962  0.0372
  607MOL0     C81868   7.687   1.816   1.147  0.2038  1.0673 -1.3927
  607MOL0     O81869   7.826   1.845   1.146  0.4187 -0.1738  0.3415
  607MOL0     C81870   7.867   1.987   1.153 -0.1772 -0.0306 -0.5133
  607MOL0     C81871   8.019   1.995   1.147  0.5314  0.3934  0.6907
  607MOL0     C81872   8.053   2.140   1.173 -0.2568 -0.0170  0.7046
  607MOL0     C81873   8.202   2.151   1.189 -0.5386  0.6041  0.0474
  607MOL0     C81874   8.225   2.297   1.200 -0.0635 -0.5659  0.6405
  607MOL0     C81875   8.238   2.417   1.217 -0.3770  0.2775  0.5297
  607MOL0     C81876   7.653   1.686   1.121 -0.2911  0.1892  0.7071
  607MOL0     C81877   7.513   1.651   1.127  0.9207 -0.9662 -0.0890
  607MOL0     H81878   7.098   1.506   1.284  0.8733 -3.4611 -1.5750
  607MOL0     H81879   6.856   1.437   1.300 -2.5194  0.4018 -0.7330
  607MOL0     H81880   6.565   1.593   0.988  1.1579 -0.0498 -4.5608
  607MOL0     H81881   6.618   1.431   0.920  0.9545  2.9933 -1.8178
  607MOL0     H81882   6.392   1.399   0.995 -0.7076 -1.0967  0.6253
  607MOL0     H81883   6.497   1.327   1.109  0.5924  1.9692  2.1029
  607MOL0     H81884   6.355   1.434   1.270 -1.3510 -0.4510 -0.3618
  607MOL0     H81885   6.466   1.563   1.241 -0.2561  1.3623 -1.8942
  607MOL0     H81886   6.268   1.693   1.178  0.8016 -0.0392 -0.2111
  607MOL0     H81887   6.289   1.617   1.035  1.4568  0.8555  0.5724
  607MOL0     H81888   6.064   1.606   1.112 -2.6817 -3.5065 -2.2807
  607MOL0     H81889   6.120   1.445   1.083  0.8378 -0.4716  0.3666
  607MOL0     H81890   6.163   1.391   1.321 -1.0718 -0.6156 -0.7053
  607MOL0     H81891   6.118   1.560   1.350 -0.3003 -1.4444  1.0272
  607MOL0     H81892   5.884   1.493   1.236 -0.3287 -0.0994  0.5848
  607MOL0     H81893   5.953   1.331   1.220 -2.3632  1.4127 -1.9923
  607MOL0     H81894   5.925   1.467   1.495  0.7415  0.8690 -1.1297
  607MOL0     H81895   5.945   1.295   1.471 -1.2171 -2.1525 -2.7719
  607MOL0     H81896   5.699   1.580   1.440 -2.2041  1.7792 -4.4935
  607MOL0     H81897   5.413   1.543   1.516  0.0220  1.5980 -1.2995
  607MOL0     H81898   5.390   1.541   1.346  2.1467  1.1598  1.0580
  607MOL0     H81899   5.318   1.283   1.499  0.1120 -1.0642 -0.7841
  607MOL0     H81900   5.262   1.343   1.348  0.1548 -0.7885 -0.1401
  607MOL0     H81901   5.129   1.531   1.480 -0.6726 -0.3362  0.0706
  607MOL0     H81902   5.196   1.449   1.634  2.3908 -0.7669  0.0303
  607MOL0     H81903   4.980   1.378   1.585  0.3812  0.4024  1.4820
  607MOL0     H81904   5.102   1.251   1.565  0.1172  0.8845  0.1394
  607MOL0     H81905   5.069   1.345   1.137  0.8511  1.1008  0.4477
  607MOL0     H81906   5.060   1.585   0.908 -0.3425  0.5188 -0.3210
  607MOL0     H81907   5.064   1.415   0.937 -3.5652 -2.7148 -1.6877
  607MOL0     H81908   4.909   1.477   0.882 -1.1298 -0.3030  0.9242
  607MOL0     H81909   4.438   1.772   1.198  1.2262  1.9811  0.3334
  607MOL0     H81910   4.233   1.892   1.099 -1.9266 -0.6886 -1.0491
  607MOL0     H81911   4.118   1.868   0.719 -1.4927 -0.7958 -0.1004
  607MOL0     H81912   4.078   1.836   0.882 -1.5955  0.0503 -0.7173
  607MOL0     H81913   3.957   2.023   0.928 -0.3283  2.1527 -0.6785
  607MOL0     H81914   4.022   2.110   0.794 -0.1425  1.0737  1.7837
  607MOL0     H81915   3.812   1.893   0.804 -0.2454  1.0088  1.1409
  607MOL0     H81916   3.888   1.947   0.648  2.7428 -1.0447  0.1094
  607MOL0     H81917   3.700   2.086   0.835 -1.9135 -2.3209 -1.9161
  607MOL0     H81918   3.809   2.193   0.724 -0.7097  0.7256  2.8549
  607MOL0     H81919   3.692   2.126   0.544 -1.6645  1.4624 -0.5472
  607MOL0     H81920   3.567   2.166   0.663  0.3004  0.6863 -0.0180
  607MOL0     H81921   3.684   1.886   0.579 -0.1532 -1.0931  1.6310
  607MOL0     H81922   3.580   1.904   0.704  0.1192 -0.1704 -0.1405
  607MOL0     H81923   3.463   1.833   0.497  3.0854 -0.9927 -0.1819
  607MOL0     H81924   3.510   1.979   0.414  0.3883 -1.0197  0.2079
  607MOL0     H81925   3.280   2.009   0.495  0.8209 -0.4989 -1.2827
  607MOL0     H81926   3.388   2.119   0.570 -0.9525  0.2134  0.9731
  607MOL0     H81927   4.432   1.875   0.718  1.3137  1.5292  0.1583
  607MOL0     H81928   4.624   1.795   0.819  0.7812 -1.6616  1.5909
  607MOL0     H81929   4.750   1.691   1.315 -1.5747 -0.7011 -3.1637
  607MOL0     H81930   4.832   1.489   1.460  0.6005 -3.5936 -0.1762
  607MOL0     H81931   6.784   1.609   0.922 -4.2694  1.9305  4.3203
  607MOL0     H81932   7.015   1.659   0.891 -2.0504  0.1599 -0.0605
  607MOL0     H81933   7.373   1.942   1.233 -0.8912 -1.0696  0.2628
  607MOL0     H81934   7.598   2.014   1.204  1.4652 -0.0290  0.5491
  607MOL0     H81935   7.822   2.045   1.072 -1.1855  4.2242  2.7065
  607MOL0     H81936   7.828   2.034   1.244 -0.1571 -2.8465  1.0690
  607MOL0     H81937   8.051   1.959   1.048  1.5371 -1.7824  1.7336
  607MOL0     H81938   8.058   1.928   1.224  0.8085  0.8705  0.9628
  607MOL0     H81939   8.005   2.179   1.263  0.7615 -0.8722  1.6583
  607MOL0     H81940   8.021   2.195   1.084  1.6520 -0.0500 -0.0404
  607MOL0     H81941   8.254   2.105   1.105 -0.8516  0.7608 -0.2356
  607MOL0     H81942   8.251   2.105   1.275  2.0631 -0.2372 -1.7806
  607MOL0     H81943   8.248   2.522   1.233  2.0405 -0.1400  2.2453
  607MOL0     H81944   7.729   1.621   1.078  1.3952  2.3011  0.2707
  607MOL0     H81945   7.473   1.554   1.099 -3.6147 -0.3611  3.2102
  608MOL0     O81946   2.135   1.083   4.761  0.0533 -0.2971 -0.0182
  608MOL0     C81947   2.078   1.176   4.710  0.1906 -0.0733  0.7250
  608MOL0     O81948   1.941   1.191   4.695 -0.1481  0.2479  0.7461
  608MOL0     C81949   1.860   1.119   4.783  1.1181 -0.4216  0.1501
  608MOL0     C81950   1.899   1.093   4.914  0.1821  0.9895 -0.0056
  608MOL0     C81951   1.812   1.035   5.006 -0.2036 -0.3966 -0.1247
  608MOL0     C81952   1.680   1.007   4.967  0.0134  0.3010  0.3414
  608MOL0     O81953   1.590   0.948   5.049  0.8102 -0.3986  0.0247
  608MOL0     C81954   1.512   1.036   5.135  1.2538 -0.7674 -0.4100
  608MOL0     C81955   1.419   1.135   5.065  0.4201  0.1013  0.1478
  608MOL0     C81956   1.298   1.168   5.164 -0.3507 -0.4922  0.8732
  608MOL0     C81957   1.186   1.240   5.084 -0.2782  0.2541  0.6269
  608MOL0     C81958   1.094   1.149   5.009  0.7596  0.7042  0.4385
  608MOL0     C81959   0.987   1.226   4.935  0.1858  0.3770 -0.2512
  608MOL0     C81960   0.931   1.143   4.822  0.0370 -0.5287 -0.5767
  608MOL0     C81961   0.835   1.042   4.872 -0.3839 -0.3384 -0.4003
  608MOL0     N81962   0.777   0.965   4.763  0.6262  0.0038 -0.1378
  608MOL0     C81963   0.699   1.015   4.664 -0.1764  0.2022  0.2328
  608MOL0     C81964   0.639   0.913   4.609 -0.5013  0.3485  0.1369
  608MOL0     C81965   0.556   0.927   4.487  0.7277 -0.2046 -0.1131
  608MOL0     C81966   0.407   0.883   4.502  0.8211 -0.4555  0.2569
  608MOL0     C81967   0.332   0.967   4.606 -0.5009 -0.4977  0.1170
  608MOL0     C81968   0.190   0.921   4.637 -0.2739  0.3321 -1.1115
  608MOL0     O81969   0.185   0.790   4.697 -0.5341  0.0070 -0.6682
  608MOL0     C81970   0.066   0.736   4.739 -0.7450 -0.8044 -1.1059
  608MOL0     C81971   0.073   0.614   4.808 -0.6176 -0.9840  0.0295
  608MOL0     C81972  -0.037   0.580   4.896  0.6693  0.4909  0.0871
  608MOL0     C81973  -0.003   0.468   4.990 -0.2351  0.3854 -0.4127
  608MOL0     C81974  -0.155   0.654   4.884  0.5009  0.4531  0.0937
  608MOL0     C81975  -0.278   0.606   4.947  0.1039  0.0642 -0.9766
  608MOL0     O81976  -0.386   0.667   4.902 -0.0313  0.1663 -0.7373
  608MOL0     C81977  -0.512   0.612   4.921 -0.5254 -0.4511 -0.4036
  608MOL0     C81978  -0.534   0.490   4.858 -0.3202  0.2501  0.3730
  608MOL0     C81979  -0.670   0.456   4.824  0.0719  0.4996 -0.6877
  608MOL0     C81980  -0.774   0.542   4.854 -0.5352 -0.1641 -0.2165
  608MOL0     O81981  -0.899   0.506   4.802  0.6503 -0.6450  0.1786
  608MOL0     C81982  -1.014   0.568   4.858  0.3623  0.7258  0.2248
  608MOL0     C81983  -1.137   0.475   4.828  0.6857  1.0537 -0.7241
  608MOL0     C81984  -1.127   0.341   4.892  0.0815  0.2672 -0.5705
  608MOL0     C81985  -1.257   0.262   4.874 -0.6872 -0.6161 -0.6034
  608MOL0     C81986  -1.236   0.108   4.890  0.3590 -0.1393 -0.2552
  608MOL0     C81987  -1.369   0.048   4.935  0.6318 -0.1373  0.3170
  608MOL0     C81988  -1.378  -0.102   4.925  0.1576 -0.4833 -0.3795
  608MOL0     C81989  -1.332  -0.179   5.057 -1.3239 -0.7421 -0.1894
  608MOL0    Cl81990  -1.145  -0.172   5.079 -0.2840  0.1112 -0.1149
  608MOL0     C81991  -0.751   0.661   4.930 -0.2580 -0.3739 -0.3875
  608MOL0     C81992  -0.619   0.690   4.960 -0.1677  0.5717  0.1520
  608MOL0     O81993  -0.278   0.504   5.013  0.4101 -0.0601 -0.0161
  608MOL0     C81994  -0.171   0.750   4.789 -0.3083 -0.1337  0.1327
  608MOL0     C81995  -0.055   0.795   4.729 -0.1237  0.0417 -0.1133
  608MOL0     N81996   0.670   0.798   4.672 -0.3697  0.4858  0.5852
  608MOL0     N81997   0.761   0.832   4.761  0.2294 -1.0160 -0.1434
  608MOL0     C81998   1.642   1.030   4.840  0.1414 -0.3673 -0.3858
  608MOL0     C81999   1.726   1.093   4.746  0.4837  1.3399  0.4537
  608MOL0     C82000   2.162   1.277   4.639 -0.2833 -0.2602  0.5740
  608MOL0     C82001   2.288   1.242   4.592  0.2347  0.0399  0.7659
  608MOL0     C82002   2.360   1.338   4.529 -0.3010 -0.1853  0.1657
  608MOL0     C82003   2.323   1.473   4.507  0.4577 -0.0760 -0.4780
  608MOL0     O82004   2.401   1.556   4.437 -0.0646 -0.1018 -0.2424
  608MOL0     C82005   2.357   1.616   4.316 -0.3557  0.3694 -0.3769
  608MOL0     C82006   2.455   1.722   4.263 -0.5162  0.0744  0.2680
  608MOL0     C82007   2.598   1.666   4.267  0.1564  0.2026  0.2455
  608MOL0     C82008   2.605   1.555   4.165  0.2631  0.3595 -0.1775
  608MOL0     C82009   2.748   1.518   4.153  0.6682  1.0803 -0.8739
  608MOL0     C82010   2.866   1.485   4.144 -0.2092 -0.0448  0.1181
  608MOL0     C82011   2.196   1.508   4.555 -0.2469 -0.4208 -0.9555
  608MOL0     C82012   2.116   1.408   4.618 -0.2128 -0.4957 -0.0461
  608MOL0     H82013   1.999   1.113   4.951  0.3996  2.7765 -1.4307
  608MOL0     H82014   1.851   1.031   5.107 -1.4559 -0.6011  0.3643
  608MOL0     H82015   1.451   0.969   5.197 -0.4356  1.5194  0.5439
  608MOL0     H82016   1.563   1.104   5.203 -2.3479  0.6912  1.0783
  608MOL0     H82017   1.482   1.224   5.053  1.7325 -0.4386  2.4973
  608MOL0     H82018   1.389   1.091   4.969  1.8237  1.3016 -0.8862
  608MOL0     H82019   1.252   1.075   5.199 -1.1485 -1.8144 -3.2011
  608MOL0     H82020   1.325   1.227   5.253  0.7491 -2.3636  1.8287
  608MOL0     H82021   1.125   1.310   5.142  0.4572 -0.0714  1.8395
  608MOL0     H82022   1.235   1.306   5.012 -1.1659 -1.7521 -1.9418
  608MOL0     H82023   1.154   1.095   4.935  0.0581  2.2608 -1.3518
  608MOL0     H82024   1.045   1.082   5.080  1.3387  3.7202  4.0415
  608MOL0     H82025   0.911   1.249   5.010  0.9780  0.5463  0.5174
  608MOL0     H82026   1.041   1.312   4.896  0.8725 -0.6271 -1.6224
  608MOL0     H82027   0.875   1.211   4.758  2.5830  3.2467  0.8581
  608MOL0     H82028   1.002   1.089   4.759  0.3112 -0.6399 -0.1787
  608MOL0     H82029   0.755   1.094   4.924  1.4424 -0.1222  2.4316
  608MOL0     H82030   0.885   0.984   4.951 -0.3041  0.1101 -0.1210
  608MOL0     H82031   0.714   1.119   4.635  1.0717  1.1236  3.6448
  608MOL0     H82032   0.563   1.030   4.453  3.6304 -0.8383 -1.7809
  608MOL0     H82033   0.602   0.863   4.411  0.5785  0.2337 -0.5783
  608MOL0     H82034   0.411   0.778   4.533 -0.1083 -0.5568  0.0455
  608MOL0     H82035   0.347   0.884   4.411 -2.4878 -3.2426  2.1784
  608MOL0     H82036   0.327   1.066   4.559 -2.9583 -1.7573 -2.6527
  608MOL0     H82037   0.380   0.962   4.704 -1.4811  0.5039  0.6715
  608MOL0     H82038   0.117   0.923   4.556 -1.3256 -0.0939 -0.2067
  608MOL0     H82039   0.150   0.989   4.713  2.3047 -0.2871  0.9323
  608MOL0     H82040   0.165   0.559   4.821  0.0626 -0.5670 -2.4968
  608MOL0     H82041   0.104   0.454   5.009 -0.5892 -3.2992 -0.3794
  608MOL0     H82042  -0.044   0.490   5.089  1.0103 -0.6434  0.3631
  608MOL0     H82043  -0.046   0.376   4.948 -2.8945  0.6988  1.3666
  608MOL0     H82044  -0.463   0.427   4.806 -1.8018 -0.0110 -1.4645
  608MOL0     H82045  -0.688   0.371   4.759 -0.5717  2.8041 -3.7876
  608MOL0     H82046  -0.998   0.584   4.965  0.7809 -0.7863  0.4197
  608MOL0     H82047  -1.035   0.667   4.818 -0.2726  1.1094  1.4612
  608MOL0     H82048  -1.226   0.516   4.877 -0.3979 -0.2854 -1.4993
  608MOL0     H82049  -1.159   0.455   4.722 -2.0497 -0.0891 -0.0291
  608MOL0     H82050  -1.123   0.368   4.998  0.6937 -0.7275 -0.3231
  608MOL0     H82051  -1.033   0.290   4.867 -0.7082 -0.6437 -1.7552
  608MOL0     H82052  -1.322   0.298   4.954 -0.4440 -0.4721 -0.4725
  608MOL0     H82053  -1.322   0.285   4.789  1.5216  1.2851 -1.8976
  608MOL0     H82054  -1.158   0.075   4.959  0.6598 -0.1790 -0.6050
  608MOL0     H82055  -1.215   0.060   4.794  1.1306 -3.6041  1.4858
  608MOL0     H82056  -1.391   0.077   5.039  3.9455 -1.2779  1.4722
  608MOL0     H82057  -1.444   0.101   4.875  1.8128  1.7706  0.4365
  608MOL0     H82058  -1.326  -0.150   4.842  0.5561 -0.9245  0.1110
  608MOL0     H82059  -1.481  -0.136   4.909 -1.1906  1.1871  3.5296
  608MOL0     H82060  -1.357  -0.286   5.056 -0.3239 -1.2206  4.4678
  608MOL0     H82061  -1.367  -0.135   5.151 -0.3903 -0.4828  0.0472
  608MOL0     H82062  -0.832   0.725   4.962 -1.7636 -1.7730 -1.2339
  608MOL0     H82063  -0.590   0.770   5.029  1.0399 -1.3880  2.0444
  608MOL0     H82064  -0.269   0.792   4.765 -1.9282 -2.9302  1.3815
  608MOL0     H82065  -0.060   0.886   4.670  1.9163  0.3295  0.0774
  608MOL0     H82066   1.538   1.013   4.814  0.1091  1.0285 -1.3177
  608MOL0     H82067   1.703   1.115   4.642  2.5810  0.3481 -0.2675
  608MOL0     H82068   2.325   1.141   4.605  0.7511  0.1297  0.0414
  608MOL0     H82069   2.447   1.307   4.471  0.6863  1.4832  0.6808
  608MOL0     H82070   2.348   1.538   4.240 -1.7220 -0.2673  0.3966
  608MOL0     H82071   2.262   1.667   4.336  1.7647  3.1666  4.3912
  608MOL0     H82072   2.452   1.807   4.333 -1.3420  0.6239 -0.4126
  608MOL0     H82073   2.427   1.752   4.162  0.9228 -0.1907 -0.2222
  608MOL0     H82074   2.618   1.633   4.369  0.0125 -0.1969  0.1498
  608MOL0     H82075   2.660   1.751   4.238 -2.3130  3.0225  2.5938
  608MOL0     H82076   2.574   1.584   4.064  3.3630  1.7834 -0.8410
  608MOL0     H82077   2.548   1.466   4.193  3.0082 -2.0013 -1.5180
  608MOL0     H82078   2.965   1.444   4.130 -0.3475  0.5397 -3.6275
  608MOL0     H82079   2.166   1.610   4.534 -1.3262 -1.0517 -2.6606
  608MOL0     H82080   2.025   1.455   4.654  0.8612  3.6072 -2.1440
  609MOL0     O82081   5.637   4.093   4.658  0.2253 -0.9651  0.3946
  609MOL0     C82082   5.704   4.004   4.611  0.7545 -0.1124  0.0570
  609MOL0     O82083   5.664   3.876   4.565 -0.1117 -0.1892  0.1166
  609MOL0     C82084   5.532   3.837   4.555 -1.0302 -0.2080 -0.1590
  609MOL0     C82085   5.504   3.705   4.523 -0.6462 -0.2062 -0.0307
  609MOL0     C82086   5.371   3.661   4.528 -0.3074 -0.0570  0.4007
  609MOL0     C82087   5.268   3.743   4.548  0.0038 -0.0018 -0.2554
  609MOL0     O82088   5.139   3.702   4.567  0.1391 -0.1988  0.0945
  609MOL0     C82089   5.051   3.668   4.455 -0.6057 -0.2668  0.2880
  609MOL0     C82090   5.094   3.544   4.370  0.1653  0.4777 -0.2433
  609MOL0     C82091   5.018   3.520   4.241  0.8024 -0.6983 -0.4735
  609MOL0     C82092   5.096   3.520   4.116  0.3815  0.1563  0.1564
  609MOL0     C82093   5.010   3.526   3.995 -0.6874 -0.3787  0.3250
  609MOL0     C82094   5.014   3.670   3.941 -0.5991 -0.4525  0.2922
  609MOL0     C82095   5.149   3.735   3.918 -0.2953 -0.1456  0.7863
  609MOL0     C82096   5.233   3.660   3.805 -0.7033  0.3493 -0.3796
  609MOL0     N82097   5.353   3.734   3.793 -0.4324  0.3869 -0.6937
  609MOL0     C82098   5.470   3.684   3.823 -0.2100  0.9919  0.0320
  609MOL0     C82099   5.562   3.776   3.781 -0.6296 -0.5072 -0.0124
  609MOL0     C82100   5.710   3.771   3.807  0.3668 -0.0317 -0.2289
  609MOL0     C82101   5.735   3.896   3.899 -0.6776  0.5409  0.2222
  609MOL0     C82102   5.881   3.886   3.945 -0.3146  0.7305 -0.0710
  609MOL0     C82103   5.988   3.889   3.831  0.2902  0.8258  0.4327
  609MOL0     O82104   6.110   3.923   3.887  0.0029  0.5144 -0.1597
  609MOL0     C82105   6.217   3.956   3.809 -0.5852  0.0260 -0.5848
  609MOL0     C82106   6.330   4.014   3.875  0.4926  0.0369 -1.2814
  609MOL0     C82107   6.439   4.066   3.813 -0.2565 -0.9330  0.5657
  609MOL0     C82108   6.526   4.159   3.902  0.8715 -0.7100  0.4481
  609MOL0     C82109   6.446   4.056   3.665  1.1041 -0.1961  0.1998
  609MOL0     C82110   6.544   4.130   3.575  1.2145  0.0461 -0.7067
  609MOL0     O82111   6.521   4.111   3.443  0.2634 -0.2575  0.5272
  609MOL0     C82112   6.615   4.130   3.350 -0.0542 -0.2718 -0.0328
  609MOL0     C82113   6.572   4.162   3.221 -1.1072 -0.5354 -0.5323
  609MOL0     C82114   6.652   4.217   3.117  1.1514  1.3053 -0.9260
  609MOL0     C82115   6.787   4.250   3.150 -0.0059  1.4041 -0.8171
  609MOL0     O82116   6.864   4.275   3.038 -0.5873 -0.2833 -0.5834
  609MOL0     C82117   7.006   4.248   3.043 -0.3531 -0.5654  0.2288
  609MOL0     C82118   7.076   4.267   2.914  0.5728 -0.3427  0.9453
  609MOL0     C82119   7.085   4.425   2.878 -0.2932  0.1396  0.4251
  609MOL0     C82120   7.194   4.454   2.775  0.8239 -0.8157 -0.0971
  609MOL0     C82121   7.256   4.594   2.774 -0.1973  0.0282  0.6872
  609MOL0     C82122   7.152   4.704   2.734 -0.3474  0.9057  0.0403
  609MOL0     C82123   7.070   4.662   2.608 -0.5951 -0.1184 -1.6947
  609MOL0     C82124   7.020   4.780   2.540 -0.5500 -0.4036 -0.3159
  609MOL0    Cl82125   6.933   4.735   2.389  0.3107  0.6302 -0.2619
  609MOL0     C82126   6.836   4.215   3.275 -0.8496  0.3181 -0.1689
  609MOL0     C82127   6.745   4.158   3.373 -0.4748 -0.3972 -0.2951
  609MOL0     O82128   6.639   4.190   3.625 -0.2682 -0.3068  0.6963
  609MOL0     C82129   6.344   3.985   3.604 -0.6143  1.4947 -0.1698
  609MOL0     C82130   6.233   3.930   3.672 -0.0894  0.1602  0.1014
  609MOL0     N82131   5.492   3.881   3.725 -0.9122 -0.2661 -0.4713
  609MOL0     N82132   5.366   3.851   3.733 -0.7526 -0.3539  0.1784
  609MOL0     C82133   5.296   3.872   4.571  0.2250 -0.0943 -0.2947
  609MOL0     C82134   5.420   3.918   4.587 -0.4698  0.1187 -0.2531
  609MOL0     C82135   5.849   4.022   4.613  0.2074 -0.2641  0.1383
  609MOL0     C82136   5.937   3.923   4.566  0.4072  0.2923  0.3917
  609MOL0     C82137   6.076   3.953   4.566  0.6851  0.5057 -0.1568
  609MOL0     C82138   6.130   4.069   4.615  0.4545  0.3698 -0.5814
  609MOL0     O82139   6.270   4.074   4.618 -0.1585  0.3708 -1.1987
  609MOL0     C82140   6.326   4.207   4.649  0.6730  0.9763  0.2394
  609MOL0     C82141   6.476   4.199   4.617 -0.0177  0.2908 -0.1529
  609MOL0     C82142   6.546   4.328   4.588 -0.7059  0.3039  1.0292
  609MOL0     C82143   6.697   4.293   4.552 -0.0574 -0.0517  0.5293
  609MOL0     C82144   6.786   4.296   4.664 -0.7086 -0.3416  0.4603
  609MOL0     C82145   6.859   4.302   4.760 -1.0097  0.4920  0.3367
  609MOL0     C82146   6.039   4.171   4.644  0.2615 -0.6651  0.6763
  609MOL0     C82147   5.904   4.149   4.644 -0.4134  0.5614 -0.6393
  609MOL0     H82148   5.578   3.630   4.498 -0.9981 -0.9362  1.0494
  609MOL0     H82149   5.341   3.557   4.516 -0.7506  0.1790 -0.6211
  609MOL0     H82150   4.955   3.635   4.495  0.3168 -2.8038  0.6017
  609MOL0     H82151   5.035   3.759   4.396 -0.9212  1.5865  3.0182
  609MOL0     H82152   5.201   3.542   4.348  0.7218  0.2012  2.2168
  609MOL0     H82153   5.071   3.465   4.442 -0.5266  1.1873  0.3278
  609MOL0     H82154   4.970   3.421   4.246  2.9870 -1.8888 -1.4986
  609MOL0     H82155   4.944   3.597   4.221  0.7668 -0.7165 -0.4151
  609MOL0     H82156   5.181   3.588   4.125  0.5216  0.1316 -0.8446
  609MOL0     H82157   5.154   3.427   4.111  3.8604  2.1850 -0.9123
  609MOL0     H82158   5.064   3.473   3.916 -0.3660  1.0922 -0.4846
  609MOL0     H82159   4.906   3.501   4.016 -1.1314  1.5392  0.6036
  609MOL0     H82160   4.963   3.674   3.844  1.0811 -1.9303 -0.7306
  609MOL0     H82161   4.971   3.738   4.014  0.8687  0.7109  0.1202
  609MOL0     H82162   5.133   3.839   3.887  5.0130  0.3984 -1.3292
  609MOL0     H82163   5.204   3.747   4.012 -0.0030  1.2463  0.4606
  609MOL0     H82164   5.191   3.665   3.704  1.2222  0.9448 -1.1889
  609MOL0     H82165   5.259   3.560   3.843  2.7517  0.3857 -2.2704
  609MOL0     H82166   5.504   3.597   3.878 -2.6190 -1.1676 -1.6701
  609MOL0     H82167   5.724   3.683   3.870  1.5184  1.0205  1.0599
  609MOL0     H82168   5.766   3.768   3.713 -1.3263 -5.1143 -1.3592
  609MOL0     H82169   5.665   3.897   3.983 -2.8093  1.1938 -1.4734
  609MOL0     H82170   5.722   3.985   3.836  2.0484 -0.1853 -1.5682
  609MOL0     H82171   5.889   3.799   4.012  0.1143  0.7717 -0.0665
  609MOL0     H82172   5.891   3.979   4.003 -0.4155  0.0695  1.0466
  609MOL0     H82173   5.955   3.956   3.751  1.1051  2.3153  1.2995
  609MOL0     H82174   5.999   3.789   3.789 -1.7743 -1.9373  5.5938
  609MOL0     H82175   6.306   4.046   3.976  0.4826 -2.7618 -0.3228
  609MOL0     H82176   6.627   4.120   3.919  1.5666  1.4767  1.6544
  609MOL0     H82177   6.540   4.253   3.850  0.5006 -0.9554 -0.1047
  609MOL0     H82178   6.483   4.188   3.999 -0.6656 -0.1843 -0.3565
  609MOL0     H82179   6.471   4.143   3.187 -0.6718  0.4839 -2.5252
  609MOL0     H82180   6.605   4.230   3.020 -3.1672  0.8501  0.8924
  609MOL0     H82181   7.053   4.310   3.120 -0.9412 -0.8740  0.8508
  609MOL0     H82182   7.030   4.145   3.071  2.8241 -0.9340 -3.1041
  609MOL0     H82183   7.177   4.225   2.915  0.1552 -1.4177  0.2656
  609MOL0     H82184   7.025   4.214   2.833  0.6714 -0.2816  0.8426
  609MOL0     H82185   7.086   4.492   2.965 -3.5374 -0.6145  1.1830
  609MOL0     H82186   6.989   4.439   2.827  0.5100 -0.8772 -1.4673
  609MOL0     H82187   7.286   4.396   2.792  1.6776  0.3550 -0.5435
  609MOL0     H82188   7.159   4.412   2.681  0.0424  0.4760 -0.3998
  609MOL0     H82189   7.334   4.593   2.698  2.8188  1.8917  3.5467
  609MOL0     H82190   7.295   4.618   2.873  1.1048 -0.7574  0.3965
  609MOL0     H82191   7.094   4.735   2.822  0.1406 -3.2635  2.0526
  609MOL0     H82192   7.203   4.792   2.693 -0.6872 -0.9162 -5.0032
  609MOL0     H82193   6.989   4.602   2.649  3.4408 -3.0373  3.1204
  609MOL0     H82194   7.132   4.598   2.545  0.1554 -1.4496  0.2844
  609MOL0     H82195   7.102   4.849   2.516  1.0916 -2.0350  0.3197
  609MOL0     H82196   6.952   4.831   2.609 -1.3925 -1.3709 -0.4194
  609MOL0     H82197   6.939   4.240   3.296  0.0323 -3.0073  0.0395
  609MOL0     H82198   6.798   4.118   3.459 -0.3503 -0.5555 -0.4436
  609MOL0     H82199   6.353   3.954   3.500  1.0303 -1.3050  0.6953
  609MOL0     H82200   6.157   3.882   3.611  1.5949  1.1407 -2.9992
  609MOL0     H82201   5.214   3.941   4.589 -0.1734 -0.9638  1.4986
  609MOL0     H82202   5.417   4.024   4.609  0.9919  0.2877 -0.7465
  609MOL0     H82203   5.898   3.831   4.524 -0.9739  1.5913 -1.2890
  609MOL0     H82204   6.149   3.876   4.542  0.5218 -1.1752  3.9656
  609MOL0     H82205   6.278   4.287   4.592 -0.7580  0.7461  1.0671
  609MOL0     H82206   6.311   4.227   4.755 -1.3650  0.2761  0.1317
  609MOL0     H82207   6.491   4.124   4.539 -4.0436  0.8218 -1.6684
  609MOL0     H82208   6.509   4.150   4.709 -1.3388  0.5630  0.5012
  609MOL0     H82209   6.532   4.398   4.671 -2.9701 -0.2381  1.1781
  609MOL0     H82210   6.495   4.370   4.500 -0.2191  1.0409  1.0875
  609MOL0     H82211   6.735   4.362   4.476 -1.6210  0.1751 -0.0944
  609MOL0     H82212   6.695   4.198   4.498 -2.2781 -0.2754  0.9017
  609MOL0     H82213   6.935   4.305   4.835  0.4425  0.7399 -1.0639
  609MOL0     H82214   6.080   4.266   4.678 -0.4897  0.1047 -0.5078
  609MOL0     H82215   5.844   4.233   4.677 -0.8863 -0.1205  0.2826
  610MOL0     O82216  10.155   0.050  10.322 -0.4027  0.1946  0.0196
  610MOL0     C82217  10.183   0.158  10.282 -0.2416 -0.1277  0.0599
  610MOL0     O82218  10.087   0.259  10.239  0.1915  0.5166  0.3784
  610MOL0     C82219   9.950   0.255  10.252 -0.5080 -0.8018 -0.8321
  610MOL0     C82220   9.894   0.380  10.229  0.0009 -0.7864 -0.6446
  610MOL0     C82221   9.752   0.401  10.245  0.0562  0.7719 -0.2454
  610MOL0     C82222   9.670   0.287  10.273  0.1260 -0.1960 -0.1157
  610MOL0     O82223   9.532   0.286  10.282 -0.2113 -0.5684 -0.0435
  610MOL0     C82224   9.475   0.406  10.344 -0.9495 -0.0201 -0.5639
  610MOL0     C82225   9.325   0.400  10.362  0.5964 -0.6062  0.1956
  610MOL0     C82226   9.278   0.545  10.394 -0.3533  0.0417 -0.0899
  610MOL0     C82227   9.126   0.534  10.433  0.2380 -0.1769  0.1123
  610MOL0     C82228   9.077   0.679  10.452 -0.2695  0.0721 -0.2619
  610MOL0     C82229   8.946   0.664  10.537  0.1789  0.3495 -0.2753
  610MOL0     C82230   8.868   0.800  10.555  0.2003 -0.2135 -0.3476
  610MOL0     C82231   8.768   0.805  10.665  0.2205  0.7336  0.1317
  610MOL0     N82232   8.750   0.929  10.730  0.0950 -1.3615  0.7076
  610MOL0     C82233   8.677   1.030  10.674 -1.2434  0.2001 -0.1440
  610MOL0     C82234   8.648   1.112  10.784 -0.0359  0.3652 -0.1346
  610MOL0     C82235   8.556   1.228  10.792  0.7266  0.0767  0.2447
  610MOL0     C82236   8.411   1.182  10.757 -0.5955  0.0199  0.2233
  610MOL0     C82237   8.359   1.054  10.831  0.1744  0.1587 -0.6623
  610MOL0     C82238   8.355   1.076  10.985  0.0350  0.3455  0.4134
  610MOL0     O82239   8.284   1.197  11.009  0.1612 -0.3151 -0.5005
  610MOL0     C82240   8.148   1.190  11.030 -0.0898  0.6557  0.2134
  610MOL0     C82241   8.069   1.081  11.066  0.1089 -0.3606  0.2607
  610MOL0     C82242   7.930   1.099  11.092  1.0392  0.1496  0.2070
  610MOL0     C82243   7.853   0.974  11.139 -0.0028  0.0243 -0.3281
  610MOL0     C82244   7.874   1.233  11.072  1.0617 -0.1238  0.7071
  610MOL0     C82245   7.734   1.263  11.092 -0.0269  0.3588  1.1315
  610MOL0     O82246   7.701   1.392  11.110  0.7215  0.0726  0.4528
  610MOL0     C82247   7.568   1.424  11.135 -0.8076  0.3424 -1.1404
  610MOL0     C82248   7.460   1.402  11.048 -0.7157  0.6676  0.9319
  610MOL0     C82249   7.336   1.447  11.075  0.1077 -0.3551  0.5105
  610MOL0     C82250   7.312   1.509  11.202  0.4069 -0.2627  1.1486
  610MOL0     O82251   7.189   1.550  11.233 -0.9072  0.3323  0.8258
  610MOL0     C82252   7.092   1.444  11.252 -0.4139  0.4778 -0.3698
  610MOL0     C82253   6.993   1.502  11.343  0.4265  0.1036 -0.5738
  610MOL0     C82254   6.907   1.617  11.287 -0.1987 -0.0645  0.0930
  610MOL0     C82255   6.766   1.622  11.371  0.3050  0.1944 -0.4887
  610MOL0     C82256   6.682   1.736  11.320 -0.0926 -0.7762  1.4592
  610MOL0     C82257   6.536   1.715  11.337 -0.1273  0.1145 -0.8985
  610MOL0     C82258   6.457   1.841  11.321 -0.0489 -0.0022  0.7316
  610MOL0     C82259   6.317   1.820  11.373 -0.2690  0.0211 -0.2141
  610MOL0    Cl82260   6.326   1.817  11.558  0.1329  0.1150 -0.0669
  610MOL0     C82261   7.417   1.542  11.283  0.2709 -0.6432 -0.0032
  610MOL0     C82262   7.540   1.495  11.250  0.0217 -0.6997 -0.3312
  610MOL0     O82263   7.651   1.173  11.109  0.9914  0.1874 -0.2652
  610MOL0     C82264   7.959   1.334  11.021 -0.3639 -0.8036 -0.6693
  610MOL0     C82265   8.093   1.312  11.001 -0.2383 -0.1792 -0.4421
  610MOL0     N82266   8.715   1.057  10.899  0.2704 -0.0156  0.7534
  610MOL0     N82267   8.772   0.945  10.862  0.2962  0.1694  0.2936
  610MOL0     C82268   9.735   0.161  10.301  0.1002  0.6261 -0.0805
  610MOL0     C82269   9.873   0.146  10.287 -0.6296  0.6253  0.1030
  610MOL0     C82270  10.324   0.192  10.264  0.7307 -0.3310  0.9641
  610MOL0     C82271  10.359   0.325  10.249 -0.4249 -0.2614 -0.2499
  610MOL0     C82272  10.494   0.360  10.258 -0.9560  0.1206 -0.6418
  610MOL0     C82273  10.596   0.269  10.272  0.1386 -0.9322  0.9699
  610MOL0     O82274  10.719   0.321  10.268  0.3358 -0.6633  0.4914
  610MOL0     C82275  10.829   0.234  10.240 -0.3043  0.7885  0.4908
  610MOL0     C82276  10.967   0.298  10.267 -0.1866  0.3305  0.0251
  610MOL0     C82277  10.976   0.340  10.415  0.1722  0.0437  0.0999
  610MOL0     C82278  11.124   0.373  10.465 -0.0295 -0.5620 -0.0785
  610MOL0     C82279  11.180   0.484  10.377  0.6323 -0.4644  0.7476
  610MOL0     C82280  11.234   0.553  10.308 -0.6299 -0.5883  0.0251
  610MOL0     C82281  10.556   0.134  10.280 -0.5171  0.4473  0.5019
  610MOL0     C82282  10.424   0.100  10.287  1.1264 -0.1938  0.0962
  610MOL0     H82283   9.961   0.462  10.203 -0.8869 -0.3598 -1.6553
  610MOL0     H82284   9.717   0.501  10.225 -0.4212  0.1404 -2.8860
  610MOL0     H82285   9.528   0.410  10.441  2.3484 -0.9448 -2.1683
  610MOL0     H82286   9.499   0.499  10.291 -0.5625  0.0514 -0.2754
  610MOL0     H82287   9.288   0.348  10.274 -1.4490 -1.9404  1.7525
  610MOL0     H82288   9.294   0.343  10.450 -0.7809 -1.4549 -0.7981
  610MOL0     H82289   9.335   0.591  10.476 -0.5934 -0.3245  0.2822
  610MOL0     H82290   9.291   0.612  10.309  0.5583 -1.7612 -1.4384
  610MOL0     H82291   9.067   0.481  10.358  0.3148 -0.9755  0.6045
  610MOL0     H82292   9.114   0.483  10.530  1.9640 -1.3116 -0.2304
  610MOL0     H82293   9.153   0.736  10.507  1.4459 -1.4389 -0.9784
  610MOL0     H82294   9.054   0.737  10.362  0.1737  0.8724  0.1230
  610MOL0     H82295   8.877   0.593  10.491  0.2113  2.5260 -4.0621
  610MOL0     H82296   8.972   0.608  10.627 -1.1186 -3.4655 -2.0634
  610MOL0     H82297   8.938   0.881  10.579 -0.5133 -0.6645  3.9971
  610MOL0     H82298   8.810   0.823  10.465  0.3474 -0.2480 -0.4533
  610MOL0     H82299   8.796   0.744  10.752  1.0477  0.4437 -0.3255
  610MOL0     H82300   8.674   0.758  10.634  2.1356 -2.2380 -1.7940
  610MOL0     H82301   8.638   1.034  10.572  0.4198 -0.4354 -0.8289
  610MOL0     H82302   8.559   1.275  10.891 -0.4891  2.0823 -0.6115
  610MOL0     H82303   8.596   1.304  10.725  1.1268  1.8732  2.4228
  610MOL0     H82304   8.405   1.167  10.649  1.6146  0.6796 -0.0229
  610MOL0     H82305   8.349   1.269  10.780  0.3950  0.0901  3.0020
  610MOL0     H82306   8.427   0.975  10.799 -0.8909 -0.3935 -1.6203
  610MOL0     H82307   8.262   1.017  10.799  0.7078 -0.8769 -1.1574
  610MOL0     H82308   8.454   1.104  11.022 -0.5413  5.5570 -1.1257
  610MOL0     H82309   8.308   1.001  11.049 -4.0454  1.4458 -0.9420
  610MOL0     H82310   8.114   0.984  11.084 -0.7608 -1.3060 -2.2874
  610MOL0     H82311   7.929   0.908  11.180 -0.0368  0.3137  0.2133
  610MOL0     H82312   7.779   0.988  11.218 -0.7869  0.8341 -1.1752
  610MOL0     H82313   7.800   0.932  11.053  3.2265 -1.6269 -1.6801
  610MOL0     H82314   7.475   1.359  10.950 -0.3983  1.6984  0.5092
  610MOL0     H82315   7.256   1.423  11.007  1.4110  4.8233 -3.4748
  610MOL0     H82316   7.040   1.419  11.159  1.4860  0.5150 -1.4995
  610MOL0     H82317   7.138   1.357  11.300 -1.7534 -0.4856 -0.7953
  610MOL0     H82318   6.925   1.423  11.374  1.0108 -0.7296 -1.3569
  610MOL0     H82319   7.053   1.527  11.431 -1.1220 -1.3590  0.9829
  610MOL0     H82320   6.879   1.592  11.184 -0.5112  0.4283  0.0501
  610MOL0     H82321   6.973   1.704  11.287  0.2138 -0.3738 -0.1565
  610MOL0     H82322   6.716   1.526  11.358  0.9067 -0.2990  0.6074
  610MOL0     H82323   6.785   1.628  11.479 -1.1302  0.0638 -0.2187
  610MOL0     H82324   6.695   1.751  11.213 -2.0199  0.1168  1.3226
  610MOL0     H82325   6.715   1.828  11.369  2.8136  2.1042 -4.8403
  610MOL0     H82326   6.487   1.640  11.273 -2.0844 -2.2565  2.9766
  610MOL0     H82327   6.534   1.686  11.443  4.1028  4.4551  0.7286
  610MOL0     H82328   6.450   1.860  11.214  1.8230  2.1285  0.8927
  610MOL0     H82329   6.492   1.930  11.375 -2.2845 -0.2500  2.7561
  610MOL0     H82330   6.289   1.720  11.337 -1.0144 -0.0005  0.4028
  610MOL0     H82331   6.248   1.897  11.338 -0.3321  0.9817  1.9073
  610MOL0     H82332   7.418   1.600  11.375  2.3334 -2.4259  1.1825
  610MOL0     H82333   7.622   1.535  11.309 -1.0635  0.5106  0.4012
  610MOL0     H82334   7.918   1.434  11.003 -0.4988  0.1817  3.9585
  610MOL0     H82335   8.152   1.395  10.965  1.6090 -1.4470 -0.4817
  610MOL0     H82336   9.676   0.091  10.361  0.3420  1.4406  1.1592
  610MOL0     H82337   9.908   0.046  10.309  2.3772  1.9628  1.9251
  610MOL0     H82338  10.274   0.391  10.236  1.0782  2.1256  1.2848
  610MOL0     H82339  10.509   0.467  10.246 -1.2697  0.2793  0.2949
  610MOL0     H82340  10.824   0.140  10.296 -0.9432 -0.0754 -0.9606
  610MOL0     H82341  10.828   0.217  10.132  0.9488 -0.6467  0.6790
  610MOL0     H82342  10.964   0.382  10.197 -3.0412  0.4887  0.1986
  610MOL0     H82343  11.042   0.226  10.235 -1.6356 -0.4067 -1.8872
  610MOL0     H82344  10.938   0.259  10.478  1.5644 -2.0528 -1.6290
  610MOL0     H82345  10.916   0.431  10.431 -0.6481 -0.9102  3.1048
  610MOL0     H82346  11.189   0.285  10.468  0.1613 -0.4113  0.1589
  610MOL0     H82347  11.114   0.411  10.567 -2.2305 -1.7913  0.2186
  610MOL0     H82348  11.291   0.626  10.254 -2.3379 -1.4487 -3.1813
  610MOL0     H82349  10.626   0.051  10.278 -2.6926 -1.5245  1.8801
  610MOL0     H82350  10.401  -0.004  10.305 -3.1077  0.7780  1.1975
  611MOL0     O82351   7.707   2.391   4.712 -0.1054  0.5090 -0.2491
  611MOL0     C82352   7.785   2.318   4.648 -0.1545  0.5070 -0.5733
  611MOL0     O82353   7.746   2.228   4.559 -0.0100 -0.5424  0.4509
  611MOL0     C82354   7.620   2.222   4.511  0.2572  0.6643  0.8808
  611MOL0     C82355   7.536   2.326   4.465 -0.2367 -0.9330 -0.4811
  611MOL0     C82356   7.399   2.318   4.429  0.0331  0.2613 -0.3502
  611MOL0     C82357   7.338   2.187   4.435 -0.3200 -0.2813  0.1667
  611MOL0     O82358   7.206   2.172   4.425 -0.2205 -0.6246  1.2415
  611MOL0     C82359   7.131   2.296   4.422 -0.1768 -0.1977  0.4453
  611MOL0     C82360   6.990   2.250   4.435  1.3669 -0.0559  0.6995
  611MOL0     C82361   6.961   2.181   4.578  0.3116 -0.7332 -0.3866
  611MOL0     C82362   6.835   2.234   4.647 -0.3630  0.0885 -0.2161
  611MOL0     C82363   6.815   2.191   4.792 -0.1823 -0.6527  0.8336
  611MOL0     C82364   6.675   2.215   4.839  0.3759  0.4839 -0.1866
  611MOL0     C82365   6.640   2.165   4.983 -1.0263 -0.0391 -0.6717
  611MOL0     C82366   6.620   2.015   5.003 -0.2099  0.5166  0.2019
  611MOL0     N82367   6.560   1.985   5.134 -0.2915  0.3196  0.0134
  611MOL0     C82368   6.427   1.978   5.181 -0.5352 -0.1329  0.4403
  611MOL0     C82369   6.442   1.928   5.308 -0.0579  0.1466 -0.2270
  611MOL0     C82370   6.333   1.899   5.400  0.7210 -0.4501 -0.6142
  611MOL0     C82371   6.224   1.787   5.363  0.0273  0.2283  0.3921
  611MOL0     C82372   6.283   1.640   5.352 -0.1003  0.0143  0.5900
  611MOL0     C82373   6.174   1.544   5.298  0.7617  0.0168  0.7875
  611MOL0     O82374   6.064   1.544   5.389  0.5639  0.1063  0.2026
  611MOL0     C82375   5.945   1.594   5.349  0.4500 -0.2148 -0.5218
  611MOL0     C82376   5.888   1.606   5.222  0.0107 -0.2418 -0.3313
  611MOL0     C82377   5.768   1.672   5.204  0.1270  0.3919  0.4447
  611MOL0     C82378   5.719   1.685   5.062 -0.2227 -0.1313 -0.5860
  611MOL0     C82379   5.693   1.712   5.323 -0.3896 -0.2861  0.8734
  611MOL0     C82380   5.579   1.808   5.318  0.1321  0.0363  0.6863
  611MOL0     O82381   5.557   1.877   5.437 -0.0513  0.1470  0.3098
  611MOL0     C82382   5.435   1.946   5.442 -0.1756 -0.0372 -0.6186
  611MOL0     C82383   5.318   1.891   5.405  0.2787  0.6363  0.3367
  611MOL0     C82384   5.199   1.960   5.416  0.3458 -0.1912  0.6874
  611MOL0     C82385   5.195   2.081   5.479  0.1270  0.1799 -0.6426
  611MOL0     O82386   5.069   2.134   5.496 -0.0663 -0.1785 -0.5478
  611MOL0     C82387   5.073   2.277   5.478 -0.7542  0.1710  0.6818
  611MOL0     C82388   4.931   2.334   5.498 -0.3526  0.1118  0.5813
  611MOL0     C82389   4.866   2.312   5.638 -0.3218 -0.0695 -1.3928
  611MOL0     C82390   4.738   2.385   5.632  0.3803  0.3606  0.8655
  611MOL0     C82391   4.662   2.384   5.763  0.8641  0.2810 -0.4006
  611MOL0     C82392   4.745   2.478   5.861  0.1622 -0.1576  0.0782
  611MOL0     C82393   4.675   2.524   5.992  0.1994  0.3064  0.1959
  611MOL0     C82394   4.762   2.582   6.103 -0.2492 -0.5238  0.1094
  611MOL0    Cl82395   4.860   2.719   6.025  0.0722  0.5253 -0.6545
  611MOL0     C82396   5.317   2.140   5.518  0.3300  0.4738 -0.9012
  611MOL0     C82397   5.433   2.066   5.514  0.1521 -0.6406  0.5683
  611MOL0     O82398   5.520   1.832   5.213  0.7519  0.2238  0.1668
  611MOL0     C82399   5.757   1.684   5.450  0.6594  0.5378  0.3599
  611MOL0     C82400   5.875   1.623   5.465 -0.0673 -0.5582  0.7526
  611MOL0     N82401   6.569   1.895   5.329 -0.2039  0.4639  0.4633
  611MOL0     N82402   6.635   1.934   5.232  1.0032  0.0110  0.4106
  611MOL0     C82403   7.428   2.079   4.460  0.0261  0.1007  0.4580
  611MOL0     C82404   7.557   2.097   4.498 -0.4424  0.0513  0.0526
  611MOL0     C82405   7.927   2.348   4.657 -0.6659  0.8711  0.2229
  611MOL0     C82406   8.009   2.348   4.543 -0.6223  0.0227 -0.5485
  611MOL0     C82407   8.146   2.378   4.553 -0.3645  0.8538 -0.4977
  611MOL0     C82408   8.201   2.420   4.671  0.0018  0.5227  1.1722
  611MOL0     O82409   8.331   2.446   4.669 -0.2565 -0.5160 -0.4077
  611MOL0     C82410   8.391   2.502   4.785 -0.4063  1.1484  0.4304
  611MOL0     C82411   8.538   2.550   4.759 -0.3166 -0.0702  0.7248
  611MOL0     C82412   8.544   2.673   4.657 -0.0543  0.2768 -0.4034
  611MOL0     C82413   8.650   2.653   4.547 -0.1643 -0.9144  0.2508
  611MOL0     C82414   8.793   2.630   4.588  0.6142 -0.0713  0.2964
  611MOL0     C82415   8.909   2.590   4.592  0.2416  0.4932  0.5041
  611MOL0     C82416   8.114   2.431   4.781  0.0863 -0.0921  0.0985
  611MOL0     C82417   7.976   2.398   4.777  0.1607  0.0337  1.1246
  611MOL0     H82418   7.580   2.425   4.474 -0.1174 -1.1121  1.0951
  611MOL0     H82419   7.336   2.399   4.394  0.9780  1.5580  0.8869
  611MOL0     H82420   7.157   2.361   4.506  0.9614 -4.5378  3.8059
  611MOL0     H82421   7.135   2.354   4.329 -2.3225  0.0282  0.4438
  611MOL0     H82422   6.913   2.324   4.414 -1.5136 -3.4816 -2.1158
  611MOL0     H82423   6.974   2.171   4.361  0.3457  1.5221 -0.8295
  611MOL0     H82424   6.964   2.073   4.557  1.4480 -0.6388 -0.7854
  611MOL0     H82425   7.052   2.197   4.637  0.6665 -0.1143 -1.0884
  611MOL0     H82426   6.831   2.343   4.642 -1.0302  0.0374 -0.9280
  611MOL0     H82427   6.746   2.198   4.595 -2.4692  0.7881  2.6499
  611MOL0     H82428   6.848   2.088   4.808  0.9243  0.0136  3.2543
  611MOL0     H82429   6.886   2.249   4.851 -1.2219  0.4117  1.0681
  611MOL0     H82430   6.666   2.323   4.829 -1.0459  0.3766 -0.2596
  611MOL0     H82431   6.603   2.169   4.771 -0.7868  2.2021 -0.1625
  611MOL0     H82432   6.722   2.195   5.049 -0.2600 -1.3878 -0.9816
  611MOL0     H82433   6.552   2.222   5.014  0.9172  5.5554 -3.9410
  611MOL0     H82434   6.719   1.970   4.997 -0.8601 -1.1594  1.4944
  611MOL0     H82435   6.552   1.971   4.929  1.5200 -0.7976 -0.6554
  611MOL0     H82436   6.333   1.995   5.130 -0.5368 -1.1252  0.0871
  611MOL0     H82437   6.381   1.880   5.496  0.7147 -0.0204 -0.5279
  611MOL0     H82438   6.279   1.992   5.417 -1.9129 -1.8104 -0.8839
  611MOL0     H82439   6.175   1.824   5.272  0.4727 -0.1678 -0.0210
  611MOL0     H82440   6.154   1.774   5.445  1.6427  0.3625  1.8396
  611MOL0     H82441   6.327   1.614   5.448 -1.0431 -1.7084  0.5903
  611MOL0     H82442   6.358   1.643   5.273 -2.6530  0.7698 -1.9641
  611MOL0     H82443   6.212   1.442   5.285 -0.1232 -0.0968 -1.2758
  611MOL0     H82444   6.148   1.560   5.193 -0.6604 -3.9953  0.3606
  611MOL0     H82445   5.939   1.580   5.129 -2.0208  0.3930 -1.6921
  611MOL0     H82446   5.771   1.614   4.997 -1.7172 -0.1917 -1.7517
  611MOL0     H82447   5.611   1.677   5.054 -0.1442 -1.3934 -0.5287
  611MOL0     H82448   5.750   1.786   5.033  1.1013 -0.5789 -0.7996
  611MOL0     H82449   5.327   1.788   5.371 -0.2013  0.2849  1.2417
  611MOL0     H82450   5.105   1.928   5.372  0.0417  0.0341  1.1566
  611MOL0     H82451   5.147   2.327   5.542 -0.1921  0.0197  0.1643
  611MOL0     H82452   5.107   2.288   5.374  0.7352  0.2578  1.1537
  611MOL0     H82453   4.948   2.441   5.485  1.0407 -0.2653 -0.9982
  611MOL0     H82454   4.858   2.295   5.427  1.1332 -2.5605  0.3825
  611MOL0     H82455   4.920   2.364   5.718 -1.4369 -0.0416 -0.6402
  611MOL0     H82456   4.851   2.208   5.668  0.4209  0.9487  3.2474
  611MOL0     H82457   4.744   2.490   5.602 -2.5582  0.7860  1.5018
  611MOL0     H82458   4.671   2.333   5.563 -0.4737  0.9964  1.2007
  611MOL0     H82459   4.637   2.285   5.802 -0.5167 -0.0703 -2.0543
  611MOL0     H82460   4.564   2.430   5.743  0.0278 -1.0356  0.4834
  611MOL0     H82461   4.834   2.420   5.887  1.4868  1.3817 -0.7691
  611MOL0     H82462   4.766   2.578   5.820 -3.2417  2.1280  3.2371
  611MOL0     H82463   4.619   2.445   6.043 -0.3843 -0.0804 -1.0057
  611MOL0     H82464   4.601   2.598   5.962  0.6197  0.1280 -1.3799
  611MOL0     H82465   4.826   2.504   6.144  1.5838  0.4557 -0.7782
  611MOL0     H82466   4.707   2.640   6.177  1.8301  1.2955  0.3131
  611MOL0     H82467   5.322   2.243   5.552  0.0709  1.2522 -3.0273
  611MOL0     H82468   5.528   2.099   5.552  0.0541 -0.5883  0.7682
  611MOL0     H82469   5.722   1.738   5.538  2.9682  1.1244  0.9819
  611MOL0     H82470   5.918   1.597   5.561 -1.7329 -0.6116  1.5186
  611MOL0     H82471   7.379   1.983   4.452 -2.4667  1.3771 -1.0613
  611MOL0     H82472   7.610   2.004   4.516  0.0150  0.4197  0.6607
  611MOL0     H82473   7.971   2.328   4.443  0.4120  0.2545 -1.0050
  611MOL0     H82474   8.202   2.388   4.461  2.0636 -0.8413  0.6660
  611MOL0     H82475   8.332   2.586   4.823  0.8497  2.7038 -0.9211
  611MOL0     H82476   8.404   2.431   4.868 -2.0222  1.0510  0.6161
  611MOL0     H82477   8.596   2.462   4.728 -0.3978  0.6517 -1.7667
  611MOL0     H82478   8.582   2.597   4.847  1.2033  2.3687 -1.2051
  611MOL0     H82479   8.555   2.768   4.711  1.2035 -1.5041  2.6819
  611MOL0     H82480   8.452   2.654   4.601  0.0609 -2.4079  0.2275
  611MOL0     H82481   8.656   2.739   4.481  2.2110 -0.8555  0.4399
  611MOL0     H82482   8.618   2.574   4.479 -0.4932 -0.1400 -0.5039
  611MOL0     H82483   9.012   2.565   4.602  0.0843  0.0740  1.1818
  611MOL0     H82484   8.157   2.470   4.873 -0.7279  1.6732 -0.2263
  611MOL0     H82485   7.905   2.412   4.858 -4.5097 -0.6910 -2.3785
  612MOL0     O82486   2.865   8.678   6.058  0.1712  0.4378  0.0091
  612MOL0     C82487   2.852   8.554   6.047 -0.3428 -0.3446  0.1139
  612MOL0     O82488   2.880   8.491   5.934 -0.7932 -0.3916  0.6075
  612MOL0     C82489   2.960   8.556   5.845  0.0346  0.0570 -0.3998
  612MOL0     C82490   3.100   8.547   5.852  0.0530  0.9190  0.1279
  612MOL0     C82491   3.181   8.627   5.769 -0.0036 -0.5168 -0.0934
  612MOL0     C82492   3.125   8.705   5.666 -0.3895 -0.0676  0.6980
  612MOL0     O82493   3.209   8.785   5.593  0.5059 -0.5105 -0.2162
  612MOL0     C82494   3.214   8.793   5.446 -0.3164 -0.0261 -0.1474
  612MOL0     C82495   3.358   8.848   5.398  0.2664 -0.4881 -0.8063
  612MOL0     C82496   3.360   8.858   5.247 -0.3237  0.1240 -0.3613
  612MOL0     C82497   3.467   8.950   5.202  0.1847 -0.5873  0.7465
  612MOL0     C82498   3.607   8.887   5.224  0.1084 -0.7728  0.2492
  612MOL0     C82499   3.719   8.976   5.174  0.4489 -0.3448 -0.0773
  612MOL0     C82500   3.829   8.903   5.100  0.7005  0.0570  0.1117
  612MOL0     C82501   3.919   8.825   5.200  0.2435 -0.0057  0.0834
  612MOL0     N82502   4.034   8.753   5.131  0.0703  0.2838  0.5720
  612MOL0     C82503   4.083   8.792   5.012 -0.7373 -0.6250  0.2116
  612MOL0     C82504   4.187   8.710   4.990  0.6506 -0.1092 -0.4616
  612MOL0     C82505   4.272   8.700   4.873 -0.3545 -0.1464  0.4460
  612MOL0     C82506   4.393   8.793   4.881 -0.2680  0.3656  0.2996
  612MOL0     C82507   4.485   8.751   4.762  0.1506  0.5205  0.3265
  612MOL0     C82508   4.598   8.858   4.752  0.1761  0.0201  0.1055
  612MOL0     O82509   4.712   8.799   4.675  0.2220  0.0701  0.7042
  612MOL0     C82510   4.835   8.856   4.662  0.9100 -0.7363 -0.0982
  612MOL0     C82511   4.865   8.993   4.687 -0.3335  0.0101 -0.4898
  612MOL0     C82512   4.999   9.039   4.682  0.1869  0.2360  0.0672
  612MOL0     C82513   5.018   9.179   4.741  0.5688  0.9770  0.3904
  612MOL0     C82514   5.098   8.949   4.622 -0.0720 -0.6129 -0.0104
  612MOL0     C82515   5.248   8.986   4.607  0.1404  0.3309  0.6259
  612MOL0     O82516   5.326   8.914   4.512  0.5824  0.7454 -0.3727
  612MOL0     C82517   5.456   8.944   4.495 -0.1456 -0.5546  0.1689
  612MOL0     C82518   5.559   8.881   4.564  0.2359  0.5324  0.4261
  612MOL0     C82519   5.696   8.899   4.541 -0.4207 -0.7984  0.5463
  612MOL0     C82520   5.732   8.993   4.447 -0.3233  0.1495  0.0801
  612MOL0     O82521   5.865   9.024   4.405  0.5128  0.1046 -0.4705
  612MOL0     C82522   5.964   8.967   4.491 -0.4301 -0.1771  0.7960
  612MOL0     C82523   6.104   9.003   4.448 -0.0956 -0.2431  0.9045
  612MOL0     C82524   6.129   8.964   4.298  0.6625  0.6708 -0.4856
  612MOL0     C82525   6.271   9.003   4.247  0.1060 -0.1714 -0.2489
  612MOL0     C82526   6.291   8.955   4.108 -0.6839 -0.6087 -0.4443
  612MOL0     C82527   6.233   9.049   4.005 -0.4959  0.5609  0.4966
  612MOL0     C82528   6.217   8.980   3.872  0.8941 -0.6204 -0.4632
  612MOL0     C82529   6.348   8.934   3.811 -0.6028 -0.1797  0.4403
  612MOL0    Cl82530   6.460   9.072   3.789  0.2804 -0.0571 -0.1973
  612MOL0     C82531   5.637   9.079   4.391  0.3688  0.7263 -0.6335
  612MOL0     C82532   5.503   9.050   4.406  0.0274 -0.6448 -0.9622
  612MOL0     O82533   5.297   9.072   4.681 -0.0037 -0.1380 -0.1917
  612MOL0     C82534   5.061   8.821   4.581 -0.7090 -0.1683  0.1878
  612MOL0     C82535   4.933   8.772   4.607 -0.3904 -0.2003 -0.1941
  612MOL0     N82536   4.203   8.634   5.102 -0.3800  0.1588 -0.1889
  612MOL0     N82537   4.105   8.648   5.187 -1.1509 -0.3336  0.9483
  612MOL0     C82538   2.981   8.712   5.656  0.3637  0.4732 -0.7216
  612MOL0     C82539   2.898   8.636   5.749 -0.6795 -0.6907  0.0869
  612MOL0     C82540   2.785   8.473   6.147 -0.4691  0.4583  0.5676
  612MOL0     C82541   2.756   8.339   6.127  0.8328  0.3910  0.2308
  612MOL0     C82542   2.688   8.261   6.219 -0.6951 -0.0169 -0.5310
  612MOL0     C82543   2.649   8.325   6.344  0.7122 -0.6136 -0.0225
  612MOL0     O82544   2.585   8.240   6.434  0.4867  0.0792  0.9545
  612MOL0     C82545   2.473   8.289   6.501 -0.0958 -0.1276  0.4031
  612MOL0     C82546   2.344   8.301   6.416  0.4290  0.6632  0.2408
  612MOL0     C82547   2.312   8.161   6.374  0.3698 -0.3286  0.0986
  612MOL0     C82548   2.176   8.153   6.312  0.2166 -0.9990  1.1426
  612MOL0     C82549   2.069   8.153   6.412 -0.2018  0.0966 -0.0528
  612MOL0     C82550   1.979   8.164   6.489  1.2064  0.3116  0.2699
  612MOL0     C82551   2.667   8.460   6.356 -0.2750 -0.0674  0.2826
  612MOL0     C82552   2.744   8.531   6.263  0.6193  0.4256 -0.0029
  612MOL0     H82553   3.147   8.487   5.929  1.7434  0.6755 -1.0404
  612MOL0     H82554   3.289   8.633   5.772 -0.0289  1.6317 -1.2090
  612MOL0     H82555   3.215   8.689   5.414  2.4266 -1.3506  3.5236
  612MOL0     H82556   3.133   8.852   5.401 -0.6898 -1.8686 -2.0467
  612MOL0     H82557   3.361   8.944   5.450  0.2126  0.0810 -1.8324
  612MOL0     H82558   3.431   8.775   5.434  1.6861  1.4050  0.3610
  612MOL0     H82559   3.377   8.761   5.201  2.7605  1.0156 -1.2991
  612MOL0     H82560   3.260   8.894   5.219 -1.5310 -2.4738  0.2825
  612MOL0     H82561   3.438   8.969   5.098 -1.0485  2.3352  1.5424
  612MOL0     H82562   3.454   9.038   5.265 -0.1117 -1.6210  2.1933
  612MOL0     H82563   3.633   8.861   5.327  0.3595  0.5136  0.5157
  612MOL0     H82564   3.609   8.790   5.173 -0.9792  0.1398 -1.6452
  612MOL0     H82565   3.676   9.042   5.098  1.9963 -0.4063 -1.0674
  612MOL0     H82566   3.748   9.051   5.249 -0.4485 -0.1864  0.1175
  612MOL0     H82567   3.792   8.843   5.017  1.2191  0.9399 -0.7909
  612MOL0     H82568   3.880   8.988   5.052  0.0398  0.2308 -0.2889
  612MOL0     H82569   3.843   8.758   5.241 -1.6179  4.0031  4.0086
  612MOL0     H82570   3.969   8.881   5.280  0.7664  0.2379 -0.4061
  612MOL0     H82571   4.042   8.873   4.952  0.2216 -0.5143 -0.2954
  612MOL0     H82572   4.306   8.597   4.856  1.4476  0.3618  0.7471
  612MOL0     H82573   4.208   8.722   4.787 -1.6854 -3.3763  0.4553
  612MOL0     H82574   4.448   8.775   4.974 -1.5442 -3.8745  0.4134
  612MOL0     H82575   4.372   8.900   4.886  0.3622  0.6883 -2.4024
  612MOL0     H82576   4.431   8.752   4.667 -2.0803  0.1105  1.5472
  612MOL0     H82577   4.526   8.651   4.775  1.9603  0.5485 -3.5623
  612MOL0     H82578   4.631   8.878   4.855 -1.3250  2.2279  0.2116
  612MOL0     H82579   4.562   8.954   4.715  0.6234  1.0108  2.1335
  612MOL0     H82580   4.796   9.069   4.721  0.4303  0.4469  0.1295
  612MOL0     H82581   5.118   9.185   4.785  0.7068  0.9972  0.0825
  612MOL0     H82582   5.028   9.249   4.657  0.5622  1.5878  0.8887
  612MOL0     H82583   4.941   9.221   4.807  0.2104 -0.3007  0.8160
  612MOL0     H82584   5.529   8.808   4.639 -1.2067 -0.5898 -1.1749
  612MOL0     H82585   5.766   8.829   4.586 -0.7864 -0.4242  1.7223
  612MOL0     H82586   5.961   8.992   4.597 -1.9995 -0.0160  0.7306
  612MOL0     H82587   5.957   8.858   4.489 -2.2592 -0.1458  2.5160
  612MOL0     H82588   6.127   9.109   4.464  2.4360 -0.5662 -0.2096
  612MOL0     H82589   6.170   8.949   4.516  2.4066 -0.1929 -1.3456
  612MOL0     H82590   6.056   9.018   4.237 -2.8273 -1.1141  1.7685
  612MOL0     H82591   6.105   8.858   4.285 -3.1413  1.5329 -1.6212
  612MOL0     H82592   6.300   9.107   4.264 -2.4922  0.5869  0.0566
  612MOL0     H82593   6.334   8.945   4.315 -1.0237  0.6386  1.5899
  612MOL0     H82594   6.253   8.853   4.100 -1.0031 -0.6234  1.1084
  612MOL0     H82595   6.396   8.931   4.089 -0.1469  0.9410  0.3860
  612MOL0     H82596   6.136   9.077   4.046 -0.4008  0.3472  0.8627
  612MOL0     H82597   6.296   9.138   3.991  0.3711 -0.0381  0.5114
  612MOL0     H82598   6.172   9.055   3.806  0.9690  1.9647  2.1963
  612MOL0     H82599   6.147   8.897   3.887  1.6143 -1.0326  0.8209
  612MOL0     H82600   6.342   8.888   3.712  2.5834 -0.5120  0.2920
  612MOL0     H82601   6.395   8.866   3.883  0.5058  1.3521  1.2294
  612MOL0     H82602   5.672   9.164   4.334  1.3349 -0.3771 -1.7631
  612MOL0     H82603   5.425   9.094   4.344 -0.8348 -1.9439 -0.8316
  612MOL0     H82604   5.134   8.753   4.539  1.2256  1.9174  0.0057
  612MOL0     H82605   4.901   8.672   4.582 -2.6398  0.8573 -1.8260
  612MOL0     H82606   2.941   8.790   5.591 -3.1390  1.7911  2.6504
  612MOL0     H82607   2.792   8.660   5.753 -0.5781 -0.1754 -0.1624
  612MOL0     H82608   2.783   8.288   6.035 -2.1949 -0.2958 -0.3814
  612MOL0     H82609   2.671   8.159   6.186 -1.3538 -0.3559  0.8083
  612MOL0     H82610   2.471   8.215   6.581  1.9093 -1.1606 -0.4231
  612MOL0     H82611   2.496   8.384   6.550  0.8638  1.0399 -2.1067
  612MOL0     H82612   2.347   8.372   6.333  1.1794  0.3772  0.0221
  612MOL0     H82613   2.263   8.333   6.483 -2.1183  1.0062 -2.7895
  612MOL0     H82614   2.336   8.092   6.456  1.2309  1.0941  1.0913
  612MOL0     H82615   2.384   8.125   6.301 -0.7821 -1.6363 -0.4414
  612MOL0     H82616   2.176   8.064   6.249 -0.8253  0.3765 -0.9037
  612MOL0     H82617   2.161   8.235   6.242  1.1528 -1.5524  0.2750
  612MOL0     H82618   1.913   8.176   6.572  0.9645  4.4320 -0.2938
  612MOL0     H82619   2.627   8.506   6.445 -1.6036 -0.2179 -0.2194
  612MOL0     H82620   2.748   8.639   6.274 -2.9076  0.6035  0.7175
  613MOL0     O82621   1.691   9.625   8.945  0.7076  0.1712 -0.5363
  613MOL0     C82622   1.771   9.669   9.019  0.3994 -0.1665 -1.8131
  613MOL0     O82623   1.739   9.731   9.137 -0.3113  0.1839  0.3875
  613MOL0     C82624   1.607   9.749   9.167  0.7000  0.0618 -0.6039
  613MOL0     C82625   1.553   9.686   9.277  0.0095 -0.8800 -0.7725
  613MOL0     C82626   1.424   9.708   9.315  0.1671  0.1304 -0.2982
  613MOL0     C82627   1.338   9.791   9.245 -0.1345  0.0441 -0.1891
  613MOL0     O82628   1.211   9.825   9.278  0.3996 -0.3055  0.0262
  613MOL0     C82629   1.113   9.806   9.178 -0.5130 -0.0967 -0.0341
  613MOL0     C82630   1.099   9.676   9.098 -0.3346 -0.6169 -0.8049
  613MOL0     C82631   1.087   9.564   9.198 -0.1914  0.6321  0.4132
  613MOL0     C82632   1.016   9.439   9.135 -0.4245  0.5138  0.6414
  613MOL0     C82633   1.092   9.376   9.015  0.7316  0.7409 -0.3726
  613MOL0     C82634   1.007   9.260   8.944  0.3810 -0.3082 -0.1708
  613MOL0     C82635   1.024   9.136   9.018  0.8351 -0.7532 -0.3982
  613MOL0     C82636   1.158   9.057   8.999  0.2348 -0.2522 -0.0564
  613MOL0     N82637   1.157   8.931   9.071  0.1517  0.8065  0.2149
  613MOL0     C82638   1.059   8.835   9.045  0.1367  1.2125  0.7989
  613MOL0     C82639   1.100   8.723   9.119  1.3122 -0.8550  0.6787
  613MOL0     C82640   1.028   8.590   9.138  0.0976 -0.0882 -0.8094
  613MOL0     C82641   1.053   8.500   9.018  0.4200 -0.7310  0.7782
  613MOL0     C82642   0.963   8.536   8.893  0.2130  0.5225 -0.0552
  613MOL0     C82643   1.036   8.532   8.762 -0.7622  0.6537  0.6632
  613MOL0     O82644   1.121   8.646   8.754 -0.3789 -0.1656  0.0753
  613MOL0     C82645   1.077   8.769   8.707 -0.7938 -0.3829  0.0929
  613MOL0     C82646   1.178   8.853   8.654  0.3100 -0.6312  0.7613
  613MOL0     C82647   1.161   8.979   8.605 -0.4134 -0.7715 -0.4447
  613MOL0     C82648   1.281   9.047   8.550  0.3189  0.4685  0.6253
  613MOL0     C82649   1.036   9.035   8.601 -0.5186 -0.1010 -0.4092
  613MOL0     C82650   1.000   9.180   8.561  0.0921  0.0103 -0.0148
  613MOL0     O82651   1.102   9.269   8.576  0.6417  0.4976  0.4345
  613MOL0     C82652   1.107   9.394   8.507 -0.7680 -0.2312 -0.2969
  613MOL0     C82653   0.999   9.487   8.488 -0.0399  0.4383 -0.4857
  613MOL0     C82654   1.009   9.586   8.389  0.2973  0.4185 -0.3221
  613MOL0     C82655   1.133   9.611   8.324  0.7397  0.3993  0.4452
  613MOL0     O82656   1.134   9.719   8.235 -0.2356 -0.6527  0.0593
  613MOL0     C82657   1.249   9.766   8.177 -0.8068 -0.7201 -1.4608
  613MOL0     C82658   1.212   9.909   8.120  0.1793  0.3194  0.2281
  613MOL0     C82659   1.151   9.902   7.975 -0.3440  0.0751  0.4003
  613MOL0     C82660   1.260   9.863   7.869  1.0774  0.7991  0.1729
  613MOL0     C82661   1.270   9.936   7.736 -0.1219  0.0726  0.3359
  613MOL0     C82662   1.359   9.875   7.625 -0.2140 -0.4531  0.6407
  613MOL0     C82663   1.364   9.966   7.505 -0.0572  0.4346  0.7175
  613MOL0     C82664   1.407   9.889   7.378  0.2807  0.3920  0.2161
  613MOL0    Cl82665   1.255   9.818   7.312  0.2863 -0.0583  0.4192
  613MOL0     C82666   1.241   9.526   8.347  0.4137 -0.2201 -0.0715
  613MOL0     C82667   1.229   9.416   8.441  0.8547  0.3991 -0.4516
  613MOL0     O82668   0.898   9.206   8.494  0.3354  0.1173 -0.4161
  613MOL0     C82669   0.926   8.952   8.641 -0.0946  0.2384 -0.0718
  613MOL0     C82670   0.946   8.823   8.693 -0.6939 -0.5076 -0.2735
  613MOL0     N82671   1.215   8.751   9.190  0.2945  0.0687  0.3139
  613MOL0     N82672   1.245   8.872   9.156 -0.4553 -0.0207  0.8030
  613MOL0     C82673   1.395   9.868   9.134  0.5293  0.9615 -0.3935
  613MOL0     C82674   1.524   9.834   9.085 -0.3054  0.3217 -1.2708
  613MOL0     C82675   1.920   9.656   8.988  0.2620 -0.2785  0.2798
  613MOL0     C82676   2.024   9.693   9.079 -0.4142  0.4543  0.4549
  613MOL0     C82677   2.157   9.667   9.044  0.8801 -0.4737 -0.1412
  613MOL0     C82678   2.188   9.628   8.916 -0.6018 -0.0214 -0.5838
  613MOL0     O82679   2.315   9.624   8.871  0.2056  0.5342 -1.0134
  613MOL0     C82680   2.424   9.590   8.952 -0.0112 -0.7539  0.3135
  613MOL0     C82681   2.543   9.580   8.858 -0.8640 -0.3456  1.0613
  613MOL0     C82682   2.519   9.503   8.723  0.9236 -0.3330 -0.0297
  613MOL0     C82683   2.464   9.600   8.608  0.0969 -0.2718  0.0925
  613MOL0     C82684   2.373   9.525   8.524  0.9143 -0.7382  0.1249
  613MOL0     C82685   2.300   9.446   8.466  0.5864 -0.5694  0.0805
  613MOL0     C82686   2.089   9.613   8.820  0.0880 -0.6521 -0.7701
  613MOL0     C82687   1.954   9.633   8.858  0.0101 -0.2171  0.6950
  613MOL0     H82688   1.615   9.625   9.342 -0.3621  1.8531  2.4250
  613MOL0     H82689   1.380   9.655   9.399 -4.5118  0.9623 -1.9354
  613MOL0     H82690   1.019   9.835   9.226 -0.6667  1.4009 -1.1532
  613MOL0     H82691   1.142   9.881   9.104  0.1680  0.0619  0.3896
  613MOL0     H82692   1.008   9.692   9.039  0.4739 -1.2571 -2.2895
  613MOL0     H82693   1.192   9.673   9.040  1.3039  2.3920  1.3792
  613MOL0     H82694   1.193   9.543   9.217  0.5492  0.7565 -3.0369
  613MOL0     H82695   1.031   9.593   9.287 -1.9529  1.7922 -1.0084
  613MOL0     H82696   1.000   9.365   9.214  1.8836  1.1377  1.7682
  613MOL0     H82697   0.921   9.466   9.087  0.5631 -1.2903 -2.6114
  613MOL0     H82698   1.101   9.443   8.928 -0.8434 -1.1592 -2.1087
  613MOL0     H82699   1.192   9.343   9.045  0.4388 -0.6559 -0.8460
  613MOL0     H82700   0.905   9.298   8.940  1.4823  3.1994  1.3720
  613MOL0     H82701   1.041   9.247   8.841  0.6048 -2.2620  0.1097
  613MOL0     H82702   1.011   9.159   9.124 -1.8636  0.7271 -0.9497
  613MOL0     H82703   0.938   9.071   8.997 -0.1399  1.3388 -3.7988
  613MOL0     H82704   1.241   9.125   9.022  2.0686 -1.1202 -3.3831
  613MOL0     H82705   1.178   9.034   8.894  1.7828 -3.1128  0.7558
  613MOL0     H82706   0.987   8.840   8.964 -0.9427  1.4982  1.7508
  613MOL0     H82707   1.068   8.543   9.228 -3.1081  2.0034  1.9728
  613MOL0     H82708   0.921   8.606   9.154  0.3752  1.3099 -0.2046
  613MOL0     H82709   1.027   8.396   9.042  1.3098 -0.9579  0.7834
  613MOL0     H82710   1.160   8.491   9.000  0.4572  1.5151 -0.4017
  613MOL0     H82711   0.908   8.625   8.925 -0.1233 -0.0850  1.1033
  613MOL0     H82712   0.881   8.463   8.886  0.8366 -0.4418  1.9623
  613MOL0     H82713   0.970   8.527   8.675  1.2521 -1.2257 -0.8711
  613MOL0     H82714   1.092   8.439   8.750  0.3121  1.3584  0.0648
  613MOL0     H82715   1.275   8.807   8.642  1.2899  1.7354 -1.2269
  613MOL0     H82716   1.365   8.982   8.523 -1.0396  0.1893 -3.7132
  613MOL0     H82717   1.263   9.110   8.462  1.4762  2.1245  1.5251
  613MOL0     H82718   1.328   9.099   8.635  0.2815  3.5810 -1.0967
  613MOL0     H82719   0.902   9.463   8.528 -1.0487  0.6226 -2.6525
  613MOL0     H82720   0.922   9.648   8.369 -0.3587  0.4107  2.1878
  613MOL0     H82721   1.321   9.786   8.257  2.3704 -3.8731 -3.2546
  613MOL0     H82722   1.301   9.696   8.111  0.0882 -0.5997 -0.8996
  613MOL0     H82723   1.140   9.959   8.185 -0.0723  1.7987 -1.1261
  613MOL0     H82724   1.306   9.966   8.119  1.2934 -1.2959 -3.3036
  613MOL0     H82725   1.115  10.001   7.944  2.0035  0.5565 -0.9519
  613MOL0     H82726   1.071   9.827   7.967 -0.3707 -0.0952  1.8885
  613MOL0     H82727   1.358   9.875   7.917  0.4070 -0.2402  1.8759
  613MOL0     H82728   1.245   9.755   7.856 -3.9474  1.1782  1.0320
  613MOL0     H82729   1.316  10.034   7.750 -0.0024  0.1902 -0.7957
  613MOL0     H82730   1.170   9.951   7.695  0.8715  1.4127 -1.8316
  613MOL0     H82731   1.458   9.845   7.659  0.3085 -0.5943 -0.9571
  613MOL0     H82732   1.314   9.783   7.589 -0.4320 -0.9494  2.0958
  613MOL0     H82733   1.441  10.042   7.522 -0.7734  1.8946 -2.0169
  613MOL0     H82734   1.267  10.015   7.492 -0.0587  0.2553  0.0260
  613MOL0     H82735   1.484   9.815   7.399  0.0625  0.1807  0.2772
  613MOL0     H82736   1.443   9.965   7.308 -1.5710 -0.0758 -1.3379
  613MOL0     H82737   1.340   9.542   8.305  0.2248  3.5782  0.5087
  613MOL0     H82738   1.307   9.342   8.453 -1.1852 -1.8219 -0.0197
  613MOL0     H82739   0.829   8.997   8.660 -0.7494 -1.4909  0.9069
  613MOL0     H82740   0.864   8.758   8.721 -1.4422  0.8073  0.6466
  613MOL0     H82741   1.350   9.953   9.083 -0.1403 -0.1371 -1.6935
  613MOL0     H82742   1.559   9.882   8.994 -0.5515 -2.1037 -2.7385
  613MOL0     H82743   1.988   9.727   9.176  0.5029  0.4401  0.8146
  613MOL0     H82744   2.234   9.674   9.121  1.0096  1.4417 -0.3922
  613MOL0     H82745   2.442   9.668   9.027 -0.6985  1.1688 -1.4063
  613MOL0     H82746   2.404   9.498   9.007 -4.1579 -0.1829  0.0597
  613MOL0     H82747   2.626   9.530   8.908 -0.4756 -0.4507  0.3262
  613MOL0     H82748   2.578   9.681   8.836 -0.4269 -0.5839  0.6552
  613MOL0     H82749   2.446   9.426   8.749 -0.9427  1.1800 -0.5510
  613MOL0     H82750   2.614   9.461   8.687 -0.6837 -4.0503 -0.3032
  613MOL0     H82751   2.547   9.633   8.545  0.1305 -3.0813 -1.5135
  613MOL0     H82752   2.438   9.691   8.664  4.0740  2.5856 -2.1832
  613MOL0     H82753   2.243   9.382   8.403  1.8141 -1.0236 -0.6066
  613MOL0     H82754   2.106   9.568   8.723 -0.8676 -0.9309 -0.8187
  613MOL0     H82755   1.881   9.623   8.779  1.0114  0.9740 -0.4252
  614MOL0     O82756  11.235   9.083   2.702  0.5911  0.2270 -0.7419
  614MOL0     C82757  11.202   8.972   2.664  0.5003  0.1589 -0.5625
  614MOL0     O82758  11.283   8.893   2.585  0.3530 -0.4690  0.6419
  614MOL0     C82759  11.400   8.945   2.532  0.4718  0.6256  0.1963
  614MOL0     C82760  11.510   8.976   2.611 -0.1514 -0.7846  0.5698
  614MOL0     C82761  11.620   9.036   2.551  0.3380  0.7380  0.7064
  614MOL0     C82762  11.644   9.046   2.413 -0.6146  0.9858  0.0589
  614MOL0     O82763  11.765   9.096   2.357  0.5615 -0.2529 -0.2891
  614MOL0     C82764  11.886   9.027   2.399  0.1058 -0.0364 -0.2171
  614MOL0     C82765  11.978   9.004   2.281  0.0782 -0.0754  0.6651
  614MOL0     C82766  12.121   9.002   2.329 -0.8992  0.8269 -0.8349
  614MOL0     C82767  12.206   8.960   2.206  0.1127 -0.1238  0.0221
  614MOL0     C82768  12.361   8.992   2.226  0.5175 -1.1766 -0.0795
  614MOL0     C82769  12.448   8.883   2.170 -1.0030 -0.2687 -0.3743
  614MOL0     C82770  12.588   8.935   2.153  0.3226 -0.0915 -0.0721
  614MOL0     C82771  12.660   8.981   2.282  0.3883  0.7410 -0.1851
  614MOL0     N82772  12.785   9.043   2.264  0.2966 -0.6215 -0.2157
  614MOL0     C82773  12.900   8.974   2.274  0.4432  0.1858 -0.4175
  614MOL0     C82774  12.997   9.068   2.265 -0.1075  0.4480 -0.9369
  614MOL0     C82775  13.143   9.055   2.300  0.6989  0.4002  0.6885
  614MOL0     C82776  13.220   9.130   2.194  0.4463  0.9042  0.2070
  614MOL0     C82777  13.199   9.076   2.044  0.2622  0.6358 -0.2514
  614MOL0     C82778  13.319   8.994   2.002 -0.9067  0.4822 -0.6749
  614MOL0     O82779  13.440   9.069   2.036 -0.2464 -0.2243  0.0884
  614MOL0     C82780  13.562   9.028   2.005  0.5498 -0.0815 -0.6641
  614MOL0     C82781  13.666   9.120   2.031  0.8528 -0.0799  1.1719
  614MOL0     C82782  13.797   9.091   2.016 -0.2329  0.2774 -0.0337
  614MOL0     C82783  13.900   9.190   2.066 -0.3875 -0.0387  0.0755
  614MOL0     C82784  13.832   8.961   1.969 -0.0845  0.2197 -1.0902
  614MOL0     C82785  13.965   8.901   1.967  0.5152 -0.0109 -0.0731
  614MOL0     O82786  13.990   8.767   1.929 -0.2002 -0.0071 -0.5682
  614MOL0     C82787  14.120   8.712   1.935  0.7148  0.1801  0.1543
  614MOL0     C82788  14.194   8.705   2.057 -0.0400 -0.1255  0.0872
  614MOL0     C82789  14.306   8.621   2.067 -0.0707  0.4015 -0.2569
  614MOL0     C82790  14.350   8.544   1.962 -0.6330  0.8098 -0.0319
  614MOL0     O82791  14.457   8.455   1.956 -0.8083 -0.6689  0.5723
  614MOL0     C82792  14.519   8.409   2.071  0.0345  0.1381 -1.2807
  614MOL0     C82793  14.639   8.309   2.046  0.8054 -0.0003  0.6438
  614MOL0     C82794  14.760   8.384   2.028  0.7627 -0.1525  0.2599
  614MOL0     C82795  14.797   8.464   2.148  0.2756  0.2491 -0.6434
  614MOL0     C82796  14.956   8.468   2.164 -0.6143  0.3834  1.7458
  614MOL0     C82797  15.024   8.525   2.031  1.2913 -1.0291 -0.3500
  614MOL0     C82798  15.173   8.509   2.043  0.4986  0.3769 -0.9081
  614MOL0     C82799  15.240   8.559   1.919  0.5512 -0.4878  0.0974
  614MOL0    Cl82800  15.162   8.485   1.774  0.0711  0.2656  0.5869
  614MOL0     C82801  14.276   8.554   1.845 -0.8528  0.3178  0.3734
  614MOL0     C82802  14.163   8.635   1.830 -0.3344 -0.1554 -0.0694
  614MOL0     O82803  14.051   8.972   2.003  0.3158  0.1038 -0.1079
  614MOL0     C82804  13.730   8.866   1.944  0.1453 -0.6727  1.7543
  614MOL0     C82805  13.598   8.900   1.963  0.1130  0.4598  0.5792
  614MOL0     N82806  12.935   9.191   2.238  0.2780 -0.6668  0.1985
  614MOL0     N82807  12.797   9.174   2.229 -0.0610  0.7948 -0.1141
  614MOL0     C82808  11.541   8.999   2.338  0.3106 -0.2850 -0.2330
  614MOL0     C82809  11.416   8.962   2.395 -0.1605  0.2222  0.2545
  614MOL0     C82810  11.071   8.909   2.712  0.0392  0.6370  0.3530
  614MOL0     C82811  11.032   8.775   2.675  0.6491  0.2791  0.3857
  614MOL0     C82812  10.915   8.718   2.729 -0.3486 -0.9928  0.1109
  614MOL0     C82813  10.827   8.799   2.809  0.3178 -0.3754  0.3976
  614MOL0     O82814  10.708   8.757   2.860 -0.3394  0.0036  0.1259
  614MOL0     C82815  10.648   8.836   2.962 -0.5398  0.1669 -0.1265
  614MOL0     C82816  10.527   8.768   3.034  0.5388  0.1659 -0.1225
  614MOL0     C82817  10.406   8.728   2.945  0.8072 -0.1171 -0.2829
  614MOL0     C82818  10.427   8.599   2.868  0.0545  0.5735 -0.8078
  614MOL0     C82819  10.319   8.585   2.772  0.3185 -0.7415  0.1164
  614MOL0     C82820  10.219   8.583   2.701 -0.3575 -0.6386  0.0269
  614MOL0     C82821  10.874   8.929   2.835 -0.2376 -0.3018  0.1509
  614MOL0     C82822  10.989   8.983   2.789 -0.3021  0.5929  0.0695
  614MOL0     H82823  11.501   8.970   2.719  0.6641 -3.1176  0.5697
  614MOL0     H82824  11.695   9.072   2.621 -0.7347  2.0209  1.2441
  614MOL0     H82825  11.942   9.098   2.462  1.9668  0.2986 -2.1367
  614MOL0     H82826  11.873   8.942   2.466  4.6089 -1.1607 -0.4301
  614MOL0     H82827  11.959   8.913   2.224  1.4607  0.4731 -0.7173
  614MOL0     H82828  11.972   9.079   2.203  5.3583  3.0193  2.7528
  614MOL0     H82829  12.154   9.096   2.374 -0.4797  0.3078 -0.0392
  614MOL0     H82830  12.126   8.928   2.409  0.2309  2.7910  1.0042
  614MOL0     H82831  12.198   8.851   2.199  1.4315 -0.3194  1.1804
  614MOL0     H82832  12.173   9.008   2.113  1.7915  0.1058 -0.4995
  614MOL0     H82833  12.387   9.089   2.184 -2.6388  0.3020  1.0860
  614MOL0     H82834  12.381   8.994   2.333 -2.1825 -1.9950  0.5167
  614MOL0     H82835  12.448   8.793   2.231 -2.9525 -0.3930 -0.4986
  614MOL0     H82836  12.414   8.866   2.067  1.5502  1.9217 -1.7059
  614MOL0     H82837  12.649   8.858   2.105  0.3212  0.3642 -0.8175
  614MOL0     H82838  12.589   9.018   2.081  1.3029 -1.4540 -1.7031
  614MOL0     H82839  12.671   8.891   2.343 -2.3142 -2.0240 -3.3676
  614MOL0     H82840  12.592   9.055   2.326  1.0164  2.4068 -1.8614
  614MOL0     H82841  12.915   8.870   2.299 -1.5659 -0.5977 -2.1910
  614MOL0     H82842  13.165   9.109   2.393  1.2862  2.0254 -0.3655
  614MOL0     H82843  13.166   8.949   2.311  2.2038  0.5732 -0.5461
  614MOL0     H82844  13.320   9.119   2.236  0.0102  0.8722  1.2765
  614MOL0     H82845  13.208   9.238   2.193  0.3578  0.9035 -1.5297
  614MOL0     H82846  13.196   9.166   1.982 -0.3223  0.3965 -0.5756
  614MOL0     H82847  13.112   9.011   2.032  0.1818  0.0766  2.6048
  614MOL0     H82848  13.321   8.959   1.898  0.6231 -3.0632  0.3976
  614MOL0     H82849  13.325   8.902   2.060 -0.9006 -0.2787 -1.8461
  614MOL0     H82850  13.620   9.213   2.067 -0.2223 -0.3382  0.5154
  614MOL0     H82851  13.976   9.208   1.990  2.9365 -0.3747  3.0853
  614MOL0     H82852  13.847   9.286   2.066 -0.4310 -0.0570 -0.5395
  614MOL0     H82853  13.942   9.171   2.165  2.7924  0.8907 -0.9879
  614MOL0     H82854  14.163   8.751   2.150 -0.7477 -1.4810  0.5426
  614MOL0     H82855  14.345   8.617   2.169  0.9866 -1.2051 -0.6969
  614MOL0     H82856  14.555   8.496   2.126  2.0997 -0.8710 -0.9088
  614MOL0     H82857  14.449   8.351   2.132  3.4602 -2.2702  0.7303
  614MOL0     H82858  14.639   8.240   2.131 -1.7599 -0.2774  0.5140
  614MOL0     H82859  14.634   8.239   1.962  1.8049 -2.8214  2.7591
  614MOL0     H82860  14.753   8.450   1.941  0.9486  1.1199  1.1777
  614MOL0     H82861  14.835   8.307   2.008  1.1187  0.4323 -0.7498
  614MOL0     H82862  14.759   8.565   2.132 -1.4148 -0.6269 -2.5563
  614MOL0     H82863  14.744   8.437   2.240 -0.8376  0.6621 -1.1452
  614MOL0     H82864  14.994   8.366   2.168  1.6733  1.1116  0.3473
  614MOL0     H82865  14.974   8.525   2.256  0.7082  0.1365  1.6611
  614MOL0     H82866  14.990   8.463   1.948 -0.4059  0.7851 -1.0919
  614MOL0     H82867  14.996   8.631   2.023  2.8806 -0.4373  1.1483
  614MOL0     H82868  15.201   8.403   2.048  1.3642  0.5518 -1.6808
  614MOL0     H82869  15.207   8.557   2.135 -1.8695  0.7225 -0.1518
  614MOL0     H82870  15.349   8.547   1.922  0.6428  0.4734  1.4553
  614MOL0     H82871  15.204   8.662   1.918 -0.9063 -0.8853 -3.2268
  614MOL0     H82872  14.314   8.484   1.772  1.8720 -1.6327  3.3750
  614MOL0     H82873  14.107   8.633   1.737  0.7026 -0.1465 -0.7151
  614MOL0     H82874  13.753   8.765   1.912 -4.8922 -1.5711 -0.0399
  614MOL0     H82875  13.531   8.815   1.960 -0.8860  0.9874  3.7575
  614MOL0     H82876  11.551   8.987   2.231  2.3739 -0.3235 -0.0662
  614MOL0     H82877  11.335   8.921   2.336 -0.9346 -1.3076  2.2845
  614MOL0     H82878  11.096   8.708   2.619  1.1877 -0.6370  2.0281
  614MOL0     H82879  10.896   8.614   2.703 -0.6227 -1.2306  1.2038
  614MOL0     H82880  10.719   8.860   3.041 -0.4850 -0.3017 -0.0300
  614MOL0     H82881  10.622   8.930   2.913 -0.6420  0.1405 -0.1250
  614MOL0     H82882  10.496   8.846   3.105  0.3658 -1.5463  1.7662
  614MOL0     H82883  10.561   8.685   3.097  0.0890 -0.3607 -0.5673
  614MOL0     H82884  10.381   8.809   2.877 -2.0127 -0.0081  0.7519
  614MOL0     H82885  10.316   8.704   3.002  0.0804 -0.0892 -1.3926
  614MOL0     H82886  10.417   8.513   2.935 -1.7911 -1.3916 -3.4007
  614MOL0     H82887  10.517   8.593   2.805 -1.4342 -1.4964 -2.9257
  614MOL0     H82888  10.126   8.581   2.649 -0.9135  3.3828  0.5465
  614MOL0     H82889  10.825   9.006   2.893 -0.6086 -0.2757 -0.1908
  614MOL0     H82890  11.017   9.082   2.823 -2.5840  0.2197  3.6442
  615MOL0     O82891   7.436   4.444   3.907  0.2749  0.7876 -0.4792
  615MOL0     C82892   7.510   4.532   3.877 -0.0800  0.0097  0.6611
  615MOL0     O82893   7.504   4.659   3.942 -0.2131 -0.2223  0.3557
  615MOL0     C82894   7.412   4.700   4.029  0.5148  0.2069 -0.0991
  615MOL0     C82895   7.447   4.787   4.129 -0.5095 -0.7487  0.3771
  615MOL0     C82896   7.368   4.829   4.234  0.2828 -0.1678 -0.7563
  615MOL0     C82897   7.239   4.787   4.236 -0.9215  0.3821 -0.7107
  615MOL0     O82898   7.149   4.810   4.334  0.1717 -0.0014  0.2455
  615MOL0     C82899   7.183   4.890   4.455 -0.6581  0.4866  0.1861
  615MOL0     C82900   7.118   4.832   4.568  0.8954 -0.4264  0.1363
  615MOL0     C82901   6.966   4.827   4.572  0.0134  0.2630  0.4665
  615MOL0     C82902   6.914   4.709   4.654 -0.6775 -0.0570  0.3396
  615MOL0     C82903   6.754   4.704   4.642  0.3990 -0.1626 -0.9644
  615MOL0     C82904   6.682   4.661   4.770  0.0067 -1.0709 -0.2331
  615MOL0     C82905   6.720   4.733   4.900 -0.6927 -0.0708  0.6785
  615MOL0     C82906   6.649   4.674   5.021 -0.4740  0.5572 -0.4654
  615MOL0     N82907   6.507   4.712   5.016 -0.4503  0.1260  0.3945
  615MOL0     C82908   6.459   4.840   4.991 -0.1132  1.2119  0.0572
  615MOL0     C82909   6.327   4.837   5.013  0.6753  0.5962  0.6438
  615MOL0     C82910   6.231   4.959   5.024 -0.6166 -0.6076  0.8693
  615MOL0     C82911   6.090   4.915   4.971 -0.2064  0.3679  0.0561
  615MOL0     C82912   6.093   4.928   4.815 -0.2774 -0.2200 -0.1428
  615MOL0     C82913   5.961   4.878   4.751 -0.9898  0.7038  0.1157
  615MOL0     O82914   5.855   4.952   4.822 -0.4531 -0.8956  0.6899
  615MOL0     C82915   5.726   4.912   4.795 -0.3865 -1.0406  0.6560
  615MOL0     C82916   5.630   4.948   4.894  0.3332  0.1881  0.1348
  615MOL0     C82917   5.491   4.943   4.883  0.3876  0.8960  0.8959
  615MOL0     C82918   5.415   4.981   5.011 -0.5036  0.4011 -0.2939
  615MOL0     C82919   5.439   4.885   4.759 -0.0366  0.2443 -1.2399
  615MOL0     C82920   5.296   4.885   4.726 -0.2570 -1.5119 -0.4651
  615MOL0     O82921   5.196   4.878   4.826  0.0572 -0.1421 -0.7166
  615MOL0     C82922   5.071   4.823   4.791 -0.2011  0.0383  0.0329
  615MOL0     C82923   5.034   4.715   4.870 -0.2102  0.2943  0.3535
  615MOL0     C82924   4.909   4.662   4.851 -0.3704  0.3690  0.9085
  615MOL0     C82925   4.815   4.714   4.757 -0.3363  0.4237 -0.2300
  615MOL0     O82926   4.690   4.648   4.753 -0.6039  0.1486 -0.6180
  615MOL0     C82927   4.603   4.689   4.648 -0.1587  0.4119  0.1741
  615MOL0     C82928   4.525   4.571   4.597 -0.2846 -0.6738 -0.3128
  615MOL0     C82929   4.407   4.547   4.687 -0.0530 -0.2397  0.3569
  615MOL0     C82930   4.365   4.400   4.664  0.1674 -0.3349 -0.2533
  615MOL0     C82931   4.253   4.350   4.757  0.0074 -0.0617 -0.4592
  615MOL0     C82932   4.124   4.398   4.689 -0.8794 -0.0622  0.3092
  615MOL0     C82933   4.010   4.398   4.786 -0.4668  0.5665  0.0722
  615MOL0     C82934   3.871   4.408   4.723 -0.5810  0.7994 -0.5718
  615MOL0    Cl82935   3.825   4.270   4.623  0.0424  0.1919  0.1572
  615MOL0     C82936   4.860   4.824   4.676  0.7748 -0.3742  0.3407
  615MOL0     C82937   4.982   4.885   4.696 -0.1317 -0.2231 -0.3240
  615MOL0     O82938   5.280   4.890   4.603  0.3372  0.1140  0.2145
  615MOL0     C82939   5.533   4.835   4.669  0.7908 -0.8146  0.5034
  615MOL0     C82940   5.679   4.848   4.686 -0.8752 -0.7512  0.0272
  615MOL0     N82941   6.299   4.703   5.033 -0.1182  0.9490 -0.4966
  615MOL0     N82942   6.407   4.636   5.038  0.2775 -0.0637 -0.7873
  615MOL0     C82943   7.188   4.709   4.136 -0.1318  0.3692 -0.2065
  615MOL0     C82944   7.277   4.661   4.034  0.2350  0.5238 -0.2191
  615MOL0     C82945   7.606   4.521   3.767 -0.3336 -0.1278  0.0751
  615MOL0     C82946   7.647   4.634   3.695  0.0829 -0.2660 -0.8431
  615MOL0     C82947   7.746   4.621   3.591 -0.1117  0.9840  0.1389
  615MOL0     C82948   7.796   4.494   3.556 -0.5099  0.0373 -0.4136
  615MOL0     O82949   7.890   4.472   3.455  0.7850 -0.5333  0.3991
  615MOL0     C82950   7.907   4.570   3.346  0.2513 -0.0825  0.5669
  615MOL0     C82951   8.007   4.501   3.244 -0.1592  0.7793 -0.3227
  615MOL0     C82952   7.957   4.359   3.202 -0.1198 -0.2596 -0.3345
  615MOL0     C82953   8.036   4.305   3.083  0.5978  1.2997  0.5676
  615MOL0     C82954   8.042   4.394   2.970 -0.2711 -0.7431 -0.2415
  615MOL0     C82955   8.061   4.475   2.884 -0.5997  0.6542  0.8396
  615MOL0     C82956   7.740   4.383   3.611 -0.4196  0.3026 -0.9991
  615MOL0     C82957   7.651   4.397   3.718 -0.1604 -0.3191  0.7003
  615MOL0     H82958   7.547   4.830   4.124 -0.9239  0.2786  0.6766
  615MOL0     H82959   7.406   4.897   4.310  0.6122 -1.0778 -0.0952
  615MOL0     H82960   7.291   4.884   4.474 -0.7460 -1.8420  0.2435
  615MOL0     H82961   7.151   4.994   4.438 -1.1077  0.1534 -1.1449
  615MOL0     H82962   7.153   4.728   4.567 -0.2206 -0.8417 -1.9025
  615MOL0     H82963   7.153   4.892   4.653 -1.2189 -0.7228  1.2846
  615MOL0     H82964   6.925   4.918   4.617 -1.5933 -1.0873  1.8777
  615MOL0     H82965   6.934   4.822   4.467  1.9719 -0.4341 -0.1439
  615MOL0     H82966   6.969   4.620   4.620 -1.9454 -0.9535  0.5713
  615MOL0     H82967   6.951   4.711   4.756  0.2840 -0.4489  0.0101
  615MOL0     H82968   6.717   4.805   4.621 -1.2268 -0.8426 -1.5519
  615MOL0     H82969   6.718   4.630   4.571 -0.5516  0.4253 -1.1145
  615MOL0     H82970   6.573   4.665   4.758 -0.6111  2.2062  4.0814
  615MOL0     H82971   6.708   4.555   4.776  0.9403 -0.7752  1.8197
  615MOL0     H82972   6.826   4.722   4.925 -0.8759 -1.9476  0.8105
  615MOL0     H82973   6.697   4.837   4.878  2.1688  0.8860  1.7003
  615MOL0     H82974   6.691   4.709   5.116 -0.8603 -0.4432  0.0881
  615MOL0     H82975   6.670   4.567   5.025 -0.3638  0.6069  0.5251
  615MOL0     H82976   6.529   4.920   4.968 -0.4644  1.8744  1.2210
  615MOL0     H82977   6.217   4.986   5.129  0.3857  3.3283  0.1303
  615MOL0     H82978   6.275   5.041   4.967 -1.8421 -0.8721 -0.5207
  615MOL0     H82979   6.012   4.974   5.021 -0.6341 -0.0695 -0.0872
  615MOL0     H82980   6.079   4.811   5.002  3.9839 -0.9119 -2.0453
  615MOL0     H82981   6.173   4.864   4.775  0.3322  0.9308 -0.8156
  615MOL0     H82982   6.097   5.035   4.793  0.5040  0.0527  1.2201
  615MOL0     H82983   5.962   4.771   4.775  0.3955  1.1122  2.1591
  615MOL0     H82984   5.966   4.890   4.642 -2.5164  0.9210  0.0452
  615MOL0     H82985   5.677   4.986   4.983  1.1979 -0.9366  0.1812
  615MOL0     H82986   5.419   4.897   5.080  2.5411 -1.2853 -2.2644
  615MOL0     H82987   5.456   5.064   5.070  0.7081 -1.6750  1.9375
  615MOL0     H82988   5.314   5.016   4.988 -1.1787 -0.6534  0.9331
  615MOL0     H82989   5.105   4.677   4.942  0.6189  0.2819 -0.4568
  615MOL0     H82990   4.882   4.581   4.918 -0.8255  0.4751  0.8592
  615MOL0     H82991   4.547   4.776   4.684  3.5090  2.2848  1.9027
  615MOL0     H82992   4.661   4.715   4.559  2.7131 -0.9910  1.5031
  615MOL0     H82993   4.473   4.605   4.507 -1.2907 -1.2325  0.0404
  615MOL0     H82994   4.591   4.484   4.587  2.2703  1.2097 -0.8261
  615MOL0     H82995   4.326   4.620   4.687  1.2412  1.2424  0.3976
  615MOL0     H82996   4.451   4.559   4.786  2.0339 -0.1735 -0.5205
  615MOL0     H82997   4.342   4.388   4.558  1.8745  0.5279 -0.7481
  615MOL0     H82998   4.451   4.336   4.687  0.0489 -0.3075  0.2894
  615MOL0     H82999   4.268   4.389   4.859  1.4219 -0.6409 -0.4215
  615MOL0     H83000   4.257   4.240   4.763 -1.0005 -0.0469  2.3208
  615MOL0     H83001   4.134   4.504   4.665 -1.2071 -0.3413 -1.1193
  615MOL0     H83002   4.099   4.332   4.605 -2.0991 -0.4212  0.9270
  615MOL0     H83003   4.022   4.479   4.858 -1.3366 -1.1283  2.2257
  615MOL0     H83004   4.013   4.306   4.844  3.5015  2.7127  3.8928
  615MOL0     H83005   3.876   4.501   4.665  0.9814  0.6515 -0.7163
  615MOL0     H83006   3.811   4.406   4.815  0.6745 -0.3606  0.2697
  615MOL0     H83007   4.787   4.869   4.610  1.6915  0.9090  0.1619
  615MOL0     H83008   5.017   4.972   4.642  1.2890 -1.0137 -0.7077
  615MOL0     H83009   5.494   4.788   4.579  0.4333  0.2238  0.1011
  615MOL0     H83010   5.750   4.793   4.624  0.4948 -3.3958  3.6164
  615MOL0     H83011   7.088   4.667   4.127  0.0576 -0.6979  2.0786
  615MOL0     H83012   7.245   4.593   3.956 -3.6900  0.3333  1.2941
  615MOL0     H83013   7.613   4.734   3.718 -2.1428 -0.3772 -3.1498
  615MOL0     H83014   7.779   4.715   3.547  2.3967  0.8722  1.5964
  615MOL0     H83015   7.807   4.582   3.302  1.0345 -0.2931 -1.3687
  615MOL0     H83016   7.947   4.665   3.382 -0.3390  0.7043 -0.7750
  615MOL0     H83017   8.102   4.481   3.295  0.8724  0.4226 -2.2897
  615MOL0     H83018   8.028   4.574   3.166  4.4785 -0.7428 -0.8205
  615MOL0     H83019   7.849   4.367   3.189 -0.4582 -0.7122  1.8448
  615MOL0     H83020   7.973   4.292   3.287  2.6180  1.1287  0.3481
  615MOL0     H83021   7.993   4.214   3.038  0.3608  0.9966  1.3892
  615MOL0     H83022   8.142   4.299   3.109  1.5635 -1.7556 -3.0814
  615MOL0     H83023   8.086   4.535   2.800  0.9566 -2.4329 -1.0822
  615MOL0     H83024   7.780   4.287   3.580  3.0634  1.0195  0.7153
  615MOL0     H83025   7.613   4.314   3.777 -0.3344 -0.4540  0.4011
  616MOL0     O83026   4.971   8.039   9.578  0.4722 -0.3028 -0.3921
  616MOL0     C83027   4.971   8.134   9.496  0.4575  1.4459 -0.0586
  616MOL0     O83028   4.878   8.160   9.402  1.2211  0.1540  0.7022
  616MOL0     C83029   4.759   8.088   9.393 -0.1306  0.0849  0.5866
  616MOL0     C83030   4.694   8.082   9.267 -0.0845 -0.5585 -0.6895
  616MOL0     C83031   4.564   8.030   9.251  0.0460  0.1188  0.0585
  616MOL0     C83032   4.497   7.969   9.359 -0.4352 -0.0017  0.1487
  616MOL0     O83033   4.388   7.893   9.318  0.4102  0.6380  0.1554
  616MOL0     C83034   4.315   7.814   9.422 -0.6447  0.0964 -0.4793
  616MOL0     C83035   4.241   7.710   9.330 -0.7997 -0.1377  0.7509
  616MOL0     C83036   4.130   7.638   9.398  0.2158 -0.3217 -1.4413
  616MOL0     C83037   4.169   7.566   9.530  0.1460  1.4368 -0.2258
  616MOL0     C83038   4.053   7.481   9.587  0.8058 -0.3315 -0.1725
  616MOL0     C83039   4.049   7.474   9.740  0.4047 -0.4378 -0.5063
  616MOL0     C83040   3.959   7.363   9.781 -0.7961  1.2825 -0.3343
  616MOL0     C83041   4.009   7.225   9.743  0.0731  0.0128  0.0943
  616MOL0     N83042   4.150   7.192   9.765  0.5583  0.2428  0.3239
  616MOL0     C83043   4.217   7.095   9.690  1.1880 -0.3964  0.0953
  616MOL0     C83044   4.321   7.072   9.768 -0.7146 -0.4911 -0.6835
  616MOL0     C83045   4.426   6.961   9.746  0.2197 -0.3040  0.6558
  616MOL0     C83046   4.482   6.902   9.879  0.1805 -0.4455  0.4451
  616MOL0     C83047   4.378   6.851   9.982 -0.1819  1.6725 -0.5024
  616MOL0     C83048   4.273   6.761   9.913 -0.2016  0.0107  0.3833
  616MOL0     O83049   4.322   6.664   9.819 -0.2017  0.5497  0.1795
  616MOL0     C83050   4.232   6.569   9.775  1.1649 -0.0509  0.1240
  616MOL0     C83051   4.276   6.445   9.731 -0.2165  0.6255  0.0077
  616MOL0     C83052   4.185   6.342   9.681 -1.4806 -1.0003 -0.6460
  616MOL0     C83053   4.258   6.244   9.599 -0.0096 -0.3905  0.5674
  616MOL0     C83054   4.045   6.373   9.691  0.1727  0.6221  0.3213
  616MOL0     C83055   3.950   6.272   9.641  0.9400 -0.5238 -0.0851
  616MOL0     O83056   3.822   6.293   9.674  0.4784  0.1527  0.5956
  616MOL0     C83057   3.720   6.200   9.666 -0.1809  0.6083  0.3325
  616MOL0     C83058   3.607   6.215   9.586 -0.1630  0.1094 -0.5265
  616MOL0     C83059   3.514   6.107   9.574  0.4426 -0.4920 -0.4350
  616MOL0     C83060   3.541   5.982   9.636  0.5372  0.4187  0.0999
  616MOL0     O83061   3.458   5.866   9.631  0.1789  0.0049  0.2128
  616MOL0     C83062   3.335   5.872   9.554  0.3112  0.6129 -0.3083
  616MOL0     C83063   3.249   5.740   9.582 -0.4865  0.0849  0.4207
  616MOL0     C83064   3.118   5.728   9.497  0.4922 -0.2907  1.1432
  616MOL0     C83065   3.061   5.588   9.492  0.5839 -0.0748 -0.3030
  616MOL0     C83066   2.921   5.589   9.433  0.7565 -0.0080  0.4677
  616MOL0     C83067   2.871   5.451   9.399  0.0980 -0.6097  0.5819
  616MOL0     C83068   2.719   5.444   9.397 -0.2179 -0.5369  0.5631
  616MOL0     C83069   2.653   5.494   9.264 -0.0948 -0.3708  0.3750
  616MOL0    Cl83070   2.486   5.509   9.314  0.2095  0.5911  0.0488
  616MOL0     C83071   3.662   5.966   9.706  0.4138  0.1727 -0.5002
  616MOL0     C83072   3.748   6.079   9.728 -0.5315  0.7812 -0.4984
  616MOL0     O83073   3.991   6.179   9.577  0.4630  0.0093  0.4276
  616MOL0     C83074   3.996   6.487   9.750 -0.3191  0.3450  0.6088
  616MOL0     C83075   4.088   6.585   9.787 -0.2335 -0.0559 -0.1371
  616MOL0     N83076   4.326   7.162   9.872  0.3156 -0.2642 -0.2942
  616MOL0     N83077   4.216   7.221   9.880 -0.6898  0.0572  0.5890
  616MOL0     C83078   4.565   7.972   9.483  0.6107  0.5130  0.2130
  616MOL0     C83079   4.688   8.036   9.499  0.4605 -0.2823  0.6425
  616MOL0     C83080   5.065   8.240   9.511  0.2590  0.1553  0.3419
  616MOL0     C83081   5.145   8.252   9.624  0.1188  0.2436  0.1460
  616MOL0     C83082   5.244   8.345   9.634 -0.6557  0.2067  0.0446
  616MOL0     C83083   5.276   8.428   9.522  0.8222 -0.6487  0.2292
  616MOL0     O83084   5.378   8.517   9.552 -0.2604 -0.5679 -0.3260
  616MOL0     C83085   5.389   8.627   9.454 -0.0411 -0.2954 -0.3932
  616MOL0     C83086   5.474   8.577   9.339  0.4121  0.5716 -0.1658
  616MOL0     C83087   5.560   8.688   9.272 -0.3325  0.2068  0.5648
  616MOL0     C83088   5.674   8.742   9.359  0.0260 -1.5562 -0.2762
  616MOL0     C83089   5.767   8.644   9.410  0.3974  0.1495  0.1852
  616MOL0     C83090   5.860   8.570   9.443 -0.1222  0.5478 -0.5070
  616MOL0     C83091   5.183   8.436   9.422 -0.3107 -0.2046 -1.2380
  616MOL0     C83092   5.085   8.333   9.412 -1.2694  0.4233  0.1416
  616MOL0     H83093   4.745   8.131   9.184 -1.2830 -1.1143 -1.7807
  616MOL0     H83094   4.519   8.017   9.153 -0.2431  2.2885 -0.1487
  616MOL0     H83095   4.382   7.771   9.497 -1.7822  0.0338  0.5256
  616MOL0     H83096   4.247   7.884   9.469 -1.5886 -1.1218  0.0275
  616MOL0     H83097   4.203   7.761   9.240  0.1389 -2.2184 -0.9171
  616MOL0     H83098   4.315   7.637   9.295  0.0997  1.8421 -1.8488
  616MOL0     H83099   4.053   7.712   9.421  0.7242 -0.1979 -0.0379
  616MOL0     H83100   4.090   7.557   9.336  1.6242 -2.8477  0.7360
  616MOL0     H83101   4.255   7.501   9.510 -1.0505  0.1944 -1.5651
  616MOL0     H83102   4.204   7.646   9.596 -1.7122  1.5714  0.6483
  616MOL0     H83103   3.957   7.521   9.553  1.1512  0.8215  0.1573
  616MOL0     H83104   4.053   7.381   9.542 -1.0355 -0.4034 -0.1136
  616MOL0     H83105   4.147   7.466   9.788 -0.1349 -0.6761  0.6056
  616MOL0     H83106   4.002   7.568   9.772 -1.1966 -0.4432 -2.6025
  616MOL0     H83107   3.958   7.359   9.891  1.8287 -0.5723 -0.2908
  616MOL0     H83108   3.852   7.372   9.758 -1.1460 -0.2022  0.5013
  616MOL0     H83109   3.997   7.212   9.635  1.5955 -1.9440  0.1077
  616MOL0     H83110   3.946   7.158   9.802 -2.2306  0.6844 -1.4496
  616MOL0     H83111   4.179   7.041   9.604 -0.1398  1.5506 -0.6102
  616MOL0     H83112   4.379   6.883   9.687 -1.7513  0.6132  0.9384
  616MOL0     H83113   4.500   7.005   9.678  0.9585  1.6444  2.5961
  616MOL0     H83114   4.538   6.983   9.925  2.5121 -1.3519 -0.6544
  616MOL0     H83115   4.560   6.828   9.863 -0.2746 -0.7295 -0.5958
  616MOL0     H83116   4.350   6.940  10.038  1.2669  0.5494  2.1669
  616MOL0     H83117   4.429   6.787  10.054 -2.0152  0.2611 -0.4162
  616MOL0     H83118   4.209   6.821   9.847  1.2215 -0.6466 -1.7322
  616MOL0     H83119   4.218   6.714   9.994 -1.4315 -0.9121 -0.9271
  616MOL0     H83120   4.380   6.413   9.735 -0.6549 -0.7754  1.7592
  616MOL0     H83121   4.196   6.225   9.510  0.5175  1.2127 -0.1661
  616MOL0     H83122   4.360   6.272   9.573 -0.2428 -0.1817 -0.1584
  616MOL0     H83123   4.262   6.156   9.665 -0.4023 -1.4190 -0.7208
  616MOL0     H83124   3.593   6.317   9.553  3.0365  0.9641  0.3595
  616MOL0     H83125   3.417   6.121   9.527  1.4465  2.0012 -1.9235
  616MOL0     H83126   3.268   5.953   9.586  1.0318  1.5522 -1.1161
  616MOL0     H83127   3.353   5.881   9.446  2.3688 -1.8584 -0.2611
  616MOL0     H83128   3.324   5.661   9.573  1.1954  1.7263 -0.8551
  616MOL0     H83129   3.216   5.740   9.686  2.4592  0.0830  1.4621
  616MOL0     H83130   3.132   5.776   9.400  2.6027 -1.6897  0.6852
  616MOL0     H83131   3.042   5.789   9.547  0.4375  0.2396  0.4287
  616MOL0     H83132   3.126   5.527   9.428  1.2265  1.2673 -0.9842
  616MOL0     H83133   3.056   5.542   9.591 -0.9677  1.2467  0.2795
  616MOL0     H83134   2.914   5.651   9.343 -0.6043 -0.3602  0.3135
  616MOL0     H83135   2.856   5.646   9.501  0.0580  1.9201 -1.6854
  616MOL0     H83136   2.906   5.422   9.299 -0.5612 -2.1879  0.7810
  616MOL0     H83137   2.919   5.382   9.468  2.3705 -0.0680 -0.3889
  616MOL0     H83138   2.683   5.496   9.486  0.4200  0.7755  0.0853
  616MOL0     H83139   2.695   5.338   9.407  1.7011 -1.0133  0.6057
  616MOL0     H83140   2.672   5.425   9.181 -0.3172 -1.5018  1.2344
  616MOL0     H83141   2.693   5.591   9.232 -2.2824  0.4656  0.0133
  616MOL0     H83142   3.674   5.872   9.760 -2.4967  0.1468  0.2812
  616MOL0     H83143   3.840   6.074   9.785 -0.2893 -0.4067 -0.9511
  616MOL0     H83144   3.891   6.508   9.765 -0.2463  0.5672  0.8032
  616MOL0     H83145   4.046   6.667   9.844 -0.1984  0.1508 -0.4051
  616MOL0     H83146   4.516   7.931   9.571 -0.0246  1.7290  0.4411
  616MOL0     H83147   4.713   8.038   9.604  0.9649  0.4685  0.5153
  616MOL0     H83148   5.135   8.177   9.701 -1.2122 -0.6358 -0.8250
  616MOL0     H83149   5.301   8.342   9.726 -0.3863  0.3996 -0.1138
  616MOL0     H83150   5.299   8.682   9.423  0.5589  1.7929  1.3823
  616MOL0     H83151   5.437   8.705   9.513  0.0271  0.6206 -1.6170
  616MOL0     H83152   5.407   8.543   9.259  1.7419 -1.1388 -0.6031
  616MOL0     H83153   5.534   8.496   9.380  0.9845  0.6539 -0.8132
  616MOL0     H83154   5.497   8.770   9.238  0.5528  1.1766  1.2005
  616MOL0     H83155   5.607   8.644   9.183  0.9582 -1.2218  1.8746
  616MOL0     H83156   5.640   8.805   9.442  1.4611 -0.2976 -0.5955
  616MOL0     H83157   5.735   8.811   9.302 -1.2049  0.5781  0.8474
  616MOL0     H83158   5.942   8.504   9.463 -2.3930 -2.7048 -1.1590
  616MOL0     H83159   5.186   8.513   9.346  0.3843 -0.7163 -1.7410
  616MOL0     H83160   5.020   8.333   9.325  0.3925  0.5856 -1.1483
  617MOL0     O83161   5.989  10.889   7.090 -1.0777  0.4468  0.7977
  617MOL0     C83162   6.103  10.943   7.082 -0.1805 -0.6176 -0.0235
  617MOL0     O83163   6.130  11.080   7.116 -0.0268  0.3631  0.4616
  617MOL0     C83164   6.026  11.148   7.156 -1.2405  0.7568 -1.4134
  617MOL0     C83165   5.968  11.222   7.062  0.5251 -0.9787  0.0656
  617MOL0     C83166   5.862  11.298   7.098 -0.6170 -0.1758 -0.1039
  617MOL0     C83167   5.794  11.280   7.219 -0.4999 -0.1165  0.6031
  617MOL0     O83168   5.679  11.350   7.233  0.2155  0.9619 -0.0171
  617MOL0     C83169   5.678  11.443   7.340 -0.4013  0.0258  0.2840
  617MOL0     C83170   5.753  11.579   7.304 -0.2879  0.9721  0.6969
  617MOL0     C83171   5.703  11.652   7.177  0.1274 -0.2666 -0.2633
  617MOL0     C83172   5.778  11.780   7.151 -0.0444  0.3445 -0.3528
  617MOL0     C83173   5.762  11.825   7.000  0.1143  0.0983  0.0443
  617MOL0     C83174   5.809  11.973   6.973  1.3565  0.3087  0.2809
  617MOL0     C83175   5.766  12.025   6.833  0.6955 -0.1136  0.0368
  617MOL0     C83176   5.647  12.130   6.847 -0.9493 -0.5434 -0.0991
  617MOL0     N83177   5.537  12.057   6.903  0.0285 -0.2416 -1.1681
  617MOL0     C83178   5.463  11.961   6.836  0.0385  0.0664  0.5165
  617MOL0     C83179   5.362  11.927   6.918  0.4049 -0.8418 -0.0198
  617MOL0     C83180   5.246  11.831   6.891 -0.0439 -0.3663  0.2020
  617MOL0     C83181   5.294  11.688   6.864  0.4742 -0.3497 -0.2708
  617MOL0     C83182   5.182  11.593   6.912  0.3206  0.6689 -0.4972
  617MOL0     C83183   5.213  11.441   6.897  0.0684  0.4930 -0.7016
  617MOL0     O83184   5.321  11.398   6.990  0.6333  0.0627  0.5431
  617MOL0     C83185   5.363  11.274   6.970  0.7538  0.1993 -0.6083
  617MOL0     C83186   5.276  11.171   6.947  0.3435  0.0620  0.6194
  617MOL0     C83187   5.322  11.038   6.921  0.7123  0.2102  0.3803
  617MOL0     C83188   5.209  10.926   6.921 -0.7660 -0.2038  0.7041
  617MOL0     C83189   5.459  11.004   6.935 -0.4052  0.2129 -0.0946
  617MOL0     C83190   5.508  10.863   6.938 -0.5397  0.2916  0.2173
  617MOL0     O83191   5.559  10.816   6.826 -0.5593  0.5434  0.2867
  617MOL0     C83192   5.639  10.700   6.818  0.3519 -0.0325 -0.1742
  617MOL0     C83193   5.642  10.633   6.697  0.1601 -0.7511  0.6295
  617MOL0     C83194   5.724  10.522   6.681 -0.7681 -0.5655 -0.0161
  617MOL0     C83195   5.820  10.485   6.787  0.6063 -0.7076 -0.3566
  617MOL0     O83196   5.906  10.386   6.751 -0.1067  0.1966  0.3617
  617MOL0     C83197   6.001  10.354   6.853 -0.1984  0.3770  0.7563
  617MOL0     C83198   6.112  10.264   6.786  0.4765  0.4552 -0.2974
  617MOL0     C83199   6.194  10.191   6.887  0.6888  0.2892  0.5914
  617MOL0     C83200   6.288  10.095   6.821  0.2889 -0.0738 -0.1284
  617MOL0     C83201   6.425  10.098   6.884  1.3854 -0.3953 -0.6387
  617MOL0     C83202   6.504  10.209   6.809 -0.2801  0.5117 -0.3956
  617MOL0     C83203   6.653  10.209   6.859  0.8341 -0.0013  0.2256
  617MOL0     C83204   6.746  10.097   6.815 -0.6267  0.1933 -0.8068
  617MOL0    Cl83205   6.774  10.097   6.643 -0.0954 -0.5437  0.0189
  617MOL0     C83206   5.807  10.557   6.907 -0.4768 -0.2037 -0.2804
  617MOL0     C83207   5.725  10.664   6.923 -0.4379  0.0837 -0.1869
  617MOL0     O83208   5.496  10.811   7.047 -0.3281  0.2994 -0.5900
  617MOL0     C83209   5.550  11.114   6.958  0.2445  0.1762  0.3320
  617MOL0     C83210   5.498  11.247   6.970 -0.7096  0.2146  0.3434
  617MOL0     N83211   5.388  11.993   7.033  0.4962 -0.7816 -0.0454
  617MOL0     N83212   5.482  12.080   7.027 -0.4603  0.4247 -0.3646
  617MOL0     C83213   5.846  11.192   7.316  0.0514 -0.2866 -1.0724
  617MOL0     C83214   5.965  11.126   7.284 -0.3705  0.3777  0.1214
  617MOL0     C83215   6.209  10.873   7.022  1.0253  0.0680  0.0501
  617MOL0     C83216   6.217  10.732   7.025  0.8651 -0.0359  0.2211
  617MOL0     C83217   6.313  10.659   6.958  0.9925 -0.4300 -0.3276
  617MOL0     C83218   6.409  10.727   6.888  0.2878 -0.2548 -1.7687
  617MOL0     O83219   6.521  10.668   6.833  0.5924  0.2022 -0.1858
  617MOL0     C83220   6.606  10.609   6.929 -0.3330 -0.2743 -0.1937
  617MOL0     C83221   6.736  10.690   6.928 -0.0909  0.4213 -0.3615
  617MOL0     C83222   6.861  10.603   6.954 -0.5068  0.0748 -0.3553
  617MOL0     C83223   6.836  10.498   7.060 -0.1958 -0.2278  0.1429
  617MOL0     C83224   6.963  10.459   7.120 -0.2614 -0.7022 -0.2000
  617MOL0     C83225   7.068  10.438   7.178 -0.0140  0.0009  0.3827
  617MOL0     C83226   6.405  10.870   6.878  0.9230 -0.3001  0.6106
  617MOL0     C83227   6.304  10.940   6.948 -0.2250  0.2264  0.9804
  617MOL0     H83228   6.009  11.228   6.962  0.0464 -1.5873 -0.1720
  617MOL0     H83229   5.809  11.359   7.025 -1.6202 -0.5631  0.2758
  617MOL0     H83230   5.577  11.468   7.374 -0.0714  1.9623 -0.0355
  617MOL0     H83231   5.723  11.395   7.427 -0.8494 -0.2431  0.3715
  617MOL0     H83232   5.739  11.646   7.390 -0.8209  1.6750  0.0729
  617MOL0     H83233   5.859  11.555   7.293  0.9726  5.8199  0.1128
  617MOL0     H83234   5.739  11.584   7.099  1.7357 -2.0142  1.8921
  617MOL0     H83235   5.595  11.668   7.184  0.3740  0.7366  2.5623
  617MOL0     H83236   5.742  11.855   7.222  1.7642  0.4967  0.4741
  617MOL0     H83237   5.884  11.763   7.173 -1.1219  0.2385  6.9976
  617MOL0     H83238   5.829  11.754   6.951 -1.1051 -2.7603  2.1890
  617MOL0     H83239   5.656  11.814   6.973 -0.0937  3.0639 -0.6410
  617MOL0     H83240   5.770  12.033   7.056  3.2241 -0.0458  1.4794
  617MOL0     H83241   5.918  11.976   6.985  1.2584 -1.0711  2.0974
  617MOL0     H83242   5.857  12.068   6.790  0.9012  0.1207  0.6916
  617MOL0     H83243   5.737  11.943   6.767  3.6515 -0.6403 -0.7431
  617MOL0     H83244   5.623  12.182   6.754  1.3501  0.3054 -0.2789
  617MOL0     H83245   5.684  12.194   6.928  1.4082 -1.8369 -0.0644
  617MOL0     H83246   5.471  11.934   6.732  2.0839 -0.6233  0.7969
  617MOL0     H83247   5.178  11.837   6.976 -1.1944 -2.0110 -0.5344
  617MOL0     H83248   5.197  11.872   6.802  0.6093 -1.7515 -0.8396
  617MOL0     H83249   5.381  11.666   6.927 -0.2220  3.0036  2.0979
  617MOL0     H83250   5.314  11.671   6.757  0.5038  1.5622 -0.6019
  617MOL0     H83251   5.091  11.609   6.855  1.3196 -1.8280 -3.0240
  617MOL0     H83252   5.161  11.613   7.018  0.4335  3.6085 -0.9432
  617MOL0     H83253   5.249  11.430   6.795 -0.7028 -0.6739 -0.8557
  617MOL0     H83254   5.125  11.378   6.910  0.9783 -0.8737 -0.9226
  617MOL0     H83255   5.168  11.177   6.944  0.2299 -1.3641  1.1764
  617MOL0     H83256   5.222  10.856   6.838  0.3832  0.7586  0.0376
  617MOL0     H83257   5.215  10.866   7.013  3.0684  0.0764  0.8160
  617MOL0     H83258   5.108  10.967   6.917 -0.3496  0.8414  0.6530
  617MOL0     H83259   5.586  10.661   6.608  0.1782 -3.1510 -0.2023
  617MOL0     H83260   5.723  10.461   6.591 -0.8029 -2.1418  1.0310
  617MOL0     H83261   6.038  10.446   6.899 -1.4182  0.9257  0.6703
  617MOL0     H83262   5.950  10.290   6.926  1.6072 -1.4369  0.5077
  617MOL0     H83263   6.059  10.198   6.717  4.1317 -0.9394 -1.9911
  617MOL0     H83264   6.178  10.323   6.722  1.8220  1.2309  1.7099
  617MOL0     H83265   6.133  10.130   6.955 -1.1756 -1.6176 -2.5416
  617MOL0     H83266   6.251  10.263   6.946 -0.2559  1.3471  0.2382
  617MOL0     H83267   6.244   9.996   6.835  1.8232 -0.8196 -0.4193
  617MOL0     H83268   6.295  10.124   6.715 -1.2916 -0.0560 -0.2562
  617MOL0     H83269   6.477  10.005   6.857 -0.6131 -1.5897 -0.5579
  617MOL0     H83270   6.418  10.109   6.993  0.9102  1.6567 -0.8478
  617MOL0     H83271   6.501  10.182   6.703 -0.1790 -1.1420  0.0004
  617MOL0     H83272   6.464  10.311   6.815  0.2563  0.7428 -0.6145
  617MOL0     H83273   6.658  10.212   6.969  2.9477 -1.6414  0.2352
  617MOL0     H83274   6.689  10.303   6.819 -0.5657 -0.0530 -1.2448
  617MOL0     H83275   6.704  10.003   6.850  2.5605 -1.8072 -1.8932
  617MOL0     H83276   6.842  10.107   6.867  0.2561 -0.0690 -2.3311
  617MOL0     H83277   5.855  10.527   7.000 -0.9476  0.5889  0.2327
  617MOL0     H83278   5.738  10.733   7.006  1.9772  0.2220 -0.6062
  617MOL0     H83279   5.653  11.081   6.953 -0.7616 -3.1353 -2.3614
  617MOL0     H83280   5.568  11.326   6.994 -0.6586 -0.0637  1.1585
  617MOL0     H83281   5.802  11.165   7.411 -0.1866 -0.3961 -1.2148
  617MOL0     H83282   6.026  11.063   7.348  2.6498 -0.0080 -2.8146
  617MOL0     H83283   6.142  10.688   7.090 -0.2849 -0.6746 -1.4877
  617MOL0     H83284   6.298  10.552   6.968 -1.0000  0.0225  2.5203
  617MOL0     H83285   6.575  10.611   7.034  0.8340 -1.6205  0.2123
  617MOL0     H83286   6.619  10.502   6.906 -0.1799 -0.3729  0.3354
  617MOL0     H83287   6.741  10.768   7.004  1.6685 -0.5542  0.5977
  617MOL0     H83288   6.740  10.740   6.831  3.0599  2.5706  0.7116
  617MOL0     H83289   6.937  10.676   6.983 -1.0584 -0.6192  3.2636
  617MOL0     H83290   6.895  10.545   6.868 -0.0493 -1.9639  1.1380
  617MOL0     H83291   6.788  10.411   7.016 -0.5430  1.6209 -3.4869
  617MOL0     H83292   6.782  10.529   7.151  2.9442 -3.8927  3.6572
  617MOL0     H83293   7.165  10.433   7.223  0.0154  1.1461  0.4697
  617MOL0     H83294   6.481  10.924   6.823  0.8122  1.2858  1.9481
  617MOL0     H83295   6.282  11.043   6.922  1.1147  0.3736  0.3345
  618MOL0     O83296   1.661   1.531   0.969  0.7315  0.5563  0.0604
  618MOL0     C83297   1.657   1.455   0.876 -0.1643 -0.2170 -0.0945
  618MOL0     O83298   1.588   1.338   0.870 -0.1954 -0.3100  0.6207
  618MOL0     C83299   1.546   1.288   0.986  0.4745  0.3994 -0.4985
  618MOL0     C83300   1.602   1.169   1.055  0.3786  0.0361  0.8766
  618MOL0     C83301   1.542   1.112   1.165  0.1529 -0.3709  0.3813
  618MOL0     C83302   1.424   1.167   1.231  0.0148  0.6846  0.0286
  618MOL0     O83303   1.385   1.117   1.349 -0.0748 -0.1281 -0.9136
  618MOL0     C83304   1.254   1.132   1.395  0.2619 -0.4930  0.0704
  618MOL0     C83305   1.232   1.023   1.500  0.3444  0.5274  0.6142
  618MOL0     C83306   1.075   1.010   1.521  0.1628  0.1976  1.1751
  618MOL0     C83307   0.996   1.124   1.586  0.3021  0.0400 -0.0562
  618MOL0     C83308   0.842   1.089   1.604 -0.4987  0.3457  0.5361
  618MOL0     C83309   0.773   1.065   1.472  0.0914  1.0253  0.4564
  618MOL0     C83310   0.625   1.049   1.492  0.6934  0.8521  0.5658
  618MOL0     C83311   0.535   1.054   1.366  0.1589  0.0270  0.0297
  618MOL0     N83312   0.396   1.002   1.406  0.1127  0.5615  0.1323
  618MOL0     C83313   0.354   0.872   1.428  0.1788 -0.1359  1.0223
  618MOL0     C83314   0.222   0.877   1.457 -0.2231 -1.1895  0.2949
  618MOL0     C83315   0.139   0.756   1.489  0.6692 -0.0385 -0.7585
  618MOL0     C83316   0.081   0.759   1.630  0.9800  0.3956  0.4637
  618MOL0     C83317  -0.069   0.754   1.631 -0.1723  0.0593  0.3093
  618MOL0     C83318  -0.151   0.875   1.577  0.9053 -0.4634 -0.5972
  618MOL0     O83319  -0.185   0.981   1.673 -0.3375  0.5058 -0.4176
  618MOL0     C83320  -0.312   0.978   1.743 -0.3744  0.1015  0.8437
  618MOL0     C83321  -0.359   1.088   1.806  0.0890 -0.6666 -0.0701
  618MOL0     C83322  -0.485   1.094   1.871 -0.7758 -1.1102  0.4275
  618MOL0     C83323  -0.533   1.234   1.908 -0.3281 -1.2648  0.2138
  618MOL0     C83324  -0.565   0.977   1.880  0.0400 -0.0397 -0.3026
  618MOL0     C83325  -0.706   0.977   1.935 -0.2687 -0.6037 -0.5128
  618MOL0     O83326  -0.793   0.895   1.875 -0.4021  0.1291  0.8519
  618MOL0     C83327  -0.924   0.876   1.912  0.0473 -0.4636 -0.2555
  618MOL0     C83328  -0.959   0.751   1.951  0.5531 -0.2657 -0.2705
  618MOL0     C83329  -1.089   0.725   2.006 -0.8906  0.1691 -0.0992
  618MOL0     C83330  -1.173   0.833   2.026  0.1399 -0.6616 -0.0812
  618MOL0     O83331  -1.293   0.797   2.084 -0.4017  0.3859 -0.8657
  618MOL0     C83332  -1.391   0.906   2.104  0.4681  0.6369  0.4014
  618MOL0     C83333  -1.457   0.934   1.974  0.2157  0.4489 -0.8178
  618MOL0     C83334  -1.603   0.979   2.000  0.7499  0.0687  0.1514
  618MOL0     C83335  -1.670   1.013   1.869  0.1645  0.8088  0.0182
  618MOL0     C83336  -1.819   1.031   1.893  0.1032 -0.2031  0.1881
  618MOL0     C83337  -1.866   1.181   1.884  0.3403 -0.0833 -0.0724
  618MOL0     C83338  -2.016   1.195   1.923  1.0061 -0.1914  0.1438
  618MOL0     C83339  -2.086   1.298   1.840  0.7385 -0.5834  0.6228
  618MOL0    Cl83340  -2.250   1.332   1.900 -0.0702  0.2421 -0.2450
  618MOL0     C83341  -1.140   0.965   1.978 -0.1248  0.5516  0.0278
  618MOL0     C83342  -1.008   0.983   1.924  0.0555 -0.3590 -0.2405
  618MOL0     O83343  -0.731   1.048   2.026  0.0626 -0.0085 -0.9970
  618MOL0     C83344  -0.506   0.857   1.822 -0.1706  0.5107 -0.2140
  618MOL0     C83345  -0.390   0.860   1.754 -0.7245  0.0536  0.1781
  618MOL0     N83346   0.186   1.013   1.442  0.7566 -0.7244  0.2197
  618MOL0     N83347   0.289   1.087   1.421  0.0982  0.3898 -0.1211
  618MOL0     C83348   1.371   1.283   1.166 -0.0176  0.4898 -0.7830
  618MOL0     C83349   1.436   1.345   1.053  0.0199 -0.1983 -0.1519
  618MOL0     C83350   1.712   1.501   0.747  0.2899  0.0311 -0.5246
  618MOL0     C83351   1.809   1.609   0.755  1.1595 -0.9738  0.5164
  618MOL0     C83352   1.868   1.649   0.642  0.4171  0.1339 -0.3557
  618MOL0     C83353   1.834   1.582   0.523  0.1568 -0.6318 -0.5374
  618MOL0     O83354   1.899   1.637   0.418 -0.6045 -0.2293  0.1941
  618MOL0     C83355   1.921   1.569   0.291  0.1280  0.6424 -0.9171
  618MOL0     C83356   2.059   1.506   0.315  0.2829 -0.1284  0.9873
  618MOL0     C83357   2.177   1.604   0.307 -0.7337 -0.1518  0.2381
  618MOL0     C83358   2.240   1.600   0.161 -0.4892  0.0344 -0.9143
  618MOL0     C83359   2.196   1.701   0.068  0.4158 -0.4387 -0.2062
  618MOL0     C83360   2.166   1.788  -0.013 -0.8406 -0.3664  0.0013
  618MOL0     C83361   1.744   1.482   0.517 -0.7394  1.1832  0.4116
  618MOL0     C83362   1.683   1.434   0.633  1.0428 -0.5909 -0.4719
  618MOL0     H83363   1.691   1.118   1.020 -0.1814 -0.2184 -0.2485
  618MOL0     H83364   1.595   1.035   1.220 -0.8841 -0.9184  0.6618
  618MOL0     H83365   1.222   1.231   1.426  1.2938  0.9771 -3.1756
  618MOL0     H83366   1.182   1.112   1.315 -0.3109 -1.9238  0.8879
  618MOL0     H83367   1.285   0.936   1.462  4.1937  1.6256  2.9841
  618MOL0     H83368   1.280   1.043   1.596  1.8239  0.5856 -0.1182
  618MOL0     H83369   1.027   0.983   1.427  2.9512  0.3204 -0.3822
  618MOL0     H83370   1.059   0.925   1.589  2.1869 -2.9022 -1.8376
  618MOL0     H83371   1.024   1.161   1.685 -3.8248  1.0593  0.9196
  618MOL0     H83372   1.010   1.211   1.521  2.2365 -0.5196 -0.4619
  618MOL0     H83373   0.831   1.006   1.674 -1.3635  0.1232  0.1345
  618MOL0     H83374   0.789   1.176   1.645  1.9430  1.6485  1.1498
  618MOL0     H83375   0.797   1.138   1.394  1.1338  0.0078 -0.2036
  618MOL0     H83376   0.799   0.971   1.424 -1.5586  1.1093 -0.6977
  618MOL0     H83377   0.620   0.952   1.543  2.4999 -0.0804 -0.9203
  618MOL0     H83378   0.587   1.117   1.569  0.1128 -2.4247  3.4557
  618MOL0     H83379   0.576   0.996   1.283  3.3613  2.3905 -0.2296
  618MOL0     H83380   0.526   1.159   1.337  1.3269 -0.0454 -0.6357
  618MOL0     H83381   0.420   0.786   1.433 -0.9961 -1.2290 -1.0102
  618MOL0     H83382   0.065   0.748   1.408  0.4180 -0.4776 -0.4924
  618MOL0     H83383   0.201   0.667   1.473  0.3215 -0.1493 -1.5614
  618MOL0     H83384   0.115   0.853   1.675  3.2641 -0.1859  0.0997
  618MOL0     H83385   0.104   0.670   1.690 -4.2920 -0.3726  1.8014
  618MOL0     H83386  -0.096   0.724   1.733  1.1569  0.0574  0.6757
  618MOL0     H83387  -0.098   0.660   1.581 -0.6818 -2.1659  4.3839
  618MOL0     H83388  -0.243   0.823   1.549 -0.1380 -0.0493  1.7862
  618MOL0     H83389  -0.115   0.919   1.484  0.8324  0.6462 -0.1105
  618MOL0     H83390  -0.294   1.174   1.797  0.7216 -1.2791 -1.6019
  618MOL0     H83391  -0.454   1.304   1.882  0.1892 -1.3537  1.4669
  618MOL0     H83392  -0.632   1.258   1.868 -0.0774 -0.0547  0.2951
  618MOL0     H83393  -0.557   1.241   2.015  0.1690 -2.8015  0.4450
  618MOL0     H83394  -0.879   0.678   1.962  3.1917  2.7252  2.1298
  618MOL0     H83395  -1.115   0.623   2.030  0.7430 -0.1290  0.4766
  618MOL0     H83396  -1.465   0.860   2.170 -0.6104  2.2389  0.3599
  618MOL0     H83397  -1.356   0.999   2.150 -2.3526  1.4338  1.1733
  618MOL0     H83398  -1.400   1.009   1.919  0.9747  1.3469  1.0936
  618MOL0     H83399  -1.471   0.844   1.913 -1.9458  0.1070  0.0842
  618MOL0     H83400  -1.607   1.068   2.064  1.8140 -2.2244  3.7171
  618MOL0     H83401  -1.662   0.903   2.052 -2.2377  0.2031 -2.7277
  618MOL0     H83402  -1.622   1.096   1.817 -1.8022  1.5047 -0.8062
  618MOL0     H83403  -1.657   0.923   1.809  3.6693  1.7554 -0.8566
  618MOL0     H83404  -1.844   0.979   1.986  2.8095  0.4002  1.3435
  618MOL0     H83405  -1.872   0.969   1.820 -1.6725  1.1680  0.2264
  618MOL0     H83406  -1.808   1.238   1.957 -0.1577 -0.2167  0.4349
  618MOL0     H83407  -1.850   1.218   1.782 -0.9759 -1.0388 -0.6458
  618MOL0     H83408  -2.016   1.225   2.028 -0.8503  2.5339 -0.5245
  618MOL0     H83409  -2.058   1.096   1.904  2.0355 -0.8553  1.1383
  618MOL0     H83410  -2.083   1.281   1.732 -0.1146  1.3297  0.2570
  618MOL0     H83411  -2.047   1.400   1.850  0.7658 -0.6012  0.7035
  618MOL0     H83412  -1.204   1.050   1.995  0.7916  1.1121  0.7562
  618MOL0     H83413  -0.982   1.080   1.881 -0.2134 -0.3611 -0.4113
  618MOL0     H83414  -0.568   0.768   1.828 -1.1352  1.2592  1.8679
  618MOL0     H83415  -0.354   0.765   1.715 -0.7478 -0.3761  1.1670
  618MOL0     H83416   1.289   1.349   1.194  1.1460  2.7175 -2.3197
  618MOL0     H83417   1.388   1.431   1.008  0.2128 -1.0202 -1.9887
  618MOL0     H83418   1.857   1.651   0.843  0.7273  1.0531 -0.1472
  618MOL0     H83419   1.939   1.731   0.648 -0.9094  1.2422  1.3172
  618MOL0     H83420   1.845   1.495   0.267  1.4824 -1.3225  0.4550
  618MOL0     H83421   1.935   1.643   0.212 -1.5340 -0.2903 -2.1236
  618MOL0     H83422   2.072   1.428   0.239 -0.4534  2.3809 -1.9322
  618MOL0     H83423   2.061   1.452   0.410  2.0707 -1.2509  0.3773
  618MOL0     H83424   2.249   1.573   0.383  0.4767 -3.4817 -1.9933
  618MOL0     H83425   2.145   1.707   0.323 -2.6720 -0.8307  1.0978
  618MOL0     H83426   2.241   1.500   0.118  0.6530 -1.0951  1.5237
  618MOL0     H83427   2.342   1.628   0.190 -0.9156  0.3516  0.3364
  618MOL0     H83428   2.142   1.865  -0.084 -0.9599  1.8319  2.2546
  618MOL0     H83429   1.716   1.422   0.431 -2.4083  2.2556  0.1643
  618MOL0     H83430   1.618   1.348   0.625 -0.2492  0.3375 -0.3701
  619MOL0     O83431  11.258   5.344  10.450  0.2594 -0.3383  0.5790
  619MOL0     C83432  11.258   5.247  10.523 -0.3510  0.8344 -0.4752
  619MOL0     O83433  11.146   5.195  10.588 -0.2952 -0.6139  0.9916
  619MOL0     C83434  11.022   5.245  10.554  0.2369 -0.3502  0.3900
  619MOL0     C83435  10.913   5.161  10.557 -0.8905 -0.5249 -0.2110
  619MOL0     C83436  10.778   5.207  10.556 -0.4455  0.1985  0.4767
  619MOL0     C83437  10.760   5.345  10.539 -1.1185  0.1002 -0.9680
  619MOL0     O83438  10.630   5.384  10.523 -0.4431 -0.5666  0.3006
  619MOL0     C83439  10.601   5.524  10.518  0.2722 -0.4330 -0.1373
  619MOL0     C83440  10.452   5.540  10.498  0.4084  0.4961  0.0794
  619MOL0     C83441  10.366   5.489  10.611 -0.2813 -0.7523 -0.3489
  619MOL0     C83442  10.215   5.497  10.568 -0.2236  0.4024  0.0753
  619MOL0     C83443  10.124   5.490  10.689 -0.2813 -0.2799  0.2371
  619MOL0     C83444   9.985   5.516  10.633  0.3439  0.6779 -0.9063
  619MOL0     C83445   9.874   5.498  10.742  0.5745 -0.6227 -0.5794
  619MOL0     C83446   9.873   5.593  10.858  0.5183 -0.6771  0.2964
  619MOL0     N83447   9.781   5.710  10.839  0.1257 -0.8860  0.8081
  619MOL0     C83448   9.643   5.697  10.817  0.1073 -0.3172 -0.3178
  619MOL0     C83449   9.586   5.820  10.825 -0.4836 -0.5415 -0.1488
  619MOL0     C83450   9.441   5.864  10.824 -0.9669 -0.7356 -0.7940
  619MOL0     C83451   9.372   5.840  10.961  0.0945  0.1242  0.1151
  619MOL0     C83452   9.330   5.698  10.973  0.2373 -0.3621 -0.1882
  619MOL0     C83453   9.273   5.676  11.116 -1.5692  0.2101 -0.4625
  619MOL0     O83454   9.373   5.702  11.216  0.1560 -0.4161  0.0681
  619MOL0     C83455   9.499   5.654  11.209  0.4064 -0.0694  0.1481
  619MOL0     C83456   9.533   5.526  11.176 -0.6521  0.2960 -0.7858
  619MOL0     C83457   9.672   5.489  11.166  0.0271 -0.6200  0.8151
  619MOL0     C83458   9.700   5.343  11.157 -0.3589 -0.7068 -0.4742
  619MOL0     C83459   9.770   5.588  11.207 -0.7511 -1.0207  0.4711
  619MOL0     C83460   9.913   5.557  11.220 -0.1454  0.3451  0.0916
  619MOL0     O83461   9.992   5.659  11.194  0.0813 -0.2958  0.4492
  619MOL0     C83462  10.126   5.638  11.219  0.3171  0.0431  0.0657
  619MOL0     C83463  10.182   5.678  11.337 -0.3757 -0.5959 -0.1453
  619MOL0     C83464  10.310   5.658  11.363  0.2309 -0.0938 -0.1676
  619MOL0     C83465  10.393   5.599  11.271  0.0805 -0.5086 -0.6109
  619MOL0     O83466  10.525   5.584  11.321 -0.6720 -0.1378 -0.4888
  619MOL0     C83467  10.618   5.503  11.249  0.1685  0.2065  0.4606
  619MOL0     C83468  10.759   5.494  11.318  0.4981  0.5092 -0.1076
  619MOL0     C83469  10.828   5.620  11.364  0.7805  0.8496  0.5711
  619MOL0     C83470  10.953   5.586  11.447  0.0962  1.3767  0.9527
  619MOL0     C83471  11.085   5.603  11.371  0.2428 -0.0157 -1.2706
  619MOL0     C83472  11.193   5.506  11.430 -0.0852  0.2410 -0.0153
  619MOL0     C83473  11.301   5.489  11.322 -0.0931  0.5873 -0.1585
  619MOL0     C83474  11.427   5.428  11.369 -1.0320 -0.4065  0.7601
  619MOL0    Cl83475  11.499   5.357  11.215  0.4038 -0.4588 -0.0129
  619MOL0     C83476  10.346   5.567  11.141 -0.6497 -0.0018  0.0261
  619MOL0     C83477  10.206   5.589  11.123 -0.8401  0.7836  0.3785
  619MOL0     O83478   9.949   5.447  11.250 -0.0338  0.6242  0.0596
  619MOL0     C83479   9.731   5.724  11.234 -0.2520 -0.7036 -1.3635
  619MOL0     C83480   9.592   5.749  11.240 -0.0135  0.1558 -0.3157
  619MOL0     N83481   9.700   5.912  10.825  0.1146  0.4583  0.4279
  619MOL0     N83482   9.814   5.847  10.836  0.3155 -0.3240  0.8986
  619MOL0     C83483  10.873   5.435  10.539  0.1606  0.6550  0.2727
  619MOL0     C83484  10.996   5.385  10.546 -0.7062  0.0026 -0.6683
  619MOL0     C83485  11.384   5.193  10.557 -0.6780 -0.4134  0.4410
  619MOL0     C83486  11.393   5.068  10.622 -0.0555  0.6957 -0.1628
  619MOL0     C83487  11.524   5.014  10.656  1.1758 -0.2061 -0.3741
  619MOL0     C83488  11.639   5.085  10.617  0.4294  0.2471  0.0721
  619MOL0     O83489  11.765   5.045  10.653 -0.2999 -0.0253 -0.3724
  619MOL0     C83490  11.795   4.912  10.705  0.1241 -0.1098 -0.1203
  619MOL0     C83491  11.945   4.888  10.680 -0.3370  0.2370 -0.1467
  619MOL0     C83492  12.000   4.770  10.758  0.0877  0.2054  0.3779
  619MOL0     C83493  12.144   4.730  10.716  0.8581 -0.8473 -0.0473
  619MOL0     C83494  12.251   4.841  10.694 -0.3001 -0.2199  0.3775
  619MOL0     C83495  12.346   4.919  10.685  0.2401 -0.3149 -1.3494
  619MOL0     C83496  11.624   5.203  10.550 -0.4689  0.3462  0.2772
  619MOL0     C83497  11.500   5.258  10.524  0.4344  0.3572 -0.2758
  619MOL0     H83498  10.936   5.055  10.557  2.5213  0.0926 -0.9903
  619MOL0     H83499  10.686   5.149  10.550 -0.8081  0.2947  3.5030
  619MOL0     H83500  10.623   5.572  10.613 -0.4169 -0.0453 -0.1705
  619MOL0     H83501  10.655   5.582  10.443 -1.9370  0.1416 -1.3774
  619MOL0     H83502  10.432   5.646  10.482 -2.0890 -0.1354 -1.4330
  619MOL0     H83503  10.418   5.495  10.404 -2.8819  0.7237  1.0184
  619MOL0     H83504  10.398   5.387  10.634  3.4341 -0.3751 -2.9532
  619MOL0     H83505  10.389   5.558  10.692  1.3420 -1.0847 -0.4984
  619MOL0     H83506  10.196   5.593  10.521  0.1585  0.3876 -0.1133
  619MOL0     H83507  10.199   5.422  10.490 -0.7182  0.9069 -0.3181
  619MOL0     H83508  10.138   5.394  10.741 -0.3614 -0.2396  0.3331
  619MOL0     H83509  10.145   5.564  10.766 -0.0815 -1.2791  1.1623
  619MOL0     H83510   9.963   5.607  10.577 -0.8126  2.0302  1.6280
  619MOL0     H83511   9.984   5.429  10.566  1.5471 -1.2801  1.4530
  619MOL0     H83512   9.778   5.503  10.691  0.3168 -0.1120 -0.0456
  619MOL0     H83513   9.884   5.399  10.788  2.3026 -0.6146 -0.8537
  619MOL0     H83514   9.969   5.638  10.883 -0.1981  1.1835 -0.1684
  619MOL0     H83515   9.837   5.529  10.940  0.4225 -0.9117  0.0730
  619MOL0     H83516   9.594   5.601  10.805  1.5623 -1.0064 -0.9626
  619MOL0     H83517   9.455   5.970  10.798  2.8269 -1.2541 -1.3637
  619MOL0     H83518   9.380   5.820  10.744 -4.5872  0.6510  0.9627
  619MOL0     H83519   9.279   5.897  10.951 -0.2223 -0.3946  0.0794
  619MOL0     H83520   9.439   5.885  11.035 -1.6447  0.4530  1.5435
  619MOL0     H83521   9.417   5.637  10.950  1.3331  2.1146 -3.2845
  619MOL0     H83522   9.252   5.670  10.901 -0.3235 -1.0654  0.6727
  619MOL0     H83523   9.235   5.574  11.128 -0.0579 -0.7352 -2.9268
  619MOL0     H83524   9.185   5.739  11.131 -2.3942 -0.8033 -0.9884
  619MOL0     H83525   9.458   5.448  11.176  0.6190 -0.9951  0.4879
  619MOL0     H83526   9.768   5.324  11.073 -0.5938  1.0023 -1.0949
  619MOL0     H83527   9.744   5.306  11.251 -1.2428  0.1950  0.3200
  619MOL0     H83528   9.615   5.278  11.135 -0.7458  0.6669 -3.5187
  619MOL0     H83529  10.105   5.707  11.409  1.1572  0.1458  1.2648
  619MOL0     H83530  10.353   5.683  11.460  1.5023 -0.9799 -0.4760
  619MOL0     H83531  10.571   5.408  11.221 -0.5887  0.7563 -0.1977
  619MOL0     H83532  10.619   5.551  11.151 -3.3069 -0.4088 -0.0268
  619MOL0     H83533  10.752   5.425  11.403 -1.7275  1.8552  0.8915
  619MOL0     H83534  10.821   5.453  11.238  1.8676  2.7382 -0.2764
  619MOL0     H83535  10.758   5.663  11.436 -0.2039  0.3850 -0.0909
  619MOL0     H83536  10.853   5.687  11.282  1.6940 -0.6196 -0.3957
  619MOL0     H83537  10.956   5.655  11.532 -2.2354  0.2772  2.0079
  619MOL0     H83538  10.939   5.482  11.477  1.8783  0.6691 -0.4999
  619MOL0     H83539  11.119   5.707  11.374  1.8945 -0.5427  0.3153
  619MOL0     H83540  11.070   5.572  11.268 -0.5069 -2.9172 -0.3912
  619MOL0     H83541  11.240   5.532  11.525  1.1121 -1.9206  0.0333
  619MOL0     H83542  11.150   5.406  11.444 -0.3070  0.3180 -0.1272
  619MOL0     H83543  11.312   5.591  11.284 -2.4882  0.6155 -0.9241
  619MOL0     H83544  11.264   5.423  11.243  0.0384  0.1353  0.1479
  619MOL0     H83545  11.414   5.337  11.430  1.1511  0.4189  2.6066
  619MOL0     H83546  11.493   5.494  11.426 -1.5750  1.3899 -0.6140
  619MOL0     H83547  10.406   5.518  11.064  1.2628 -0.9595  1.9866
  619MOL0     H83548  10.156   5.570  11.029  2.5008 -5.3625 -0.7379
  619MOL0     H83549   9.806   5.792  11.274  0.7234 -2.6650  0.3567
  619MOL0     H83550   9.557   5.844  11.279  0.1162 -1.3896  4.0533
  619MOL0     H83551  10.863   5.541  10.521  0.3027  0.9429  1.7949
  619MOL0     H83552  11.076   5.458  10.540  1.0710 -1.8322 -0.5856
  619MOL0     H83553  11.302   5.012  10.642  1.7438 -2.8038 -0.9784
  619MOL0     H83554  11.533   4.926  10.718 -1.2528  1.3152  2.3964
  619MOL0     H83555  11.781   4.899  10.813  1.2016 -1.0386 -0.0754
  619MOL0     H83556  11.731   4.833  10.663 -0.7561  0.0341  0.9037
  619MOL0     H83557  11.998   4.977  10.715  0.7211 -0.8375  1.0789
  619MOL0     H83558  11.967   4.874  10.574  2.6372  0.5469  0.3342
  619MOL0     H83559  11.930   4.687  10.745  0.0309  0.4621 -1.1047
  619MOL0     H83560  11.992   4.801  10.863  0.2809  1.1841  0.1115
  619MOL0     H83561  12.138   4.680  10.619  0.0605  2.0018 -1.5616
  619MOL0     H83562  12.180   4.661  10.793  3.6194  0.2552 -0.2210
  619MOL0     H83563  12.429   4.986  10.673  1.9057 -1.6380  1.6974
  619MOL0     H83564  11.710   5.265  10.530  0.3144 -0.8608 -0.1657
  619MOL0     H83565  11.500   5.358  10.482  2.7463  1.0630  1.1767
  620MOL0     O83566   7.185   0.230  10.772 -0.5283  0.0541 -0.3687
  620MOL0     C83567   7.295   0.290  10.772  0.0519 -0.7449 -0.2084
  620MOL0     O83568   7.316   0.427  10.792  0.3529  0.3309 -0.0623
  620MOL0     C83569   7.220   0.514  10.743  0.5754  0.0160  0.5925
  620MOL0     C83570   7.228   0.650  10.783 -0.6323 -0.1378 -0.4534
  620MOL0     C83571   7.123   0.744  10.751  0.3870  0.5896 -0.0098
  620MOL0     C83572   7.005   0.703  10.685  1.0116  0.8155  0.7730
  620MOL0     O83573   6.917   0.802  10.670 -0.6559 -0.4376  0.5969
  620MOL0     C83574   6.887   0.897  10.769 -0.3274  0.0847 -0.3505
  620MOL0     C83575   6.905   1.032  10.700 -0.9761 -0.9912 -0.2343
  620MOL0     C83576   6.858   1.143  10.786 -0.3797 -0.5589  0.6047
  620MOL0     C83577   6.902   1.273  10.724 -0.2450 -0.2350  0.2866
  620MOL0     C83578   6.826   1.395  10.779  0.0751  0.2691  0.8855
  620MOL0     C83579   6.901   1.527  10.749  0.0838 -0.1775 -0.7694
  620MOL0     C83580   6.843   1.649  10.824  0.1902  0.1459 -0.2743
  620MOL0     C83581   6.941   1.762  10.825 -0.3563 -0.3683  0.2922
  620MOL0     N83582   6.929   1.834  10.689  0.6764 -1.2954  0.1030
  620MOL0     C83583   7.037   1.850  10.604 -0.6385  0.0596 -0.2843
  620MOL0     C83584   6.996   1.949  10.522  0.4781 -0.7590 -0.5550
  620MOL0     C83585   7.075   2.011  10.407 -0.2059 -1.1094  0.2990
  620MOL0     C83586   7.047   1.960  10.267 -0.2803  0.3245  0.5861
  620MOL0     C83587   7.182   1.924  10.184  0.4194 -0.2295  0.1374
  620MOL0     C83588   7.264   2.054  10.157 -0.1658 -0.0761  0.5636
  620MOL0     O83589   7.388   2.013  10.093  0.6167  0.6000 -0.0121
  620MOL0     C83590   7.498   2.095  10.093  0.3016  0.0090 -0.2741
  620MOL0     C83591   7.500   2.229  10.114 -0.2314 -0.0239  0.4608
  620MOL0     C83592   7.626   2.298  10.113  0.4168 -0.7964 -0.0492
  620MOL0     C83593   7.615   2.449  10.153 -0.0722 -0.2842 -0.4565
  620MOL0     C83594   7.745   2.231  10.077  0.3593  0.3281  0.0321
  620MOL0     C83595   7.886   2.283  10.094 -0.4657  0.8551 -0.8338
  620MOL0     O83596   7.901   2.393  10.170  0.3083  0.0657 -0.5672
  620MOL0     C83597   8.020   2.463  10.175  0.8314  0.7072 -0.6251
  620MOL0     C83598   8.017   2.597  10.172  0.7130 -0.3001 -0.0454
  620MOL0     C83599   8.141   2.665  10.186 -1.0181  0.5327 -1.7253
  620MOL0     C83600   8.259   2.596  10.221 -0.3094  0.4953 -0.7626
  620MOL0     O83601   8.385   2.657  10.238  0.8624 -0.7301 -0.5520
  620MOL0     C83602   8.385   2.798  10.256 -0.5944  0.0305 -0.2669
  620MOL0     C83603   8.516   2.848  10.301  0.1575 -0.6226  0.1611
  620MOL0     C83604   8.624   2.864  10.190  0.4897 -0.4001 -0.1433
  620MOL0     C83605   8.753   2.894  10.264  1.5497 -0.3030 -0.3296
  620MOL0     C83606   8.873   2.902  10.169  0.3100  0.0812 -0.8246
  620MOL0     C83607   8.984   2.818  10.213 -0.2753  0.2824 -0.5467
  620MOL0     C83608   9.103   2.849  10.124  1.0063  0.4030 -0.5823
  620MOL0     C83609   9.234   2.780  10.175  0.9044  0.0674  0.1649
  620MOL0    Cl83610   9.357   2.789  10.054  0.0244 -0.1938  0.0252
  620MOL0     C83611   8.254   2.456  10.243 -0.3242  0.1586 -0.9154
  620MOL0     C83612   8.132   2.393  10.225 -0.2343 -0.6961 -0.7727
  620MOL0     O83613   7.983   2.216  10.054 -0.3117  0.2570  0.1346
  620MOL0     C83614   7.734   2.099  10.044  1.1436  0.1836  0.7781
  620MOL0     C83615   7.616   2.027  10.048  0.0961 -0.4676 -0.6617
  620MOL0     N83616   6.874   2.002  10.558  0.5315 -0.1951 -0.4592
  620MOL0     N83617   6.836   1.933  10.660 -0.0069  0.4276 -0.0353
  620MOL0     C83618   6.999   0.573  10.636  0.4462  0.5106 -0.2139
  620MOL0     C83619   7.102   0.480  10.664 -0.2816  0.6006  0.1797
  620MOL0     C83620   7.422   0.221  10.753 -1.1024  0.5774  0.3783
  620MOL0     C83621   7.554   0.277  10.751  1.1475  0.0727  1.8412
  620MOL0     C83622   7.660   0.210  10.701 -0.4387  0.3686  0.4850
  620MOL0     C83623   7.656   0.071  10.664 -0.3452 -0.2378  0.8796
  620MOL0     O83624   7.763  -0.004  10.620  0.3459  0.4356 -0.3242
  620MOL0     C83625   7.891   0.052  10.656 -0.4551 -0.2387 -0.4067
  620MOL0     C83626   7.989  -0.054  10.624 -0.0016  0.2387  0.0453
  620MOL0     C83627   8.019  -0.069  10.475 -1.0399 -0.2341  0.0658
  620MOL0     C83628   8.013  -0.212  10.413  0.9759  0.3667 -0.1841
  620MOL0     C83629   8.126  -0.292  10.446  0.0372  0.1362  0.3551
  620MOL0     C83630   8.218  -0.350  10.502 -0.7788 -0.0039 -0.4115
  620MOL0     C83631   7.526   0.014  10.664 -0.3322  0.2512  0.0002
  620MOL0     C83632   7.419   0.090  10.698  0.0186  0.2064 -0.4115
  620MOL0     H83633   7.322   0.688  10.821 -0.6956  0.8295 -1.2178
  620MOL0     H83634   7.143   0.848  10.776  0.1924  0.0634  2.6218
  620MOL0     H83635   6.789   0.864  10.804 -0.1983 -1.7706 -1.6392
  620MOL0     H83636   6.954   0.883  10.854  0.9876 -0.9586 -1.5182
  620MOL0     H83637   7.008   1.038  10.664 -1.5631  0.5763 -1.7636
  620MOL0     H83638   6.853   1.019  10.605  0.2745 -1.1017 -0.9295
  620MOL0     H83639   6.749   1.131  10.786 -0.5356  0.6197  1.9082
  620MOL0     H83640   6.895   1.145  10.888 -1.2542  0.9190  0.9291
  620MOL0     H83641   7.009   1.283  10.742 -0.3727  2.2837 -0.0476
  620MOL0     H83642   6.886   1.267  10.615  0.8300 -1.7890  0.1865
  620MOL0     H83643   6.726   1.395  10.735 -0.3662  1.0435  1.8383
  620MOL0     H83644   6.828   1.393  10.889  0.8103  2.1250  0.9364
  620MOL0     H83645   7.006   1.523  10.781  0.9327 -0.7985 -3.3786
  620MOL0     H83646   6.908   1.540  10.640 -1.2508 -0.2621 -0.8787
  620MOL0     H83647   6.744   1.679  10.791 -0.7827 -0.4415  1.9163
  620MOL0     H83648   6.842   1.612  10.927  4.2554 -1.8915 -0.7475
  620MOL0     H83649   7.042   1.725  10.845 -0.3093 -1.9848 -2.4279
  620MOL0     H83650   6.915   1.834  10.904 -1.5306  1.8158 -1.9342
  620MOL0     H83651   7.136   1.805  10.599  0.8505  3.1930 -1.0491
  620MOL0     H83652   7.061   2.119  10.397 -1.5362 -1.3597 -0.6947
  620MOL0     H83653   7.183   2.002  10.424  1.0156  4.3212 -2.1552
  620MOL0     H83654   6.994   2.035  10.208 -1.0175 -1.0779 -0.6037
  620MOL0     H83655   6.981   1.873  10.275 -0.1720  0.1727 -0.1155
  620MOL0     H83656   7.139   1.885  10.091 -1.4474  0.6012  0.5910
  620MOL0     H83657   7.230   1.836  10.228  0.3272 -0.8335 -0.9134
  620MOL0     H83658   7.278   2.115  10.246 -1.6124 -1.5934  1.8942
  620MOL0     H83659   7.217   2.118  10.082 -2.6884 -3.5700 -1.1236
  620MOL0     H83660   7.406   2.279  10.137 -0.9184 -1.7440  1.6418
  620MOL0     H83661   7.654   2.469  10.253  2.3251 -1.3252 -1.1010
  620MOL0     H83662   7.676   2.512  10.089 -1.7965  3.6665  1.4363
  620MOL0     H83663   7.518   2.496  10.135  0.2446  0.6154  0.1484
  620MOL0     H83664   7.927   2.656  10.158 -1.0645 -3.2130 -2.0397
  620MOL0     H83665   8.146   2.773  10.178  1.2330  0.5944 -0.5241
  620MOL0     H83666   8.351   2.858  10.171 -1.2091 -0.4642 -0.3739
  620MOL0     H83667   8.312   2.823  10.334 -0.0581  0.3970  0.1331
  620MOL0     H83668   8.501   2.954  10.327  0.0587  0.1266 -2.6306
  620MOL0     H83669   8.547   2.789  10.387  0.2635 -0.6326  0.1157
  620MOL0     H83670   8.583   2.943  10.126 -1.9118 -0.8946  0.6728
  620MOL0     H83671   8.630   2.769  10.136  0.8922 -0.2823 -0.3029
  620MOL0     H83672   8.733   2.990  10.313 -1.2621 -0.8227 -0.2962
  620MOL0     H83673   8.786   2.831  10.347  1.2538 -2.6369 -1.8860
  620MOL0     H83674   8.904   3.007  10.166 -0.5313  0.4097  0.7696
  620MOL0     H83675   8.843   2.867  10.070  1.8308 -0.5502 -1.0945
  620MOL0     H83676   9.020   2.829  10.315  0.8586 -1.5678 -0.7084
  620MOL0     H83677   8.957   2.712  10.212  0.2843  0.1384 -0.8980
  620MOL0     H83678   9.110   2.958  10.109  0.3086  0.3970 -1.0019
  620MOL0     H83679   9.076   2.806  10.027  0.4365 -2.6043  0.7994
  620MOL0     H83680   9.203   2.679  10.204 -0.2709  0.3350 -0.1229
  620MOL0     H83681   9.273   2.834  10.262 -0.2473 -1.5608  1.7622
  620MOL0     H83682   8.342   2.394  10.258 -1.8967 -2.2229 -0.8762
  620MOL0     H83683   8.117   2.286  10.236  0.3952 -0.6874  0.3825
  620MOL0     H83684   7.819   2.045  10.004 -0.1580  0.6095 -2.8777
  620MOL0     H83685   7.608   1.924  10.013 -0.2443 -0.3927 -0.8115
  620MOL0     H83686   6.908   0.542  10.586 -1.0638  2.7319  0.9726
  620MOL0     H83687   7.077   0.381  10.626  0.4650  0.4551  0.0457
  620MOL0     H83688   7.560   0.385  10.747  1.8335  0.0284  1.6904
  620MOL0     H83689   7.750   0.267  10.680  1.1085 -2.2723 -0.5527
  620MOL0     H83690   7.911   0.142  10.596 -0.5644 -0.5107 -0.8485
  620MOL0     H83691   7.894   0.060  10.766  0.0466 -1.3739 -0.3220
  620MOL0     H83692   7.955  -0.157  10.641  1.0541 -0.3927 -1.4842
  620MOL0     H83693   8.082  -0.045  10.682 -0.8782 -0.5780  1.6587
  620MOL0     H83694   8.115  -0.019  10.458  1.4643 -4.3681  0.7493
  620MOL0     H83695   7.935  -0.024  10.421 -2.1273 -1.6857  0.5049
  620MOL0     H83696   8.015  -0.204  10.304 -1.8996 -4.0803 -0.8303
  620MOL0     H83697   7.916  -0.258  10.434  1.2472 -2.1974 -3.6044
  620MOL0     H83698   8.292  -0.399  10.563 -0.5674 -2.2389 -2.3151
  620MOL0     H83699   7.517  -0.092  10.643 -1.4172  0.2595  0.3804
  620MOL0     H83700   7.323   0.040  10.691 -0.0988  0.6239 -4.3083
  621MOL0     O83701   9.233   8.511   3.945  0.3760  0.9644 -0.9293
  621MOL0     C83702   9.322   8.427   3.958  0.5143 -0.3973 -0.7194
  621MOL0     O83703   9.305   8.296   3.974 -0.6326 -0.0640 -0.1679
  621MOL0     C83704   9.180   8.249   3.994 -0.1977 -0.0386  1.1417
  621MOL0     C83705   9.089   8.225   3.886 -0.2563  0.2722 -0.9542
  621MOL0     C83706   8.957   8.195   3.909  1.2440  0.3705 -0.4096
  621MOL0     C83707   8.903   8.166   4.039 -0.4353  0.6112 -0.3410
  621MOL0     O83708   8.782   8.120   4.084  0.5513  0.1733  0.5011
  621MOL0     C83709   8.699   8.060   3.986 -0.4032 -0.0668  0.1601
  621MOL0     C83710   8.563   8.028   4.054 -0.8993 -0.4115  1.0403
  621MOL0     C83711   8.513   7.892   4.000  0.0811  0.2693 -0.2792
  621MOL0     C83712   8.573   7.786   4.096 -0.1056  0.1118  0.8602
  621MOL0     C83713   8.514   7.644   4.077 -0.0423 -0.5898  0.0035
  621MOL0     C83714   8.536   7.575   4.212  0.0839  0.2691 -0.4879
  621MOL0     C83715   8.485   7.442   4.207 -0.6537  0.9962  0.7539
  621MOL0     C83716   8.344   7.412   4.175  0.4301 -0.0471  0.4159
  621MOL0     N83717   8.249   7.423   4.287 -0.0630  0.2195 -0.5465
  621MOL0     C83718   8.184   7.538   4.317  0.9079  0.1067  0.2167
  621MOL0     C83719   8.122   7.507   4.433  0.5052 -0.0240  0.0875
  621MOL0     C83720   8.034   7.593   4.519 -0.1224  0.6241 -0.1124
  621MOL0     C83721   7.892   7.587   4.473  0.3503  0.7193 -0.6970
  621MOL0     C83722   7.808   7.664   4.580 -0.0817  0.6270  0.7142
  621MOL0     C83723   7.659   7.641   4.573  0.4964 -0.0418 -0.4458
  621MOL0     O83724   7.578   7.751   4.621 -0.1444 -0.4008 -0.0646
  621MOL0     C83725   7.509   7.826   4.526 -0.0727  0.0810  0.0778
  621MOL0     C83726   7.553   7.853   4.394 -0.1809  0.0238 -1.4138
  621MOL0     C83727   7.468   7.914   4.301 -0.1730  0.1898 -0.6778
  621MOL0     C83728   7.529   7.953   4.167  0.5830 -0.0409 -0.2901
  621MOL0     C83729   7.332   7.953   4.341 -0.0285  0.0127  0.5468
  621MOL0     C83730   7.216   7.999   4.254 -1.1955 -1.7594  0.4434
  621MOL0     O83731   7.091   8.001   4.311 -0.0237  0.0409 -0.7872
  621MOL0     C83732   6.976   8.024   4.244  0.0732 -1.2688  0.3725
  621MOL0     C83733   6.956   8.096   4.121  0.3524  0.6816  0.2528
  621MOL0     C83734   6.819   8.118   4.084 -0.3582 -0.0054  0.1851
  621MOL0     C83735   6.712   8.057   4.151  0.2183 -0.8589  0.2619
  621MOL0     O83736   6.585   8.102   4.115 -0.1739 -0.1826  0.5955
  621MOL0     C83737   6.469   8.057   4.185  0.1008 -0.3600 -0.2169
  621MOL0     C83738   6.342   8.078   4.100  0.0333 -0.1349 -0.4471
  621MOL0     C83739   6.203   8.043   4.162  0.2073  0.3975  1.1748
  621MOL0     C83740   6.082   8.087   4.069  0.7220  0.3665 -0.3138
  621MOL0     C83741   5.949   8.055   4.136 -0.2078 -0.7743 -0.3212
  621MOL0     C83742   5.893   8.179   4.226 -0.0376  0.7231  0.1386
  621MOL0     C83743   5.747   8.146   4.259  0.3181 -0.4073 -1.0319
  621MOL0     C83744   5.672   8.257   4.316  0.0163  0.1678  0.4540
  621MOL0    Cl83745   5.689   8.402   4.217 -0.0331 -0.2028  0.0196
  621MOL0     C83746   6.739   7.982   4.266 -0.2543 -0.0040 -0.2938
  621MOL0     C83747   6.868   7.975   4.315  0.3227  0.1663  0.2010
  621MOL0     O83748   7.247   8.027   4.139  0.1533  0.0081  0.2856
  621MOL0     C83749   7.302   7.936   4.478  1.0366  0.3735  0.3645
  621MOL0     C83750   7.384   7.877   4.566 -0.5755  0.2996 -0.3887
  621MOL0     N83751   8.148   7.376   4.458  0.2534 -0.7517 -0.1689
  621MOL0     N83752   8.215   7.326   4.366 -0.9265  0.1696 -0.2487
  621MOL0     C83753   9.006   8.186   4.141  0.1276 -0.1008  0.4291
  621MOL0     C83754   9.134   8.220   4.122 -0.2111  0.4365  0.6120
  621MOL0     C83755   9.459   8.484   3.976 -0.1337  0.6313 -0.3019
  621MOL0     C83756   9.487   8.619   3.964 -1.3358 -1.0250  0.2123
  621MOL0     C83757   9.618   8.669   3.981 -0.1463  0.2636 -0.4517
  621MOL0     C83758   9.721   8.582   4.002  1.5244 -0.5261  0.0343
  621MOL0     O83759   9.850   8.630   4.012  0.0605 -0.5271  0.6293
  621MOL0     C83760   9.953   8.563   4.096 -0.2457  0.1995  0.7101
  621MOL0     C83761  10.021   8.681   4.175  0.4811  0.7165 -0.2416
  621MOL0     C83762  10.125   8.630   4.272  0.6791 -0.5774 -0.6173
  621MOL0     C83763  10.222   8.534   4.204  0.1431  0.2793  0.0111
  621MOL0     C83764  10.320   8.501   4.306 -0.5235 -0.1590 -0.0966
  621MOL0     C83765  10.409   8.469   4.380 -0.4389 -0.3431  0.7261
  621MOL0     C83766   9.692   8.446   4.010 -0.4847 -0.4129  0.2685
  621MOL0     C83767   9.565   8.395   4.010 -0.8663  0.4359  0.7226
  621MOL0     H83768   9.128   8.242   3.786 -1.3917  1.5224 -1.2207
  621MOL0     H83769   8.897   8.184   3.819  0.4943  0.4488  0.0646
  621MOL0     H83770   8.677   8.131   3.906  0.2901 -0.2042 -0.1567
  621MOL0     H83771   8.744   7.968   3.947 -1.7762 -0.3019 -0.9841
  621MOL0     H83772   8.582   8.025   4.161  1.3307 -1.3836  0.6782
  621MOL0     H83773   8.495   8.111   4.033 -0.7632 -0.8569 -1.5453
  621MOL0     H83774   8.405   7.890   4.014  0.3464 -1.3831  1.9242
  621MOL0     H83775   8.528   7.887   3.892  1.9639  2.5583 -0.2037
  621MOL0     H83776   8.682   7.785   4.083  0.0149  0.6371  1.7632
  621MOL0     H83777   8.558   7.817   4.200  0.7220 -1.5411  1.5024
  621MOL0     H83778   8.408   7.666   4.062  0.0769  0.7297  0.9281
  621MOL0     H83779   8.558   7.594   3.990  2.6809  2.0463 -0.2576
  621MOL0     H83780   8.643   7.561   4.229  0.3777  1.1928 -1.4839
  621MOL0     H83781   8.502   7.634   4.297  0.4262  1.5732 -1.2340
  621MOL0     H83782   8.543   7.395   4.127 -2.0881 -0.4972  0.5374
  621MOL0     H83783   8.510   7.400   4.305  0.5146  1.5884  0.7272
  621MOL0     H83784   8.327   7.310   4.139 -1.6845 -0.1079  1.4838
  621MOL0     H83785   8.302   7.482   4.102  0.5408  0.3114  0.6929
  621MOL0     H83786   8.197   7.636   4.273 -0.8891 -0.1034 -0.8559
  621MOL0     H83787   8.045   7.554   4.621 -0.9317 -2.1852 -1.0151
  621MOL0     H83788   8.068   7.694   4.494  0.5620  0.2034 -0.9400
  621MOL0     H83789   7.867   7.482   4.456 -4.2178  1.7137 -1.6361
  621MOL0     H83790   7.893   7.640   4.377 -0.9969  2.4635  0.1850
  621MOL0     H83791   7.826   7.772   4.577  1.4898  0.4267  1.6547
  621MOL0     H83792   7.842   7.640   4.681 -1.9357  1.5753  1.6152
  621MOL0     H83793   7.642   7.560   4.645  0.5031 -3.1618 -3.6404
  621MOL0     H83794   7.626   7.610   4.473 -2.6018  3.8837 -0.9207
  621MOL0     H83795   7.653   7.818   4.373 -1.1874 -2.9476 -1.7263
  621MOL0     H83796   7.487   8.051   4.145  0.8451 -0.4343 -2.8311
  621MOL0     H83797   7.638   7.952   4.160  0.5179 -0.4012 -1.4778
  621MOL0     H83798   7.490   7.890   4.086  0.1902 -2.3719  1.5864
  621MOL0     H83799   7.040   8.130   4.061  0.8168 -1.4440 -0.3800
  621MOL0     H83800   6.800   8.189   4.005  1.0054  0.8669  0.6160
  621MOL0     H83801   6.485   7.954   4.217 -0.6124 -0.2937  0.3732
  621MOL0     H83802   6.457   8.131   4.264  0.2254  0.6350 -1.1062
  621MOL0     H83803   6.339   8.177   4.055  1.3675 -0.8906 -2.3474
  621MOL0     H83804   6.351   8.012   4.013 -0.3936 -0.2501 -0.4080
  621MOL0     H83805   6.198   8.086   4.262 -0.8252  1.6237  0.6245
  621MOL0     H83806   6.184   7.937   4.185 -1.4129  0.4310  0.1361
  621MOL0     H83807   6.076   8.195   4.049 -1.7903 -0.0835 -2.4767
  621MOL0     H83808   6.088   8.043   3.970 -1.1475  0.7536 -0.6264
  621MOL0     H83809   5.965   7.969   4.203  3.4976  0.2126  0.2885
  621MOL0     H83810   5.880   8.030   4.056  1.0911 -1.0336 -1.4031
  621MOL0     H83811   5.947   8.182   4.321 -1.4055 -3.4744  1.2657
  621MOL0     H83812   5.908   8.264   4.158  4.4020  0.4686  0.5135
  621MOL0     H83813   5.730   8.055   4.317 -1.6842  0.6868  0.2397
  621MOL0     H83814   5.698   8.129   4.163  1.2542 -4.5811 -0.9370
  621MOL0     H83815   5.721   8.276   4.411  0.1224 -1.5729  0.7836
  621MOL0     H83816   5.569   8.226   4.340  0.1590 -1.3966 -0.7535
  621MOL0     H83817   6.661   7.939   4.328 -0.6166  0.9969 -0.0276
  621MOL0     H83818   6.886   7.929   4.411  0.3019  0.7431  0.4892
  621MOL0     H83819   7.208   7.979   4.512  0.3620 -1.0477  0.3703
  621MOL0     H83820   7.366   7.872   4.673  1.9521 -1.8798  0.0509
  621MOL0     H83821   8.971   8.181   4.244  1.1121 -0.8121  0.7497
  621MOL0     H83822   9.193   8.243   4.210 -0.2195 -2.1293  1.3646
  621MOL0     H83823   9.413   8.691   3.930 -0.7389 -1.7369 -2.9534
  621MOL0     H83824   9.657   8.771   3.981 -0.0438  0.2305  0.5131
  621MOL0     H83825   9.912   8.483   4.158  1.3836 -0.4679  0.9776
  621MOL0     H83826  10.023   8.518   4.025 -0.3820  1.8158 -0.5019
  621MOL0     H83827   9.948   8.732   4.238  0.7102 -0.0159  0.6241
  621MOL0     H83828  10.066   8.762   4.116 -0.8749  1.3275 -0.4834
  621MOL0     H83829  10.076   8.578   4.356 -0.0652 -2.2167 -2.0160
  621MOL0     H83830  10.180   8.716   4.312 -0.1400 -0.7030  0.8771
  621MOL0     H83831  10.251   8.588   4.114 -0.5889 -0.2891 -0.5857
  621MOL0     H83832  10.162   8.448   4.171 -2.7312  2.2371 -0.1676
  621MOL0     H83833  10.488   8.438   4.445  1.0508 -2.0862 -1.7092
  621MOL0     H83834   9.772   8.374   4.019  0.0224  0.3771  3.1164
  621MOL0     H83835   9.553   8.290   4.035 -2.1739  0.1399 -0.9789
  622MOL0     O83836   9.661   8.650   1.816  0.2166 -0.5758 -0.6024
  622MOL0     C83837   9.694   8.763   1.839  0.0772 -0.2456  0.4179
  622MOL0     O83838   9.618   8.870   1.814  0.1173 -0.1623  0.1128
  622MOL0     C83839   9.498   8.845   1.756  0.5354  1.3330 -0.1288
  622MOL0     C83840   9.388   8.909   1.818  0.3005  0.6283 -0.1683
  622MOL0     C83841   9.270   8.907   1.759  0.2261 -0.3924 -0.0857
  622MOL0     C83842   9.242   8.838   1.643 -0.4684  0.2152  0.0516
  622MOL0     O83843   9.112   8.813   1.613  0.6305  0.1660  0.0394
  622MOL0     C83844   9.073   8.768   1.476 -0.3526  0.2847 -0.4436
  622MOL0     C83845   8.925   8.761   1.451 -0.2028  0.4317  0.0897
  622MOL0     C83846   8.841   8.869   1.515 -0.1318 -0.4951  0.4121
  622MOL0     C83847   8.771   8.838   1.647 -0.4578 -1.3129  0.1496
  622MOL0     C83848   8.634   8.917   1.657 -0.9435  0.1101 -0.0152
  622MOL0     C83849   8.509   8.833   1.620  0.2971 -0.0801 -0.2338
  622MOL0     C83850   8.448   8.753   1.740  0.5333 -0.3690 -0.0787
  622MOL0     C83851   8.354   8.845   1.818 -0.6969  0.2631 -0.7173
  622MOL0     N83852   8.262   8.779   1.915  0.5338  0.0856 -0.4418
  622MOL0     C83853   8.131   8.757   1.883 -0.2943 -0.3823  0.4648
  622MOL0     C83854   8.084   8.685   1.981 -0.4751  0.8297  0.3077
  622MOL0     C83855   7.950   8.626   1.988  0.7329 -0.9088  0.8113
  622MOL0     C83856   7.847   8.714   2.054 -0.4608 -0.1699 -0.4145
  622MOL0     C83857   7.888   8.755   2.192 -0.5837 -0.3035 -0.2615
  622MOL0     C83858   7.774   8.809   2.279 -0.0480  0.4837  0.2417
  622MOL0     O83859   7.685   8.707   2.322 -0.4677 -0.9915  0.4208
  622MOL0     C83860   7.553   8.725   2.285 -0.4513  1.0744 -0.3377
  622MOL0     C83861   7.482   8.842   2.265 -0.2567  0.0778  1.1518
  622MOL0     C83862   7.339   8.840   2.266  0.4177  0.0758  0.0056
  622MOL0     C83863   7.270   8.970   2.287 -0.7286 -0.4970 -0.0423
  622MOL0     C83864   7.274   8.716   2.273 -0.6155 -0.3359 -0.1270
  622MOL0     C83865   7.125   8.701   2.262 -0.1934  0.0925  0.0696
  622MOL0     O83866   7.072   8.574   2.281 -0.0639  0.2606 -0.2727
  622MOL0     C83867   6.935   8.562   2.286  0.6223 -0.1358 -0.2269
  622MOL0     C83868   6.834   8.639   2.347 -0.6214  0.3962 -0.8075
  622MOL0     C83869   6.698   8.591   2.346 -0.3076  0.4090 -0.5993
  622MOL0     C83870   6.670   8.461   2.292 -0.7488 -0.0036 -0.7701
  622MOL0     O83871   6.547   8.412   2.311  0.2215  0.8934  0.0423
  622MOL0     C83872   6.524   8.282   2.381 -0.7341 -0.3500 -0.1768
  622MOL0     C83873   6.395   8.215   2.345  0.6665  0.7071 -0.2218
  622MOL0     C83874   6.258   8.295   2.365  0.3040  0.0464  0.0591
  622MOL0     C83875   6.132   8.223   2.322  0.1464 -0.3236  0.0625
  622MOL0     C83876   6.006   8.317   2.314  0.4674  0.8748  0.3422
  622MOL0     C83877   5.936   8.276   2.181  0.1918  0.4614  0.0272
  622MOL0     C83878   5.803   8.345   2.151 -0.0814  0.2806 -0.2886
  622MOL0     C83879   5.833   8.490   2.105 -0.1924  0.0436  0.5066
  622MOL0    Cl83880   5.684   8.597   2.073  0.0349 -0.2775  0.6677
  622MOL0     C83881   6.772   8.384   2.241 -0.1701  0.4016 -0.2027
  622MOL0     C83882   6.899   8.439   2.234  1.2303 -0.9591 -0.6030
  622MOL0     O83883   7.047   8.797   2.247 -0.0321 -0.1526  0.1999
  622MOL0     C83884   7.351   8.600   2.278  0.2238  0.5142 -0.5146
  622MOL0     C83885   7.488   8.604   2.287  0.3761  0.2982 -1.1190
  622MOL0     N83886   8.183   8.667   2.078 -0.5496  0.4457  0.0882
  622MOL0     N83887   8.288   8.729   2.040 -0.3091  0.2900  0.1826
  622MOL0     C83888   9.353   8.771   1.585 -0.5434  0.8984  0.5645
  622MOL0     C83889   9.478   8.779   1.637 -0.4735 -0.2953 -0.3136
  622MOL0     C83890   9.838   8.793   1.870 -0.3186 -0.3132 -0.5132
  622MOL0     C83891   9.899   8.920   1.848 -0.4244  0.5304  0.0914
  622MOL0     C83892  10.032   8.945   1.888  0.2887 -0.5228 -0.3368
  622MOL0     C83893  10.111   8.845   1.944  0.5994  0.6826  0.1837
  622MOL0     O83894  10.243   8.862   1.986  0.9028  0.0696  1.2989
  622MOL0     C83895  10.293   8.991   1.989 -0.2717 -0.4785 -0.3506
  622MOL0     C83896  10.424   9.002   2.071 -0.0158  0.4134  0.0151
  622MOL0     C83897  10.532   8.907   2.030  0.6163 -0.0295  0.3201
  622MOL0     C83898  10.636   8.964   1.928  0.2843  0.2100 -1.0053
  622MOL0     C83899  10.717   9.045   2.024 -0.4215 -0.0086 -0.5652
  622MOL0     C83900  10.777   9.103   2.112  0.3725  0.1543  0.5611
  622MOL0     C83901  10.053   8.710   1.945  0.1649  0.3734  0.6394
  622MOL0     C83902   9.917   8.693   1.924  0.0144 -0.1672  0.9628
  622MOL0     H83903   9.400   8.954   1.916  2.0751 -0.7757  0.3135
  622MOL0     H83904   9.178   8.951   1.797 -0.3833 -0.7767 -1.0934
  622MOL0     H83905   9.106   8.842   1.403  1.0691  0.8628  0.7180
  622MOL0     H83906   9.129   8.676   1.455  2.3342  0.6372  3.9893
  622MOL0     H83907   8.904   8.769   1.344  0.1088 -1.2922 -0.1255
  622MOL0     H83908   8.898   8.658   1.475  5.3901 -1.7821 -1.6060
  622MOL0     H83909   8.905   8.958   1.520  2.0562 -2.0597  2.3234
  622MOL0     H83910   8.763   8.883   1.440  0.1413 -0.7333  0.0824
  622MOL0     H83911   8.762   8.730   1.658  3.1785 -2.2154 -3.4641
  622MOL0     H83912   8.843   8.872   1.721  0.7977  1.7508 -2.2644
  622MOL0     H83913   8.621   8.949   1.761 -1.4767  0.3899 -0.1644
  622MOL0     H83914   8.635   9.012   1.602 -4.2786 -0.5518 -1.4319
  622MOL0     H83915   8.431   8.894   1.574  2.3469  2.7339 -0.1925
  622MOL0     H83916   8.536   8.756   1.547 -2.7248  0.7980 -2.4926
  622MOL0     H83917   8.388   8.671   1.699  1.9461 -0.9284 -1.0983
  622MOL0     H83918   8.523   8.723   1.813 -1.7818 -2.7411  1.5115
  622MOL0     H83919   8.286   8.900   1.753 -2.5502  1.2599  1.8812
  622MOL0     H83920   8.409   8.920   1.875  1.9662 -1.6389 -0.6189
  622MOL0     H83921   8.078   8.790   1.794 -3.2002  0.6148  2.4091
  622MOL0     H83922   7.911   8.579   1.897  1.9270  1.8918 -1.3218
  622MOL0     H83923   7.950   8.550   2.067  2.3426 -3.1353 -1.1694
  622MOL0     H83924   7.761   8.648   2.067  0.6696 -1.6407 -0.1020
  622MOL0     H83925   7.812   8.806   2.007 -1.1754 -0.5897 -0.7085
  622MOL0     H83926   7.964   8.833   2.183  0.1126 -0.2882  3.7438
  622MOL0     H83927   7.935   8.673   2.248 -1.7432 -1.1289 -0.4562
  622MOL0     H83928   7.722   8.890   2.228 -1.5998 -0.1639  0.7440
  622MOL0     H83929   7.831   8.853   2.361  0.9568  0.3478 -0.3545
  622MOL0     H83930   7.533   8.938   2.258  2.4852 -1.3268  0.1303
  622MOL0     H83931   7.331   9.060   2.286 -5.5061  3.2637  2.7922
  622MOL0     H83932   7.201   8.996   2.206  0.5574 -0.3098 -1.1183
  622MOL0     H83933   7.220   8.982   2.384  2.3580  1.0689  1.5049
  622MOL0     H83934   6.863   8.731   2.397 -2.2044  0.7349 -0.4873
  622MOL0     H83935   6.622   8.658   2.384  1.8165  1.4825  2.0619
  622MOL0     H83936   6.615   8.223   2.363 -1.2334 -1.1159 -0.2218
  622MOL0     H83937   6.518   8.291   2.489 -1.5402 -1.8603 -0.0601
  622MOL0     H83938   6.403   8.185   2.240 -3.1621 -4.3053  0.5407
  622MOL0     H83939   6.381   8.122   2.400 -0.6509 -1.2421 -3.5432
  622MOL0     H83940   6.271   8.393   2.317 -0.7709  1.5063  2.5243
  622MOL0     H83941   6.258   8.312   2.473  2.2585 -2.2431  0.5122
  622MOL0     H83942   6.146   8.176   2.224 -2.6419 -0.8718 -0.1726
  622MOL0     H83943   6.112   8.136   2.386 -1.2368  0.1063  0.2502
  622MOL0     H83944   6.031   8.423   2.317  0.4347  0.9311 -0.9208
  622MOL0     H83945   5.942   8.283   2.396 -0.8659  0.3493 -0.8670
  622MOL0     H83946   6.002   8.286   2.095  1.4065 -4.3300  0.1390
  622MOL0     H83947   5.920   8.169   2.197 -2.6218  0.8923  0.6964
  622MOL0     H83948   5.736   8.365   2.235  1.6501  0.5598  1.0741
  622MOL0     H83949   5.746   8.296   2.070  0.3467  2.2176 -1.8384
  622MOL0     H83950   5.890   8.487   2.012 -3.8548  0.9096 -2.0211
  622MOL0     H83951   5.895   8.552   2.170 -1.7458 -0.0309  2.1515
  622MOL0     H83952   6.757   8.286   2.196 -1.9995 -0.7348  2.5419
  622MOL0     H83953   6.970   8.365   2.195  0.0212 -2.3737 -0.2169
  622MOL0     H83954   7.296   8.506   2.267  1.0832  0.1902 -2.2803
  622MOL0     H83955   7.541   8.510   2.294 -1.1518 -0.6601 -1.8608
  622MOL0     H83956   9.337   8.701   1.503 -0.2319 -0.4614  1.6280
  622MOL0     H83957   9.544   8.711   1.584 -0.7723 -1.0079  0.1992
  622MOL0     H83958   9.848   8.993   1.786  2.6132  2.4674 -0.3353
  622MOL0     H83959  10.075   9.041   1.860 -1.1035 -0.5975 -3.0988
  622MOL0     H83960  10.324   9.032   1.893  2.1925  1.0853  1.0089
  622MOL0     H83961  10.224   9.059   2.040  0.5354  0.3217 -0.3002
  622MOL0     H83962  10.413   8.980   2.178 -0.7959 -0.8481 -0.3090
  622MOL0     H83963  10.457   9.105   2.056  1.5297 -0.1563 -0.7025
  622MOL0     H83964  10.486   8.815   1.991 -2.0966  0.3935  2.2935
  622MOL0     H83965  10.578   8.861   2.119 -0.3693 -1.4858  0.1161
  622MOL0     H83966  10.600   9.022   1.843  0.2986  1.0551 -0.4483
  622MOL0     H83967  10.691   8.879   1.886  0.8250  1.3973 -2.7780
  622MOL0     H83968  10.810   9.149   2.203 -3.0336 -4.0990  4.4226
  622MOL0     H83969  10.117   8.628   1.977 -1.5935  0.5987  5.6203
  622MOL0     H83970   9.874   8.594   1.934  3.2132 -2.0518 -1.6750
  623MOL0     O83971  10.363   3.136   1.919  0.1554  0.2031 -0.4048
  623MOL0     C83972  10.402   3.215   1.833  0.2010 -0.2125  0.2061
  623MOL0     O83973  10.323   3.258   1.730  0.3964 -0.1556  0.4020
  623MOL0     C83974  10.206   3.188   1.687 -0.1852  0.0228  0.9370
  623MOL0     C83975  10.101   3.260   1.636  0.4251 -0.4983  0.5481
  623MOL0     C83976   9.979   3.198   1.596 -0.2826  0.7200  0.0234
  623MOL0     C83977   9.972   3.058   1.603  0.4064  0.3966  0.0993
  623MOL0     O83978   9.868   2.985   1.548 -0.7328  0.0207 -0.3378
  623MOL0     C83979   9.736   3.034   1.564  0.0014  0.3495  0.2052
  623MOL0     C83980   9.684   3.028   1.713  1.2888  0.6592  0.2200
  623MOL0     C83981   9.541   3.093   1.731  0.0461 -0.1575 -0.7314
  623MOL0     C83982   9.424   3.013   1.669  0.7726 -0.4232  0.2379
  623MOL0     C83983   9.298   3.055   1.731  0.6202 -0.3422  0.3850
  623MOL0     C83984   9.177   2.989   1.660 -0.2684  0.6821  0.0678
  623MOL0     C83985   9.167   2.837   1.674  0.0551  0.8676  0.2502
  623MOL0     C83986   9.141   2.789   1.815  0.8464  0.0597 -0.1657
  623MOL0     N83987   9.020   2.824   1.886  0.4200  0.2598  0.3932
  623MOL0     C83988   8.913   2.742   1.883  0.2969  0.3934 -0.8564
  623MOL0     C83989   8.817   2.811   1.945 -0.3927  0.2435 -0.9311
  623MOL0     C83990   8.676   2.764   1.969 -0.1249  0.6413 -0.6447
  623MOL0     C83991   8.555   2.853   1.908 -0.6790  0.1544 -0.7276
  623MOL0     C83992   8.555   2.849   1.759 -0.5012  0.3334  0.1219
  623MOL0     C83993   8.441   2.920   1.683 -0.2308 -0.7927  0.3883
  623MOL0     O83994   8.438   2.896   1.535 -0.1815  0.2715  0.1573
  623MOL0     C83995   8.542   2.948   1.463 -0.0784  0.3271  0.0312
  623MOL0     C83996   8.653   3.031   1.500 -0.4385  0.6666 -0.1526
  623MOL0     C83997   8.763   3.070   1.417 -0.5960  0.5414  0.4081
  623MOL0     C83998   8.886   3.138   1.480 -0.0297  0.4875  0.1397
  623MOL0     C83999   8.757   3.027   1.274 -0.1224  0.1530  0.5776
  623MOL0     C84000   8.863   3.054   1.163 -0.7359 -0.5810 -1.3630
  623MOL0     O84001   8.969   3.140   1.182 -0.4072 -0.1146  0.0291
  623MOL0     C84002   9.065   3.157   1.093 -0.4407 -0.2372  0.6080
  623MOL0     C84003   9.111   3.056   1.010  0.7410 -0.4102  0.4232
  623MOL0     C84004   9.210   3.080   0.916  0.0931 -0.7726 -0.3603
  623MOL0     C84005   9.284   3.201   0.907  1.2469 -0.2801 -0.1171
  623MOL0     O84006   9.370   3.229   0.804  0.1957  1.0287  0.3157
  623MOL0     C84007   9.491   3.311   0.833 -0.1641 -0.2112  0.4432
  623MOL0     C84008   9.571   3.237   0.938  0.0621  0.8447  0.3764
  623MOL0     C84009   9.688   3.319   0.975 -0.6328  0.2041 -0.0969
  623MOL0     C84010   9.801   3.312   0.869 -0.4095  0.0678 -0.1623
  623MOL0     C84011   9.924   3.400   0.913 -0.2329  0.3886  0.3632
  623MOL0     C84012  10.037   3.400   0.813  0.1949 -0.1085 -0.0532
  623MOL0     C84013  10.159   3.455   0.891  0.9073 -1.1114  0.0347
  623MOL0     C84014  10.292   3.468   0.811 -0.3457 -0.3127 -0.9549
  623MOL0    Cl84015  10.297   3.601   0.695 -0.0957 -0.1698 -0.1225
  623MOL0     C84016   9.239   3.296   0.996 -0.4311  0.1741 -0.4361
  623MOL0     C84017   9.122   3.284   1.085 -0.5989  0.1903 -0.0640
  623MOL0     O84018   8.839   3.002   1.060  0.6166  0.7656  0.5588
  623MOL0     C84019   8.639   2.959   1.230  0.4506  0.5685  0.2631
  623MOL0     C84020   8.547   2.911   1.330  0.0008  0.0466  0.6436
  623MOL0     N84021   8.863   2.932   1.991 -0.6831  0.8736  0.1315
  623MOL0     N84022   8.993   2.938   1.950  0.5873 -0.2917 -0.9871
  623MOL0     C84023  10.082   2.984   1.645  1.0677 -0.3662 -0.7225
  623MOL0     C84024  10.192   3.046   1.691 -0.1277  0.1862  0.5151
  623MOL0     C84025  10.528   3.280   1.853 -0.1120  0.1046 -0.2869
  623MOL0     C84026  10.635   3.214   1.912 -0.3232  0.2639 -0.8794
  623MOL0     C84027  10.763   3.263   1.923 -0.6650  0.3289 -0.2000
  623MOL0     C84028  10.789   3.396   1.877  0.8039  0.6808 -0.3120
  623MOL0     O84029  10.915   3.449   1.889  0.0193  0.1389 -0.0226
  623MOL0     C84030  11.034   3.372   1.927 -0.6882 -0.6054  0.3835
  623MOL0     C84031  11.164   3.446   1.894 -0.0204 -0.2302  0.1693
  623MOL0     C84032  11.195   3.534   2.015  0.1709  0.5949 -0.7567
  623MOL0     C84033  11.247   3.676   1.983  0.6188  0.4235  0.0958
  623MOL0     C84034  11.377   3.674   1.908  0.4116  0.2831 -0.7395
  623MOL0     C84035  11.485   3.696   1.862  0.3792 -0.3092 -0.3623
  623MOL0     C84036  10.683   3.461   1.813  0.6838  0.3575 -0.3384
  623MOL0     C84037  10.556   3.408   1.801  1.0199 -0.8194 -0.5113
  623MOL0     H84038  10.099   3.368   1.626  3.1628 -0.4833 -0.6566
  623MOL0     H84039   9.891   3.259   1.575 -1.1477 -0.7373 -0.6851
  623MOL0     H84040   9.726   3.138   1.533  0.4075 -0.0909 -1.5068
  623MOL0     H84041   9.663   2.977   1.505 -1.7304  2.7174 -0.1124
  623MOL0     H84042   9.683   2.921   1.739  4.5819 -0.3179 -2.8183
  623MOL0     H84043   9.756   3.071   1.783 -0.6603 -1.3936  3.7724
  623MOL0     H84044   9.532   3.092   1.840  0.8886 -1.4968 -0.6550
  623MOL0     H84045   9.550   3.198   1.703  2.0330  0.0809  0.6512
  623MOL0     H84046   9.407   3.035   1.563 -3.0737 -1.3102  0.5425
  623MOL0     H84047   9.429   2.905   1.682  0.7916 -0.2510  1.7371
  623MOL0     H84048   9.296   3.033   1.838 -3.2613 -0.1197  0.4962
  623MOL0     H84049   9.292   3.163   1.716  1.8429 -0.1021  1.3962
  623MOL0     H84050   9.081   3.028   1.695 -1.0414 -1.1043  0.0435
  623MOL0     H84051   9.177   3.017   1.554 -1.3385 -0.0444 -0.1408
  623MOL0     H84052   9.091   2.784   1.616  0.9108 -1.2449  0.9321
  623MOL0     H84053   9.255   2.789   1.628 -2.4349 -3.6887 -0.4380
  623MOL0     H84054   9.218   2.837   1.877  0.5452 -0.9838  1.0585
  623MOL0     H84055   9.168   2.684   1.834  2.6381  0.3285 -1.0233
  623MOL0     H84056   8.902   2.643   1.841 -1.1974  1.0099 -2.0361
  623MOL0     H84057   8.661   2.661   1.934 -0.4857  1.5186 -3.2937
  623MOL0     H84058   8.666   2.759   2.078  0.3811 -1.1092 -0.6491
  623MOL0     H84059   8.569   2.959   1.934 -0.0409 -0.8489  3.8069
  623MOL0     H84060   8.456   2.825   1.945 -0.3443 -1.1938 -0.8233
  623MOL0     H84061   8.553   2.741   1.740  0.4914  0.3592 -0.1792
  623MOL0     H84062   8.654   2.887   1.731  2.0216 -4.1897  1.8251
  623MOL0     H84063   8.478   3.021   1.701 -1.3674 -0.5537  1.5550
  623MOL0     H84064   8.340   2.899   1.719 -0.3004 -0.3280  0.4698
  623MOL0     H84065   8.658   3.070   1.601  0.7635 -1.4800  0.6749
  623MOL0     H84066   8.904   3.239   1.441  1.9585 -0.7551 -2.4611
  623MOL0     H84067   8.877   3.142   1.589  0.0847 -0.2929  0.1791
  623MOL0     H84068   8.980   3.087   1.457  0.2740  0.5016  1.2486
  623MOL0     H84069   9.074   2.953   1.011 -1.5980  0.3492 -0.5001
  623MOL0     H84070   9.244   3.005   0.845  0.7068  0.0405 -0.9424
  623MOL0     H84071   9.542   3.334   0.739 -1.4782  1.6867  0.1292
  623MOL0     H84072   9.444   3.401   0.875 -1.9434 -1.2505  0.7969
  623MOL0     H84073   9.516   3.218   1.031  0.8426  1.9480  1.0990
  623MOL0     H84074   9.584   3.136   0.899  0.0697  1.0724 -0.2173
  623MOL0     H84075   9.723   3.286   1.073 -0.2229  1.1369  0.0769
  623MOL0     H84076   9.664   3.424   0.991  1.5998  0.4300  2.4329
  623MOL0     H84077   9.839   3.210   0.858  0.3120  0.4234 -1.1219
  623MOL0     H84078   9.772   3.329   0.765 -1.1617  0.5475  0.1153
  623MOL0     H84079   9.951   3.356   1.009 -0.9903 -0.3074  0.2702
  623MOL0     H84080   9.900   3.506   0.926  2.3274  0.8403  1.9074
  623MOL0     H84081  10.053   3.302   0.767 -0.0932 -0.6239  0.9179
  623MOL0     H84082  10.021   3.464   0.726 -1.6050 -0.9661 -0.4118
  623MOL0     H84083  10.172   3.397   0.983 -1.1819 -0.2241  0.9689
  623MOL0     H84084  10.126   3.552   0.929 -3.1013 -2.0288 -0.6028
  623MOL0     H84085  10.312   3.378   0.751  1.4001 -1.8134  1.6472
  623MOL0     H84086  10.373   3.492   0.881  0.5524  2.3420 -2.7510
  623MOL0     H84087   9.285   3.394   0.988 -0.9725  0.7781  2.6716
  623MOL0     H84088   9.081   3.361   1.149  1.1308  1.4143 -0.3555
  623MOL0     H84089   8.620   2.940   1.125 -1.6745  3.4110  0.0222
  623MOL0     H84090   8.464   2.846   1.302  0.0661 -0.2688  1.1637
  623MOL0     H84091  10.068   2.877   1.640 -2.8936  0.0757 -2.2738
  623MOL0     H84092  10.269   2.977   1.722  1.1510  2.1706  2.0429
  623MOL0     H84093  10.607   3.115   1.947 -3.7209  1.1784 -0.6305
  623MOL0     H84094  10.833   3.186   1.953 -1.2285 -0.0607  0.1390
  623MOL0     H84095  11.040   3.335   2.030 -0.2813  1.0703  0.9892
  623MOL0     H84096  11.034   3.283   1.862 -1.2411 -1.2945  1.3104
  623MOL0     H84097  11.140   3.508   1.807 -0.5793 -0.9743 -0.2272
  623MOL0     H84098  11.246   3.384   1.856 -0.2207  0.6039 -1.7484
  623MOL0     H84099  11.271   3.482   2.075 -0.1980 -1.3407 -1.8711
  623MOL0     H84100  11.109   3.546   2.082  1.2459  0.9890  0.5940
  623MOL0     H84101  11.250   3.740   2.072 -0.8889 -0.0860  0.5499
  623MOL0     H84102  11.176   3.719   1.911  0.1378 -1.3012 -0.4962
  623MOL0     H84103  11.578   3.730   1.821 -0.3006  0.3040 -1.4593
  623MOL0     H84104  10.687   3.563   1.776 -3.0595  0.7391 -0.0630
  623MOL0     H84105  10.483   3.461   1.740  0.9802  0.1139  0.3198
  624MOL0     O84106   8.555   7.450  10.791  0.4720 -0.8328  0.6404
  624MOL0     C84107   8.535   7.396  10.900  0.1298  0.8205 -0.6059
  624MOL0     O84108   8.419   7.337  10.942 -0.5842  0.4704 -0.7728
  624MOL0     C84109   8.319   7.308  10.853 -1.1525  0.2726  0.2357
  624MOL0     C84110   8.251   7.184  10.851 -0.8957  0.8786 -0.2697
  624MOL0     C84111   8.133   7.171  10.777  0.6270 -0.4161 -0.0559
  624MOL0     C84112   8.087   7.276  10.696 -0.3703  0.2396  0.0921
  624MOL0     O84113   7.969   7.273  10.628 -0.8373  0.6199  0.3503
  624MOL0     C84114   7.904   7.151  10.605  0.8446 -0.3066  0.4640
  624MOL0     C84115   7.820   7.177  10.482  0.7903 -0.6074  1.3505
  624MOL0     C84116   7.679   7.216  10.519  0.3495  0.6670  0.5865
  624MOL0     C84117   7.589   7.240  10.394  0.5641 -0.7703  0.0333
  624MOL0     C84118   7.562   7.120  10.308 -0.4385  0.7370 -0.2185
  624MOL0     C84119   7.437   7.137  10.220  1.0007 -0.2611 -0.3036
  624MOL0     C84120   7.405   7.016  10.125 -0.4698 -0.8634 -0.5451
  624MOL0     C84121   7.284   7.034  10.044 -0.3104 -0.9819  0.4470
  624MOL0     N84122   7.163   7.009  10.123  0.4725  0.7270  0.2356
  624MOL0     C84123   7.097   6.896  10.144  0.3704 -0.3306  0.1652
  624MOL0     C84124   6.998   6.923  10.236 -0.4637  0.1922 -0.0086
  624MOL0     C84125   6.921   6.810  10.299 -0.7651  0.1944 -0.7059
  624MOL0     C84126   6.812   6.750  10.211  0.1554  0.0414 -0.1545
  624MOL0     C84127   6.722   6.640  10.274  0.6119  0.8017 -0.4420
  624MOL0     C84128   6.659   6.677  10.410 -0.5476 -0.0894  0.2170
  624MOL0     O84129   6.606   6.560  10.474  0.4094  0.2351  0.1965
  624MOL0     C84130   6.474   6.516  10.453 -0.5868  0.0166 -0.2755
  624MOL0     C84131   6.431   6.405  10.523 -0.0412  0.3620 -0.0642
  624MOL0     C84132   6.309   6.346  10.506  0.0203  1.1554  0.1362
  624MOL0     C84133   6.272   6.247  10.616 -0.4784  0.6630  0.0454
  624MOL0     C84134   6.224   6.390  10.401 -0.1395 -0.3267 -0.5014
  624MOL0     C84135   6.095   6.327  10.377 -0.2396 -0.3472 -0.3184
  624MOL0     O84136   6.063   6.203  10.427  0.1730 -0.0778  0.4708
  624MOL0     C84137   5.926   6.178  10.456 -0.0835 -0.0293 -0.9440
  624MOL0     C84138   5.871   6.216  10.574 -0.6419  1.3143 -0.8788
  624MOL0     C84139   5.741   6.172  10.613  0.3884 -0.6949  0.1209
  624MOL0     C84140   5.663   6.083  10.536  0.1764 -0.0060  0.5229
  624MOL0     O84141   5.545   6.051  10.591 -0.3421 -0.1984  0.1198
  624MOL0     C84142   5.479   5.933  10.530  0.4618 -0.1768 -0.0947
  624MOL0     C84143   5.385   5.973  10.416 -0.3950  0.3090  0.7433
  624MOL0     C84144   5.329   5.855  10.340  0.4781 -0.2605 -0.3664
  624MOL0     C84145   5.231   5.902  10.223 -0.1946 -0.7625 -0.7358
  624MOL0     C84146   5.161   5.779  10.166 -0.5340 -0.5684 -0.4706
  624MOL0     C84147   5.095   5.817  10.031 -0.0256  0.2780  0.3157
  624MOL0     C84148   5.032   5.698   9.954 -0.2824  0.8436 -0.4130
  624MOL0     C84149   4.966   5.734   9.820 -0.0838  0.2713  0.0061
  624MOL0    Cl84150   4.864   5.876   9.838  0.4329  0.4645  0.3104
  624MOL0     C84151   5.717   6.052  10.410  1.0653 -0.6197 -0.7729
  624MOL0     C84152   5.839   6.107  10.372  0.2568  0.7136  0.6157
  624MOL0     O84153   6.014   6.400  10.328  0.5011 -0.0105  0.9164
  624MOL0     C84154   6.264   6.498  10.329  0.3565 -0.2410 -0.1475
  624MOL0     C84155   6.387   6.567  10.357 -0.3449  0.4485 -0.3482
  624MOL0     N84156   6.997   7.057  10.264 -0.3485 -0.0004 -0.5955
  624MOL0     N84157   7.092   7.106  10.190 -0.5079 -0.0664  0.0711
  624MOL0     C84158   8.157   7.395  10.696 -0.3178 -0.7665  0.2293
  624MOL0     C84159   8.267   7.411  10.775 -0.3066  0.3465 -0.4855
  624MOL0     C84160   8.643   7.407  10.998  0.3297 -0.3234  0.2419
  624MOL0     C84161   8.609   7.390  11.135 -0.7460  0.3974  0.9992
  624MOL0     C84162   8.712   7.387  11.231 -0.2400  0.0349 -0.2646
  624MOL0     C84163   8.848   7.383  11.194  0.8249  0.0614  0.1049
  624MOL0     O84164   8.948   7.373  11.287 -0.2427  0.1704 -0.1783
  624MOL0     C84165   8.960   7.489  11.366  0.1463  0.4045  0.0100
  624MOL0     C84166   9.027   7.611  11.307  0.6317  0.8520  0.1460
  624MOL0     C84167   9.050   7.707  11.417  0.2337 -0.8840  0.1685
  624MOL0     C84168   8.928   7.800  11.396  0.0593 -0.0546 -0.1230
  624MOL0     C84169   8.913   7.916  11.488  0.4595  0.7010  0.3271
  624MOL0     C84170   8.902   8.007  11.564  0.2620  0.1141  0.2841
  624MOL0     C84171   8.878   7.394  11.056 -0.5557 -0.3642  0.3077
  624MOL0     C84172   8.779   7.415  10.957 -0.2231 -0.1380 -0.3734
  624MOL0     H84173   8.289   7.098  10.904  2.5469  1.6786 -1.1966
  624MOL0     H84174   8.077   7.078  10.784 -1.9084  1.0828  1.1202
  624MOL0     H84175   7.975   7.072  10.578  0.4847  0.4403 -3.1659
  624MOL0     H84176   7.836   7.111  10.681 -0.3445 -0.1001 -0.4592
  624MOL0     H84177   7.871   7.249  10.419  1.3218 -0.9775  1.3559
  624MOL0     H84178   7.812   7.081  10.429  1.6935  0.4382 -0.7749
  624MOL0     H84179   7.622   7.138  10.571  0.3911  0.6637  0.6287
  624MOL0     H84180   7.684   7.304  10.584  1.3230  0.3014  1.0361
  624MOL0     H84181   7.497   7.285  10.432  1.1102  1.1793 -0.8389
  624MOL0     H84182   7.638   7.315  10.333 -0.8869  0.2689  0.0968
  624MOL0     H84183   7.644   7.101  10.238 -1.8192 -0.0170 -1.6909
  624MOL0     H84184   7.551   7.029  10.368 -1.8918  1.5368  0.8050
  624MOL0     H84185   7.354   7.156  10.289  1.5053  3.9243 -0.5808
  624MOL0     H84186   7.440   7.227  10.157 -1.9230 -0.8612 -1.4972
  624MOL0     H84187   7.492   7.007  10.059 -2.1266 -1.2104 -2.8052
  624MOL0     H84188   7.400   6.925  10.184  1.5961  0.7114  2.3258
  624MOL0     H84189   7.278   6.956   9.967  0.7759  1.4600 -2.3068
  624MOL0     H84190   7.281   7.129   9.991  0.2703  0.5551  3.0169
  624MOL0     H84191   7.130   6.798  10.110 -0.7526 -0.0869 -1.7677
  624MOL0     H84192   6.980   6.726  10.334 -4.5259 -1.6918  1.8329
  624MOL0     H84193   6.878   6.854  10.390  1.7489 -0.8914  1.1114
  624MOL0     H84194   6.842   6.711  10.114 -3.5232 -1.3210 -0.8863
  624MOL0     H84195   6.750   6.834  10.178  1.8755  0.6022 -2.1788
  624MOL0     H84196   6.770   6.542  10.286 -2.9520 -1.0568  0.1618
  624MOL0     H84197   6.643   6.608  10.206  0.7103 -0.4519 -0.0127
  624MOL0     H84198   6.583   6.755  10.397  1.1697  1.3905 -1.5614
  624MOL0     H84199   6.732   6.714  10.482 -0.6672  0.4004  0.0878
  624MOL0     H84200   6.505   6.372  10.595  0.1497  0.3691 -0.2566
  624MOL0     H84201   6.277   6.144  10.580 -1.1986  0.3593  0.8022
  624MOL0     H84202   6.343   6.247  10.699  0.3565 -2.6896 -0.5056
  624MOL0     H84203   6.174   6.272  10.657 -1.4745 -1.9902 -0.5113
  624MOL0     H84204   5.944   6.275  10.628  1.4322 -0.3789 -1.6616
  624MOL0     H84205   5.698   6.191  10.711  1.6736  0.1046  0.5484
  624MOL0     H84206   5.551   5.859  10.494 -0.8329 -2.0508  1.0263
  624MOL0     H84207   5.408   5.898  10.605  1.3507  0.5994  1.1507
  624MOL0     H84208   5.301   6.028  10.458  0.5890  1.7328  0.8860
  624MOL0     H84209   5.434   6.047  10.353 -1.2501  0.9842  0.8649
  624MOL0     H84210   5.277   5.794  10.415  2.0394  1.4510  2.2485
  624MOL0     H84211   5.409   5.796  10.293  3.2987 -0.0814  3.7408
  624MOL0     H84212   5.150   5.967  10.255  0.2755 -0.9616  0.9832
  624MOL0     H84213   5.295   5.952  10.150  0.5904  3.3313  2.3536
  624MOL0     H84214   5.080   5.731  10.221 -1.2636 -0.4120 -1.3802
  624MOL0     H84215   5.231   5.695  10.157  1.9093  1.2238  0.7683
  624MOL0     H84216   5.016   5.892  10.048 -3.5462 -3.3747  1.6872
  624MOL0     H84217   5.159   5.869   9.958 -1.6501  2.7150  0.4953
  624MOL0     H84218   4.967   5.645  10.024 -0.9646 -0.6385 -2.0784
  624MOL0     H84219   5.107   5.627   9.918 -2.4918 -2.3870  0.8293
  624MOL0     H84220   4.900   5.654   9.787 -2.5042  2.7952 -1.7351
  624MOL0     H84221   5.044   5.750   9.745 -1.6938  0.0330 -1.7771
  624MOL0     H84222   5.666   5.993  10.335  0.2170 -1.8843  0.7271
  624MOL0     H84223   5.879   6.084  10.273 -2.8154 -0.7094 -0.4189
  624MOL0     H84224   6.214   6.540  10.242 -3.1463  0.5146  2.0371
  624MOL0     H84225   6.416   6.660  10.308  1.2991  0.8131  1.2439
  624MOL0     H84226   8.113   7.464  10.625 -2.8475  0.1792  2.5325
  624MOL0     H84227   8.316   7.508  10.781 -2.1433  1.2841  0.0990
  624MOL0     H84228   8.509   7.367  11.169 -1.5485 -1.3008 -2.0604
  624MOL0     H84229   8.695   7.367  11.337  1.0150  1.9725  0.3354
  624MOL0     H84230   8.860   7.512  11.403 -0.0283 -2.7777  1.9674
  624MOL0     H84231   9.028   7.456  11.446 -2.0612  2.9616  3.2000
  624MOL0     H84232   8.975   7.639  11.215 -2.8376 -0.9411  1.3856
  624MOL0     H84233   9.127   7.585  11.272  0.3846  0.6860 -0.4643
  624MOL0     H84234   9.143   7.757  11.387  0.6354 -1.4844  0.4080
  624MOL0     H84235   9.052   7.667  11.518  1.7185  2.3442  1.5581
  624MOL0     H84236   8.830   7.751  11.406 -0.8580  2.0333  2.1536
  624MOL0     H84237   8.943   7.835  11.294 -0.2635 -1.9689 -0.8723
  624MOL0     H84238   8.889   8.084  11.637  1.3577  1.6272 -1.0622
  624MOL0     H84239   8.983   7.403  11.031 -0.5546  0.6273  0.6186
  624MOL0     H84240   8.805   7.408  10.852 -0.1785 -0.8856 -0.3181
  625MOL0     O84241   1.385   6.451   6.783  0.3436  0.0842  0.0354
  625MOL0     C84242   1.398   6.331   6.803 -0.0530  0.2817 -0.7631
  625MOL0     O84243   1.328   6.253   6.900  0.5454 -0.9633 -0.7610
  625MOL0     C84244   1.229   6.326   6.963 -0.4255  0.2811 -0.2373
  625MOL0     C84245   1.203   6.299   7.102  0.0212  0.9746  0.7992
  625MOL0     C84246   1.088   6.349   7.167 -0.3352  0.5997  0.6174
  625MOL0     C84247   0.992   6.418   7.099 -0.0589  0.3472  0.2863
  625MOL0     O84248   0.883   6.476   7.156  0.9189 -0.0719  0.0344
  625MOL0     C84249   0.909   6.561   7.268  0.3544 -1.5268 -1.0389
  625MOL0     C84250   0.774   6.597   7.331 -0.2098  0.8630 -0.5080
  625MOL0     C84251   0.697   6.682   7.237 -0.6916  0.2238  0.0918
  625MOL0     C84252   0.576   6.729   7.315 -0.2958 -0.2634  1.4021
  625MOL0     C84253   0.480   6.813   7.239  0.9570 -1.0762 -0.3104
  625MOL0     C84254   0.356   6.858   7.319  0.0279 -0.4589  0.8098
  625MOL0     C84255   0.244   6.930   7.234 -0.4032 -0.0724  0.9769
  625MOL0     C84256   0.277   7.077   7.209  0.2784  0.3761 -0.3719
  625MOL0     N84257   0.169   7.150   7.136  0.2301  0.0045  0.2753
  625MOL0     C84258   0.080   7.087   7.049 -0.2350  0.1871  0.1714
  625MOL0     C84259   0.005   7.186   6.993  0.1852 -1.0513  0.0304
  625MOL0     C84260  -0.103   7.168   6.901 -0.6839 -0.1179 -0.5379
  625MOL0     C84261  -0.126   7.296   6.808  0.2795  1.3447  0.1626
  625MOL0     C84262  -0.245   7.257   6.732  0.7091  0.0807 -0.2605
  625MOL0     C84263  -0.380   7.293   6.795 -0.2962  0.3211  0.4484
  625MOL0     O84264  -0.478   7.239   6.698 -0.6091  0.0934  0.3686
  625MOL0     C84265  -0.601   7.290   6.722  0.6486 -0.7906 -0.1687
  625MOL0     C84266  -0.673   7.249   6.831  1.0706 -0.5668  0.1244
  625MOL0     C84267  -0.811   7.304   6.846 -0.2692  0.1956  0.4278
  625MOL0     C84268  -0.886   7.263   6.975 -0.3280  1.1666  0.2151
  625MOL0     C84269  -0.863   7.394   6.745 -0.8893  0.0882  0.0665
  625MOL0     C84270  -0.999   7.438   6.752 -0.7358 -0.4069  0.6078
  625MOL0     O84271  -1.047   7.481   6.629  0.0662  0.4350 -0.3684
  625MOL0     C84272  -1.184   7.501   6.612 -0.3259 -0.2309  0.4820
  625MOL0     C84273  -1.276   7.438   6.685  0.4167  0.6221 -0.6651
  625MOL0     C84274  -1.409   7.452   6.655  0.1441 -0.0365  0.1186
  625MOL0     C84275  -1.450   7.540   6.549  0.4600 -0.0796 -0.0952
  625MOL0     O84276  -1.569   7.524   6.507  0.8621  0.2581  0.0062
  625MOL0     C84277  -1.646   7.640   6.471  0.6092  0.6489 -0.1122
  625MOL0     C84278  -1.693   7.721   6.584  0.2852 -1.1722  0.3087
  625MOL0     C84279  -1.796   7.648   6.675 -0.5346 -0.5173 -0.0787
  625MOL0     C84280  -1.923   7.722   6.724 -0.2574  0.0637  0.5511
  625MOL0     C84281  -1.992   7.631   6.830  0.6543  0.3701 -0.4005
  625MOL0     C84282  -2.070   7.724   6.926  0.0053  0.0719 -0.8648
  625MOL0     C84283  -2.177   7.673   7.026 -0.1745 -0.0295 -0.6034
  625MOL0     C84284  -2.127   7.538   7.086 -0.1682 -0.5374 -0.1218
  625MOL0    Cl84285  -2.253   7.482   7.215  0.6225  0.2872 -0.2836
  625MOL0     C84286  -1.357   7.620   6.478 -0.3205  0.4698  0.1601
  625MOL0     C84287  -1.220   7.601   6.516  0.7865  0.2352  0.0855
  625MOL0     O84288  -1.060   7.454   6.858 -0.2544 -0.1711  0.1945
  625MOL0     C84289  -0.780   7.437   6.639  0.1164  2.4141 -0.4214
  625MOL0     C84290  -0.648   7.386   6.629  0.0727  0.0737 -0.1925
  625MOL0     N84291   0.033   7.302   7.060 -0.7764 -0.2431  0.5688
  625MOL0     N84292   0.132   7.284   7.140 -0.3565 -0.2498 -1.1908
  625MOL0     C84293   1.005   6.430   6.956  0.7878 -0.0641  0.3355
  625MOL0     C84294   1.123   6.392   6.898 -0.4131  0.8559 -0.1044
  625MOL0     C84295   1.514   6.281   6.726  0.4916 -0.1055  0.3062
  625MOL0     C84296   1.564   6.152   6.755  0.5292 -0.8183 -0.6277
  625MOL0     C84297   1.677   6.106   6.690  0.5449 -0.0953  0.5348
  625MOL0     C84298   1.741   6.184   6.591  0.9673 -0.5656  0.1234
  625MOL0     O84299   1.833   6.117   6.518 -0.5542 -0.3898 -0.2403
  625MOL0     C84300   1.960   6.192   6.494  0.2185  0.0776 -0.2351
  625MOL0     C84301   2.053   6.200   6.620  0.1460 -0.2787  0.8828
  625MOL0     C84302   2.081   6.065   6.687 -0.2235  0.8659  0.2178
  625MOL0     C84303   2.191   6.087   6.801 -0.1517  0.2025  0.3234
  625MOL0     C84304   2.310   6.146   6.761  0.3187 -0.1420  0.5858
  625MOL0     C84305   2.422   6.173   6.729  0.3067  0.3576 -0.0640
  625MOL0     C84306   1.697   6.311   6.569  0.3403 -0.0454 -0.0713
  625MOL0     C84307   1.583   6.357   6.628  0.4889 -0.0583 -0.5304
  625MOL0     H84308   1.280   6.253   7.164  0.5292 -0.4396 -0.7977
  625MOL0     H84309   1.085   6.320   7.272 -0.3472  2.3324  1.1352
  625MOL0     H84310   0.962   6.502   7.343  0.2389  1.0294  1.2127
  625MOL0     H84311   0.963   6.648   7.230  2.6412 -4.0450 -3.9761
  625MOL0     H84312   0.721   6.505   7.358  1.7870 -0.1559  0.1360
  625MOL0     H84313   0.784   6.653   7.424 -0.3277 -3.2337  2.2537
  625MOL0     H84314   0.754   6.772   7.216  0.6172 -0.6675 -0.2674
  625MOL0     H84315   0.671   6.637   7.140 -1.4859 -0.1892  0.4841
  625MOL0     H84316   0.519   6.638   7.334 -0.2672 -0.2386  1.6028
  625MOL0     H84317   0.615   6.783   7.402  0.9476  0.6821  0.3167
  625MOL0     H84318   0.521   6.913   7.219 -0.9646 -0.3521 -0.7898
  625MOL0     H84319   0.460   6.764   7.144  2.2607 -0.2054 -1.0680
  625MOL0     H84320   0.314   6.769   7.366 -0.9418  0.1375  1.1042
  625MOL0     H84321   0.389   6.929   7.395  1.0662  1.9669 -1.7327
  625MOL0     H84322   0.242   6.878   7.138  1.0925 -0.6093  1.2078
  625MOL0     H84323   0.144   6.927   7.277 -2.1111 -0.9642 -2.6105
  625MOL0     H84324   0.367   7.079   7.148  0.9494 -1.4393  0.4953
  625MOL0     H84325   0.295   7.136   7.299 -1.6730  1.1675 -0.4455
  625MOL0     H84326   0.067   6.980   7.032 -2.0434  0.3864  0.1510
  625MOL0     H84327  -0.087   7.071   6.854  0.8577 -0.9499  1.5119
  625MOL0     H84328  -0.193   7.146   6.959 -0.3632  0.6883  0.2917
  625MOL0     H84329  -0.041   7.318   6.742  1.1344  0.1922  0.8542
  625MOL0     H84330  -0.134   7.388   6.867  0.0767  2.1881 -1.1324
  625MOL0     H84331  -0.245   7.149   6.716  0.2503 -0.3000  1.9808
  625MOL0     H84332  -0.249   7.309   6.637 -1.4291  0.3858 -0.0556
  625MOL0     H84333  -0.396   7.401   6.802 -0.1686  0.2335  3.7256
  625MOL0     H84334  -0.405   7.264   6.898 -1.1279  1.2652  0.5403
  625MOL0     H84335  -0.641   7.183   6.911 -1.2295 -2.9770 -0.7979
  625MOL0     H84336  -0.946   7.175   6.954 -1.3970  2.0470 -0.5160
  625MOL0     H84337  -0.809   7.250   7.052  1.1631  2.4514 -0.9957
  625MOL0     H84338  -0.947   7.340   7.025 -0.7842 -0.2449  1.9507
  625MOL0     H84339  -1.250   7.355   6.750 -2.0828 -1.9798 -2.7163
  625MOL0     H84340  -1.488   7.385   6.687  0.0188 -0.4368 -0.9811
  625MOL0     H84341  -1.588   7.697   6.398 -1.1193  0.0706 -2.0297
  625MOL0     H84342  -1.732   7.605   6.413  0.1588 -0.6184  1.2556
  625MOL0     H84343  -1.606   7.758   6.640  0.2373  4.3943 -2.5381
  625MOL0     H84344  -1.739   7.812   6.543  3.1324  0.1293 -0.2295
  625MOL0     H84345  -1.738   7.623   6.764 -1.2069  0.1721  0.5720
  625MOL0     H84346  -1.824   7.552   6.630  0.8150 -1.6950  1.4871
  625MOL0     H84347  -1.881   7.816   6.760 -0.9355  1.5394 -2.1822
  625MOL0     H84348  -1.999   7.737   6.646 -0.5721 -3.3487  0.0389
  625MOL0     H84349  -1.917   7.576   6.888  0.6426  0.1188 -0.6225
  625MOL0     H84350  -2.061   7.556   6.790 -0.2440 -0.5640  2.6487
  625MOL0     H84351  -1.994   7.774   6.986 -0.7621 -1.2631  1.3651
  625MOL0     H84352  -2.127   7.796   6.867  0.9348  0.6856 -1.0431
  625MOL0     H84353  -2.273   7.649   6.980  0.1790 -1.7477 -0.5249
  625MOL0     H84354  -2.191   7.744   7.107  0.2733 -0.9519  0.3073
  625MOL0     H84355  -2.030   7.545   7.137 -0.3631 -0.0118  0.1842
  625MOL0     H84356  -2.127   7.462   7.008  0.3599  0.3689 -1.0240
  625MOL0     H84357  -1.390   7.670   6.387 -4.6883  0.6579  1.6069
  625MOL0     H84358  -1.129   7.638   6.470 -0.1489  3.1773  0.3730
  625MOL0     H84359  -0.807   7.521   6.576  1.6204  2.5141 -0.9559
  625MOL0     H84360  -0.575   7.418   6.555  0.9672 -0.8494  0.2652
  625MOL0     H84361   0.925   6.479   6.902  2.1640 -1.1342 -2.8998
  625MOL0     H84362   1.135   6.400   6.791 -1.2750 -1.2286 -0.4003
  625MOL0     H84363   1.510   6.085   6.821  1.2416 -1.7829 -0.9825
  625MOL0     H84364   1.712   6.007   6.715  0.0242 -0.7729 -1.2284
  625MOL0     H84365   2.008   6.128   6.420  1.6541  1.5827 -0.6665
  625MOL0     H84366   1.934   6.290   6.451 -3.7190 -0.1197  1.2300
  625MOL0     H84367   2.012   6.282   6.679  0.8394  0.8981 -0.2197
  625MOL0     H84368   2.147   6.236   6.576  0.6599 -1.6023  0.8490
  625MOL0     H84369   2.126   6.001   6.611  0.1803  2.5041 -0.9674
  625MOL0     H84370   2.003   6.006   6.736  1.0024 -3.5839 -2.5827
  625MOL0     H84371   2.212   5.988   6.842 -0.0505  0.7792  1.7007
  625MOL0     H84372   2.148   6.140   6.887  0.4552 -0.5554  1.1104
  625MOL0     H84373   2.524   6.194   6.703  0.4046  1.5976  1.1981
  625MOL0     H84374   1.749   6.365   6.491  0.3811 -0.1231 -0.0979
  625MOL0     H84375   1.554   6.461   6.617  2.3180  1.3561  4.6505
  626MOL0     O84376   7.381   9.675   4.006  0.9592 -0.0154 -0.8000
  626MOL0     C84377   7.363   9.562   4.065 -0.8153 -0.1665  1.0904
  626MOL0     O84378   7.238   9.503   4.103 -0.5527  0.0139  0.5072
  626MOL0     C84379   7.121   9.570   4.103 -0.4077 -0.0688 -0.2885
  626MOL0     C84380   7.078   9.684   4.034 -0.5300  0.5159  0.4625
  626MOL0     C84381   6.961   9.738   4.063  0.1091  0.9001  0.2072
  626MOL0     C84382   6.862   9.673   4.144 -0.9617  0.1012 -0.3666
  626MOL0     O84383   6.747   9.743   4.164 -0.5118  0.5537 -0.2386
  626MOL0     C84384   6.705   9.775   4.300  0.7969 -0.6285 -0.0252
  626MOL0     C84385   6.575   9.854   4.296  0.6481 -0.4384 -0.0731
  626MOL0     C84386   6.523   9.873   4.441 -0.3860 -1.0615  0.5313
  626MOL0     C84387   6.397   9.956   4.451  0.0529  0.0688  0.5968
  626MOL0     C84388   6.428  10.105   4.449 -0.1409 -0.4703  0.3556
  626MOL0     C84389   6.303  10.185   4.444  0.4551 -0.2672  0.5585
  626MOL0     C84390   6.329  10.333   4.441 -0.5898  0.5247 -0.1985
  626MOL0     C84391   6.350  10.381   4.300  0.7655 -0.2689  0.4278
  626MOL0     N84392   6.227  10.396   4.213  0.3890 -0.3241  0.2815
  626MOL0     C84393   6.200  10.322   4.104  0.6074  0.4321  0.2350
  626MOL0     C84394   6.087  10.381   4.059  0.8028  1.0571 -0.3785
  626MOL0     C84395   6.005  10.308   3.949  0.2007 -0.1938 -0.4515
  626MOL0     C84396   5.858  10.290   3.986 -0.8368 -0.2895  0.4686
  626MOL0     C84397   5.831  10.191   4.112 -0.2933 -0.1305 -0.3198
  626MOL0     C84398   5.883  10.048   4.093  0.3186 -0.7250 -0.1934
  626MOL0     O84399   5.901   9.997   4.220  0.2246  0.6717 -0.0652
  626MOL0     C84400   5.975   9.879   4.212 -0.5066 -0.4090  0.5593
  626MOL0     C84401   5.923   9.751   4.185  0.4023 -0.3408 -0.4141
  626MOL0     C84402   6.008   9.642   4.161  0.3607  0.0323  0.3780
  626MOL0     C84403   5.932   9.518   4.133 -0.3554  0.9046  0.3164
  626MOL0     C84404   6.153   9.663   4.149  0.6548 -0.0107 -0.5380
  626MOL0     C84405   6.243   9.550   4.101  0.3503 -0.3958  0.1269
  626MOL0     O84406   6.376   9.570   4.126  0.2122  0.5890  0.2316
  626MOL0     C84407   6.482   9.476   4.105 -0.3789 -0.2470 -0.5729
  626MOL0     C84408   6.505   9.365   4.187 -0.5781  0.0375 -0.6139
  626MOL0     C84409   6.625   9.297   4.185  0.2325 -0.3312 -0.5193
  626MOL0     C84410   6.711   9.317   4.082  0.1901 -0.2266 -0.2297
  626MOL0     O84411   6.825   9.236   4.098  0.7109  0.3678  0.2061
  626MOL0     C84412   6.894   9.207   3.978 -0.4952 -0.3583  0.8063
  626MOL0     C84413   7.007   9.109   3.998  0.3167 -0.2508 -0.2937
  626MOL0     C84414   7.049   9.045   3.864 -0.1925  0.0340  0.1711
  626MOL0     C84415   6.950   8.925   3.825  0.1344 -0.4974  0.2934
  626MOL0     C84416   7.007   8.828   3.730  0.5047  0.1474  0.0989
  626MOL0     C84417   6.902   8.729   3.674 -0.1427  0.6908  0.0079
  626MOL0     C84418   6.878   8.600   3.753  0.3675  0.0270 -0.5431
  626MOL0     C84419   6.978   8.484   3.723 -0.2473 -0.5894 -0.3743
  626MOL0    Cl84420   6.906   8.323   3.738  0.0460  0.2115 -0.0084
  626MOL0     C84421   6.685   9.422   3.990  0.6600 -0.0579 -0.1672
  626MOL0     C84422   6.572   9.500   4.001 -0.1060 -0.8009 -0.4444
  626MOL0     O84423   6.192   9.446   4.061 -0.2295  0.1142 -0.5555
  626MOL0     C84424   6.201   9.792   4.181  0.7821  0.5973 -0.0059
  626MOL0     C84425   6.114   9.902   4.216 -0.7117 -0.2819 -0.5324
  626MOL0     N84426   6.056  10.494   4.133 -0.5037  0.2002  0.8293
  626MOL0     N84427   6.148  10.508   4.222  0.2142  0.4133 -0.1957
  626MOL0     C84428   6.897   9.548   4.192  0.2146 -0.4163  0.1636
  626MOL0     C84429   7.024   9.495   4.181  0.7027  0.5104  0.3459
  626MOL0     C84430   7.482   9.488   4.102  0.1641  0.9586 -0.1638
  626MOL0     C84431   7.607   9.549   4.121  0.0759 -0.6263 -0.7466
  626MOL0     C84432   7.719   9.477   4.172 -0.5541  0.3835 -0.2622
  626MOL0     C84433   7.712   9.342   4.204  0.1041  0.4663 -0.2273
  626MOL0     O84434   7.810   9.265   4.274 -0.8329 -0.0787  0.8574
  626MOL0     C84435   7.940   9.319   4.285  0.1688 -0.1952 -0.3070
  626MOL0     C84436   8.026   9.332   4.167 -0.6281 -0.3213  0.8422
  626MOL0     C84437   8.098   9.210   4.109  0.4789 -0.5934  0.2256
  626MOL0     C84438   8.001   9.088   4.096 -0.2549  0.2606 -0.5622
  626MOL0     C84439   8.060   8.977   4.022  0.0078  0.3493  0.0745
  626MOL0     C84440   8.106   8.874   3.961  0.3520 -0.6653 -1.1570
  626MOL0     C84441   7.592   9.286   4.195  0.3110  0.0918  0.3206
  626MOL0     C84442   7.481   9.356   4.154  0.9071 -0.2655 -0.2462
  626MOL0     H84443   7.155   9.728   3.972  1.3823 -1.9775  0.8950
  626MOL0     H84444   6.939   9.832   4.015 -1.5012  0.0847 -0.7588
  626MOL0     H84445   6.691   9.690   4.367 -0.7735  0.6582  1.3999
  626MOL0     H84446   6.776   9.838   4.354  0.9640 -0.7785 -0.0708
  626MOL0     H84447   6.573   9.950   4.243 -0.6103 -0.9137 -0.9463
  626MOL0     H84448   6.507   9.793   4.235 -0.8776  1.4655 -0.3759
  626MOL0     H84449   6.502   9.782   4.498  0.2426 -0.3246  1.9981
  626MOL0     H84450   6.608   9.921   4.490  0.1591 -1.4344 -0.0331
  626MOL0     H84451   6.329   9.913   4.377 -1.2942  2.3044  0.4388
  626MOL0     H84452   6.356   9.931   4.550  0.1718  0.7254  0.8184
  626MOL0     H84453   6.492  10.138   4.531  1.5240 -1.0607 -0.6458
  626MOL0     H84454   6.489  10.130   4.362 -0.1806 -1.4281  0.0362
  626MOL0     H84455   6.238  10.170   4.357  1.3507  3.7878 -1.0259
  626MOL0     H84456   6.251  10.161   4.537 -0.8899 -2.4635 -0.6600
  626MOL0     H84457   6.253  10.400   4.482 -0.9029  0.4953 -0.7237
  626MOL0     H84458   6.421  10.358   4.495  0.4598 -0.4291 -1.4783
  626MOL0     H84459   6.440  10.333   4.259  3.4615  3.5211  1.2602
  626MOL0     H84460   6.382  10.486   4.306  0.9656 -0.3939  1.7136
  626MOL0     H84461   6.243  10.229   4.067 -1.7150 -0.1804 -1.1001
  626MOL0     H84462   5.999  10.380   3.867 -1.3808  0.7699  0.4584
  626MOL0     H84463   6.050  10.214   3.914 -2.7565 -1.8521 -0.1276
  626MOL0     H84464   5.805  10.270   3.893 -0.2196  1.9707 -0.4557
  626MOL0     H84465   5.829  10.394   4.006 -0.9383  0.2534 -2.1697
  626MOL0     H84466   5.728  10.189   4.147 -0.3166  1.6970 -0.2126
  626MOL0     H84467   5.893  10.233   4.191  1.4000 -1.8885 -0.6436
  626MOL0     H84468   5.983  10.056   4.050  0.1392  0.7045 -0.3952
  626MOL0     H84469   5.816   9.990   4.028  1.9402  0.0228 -2.6919
  626MOL0     H84470   5.816   9.736   4.180  0.2234  1.2976 -2.4402
  626MOL0     H84471   5.904   9.510   4.028  2.2241  0.6440 -0.4153
  626MOL0     H84472   5.992   9.431   4.159 -1.5885 -0.2703 -0.5944
  626MOL0     H84473   5.840   9.513   4.193 -0.8257 -2.0628 -0.4783
  626MOL0     H84474   6.434   9.339   4.265 -0.9067  0.4960 -0.7545
  626MOL0     H84475   6.632   9.207   4.244  1.5684 -0.8424 -1.3981
  626MOL0     H84476   6.830   9.177   3.894 -0.7807  4.2679 -0.8883
  626MOL0     H84477   6.945   9.297   3.943 -2.0533  1.5710  3.2015
  626MOL0     H84478   7.093   9.167   4.031  0.8135 -0.9694 -0.3176
  626MOL0     H84479   6.989   9.034   4.075  4.1077 -1.9746 -0.8518
  626MOL0     H84480   7.147   9.007   3.897 -1.1420 -1.5971  1.2709
  626MOL0     H84481   7.059   9.125   3.791  0.2960  0.0740  0.2743
  626MOL0     H84482   6.923   8.873   3.917 -0.6163 -0.4175  0.1280
  626MOL0     H84483   6.864   8.980   3.785  2.1924  1.2448 -2.0830
  626MOL0     H84484   7.081   8.769   3.785  0.3482 -2.3127 -2.1132
  626MOL0     H84485   7.056   8.878   3.646  0.3063  1.0344  0.5063
  626MOL0     H84486   6.800   8.769   3.666 -1.7249 -3.1958 -1.8100
  626MOL0     H84487   6.933   8.704   3.572 -0.2189  0.3784  0.0592
  626MOL0     H84488   6.775   8.569   3.735  0.8789 -2.0303 -0.1055
  626MOL0     H84489   6.890   8.638   3.855 -1.2179  0.0243 -0.3383
  626MOL0     H84490   7.063   8.489   3.792 -1.6346  1.5164  1.3297
  626MOL0     H84491   7.015   8.489   3.620 -0.2218 -1.8778 -0.4405
  626MOL0     H84492   6.766   9.446   3.921 -0.2986  0.8172 -1.0280
  626MOL0     H84493   6.562   9.575   3.924  1.6657 -1.3976 -1.3080
  626MOL0     H84494   6.307   9.805   4.163  1.9475 -1.8665  3.7265
  626MOL0     H84495   6.158   9.999   4.238 -1.0593 -0.0559 -0.8203
  626MOL0     H84496   6.829   9.492   4.256 -0.3961  1.5907  1.3518
  626MOL0     H84497   7.049   9.394   4.213 -1.1098 -0.2164 -0.3561
  626MOL0     H84498   7.634   9.649   4.090  2.9446  0.2570  3.6782
  626MOL0     H84499   7.814   9.526   4.190  1.3205 -3.4306  1.3148
  626MOL0     H84500   7.924   9.420   4.325 -0.3683  0.1296 -1.3231
  626MOL0     H84501   7.986   9.264   4.369 -0.7037 -1.5660 -0.6900
  626MOL0     H84502   8.105   9.405   4.190  0.9059 -1.4202 -0.6453
  626MOL0     H84503   7.963   9.367   4.085 -0.0570 -1.1554  0.0302
  626MOL0     H84504   8.184   9.195   4.174  2.8137  3.5175 -1.5125
  626MOL0     H84505   8.135   9.225   4.007 -1.9256 -2.7511 -1.0932
  626MOL0     H84506   7.916   9.126   4.038 -1.2631 -0.8751  0.1248
  626MOL0     H84507   7.961   9.067   4.196  3.3590 -0.2570  0.9284
  626MOL0     H84508   8.154   8.791   3.913  1.4312 -0.1537 -1.0049
  626MOL0     H84509   7.588   9.186   4.236  0.1252  0.3694  1.0033
  626MOL0     H84510   7.391   9.299   4.135 -1.0922  3.1155 -1.8256
  627MOL0     O84511   5.024   7.976   1.116  0.5469 -0.1109  0.6792
  627MOL0     C84512   5.055   8.097   1.116  0.0913  0.0445 -0.1973
  627MOL0     O84513   4.962   8.199   1.129  0.8632 -0.3222  0.3846
  627MOL0     C84514   4.830   8.172   1.096  0.2878 -0.2733  0.1926
  627MOL0     C84515   4.792   8.080   0.998 -0.9378  0.0145 -0.1287
  627MOL0     C84516   4.664   8.059   0.966  0.6603 -0.7490 -0.2594
  627MOL0     C84517   4.564   8.125   1.038 -0.4247 -0.0877  0.7255
  627MOL0     O84518   4.429   8.114   1.011 -0.3065 -0.4013 -0.1756
  627MOL0     C84519   4.385   7.985   1.007  0.7236  0.7800  0.2890
  627MOL0     C84520   4.235   7.995   0.951  0.0547  0.1792  0.1480
  627MOL0     C84521   4.228   8.031   0.802 -0.2031  0.3529  0.2699
  627MOL0     C84522   4.075   8.045   0.778  0.6022 -0.3753  1.3768
  627MOL0     C84523   4.054   8.101   0.639 -0.4249 -0.4644 -0.4017
  627MOL0     C84524   4.100   8.235   0.623  0.6261 -0.6417  0.1712
  627MOL0     C84525   4.071   8.293   0.479 -0.2172 -1.1353 -0.2934
  627MOL0     C84526   4.150   8.426   0.439  0.1240  0.1996 -0.1916
  627MOL0     N84527   4.086   8.547   0.486 -0.2765 -0.5063  0.9775
  627MOL0     C84528   4.088   8.602   0.611  0.0492  0.8482 -0.0077
  627MOL0     C84529   3.987   8.683   0.618 -0.1965 -0.1331 -0.9624
  627MOL0     C84530   3.953   8.766   0.747 -0.6354 -0.4265  0.5471
  627MOL0     C84531   3.812   8.850   0.733 -0.4194 -0.0402 -0.1303
  627MOL0     C84532   3.816   8.970   0.835  0.0438 -0.5246 -0.3911
  627MOL0     C84533   3.688   9.051   0.827  0.5457 -0.8777 -0.1131
  627MOL0     O84534   3.686   9.131   0.950  1.1753 -0.4849  0.5719
  627MOL0     C84535   3.572   9.213   0.972  0.3917 -0.0743  0.3926
  627MOL0     C84536   3.536   9.254   1.096  0.2969 -0.2318 -1.2873
  627MOL0     C84537   3.417   9.324   1.129 -0.5724 -0.6111 -0.1850
  627MOL0     C84538   3.405   9.379   1.269  0.6482  0.6460 -0.3825
  627MOL0     C84539   3.335   9.353   1.018  0.1249 -0.1092  0.4138
  627MOL0     C84540   3.197   9.388   1.040 -0.1578  0.6134  0.5228
  627MOL0     O84541   3.139   9.364   1.160 -0.3452  0.2514 -0.4437
  627MOL0     C84542   3.012   9.410   1.200 -0.4537  0.5054  0.8880
  627MOL0     C84543   2.921   9.333   1.276 -0.1124 -0.0106 -0.2518
  627MOL0     C84544   2.794   9.393   1.313  0.0679 -1.0173  0.4702
  627MOL0     C84545   2.762   9.529   1.279 -0.8133 -0.2296  0.2215
  627MOL0     O84546   2.644   9.570   1.334  0.0875  0.4021  0.1696
  627MOL0     C84547   2.582   9.689   1.296  0.4030 -0.2114 -0.2177
  627MOL0     C84548   2.462   9.723   1.379 -0.5626  0.2053 -0.4336
  627MOL0     C84549   2.328   9.678   1.327  0.7015  0.2430  0.2478
  627MOL0     C84550   2.319   9.527   1.317  0.5324  0.0443  0.1362
  627MOL0     C84551   2.180   9.475   1.291  0.3812  0.1523  0.4850
  627MOL0     C84552   2.181   9.336   1.227 -0.7461  0.2867 -0.4139
  627MOL0     C84553   2.231   9.227   1.318 -0.0359 -0.0237  0.4623
  627MOL0     C84554   2.219   9.089   1.249  1.0101  0.1802  0.6637
  627MOL0    Cl84555   2.050   9.025   1.236  0.2212 -0.1581  0.3060
  627MOL0     C84556   2.852   9.603   1.197  0.4528  0.8343  1.1611
  627MOL0     C84557   2.975   9.549   1.166 -0.4723  0.3241 -0.0164
  627MOL0     O84558   3.148   9.452   0.953  0.0672  0.0007  0.5286
  627MOL0     C84559   3.383   9.331   0.890  0.3606  0.7869  0.2148
  627MOL0     C84560   3.497   9.266   0.863 -0.0664  0.8657  0.7675
  627MOL0     N84561   3.920   8.671   0.496  0.3224  0.3587  0.2357
  627MOL0     N84562   3.980   8.587   0.418  0.7627 -0.8310  0.1846
  627MOL0     C84563   4.598   8.224   1.135 -0.3286  0.0250  0.0686
  627MOL0     C84564   4.730   8.248   1.156  0.1544  0.8396 -0.4534
  627MOL0     C84565   5.199   8.134   1.115 -0.8707 -0.4539  0.4243
  627MOL0     C84566   5.241   8.271   1.097  1.2102  0.7720  0.5173
  627MOL0     C84567   5.373   8.304   1.078 -0.1356  0.3260 -0.2659
  627MOL0     C84568   5.468   8.204   1.050  0.3727 -0.4117 -0.7739
  627MOL0     O84569   5.605   8.230   1.035 -0.4054 -0.2448  0.1625
  627MOL0     C84570   5.664   8.343   1.105 -0.3431  0.1483  1.1516
  627MOL0     C84571   5.813   8.338   1.073 -0.1672 -0.2744 -0.7574
  627MOL0     C84572   5.888   8.210   1.121  0.2609 -0.1558 -0.3123
  627MOL0     C84573   5.935   8.218   1.268  0.4072  0.8524 -0.4218
  627MOL0     C84574   5.846   8.283   1.355 -0.0679  0.5637  0.7365
  627MOL0     C84575   5.772   8.349   1.427  1.0644  0.5577  0.9261
  627MOL0     C84576   5.436   8.070   1.066  0.4752 -0.5076  0.2400
  627MOL0     C84577   5.301   8.037   1.100  0.5230  1.2707  0.7575
  627MOL0     H84578   4.863   8.024   0.938 -0.8678 -0.3226  0.2677
  627MOL0     H84579   4.641   7.993   0.883 -0.7852 -0.4662 -0.1087
  627MOL0     H84580   4.442   7.917   0.943 -0.5696 -0.7111  0.6693
  627MOL0     H84581   4.379   7.941   1.107 -0.8909 -0.6708 -0.4159
  627MOL0     H84582   4.186   7.897   0.948 -0.6769  0.5670 -1.2383
  627MOL0     H84583   4.176   8.065   1.010 -0.7985  1.6833 -2.3679
  627MOL0     H84584   4.285   8.123   0.788  0.2506  0.4805  2.5191
  627MOL0     H84585   4.272   7.956   0.735 -2.9546 -0.7596 -0.4469
  627MOL0     H84586   4.025   7.948   0.786  1.9492 -1.2356 -0.1845
  627MOL0     H84587   4.027   8.114   0.849 -2.0017  0.9563 -1.4756
  627MOL0     H84588   4.109   8.037   0.569 -0.2573 -3.5965  2.3970
  627MOL0     H84589   3.951   8.103   0.602 -0.7562 -1.3117  0.4647
  627MOL0     H84590   4.056   8.312   0.689  2.8997  1.7881 -0.9610
  627MOL0     H84591   4.208   8.240   0.635  0.6064  0.1752  0.0571
  627MOL0     H84592   4.093   8.222   0.399 -0.6405  0.2301 -1.6545
  627MOL0     H84593   3.964   8.312   0.482  0.0722  1.2878  4.4485
  627MOL0     H84594   4.154   8.440   0.330  2.2938  1.3635 -0.0109
  627MOL0     H84595   4.253   8.424   0.475 -0.0200  2.1084  0.3988
  627MOL0     H84596   4.165   8.579   0.685 -1.0874 -0.4534  0.8335
  627MOL0     H84597   3.955   8.693   0.828  1.9862  0.5098  1.4283
  627MOL0     H84598   4.036   8.835   0.763  1.1492 -2.7637  2.1765
  627MOL0     H84599   3.729   8.784   0.759  0.3164 -1.2441 -0.7710
  627MOL0     H84600   3.797   8.878   0.629 -0.0289  0.6615 -0.0060
  627MOL0     H84601   3.902   9.034   0.813 -3.0336  4.0053 -0.4251
  627MOL0     H84602   3.831   8.923   0.933  0.0310  0.2402 -0.0231
  627MOL0     H84603   3.601   8.984   0.821 -0.2513 -0.3594  3.4199
  627MOL0     H84604   3.677   9.127   0.749 -0.1764  1.3738  2.0878
  627MOL0     H84605   3.594   9.217   1.180 -0.5298  0.5636 -0.3447
  627MOL0     H84606   3.364   9.310   1.342  0.1759  0.5304 -0.7511
  627MOL0     H84607   3.507   9.397   1.303  0.6762 -2.1310  1.2575
  627MOL0     H84608   3.340   9.467   1.280 -1.5017 -1.1580  2.4935
  627MOL0     H84609   2.939   9.237   1.322 -1.2212 -0.1834 -0.1449
  627MOL0     H84610   2.732   9.326   1.373 -0.1449  0.1955  1.6459
  627MOL0     H84611   2.648   9.776   1.302  0.3392 -0.1789  0.0019
  627MOL0     H84612   2.552   9.692   1.191  1.1821  1.3124 -0.4215
  627MOL0     H84613   2.473   9.685   1.481  2.8613 -1.7090 -1.3564
  627MOL0     H84614   2.469   9.832   1.370 -0.4313  0.3207  0.8257
  627MOL0     H84615   2.325   9.722   1.227  1.3687 -0.5069 -0.1076
  627MOL0     H84616   2.244   9.722   1.382 -0.1297 -0.3540 -0.5339
  627MOL0     H84617   2.386   9.478   1.245  0.2819 -2.5756  1.5221
  627MOL0     H84618   2.350   9.476   1.409 -0.8496 -1.7178 -0.3236
  627MOL0     H84619   2.139   9.545   1.217  2.4729 -1.3551 -2.2854
  627MOL0     H84620   2.119   9.480   1.382 -1.7354 -0.2536 -0.8284
  627MOL0     H84621   2.074   9.317   1.211 -0.9611  2.4624 -1.9432
  627MOL0     H84622   2.231   9.335   1.131  1.4827 -3.0296  0.6285
  627MOL0     H84623   2.173   9.221   1.410 -0.8385 -2.5640 -0.1520
  627MOL0     H84624   2.337   9.244   1.339 -0.0653 -0.4064  0.9317
  627MOL0     H84625   2.278   9.020   1.310  1.3224  0.4096  0.6296
  627MOL0     H84626   2.256   9.088   1.146 -0.6721 -0.8636  0.0282
  627MOL0     H84627   2.828   9.699   1.154 -1.6392 -0.3967 -0.6119
  627MOL0     H84628   3.056   9.607   1.122  0.5719 -2.3682 -1.9087
  627MOL0     H84629   3.320   9.361   0.806  1.1509  0.2248 -0.5904
  627MOL0     H84630   3.520   9.245   0.759 -0.0755 -2.5325  1.3450
  627MOL0     H84631   4.518   8.271   1.191  2.4446  3.5107  1.4794
  627MOL0     H84632   4.752   8.331   1.222  0.5143 -0.7877  1.5688
  627MOL0     H84633   5.168   8.350   1.109 -1.1053 -1.0584 -0.8652
  627MOL0     H84634   5.407   8.406   1.062 -0.0735  0.5861  1.3991
  627MOL0     H84635   5.620   8.438   1.073  0.6977 -0.3758 -2.2969
  627MOL0     H84636   5.643   8.334   1.212 -0.5762 -0.1080  1.0850
  627MOL0     H84637   5.854   8.425   1.126 -1.6390 -1.0815  1.8796
  627MOL0     H84638   5.818   8.349   0.964  0.6399  2.8948 -0.4941
  627MOL0     H84639   5.974   8.196   1.056 -0.2010  2.6131 -1.6781
  627MOL0     H84640   5.830   8.117   1.111  3.7737 -2.7313  1.2486
  627MOL0     H84641   6.029   8.273   1.270  0.9835 -0.0962 -0.7438
  627MOL0     H84642   5.943   8.113   1.298 -1.9390  1.2891  2.2117
  627MOL0     H84643   5.700   8.402   1.487  0.5844 -2.1372  2.9664
  627MOL0     H84644   5.509   8.001   1.026 -0.8024 -1.2187 -0.9352
  627MOL0     H84645   5.254   7.939   1.099  0.9733  1.0444  1.1118
  628MOL0     O84646   3.612   2.295  11.057 -0.6226 -1.0345  0.0155
  628MOL0     C84647   3.557   2.207  11.129  0.5912 -0.6871 -0.2812
  628MOL0     O84648   3.422   2.209  11.174 -1.1305 -0.2133  0.5381
  628MOL0     C84649   3.355   2.301  11.093 -0.6802  0.3166 -0.2105
  628MOL0     C84650   3.348   2.291  10.953 -0.4546 -0.2722  1.0958
  628MOL0     C84651   3.287   2.394  10.882  0.4946  0.2583  0.5131
  628MOL0     C84652   3.234   2.505  10.945  0.6503 -0.6370  0.3340
  628MOL0     O84653   3.172   2.613  10.874 -0.1508 -0.1972 -0.5526
  628MOL0     C84654   3.138   2.596  10.737 -0.6105  1.1566 -0.1879
  628MOL0     C84655   3.024   2.688  10.704 -0.4109 -0.5952  0.7051
  628MOL0     C84656   2.889   2.637  10.753  0.6331 -0.0101 -0.3430
  628MOL0     C84657   2.773   2.736  10.705 -1.0229  0.4273 -0.9478
  628MOL0     C84658   2.640   2.700  10.766  0.0833  0.3033 -0.5484
  628MOL0     C84659   2.584   2.564  10.745 -0.4662  0.2166  0.6008
  628MOL0     C84660   2.435   2.566  10.797  0.2704  0.7346 -1.5313
  628MOL0     C84661   2.358   2.437  10.771 -0.2385  0.0384  0.7766
  628MOL0     N84662   2.218   2.468  10.790 -0.4331 -0.2042 -0.0152
  628MOL0     C84663   2.151   2.462  10.911 -0.2250  0.8262  0.9192
  628MOL0     C84664   2.015   2.479  10.883 -0.1899  1.1515 -0.7055
  628MOL0     C84665   1.911   2.476  10.983  0.1478  0.1168  0.3357
  628MOL0     C84666   1.809   2.358  10.948  0.4430  0.1326 -0.4098
  628MOL0     C84667   1.680   2.344  11.040  0.5560 -0.6446  0.0565
  628MOL0     C84668   1.586   2.462  11.034  0.0290 -0.2638  0.2042
  628MOL0     O84669   1.460   2.423  11.100 -0.2174 -0.5347 -0.2353
  628MOL0     C84670   1.365   2.518  11.095  0.4191 -0.9088 -0.7318
  628MOL0     C84671   1.371   2.644  11.035  0.3769 -0.1872  0.6961
  628MOL0     C84672   1.248   2.720  11.024 -1.0435 -0.5630  1.1152
  628MOL0     C84673   1.248   2.854  10.958 -0.2313 -0.6639  0.9515
  628MOL0     C84674   1.128   2.657  11.063 -0.3965 -0.0894  0.1514
  628MOL0     C84675   0.998   2.723  11.037  0.8229  0.3847 -0.0847
  628MOL0     O84676   0.983   2.778  10.915  0.2768 -0.1095 -0.1055
  628MOL0     C84677   0.855   2.791  10.859 -1.3799  0.5472  0.2158
  628MOL0     C84678   0.818   2.922  10.824 -0.3930  0.6392  0.3649
  628MOL0     C84679   0.698   2.945  10.762  0.7133 -0.1235 -0.1841
  628MOL0     C84680   0.603   2.846  10.748 -0.5784  0.4826 -0.0361
  628MOL0     O84681   0.483   2.892  10.690 -0.4395 -0.7506  0.1729
  628MOL0     C84682   0.365   2.808  10.695  0.3847 -0.6134  0.2749
  628MOL0     C84683   0.239   2.890  10.647 -0.4304  0.2935  1.0491
  628MOL0     C84684   0.250   2.927  10.503  0.1244  0.2845  0.3246
  628MOL0     C84685   0.118   2.989  10.442 -0.2919 -0.6684 -0.0205
  628MOL0     C84686   0.146   3.032  10.297  0.7069 -0.5112  0.2254
  628MOL0     C84687   0.213   3.162  10.284 -0.5533 -0.2557 -0.3169
  628MOL0     C84688   0.187   3.236  10.154 -0.8446  0.3541  0.4141
  628MOL0     C84689   0.220   3.142  10.036 -0.3368 -0.4665  0.0430
  628MOL0    Cl84690   0.404   3.121  10.022  0.0616  0.0611  0.5729
  628MOL0     C84691   0.640   2.713  10.775  0.6303  0.5165 -0.4690
  628MOL0     C84692   0.770   2.683  10.828  0.0211  0.0059 -0.0997
  628MOL0     O84693   0.912   2.732  11.121 -0.4492 -0.4414  0.0345
  628MOL0     C84694   1.128   2.547  11.149 -1.4548  0.1739 -0.2283
  628MOL0     C84695   1.248   2.479  11.165 -1.1060  0.3417 -1.3858
  628MOL0     N84696   2.010   2.491  10.741  0.4812  0.1781  0.5635
  628MOL0     N84697   2.128   2.488  10.686  0.6707  0.0799 -0.3363
  628MOL0     C84698   3.233   2.514  11.080 -1.1638  0.3131 -0.4737
  628MOL0     C84699   3.284   2.408  11.157  0.0847 -0.0951 -0.3632
  628MOL0     C84700   3.643   2.096  11.175  0.2087  0.6159 -0.3353
  628MOL0     C84701   3.774   2.083  11.126 -0.4240 -0.3223 -0.1693
  628MOL0     C84702   3.872   2.003  11.164 -0.3672 -0.6097 -0.4457
  628MOL0     C84703   3.842   1.923  11.273 -0.9135  0.4713 -0.8078
  628MOL0     O84704   3.924   1.833  11.330  0.1007  0.3101 -0.0001
  628MOL0     C84705   4.063   1.874  11.344 -0.6520  0.7578 -0.9532
  628MOL0     C84706   4.103   1.833  11.489  0.9276  0.6166  0.4597
  628MOL0     C84707   4.252   1.837  11.513 -0.1201  0.4066  0.5357
  628MOL0     C84708   4.299   1.820  11.658  0.1076 -0.0807  0.0874
  628MOL0     C84709   4.445   1.846  11.673 -0.3531 -0.1960 -0.5203
  628MOL0     C84710   4.561   1.865  11.679 -1.1885  0.1744 -0.1400
  628MOL0     C84711   3.708   1.913  11.307  0.5007  0.4843 -0.4588
  628MOL0     C84712   3.601   1.990  11.263 -0.0626 -0.4670 -0.5777
  628MOL0     H84713   3.388   2.197  10.917 -0.6347 -0.1546  0.5878
  628MOL0     H84714   3.293   2.390  10.774  0.8066  1.1991  0.4929
  628MOL0     H84715   3.222   2.624  10.673 -0.5298 -0.2909 -0.7410
  628MOL0     H84716   3.110   2.492  10.722  2.3719  0.1030  0.7967
  628MOL0     H84717   3.043   2.785  10.752 -2.3452 -0.0427  0.4447
  628MOL0     H84718   3.025   2.710  10.597  0.2541  0.1133  0.8400
  628MOL0     H84719   2.871   2.541  10.704 -1.0097  0.9563 -1.7514
  628MOL0     H84720   2.888   2.626  10.862  3.2236 -0.2101 -0.2628
  628MOL0     H84721   2.797   2.837  10.740 -1.6724  0.4469 -0.5450
  628MOL0     H84722   2.766   2.738  10.596 -3.2681 -0.6262 -0.8673
  628MOL0     H84723   2.641   2.716  10.874  0.5612 -3.0440  0.0540
  628MOL0     H84724   2.566   2.763  10.715 -1.2399 -1.3078 -0.7150
  628MOL0     H84725   2.604   2.552  10.638 -1.3024 -1.0562  0.5754
  628MOL0     H84726   2.644   2.487  10.795 -0.4302 -0.0699  0.1215
  628MOL0     H84727   2.430   2.594  10.903 -3.0597 -1.6256 -0.9331
  628MOL0     H84728   2.388   2.646  10.738 -0.7714  0.1523 -1.5214
  628MOL0     H84729   2.394   2.361  10.841 -0.7307  0.1725  1.1867
  628MOL0     H84730   2.365   2.403  10.668  1.5834  0.9866  0.5478
  628MOL0     H84731   2.196   2.442  11.008 -1.2438  0.5288  1.3509
  628MOL0     H84732   1.955   2.466  11.083  0.7645  1.2490  0.1862
  628MOL0     H84733   1.857   2.570  10.969  2.6439  1.2707 -2.7119
  628MOL0     H84734   1.868   2.267  10.960  1.6229  1.1834  3.0382
  628MOL0     H84735   1.773   2.359  10.844  0.9440 -0.3039 -0.5908
  628MOL0     H84736   1.701   2.329  11.146  0.3380 -1.3774  0.0040
  628MOL0     H84737   1.620   2.262  10.999 -1.3821  0.3714  0.7373
  628MOL0     H84738   1.557   2.479  10.930  0.2546 -0.1474  0.1595
  628MOL0     H84739   1.638   2.551  11.071 -2.2593  0.5759  1.5773
  628MOL0     H84740   1.457   2.704  11.010  1.5193 -1.1118  2.2252
  628MOL0     H84741   1.197   2.925  11.024  0.8303 -0.5348  1.6633
  628MOL0     H84742   1.350   2.894  10.962 -0.6314  0.3867  0.6916
  628MOL0     H84743   1.210   2.846  10.856 -5.5319 -1.1116  2.6714
  628MOL0     H84744   0.886   3.000  10.856  0.3509 -0.4796  1.6108
  628MOL0     H84745   0.668   3.044  10.732  0.9026  0.0877  0.3148
  628MOL0     H84746   0.372   2.723  10.626  0.5281 -0.4593  0.0961
  628MOL0     H84747   0.358   2.777  10.799  1.9825 -1.3029  0.2061
  628MOL0     H84748   0.144   2.836  10.654  0.0952 -0.6833  0.8272
  628MOL0     H84749   0.241   2.983  10.705  0.9617  0.8553  0.1607
  628MOL0     H84750   0.272   2.836  10.447  0.0789  1.5854 -1.9015
  628MOL0     H84751   0.337   2.993  10.497  0.8501 -0.6962 -0.0807
  628MOL0     H84752   0.043   2.910  10.432  1.2941 -1.9931 -2.8392
  628MOL0     H84753   0.071   3.071  10.497 -1.3165 -1.3457  0.1503
  628MOL0     H84754   0.051   3.038  10.244  1.4277  0.2704 -1.0319
  628MOL0     H84755   0.211   2.961  10.246  1.2114  0.6086 -0.7429
  628MOL0     H84756   0.183   3.232  10.362 -1.4213  1.8356 -2.4340
  628MOL0     H84757   0.319   3.152  10.306 -0.3373  0.6949 -0.9065
  628MOL0     H84758   0.260   3.317  10.143  0.4858 -0.8003  0.3724
  628MOL0     H84759   0.089   3.283  10.152  0.2244  2.7873  1.1692
  628MOL0     H84760   0.189   3.192   9.944  1.5003 -3.3208 -2.3061
  628MOL0     H84761   0.169   3.045  10.032  0.8642 -1.1473 -4.9964
  628MOL0     H84762   0.580   2.633  10.732 -0.6659  2.4902 -2.4801
  628MOL0     H84763   0.798   2.580  10.849  1.3232  0.5055  0.7476
  628MOL0     H84764   1.039   2.501  11.190 -1.0679 -0.6670 -0.2933
  628MOL0     H84765   1.252   2.394  11.232 -1.6087 -0.8950 -2.8751
  628MOL0     H84766   3.195   2.600  11.133  1.2806  1.4098 -0.3639
  628MOL0     H84767   3.280   2.414  11.265  0.0972  3.6793 -0.4271
  628MOL0     H84768   3.801   2.143  11.040  1.7815  0.1359  0.7727
  628MOL0     H84769   3.975   2.014  11.133  0.7343  2.3743  3.3678
  628MOL0     H84770   4.122   1.824  11.267  1.3504  1.4285  0.0691
  628MOL0     H84771   4.087   1.980  11.354 -0.0048  0.6237 -1.0243
  628MOL0     H84772   4.055   1.740  11.521 -0.0198  2.1305  3.8663
  628MOL0     H84773   4.059   1.912  11.550  2.0174  0.8902  0.9194
  628MOL0     H84774   4.258   1.944  11.493 -2.9960  0.5319 -0.1780
  628MOL0     H84775   4.306   1.776  11.441  1.5585 -0.2120  2.2227
  628MOL0     H84776   4.269   1.720  11.692 -0.3968  0.4087  1.1289
  628MOL0     H84777   4.256   1.899  11.720  0.3646 -0.2560  0.4890
  628MOL0     H84778   4.665   1.891  11.687 -1.2386  0.6820 -1.0228
  628MOL0     H84779   3.673   1.841  11.381 -0.7065  0.1685 -1.3048
  628MOL0     H84780   3.498   1.980  11.295 -0.1085 -0.9073 -0.8614
  629MOL0     O84781   4.657   9.590   5.343 -0.3106 -0.4798 -0.0908
  629MOL0     C84782   4.663   9.461   5.361  0.6489  0.0361  0.0197
  629MOL0     O84783   4.570   9.392   5.428 -0.1223  0.3779  0.4949
  629MOL0     C84784   4.463   9.465   5.468  0.7248  0.7972 -0.9284
  629MOL0     C84785   4.391   9.555   5.388  0.5296 -0.0508  0.8220
  629MOL0     C84786   4.278   9.624   5.434 -0.4309  0.6634 -1.1593
  629MOL0     C84787   4.215   9.583   5.554 -0.9921  0.5689  0.7768
  629MOL0     O84788   4.085   9.630   5.580  0.6819  0.1841 -0.7077
  629MOL0     C84789   4.043   9.645   5.723  0.1549  0.4984 -0.8027
  629MOL0     C84790   3.971   9.771   5.759 -0.8324 -0.6480  0.2498
  629MOL0     C84791   3.813   9.761   5.746  0.2383 -0.1550  1.1234
  629MOL0     C84792   3.753   9.792   5.609 -0.1345 -0.1100 -0.2750
  629MOL0     C84793   3.604   9.756   5.614  0.0720  0.4452  0.0894
  629MOL0     C84794   3.536   9.822   5.492  0.3599 -0.0816 -0.3966
  629MOL0     C84795   3.399   9.755   5.472 -0.5964 -0.2370  0.4400
  629MOL0     C84796   3.305   9.793   5.581 -0.2904  0.6129 -0.2054
  629MOL0     N84797   3.165   9.801   5.540  0.7201  0.9749 -0.2783
  629MOL0     C84798   3.093   9.686   5.532 -0.7956 -0.5594  0.6207
  629MOL0     C84799   2.964   9.724   5.518 -0.1753 -0.7202  0.0033
  629MOL0     C84800   2.846   9.625   5.499 -0.5146  0.5231  0.1984
  629MOL0     C84801   2.722   9.677   5.579 -0.8272 -0.5544  0.0989
  629MOL0     C84802   2.628   9.567   5.630 -0.0488  0.4214  0.5666
  629MOL0     C84803   2.566   9.500   5.507  0.4273 -0.6505 -0.4401
  629MOL0     O84804   2.497   9.384   5.554 -0.3643  0.5760 -0.2874
  629MOL0     C84805   2.374   9.404   5.611 -0.7557  0.1318 -0.5257
  629MOL0     C84806   2.271   9.485   5.554 -0.5930 -0.1983  0.7491
  629MOL0     C84807   2.147   9.503   5.618  0.8398 -0.0064 -1.1508
  629MOL0     C84808   2.035   9.563   5.544 -0.0401 -0.3381  0.6398
  629MOL0     C84809   2.124   9.422   5.733  0.2304 -0.3625 -0.3481
  629MOL0     C84810   1.999   9.421   5.810  0.8221  0.4159 -0.3407
  629MOL0     O84811   1.964   9.299   5.869  0.1815 -0.4855 -0.2249
  629MOL0     C84812   1.843   9.289   5.918 -0.7243 -0.1700 -0.8770
  629MOL0     C84813   1.807   9.302   6.058  0.1820 -0.2035  0.7912
  629MOL0     C84814   1.683   9.269   6.104  0.3023 -0.1445 -0.0070
  629MOL0     C84815   1.582   9.216   6.014 -0.0774  0.1513  0.5082
  629MOL0     O84816   1.456   9.181   6.053 -0.2886  0.0808 -0.0728
  629MOL0     C84817   1.448   9.118   6.178  0.5589  0.1559 -0.5067
  629MOL0     C84818   1.305   9.071   6.204 -0.5708 -0.0383 -0.0249
  629MOL0     C84819   1.212   9.188   6.183  0.9927 -0.3695  0.5863
  629MOL0     C84820   1.074   9.162   6.233 -0.5885  0.5019 -0.3637
  629MOL0     C84821   0.968   9.255   6.176  0.4733  0.4030  0.6350
  629MOL0     C84822   0.830   9.209   6.223  0.1592 -0.6810  0.0600
  629MOL0     C84823   0.732   9.287   6.134 -0.5166  1.0826  1.1159
  629MOL0     C84824   0.589   9.290   6.189 -0.5020 -0.0219 -0.2005
  629MOL0    Cl84825   0.519   9.115   6.197  0.2638  0.1012 -0.2999
  629MOL0     C84826   1.622   9.202   5.874 -0.2757 -1.0493 -0.3141
  629MOL0     C84827   1.745   9.253   5.829  0.2941 -0.5359  1.0300
  629MOL0     O84828   1.930   9.521   5.812 -0.6891  0.3815 -1.1275
  629MOL0     C84829   2.223   9.344   5.789  0.2466  0.2334 -0.4720
  629MOL0     C84830   2.346   9.344   5.731 -0.4323 -0.9892 -0.0260
  629MOL0     N84831   2.958   9.861   5.505  0.5534 -1.3879 -0.3835
  629MOL0     N84832   3.080   9.909   5.512  0.4765 -0.1075 -0.2758
  629MOL0     C84833   4.283   9.481   5.631 -1.1411 -0.3909  0.0152
  629MOL0     C84834   4.404   9.432   5.590 -0.1593 -0.3313 -0.1693
  629MOL0     C84835   4.790   9.387   5.335  0.5364 -1.1882 -0.6857
  629MOL0     C84836   4.909   9.457   5.300  0.0657  0.1512  0.7769
  629MOL0     C84837   5.029   9.394   5.279 -0.5501  0.1011  0.2170
  629MOL0     C84838   5.039   9.251   5.286 -1.0418 -0.6388  0.1299
  629MOL0     O84839   5.141   9.166   5.257  0.4414  0.2230  0.1513
  629MOL0     C84840   5.251   9.226   5.194 -0.6983  0.4219 -0.3888
  629MOL0     C84841   5.298   9.131   5.076  0.0423  0.5558  0.2420
  629MOL0     C84842   5.362   9.004   5.138 -0.0058 -0.3643 -0.4218
  629MOL0     C84843   5.368   8.885   5.036 -0.7261  0.2004 -0.4109
  629MOL0     C84844   5.237   8.857   4.988  0.6693  0.4871 -0.1676
  629MOL0     C84845   5.129   8.832   4.947 -0.3660 -0.4111 -0.2236
  629MOL0     C84846   4.917   9.189   5.321  0.5274  0.8236  0.1764
  629MOL0     C84847   4.795   9.250   5.351 -0.5096 -0.7761  0.2053
  629MOL0     H84848   4.424   9.585   5.289  1.6797 -4.7325 -0.4962
  629MOL0     H84849   4.225   9.695   5.372 -2.4992  0.2381  0.0239
  629MOL0     H84850   3.984   9.557   5.751  2.9358 -0.9770  0.8155
  629MOL0     H84851   4.124   9.632   5.795  0.4748  1.5003 -0.9722
  629MOL0     H84852   3.988   9.813   5.859 -4.2197  0.0488  0.6504
  629MOL0     H84853   4.021   9.840   5.690  3.3364 -2.7795  0.8268
  629MOL0     H84854   3.785   9.665   5.789 -0.2254  0.8608  3.2572
  629MOL0     H84855   3.771   9.845   5.803 -1.9809  0.7575 -1.6263
  629MOL0     H84856   3.775   9.897   5.588  0.2433 -0.1171  0.0719
  629MOL0     H84857   3.800   9.722   5.540 -1.2943 -0.6904 -0.5053
  629MOL0     H84858   3.598   9.647   5.610  0.9947  0.4228 -2.4983
  629MOL0     H84859   3.549   9.790   5.703 -0.9118 -1.4002  0.2320
  629MOL0     H84860   3.538   9.930   5.510  0.2393 -0.0914 -0.3182
  629MOL0     H84861   3.596   9.804   5.403  1.1712  2.3886 -0.4219
  629MOL0     H84862   3.375   9.791   5.371  0.0795  4.9873  1.8377
  629MOL0     H84863   3.411   9.648   5.453 -3.9068 -0.3052 -2.2209
  629MOL0     H84864   3.324   9.894   5.619 -3.1714  1.1803 -0.0268
  629MOL0     H84865   3.313   9.725   5.667  0.2279  0.3986 -0.4225
  629MOL0     H84866   3.127   9.585   5.551  0.2547 -0.3746 -0.1891
  629MOL0     H84867   2.809   9.621   5.396 -2.4805 -0.8454  0.8814
  629MOL0     H84868   2.860   9.520   5.528  0.7044  0.2098 -1.3606
  629MOL0     H84869   2.664   9.736   5.508  0.8725 -2.0432 -2.7014
  629MOL0     H84870   2.756   9.728   5.670  0.8148 -2.0684  0.4001
  629MOL0     H84871   2.551   9.614   5.692 -0.6872  0.0508  0.0605
  629MOL0     H84872   2.684   9.492   5.687  0.1127  1.9429  2.5052
  629MOL0     H84873   2.633   9.467   5.427 -0.7384  1.9998 -2.6513
  629MOL0     H84874   2.500   9.578   5.467 -0.9713 -1.5397  0.0666
  629MOL0     H84875   2.291   9.535   5.460  1.0507 -0.4259  0.9501
  629MOL0     H84876   1.948   9.500   5.523  0.1080 -0.0811 -0.7889
  629MOL0     H84877   2.008   9.654   5.598 -2.2751 -0.2782 -0.4555
  629MOL0     H84878   2.074   9.591   5.446 -2.7395 -0.3356 -0.5071
  629MOL0     H84879   1.874   9.351   6.128 -0.5734  2.6021 -0.2931
  629MOL0     H84880   1.661   9.294   6.207  2.5707  2.7139 -0.1075
  629MOL0     H84881   1.521   9.038   6.187  2.5926  1.7614 -1.8546
  629MOL0     H84882   1.461   9.193   6.256 -1.0656 -1.7414  1.7294
  629MOL0     H84883   1.284   8.989   6.135  1.2818 -0.8366  0.2764
  629MOL0     H84884   1.299   9.034   6.307 -0.6513 -0.2336 -0.1000
  629MOL0     H84885   1.195   9.213   6.077 -2.4145  2.9033  1.6989
  629MOL0     H84886   1.234   9.281   6.235  1.1925 -0.0116 -0.1162
  629MOL0     H84887   1.056   9.066   6.183 -3.8582  0.8801 -0.0774
  629MOL0     H84888   1.066   9.132   6.337 -2.9951 -0.6765 -0.8263
  629MOL0     H84889   0.972   9.253   6.067  0.3584  0.7730  0.6239
  629MOL0     H84890   0.992   9.358   6.204 -0.7062  1.6434 -2.5494
  629MOL0     H84891   0.819   9.100   6.218  1.4693 -0.8316  0.0750
  629MOL0     H84892   0.820   9.246   6.325  1.3312  0.2650 -0.1466
  629MOL0     H84893   0.731   9.234   6.038 -0.2840  3.3688 -0.2104
  629MOL0     H84894   0.760   9.391   6.114 -0.3224  1.1102  1.5265
  629MOL0     H84895   0.510   9.344   6.136  1.1175  0.9207 -1.7794
  629MOL0     H84896   0.591   9.336   6.288 -2.1099 -4.4409  2.1771
  629MOL0     H84897   1.558   9.164   5.795  3.1336 -2.2096 -2.7820
  629MOL0     H84898   1.759   9.256   5.721 -2.5843  2.7512  0.5912
  629MOL0     H84899   2.224   9.281   5.877 -2.2275 -0.2061 -0.7099
  629MOL0     H84900   2.420   9.272   5.764 -0.2533 -1.6917 -1.8217
  629MOL0     H84901   4.250   9.445   5.728  3.0645 -0.4755  1.6443
  629MOL0     H84902   4.459   9.367   5.658 -1.4925  0.9675  2.2908
  629MOL0     H84903   4.910   9.563   5.275 -2.3919  0.0054 -0.2122
  629MOL0     H84904   5.115   9.452   5.249  0.2270  0.0148  2.0912
  629MOL0     H84905   5.231   9.323   5.148 -0.8012  0.7284  0.2870
  629MOL0     H84906   5.330   9.232   5.270 -1.0295 -0.8476  0.0940
  629MOL0     H84907   5.370   9.189   5.018  1.3635  1.2624  2.4649
  629MOL0     H84908   5.213   9.100   5.015  1.4245  0.7863 -1.8978
  629MOL0     H84909   5.298   8.974   5.222 -1.0303 -0.4426 -1.2081
  629MOL0     H84910   5.469   9.019   5.155  0.4562 -3.7280  0.3072
  629MOL0     H84911   5.406   8.802   5.097  0.4186  0.4293 -0.7882
  629MOL0     H84912   5.433   8.920   4.956  3.5303 -0.6120  2.3747
  629MOL0     H84913   5.030   8.812   4.912  0.0058 -2.0185 -0.4608
  629MOL0     H84914   4.917   9.081   5.324  0.4499  0.7066 -2.0375
  629MOL0     H84915   4.706   9.191   5.366 -0.5293 -1.4962 -2.2717
  630MOL0     O84916  10.527   7.230   6.287 -0.3930 -0.2520  1.0379
  630MOL0     C84917  10.555   7.110   6.302  1.2550 -0.5700  0.4650
  630MOL0     O84918  10.461   7.008   6.300  0.1202  0.8143 -0.3555
  630MOL0     C84919  10.328   7.038   6.313  0.4344  1.5016  0.0638
  630MOL0     C84920  10.276   7.128   6.409  0.2432  0.4020 -0.1443
  630MOL0     C84921  10.141   7.164   6.411  0.3541  0.1021 -0.8793
  630MOL0     C84922  10.056   7.097   6.321  0.1326  0.4103 -0.1771
  630MOL0     O84923   9.919   7.113   6.308  0.3944 -0.5478 -0.0728
  630MOL0     C84924   9.857   7.177   6.423 -1.2232  0.3359  0.4263
  630MOL0     C84925   9.705   7.175   6.401  0.5530  0.1146 -1.1505
  630MOL0     C84926   9.624   7.254   6.497  0.4419  0.1183  0.5630
  630MOL0     C84927   9.477   7.205   6.475 -0.2925 -0.4195  0.4025
  630MOL0     C84928   9.373   7.292   6.553 -0.0286 -0.6308  0.6907
  630MOL0     C84929   9.242   7.220   6.544  0.1304  0.3279  0.6140
  630MOL0     C84930   9.130   7.282   6.634 -0.1166  0.6650 -0.8202
  630MOL0     C84931   9.059   7.402   6.579  0.7186  0.6515  0.2205
  630MOL0     N84932   8.944   7.433   6.668  0.8050  0.1417  0.4402
  630MOL0     C84933   8.916   7.535   6.754  0.4470 -0.1112 -0.0413
  630MOL0     C84934   8.795   7.511   6.804 -0.3313  0.4981  0.0913
  630MOL0     C84935   8.728   7.600   6.901  0.5882  0.2627 -0.0548
  630MOL0     C84936   8.760   7.565   7.048  0.7793  0.4406  0.5215
  630MOL0     C84937   8.724   7.420   7.086  0.1404 -0.6471  0.6260
  630MOL0     C84938   8.580   7.378   7.071 -0.5027 -0.3390 -0.5727
  630MOL0     O84939   8.495   7.451   7.153  0.0719 -0.5616  0.6312
  630MOL0     C84940   8.361   7.449   7.139 -0.9044 -0.5420 -0.4456
  630MOL0     C84941   8.276   7.500   7.241 -0.2362  0.9180 -0.2278
  630MOL0     C84942   8.129   7.503   7.230 -0.4979  0.4572 -0.2766
  630MOL0     C84943   8.049   7.560   7.346 -0.3410 -0.0946  0.1920
  630MOL0     C84944   8.065   7.464   7.106 -0.2250  0.0732 -1.2474
  630MOL0     C84945   7.922   7.453   7.080  0.8322 -0.4115 -0.3935
  630MOL0     O84946   7.880   7.389   6.967 -0.1405  0.0438 -0.1250
  630MOL0     C84947   7.748   7.354   6.964  0.2500 -0.0753  0.4332
  630MOL0     C84948   7.697   7.245   7.036 -0.1429 -1.1504  0.1602
  630MOL0     C84949   7.558   7.209   7.028  0.6759  0.3320 -0.7060
  630MOL0     C84950   7.480   7.274   6.932 -0.0390 -0.8944  1.2455
  630MOL0     O84951   7.351   7.233   6.919 -0.0069  0.0118  0.1400
  630MOL0     C84952   7.259   7.287   6.817  0.3010 -0.2993 -0.3281
  630MOL0     C84953   7.122   7.236   6.840 -0.3337  0.1166 -0.0961
  630MOL0     C84954   7.066   7.244   6.984 -0.2670  0.2843 -0.0258
  630MOL0     C84955   6.919   7.291   6.981  0.7111  0.6718  0.3119
  630MOL0     C84956   6.852   7.287   7.124 -0.0143  0.2086 -0.3392
  630MOL0     C84957   6.703   7.337   7.124  0.2768 -0.7768 -0.4584
  630MOL0     C84958   6.640   7.391   7.252 -0.2301  0.5952 -0.0672
  630MOL0     C84959   6.566   7.283   7.333 -0.5920  0.6999  0.2740
  630MOL0    Cl84960   6.399   7.268   7.298  0.1840 -0.2517  0.2160
  630MOL0     C84961   7.537   7.379   6.855 -0.0546 -0.3494 -0.6925
  630MOL0     C84962   7.668   7.423   6.875 -0.2631  0.2877  0.1721
  630MOL0     O84963   7.847   7.502   7.166 -0.3843  0.1192  0.6973
  630MOL0     C84964   8.152   7.413   7.005  0.6582 -1.3663  0.2584
  630MOL0     C84965   8.293   7.414   7.024 -0.5260  0.1966  0.0319
  630MOL0     N84966   8.749   7.395   6.759 -0.3382 -0.6858 -0.5125
  630MOL0     N84967   8.846   7.340   6.689  0.8708 -0.2446 -0.0751
  630MOL0     C84968  10.107   6.993   6.233 -0.1917  0.4537  0.2743
  630MOL0     C84969  10.245   6.963   6.228 -0.3408  0.2268  0.3432
  630MOL0     C84970  10.691   7.058   6.321  0.0257 -0.2863 -0.2133
  630MOL0     C84971  10.788   7.155   6.358  0.2848  0.2294 -0.3482
  630MOL0     C84972  10.915   7.109   6.380 -0.6465 -0.1324 -0.0333
  630MOL0     C84973  10.950   6.974   6.366  0.9922  0.1492 -0.2141
  630MOL0     O84974  11.070   6.926   6.399  0.1491 -0.1914 -0.2734
  630MOL0     C84975  11.191   7.001   6.379  0.9809  0.0104  0.2899
  630MOL0     C84976  11.306   6.899   6.384 -0.7169 -0.1324  0.7112
  630MOL0     C84977  11.318   6.821   6.510 -0.1567 -1.1313  0.2262
  630MOL0     C84978  11.375   6.913   6.621  0.0959  0.1602  0.2182
  630MOL0     C84979  11.518   6.943   6.615  0.6822 -0.9474 -0.4826
  630MOL0     C84980  11.637   6.957   6.612 -0.5745  0.0748 -0.3334
  630MOL0     C84981  10.852   6.885   6.325 -0.1428 -0.2464 -0.1234
  630MOL0     C84982  10.726   6.926   6.307  0.2001  0.0983  1.3886
  630MOL0     H84983  10.348   7.182   6.470  0.0571 -0.0725  0.5019
  630MOL0     H84984  10.101   7.246   6.471 -1.5000 -2.6905  1.9941
  630MOL0     H84985   9.887   7.140   6.521 -1.8844  2.5431  1.5215
  630MOL0     H84986   9.883   7.283   6.417  0.6450 -0.1672 -1.0416
  630MOL0     H84987   9.684   7.205   6.298  0.1813  0.2488 -1.0344
  630MOL0     H84988   9.674   7.071   6.417  0.7538  0.4849  2.5246
  630MOL0     H84989   9.645   7.238   6.603 -1.1985  0.5150  0.9712
  630MOL0     H84990   9.630   7.357   6.458 -0.3327 -2.0788 -7.0928
  630MOL0     H84991   9.455   7.204   6.367  0.7033 -0.2798  0.1915
  630MOL0     H84992   9.482   7.105   6.519  3.9771 -0.1122  1.0725
  630MOL0     H84993   9.402   7.293   6.659 -4.0878 -1.3104  1.9806
  630MOL0     H84994   9.380   7.392   6.508  3.8134 -1.0810 -0.0424
  630MOL0     H84995   9.205   7.212   6.441  4.7166  0.1136 -1.2482
  630MOL0     H84996   9.257   7.117   6.577 -2.2566  0.0435  1.0023
  630MOL0     H84997   9.058   7.204   6.658 -0.7011  1.3264 -0.3969
  630MOL0     H84998   9.168   7.311   6.733 -0.5764 -5.6708  1.6989
  630MOL0     H84999   9.014   7.374   6.483  2.0045  0.5035 -0.3654
  630MOL0     H85000   9.125   7.485   6.553  0.7825  0.6122  0.2598
  630MOL0     H85001   8.979   7.620   6.778  0.8888 -0.4654  0.0495
  630MOL0     H85002   8.749   7.705   6.880  0.3548  1.3512  4.1710
  630MOL0     H85003   8.621   7.602   6.883  0.8577  1.0347 -1.7546
  630MOL0     H85004   8.693   7.619   7.115 -0.0457 -1.9890  1.7523
  630MOL0     H85005   8.861   7.594   7.080  1.2134  0.4328 -0.7736
  630MOL0     H85006   8.747   7.403   7.192  1.0264  1.3575  0.8150
  630MOL0     H85007   8.784   7.360   7.018 -1.0962  1.0678 -2.1623
  630MOL0     H85008   8.575   7.273   7.101 -0.3075  0.5187  2.9461
  630MOL0     H85009   8.552   7.387   6.966 -0.6249 -0.2578 -0.5333
  630MOL0     H85010   8.320   7.538   7.333 -0.8826  3.2409 -0.7987
  630MOL0     H85011   8.122   7.618   7.404 -1.4206 -0.4512  1.9607
  630MOL0     H85012   7.973   7.630   7.310 -0.4262  1.0926  2.5128
  630MOL0     H85013   7.997   7.485   7.406  1.7199 -1.1483  0.7614
  630MOL0     H85014   7.772   7.223   7.110  1.7727  1.1967 -0.9332
  630MOL0     H85015   7.511   7.138   7.096 -3.5723  0.3719 -3.1951
  630MOL0     H85016   7.251   7.396   6.818  0.8104 -0.2585 -0.2979
  630MOL0     H85017   7.292   7.264   6.715  1.6016  2.1408 -0.5245
  630MOL0     H85018   7.060   7.294   6.771 -2.3771 -2.7950 -0.9227
  630MOL0     H85019   7.116   7.132   6.806 -2.0193  0.3797 -0.6801
  630MOL0     H85020   7.133   7.317   7.032  2.2065 -1.1935 -1.0019
  630MOL0     H85021   7.077   7.141   7.019 -2.1429  0.5099  1.3665
  630MOL0     H85022   6.917   7.393   6.941 -1.7375  0.3801 -0.4761
  630MOL0     H85023   6.861   7.226   6.915  0.1938 -0.9994  2.2943
  630MOL0     H85024   6.914   7.351   7.186 -1.1255  0.8663  0.1191
  630MOL0     H85025   6.850   7.191   7.177 -1.8310  1.1727  1.4754
  630MOL0     H85026   6.700   7.419   7.051 -2.2980 -1.8666 -1.7118
  630MOL0     H85027   6.631   7.267   7.079 -2.2302  1.8209 -0.7952
  630MOL0     H85028   6.577   7.479   7.236 -1.3091  0.0477  0.9631
  630MOL0     H85029   6.729   7.419   7.308 -0.1808 -0.2184  0.2774
  630MOL0     H85030   6.562   7.320   7.436  0.9900 -0.7731  0.9283
  630MOL0     H85031   6.617   7.186   7.325 -2.0409 -0.0503 -0.2186
  630MOL0     H85032   7.479   7.433   6.781 -1.0891  2.5558  2.0175
  630MOL0     H85033   7.706   7.511   6.824  0.6104 -1.0160 -1.5550
  630MOL0     H85034   8.107   7.369   6.916  1.0739 -0.5323 -0.3751
  630MOL0     H85035   8.342   7.387   6.931  0.7067  1.8835  0.1465
  630MOL0     H85036  10.043   6.942   6.162  0.7205  1.2629 -1.1815
  630MOL0     H85037  10.291   6.883   6.171  2.1795  2.8894 -1.7154
  630MOL0     H85038  10.761   7.260   6.361  0.1675  0.2670 -2.0852
  630MOL0     H85039  10.998   7.175   6.405  0.7575 -0.9153 -2.2723
  630MOL0     H85040  11.178   7.054   6.284 -0.4860  1.0915  1.0669
  630MOL0     H85041  11.191   7.072   6.461 -0.9655 -0.8831  1.1154
  630MOL0     H85042  11.401   6.947   6.360 -1.0503  0.4202  0.4733
  630MOL0     H85043  11.278   6.825   6.308  0.8993 -0.0164 -0.0330
  630MOL0     H85044  11.375   6.728   6.502  2.7550  0.4507  1.1527
  630MOL0     H85045  11.216   6.800   6.542 -1.1582 -0.1136 -2.1060
  630MOL0     H85046  11.354   6.858   6.714  0.1784  2.0361  1.3887
  630MOL0     H85047  11.318   7.006   6.618 -0.4595 -0.1948 -0.6147
  630MOL0     H85048  11.742   6.972   6.629 -0.3547 -1.2781 -0.4398
  630MOL0     H85049  10.892   6.788   6.297  0.2944  0.6170 -2.8185
  630MOL0     H85050  10.652   6.851   6.280 -0.6951  1.1854  0.7288
  631MOL0     O85051   6.483   5.971   0.170  0.0447 -0.5355  0.4350
  631MOL0     C85052   6.513   5.925   0.281 -0.8529 -0.2736  0.0052
  631MOL0     O85053   6.483   5.977   0.402  0.0949 -0.2643  0.3472
  631MOL0     C85054   6.377   6.072   0.399 -0.3320 -0.4022 -0.0593
  631MOL0     C85055   6.254   6.030   0.454 -0.2640  0.6015 -0.4278
  631MOL0     C85056   6.147   6.117   0.485 -0.2558 -0.8838  0.1748
  631MOL0     C85057   6.156   6.256   0.464 -0.1539  0.4581  0.4794
  631MOL0     O85058   6.061   6.349   0.505 -0.8277 -0.0896  0.1079
  631MOL0     C85059   5.981   6.312   0.623  1.0146 -0.8086  0.0267
  631MOL0     C85060   5.853   6.257   0.582  0.3634  0.3799 -1.0461
  631MOL0     C85061   5.744   6.272   0.693  0.0702 -0.8443  1.0372
  631MOL0     C85062   5.715   6.145   0.765  0.1646  0.0409 -0.3712
  631MOL0     C85063   5.605   6.163   0.884 -0.3858  0.5726  0.0396
  631MOL0     C85064   5.597   6.037   0.970  0.0954 -0.3010  0.4617
  631MOL0     C85065   5.474   6.039   1.061 -0.2208 -0.2125 -0.5822
  631MOL0     C85066   5.332   6.028   0.991  0.1089  0.0491  0.2952
  631MOL0     N85067   5.228   6.016   1.094 -0.6995  0.2703 -0.3999
  631MOL0     C85068   5.148   6.117   1.142 -0.7144 -0.3400 -0.0469
  631MOL0     C85069   5.070   6.048   1.228  1.0651 -0.0638 -0.8173
  631MOL0     C85070   4.951   6.101   1.295 -0.5493  0.5212  0.0201
  631MOL0     C85071   4.836   6.121   1.197 -0.2639 -0.2107  0.2488
  631MOL0     C85072   4.728   6.167   1.284  1.1475  0.1688  0.3804
  631MOL0     C85073   4.591   6.167   1.211 -0.0615  0.1730  0.4741
  631MOL0     O85074   4.485   6.214   1.296 -0.3483 -0.2553 -0.8970
  631MOL0     C85075   4.363   6.182   1.260  0.4488 -0.8114 -0.5443
  631MOL0     C85076   4.265   6.227   1.343 -0.3980 -0.4264  0.5455
  631MOL0     C85077   4.129   6.211   1.320  0.4970 -0.0544 -0.3258
  631MOL0     C85078   4.031   6.274   1.428  0.1963  0.4733  0.4397
  631MOL0     C85079   4.095   6.156   1.194  0.1518 -0.2871  1.0117
  631MOL0     C85080   3.954   6.144   1.152  0.5105  0.2583  0.8942
  631MOL0     O85081   3.858   6.222   1.214  0.6081  0.4668 -0.3328
  631MOL0     C85082   3.735   6.244   1.167 -0.2699 -0.1983 -0.3852
  631MOL0     C85083   3.658   6.172   1.076 -0.0299  0.0023 -0.1218
  631MOL0     C85084   3.530   6.199   1.034  0.9765  0.2356  0.0039
  631MOL0     C85085   3.469   6.309   1.093  0.3155 -0.3859 -0.1611
  631MOL0     O85086   3.343   6.335   1.044 -0.6482 -0.0397 -0.1254
  631MOL0     C85087   3.294   6.465   1.057  0.4626 -0.3301 -0.1426
  631MOL0     C85088   3.198   6.490   0.946  0.0965 -0.3395 -0.1216
  631MOL0     C85089   3.141   6.640   0.951 -0.3360 -0.0735 -0.3913
  631MOL0     C85090   3.062   6.672   1.083 -0.4013  0.3626  0.1909
  631MOL0     C85091   2.914   6.628   1.068 -0.1133  0.3083  0.0505
  631MOL0     C85092   2.820   6.720   0.985 -0.5929  0.6996  0.7385
  631MOL0     C85093   2.694   6.638   0.917 -0.2949 -0.8549  0.0092
  631MOL0     C85094   2.580   6.719   0.879 -1.0835 -0.1266  0.8373
  631MOL0    Cl85095   2.425   6.624   0.817 -0.5161  0.3865 -0.1433
  631MOL0     C85096   3.540   6.384   1.193  0.8491 -0.1066  0.3521
  631MOL0     C85097   3.668   6.348   1.234  0.6849 -0.0486 -0.8307
  631MOL0     O85098   3.928   6.056   1.064  0.1353 -0.3842  0.2895
  631MOL0     C85099   4.194   6.102   1.106 -0.2187 -0.3823 -0.5266
  631MOL0     C85100   4.326   6.126   1.135  0.5334  1.0253  0.3692
  631MOL0     N85101   5.107   5.918   1.242  0.1121  1.8027  0.7450
  631MOL0     N85102   5.198   5.895   1.152  0.5812  0.9478 -0.5072
  631MOL0     C85103   6.288   6.304   0.424 -0.1049 -0.2950 -0.1297
  631MOL0     C85104   6.390   6.213   0.390  0.7088  0.2669  0.3529
  631MOL0     C85105   6.616   5.815   0.279 -0.4591  0.3470 -0.3349
  631MOL0     C85106   6.668   5.791   0.152 -1.4177 -0.2493  0.0290
  631MOL0     C85107   6.768   5.691   0.136 -1.0532 -0.3842  0.9902
  631MOL0     C85108   6.825   5.623   0.238 -0.6416 -0.1220 -0.3383
  631MOL0     O85109   6.937   5.546   0.214 -0.3935 -0.0705 -0.0080
  631MOL0     C85110   7.022   5.507   0.312 -0.8299  0.3771 -0.1762
  631MOL0     C85111   7.154   5.463   0.243 -0.3906  0.3438  0.7869
  631MOL0     C85112   7.263   5.403   0.332 -0.0879 -0.7237  0.0716
  631MOL0     C85113   7.365   5.321   0.259 -0.8999 -0.2177  0.6811
  631MOL0     C85114   7.458   5.247   0.350 -0.6845 -0.1715 -0.6809
  631MOL0     C85115   7.535   5.183   0.418 -0.2824 -1.5352  0.3192
  631MOL0     C85116   6.763   5.639   0.370 -0.3863  0.0123 -0.6620
  631MOL0     C85117   6.669   5.745   0.393  0.0384  0.0120 -0.0444
  631MOL0     H85118   6.253   5.922   0.464 -2.5504  0.4502 -1.5765
  631MOL0     H85119   6.054   6.083   0.528 -1.7425  0.8035 -1.5024
  631MOL0     H85120   6.028   6.233   0.683 -0.9435 -1.8905  0.2141
  631MOL0     H85121   5.958   6.402   0.681 -0.7588 -1.7679  0.9067
  631MOL0     H85122   5.809   6.306   0.495  0.7640  0.5577 -1.1522
  631MOL0     H85123   5.868   6.155   0.546  1.1935  0.7546 -1.8025
  631MOL0     H85124   5.780   6.343   0.769  1.8329 -0.3865 -0.1615
  631MOL0     H85125   5.649   6.309   0.655 -0.4385 -3.2712 -0.2406
  631MOL0     H85126   5.671   6.074   0.694  0.1633  2.7759 -3.3269
  631MOL0     H85127   5.798   6.107   0.825 -2.6946 -0.1322  3.8915
  631MOL0     H85128   5.622   6.248   0.950 -1.6989 -0.1111  1.3222
  631MOL0     H85129   5.509   6.185   0.837  0.3818 -0.0270 -1.9260
  631MOL0     H85130   5.589   5.956   0.896  2.2708 -0.4458  0.3170
  631MOL0     H85131   5.692   6.030   1.023  0.0339 -2.8886  0.3681
  631MOL0     H85132   5.488   5.961   1.136 -1.6033 -0.7838 -0.8819
  631MOL0     H85133   5.471   6.140   1.104  0.1457  0.0147 -1.0768
  631MOL0     H85134   5.328   5.933   0.936  0.7444 -0.4637  1.1027
  631MOL0     H85135   5.306   6.118   0.935 -0.3474 -0.7774 -0.8496
  631MOL0     H85136   5.138   6.222   1.115  0.2631 -0.1886  0.1350
  631MOL0     H85137   4.936   6.027   1.373  1.2650 -1.0514 -1.0550
  631MOL0     H85138   4.985   6.194   1.341 -0.4341 -0.0614  1.1273
  631MOL0     H85139   4.827   6.023   1.148  0.6265 -0.5551  0.7615
  631MOL0     H85140   4.853   6.192   1.115  3.9816 -0.2691  0.8627
  631MOL0     H85141   4.759   6.263   1.327  2.0951  1.7727 -3.4685
  631MOL0     H85142   4.707   6.102   1.369 -1.3628  0.4152  0.0402
  631MOL0     H85143   4.586   6.062   1.181  0.3888 -0.1737  1.5493
  631MOL0     H85144   4.585   6.216   1.113 -0.8783 -1.0607 -0.1145
  631MOL0     H85145   4.308   6.277   1.428 -2.0800  0.1053  1.1350
  631MOL0     H85146   3.938   6.219   1.446  0.3764  0.4110  1.2507
  631MOL0     H85147   4.084   6.279   1.524 -1.1481  0.1168  1.2262
  631MOL0     H85148   4.018   6.379   1.401  1.0826  1.4122  3.3082
  631MOL0     H85149   3.696   6.083   1.026 -0.1100 -0.5888  0.8340
  631MOL0     H85150   3.470   6.140   0.965 -2.9797  2.1700  1.4485
  631MOL0     H85151   3.237   6.450   1.148  3.9096 -2.7376  1.8597
  631MOL0     H85152   3.371   6.543   1.063  0.0178 -0.0161  2.4480
  631MOL0     H85153   3.263   6.479   0.858  1.6707  0.5391  0.8813
  631MOL0     H85154   3.111   6.423   0.945 -0.7759  0.7537 -0.1234
  631MOL0     H85155   3.078   6.649   0.862  0.4497  0.2912 -0.9171
  631MOL0     H85156   3.227   6.706   0.937  0.5200 -1.2880 -1.0744
  631MOL0     H85157   3.102   6.619   1.169 -1.8265 -3.2236 -1.1844
  631MOL0     H85158   3.071   6.781   1.087  0.2849  0.3534 -0.9253
  631MOL0     H85159   2.872   6.619   1.169 -0.0373 -0.6323  0.0058
  631MOL0     H85160   2.911   6.524   1.036 -2.2416 -0.0756  1.2308
  631MOL0     H85161   2.789   6.798   1.054 -1.9745 -2.2746  3.7450
  631MOL0     H85162   2.877   6.751   0.896 -1.3724 -0.7976 -0.3384
  631MOL0     H85163   2.669   6.564   0.994  0.7634 -3.3976 -1.9483
  631MOL0     H85164   2.723   6.578   0.831 -2.8269 -0.0790 -1.4763
  631MOL0     H85165   2.602   6.791   0.800  0.4658  0.8006  2.0398
  631MOL0     H85166   2.559   6.785   0.964  4.3365  1.8201  1.0711
  631MOL0     H85167   3.499   6.477   1.233 -2.4955 -1.1338 -0.3205
  631MOL0     H85168   3.716   6.394   1.321 -0.0824 -4.4034  2.2091
  631MOL0     H85169   4.168   6.048   1.015 -1.5556 -1.4398  0.4412
  631MOL0     H85170   4.401   6.080   1.071 -1.1209 -3.4473  1.2697
  631MOL0     H85171   6.301   6.411   0.420 -0.2478 -0.2313  0.8408
  631MOL0     H85172   6.488   6.251   0.361  1.6034 -1.6749  0.6821
  631MOL0     H85173   6.633   5.833   0.058 -3.0435  0.1911  0.7974
  631MOL0     H85174   6.815   5.681   0.039 -1.5310 -3.1776  0.9741
  631MOL0     H85175   7.045   5.591   0.379  5.7206 -1.1589  0.1620
  631MOL0     H85176   6.974   5.425   0.367 -0.4745 -0.6726 -1.4006
  631MOL0     H85177   7.184   5.553   0.189  2.1411  0.1150  1.6558
  631MOL0     H85178   7.128   5.388   0.167 -1.0526  0.6078  0.7467
  631MOL0     H85179   7.216   5.339   0.407  2.3947  0.0070  2.4057
  631MOL0     H85180   7.315   5.485   0.383 -0.4146 -0.0021 -0.7112
  631MOL0     H85181   7.426   5.386   0.196  0.1919 -2.2725 -0.4941
  631MOL0     H85182   7.311   5.261   0.186 -1.1145  2.1278 -1.2350
  631MOL0     H85183   7.604   5.121   0.471  2.4103 -1.5171 -2.8669
  631MOL0     H85184   6.780   5.575   0.456 -2.8956  0.0916 -0.0292
  631MOL0     H85185   6.629   5.768   0.491 -1.0834  2.5843 -1.0179
  632MOL0     O85186   1.857   0.305   2.732 -0.7530 -0.0478 -0.1002
  632MOL0     C85187   1.859   0.214   2.810 -0.6969 -0.5902 -0.4363
  632MOL0     O85188   1.746   0.141   2.848 -0.7379 -1.2198 -0.2092
  632MOL0     C85189   1.618   0.147   2.795  0.4059  0.1701  0.2348
  632MOL0     C85190   1.549   0.024   2.810  0.7538  0.5924 -0.8680
  632MOL0     C85191   1.420   0.015   2.758  0.1772  0.6527  0.8481
  632MOL0     C85192   1.352   0.127   2.705  0.0162  0.5256 -0.4741
  632MOL0     O85193   1.225   0.121   2.657  0.7828  0.1490  0.0996
  632MOL0     C85194   1.146  -0.008   2.678 -0.4172 -0.3574  0.0543
  632MOL0     C85195   1.096  -0.010   2.824 -0.1808  1.0495 -0.2578
  632MOL0     C85196   0.958  -0.086   2.844  0.4689 -0.3106 -0.7213
  632MOL0     C85197   0.862  -0.084   2.728  0.1821 -0.5861  0.5040
  632MOL0     C85198   0.722  -0.150   2.784 -0.5917  0.4605  0.0169
  632MOL0     C85199   0.621  -0.132   2.672  0.6768  0.6337  0.0288
  632MOL0     C85200   0.514  -0.245   2.685 -1.0106  0.0549  0.1437
  632MOL0     C85201   0.422  -0.246   2.557  0.4578 -0.2962 -0.5437
  632MOL0     N85202   0.316  -0.348   2.557 -0.0373  0.0709  0.8888
  632MOL0     C85203   0.188  -0.332   2.600  0.7706  0.2400 -0.5513
  632MOL0     C85204   0.126  -0.445   2.562  0.4001  0.2575 -1.6740
  632MOL0     C85205  -0.010  -0.493   2.612 -0.8914  0.2690 -0.0361
  632MOL0     C85206   0.006  -0.623   2.697  0.4143 -0.6871  0.5386
  632MOL0     C85207  -0.120  -0.697   2.700 -0.2995  0.3042 -0.6274
  632MOL0     C85208  -0.111  -0.831   2.780  0.4324 -0.0769  0.5855
  632MOL0     O85209  -0.161  -0.817   2.912 -0.5024 -0.3062 -0.4638
  632MOL0     C85210  -0.223  -0.928   2.963  0.0890  1.0043 -1.0936
  632MOL0     C85211  -0.174  -1.061   2.944 -0.5789  0.0417  0.0998
  632MOL0     C85212  -0.244  -1.170   3.003 -0.2577 -0.4713  0.1214
  632MOL0     C85213  -0.199  -1.310   2.966 -0.3363 -0.1549  0.0855
  632MOL0     C85214  -0.356  -1.144   3.081  0.3663 -0.2061 -0.2836
  632MOL0     C85215  -0.442  -1.252   3.137 -0.3144 -0.5535 -0.0679
  632MOL0     O85216  -0.390  -1.365   3.180  0.2616 -0.2533  0.3983
  632MOL0     C85217  -0.469  -1.472   3.205  0.0661 -0.3767 -0.5113
  632MOL0     C85218  -0.489  -1.498   3.337  0.3019  0.2065 -0.4683
  632MOL0     C85219  -0.569  -1.607   3.372  0.5598  0.5095  0.6083
  632MOL0     C85220  -0.617  -1.688   3.267 -0.9371  0.1756 -0.3436
  632MOL0     O85221  -0.692  -1.792   3.311  0.1634  0.5495 -0.7389
  632MOL0     C85222  -0.741  -1.900   3.227 -0.1353  0.9601  0.1268
  632MOL0     C85223  -0.896  -1.880   3.196 -0.3849  0.6604  0.4185
  632MOL0     C85224  -0.940  -1.739   3.156  0.2092  0.6697 -0.4076
  632MOL0     C85225  -1.091  -1.750   3.122 -0.1438 -0.2831 -1.1235
  632MOL0     C85226  -1.149  -1.614   3.079  0.6701  0.5750 -0.3724
  632MOL0     C85227  -1.304  -1.631   3.071  0.6193 -0.9743 -1.0714
  632MOL0     C85228  -1.365  -1.499   3.065  0.1170 -0.2873 -0.1951
  632MOL0     C85229  -1.516  -1.512   3.078  0.2951  0.8213 -0.0105
  632MOL0    Cl85230  -1.559  -1.515   3.253  0.0241 -0.7118  0.0837
  632MOL0     C85231  -0.605  -1.647   3.130  0.9659  0.0413 -0.0505
  632MOL0     C85232  -0.526  -1.544   3.108  0.6585 -0.3467 -0.2120
  632MOL0     O85233  -0.560  -1.226   3.145 -0.0176  0.6879 -0.5821
  632MOL0     C85234  -0.392  -1.016   3.118  0.1466 -0.4679 -0.1956
  632MOL0     C85235  -0.330  -0.914   3.049  0.5484  0.4846 -0.3367
  632MOL0     N85236   0.219  -0.513   2.490  0.4548  0.1063  0.9301
  632MOL0     N85237   0.333  -0.465   2.488 -0.9535 -0.7377 -0.2795
  632MOL0     C85238   1.424   0.243   2.701  0.7352 -0.8979 -0.0801
  632MOL0     C85239   1.560   0.258   2.734  0.0614  0.1899  0.0380
  632MOL0     C85240   1.980   0.173   2.878 -0.1437 -0.3722 -0.2089
  632MOL0     C85241   2.105   0.233   2.858  0.1678  0.0804  0.0848
  632MOL0     C85242   2.219   0.187   2.928 -0.3178  0.4025 -0.1390
  632MOL0     C85243   2.219   0.095   3.035  0.3287  0.4901 -0.7338
  632MOL0     O85244   2.324   0.058   3.113  0.5201  0.0446 -0.0253
  632MOL0     C85245   2.448   0.121   3.081  0.2306 -0.0148 -0.5331
  632MOL0     C85246   2.527   0.041   2.978  0.0696  0.4053  0.4977
  632MOL0     C85247   2.555  -0.098   3.025 -0.4165  1.1892 -0.2066
  632MOL0     C85248   2.448  -0.204   2.980  0.8557 -0.7842 -1.1219
  632MOL0     C85249   2.477  -0.314   3.072 -0.4312 -0.2586 -0.5656
  632MOL0     C85250   2.498  -0.407   3.149 -0.0597  0.6409 -0.3851
  632MOL0     C85251   2.084   0.047   3.064  0.7106  0.8494 -0.5177
  632MOL0     C85252   1.978   0.086   2.989  1.2872  0.2067 -0.3832
  632MOL0     H85253   1.588  -0.066   2.855  0.9474  1.8330  1.6392
  632MOL0     H85254   1.369  -0.081   2.758  2.7196 -0.8208 -0.8887
  632MOL0     H85255   1.062   0.006   2.608  1.1488 -3.2628 -2.6938
  632MOL0     H85256   1.194  -0.096   2.634  1.5817  0.7468 -0.0922
  632MOL0     H85257   1.171  -0.062   2.885 -2.6511 -2.5861  0.0350
  632MOL0     H85258   1.072   0.092   2.856 -2.0768  0.6320 -0.2534
  632MOL0     H85259   0.981  -0.191   2.866  2.1307 -0.0478 -1.0419
  632MOL0     H85260   0.914  -0.046   2.935  1.4554 -0.5311 -0.1273
  632MOL0     H85261   0.841   0.010   2.676 -0.1370 -1.0021 -0.1377
  632MOL0     H85262   0.905  -0.139   2.643 -1.9995  1.9425 -2.4662
  632MOL0     H85263   0.733  -0.256   2.810  0.8217  0.7352  0.6013
  632MOL0     H85264   0.678  -0.103   2.873 -2.2349  1.2218 -1.1521
  632MOL0     H85265   0.574  -0.034   2.686 -2.7964 -1.0826  1.8534
  632MOL0     H85266   0.671  -0.130   2.575  0.1501  1.2980 -0.2399
  632MOL0     H85267   0.570  -0.339   2.687  0.5522  0.7938 -2.7477
  632MOL0     H85268   0.449  -0.230   2.772 -2.9119 -1.6106 -0.9131
  632MOL0     H85269   0.493  -0.245   2.473  3.0579  2.8144  1.4148
  632MOL0     H85270   0.370  -0.152   2.536  0.2683 -0.8281 -2.7625
  632MOL0     H85271   0.146  -0.253   2.662 -1.5487 -1.8994  0.8182
  632MOL0     H85272  -0.043  -0.407   2.671  0.1709  0.2855  0.5634
  632MOL0     H85273  -0.078  -0.512   2.528 -0.6646 -3.1099  0.3891
  632MOL0     H85274   0.044  -0.594   2.795  0.6038  0.0294  0.2608
  632MOL0     H85275   0.084  -0.675   2.641  2.3571 -0.1914  2.6317
  632MOL0     H85276  -0.148  -0.720   2.597 -2.7583  3.5865 -0.8423
  632MOL0     H85277  -0.196  -0.630   2.743  0.3696  1.0326 -0.5518
  632MOL0     H85278  -0.003  -0.847   2.779  0.6952  1.5208 -0.8153
  632MOL0     H85279  -0.164  -0.909   2.725  2.7775  0.5249 -2.8992
  632MOL0     H85280  -0.086  -1.065   2.882  1.3473 -0.7753  2.6805
  632MOL0     H85281  -0.137  -1.360   3.041 -0.9955 -0.9889  0.0942
  632MOL0     H85282  -0.274  -1.383   2.935  1.2462 -1.6984 -0.2525
  632MOL0     H85283  -0.126  -1.298   2.886 -0.8880  1.1787 -0.2461
  632MOL0     H85284  -0.446  -1.433   3.413  2.3349 -1.7322  0.1468
  632MOL0     H85285  -0.579  -1.647   3.473  1.0831 -1.0451  0.0791
  632MOL0     H85286  -0.682  -1.903   3.135  1.7373  1.0106  1.2736
  632MOL0     H85287  -0.712  -2.000   3.262  2.4656  2.3832  2.5214
  632MOL0     H85288  -0.911  -1.959   3.122 -1.1999 -0.1787  1.4514
  632MOL0     H85289  -0.957  -1.906   3.283  1.5936  1.6796  2.2227
  632MOL0     H85290  -0.884  -1.699   3.071  0.9491 -0.6042 -0.5417
  632MOL0     H85291  -0.923  -1.673   3.242 -0.3579 -0.6565  0.7626
  632MOL0     H85292  -1.115  -1.826   3.048 -1.0494 -0.2279 -0.8908
  632MOL0     H85293  -1.139  -1.783   3.215  0.0211 -1.7843 -1.5498
  632MOL0     H85294  -1.110  -1.579   2.983 -0.9352  0.6610 -1.0197
  632MOL0     H85295  -1.122  -1.543   3.158  0.7594 -0.0971  0.2113
  632MOL0     H85296  -1.329  -1.694   2.985 -0.4417 -1.3413 -0.4957
  632MOL0     H85297  -1.342  -1.674   3.164  1.3569  0.1370 -0.2279
  632MOL0     H85298  -1.327  -1.447   2.977 -0.4852  1.9490  0.8031
  632MOL0     H85299  -1.325  -1.429   3.139 -1.6782 -0.8529  1.3948
  632MOL0     H85300  -1.549  -1.605   3.030 -0.1900  1.5622 -1.1586
  632MOL0     H85301  -1.559  -1.422   3.033  1.1993  1.5919  0.6167
  632MOL0     H85302  -0.663  -1.690   3.049 -0.3271  1.1131  0.2530
  632MOL0     H85303  -0.506  -1.510   3.007  1.1208  0.1273  0.0300
  632MOL0     H85304  -0.476  -0.998   3.184  1.2776 -1.3279  1.5604
  632MOL0     H85305  -0.368  -0.814   3.063 -2.3173 -0.0463 -3.0829
  632MOL0     H85306   1.376   0.323   2.644  0.5731 -2.5612 -2.4144
  632MOL0     H85307   1.612   0.352   2.719  0.5088  0.1203  1.0977
  632MOL0     H85308   2.129   0.301   2.777  3.5368 -2.3795 -1.2394
  632MOL0     H85309   2.312   0.234   2.894  0.3592  0.9119  2.2365
  632MOL0     H85310   2.442   0.228   3.060  1.9576  0.4506  1.0922
  632MOL0     H85311   2.505   0.114   3.175  0.8511 -0.3890 -0.9285
  632MOL0     H85312   2.625   0.091   2.973  0.4744 -0.3921  0.3054
  632MOL0     H85313   2.493   0.041   2.874  1.7274  0.8561 -0.0843
  632MOL0     H85314   2.567  -0.103   3.134 -1.8384 -2.8295 -0.0480
  632MOL0     H85315   2.649  -0.137   2.984  0.1506 -2.9362  4.0859
  632MOL0     H85316   2.463  -0.239   2.877  0.6129 -1.0372 -1.0729
  632MOL0     H85317   2.350  -0.156   2.982  1.9480  1.5864  1.0127
  632MOL0     H85318   2.530  -0.483   3.217  1.7303 -1.3297 -3.2603
  632MOL0     H85319   2.079  -0.024   3.145  1.4836 -1.1824 -2.1527
  632MOL0     H85320   1.877   0.053   3.012  0.5932  1.1923 -1.8899
  633MOL0     O85321   7.555   5.195   3.649 -0.0393 -0.3787 -0.8959
  633MOL0     C85322   7.471   5.117   3.603  0.1166  0.3074 -0.5275
  633MOL0     O85323   7.348   5.085   3.665  0.0753  0.5475 -0.3049
  633MOL0     C85324   7.315   5.148   3.783  0.3980 -0.4203 -1.3428
  633MOL0     C85325   7.287   5.072   3.894 -0.3978 -0.1486 -0.8256
  633MOL0     C85326   7.258   5.131   4.023  0.4176  0.4743 -0.1453
  633MOL0     C85327   7.275   5.267   4.035  0.2340 -0.6645  0.9128
  633MOL0     O85328   7.258   5.340   4.146 -0.7839 -1.2795 -0.1992
  633MOL0     C85329   7.236   5.271   4.269  0.3504  0.6213  0.3659
  633MOL0     C85330   7.233   5.363   4.389  0.2394  0.4185 -0.5980
  633MOL0     C85331   7.105   5.440   4.397  0.2478  0.7128  0.2709
  633MOL0     C85332   7.113   5.580   4.325 -0.4100 -0.1347  0.9533
  633MOL0     C85333   6.966   5.621   4.302  0.2212  0.2084  0.1232
  633MOL0     C85334   6.947   5.742   4.213  0.1408  0.1816 -0.3798
  633MOL0     C85335   7.000   5.874   4.287  0.4455  0.0627 -0.3298
  633MOL0     C85336   6.944   5.906   4.426  0.5177 -0.2073 -0.0150
  633MOL0     N85337   6.985   6.041   4.455  0.9920 -0.2577  0.5859
  633MOL0     C85338   7.106   6.094   4.486  0.0666  0.0609 -0.5411
  633MOL0     C85339   7.083   6.228   4.497  0.3915 -0.5538 -0.3318
  633MOL0     C85340   7.175   6.335   4.541  1.2533  0.0744 -0.0009
  633MOL0     C85341   7.288   6.355   4.432 -0.7521 -0.5465 -0.4031
  633MOL0     C85342   7.367   6.486   4.454 -0.4095 -0.0494  0.1941
  633MOL0     C85343   7.466   6.506   4.336  0.0668  0.1792  0.6432
  633MOL0     O85344   7.547   6.386   4.301  0.9184  0.2142  0.1324
  633MOL0     C85345   7.674   6.410   4.250 -0.7033  0.1208  0.1024
  633MOL0     C85346   7.752   6.301   4.230 -0.7024  0.2795  0.1233
  633MOL0     C85347   7.881   6.300   4.186  0.1866  0.0984 -0.3558
  633MOL0     C85348   7.957   6.170   4.198 -0.2943  0.6461 -0.2115
  633MOL0     C85349   7.938   6.422   4.151 -0.7274  0.4235  0.1958
  633MOL0     C85350   8.078   6.429   4.088 -0.1209 -0.0239 -0.1256
  633MOL0     O85351   8.135   6.551   4.101 -0.8464 -0.0491 -0.2854
  633MOL0     C85352   8.264   6.581   4.068  0.7242  0.1877  0.2276
  633MOL0     C85353   8.323   6.539   3.950 -0.1329  0.0835 -0.1622
  633MOL0     C85354   8.460   6.574   3.941 -0.3373  0.3286 -0.0785
  633MOL0     C85355   8.534   6.659   4.032  1.1029 -0.0256  0.2344
  633MOL0     O85356   8.664   6.699   4.019  0.6190  0.2867 -0.0338
  633MOL0     C85357   8.758   6.612   3.948  0.8061  0.0359  1.0248
  633MOL0     C85358   8.898   6.664   3.957 -0.1010 -0.1961 -0.2760
  633MOL0     C85359   8.918   6.818   3.961 -0.0613  0.2776  0.8003
  633MOL0     C85360   9.064   6.865   3.941 -0.0856 -0.7421 -1.1764
  633MOL0     C85361   9.126   6.901   4.082  1.2931  0.6697  0.1724
  633MOL0     C85362   9.271   6.901   4.067 -0.3938  0.6445  0.9609
  633MOL0     C85363   9.332   6.950   4.197  0.5839 -0.1879 -0.4982
  633MOL0     C85364   9.484   6.940   4.203 -0.0167  0.2535 -0.0432
  633MOL0    Cl85365   9.520   6.774   4.254 -0.1127  0.3788  0.2480
  633MOL0     C85366   8.465   6.703   4.148  0.5645 -0.0882 -0.6391
  633MOL0     C85367   8.331   6.673   4.153  0.0176 -0.0282 -0.6170
  633MOL0     O85368   8.138   6.337   4.027 -0.3053 -0.1760 -0.2950
  633MOL0     C85369   7.858   6.544   4.155 -0.1148  0.3920  0.9697
  633MOL0     C85370   7.729   6.535   4.212 -0.6355 -1.3390  0.8815
  633MOL0     N85371   6.950   6.251   4.465 -0.1882 -0.1485  0.5157
  633MOL0     N85372   6.889   6.138   4.442  0.5066 -0.0244  0.1432
  633MOL0     C85373   7.315   5.349   3.919 -0.2698  0.7624 -0.0908
  633MOL0     C85374   7.330   5.286   3.796 -0.5178  0.4808 -0.3097
  633MOL0     C85375   7.512   5.024   3.490  0.0292 -0.8679 -0.5167
  633MOL0     C85376   7.415   4.938   3.432  0.0072 -0.8401 -0.7746
  633MOL0     C85377   7.449   4.846   3.329  0.1815  0.3902  0.3447
  633MOL0     C85378   7.579   4.836   3.296 -0.0463  0.3405 -0.2063
  633MOL0     O85379   7.632   4.761   3.195 -0.5938  0.5568 -0.0021
  633MOL0     C85380   7.554   4.664   3.135 -0.2618  0.4915  0.0575
  633MOL0     C85381   7.630   4.618   3.013 -0.5590  0.2924  0.1335
  633MOL0     C85382   7.583   4.479   2.979  0.4354  0.2411  1.4552
  633MOL0     C85383   7.639   4.439   2.844 -0.3505  0.7170  0.0694
  633MOL0     C85384   7.609   4.301   2.832  0.4031  0.3364 -0.1340
  633MOL0     C85385   7.587   4.184   2.823 -1.0278  1.4553  0.2115
  633MOL0     C85386   7.677   4.913   3.360  0.5514 -0.4523  0.7042
  633MOL0     C85387   7.645   4.998   3.462 -0.4368  0.1536  0.1300
  633MOL0     H85388   7.278   4.964   3.882 -1.0740 -0.2128  0.1021
  633MOL0     H85389   7.246   5.066   4.108 -0.0136  1.8954  0.9241
  633MOL0     H85390   7.147   5.211   4.247  0.6290  1.2223 -2.8557
  633MOL0     H85391   7.315   5.199   4.292  2.0812  2.2037 -0.3383
  633MOL0     H85392   7.223   5.300   4.478  2.7410 -0.3129 -0.7501
  633MOL0     H85393   7.326   5.421   4.390  1.1616 -0.9752 -1.4233
  633MOL0     H85394   7.024   5.381   4.355 -1.6477  3.0964  0.3656
  633MOL0     H85395   7.082   5.449   4.504  1.1163 -0.6066  0.5959
  633MOL0     H85396   7.162   5.651   4.392  1.2812  0.0083 -0.3768
  633MOL0     H85397   7.170   5.575   4.232 -2.4060 -0.9950 -0.3093
  633MOL0     H85398   6.930   5.534   4.247  1.6630  1.8654 -3.7911
  633MOL0     H85399   6.910   5.651   4.391 -0.0705 -0.5028  0.1869
  633MOL0     H85400   7.001   5.729   4.119 -0.1396  1.6152 -0.7752
  633MOL0     H85401   6.840   5.746   4.191  0.1341  1.1736 -0.2404
  633MOL0     H85402   7.105   5.858   4.313  0.7640  0.3843 -1.3651
  633MOL0     H85403   6.988   5.961   4.221 -0.2523  1.5782  1.7039
  633MOL0     H85404   6.986   5.839   4.501  1.6273  0.4809 -0.0146
  633MOL0     H85405   6.835   5.900   4.420  0.4407  0.8859  0.0994
  633MOL0     H85406   7.198   6.035   4.484 -0.6452 -1.0508 -1.8653
  633MOL0     H85407   7.110   6.424   4.544  1.4830  0.2774 -0.7223
  633MOL0     H85408   7.210   6.311   4.642  0.1445 -3.7055 -0.3594
  633MOL0     H85409   7.261   6.337   4.327  1.8327 -0.8439 -1.0796
  633MOL0     H85410   7.356   6.273   4.458  1.4863  1.5470  0.6889
  633MOL0     H85411   7.425   6.483   4.547  1.0247 -0.0593 -0.6868
  633MOL0     H85412   7.292   6.565   4.449  1.3728  1.7819  1.0060
  633MOL0     H85413   7.538   6.585   4.359 -0.0930  1.1713 -1.9341
  633MOL0     H85414   7.413   6.532   4.244 -0.7187 -2.6696  0.1949
  633MOL0     H85415   7.714   6.203   4.258  0.3136 -0.3688 -0.7168
  633MOL0     H85416   8.065   6.178   4.212 -0.0091 -2.2470 -0.2565
  633MOL0     H85417   7.923   6.111   4.282  0.9350 -0.8652 -0.7310
  633MOL0     H85418   7.948   6.111   4.106  2.6570  1.9885 -1.4926
  633MOL0     H85419   8.273   6.468   3.885  1.4290  1.9745 -3.7541
  633MOL0     H85420   8.506   6.535   3.850  1.5415  1.3499  0.3772
  633MOL0     H85421   8.760   6.517   4.002  1.0548  1.1330  3.0648
  633MOL0     H85422   8.720   6.582   3.850 -1.3371 -2.6301  2.5102
  633MOL0     H85423   8.947   6.630   4.048 -0.9710  1.4844  0.8980
  633MOL0     H85424   8.952   6.616   3.875 -1.2518  0.1972 -1.3014
  633MOL0     H85425   8.876   6.859   4.053  3.4918  4.9640  0.7192
  633MOL0     H85426   8.865   6.850   3.871  0.2864 -1.1538  0.0565
  633MOL0     H85427   9.118   6.793   3.879  2.1298  0.4561 -0.7482
  633MOL0     H85428   9.060   6.958   3.884 -0.3417 -1.2596 -2.0143
  633MOL0     H85429   9.087   6.839   4.163 -0.4623 -0.3560 -1.3911
  633MOL0     H85430   9.094   7.003   4.104 -2.1355  0.2179 -2.0255
  633MOL0     H85431   9.298   6.798   4.042 -0.5346  0.6056  0.9700
  633MOL0     H85432   9.305   6.960   3.982  1.5119 -1.6209  0.0368
  633MOL0     H85433   9.285   6.899   4.281  0.7032  0.5630  0.0303
  633MOL0     H85434   9.303   7.055   4.207  0.4591 -0.4117  2.3562
  633MOL0     H85435   9.527   6.998   4.285  1.5293 -2.5328  1.2200
  633MOL0     H85436   9.521   6.973   4.105 -1.6796  1.7311 -0.2378
  633MOL0     H85437   8.511   6.772   4.218  1.7180 -1.7009  0.2594
  633MOL0     H85438   8.275   6.716   4.236  2.0822 -0.7859  1.2547
  633MOL0     H85439   7.884   6.642   4.114 -0.2447 -0.7006 -1.9619
  633MOL0     H85440   7.675   6.629   4.212  0.1907 -0.8467  1.8577
  633MOL0     H85441   7.330   5.456   3.919  0.9548  0.6066 -0.4417
  633MOL0     H85442   7.357   5.353   3.714  0.0729 -0.3630 -0.8171
  633MOL0     H85443   7.315   4.948   3.472  0.8535  1.1855  1.0208
  633MOL0     H85444   7.366   4.792   3.286  2.1840 -2.7045  0.0151
  633MOL0     H85445   7.524   4.578   3.196 -0.8453 -0.6106 -1.7022
  633MOL0     H85446   7.461   4.710   3.102  0.0455 -0.0729 -1.7225
  633MOL0     H85447   7.739   4.613   3.029 -0.2861 -1.2548 -1.8359
  633MOL0     H85448   7.613   4.700   2.942 -0.6052  0.8531  0.7810
  633MOL0     H85449   7.475   4.468   2.968  0.6706  0.3491 -2.2350
  633MOL0     H85450   7.615   4.409   3.057 -0.1445 -0.5156  1.0304
  633MOL0     H85451   7.747   4.457   2.840 -0.0478 -0.4505 -5.3413
  633MOL0     H85452   7.593   4.497   2.764 -0.6391  1.7096  0.9349
  633MOL0     H85453   7.562   4.080   2.825  0.7391  0.9633 -1.1234
  633MOL0     H85454   7.779   4.906   3.323  0.0238  0.2419 -0.9753
  633MOL0     H85455   7.724   5.042   3.521 -0.5691  0.9291 -0.2639
  634MOL0     O85456   1.661   1.865   3.672 -0.5289 -0.5277 -0.0888
  634MOL0     C85457   1.735   1.897   3.575 -0.0294  0.1154 -1.6350
  634MOL0     O85458   1.690   1.928   3.455  0.5264 -0.0310 -0.3228
  634MOL0     C85459   1.562   1.905   3.416  0.1917 -0.6612  0.9199
  634MOL0     C85460   1.503   1.983   3.317  0.4072  0.2353 -0.3930
  634MOL0     C85461   1.372   1.971   3.287 -0.7729  1.0976  0.4920
  634MOL0     C85462   1.300   1.860   3.333  0.2880 -0.4579  0.8938
  634MOL0     O85463   1.165   1.865   3.299 -0.9899  0.2670 -0.6357
  634MOL0     C85464   1.077   1.768   3.358  0.4844 -0.2266 -0.3642
  634MOL0     C85465   0.936   1.788   3.308 -1.1067  0.4582  0.5182
  634MOL0     C85466   0.893   1.936   3.308 -0.3882 -0.9969  0.3684
  634MOL0     C85467   0.754   1.965   3.242  0.1618  0.0701 -0.1476
  634MOL0     C85468   0.742   1.925   3.090 -0.0770 -0.6047  0.2831
  634MOL0     C85469   0.599   1.952   3.047 -0.4807 -0.4798  0.7196
  634MOL0     C85470   0.507   1.819   3.061  0.2887 -0.2731 -0.1049
  634MOL0     C85471   0.363   1.835   3.088  0.2532 -0.2375  0.1522
  634MOL0     N85472   0.298   1.707   3.102  0.0026  0.6399  0.2711
  634MOL0     C85473   0.302   1.599   3.011  0.0416  0.9141  0.8238
  634MOL0     C85474   0.261   1.492   3.080  0.5352  0.7636 -0.3669
  634MOL0     C85475   0.264   1.353   3.020 -0.2810  0.8568 -0.3649
  634MOL0     C85476   0.119   1.291   3.002 -0.4126 -0.1477  0.6206
  634MOL0     C85477   0.008   1.332   3.102 -0.2548  0.1755  0.8006
  634MOL0     C85478  -0.117   1.262   3.067 -0.2858  0.1923  0.2470
  634MOL0     O85479  -0.224   1.302   3.161 -1.1434 -0.1381 -0.1414
  634MOL0     C85480  -0.353   1.254   3.119 -0.1184 -0.0079 -1.3193
  634MOL0     C85481  -0.382   1.167   3.017 -0.2179 -0.2781  0.4767
  634MOL0     C85482  -0.508   1.111   3.008 -0.0753 -0.4288 -0.7808
  634MOL0     C85483  -0.518   1.016   2.891  0.2382  0.6662 -0.6715
  634MOL0     C85484  -0.614   1.151   3.086 -0.6962 -1.3354 -0.0337
  634MOL0     C85485  -0.748   1.099   3.082  0.5504 -0.0842 -0.1552
  634MOL0     O85486  -0.851   1.185   3.100 -0.3977  0.2413  0.1885
  634MOL0     C85487  -0.963   1.118   3.153 -0.4538 -0.0201 -0.8200
  634MOL0     C85488  -1.060   1.069   3.071  0.0542 -0.9084 -0.0136
  634MOL0     C85489  -1.163   0.986   3.121  0.4497  0.7600  0.9798
  634MOL0     C85490  -1.163   0.933   3.255 -0.6836 -0.2917  0.3488
  634MOL0     O85491  -1.241   0.835   3.293  0.2845  0.3757  0.4004
  634MOL0     C85492  -1.361   0.891   3.344 -0.4189  0.0832 -1.3738
  634MOL0     C85493  -1.427   0.801   3.439 -0.3186  0.3608 -0.4483
  634MOL0     C85494  -1.505   0.691   3.368 -0.8955  0.1492  0.4428
  634MOL0     C85495  -1.640   0.730   3.309 -0.2584  0.9239 -0.1241
  634MOL0     C85496  -1.635   0.737   3.159  0.3081 -0.6451 -0.0022
  634MOL0     C85497  -1.595   0.614   3.082 -0.1088  0.6621  0.0768
  634MOL0     C85498  -1.658   0.597   2.943 -0.0535  0.0616 -0.2028
  634MOL0     C85499  -1.622   0.701   2.840  0.4981  0.7404 -0.0992
  634MOL0    Cl85500  -1.453   0.695   2.796 -0.3297  0.2842 -0.1836
  634MOL0     C85501  -1.065   0.999   3.334  0.2503 -0.5915  0.8485
  634MOL0     C85502  -0.970   1.093   3.289  0.0190 -0.4824 -0.2351
  634MOL0     O85503  -0.767   0.993   3.024 -0.0446 -0.3979  0.1305
  634MOL0     C85504  -0.589   1.245   3.187  0.2022 -0.2180 -0.2665
  634MOL0     C85505  -0.459   1.297   3.209 -0.5900  0.3735 -0.0438
  634MOL0     N85506   0.244   1.523   3.214  0.0282 -0.8626  0.5805
  634MOL0     N85507   0.273   1.650   3.222 -0.1294  0.1648 -0.1377
  634MOL0     C85508   1.356   1.786   3.429  0.4122  0.3210 -0.7248
  634MOL0     C85509   1.482   1.802   3.465 -0.6801  0.3941  0.3936
  634MOL0     C85510   1.881   1.928   3.602 -0.4688  0.2571  0.5947
  634MOL0     C85511   1.918   1.977   3.729  0.8173 -0.4256  0.2512
  634MOL0     C85512   2.043   2.037   3.755  0.1551  0.3362  0.5273
  634MOL0     C85513   2.142   2.039   3.658 -0.1263  0.1084  0.2864
  634MOL0     O85514   2.270   2.074   3.676  0.3883  0.6528 -0.7853
  634MOL0     C85515   2.323   2.069   3.807  0.1601 -0.1669  0.5345
  634MOL0     C85516   2.470   2.109   3.806 -0.6418  0.1647 -0.3258
  634MOL0     C85517   2.514   2.096   3.956  0.3329 -0.3765 -0.0725
  634MOL0     C85518   2.661   2.122   3.976  0.0068  0.3449  0.3608
  634MOL0     C85519   2.690   2.101   4.115  0.4181 -0.8578 -0.2782
  634MOL0     C85520   2.700   2.047   4.228  0.2103 -0.9395 -0.8503
  634MOL0     C85521   2.101   2.000   3.531 -1.0120 -0.3901 -0.2640
  634MOL0     C85522   1.976   1.945   3.502 -0.4328 -0.1484 -0.0221
  634MOL0     H85523   1.560   2.065   3.274  1.0595 -1.0745 -2.1373
  634MOL0     H85524   1.325   2.038   3.216  2.2134  1.6092 -1.1534
  634MOL0     H85525   1.104   1.663   3.342  2.2817  0.0598  0.4763
  634MOL0     H85526   1.063   1.787   3.465 -2.1334  3.2105 -1.1352
  634MOL0     H85527   0.919   1.727   3.218  0.9423 -1.1369  1.1432
  634MOL0     H85528   0.880   1.730   3.382 -0.8657 -0.8046 -0.2566
  634MOL0     H85529   0.902   1.973   3.411  0.3224  1.1090 -0.3962
  634MOL0     H85530   0.967   1.995   3.254  0.6728 -1.2986  1.4382
  634MOL0     H85531   0.671   1.919   3.296 -0.0134  2.5204  1.8839
  634MOL0     H85532   0.749   2.075   3.241  0.0649  0.0647 -0.4543
  634MOL0     H85533   0.812   1.990   3.035 -1.7650 -0.4496 -1.8088
  634MOL0     H85534   0.773   1.822   3.070  0.0749 -1.4675  4.1855
  634MOL0     H85535   0.566   2.033   3.113  0.2525 -0.2204  0.7778
  634MOL0     H85536   0.600   1.988   2.944 -2.0796  2.1497  1.5203
  634MOL0     H85537   0.521   1.758   2.971  2.7633  1.1046 -0.7318
  634MOL0     H85538   0.540   1.771   3.154 -0.9840  0.0933  0.5653
  634MOL0     H85539   0.324   1.897   3.006 -2.0754  0.0257  1.3981
  634MOL0     H85540   0.351   1.895   3.178  1.7411  0.3992 -0.0339
  634MOL0     H85541   0.349   1.611   2.913  0.0399 -4.1142 -0.0609
  634MOL0     H85542   0.331   1.345   2.934  2.6065  0.5471  1.7440
  634MOL0     H85543   0.309   1.291   3.098  2.8907  2.3866 -0.8031
  634MOL0     H85544   0.131   1.184   2.982  1.7557  0.3854 -1.2927
  634MOL0     H85545   0.075   1.323   2.907 -0.7050 -3.1151 -0.3310
  634MOL0     H85546  -0.016   1.439   3.110 -0.5019  0.3440 -1.4847
  634MOL0     H85547   0.038   1.291   3.199  1.6699 -0.4398 -0.0057
  634MOL0     H85548  -0.112   1.153   3.058  0.9091  0.4154 -3.7551
  634MOL0     H85549  -0.148   1.296   2.968 -1.3226 -0.7385  0.2334
  634MOL0     H85550  -0.311   1.126   2.946 -0.9396 -1.4565  0.4117
  634MOL0     H85551  -0.599   1.050   2.827  0.2048  1.3056 -0.3040
  634MOL0     H85552  -0.430   1.005   2.827 -1.3141 -0.1086 -2.7769
  634MOL0     H85553  -0.546   0.917   2.927  0.9431  0.5280 -0.4929
  634MOL0     H85554  -1.053   1.088   2.964 -0.1447 -0.5356  0.0363
  634MOL0     H85555  -1.227   0.936   3.049  2.1784 -1.0372  0.5943
  634MOL0     H85556  -1.346   0.986   3.395  0.0817 -0.4654 -0.4705
  634MOL0     H85557  -1.435   0.917   3.268 -0.4047 -1.3476 -1.9123
  634MOL0     H85558  -1.359   0.754   3.511  0.0927 -0.9434 -1.6540
  634MOL0     H85559  -1.500   0.855   3.501 -3.0370 -2.0271 -1.3715
  634MOL0     H85560  -1.523   0.619   3.449 -0.1042  0.5479  0.9960
  634MOL0     H85561  -1.446   0.641   3.290 -1.1286  1.6568 -0.7273
  634MOL0     H85562  -1.711   0.654   3.345  1.0550 -1.0474 -1.4536
  634MOL0     H85563  -1.687   0.817   3.355 -2.1011  0.3865 -0.8824
  634MOL0     H85564  -1.570   0.818   3.126 -2.2048  1.3928 -0.2727
  634MOL0     H85565  -1.733   0.769   3.121 -1.1748 -1.1349  3.0898
  634MOL0     H85566  -1.487   0.620   3.067 -0.1947 -0.1996 -0.9453
  634MOL0     H85567  -1.607   0.531   3.153  1.9714  0.3215  0.0901
  634MOL0     H85568  -1.765   0.581   2.961 -0.1107  0.7570  0.1190
  634MOL0     H85569  -1.619   0.507   2.894  1.8128  0.4409  0.5195
  634MOL0     H85570  -1.657   0.796   2.883 -1.9447 -0.4377  0.6905
  634MOL0     H85571  -1.680   0.680   2.750  1.1728 -1.7314 -0.0120
  634MOL0     H85572  -1.069   0.955   3.434 -0.2530 -0.8446  0.7208
  634MOL0     H85573  -0.895   1.134   3.355  0.3661  0.3294 -1.1099
  634MOL0     H85574  -0.663   1.288   3.254  2.2151  2.1494  0.5897
  634MOL0     H85575  -0.413   1.359   3.286  0.9623 -0.8345  0.0597
  634MOL0     H85576   1.301   1.710   3.482 -1.5464  1.9211 -0.3710
  634MOL0     H85577   1.523   1.725   3.530  0.2756 -3.7397 -4.4603
  634MOL0     H85578   1.843   1.984   3.808  2.3360 -1.4024  1.8370
  634MOL0     H85579   2.067   2.069   3.856  1.3044  1.5805 -0.1082
  634MOL0     H85580   2.266   2.140   3.869 -0.7769  0.2575 -0.7670
  634MOL0     H85581   2.309   1.968   3.846 -3.2644  0.8075  2.2935
  634MOL0     H85582   2.479   2.215   3.784  0.7334  0.5889  1.9203
  634MOL0     H85583   2.544   2.049   3.753  0.7181 -0.2531  1.9007
  634MOL0     H85584   2.489   1.996   3.995  2.9990 -0.9853  0.2388
  634MOL0     H85585   2.460   2.178   4.005 -0.0549  0.0787 -1.2374
  634MOL0     H85586   2.682   2.226   3.948 -3.1520  0.7322 -1.0385
  634MOL0     H85587   2.722   2.049   3.924 -1.1429 -1.0306  0.8790
  634MOL0     H85588   2.709   2.005   4.326  0.5215  1.5617  0.2760
  634MOL0     H85589   2.176   2.021   3.455 -0.4380 -2.6018 -0.3710
  634MOL0     H85590   1.956   1.916   3.399  2.1196  2.9703 -1.5601
  635MOL0     O85591   6.788   6.127   6.778  0.0326  0.1605  0.2455
  635MOL0     C85592   6.864   6.125   6.872 -0.6612  0.5488 -0.3507
  635MOL0     O85593   6.846   6.177   6.996  0.3977 -0.5035  0.0180
  635MOL0     C85594   6.712   6.173   7.035 -0.6112 -0.7467  0.0314
  635MOL0     C85595   6.658   6.054   7.079  0.4989 -0.4776  0.1531
  635MOL0     C85596   6.518   6.050   7.106 -0.1743 -0.7308  0.2325
  635MOL0     C85597   6.439   6.159   7.090 -0.7960 -0.1923 -0.0882
  635MOL0     O85598   6.305   6.163   7.112 -0.2141  0.6610 -0.6251
  635MOL0     C85599   6.240   6.045   7.164  0.7376  0.0104 -0.9644
  635MOL0     C85600   6.085   6.075   7.179  0.0205 -0.1440  0.1937
  635MOL0     C85601   6.056   6.181   7.286 -0.0908  0.7343 -0.2399
  635MOL0     C85602   5.918   6.243   7.273 -0.9716  0.4063  1.0761
  635MOL0     C85603   5.902   6.351   7.376  0.3666 -0.0153 -1.1591
  635MOL0     C85604   5.769   6.405   7.395  0.4099  0.5186 -0.2307
  635MOL0     C85605   5.735   6.529   7.313  0.2978  0.0355  0.1995
  635MOL0     C85606   5.707   6.504   7.163 -0.0912 -0.1574 -0.1651
  635MOL0     N85607   5.616   6.396   7.144  0.1490  0.1779  0.4239
  635MOL0     C85608   5.643   6.288   7.061  0.1242  0.8808  0.0763
  635MOL0     C85609   5.525   6.218   7.066 -0.6577  0.7675  0.0428
  635MOL0     C85610   5.492   6.086   7.000  0.1002  0.0100 -0.3371
  635MOL0     C85611   5.394   6.129   6.883 -0.8116 -0.1815  0.0716
  635MOL0     C85612   5.330   6.010   6.804 -0.5898  0.2581  0.3407
  635MOL0     C85613   5.214   6.050   6.708 -0.4197 -0.4128  0.4303
  635MOL0     O85614   5.270   6.119   6.596 -0.6267  0.4111  0.7694
  635MOL0     C85615   5.188   6.106   6.486 -0.4804  0.2368 -0.5278
  635MOL0     C85616   5.231   6.119   6.355  0.7674 -0.4944 -0.5074
  635MOL0     C85617   5.145   6.118   6.244 -0.1324  0.4414 -0.6293
  635MOL0     C85618   5.194   6.120   6.106 -0.0110 -0.9492 -0.4041
  635MOL0     C85619   5.006   6.115   6.266  0.2141  0.7014 -0.3937
  635MOL0     C85620   4.904   6.113   6.167  0.1392 -0.2890  0.4171
  635MOL0     O85621   4.796   6.029   6.179 -0.1336  0.0617  0.5417
  635MOL0     C85622   4.695   6.027   6.086 -0.0125 -0.0467  0.7328
  635MOL0     C85623   4.709   6.034   5.945 -0.2782  0.4831  0.5766
  635MOL0     C85624   4.600   6.065   5.866 -0.9076 -0.5926  0.5485
  635MOL0     C85625   4.475   6.080   5.924  0.5769  0.4100 -0.0744
  635MOL0     O85626   4.372   6.086   5.834  0.1871  0.4660  0.3893
  635MOL0     C85627   4.327   5.953   5.800  0.4837  0.3339  0.3174
  635MOL0     C85628   4.227   5.959   5.676 -0.1183 -0.7363 -0.6971
  635MOL0     C85629   4.170   5.821   5.632 -0.3626  0.1289  0.0041
  635MOL0     C85630   4.078   5.766   5.743  0.1953  0.1235  0.7719
  635MOL0     C85631   4.008   5.643   5.693  0.3080 -0.8929 -0.1075
  635MOL0     C85632   3.918   5.564   5.790 -0.6790  0.5268 -1.0875
  635MOL0     C85633   4.011   5.490   5.889  1.0110 -0.3096  0.0429
  635MOL0     C85634   3.951   5.349   5.924 -0.5317 -0.2809  0.1079
  635MOL0    Cl85635   3.815   5.373   6.035 -0.0442  0.1423  0.1309
  635MOL0     C85636   4.455   6.051   6.063  0.1619 -0.3095  0.5340
  635MOL0     C85637   4.565   6.023   6.143 -0.8506 -1.0972  0.8673
  635MOL0     O85638   4.914   6.199   6.083  0.2329  0.0450 -0.0075
  635MOL0     C85639   4.961   6.104   6.394 -0.3278  0.3380  0.0625
  635MOL0     C85640   5.046   6.109   6.500  0.3813  0.5495  0.2279
  635MOL0     N85641   5.439   6.285   7.153 -0.2027 -0.3477 -0.0265
  635MOL0     N85642   5.494   6.395   7.192  0.1612  0.1924 -1.5229
  635MOL0     C85643   6.490   6.280   7.040  0.9553 -0.0183  0.3421
  635MOL0     C85644   6.632   6.282   7.022 -0.0954 -0.4366  0.1614
  635MOL0     C85645   6.998   6.073   6.842 -0.5182  1.2761 -0.0584
  635MOL0     C85646   7.105   6.076   6.934 -0.0833  0.6332  0.0702
  635MOL0     C85647   7.236   6.030   6.902  0.3637 -0.3240 -0.0118
  635MOL0     C85648   7.262   5.980   6.779  0.2045 -0.4577 -0.5541
  635MOL0     O85649   7.396   5.946   6.754  0.0712  0.3639  0.0919
  635MOL0     C85650   7.433   5.877   6.639 -0.0474  1.0069 -0.3861
  635MOL0     C85651   7.582   5.876   6.633  0.3407 -1.0382 -0.9716
  635MOL0     C85652   7.648   5.760   6.714  0.7342  0.7899 -0.1173
  635MOL0     C85653   7.752   5.694   6.619  0.7767  0.3840 -0.1013
  635MOL0     C85654   7.819   5.571   6.678  0.2031 -0.0559  0.2570
  635MOL0     C85655   7.881   5.486   6.736 -0.3300  0.4585  0.4291
  635MOL0     C85656   7.157   5.961   6.689 -0.1470  0.2521 -0.2513
  635MOL0     C85657   7.029   6.004   6.722 -0.4608  0.5645 -0.3789
  635MOL0     H85658   6.723   5.967   7.087  0.4687 -0.6739 -1.4235
  635MOL0     H85659   6.468   5.958   7.133 -1.2006  0.4149  2.5573
  635MOL0     H85660   6.254   5.956   7.101 -0.4399 -1.2730  0.5008
  635MOL0     H85661   6.299   6.016   7.251  2.2539 -0.7453 -2.1838
  635MOL0     H85662   6.039   6.096   7.082  0.0716 -2.2200 -0.3169
  635MOL0     H85663   6.032   5.986   7.215 -2.7905 -0.1815 -3.4393
  635MOL0     H85664   6.066   6.133   7.384 -0.9415  1.5930  0.2890
  635MOL0     H85665   6.133   6.259   7.283  1.2633 -0.4810  1.3259
  635MOL0     H85666   5.904   6.282   7.172 -1.8505 -0.3643  0.8881
  635MOL0     H85667   5.841   6.168   7.294  2.5806 -3.6288  1.0576
  635MOL0     H85668   5.917   6.310   7.476 -2.9723  0.9196 -0.1548
  635MOL0     H85669   5.983   6.425   7.370  1.0392 -0.8584 -3.0856
  635MOL0     H85670   5.689   6.330   7.395  0.6243  0.2342 -1.8986
  635MOL0     H85671   5.764   6.452   7.493 -1.2198  0.3943 -0.2291
  635MOL0     H85672   5.651   6.587   7.351  1.0489  1.7830 -0.7316
  635MOL0     H85673   5.824   6.592   7.327 -0.7717  1.7428 -0.4810
  635MOL0     H85674   5.800   6.478   7.113  0.1978 -2.5473  1.4400
  635MOL0     H85675   5.672   6.600   7.124  3.5023  0.6678 -1.7863
  635MOL0     H85676   5.736   6.273   7.007  0.3583  3.7922 -0.5074
  635MOL0     H85677   5.582   6.051   6.949  0.9542  2.6927 -0.7820
  635MOL0     H85678   5.445   6.015   7.070  1.4788 -0.4240  0.1748
  635MOL0     H85679   5.453   6.190   6.814  2.5320 -3.0231  0.1269
  635MOL0     H85680   5.310   6.194   6.904 -1.4126 -0.3448 -1.6504
  635MOL0     H85681   5.287   5.936   6.871 -1.3693  1.2914  1.0094
  635MOL0     H85682   5.413   5.960   6.752 -1.9742 -0.8450 -0.8744
  635MOL0     H85683   5.140   6.117   6.753 -2.2984  1.1335 -4.3485
  635MOL0     H85684   5.151   5.968   6.674 -1.2812 -0.0166  1.0494
  635MOL0     H85685   5.338   6.112   6.341  0.7619 -0.1242 -0.7422
  635MOL0     H85686   5.148   6.041   6.047 -2.0810 -0.2195  0.1536
  635MOL0     H85687   5.185   6.217   6.056  1.8983  0.0781  1.0824
  635MOL0     H85688   5.301   6.099   6.114 -0.1085 -0.8418  1.7311
  635MOL0     H85689   4.796   6.018   5.883 -0.1502  0.2842  0.8062
  635MOL0     H85690   4.619   6.071   5.759  2.1918 -1.7040  0.9151
  635MOL0     H85691   4.413   5.893   5.769 -0.2290 -0.7151  0.3209
  635MOL0     H85692   4.267   5.917   5.884 -0.7701  0.9973 -0.2744
  635MOL0     H85693   4.147   6.033   5.687 -1.0160 -1.2399 -3.0989
  635MOL0     H85694   4.283   5.979   5.584 -1.1403  0.2530 -1.1268
  635MOL0     H85695   4.253   5.750   5.626  0.1639  0.7060  0.2899
  635MOL0     H85696   4.125   5.822   5.533  0.5858  2.1659 -0.4616
  635MOL0     H85697   4.135   5.750   5.835 -0.6427  0.9236  1.4490
  635MOL0     H85698   3.997   5.837   5.761 -1.0354 -1.0226 -0.0242
  635MOL0     H85699   4.087   5.581   5.650 -0.0274  0.5362 -2.9798
  635MOL0     H85700   3.943   5.672   5.610 -0.5235 -4.4099 -0.8548
  635MOL0     H85701   3.836   5.627   5.826  0.3574  0.2565  1.9591
  635MOL0     H85702   3.875   5.490   5.721  1.0137 -0.5926 -1.0075
  635MOL0     H85703   4.030   5.538   5.986 -0.5048 -1.0241  0.7382
  635MOL0     H85704   4.113   5.483   5.851  0.8893  1.0201 -0.5648
  635MOL0     H85705   4.022   5.280   5.969 -0.8406  0.3295  1.5816
  635MOL0     H85706   3.921   5.298   5.831  0.7036 -3.1030  1.1465
  635MOL0     H85707   4.357   6.051   6.110 -1.9339  0.6214 -3.4483
  635MOL0     H85708   4.547   6.009   6.249 -1.2940  1.9944  1.2839
  635MOL0     H85709   4.854   6.095   6.409 -0.4756  0.8757 -0.5942
  635MOL0     H85710   5.000   6.112   6.598 -2.6624 -0.5351 -1.0538
  635MOL0     H85711   6.426   6.367   7.030  0.5671 -0.5020 -1.9616
  635MOL0     H85712   6.679   6.375   6.994 -1.8707  0.4436 -0.0505
  635MOL0     H85713   7.091   6.122   7.031 -0.5068  1.0789 -0.1953
  635MOL0     H85714   7.313   6.039   6.977 -0.4568 -3.0565  1.2782
  635MOL0     H85715   7.373   5.786   6.631 -2.1093  2.4450 -2.7785
  635MOL0     H85716   7.413   5.938   6.550  1.0487  1.8374 -0.0912
  635MOL0     H85717   7.625   5.962   6.685  1.4005 -2.6841  1.0862
  635MOL0     H85718   7.614   5.887   6.529 -0.3263  3.5421 -0.8546
  635MOL0     H85719   7.572   5.687   6.742  1.8089  0.1681  1.3409
  635MOL0     H85720   7.695   5.789   6.809 -0.2717 -1.7820  1.2803
  635MOL0     H85721   7.825   5.767   6.586  1.4077 -0.5315 -0.7906
  635MOL0     H85722   7.692   5.663   6.533 -0.2488  0.8026  0.4380
  635MOL0     H85723   7.925   5.416   6.804 -3.1259 -0.3153  1.5882
  635MOL0     H85724   7.179   5.919   6.591  0.4882 -0.6441  0.2696
  635MOL0     H85725   6.953   5.996   6.645 -1.2268  0.7062  0.3412
  636MOL0     O85726   6.737   1.635   6.319 -0.0593  0.4699 -0.3067
  636MOL0     C85727   6.764   1.725   6.400  0.0527  0.6574  0.3487
  636MOL0     O85728   6.838   1.707   6.521 -0.5493  0.5870 -0.5670
  636MOL0     C85729   6.866   1.578   6.568  0.2771 -0.6142 -0.0961
  636MOL0     C85730   6.931   1.482   6.495 -0.6681  0.0464  0.2420
  636MOL0     C85731   6.947   1.352   6.535  0.3570  0.2408  0.4156
  636MOL0     C85732   6.887   1.302   6.648  0.1759  0.0101 -0.5558
  636MOL0     O85733   6.883   1.166   6.672  0.3859  0.3614 -0.3580
  636MOL0     C85734   6.824   1.129   6.796 -0.4772  0.4222 -0.3581
  636MOL0     C85735   6.837   0.984   6.822  0.1808 -0.2490 -1.1221
  636MOL0     C85736   6.988   0.954   6.846 -0.4804  0.3998 -0.7534
  636MOL0     C85737   7.009   0.804   6.877  0.5364 -0.6123 -0.3813
  636MOL0     C85738   7.143   0.772   6.950 -0.6334  0.0430  0.1183
  636MOL0     C85739   7.191   0.616   6.952  1.1496  0.4376 -0.4116
  636MOL0     C85740   7.300   0.583   7.055  0.8761  0.2940 -0.1500
  636MOL0     C85741   7.438   0.619   6.994 -0.3380  0.5201 -0.0301
  636MOL0     N85742   7.538   0.571   7.091 -0.8810  0.5545  0.6677
  636MOL0     C85743   7.546   0.619   7.221 -0.2972  0.3786 -1.1050
  636MOL0     C85744   7.611   0.518   7.283 -0.4770 -0.0625  0.5608
  636MOL0     C85745   7.634   0.511   7.432  0.1331  0.2953  0.2785
  636MOL0     C85746   7.765   0.578   7.474  0.2495  0.1839  0.4836
  636MOL0     C85747   7.890   0.501   7.424 -0.3490  0.2655 -0.0306
  636MOL0     C85748   7.950   0.397   7.521 -0.5526  0.7279 -0.5320
  636MOL0     O85749   7.967   0.444   7.657  0.0008 -0.1996 -0.1148
  636MOL0     C85750   7.875   0.406   7.755 -0.3032  0.2497  0.9115
  636MOL0     C85751   7.842   0.271   7.770 -0.1206  0.2954 -0.4523
  636MOL0     C85752   7.742   0.222   7.858 -0.3719 -0.6834  0.1168
  636MOL0     C85753   7.724   0.077   7.885  1.0629 -0.3063  0.3977
  636MOL0     C85754   7.676   0.332   7.935  0.2027  0.6578  1.0363
  636MOL0     C85755   7.567   0.301   8.045  0.5157 -0.3114 -0.4750
  636MOL0     O85756   7.571   0.361   8.167  0.2120  0.1147 -1.1324
  636MOL0     C85757   7.495   0.304   8.265  0.9476 -0.8154 -0.1682
  636MOL0     C85758   7.564   0.216   8.354 -0.2668  0.5824  0.7872
  636MOL0     C85759   7.494   0.162   8.463 -0.1161 -0.4084 -0.8041
  636MOL0     C85760   7.354   0.184   8.466 -0.8346 -0.6105 -0.0393
  636MOL0     O85761   7.286   0.124   8.569  0.3904  0.1631  0.1850
  636MOL0     C85762   7.224  -0.004   8.538 -0.0405  0.5406 -0.3124
  636MOL0     C85763   7.117   0.002   8.428 -0.8318 -0.0841 -0.3988
  636MOL0     C85764   7.032  -0.125   8.417 -0.6699  0.2249  0.5691
  636MOL0     C85765   7.119  -0.244   8.382  0.1278 -0.1444 -0.4760
  636MOL0     C85766   7.028  -0.371   8.369 -0.7721  0.3162 -0.1145
  636MOL0     C85767   7.117  -0.493   8.332 -0.1965  0.6021  0.0140
  636MOL0     C85768   7.045  -0.629   8.319  0.2596  0.2234  0.4538
  636MOL0     C85769   7.127  -0.756   8.292  0.1893 -0.2907 -0.2060
  636MOL0    Cl85770   7.028  -0.899   8.298  0.6070  0.2562 -0.5063
  636MOL0     C85771   7.281   0.261   8.374 -0.3897  0.4657  0.1178
  636MOL0     C85772   7.352   0.325   8.272 -0.4657 -0.6064 -0.5373
  636MOL0     O85773   7.479   0.223   8.006 -0.0683 -0.1998  0.2555
  636MOL0     C85774   7.710   0.463   7.929 -0.3154 -0.6392 -0.1618
  636MOL0     C85775   7.813   0.495   7.840  0.1438 -0.5851 -0.3280
  636MOL0     N85776   7.658   0.425   7.183  0.7198 -0.6015 -0.7921
  636MOL0     N85777   7.608   0.456   7.070  0.9011 -0.9325 -0.0879
  636MOL0     C85778   6.829   1.403   6.735 -0.4240 -0.6702 -0.2258
  636MOL0     C85779   6.819   1.537   6.692 -0.7997  0.7726 -0.0509
  636MOL0     C85780   6.725   1.863   6.371  0.0541  0.1012  0.8322
  636MOL0     C85781   6.729   1.960   6.468 -0.9727 -0.4665  0.7525
  636MOL0     C85782   6.689   2.089   6.434 -0.1220 -0.0428 -0.2273
  636MOL0     C85783   6.646   2.128   6.307  0.3574 -1.3769 -0.1993
  636MOL0     O85784   6.587   2.250   6.289 -0.5920  0.4845  0.0880
  636MOL0     C85785   6.488   2.257   6.181  0.2357 -0.7396  0.8007
  636MOL0     C85786   6.413   2.383   6.178 -0.5735  0.2403  0.7163
  636MOL0     C85787   6.299   2.394   6.084 -0.1892  0.4614  0.5610
  636MOL0     C85788   6.247   2.537   6.079  0.5632 -0.3027  0.2032
  636MOL0     C85789   6.196   2.587   6.211  0.9602  0.8696 -0.0655
  636MOL0     C85790   6.150   2.628   6.314  0.3915 -1.2434  0.6003
  636MOL0     C85791   6.653   2.028   6.208  0.5192  0.7390  0.4072
  636MOL0     C85792   6.692   1.896   6.238  0.7453  0.0808  0.0451
  636MOL0     H85793   6.962   1.513   6.396 -1.1130  1.6507  0.5879
  636MOL0     H85794   7.005   1.283   6.474  3.4554  2.0622  1.0814
  636MOL0     H85795   6.857   1.184   6.884  0.4513 -0.0445 -0.4065
  636MOL0     H85796   6.716   1.146   6.792 -0.5803 -0.3435 -0.8989
  636MOL0     H85797   6.763   0.956   6.898  0.3891  2.7917  0.3375
  636MOL0     H85798   6.804   0.917   6.742 -0.7107  2.6165 -3.3264
  636MOL0     H85799   7.061   0.990   6.774  0.2163 -0.5433 -0.5466
  636MOL0     H85800   7.009   1.010   6.937  0.7079 -0.6613 -0.3460
  636MOL0     H85801   6.936   0.776   6.954  0.4554 -0.3261 -0.3506
  636MOL0     H85802   7.006   0.740   6.788  1.5097 -2.3359  0.7696
  636MOL0     H85803   7.219   0.824   6.890 -2.3251  1.2342 -1.1091
  636MOL0     H85804   7.127   0.815   7.050  0.7024 -1.6455  1.1167
  636MOL0     H85805   7.103   0.562   6.989  0.8167  2.3175  1.7635
  636MOL0     H85806   7.229   0.583   6.855  1.3609 -5.1385  1.2173
  636MOL0     H85807   7.278   0.647   7.141 -0.7338  0.8350 -0.9256
  636MOL0     H85808   7.298   0.480   7.091 -1.2886  0.9183  1.7440
  636MOL0     H85809   7.458   0.720   6.955  0.3043 -0.9806 -4.0854
  636MOL0     H85810   7.445   0.567   6.898  2.2519 -0.1264  0.4272
  636MOL0     H85811   7.495   0.699   7.273  1.9283  0.8866  0.4159
  636MOL0     H85812   7.549   0.550   7.489 -0.2323 -0.1278  0.0370
  636MOL0     H85813   7.637   0.401   7.430  1.5488  0.3276 -1.2944
  636MOL0     H85814   7.762   0.596   7.582  0.8111 -1.2716  0.7717
  636MOL0     H85815   7.772   0.678   7.430  1.7647 -0.3898 -0.6792
  636MOL0     H85816   7.963   0.582   7.417 -1.6079  1.4197 -0.1780
  636MOL0     H85817   7.873   0.462   7.323  1.4558 -0.5137 -0.0805
  636MOL0     H85818   8.047   0.352   7.498 -0.2457  0.2638  1.5187
  636MOL0     H85819   7.874   0.320   7.514  0.6662 -1.0970  3.5809
  636MOL0     H85820   7.903   0.203   7.711 -0.1785 -0.2793  0.1465
  636MOL0     H85821   7.817   0.019   7.882  1.7957  0.8701  0.0719
  636MOL0     H85822   7.674   0.067   7.982 -1.3897  1.8014 -0.5293
  636MOL0     H85823   7.655   0.032   7.813  1.2651  0.2449 -0.1458
  636MOL0     H85824   7.671   0.196   8.359  0.0434  1.3275 -1.6025
  636MOL0     H85825   7.544   0.096   8.533  1.3958  2.4403  0.9834
  636MOL0     H85826   7.304  -0.075   8.512  1.5592  1.7313  1.0909
  636MOL0     H85827   7.178  -0.049   8.626  4.9565 -0.1992  2.2950
  636MOL0     H85828   7.049   0.087   8.436  0.0040  0.5245  0.5902
  636MOL0     H85829   7.161  -0.006   8.328  2.4104 -1.3633  0.9793
  636MOL0     H85830   6.962  -0.104   8.335 -0.6214  0.7179  0.6521
  636MOL0     H85831   6.979  -0.148   8.509 -0.9626 -2.2606 -0.1522
  636MOL0     H85832   7.184  -0.223   8.297  1.4044  0.1539  0.5343
  636MOL0     H85833   7.179  -0.267   8.471 -0.0596  2.1586  0.3184
  636MOL0     H85834   6.967  -0.355   8.279  0.3809 -2.1139 -1.4382
  636MOL0     H85835   6.994  -0.381   8.472  3.2580 -1.0967  1.2519
  636MOL0     H85836   7.175  -0.472   8.242  1.4643 -0.2327  0.8348
  636MOL0     H85837   7.189  -0.504   8.414 -1.2473 -0.2338  0.8529
  636MOL0     H85838   6.962  -0.632   8.248  0.0637 -1.6968  0.7167
  636MOL0     H85839   7.006  -0.645   8.420 -2.2729  2.1383 -0.1178
  636MOL0     H85840   7.215  -0.753   8.357  1.8807 -1.1215 -2.3077
  636MOL0     H85841   7.181  -0.754   8.197  3.4765 -1.5907  1.4521
  636MOL0     H85842   7.172   0.264   8.367 -0.2657  0.3223 -4.7047
  636MOL0     H85843   7.298   0.378   8.194  0.8227  0.6132 -0.6451
  636MOL0     H85844   7.660   0.537   7.990 -0.5204 -0.6989 -0.2579
  636MOL0     H85845   7.856   0.593   7.822  1.9663 -1.2129  0.3322
  636MOL0     H85846   6.776   1.365   6.821 -1.8668 -1.2176 -1.3133
  636MOL0     H85847   6.767   1.611   6.752 -1.2952 -0.2277  0.7935
  636MOL0     H85848   6.763   1.940   6.569  1.1426 -1.1034 -0.0412
  636MOL0     H85849   6.696   2.168   6.509  0.3749 -1.4129  1.2170
  636MOL0     H85850   6.530   2.244   6.081 -1.6544 -1.9380  0.1082
  636MOL0     H85851   6.415   2.177   6.195 -2.3599  1.5015  0.9697
  636MOL0     H85852   6.487   2.455   6.141 -1.5241  1.0581  0.3494
  636MOL0     H85853   6.381   2.415   6.278  0.7978  0.2573  1.1750
  636MOL0     H85854   6.222   2.321   6.111 -1.1770  0.4266 -2.1087
  636MOL0     H85855   6.330   2.375   5.981 -0.0547 -0.4014  0.7469
  636MOL0     H85856   6.163   2.542   6.009  1.8980 -0.6021 -1.4922
  636MOL0     H85857   6.322   2.607   6.042  2.7406 -1.2214  2.5637
  636MOL0     H85858   6.112   2.681   6.399  6.0690  2.7027  1.2204
  636MOL0     H85859   6.618   2.042   6.106 -3.6125  0.2196  1.5597
  636MOL0     H85860   6.692   1.825   6.155 -4.1996  0.1462 -0.3084
  637MOL0     O85861   1.055   5.683   1.071 -0.7846  0.0705  0.2600
  637MOL0     C85862   1.040   5.789   1.019  0.2834  1.3473 -0.1716
  637MOL0     O85863   0.977   5.891   1.078 -0.2517  0.2095  0.3632
  637MOL0     C85864   0.917   5.863   1.198 -0.2180 -0.1876 -0.1686
  637MOL0     C85865   0.785   5.830   1.201  0.1806 -0.2978  0.4199
  637MOL0     C85866   0.730   5.796   1.327  0.2588 -0.0316  0.0750
  637MOL0     C85867   0.801   5.810   1.442  0.3169 -0.2291  0.6874
  637MOL0     O85868   0.735   5.778   1.562  0.4683  0.2542  0.2514
  637MOL0     C85869   0.699   5.899   1.635 -1.0633 -0.8584 -0.0956
  637MOL0     C85870   0.600   5.857   1.746  0.1136 -0.2614  0.2652
  637MOL0     C85871   0.486   5.781   1.677 -0.6001 -0.7580 -0.2236
  637MOL0     C85872   0.375   5.760   1.776 -0.1652  0.6261 -0.0308
  637MOL0     C85873   0.259   5.676   1.710 -0.4182 -0.3077  0.4502
  637MOL0     C85874   0.281   5.537   1.662 -0.1775 -0.1937 -0.9007
  637MOL0     C85875   0.294   5.430   1.778  0.3833 -0.2540 -0.8351
  637MOL0     C85876   0.184   5.424   1.882 -0.4398  1.0331  0.2581
  637MOL0     N85877   0.058   5.413   1.822  0.1564  0.5694 -0.6351
  637MOL0     C85878   0.003   5.294   1.781  0.5574  0.0358 -0.0874
  637MOL0     C85879  -0.124   5.329   1.760  0.7853 -0.7238  0.0550
  637MOL0     C85880  -0.242   5.245   1.713 -1.2776  0.7139 -0.0528
  637MOL0     C85881  -0.339   5.216   1.832 -0.2752 -0.8621 -0.2001
  637MOL0     C85882  -0.451   5.129   1.779  0.3387  0.6459  0.7722
  637MOL0     C85883  -0.553   5.125   1.883 -0.2299  0.9893  0.5309
  637MOL0     O85884  -0.671   5.057   1.836  0.1483 -0.2289 -0.7983
  637MOL0     C85885  -0.781   5.054   1.917  0.0854 -0.9324  1.3341
  637MOL0     C85886  -0.892   4.996   1.852 -0.4125  1.0185 -0.7809
  637MOL0     C85887  -1.024   4.983   1.910  0.5832  0.1655  0.1198
  637MOL0     C85888  -1.123   4.897   1.821 -0.3131  0.1689 -0.2773
  637MOL0     C85889  -1.043   5.045   2.045  0.2257 -0.8123 -0.5795
  637MOL0     C85890  -1.170   5.042   2.117 -0.4855 -0.2107 -1.1057
  637MOL0     O85891  -1.178   5.113   2.226  0.3130 -0.0341 -0.5773
  637MOL0     C85892  -1.294   5.129   2.297  0.2904 -0.4204  1.4266
  637MOL0     C85893  -1.322   5.026   2.388  0.4101  0.1121 -0.0638
  637MOL0     C85894  -1.444   5.032   2.456  0.5465 -0.9502  0.1052
  637MOL0     C85895  -1.527   5.147   2.441 -0.3411 -0.3332  0.0213
  637MOL0     O85896  -1.646   5.155   2.509  0.0473 -0.5444  0.5336
  637MOL0     C85897  -1.685   5.067   2.616  0.3506  0.1885  0.2306
  637MOL0     C85898  -1.831   5.096   2.652  0.1749  0.1673 -0.6767
  637MOL0     C85899  -1.942   5.092   2.546  0.4727  1.1310 -0.8978
  637MOL0     C85900  -1.959   4.951   2.494 -0.1090  0.0743 -0.3354
  637MOL0     C85901  -2.089   4.935   2.418  0.3219  0.0942  0.0841
  637MOL0     C85902  -2.209   4.912   2.514  0.6428 -0.3990  0.3477
  637MOL0     C85903  -2.317   4.833   2.442  0.1517  0.3671 -1.1383
  637MOL0     C85904  -2.442   4.836   2.528  0.0024 -0.5064  0.2225
  637MOL0    Cl85905  -2.567   4.759   2.430  0.1092 -0.1112  1.0401
  637MOL0     C85906  -1.489   5.252   2.362 -0.1266  0.1269  0.2714
  637MOL0     C85907  -1.373   5.243   2.288  1.1170 -0.2885 -0.0011
  637MOL0     O85908  -1.266   4.988   2.065  0.6603  0.2097  0.3634
  637MOL0     C85909  -0.931   5.110   2.095 -0.0024 -0.6622 -0.6576
  637MOL0     C85910  -0.807   5.121   2.032  0.2037 -1.0302 -0.2344
  637MOL0     N85911  -0.144   5.464   1.791  0.0077  0.3821  0.3136
  637MOL0     N85912  -0.030   5.514   1.829 -0.3267  0.0154 -0.3265
  637MOL0     C85913   0.934   5.854   1.437 -0.6118  0.8012  0.4552
  637MOL0     C85914   0.991   5.878   1.312  0.4096  0.0727  0.2121
  637MOL0     C85915   1.109   5.815   0.888 -0.4979 -0.5009  0.3425
  637MOL0     C85916   1.090   5.934   0.815  0.0112  0.0370  0.0899
  637MOL0     C85917   1.168   5.968   0.704 -0.0098 -0.6929  0.5749
  637MOL0     C85918   1.271   5.879   0.658 -0.0860  0.3385  0.7365
  637MOL0     O85919   1.356   5.892   0.550  0.2221  0.1744  0.1857
  637MOL0     C85920   1.321   5.988   0.451 -0.9834 -0.5753  0.5757
  637MOL0     C85921   1.436   6.086   0.451  0.1605 -0.0911  0.2491
  637MOL0     C85922   1.452   6.179   0.336 -0.4042  0.3526 -0.3747
  637MOL0     C85923   1.571   6.273   0.346 -0.9071 -0.4172 -0.0076
  637MOL0     C85924   1.694   6.213   0.296  0.4925  0.2337  0.5339
  637MOL0     C85925   1.803   6.175   0.253 -0.6656 -0.3014 -0.0420
  637MOL0     C85926   1.285   5.759   0.727 -0.9942 -0.1011 -0.1227
  637MOL0     C85927   1.207   5.731   0.836  0.7283 -0.6347  0.2511
  637MOL0     H85928   0.734   5.840   1.105  3.6285 -1.3289 -1.7211
  637MOL0     H85929   0.626   5.771   1.344  0.2570  0.8592  1.5140
  637MOL0     H85930   0.797   5.933   1.670  0.0662 -1.0210 -2.8599
  637MOL0     H85931   0.657   5.977   1.571  0.7054 -1.3545 -1.9653
  637MOL0     H85932   0.643   5.784   1.815 -1.5579  1.8479  3.8299
  637MOL0     H85933   0.561   5.946   1.797 -1.1483  0.0498 -1.1514
  637MOL0     H85934   0.455   5.828   1.583  1.2940  0.2128 -0.4159
  637MOL0     H85935   0.532   5.689   1.641 -0.3627 -0.5789 -0.3790
  637MOL0     H85936   0.409   5.709   1.866 -1.2070  1.0489  0.6194
  637MOL0     H85937   0.335   5.856   1.811  1.1734  0.3307  2.4994
  637MOL0     H85938   0.159   5.687   1.752 -0.7032 -2.1732  0.3277
  637MOL0     H85939   0.251   5.723   1.611  0.3535 -1.7234 -0.3136
  637MOL0     H85940   0.197   5.515   1.596 -0.7667  2.2081 -1.0424
  637MOL0     H85941   0.366   5.538   1.593 -0.4218 -0.5972 -1.2160
  637MOL0     H85942   0.311   5.336   1.724  1.8287  0.1423 -1.1065
  637MOL0     H85943   0.388   5.444   1.833  0.3285  1.7689 -1.2107
  637MOL0     H85944   0.183   5.515   1.943  0.1154  0.9314  0.4289
  637MOL0     H85945   0.206   5.338   1.946 -2.6372  0.5798  0.4705
  637MOL0     H85946   0.042   5.193   1.782  1.6041  0.3837  2.4803
  637MOL0     H85947  -0.313   5.297   1.648 -1.9387  3.5786  2.6851
  637MOL0     H85948  -0.202   5.159   1.659  3.1453  1.7720  1.0962
  637MOL0     H85949  -0.379   5.315   1.857  1.0130 -0.9324  2.5427
  637MOL0     H85950  -0.287   5.182   1.921 -1.3319  0.1837  0.8576
  637MOL0     H85951  -0.413   5.032   1.745  1.3439  1.5628 -0.8522
  637MOL0     H85952  -0.500   5.176   1.693 -1.2820 -0.0562  1.2803
  637MOL0     H85953  -0.586   5.226   1.909 -2.0810  0.4605  0.3869
  637MOL0     H85954  -0.509   5.071   1.967 -2.9633  1.0016  2.0820
  637MOL0     H85955  -0.880   4.959   1.751  1.3537 -0.2175 -0.1746
  637MOL0     H85956  -1.131   4.805   1.881 -0.5131  1.3134  1.5348
  637MOL0     H85957  -1.222   4.944   1.821 -2.3763 -3.6838  0.2696
  637MOL0     H85958  -1.079   4.874   1.724  1.0027  1.2702  0.0294
  637MOL0     H85959  -1.248   4.947   2.397  1.7829  1.2864 -0.5410
  637MOL0     H85960  -1.465   4.954   2.528  1.0380 -1.2997 -0.1243
  637MOL0     H85961  -1.672   4.959   2.605 -0.6368  0.1859 -1.1285
  637MOL0     H85962  -1.630   5.086   2.709 -1.6735  3.3924  0.9371
  637MOL0     H85963  -1.853   5.029   2.735 -2.1598  2.1430  0.4203
  637MOL0     H85964  -1.841   5.194   2.701 -2.2858 -0.9990  1.3562
  637MOL0     H85965  -1.922   5.152   2.457  2.0822 -0.8616 -1.9694
  637MOL0     H85966  -2.038   5.129   2.583 -1.0348 -1.7957 -1.5768
  637MOL0     H85967  -1.876   4.932   2.426 -0.9505  0.2113 -1.4384
  637MOL0     H85968  -1.960   4.881   2.578 -2.1247  1.9952  1.3692
  637MOL0     H85969  -2.089   4.844   2.356 -1.4495  0.2705 -0.2342
  637MOL0     H85970  -2.102   5.015   2.345 -3.0859 -0.6421 -0.2745
  637MOL0     H85971  -2.178   4.854   2.602 -0.1634 -1.4685 -0.0479
  637MOL0     H85972  -2.248   5.008   2.547 -0.0736 -0.9665  1.1848
  637MOL0     H85973  -2.279   4.731   2.434  3.7097  1.3436  1.0728
  637MOL0     H85974  -2.336   4.870   2.341 -1.2744  1.9485 -0.3409
  637MOL0     H85975  -2.481   4.937   2.547  1.0739 -0.3075  1.5185
  637MOL0     H85976  -2.430   4.792   2.627 -1.2950  3.7512  2.5428
  637MOL0     H85977  -1.547   5.341   2.342  2.0054  1.3435 -0.8557
  637MOL0     H85978  -1.354   5.325   2.219 -1.7171  0.4907  0.0454
  637MOL0     H85979  -0.937   5.161   2.191  3.3619 -1.9409  0.3647
  637MOL0     H85980  -0.730   5.175   2.086  2.3651 -1.5803 -2.5512
  637MOL0     H85981   0.988   5.878   1.529  2.7829  0.1733 -1.2204
  637MOL0     H85982   1.087   5.925   1.291  0.0372  0.3304 -1.0112
  637MOL0     H85983   1.015   6.000   0.857 -0.2075 -1.1046  1.5796
  637MOL0     H85984   1.136   6.064   0.663  0.4062  0.1272  2.0921
  637MOL0     H85985   1.321   5.936   0.355 -1.6529  1.1246 -0.3883
  637MOL0     H85986   1.230   6.048   0.467  0.0245  1.9745 -2.2686
  637MOL0     H85987   1.533   6.036   0.461  1.3596  1.7137 -1.5960
  637MOL0     H85988   1.416   6.143   0.542 -3.4880  0.4055 -0.6906
  637MOL0     H85989   1.361   6.241   0.329  0.7473  2.2468  0.4979
  637MOL0     H85990   1.464   6.119   0.246  0.0446  1.5111 -1.1149
  637MOL0     H85991   1.579   6.313   0.447 -1.0113  0.5592 -0.3671
  637MOL0     H85992   1.549   6.356   0.278  0.1560 -0.9880 -1.0952
  637MOL0     H85993   1.907   6.152   0.237 -0.4874  0.2064  0.3634
  637MOL0     H85994   1.355   5.684   0.693 -0.5392 -1.2438  3.0310
  637MOL0     H85995   1.208   5.629   0.873  0.5494 -1.2295 -1.3223
  638MOL0     O85996   4.702   6.056   7.444  0.4473  0.9034  0.2288
  638MOL0     C85997   4.713   5.956   7.374  0.0276 -0.4295  0.1150
  638MOL0     O85998   4.671   5.950   7.244 -1.0117 -0.2035 -0.3027
  638MOL0     C85999   4.564   6.024   7.198 -1.3887 -0.7743 -1.3446
  638MOL0     C86000   4.556   6.036   7.059 -0.2716 -0.3610  0.6752
  638MOL0     C86001   4.452   6.116   7.010  0.3806  0.4941 -1.0967
  638MOL0     C86002   4.351   6.170   7.101 -0.5452  0.3679  0.5397
  638MOL0     O86003   4.239   6.236   7.054  0.3784 -0.8011 -0.3022
  638MOL0     C86004   4.203   6.221   6.911  0.2940  0.3320  0.2558
  638MOL0     C86005   4.086   6.310   6.882 -0.9590  0.3165  0.6886
  638MOL0     C86006   4.058   6.306   6.729  0.8002 -0.0182  0.8937
  638MOL0     C86007   3.913   6.340   6.692  0.2461  0.6428 -0.1437
  638MOL0     C86008   3.903   6.371   6.540 -0.0413  0.0601 -0.3511
  638MOL0     C86009   3.761   6.396   6.500  0.5903 -0.0965 -0.0900
  638MOL0     C86010   3.741   6.431   6.350 -0.0735 -0.7694 -0.0094
  638MOL0     C86011   3.607   6.376   6.294 -0.5022  0.4318 -0.0083
  638MOL0     N86012   3.515   6.464   6.225  0.0444 -0.3336  0.4681
  638MOL0     C86013   3.395   6.431   6.174  1.2042  0.4263  1.0741
  638MOL0     C86014   3.331   6.547   6.133 -0.0686  0.2608  0.8183
  638MOL0     C86015   3.194   6.564   6.082 -0.3379 -0.2728  0.3149
  638MOL0     C86016   3.173   6.680   5.983  0.7072 -0.2414  0.1498
  638MOL0     C86017   3.142   6.828   6.035  0.2226 -0.1879 -0.4867
  638MOL0     C86018   3.010   6.843   6.109  0.8211 -0.2385 -0.8584
  638MOL0     O86019   2.914   6.864   6.008  0.0117  0.1531  0.4232
  638MOL0     C86020   2.770   6.858   6.041 -0.0069  0.6937  0.5551
  638MOL0     C86021   2.685   6.843   5.931  0.6659  0.3537 -0.1354
  638MOL0     C86022   2.547   6.839   5.953  0.0892 -0.9036  0.1098
  638MOL0     C86023   2.450   6.830   5.836 -0.4919 -0.0775 -0.0856
  638MOL0     C86024   2.502   6.836   6.094 -0.2852 -0.1693 -0.1127
  638MOL0     C86025   2.366   6.852   6.144 -0.0971 -0.7477  0.5721
  638MOL0     O86026   2.284   6.912   6.062  0.3544 -0.3247  0.1972
  638MOL0     C86027   2.154   6.949   6.093  0.5159  0.2241 -1.4184
  638MOL0     C86028   2.064   6.949   5.985 -0.4989 -0.8010 -0.6387
  638MOL0     C86029   1.932   6.995   5.993 -0.0410 -0.3267  0.3180
  638MOL0     C86030   1.884   7.029   6.120  0.5521 -0.6143  0.3764
  638MOL0     O86031   1.753   7.063   6.132  0.5657 -0.1888  0.1276
  638MOL0     C86032   1.702   7.138   6.010 -0.2234  0.2792  0.3549
  638MOL0     C86033   1.574   7.216   6.055 -0.0361 -0.1928  0.2938
  638MOL0     C86034   1.526   7.318   5.956  0.4657  0.6134 -1.2969
  638MOL0     C86035   1.423   7.266   5.858 -0.2917 -0.1730 -0.3533
  638MOL0     C86036   1.413   7.367   5.737  0.3897 -0.3879  0.0953
  638MOL0     C86037   1.285   7.342   5.642 -0.1029 -0.4760  0.1294
  638MOL0     C86038   1.148   7.375   5.698 -0.3112 -1.3059 -0.5811
  638MOL0     C86039   1.046   7.333   5.595 -0.9100 -0.1891 -0.2709
  638MOL0    Cl86040   0.883   7.366   5.671 -0.2327 -0.0113  0.5261
  638MOL0     C86041   1.971   7.013   6.232 -0.5708 -0.4278 -0.2196
  638MOL0     C86042   2.106   6.979   6.221  0.1760  0.3321 -0.1210
  638MOL0     O86043   2.329   6.798   6.247  0.4697  0.5066 -1.1027
  638MOL0     C86044   2.591   6.857   6.197 -0.4998  0.8108 -0.1213
  638MOL0     C86045   2.729   6.868   6.175  0.9716 -1.0873  0.7064
  638MOL0     N86046   3.432   6.645   6.139 -0.7676  0.1100  1.3674
  638MOL0     N86047   3.543   6.590   6.186 -0.1109 -0.3743 -0.3544
  638MOL0     C86048   4.364   6.151   7.238 -0.0015 -0.6192  0.3122
  638MOL0     C86049   4.468   6.079   7.282  0.2494  0.6364 -0.7544
  638MOL0     C86050   4.787   5.841   7.431 -0.2700 -0.0331 -0.1771
  638MOL0     C86051   4.811   5.732   7.346  0.2794 -0.0839 -0.2299
  638MOL0     C86052   4.883   5.630   7.395  0.7625 -0.0136 -0.0819
  638MOL0     C86053   4.920   5.623   7.534  0.7637 -0.7130  0.3342
  638MOL0     O86054   4.984   5.516   7.579  0.5865 -0.3448 -0.2754
  638MOL0     C86055   5.039   5.510   7.723  0.2948  1.8203  0.3831
  638MOL0     C86056   5.100   5.371   7.732  0.1068 -0.6440  0.3634
  638MOL0     C86057   4.998   5.256   7.707  0.1634 -1.0069 -0.1278
  638MOL0     C86058   5.035   5.126   7.772 -0.1081  0.3166  0.1304
  638MOL0     C86059   4.931   5.026   7.742  0.9946  0.3743 -0.4485
  638MOL0     C86060   4.853   4.935   7.713  0.0052 -0.1662  0.4321
  638MOL0     C86061   4.887   5.737   7.615 -0.3978  0.9696  0.4713
  638MOL0     C86062   4.827   5.845   7.567  0.4419 -0.2442  0.9090
  638MOL0     H86063   4.628   5.983   6.998 -1.6396 -0.7692 -0.6520
  638MOL0     H86064   4.448   6.122   6.902 -2.2913 -1.6319 -1.2101
  638MOL0     H86065   4.287   6.256   6.850  0.7447  3.8292  2.5901
  638MOL0     H86066   4.170   6.122   6.876 -2.8041  1.0099  0.9353
  638MOL0     H86067   3.992   6.283   6.930 -2.8224  1.9320 -1.8341
  638MOL0     H86068   4.123   6.410   6.909  1.7756 -0.7052  1.0289
  638MOL0     H86069   4.125   6.370   6.670  0.4268 -1.0979 -0.7722
  638MOL0     H86070   4.076   6.212   6.677 -2.9696 -0.2279 -0.3513
  638MOL0     H86071   3.851   6.255   6.721 -1.0126  1.5455 -0.0622
  638MOL0     H86072   3.888   6.434   6.743  2.9743 -0.5758  3.9465
  638MOL0     H86073   3.949   6.469   6.531 -1.5353  0.8620  0.3803
  638MOL0     H86074   3.957   6.300   6.476  1.9642  1.0630  0.1465
  638MOL0     H86075   3.720   6.298   6.527  3.1431 -1.7349 -1.7781
  638MOL0     H86076   3.710   6.473   6.559  3.6083 -0.2389  3.0809
  638MOL0     H86077   3.751   6.537   6.328 -0.7926 -0.7487 -0.2568
  638MOL0     H86078   3.833   6.384   6.313 -1.1762 -4.4476  1.4420
  638MOL0     H86079   3.553   6.327   6.375 -2.3418 -1.3464 -2.1480
  638MOL0     H86080   3.638   6.296   6.225  1.6069  0.1934  1.1281
  638MOL0     H86081   3.353   6.331   6.173 -1.6243  1.5047  1.8731
  638MOL0     H86082   3.174   6.465   6.039  0.9658 -1.0523  1.4061
  638MOL0     H86083   3.120   6.580   6.161 -3.3365  0.0349 -2.3744
  638MOL0     H86084   3.092   6.644   5.918  1.3194 -2.8132  0.6924
  638MOL0     H86085   3.251   6.690   5.907 -0.4883 -1.4688 -1.3092
  638MOL0     H86086   3.150   6.904   5.956 -0.9930  0.7738  0.2852
  638MOL0     H86087   3.221   6.850   6.107 -0.3684  4.1357 -0.8897
  638MOL0     H86088   3.007   6.924   6.183  0.0936 -1.3719  0.4012
  638MOL0     H86089   2.994   6.754   6.171 -2.1493 -0.0355 -1.1835
  638MOL0     H86090   2.723   6.834   5.830  1.3994 -2.2766  0.3098
  638MOL0     H86091   2.490   6.852   5.736 -0.2837  0.4362  0.1077
  638MOL0     H86092   2.397   6.735   5.828  1.3751 -1.2120  0.3496
  638MOL0     H86093   2.379   6.911   5.854  1.8373  1.6884  1.8574
  638MOL0     H86094   2.107   6.928   5.887  3.3182  2.8685 -0.0269
  638MOL0     H86095   1.874   6.994   5.902  2.1116 -1.1929 -1.1500
  638MOL0     H86096   1.779   7.210   5.981  0.4454 -1.4380 -2.5945
  638MOL0     H86097   1.682   7.075   5.923 -2.2850  1.7862 -0.3215
  638MOL0     H86098   1.495   7.150   6.091  0.3911 -1.9996 -1.8564
  638MOL0     H86099   1.601   7.279   6.141 -0.1107 -0.3299  0.4174
  638MOL0     H86100   1.613   7.362   5.907  2.2002 -1.7118 -0.4495
  638MOL0     H86101   1.478   7.396   6.016 -2.9701 -2.7456  0.7952
  638MOL0     H86102   1.454   7.174   5.808 -1.4624  0.2546 -1.9624
  638MOL0     H86103   1.333   7.264   5.920  0.2078  3.8358  0.7666
  638MOL0     H86104   1.501   7.361   5.672 -0.1988  3.3692 -1.3237
  638MOL0     H86105   1.417   7.469   5.777  0.9729 -1.2203  2.2632
  638MOL0     H86106   1.296   7.406   5.554 -0.3632  0.4958  0.7846
  638MOL0     H86107   1.283   7.239   5.604 -3.9964  0.5187 -3.0209
  638MOL0     H86108   1.148   7.483   5.714  1.6415 -0.9142 -2.7414
  638MOL0     H86109   1.137   7.342   5.802  2.1319  0.9161  0.4845
  638MOL0     H86110   1.059   7.229   5.566  1.1408  0.6138 -2.6119
  638MOL0     H86111   1.068   7.395   5.507  2.1847  0.8228  1.0512
  638MOL0     H86112   1.929   7.026   6.331  0.6529 -1.8001  0.5258
  638MOL0     H86113   2.164   6.987   6.312 -0.3440 -0.2539  0.2670
  638MOL0     H86114   2.561   6.869   6.300  1.0752 -1.4715  0.7038
  638MOL0     H86115   2.794   6.888   6.259 -0.9617 -0.5796  2.1733
  638MOL0     H86116   4.299   6.192   7.315  0.4463 -0.3486  0.5438
  638MOL0     H86117   4.478   6.071   7.389 -2.3005 -0.6360 -0.5303
  638MOL0     H86118   4.776   5.739   7.243 -1.9393  0.3432  0.4861
  638MOL0     H86119   4.906   5.551   7.324  3.7229  0.7246 -0.0772
  638MOL0     H86120   5.108   5.592   7.747  1.1740  0.4558  2.9728
  638MOL0     H86121   4.954   5.527   7.790  0.2704  0.8983  0.6024
  638MOL0     H86122   5.147   5.372   7.831 -0.4647  0.0302  0.6445
  638MOL0     H86123   5.178   5.354   7.657  2.1858  0.4690  2.1589
  638MOL0     H86124   4.986   5.246   7.598  0.7353 -3.6821 -0.0069
  638MOL0     H86125   4.908   5.290   7.759  0.0270 -2.3151  0.5200
  638MOL0     H86126   5.046   5.134   7.881 -1.1048 -0.7677  0.3175
  638MOL0     H86127   5.134   5.091   7.740  0.6955  0.8703  1.8432
  638MOL0     H86128   4.768   4.869   7.707 -0.7521  0.6615  1.6522
  638MOL0     H86129   4.914   5.732   7.720  3.4976 -1.6786 -0.4151
  638MOL0     H86130   4.812   5.932   7.630  1.8293  0.7247 -0.0193
  639MOL0     O86131   5.040  10.373   9.282  0.1531  0.2346 -0.9757
  639MOL0     C86132   5.115  10.353   9.376 -0.4030  0.1457 -0.8905
  639MOL0     O86133   5.137  10.227   9.438 -0.5919  0.7089  0.1366
  639MOL0     C86134   5.128  10.112   9.360  0.3321 -0.3824  0.5902
  639MOL0     C86135   5.143  10.114   9.221 -0.1317  0.6818  0.5909
  639MOL0     C86136   5.135  10.000   9.140  0.4287 -0.1459 -0.0335
  639MOL0     C86137   5.116   9.878   9.204 -1.0688  0.3626 -0.2590
  639MOL0     O86138   5.120   9.765   9.124 -0.9770 -0.1616 -0.3115
  639MOL0     C86139   5.075   9.643   9.183 -0.1145  0.1717 -0.1330
  639MOL0     C86140   5.101   9.530   9.082 -0.4148 -0.1956  0.0519
  639MOL0     C86141   5.064   9.383   9.137 -0.1907 -0.4228  1.0097
  639MOL0     C86142   4.908   9.365   9.166 -0.5657 -0.2931  0.0869
  639MOL0     C86143   4.897   9.218   9.226  0.2699 -1.1985 -0.8961
  639MOL0     C86144   4.751   9.189   9.244 -0.3686  0.8038  0.2583
  639MOL0     C86145   4.729   9.071   9.339 -0.4231 -0.2359 -0.9394
  639MOL0     C86146   4.778   9.084   9.480 -0.1821 -0.9327 -0.6989
  639MOL0     N86147   4.728   8.993   9.588 -0.1865 -0.3715  0.6896
  639MOL0     C86148   4.623   8.903   9.576  0.1845 -1.2277  1.1461
  639MOL0     C86149   4.617   8.827   9.688  0.4010  1.0853 -0.5894
  639MOL0     C86150   4.518   8.720   9.717 -0.6441  1.2126  1.3283
  639MOL0     C86151   4.420   8.757   9.824 -0.0204 -0.2063 -1.5717
  639MOL0     C86152   4.314   8.856   9.787 -0.9104 -0.4304  0.8917
  639MOL0     C86153   4.229   8.885   9.910 -0.1225 -0.1843 -0.4347
  639MOL0     O86154   4.163   8.766   9.956  0.3664  0.9075  0.7717
  639MOL0     C86155   4.047   8.781  10.029 -0.3256 -0.1767 -0.1029
  639MOL0     C86156   3.974   8.665  10.054  1.1584  0.7516  0.2792
  639MOL0     C86157   3.850   8.666  10.115 -0.5300 -1.3138  0.4904
  639MOL0     C86158   3.764   8.552  10.099  0.1043  0.0766  0.1749
  639MOL0     C86159   3.812   8.783  10.180  1.4603  0.4078 -0.7278
  639MOL0     C86160   3.687   8.791  10.269  0.3970  0.8809  0.0743
  639MOL0     O86161   3.639   8.677  10.326  0.1202 -0.2526  0.7347
  639MOL0     C86162   3.514   8.669  10.382 -0.3137 -0.3460  0.2619
  639MOL0     C86163   3.500   8.608  10.507 -0.0188 -0.2876  0.2240
  639MOL0     C86164   3.372   8.583  10.549  0.6009 -0.7369  0.4413
  639MOL0     C86165   3.261   8.596  10.462 -0.0057  0.1782 -0.5652
  639MOL0     O86166   3.135   8.573  10.524 -0.5160 -0.7610 -0.4828
  639MOL0     C86167   3.019   8.553  10.440 -0.1443  0.0524  1.3654
  639MOL0     C86168   2.909   8.496  10.520  0.7329 -0.3751 -0.0698
  639MOL0     C86169   2.852   8.591  10.627 -0.0220 -0.0208  0.3806
  639MOL0     C86170   2.754   8.503  10.714 -0.5535  0.8346 -0.7677
  639MOL0     C86171   2.689   8.591  10.831 -0.5787 -0.8714 -0.6237
  639MOL0     C86172   2.784   8.599  10.950  0.0190 -0.2842 -0.3017
  639MOL0     C86173   2.726   8.633  11.089 -0.2988  0.0755 -0.2412
  639MOL0     C86174   2.837   8.684  11.189 -0.3549 -0.4364  0.6209
  639MOL0    Cl86175   2.896   8.550  11.288  0.1654 -0.2098  0.1381
  639MOL0     C86176   3.273   8.658  10.346 -0.1600  0.1824  0.1155
  639MOL0     C86177   3.400   8.696  10.304 -0.9645 -0.7153 -0.2966
  639MOL0     O86178   3.643   8.903  10.296 -0.6630  0.3115  0.2607
  639MOL0     C86179   3.883   8.896  10.164  0.8839  0.4135 -0.2289
  639MOL0     C86180   4.000   8.902  10.092 -0.7631  0.3771 -0.7480
  639MOL0     N86181   4.727   8.867   9.760  0.6192 -0.2907 -0.5069
  639MOL0     N86182   4.789   8.966   9.706  0.1881 -0.2745  0.5711
  639MOL0     C86183   5.105   9.878   9.345 -0.2707 -0.1790 -0.1039
  639MOL0     C86184   5.104   9.994   9.421  0.0330 -0.6252  0.2068
  639MOL0     C86185   5.163  10.473   9.453 -0.1833 -0.2648 -0.5989
  639MOL0     C86186   5.275  10.459   9.533 -0.5657 -0.6837  0.5000
  639MOL0     C86187   5.317  10.566   9.610  0.6601 -0.1457  0.3833
  639MOL0     C86188   5.265  10.699   9.597  0.4438 -0.3106 -0.1776
  639MOL0     O86189   5.313  10.812   9.652 -0.3561  0.6742  0.1240
  639MOL0     C86190   5.444  10.801   9.706 -0.0450  0.2889 -0.3965
  639MOL0     C86191   5.440  10.753   9.851  0.2986 -0.2501  0.7221
  639MOL0     C86192   5.574  10.711   9.910 -0.2175 -0.5281 -0.6426
  639MOL0     C86193   5.684  10.813   9.874  0.4187  0.0419  0.2698
  639MOL0     C86194   5.799  10.804   9.956 -0.1030  0.2036  0.8189
  639MOL0     C86195   5.893  10.793  10.032 -0.0141 -0.7446  0.6895
  639MOL0     C86196   5.151  10.715   9.511 -0.6361  0.1593 -0.9074
  639MOL0     C86197   5.104  10.602   9.443 -0.2323  0.1539  0.2969
  639MOL0     H86198   5.174  10.207   9.173  3.9097 -1.1042 -0.6560
  639MOL0     H86199   5.141  10.012   9.032  1.2063  1.4414  0.1597
  639MOL0     H86200   5.128   9.611   9.274  1.2593  0.7111 -0.7155
  639MOL0     H86201   4.966   9.643   9.194 -0.6821  0.3143 -4.1997
  639MOL0     H86202   5.037   9.556   8.996 -2.5114 -0.5590  1.4271
  639MOL0     H86203   5.204   9.536   9.045 -0.7550 -2.2047 -1.4066
  639MOL0     H86204   5.109   9.317   9.062 -0.9851  0.5423 -0.3623
  639MOL0     H86205   5.115   9.369   9.233 -1.4633 -1.2989  1.5897
  639MOL0     H86206   4.879   9.440   9.240  3.6194 -0.4864  2.2250
  639MOL0     H86207   4.841   9.374   9.080 -0.3782 -0.5400 -0.0859
  639MOL0     H86208   4.959   9.154   9.163  1.3884  0.3648 -1.4503
  639MOL0     H86209   4.944   9.218   9.324 -0.3845 -1.4016 -0.5752
  639MOL0     H86210   4.695   9.271   9.290  1.7808  1.5584  1.7037
  639MOL0     H86211   4.710   9.153   9.149 -1.1386  2.6502 -0.1614
  639MOL0     H86212   4.622   9.078   9.356  0.0420  1.9669  1.9105
  639MOL0     H86213   4.763   8.974   9.302 -2.7553 -0.9310 -1.3848
  639MOL0     H86214   4.765   9.186   9.516 -0.9504 -1.1951 -0.2012
  639MOL0     H86215   4.887   9.072   9.475  0.0066  0.5856 -0.5852
  639MOL0     H86216   4.565   8.907   9.484  1.1336  0.0879  0.5693
  639MOL0     H86217   4.474   8.695   9.620  2.3349  2.3348 -0.4254
  639MOL0     H86218   4.574   8.633   9.753  1.5872  1.9623 -0.1228
  639MOL0     H86219   4.476   8.793   9.911 -0.5777  1.9691 -2.0475
  639MOL0     H86220   4.377   8.670   9.874  1.0364  0.5039  0.7104
  639MOL0     H86221   4.247   8.818   9.709 -1.3550 -1.6684  1.8412
  639MOL0     H86222   4.354   8.951   9.752  1.6859 -1.4656  0.8354
  639MOL0     H86223   4.160   8.967   9.890  1.5741  1.3168 -0.3397
  639MOL0     H86224   4.287   8.926   9.993  0.6906 -0.7208 -0.7224
  639MOL0     H86225   4.001   8.568  10.012  2.0749  0.1984  2.0416
  639MOL0     H86226   3.787   8.489  10.013 -1.4641  2.1284 -1.8808
  639MOL0     H86227   3.770   8.482  10.182 -1.8908 -0.6706 -0.2391
  639MOL0     H86228   3.661   8.588  10.089  0.6026  1.3036 -0.8465
  639MOL0     H86229   3.585   8.582  10.569  0.5833  0.3475 -0.3173
  639MOL0     H86230   3.373   8.533  10.645 -0.6316 -2.3624 -0.3422
  639MOL0     H86231   2.984   8.642  10.387  1.6590 -0.2445 -0.4441
  639MOL0     H86232   3.050   8.487  10.359  0.2302  2.7579 -0.8434
  639MOL0     H86233   2.822   8.477  10.457 -2.2496 -1.2215  3.9609
  639MOL0     H86234   2.943   8.399  10.558  1.6987  0.1272  0.3938
  639MOL0     H86235   2.785   8.667  10.588 -1.3404 -2.0881 -1.6471
  639MOL0     H86236   2.933   8.644  10.679 -0.3654  1.8111 -0.8859
  639MOL0     H86237   2.682   8.451  10.652 -1.7232  1.6921 -0.1674
  639MOL0     H86238   2.810   8.423  10.764  1.9482  1.4126 -2.4826
  639MOL0     H86239   2.595   8.546  10.866 -0.7003  0.2063  0.4739
  639MOL0     H86240   2.661   8.692  10.801 -0.7828 -0.3420  1.2524
  639MOL0     H86241   2.839   8.506  10.965 -0.5245 -0.3550  1.5827
  639MOL0     H86242   2.859   8.675  10.926  0.5582 -0.4729  0.7184
  639MOL0     H86243   2.693   8.545  11.145  2.3926  0.5734  2.4495
  639MOL0     H86244   2.640   8.700  11.083 -1.8643 -1.5720  2.1394
  639MOL0     H86245   2.779   8.746  11.258  0.5023  1.7461 -0.5041
  639MOL0     H86246   2.922   8.738  11.145  0.1665 -2.4923 -1.0898
  639MOL0     H86247   3.192   8.697  10.286  1.5958  0.6628 -2.0991
  639MOL0     H86248   3.413   8.758  10.216  1.0490  0.1901  0.5608
  639MOL0     H86249   3.858   8.995  10.202  0.4808 -0.6950  2.6446
  639MOL0     H86250   4.067   8.987  10.090  1.4637 -1.2247  0.8231
  639MOL0     H86251   5.081   9.784   9.395  0.4486 -0.3755 -0.1160
  639MOL0     H86252   5.102  10.003   9.529 -1.3547 -0.0254  0.1495
  639MOL0     H86253   5.335  10.370   9.548  1.7013  0.8203  0.9266
  639MOL0     H86254   5.399  10.547   9.678  0.8232  2.8562  1.1331
  639MOL0     H86255   5.508  10.737   9.646 -0.7485  1.6089 -2.6849
  639MOL0     H86256   5.483  10.903   9.700 -0.1841  0.3930  0.3337
  639MOL0     H86257   5.358  10.682   9.862 -0.2610 -0.1899 -2.1780
  639MOL0     H86258   5.399  10.836   9.909  0.4262  2.6826 -3.0228
  639MOL0     H86259   5.598  10.616   9.861 -2.1122 -1.4978  0.1981
  639MOL0     H86260   5.573  10.694  10.018 -1.5847 -0.9503 -0.6957
  639MOL0     H86261   5.644  10.915   9.881  2.7574  0.9543  1.3469
  639MOL0     H86262   5.697  10.798   9.766 -2.3390 -0.8140 -0.0164
  639MOL0     H86263   5.974  10.785  10.103  0.2157  1.1205  0.6961
  639MOL0     H86264   5.105  10.813   9.503  4.0415  2.5198 -2.5419
  639MOL0     H86265   5.020  10.610   9.375 -1.5134  1.0660  1.8903
  640MOL0     O86266  10.018   0.287   6.707  0.1763  0.1618 -0.1569
  640MOL0     C86267   9.957   0.222   6.627  0.6396  0.0493  0.9531
  640MOL0     O86268   9.820   0.214   6.616  0.2856 -0.3696  0.0589
  640MOL0     C86269   9.741   0.296   6.682 -0.2494 -0.1082  1.1956
  640MOL0     C86270   9.704   0.421   6.621 -0.3533  0.6036 -0.6793
  640MOL0     C86271   9.624   0.502   6.700 -0.6130 -0.4169  0.1855
  640MOL0     C86272   9.596   0.475   6.834  0.0898 -0.2837 -1.2017
  640MOL0     O86273   9.513   0.564   6.902  0.4105 -0.2122  0.0953
  640MOL0     C86274   9.505   0.559   7.044 -0.6174 -1.1520  0.7884
  640MOL0     C86275   9.411   0.677   7.075 -0.0700  0.4141 -0.5063
  640MOL0     C86276   9.387   0.709   7.219 -0.3762  0.1890  0.3539
  640MOL0     C86277   9.360   0.585   7.305  0.0777  0.0810 -0.4191
  640MOL0     C86278   9.224   0.524   7.286 -0.5825  1.3841 -0.5958
  640MOL0     C86279   9.117   0.562   7.386  0.1294  0.1390 -0.4224
  640MOL0     C86280   9.114   0.715   7.412  0.5456 -0.3428  0.7384
  640MOL0     C86281   8.990   0.750   7.493 -1.0070  1.2846 -0.7146
  640MOL0     N86282   8.994   0.890   7.541 -0.5213 -0.1895  0.7124
  640MOL0     C86283   9.057   0.911   7.660  0.1288 -0.2428 -0.2363
  640MOL0     C86284   9.019   1.038   7.702  0.3098  0.1621 -0.4491
  640MOL0     C86285   9.068   1.108   7.831 -1.0960 -0.0010  0.9840
  640MOL0     C86286   8.964   1.061   7.938 -0.2029 -0.0254  1.2634
  640MOL0     C86287   9.014   1.056   8.084  0.0592  0.0260  0.3778
  640MOL0     C86288   8.900   1.004   8.176 -0.5520 -0.1869 -0.4191
  640MOL0     O86289   8.913   0.857   8.173  0.7349 -0.7190 -0.0920
  640MOL0     C86290   8.822   0.778   8.235  0.6968  0.0783  0.4522
  640MOL0     C86291   8.717   0.822   8.311  0.4401  0.0821 -0.5906
  640MOL0     C86292   8.628   0.732   8.369  0.4690  0.3510 -0.5137
  640MOL0     C86293   8.524   0.792   8.460  0.1312 -0.3492  0.4145
  640MOL0     C86294   8.628   0.597   8.347 -0.0389 -0.4744 -0.1941
  640MOL0     C86295   8.541   0.495   8.404  0.1634  1.0661 -0.2309
  640MOL0     O86296   8.561   0.369   8.354  0.7362 -0.0793 -0.6446
  640MOL0     C86297   8.494   0.264   8.403  1.0384  0.5367 -0.6550
  640MOL0     C86298   8.354   0.252   8.382 -0.2427 -0.4662 -0.4516
  640MOL0     C86299   8.291   0.143   8.442  0.1636 -0.2985  0.5528
  640MOL0     C86300   8.354   0.045   8.520 -0.3990  0.9667 -0.3463
  640MOL0     O86301   8.278  -0.051   8.578  0.1007  0.1698 -0.1032
  640MOL0     C86302   8.337  -0.176   8.621 -0.2422  0.3060  0.4398
  640MOL0     C86303   8.330  -0.185   8.772  0.0454 -0.1238 -0.0454
  640MOL0     C86304   8.390  -0.316   8.829 -0.1559  0.6115  0.0167
  640MOL0     C86305   8.349  -0.327   8.976 -0.0056 -0.5863 -0.0257
  640MOL0     C86306   8.375  -0.466   9.036 -0.3272 -0.4395  0.7339
  640MOL0     C86307   8.519  -0.514   9.028 -0.5827 -0.0234  0.7500
  640MOL0     C86308   8.532  -0.654   9.098  0.2552  0.0591  0.0502
  640MOL0     C86309   8.665  -0.722   9.060  0.2423 -0.3095  0.1682
  640MOL0    Cl86310   8.699  -0.875   9.149 -0.1495  0.0095  0.2780
  640MOL0     C86311   8.491   0.061   8.544 -0.0112 -0.0172 -0.4235
  640MOL0     C86312   8.555   0.174   8.497 -0.8547 -0.1984  0.4528
  640MOL0     O86313   8.440   0.528   8.466  0.2763  0.1265 -0.5094
  640MOL0     C86314   8.723   0.560   8.257 -0.0390  0.2141  0.5043
  640MOL0     C86315   8.812   0.645   8.203 -0.6571 -0.4571 -0.4673
  640MOL0     N86316   8.935   1.091   7.602 -0.7512 -0.2791  0.6415
  640MOL0     N86317   8.913   0.993   7.513 -0.3147 -0.1454 -0.4303
  640MOL0     C86318   9.643   0.355   6.890 -0.1726 -0.8542 -0.1608
  640MOL0     C86319   9.705   0.264   6.808 -0.5607  0.2624 -0.8355
  640MOL0     C86320  10.026   0.141   6.528  0.3846  0.5048 -0.0929
  640MOL0     C86321   9.951   0.046   6.458  0.3316  0.7268  0.8231
  640MOL0     C86322  10.013  -0.031   6.351  0.3045 -0.3644  0.4110
  640MOL0     C86323  10.152  -0.020   6.336  0.8514 -0.3735 -0.0923
  640MOL0     O86324  10.213  -0.116   6.262 -0.2022  0.0253  0.3393
  640MOL0     C86325  10.243  -0.073   6.126  0.6671 -0.7740 -0.0236
  640MOL0     C86326  10.163  -0.156   6.026 -0.4499  0.2640 -0.8961
  640MOL0     C86327  10.169  -0.127   5.875 -0.6478 -0.4390  0.1738
  640MOL0     C86328  10.090  -0.007   5.834  0.0527 -0.2773  0.4465
  640MOL0     C86329   9.945  -0.028   5.838  0.0604 -0.4828  0.3003
  640MOL0     C86330   9.826  -0.034   5.827  0.0747 -0.0348  0.2296
  640MOL0     C86331  10.232   0.071   6.409 -1.0815  0.6233  0.1638
  640MOL0     C86332  10.166   0.146   6.496  1.2163 -0.0064 -0.3927
  640MOL0     H86333   9.731   0.445   6.519  3.4024 -1.6010 -0.3842
  640MOL0     H86334   9.584   0.599   6.674 -1.1613 -0.6692  0.0766
  640MOL0     H86335   9.467   0.463   7.080 -3.1293 -0.7813 -0.6313
  640MOL0     H86336   9.603   0.578   7.088 -0.7880 -0.5622  0.9228
  640MOL0     H86337   9.450   0.759   7.014  1.6429 -0.0641 -0.1168
  640MOL0     H86338   9.314   0.649   7.035  0.0906 -2.8859  1.0814
  640MOL0     H86339   9.472   0.756   7.269  1.2820 -0.1781 -1.9642
  640MOL0     H86340   9.296   0.768   7.227  0.7272  1.8274  1.3689
  640MOL0     H86341   9.439   0.510   7.296 -1.1246 -1.0833 -1.5462
  640MOL0     H86342   9.369   0.608   7.412  1.3630  0.9516 -0.6901
  640MOL0     H86343   9.187   0.546   7.186 -2.0397 -0.5261 -0.5194
  640MOL0     H86344   9.241   0.417   7.275  3.1332  1.7608  0.0227
  640MOL0     H86345   9.015   0.534   7.356 -0.1708 -0.6377  1.2104
  640MOL0     H86346   9.127   0.503   7.477 -2.3461  1.1554  0.6307
  640MOL0     H86347   9.199   0.753   7.469 -0.3884  2.1603  0.5921
  640MOL0     H86348   9.109   0.775   7.321  0.0764  1.1497  1.7199
  640MOL0     H86349   8.968   0.688   7.580  0.9449  0.1594 -0.9545
  640MOL0     H86350   8.901   0.741   7.430 -2.2138  2.5509  0.7374
  640MOL0     H86351   9.123   0.837   7.703 -4.1810 -4.1852  0.4192
  640MOL0     H86352   9.165   1.062   7.853 -0.6936 -0.9858 -2.3901
  640MOL0     H86353   9.091   1.214   7.836  0.1961 -0.2380  0.4940
  640MOL0     H86354   8.929   0.961   7.910  0.0141  0.3005 -0.2300
  640MOL0     H86355   8.875   1.124   7.936 -0.6411 -0.6503 -0.0764
  640MOL0     H86356   9.037   1.160   8.109 -1.0935  0.7890 -1.4866
  640MOL0     H86357   9.110   1.004   8.092  1.5741  2.5410 -0.1415
  640MOL0     H86358   8.803   1.031   8.133 -0.6663 -2.0303 -1.4329
  640MOL0     H86359   8.919   1.040   8.277  2.6227 -0.6443 -0.7601
  640MOL0     H86360   8.701   0.928   8.328  2.5580  0.2149  0.9923
  640MOL0     H86361   8.519   0.901   8.467  2.8757  0.1533 -3.0577
  640MOL0     H86362   8.431   0.757   8.414  0.6907 -0.5833 -0.5595
  640MOL0     H86363   8.534   0.746   8.559  1.8887 -3.2903 -1.0284
  640MOL0     H86364   8.311   0.337   8.330  1.8720 -0.6323 -2.6714
  640MOL0     H86365   8.185   0.133   8.421  0.1873  0.1998  0.1738
  640MOL0     H86366   8.282  -0.252   8.565 -0.8478  1.6956 -0.9161
  640MOL0     H86367   8.440  -0.189   8.584 -0.9029  2.1101 -2.3353
  640MOL0     H86368   8.372  -0.094   8.815 -2.6090  0.5304  1.4012
  640MOL0     H86369   8.223  -0.181   8.791 -0.4891 -0.9524 -2.5159
  640MOL0     H86370   8.498  -0.321   8.813  0.0193 -2.6395  1.5386
  640MOL0     H86371   8.347  -0.406   8.784  0.0331 -0.0820  1.1906
  640MOL0     H86372   8.405  -0.251   9.033  0.2164  0.3373 -1.4117
  640MOL0     H86373   8.246  -0.295   8.998  0.3206  0.1280  0.5268
  640MOL0     H86374   8.314  -0.538   8.980  2.6167 -3.4868  1.0849
  640MOL0     H86375   8.342  -0.453   9.139 -2.8099  2.4647 -0.2942
  640MOL0     H86376   8.556  -0.515   8.925  1.3932 -1.2174  1.4108
  640MOL0     H86377   8.581  -0.443   9.084  0.5086 -2.1662  2.4386
  640MOL0     H86378   8.445  -0.713   9.066  0.0007  0.4583 -0.0094
  640MOL0     H86379   8.534  -0.633   9.205  2.4938  0.4576 -0.0211
  640MOL0     H86380   8.750  -0.658   9.085 -0.0759  0.5932 -0.9486
  640MOL0     H86381   8.674  -0.744   8.954 -0.1544 -1.5113  0.3658
  640MOL0     H86382   8.545  -0.011   8.603 -1.4967 -2.6221 -2.0543
  640MOL0     H86383   8.659   0.193   8.519 -1.2084  2.6311  0.1269
  640MOL0     H86384   8.727   0.458   8.221 -0.2127 -0.8117  3.1429
  640MOL0     H86385   8.890   0.616   8.132 -0.3497  0.1593 -0.3931
  640MOL0     H86386   9.614   0.327   6.991  1.1072  0.3519  0.5667
  640MOL0     H86387   9.737   0.167   6.844 -0.4198  0.6858  0.2090
  640MOL0     H86388   9.846   0.025   6.474  0.7686 -0.8264  1.8943
  640MOL0     H86389   9.956  -0.104   6.295  0.7889  0.2450 -0.9303
  640MOL0     H86390  10.215   0.032   6.118 -0.6505 -1.2600 -3.4743
  640MOL0     H86391  10.350  -0.093   6.111  0.8896 -0.4624  1.0801
  640MOL0     H86392  10.059  -0.153   6.060 -0.2445  0.7642 -0.3024
  640MOL0     H86393  10.203  -0.256   6.041 -1.1626  0.0337 -0.4676
  640MOL0     H86394  10.124  -0.211   5.822 -1.4967  0.0585  0.0846
  640MOL0     H86395  10.272  -0.115   5.842 -0.3802 -0.5994  0.9388
  640MOL0     H86396  10.126   0.034   5.739 -0.0933  2.6260  1.5358
  640MOL0     H86397  10.102   0.070   5.910 -2.3878 -1.4395  2.1531
  640MOL0     H86398   9.719  -0.043   5.823  0.1966 -2.1724  0.6531
  640MOL0     H86399  10.340   0.069   6.397 -1.2621  1.1833 -1.8178
  640MOL0     H86400  10.230   0.209   6.557  3.3050  0.1522 -2.5998
  641MOL0     O86401   2.827   6.831   2.278 -0.4003 -0.4113  0.7361
  641MOL0     C86402   2.887   6.767   2.188 -0.8450 -0.1000 -0.0417
  641MOL0     O86403   3.024   6.747   2.195 -0.2585  0.2882 -0.1773
  641MOL0     C86404   3.099   6.775   2.309 -0.0521 -0.3869 -0.6264
  641MOL0     C86405   3.240   6.794   2.294 -0.5705  0.7826 -0.1843
  641MOL0     C86406   3.326   6.836   2.400 -0.0376  0.6978  0.2901
  641MOL0     C86407   3.273   6.836   2.528 -0.1324  0.0257 -0.7567
  641MOL0     O86408   3.375   6.835   2.625 -0.1785  0.1083  0.2129
  641MOL0     C86409   3.344   6.886   2.752  0.1662 -0.3135  0.3570
  641MOL0     C86410   3.460   6.888   2.850  0.4978  0.4539  0.2947
  641MOL0     C86411   3.469   6.745   2.911 -0.7178 -0.1136  0.0564
  641MOL0     C86412   3.575   6.740   3.024  0.4419  0.1803  1.3599
  641MOL0     C86413   3.702   6.808   2.982 -0.7229 -0.1557  0.7170
  641MOL0     C86414   3.801   6.796   3.099 -0.1345 -0.4343  0.9054
  641MOL0     C86415   3.941   6.833   3.034 -0.5491 -0.7525  0.0074
  641MOL0     C86416   4.061   6.791   3.119 -0.0376  0.3203 -0.9477
  641MOL0     N86417   4.094   6.905   3.208  0.2096 -0.4993 -0.0604
  641MOL0     C86418   4.024   6.930   3.322 -0.7295 -0.0779 -0.7165
  641MOL0     C86419   4.086   7.036   3.375  0.4230 -0.1002  0.2718
  641MOL0     C86420   4.058   7.095   3.502  0.3221 -0.9436  0.5634
  641MOL0     C86421   3.939   7.191   3.512 -0.3320  0.2758 -0.1277
  641MOL0     C86422   3.952   7.318   3.424  0.7479 -0.0923 -0.0154
  641MOL0     C86423   3.929   7.297   3.275 -0.3358  0.0404  0.3126
  641MOL0     O86424   3.924   7.423   3.211  0.6076  0.5924  0.0426
  641MOL0     C86425   3.795   7.462   3.174  0.1413 -0.2785 -0.0636
  641MOL0     C86426   3.733   7.390   3.067  0.2908 -0.1894  0.1519
  641MOL0     C86427   3.598   7.409   3.041 -0.4084  0.3332 -0.4564
  641MOL0     C86428   3.537   7.324   2.931  0.2213  1.4270  0.3698
  641MOL0     C86429   3.529   7.524   3.098 -0.3492  0.4711 -0.5732
  641MOL0     C86430   3.394   7.569   3.059 -0.5303 -0.7646 -0.9243
  641MOL0     O86431   3.352   7.524   2.943 -0.6285 -0.2863 -0.1034
  641MOL0     C86432   3.228   7.544   2.889  0.5157  0.0380  0.1909
  641MOL0     C86433   3.151   7.662   2.910 -0.2421 -0.0503 -0.3618
  641MOL0     C86434   3.029   7.670   2.842 -0.5619  0.2606 -0.1989
  641MOL0     C86435   2.977   7.574   2.752  0.6783  0.2049  0.9881
  641MOL0     O86436   2.851   7.621   2.700  0.5344  0.8409  0.6537
  641MOL0     C86437   2.778   7.512   2.640  0.4104  0.3344 -0.3206
  641MOL0     C86438   2.658   7.571   2.566 -1.5222 -0.5417  0.7834
  641MOL0     C86439   2.561   7.470   2.498 -0.4350 -0.3614  0.1427
  641MOL0     C86440   2.451   7.542   2.404  0.3908  0.4506  0.5743
  641MOL0     C86441   2.382   7.438   2.299  0.1999 -0.0045  0.2412
  641MOL0     C86442   2.247   7.507   2.235  0.1374 -0.5748 -0.6064
  641MOL0     C86443   2.126   7.478   2.330  0.2673 -0.0265 -0.3561
  641MOL0     C86444   1.991   7.510   2.256 -0.9996 -0.4957  0.0499
  641MOL0    Cl86445   1.984   7.693   2.222 -0.5519  0.2905  0.0221
  641MOL0     C86446   3.054   7.461   2.735 -0.2333 -0.1220 -0.2478
  641MOL0     C86447   3.178   7.447   2.800 -0.4331  1.0149  0.7239
  641MOL0     O86448   3.329   7.626   3.142 -0.5319  0.6922 -0.3370
  641MOL0     C86449   3.605   7.606   3.187  0.5465 -0.9635 -0.0459
  641MOL0     C86450   3.729   7.564   3.235  0.1117  0.3078  0.3562
  641MOL0     N86451   4.200   7.061   3.297 -0.5348 -0.4845 -0.1091
  641MOL0     N86452   4.202   6.982   3.200  0.2774 -0.3005 -0.1233
  641MOL0     C86453   3.140   6.807   2.547  0.8889 -0.0614  0.7884
  641MOL0     C86454   3.057   6.787   2.442  0.4580 -0.2957 -0.9083
  641MOL0     C86455   2.817   6.765   2.057  0.6727  0.3474  0.6674
  641MOL0     C86456   2.885   6.742   1.936 -0.5160 -0.0658  0.3567
  641MOL0     C86457   2.816   6.747   1.810  0.5515  0.8769 -0.3922
  641MOL0     C86458   2.680   6.782   1.808 -0.7044 -0.3530  0.3327
  641MOL0     O86459   2.617   6.797   1.692  0.7149 -0.1838  0.1417
  641MOL0     C86460   2.593   6.676   1.614  0.4164 -0.3210  0.0241
  641MOL0     C86461   2.492   6.693   1.505 -0.6438 -0.1436  0.3378
  641MOL0     C86462   2.355   6.717   1.566  0.0969  0.0445  0.0365
  641MOL0     C86463   2.307   6.614   1.677 -0.1842  0.8078 -0.6636
  641MOL0     C86464   2.285   6.476   1.632  0.7485 -0.0123  0.4595
  641MOL0     C86465   2.265   6.369   1.594 -0.2164 -0.3527  1.5348
  641MOL0     C86466   2.611   6.803   1.926 -1.4591  0.0120  0.6797
  641MOL0     C86467   2.679   6.799   2.050 -0.6474 -0.4626  1.1233
  641MOL0     H86468   3.280   6.789   2.193  2.9763 -3.5595  1.0986
  641MOL0     H86469   3.434   6.840   2.390 -0.0545 -1.2072 -1.2578
  641MOL0     H86470   3.302   6.987   2.741 -2.9229 -1.2130  2.3901
  641MOL0     H86471   3.262   6.823   2.786 -1.7086  1.0649 -1.3068
  641MOL0     H86472   3.555   6.920   2.806  2.3770  1.0824  4.3915
  641MOL0     H86473   3.439   6.959   2.931 -2.3063 -2.8538  2.7307
  641MOL0     H86474   3.371   6.711   2.948 -0.6957  1.3949  1.5888
  641MOL0     H86475   3.497   6.665   2.842  0.9368 -1.6768  2.3762
  641MOL0     H86476   3.529   6.782   3.114  0.0174 -0.3297  1.3854
  641MOL0     H86477   3.593   6.634   3.044 -1.5769 -0.7698 -1.2368
  641MOL0     H86478   3.735   6.756   2.892 -0.8595  0.2913  0.4030
  641MOL0     H86479   3.685   6.912   2.952  0.9925  0.7274  2.5176
  641MOL0     H86480   3.771   6.869   3.175 -4.7750  1.7064 -2.5326
  641MOL0     H86481   3.806   6.692   3.131  1.4954 -0.2147  1.4512
  641MOL0     H86482   3.953   6.789   2.934  1.3371  2.8827 -1.5590
  641MOL0     H86483   3.940   6.941   3.017  2.0013 -0.7642 -0.6404
  641MOL0     H86484   4.148   6.776   3.054  0.7585  1.2804 -0.1483
  641MOL0     H86485   4.037   6.701   3.176  1.4841  0.0333 -0.7228
  641MOL0     H86486   3.938   6.874   3.356  1.1119 -0.7492  3.6269
  641MOL0     H86487   4.035   7.027   3.584  0.1054  0.8326  2.0624
  641MOL0     H86488   4.153   7.141   3.534  1.3429 -1.1214 -2.0045
  641MOL0     H86489   3.914   7.207   3.617  3.0576 -0.8395  0.9949
  641MOL0     H86490   3.857   7.135   3.468 -0.4391  0.5486 -0.2830
  641MOL0     H86491   4.035   7.378   3.462 -0.0454 -0.4350  2.4648
  641MOL0     H86492   3.873   7.389   3.449  1.1946  0.2228  0.5277
  641MOL0     H86493   3.859   7.220   3.241  0.3437  0.4981 -2.2971
  641MOL0     H86494   4.019   7.248   3.238 -0.7071 -1.0846  0.8531
  641MOL0     H86495   3.784   7.318   3.004  0.0219  2.4040 -3.3379
  641MOL0     H86496   3.436   7.285   2.946  0.2606  1.8588  1.8940
  641MOL0     H86497   3.547   7.381   2.838  1.3468 -0.9695 -1.0941
  641MOL0     H86498   3.603   7.237   2.921  0.1133  1.3043  0.7092
  641MOL0     H86499   3.196   7.743   2.966  1.4270 -0.0874 -1.5716
  641MOL0     H86500   2.959   7.750   2.864  0.4102  1.1365 -0.2306
  641MOL0     H86501   2.842   7.441   2.586  2.3047 -1.5498  3.9140
  641MOL0     H86502   2.729   7.464   2.725 -0.9450  2.4450  0.1677
  641MOL0     H86503   2.602   7.639   2.631 -1.9964 -0.3884  0.2248
  641MOL0     H86504   2.703   7.634   2.488 -1.4714 -0.0161  1.2282
  641MOL0     H86505   2.504   7.419   2.576  2.1033 -3.0033  0.4295
  641MOL0     H86506   2.616   7.386   2.453  1.9522  1.4342 -0.4939
  641MOL0     H86507   2.367   7.591   2.455 -1.4098  0.1625 -1.9452
  641MOL0     H86508   2.501   7.618   2.343  0.1654  2.8209  3.1357
  641MOL0     H86509   2.350   7.347   2.351  2.1678 -0.0824  1.4430
  641MOL0     H86510   2.454   7.420   2.219 -0.2876  1.2165 -0.4915
  641MOL0     H86511   2.256   7.614   2.216  1.3507 -0.8120 -1.4642
  641MOL0     H86512   2.227   7.463   2.137  1.2416  4.0269 -3.1596
  641MOL0     H86513   2.126   7.539   2.421  0.5637  1.2245 -1.1670
  641MOL0     H86514   2.135   7.380   2.377 -0.9416  0.1645  0.3110
  641MOL0     H86515   1.907   7.480   2.319  0.3792 -1.1209  1.6943
  641MOL0     H86516   1.982   7.457   2.161  2.9245 -0.7576 -0.3364
  641MOL0     H86517   3.033   7.388   2.658  3.8600 -4.2028  2.0285
  641MOL0     H86518   3.245   7.365   2.773 -0.2242  1.2595  0.4927
  641MOL0     H86519   3.561   7.696   3.228 -2.0728 -0.7737 -2.9387
  641MOL0     H86520   3.784   7.627   3.304  0.8456  0.2668 -0.1799
  641MOL0     H86521   3.102   6.793   2.648  1.5871  0.5651  1.1535
  641MOL0     H86522   2.953   6.760   2.462  1.2672 -2.2910  0.9329
  641MOL0     H86523   2.993   6.730   1.941 -0.5725 -0.6675  0.1577
  641MOL0     H86524   2.871   6.728   1.718  1.4174  2.2906 -0.2166
  641MOL0     H86525   2.682   6.643   1.561 -0.1724 -1.2107 -0.4534
  641MOL0     H86526   2.556   6.593   1.675 -2.5827 -1.6811 -3.2784
  641MOL0     H86527   2.480   6.597   1.454 -0.4525 -1.6329  2.9217
  641MOL0     H86528   2.521   6.767   1.430 -0.5643  0.1184  0.6281
  641MOL0     H86529   2.291   6.706   1.479 -1.6833 -0.9286  1.4125
  641MOL0     H86530   2.353   6.823   1.594 -3.4227  0.5680 -1.7242
  641MOL0     H86531   2.216   6.652   1.724 -1.7828 -2.2580 -1.0206
  641MOL0     H86532   2.370   6.620   1.767 -2.0038 -1.2111  0.8768
  641MOL0     H86533   2.238   6.273   1.555 -1.5679  0.8610 -0.7141
  641MOL0     H86534   2.508   6.838   1.927 -1.6546 -0.5370  2.3758
  641MOL0     H86535   2.631   6.832   2.142 -0.3125  0.5676  0.9451
  642MOL0     O86536   2.543  10.422   0.307  0.5982 -0.0758 -0.2004
  642MOL0     C86537   2.590  10.382   0.205 -0.8500  0.5641  0.6039
  642MOL0     O86538   2.520  10.334   0.092  0.6379 -0.2957  0.2581
  642MOL0     C86539   2.382  10.331   0.107  0.2677  0.3927  0.4585
  642MOL0     C86540   2.312  10.225   0.161  0.8181  0.4012 -0.6722
  642MOL0     C86541   2.172  10.224   0.163 -1.1275 -0.7207  1.2473
  642MOL0     C86542   2.100  10.335   0.112 -0.1957  0.4759 -0.1723
  642MOL0     O86543   1.962  10.316   0.113 -0.4063 -0.2601 -0.6297
  642MOL0     C86544   1.894  10.435   0.075 -0.2822  1.3865 -0.2244
  642MOL0     C86545   1.750  10.415   0.095  0.8125  0.9880 -0.7015
  642MOL0     C86546   1.677  10.533   0.054  0.8458  0.0311  0.7535
  642MOL0     C86547   1.532  10.522   0.111  0.0922 -0.5313 -0.3549
  642MOL0     C86548   1.440  10.578   0.009 -0.2056  0.6344 -0.3291
  642MOL0     C86549   1.308  10.638   0.070 -0.0051 -0.3386 -0.3116
  642MOL0     C86550   1.211  10.678  -0.043 -0.4298 -0.9397  1.0110
  642MOL0     C86551   1.271  10.799  -0.120 -0.6136 -0.5712  0.3005
  642MOL0     N86552   1.182  10.850  -0.222 -0.0328  0.0721  1.0312
  642MOL0     C86553   1.076  10.934  -0.205  0.1115  0.6820 -0.1921
  642MOL0     C86554   1.009  10.931  -0.323 -0.0487 -0.3713  0.8321
  642MOL0     C86555   0.889  11.012  -0.375  0.5126 -0.3988 -0.7373
  642MOL0     C86556   0.767  10.926  -0.402  0.1918  0.4099 -0.1946
  642MOL0     C86557   0.637  11.000  -0.419  0.8690 -0.5624 -0.1935
  642MOL0     C86558   0.522  10.907  -0.452  1.1287  0.3766 -0.5169
  642MOL0     O86559   0.447  10.976  -0.556  0.2546  0.0930 -0.1807
  642MOL0     C86560   0.314  10.933  -0.589  0.8751 -0.1147 -0.5838
  642MOL0     C86561   0.194  11.006  -0.559  0.1799  0.8351  1.4311
  642MOL0     C86562   0.064  10.949  -0.571  0.1576  0.0342 -0.5785
  642MOL0     C86563  -0.051  11.040  -0.521 -0.1897 -0.5815  0.3224
  642MOL0     C86564   0.048  10.818  -0.627  0.4434 -0.2372 -0.0457
  642MOL0     C86565  -0.084  10.759  -0.665  1.1121 -0.3293  0.1529
  642MOL0     O86566  -0.193  10.841  -0.649  0.3493 -0.3476 -0.3191
  642MOL0     C86567  -0.319  10.797  -0.681 -0.4439  0.3977 -0.4684
  642MOL0     C86568  -0.346  10.740  -0.809 -0.3885 -0.0028  0.0370
  642MOL0     C86569  -0.479  10.705  -0.837 -0.9265  0.5659 -0.3756
  642MOL0     C86570  -0.581  10.733  -0.749  0.1133  0.3219  1.1474
  642MOL0     O86571  -0.715  10.715  -0.781  0.2390  0.0635 -0.2443
  642MOL0     C86572  -0.757  10.785  -0.905  0.0137 -1.0116 -0.3932
  642MOL0     C86573  -0.888  10.860  -0.874 -0.0875 -0.0655  0.8456
  642MOL0     C86574  -0.878  10.982  -0.776 -0.1556  0.9583  0.1340
  642MOL0     C86575  -1.001  11.060  -0.778  0.3377 -0.3127 -0.5162
  642MOL0     C86576  -0.992  11.164  -0.664  0.3751  0.6123  0.2593
  642MOL0     C86577  -1.109  11.258  -0.657  0.4749 -0.2988 -0.0285
  642MOL0     C86578  -1.073  11.367  -0.551 -0.4318 -0.3812  0.2057
  642MOL0     C86579  -0.988  11.477  -0.608  0.2475 -0.1675  0.4443
  642MOL0    Cl86580  -0.888  11.549  -0.476 -0.1534  0.1845  0.2823
  642MOL0     C86581  -0.550  10.786  -0.626 -0.3081 -0.8841  0.6044
  642MOL0     C86582  -0.425  10.818  -0.591  0.5197 -0.5545 -0.3159
  642MOL0     O86583  -0.087  10.653  -0.727 -0.6842 -0.0803 -0.1780
  642MOL0     C86584   0.168  10.744  -0.651 -0.5205 -0.0377 -0.5430
  642MOL0     C86585   0.298  10.793  -0.618  0.0086 -0.9071  0.2598
  642MOL0     N86586   1.077  10.854  -0.409  0.0275  0.3570  0.2899
  642MOL0     N86587   1.179  10.794  -0.345 -0.0306 -0.0264 -0.1807
  642MOL0     C86588   2.171  10.437   0.058 -1.3458  0.4126 -0.0301
  642MOL0     C86589   2.305  10.439   0.054 -0.7637  0.4401  0.4749
  642MOL0     C86590   2.739  10.389   0.189  0.7457 -0.5346 -0.8031
  642MOL0     C86591   2.805  10.334   0.082  0.5814 -0.2123  0.6746
  642MOL0     C86592   2.943  10.348   0.054  0.9670 -0.6260  0.2223
  642MOL0     C86593   3.017  10.418   0.146 -0.5797  1.3269 -0.0016
  642MOL0     O86594   3.152  10.440   0.140 -0.9773  0.3634 -0.1138
  642MOL0     C86595   3.244  10.371   0.050 -0.2172 -0.1743 -0.0598
  642MOL0     C86596   3.229  10.435  -0.089  0.8626 -0.7342 -0.3264
  642MOL0     C86597   3.298  10.348  -0.182 -0.1757 -0.4418 -0.3137
  642MOL0     C86598   3.455  10.342  -0.196 -0.1615  0.1713 -0.3416
  642MOL0     C86599   3.501  10.480  -0.234 -0.1749 -0.3414 -0.6524
  642MOL0     C86600   3.535  10.590  -0.268 -0.3094 -0.4608  0.4098
  642MOL0     C86601   2.957  10.462   0.260  0.3048 -0.1031  0.4144
  642MOL0     C86602   2.818  10.451   0.291  0.0140  0.5712 -0.3306
  642MOL0     H86603   2.382  10.148   0.192  2.0678  1.7796  0.0279
  642MOL0     H86604   2.124  10.140   0.212 -0.9718 -0.4811  1.8163
  642MOL0     H86605   1.935  10.524   0.125  0.3463 -0.8340  3.6162
  642MOL0     H86606   1.923  10.453  -0.030 -0.5684  2.4416 -0.1367
  642MOL0     H86607   1.719  10.324   0.044 -1.1242  1.0070  0.3220
  642MOL0     H86608   1.725  10.417   0.202 -3.4660  0.6901 -1.5320
  642MOL0     H86609   1.719  10.625   0.094  2.0859 -1.0019  1.9396
  642MOL0     H86610   1.672  10.533  -0.055 -1.4209 -1.9432  0.7616
  642MOL0     H86611   1.502  10.422   0.141  2.5149 -0.6322  2.1068
  642MOL0     H86612   1.546  10.580   0.202  3.4441 -0.8456 -0.5289
  642MOL0     H86613   1.496  10.647  -0.055  0.6934  1.1640  0.9827
  642MOL0     H86614   1.423  10.508  -0.074  0.5629  1.1054 -0.8968
  642MOL0     H86615   1.252  10.573   0.136  0.5987 -0.5179  0.0347
  642MOL0     H86616   1.327  10.724   0.135  0.5306 -2.0713  1.9303
  642MOL0     H86617   1.188  10.595  -0.110 -2.8419  1.4807 -1.4652
  642MOL0     H86618   1.111  10.695  -0.003 -1.2259 -0.7429 -0.9388
  642MOL0     H86619   1.366  10.778  -0.171 -0.5656 -0.4762  0.3518
  642MOL0     H86620   1.289  10.875  -0.044  1.6493 -2.2267  1.5185
  642MOL0     H86621   1.048  10.993  -0.118  1.7451  2.0175 -0.5178
  642MOL0     H86622   0.861  11.098  -0.312 -1.9208 -1.6837  0.0785
  642MOL0     H86623   0.920  11.053  -0.472  0.2382  0.1694 -0.5936
  642MOL0     H86624   0.743  10.849  -0.328 -2.8116  1.6374  0.2462
  642MOL0     H86625   0.790  10.879  -0.498  1.0176 -0.6366  0.5001
  642MOL0     H86626   0.661  11.057  -0.509  1.3022  1.4435  1.1180
  642MOL0     H86627   0.610  11.067  -0.337  0.7317 -1.3544  0.4193
  642MOL0     H86628   0.461  10.882  -0.365  0.1745 -1.3669 -1.6115
  642MOL0     H86629   0.555  10.810  -0.492 -2.7260 -0.1129 -2.9981
  642MOL0     H86630   0.191  11.097  -0.501 -0.6690  2.8216 -1.5251
  642MOL0     H86631  -0.115  11.071  -0.605  0.9098  1.8965  0.2846
  642MOL0     H86632  -0.121  10.986  -0.457  1.6483 -2.0090  1.1938
  642MOL0     H86633  -0.032  11.132  -0.465 -3.8131 -0.6901  2.0362
  642MOL0     H86634  -0.272  10.714  -0.884 -0.6605  0.8246 -0.5431
  642MOL0     H86635  -0.490  10.651  -0.930 -2.7447 -0.0880  0.1792
  642MOL0     H86636  -0.682  10.859  -0.934 -0.2404 -0.6843 -0.2291
  642MOL0     H86637  -0.769  10.707  -0.981  3.4778 -0.1890 -1.9813
  642MOL0     H86638  -0.930  10.884  -0.972  3.0696  1.9133 -0.1758
  642MOL0     H86639  -0.964  10.790  -0.838 -1.1313 -0.4415 -1.8498
  642MOL0     H86640  -0.788  11.036  -0.808  1.4279 -1.8105 -0.3627
  642MOL0     H86641  -0.866  10.937  -0.677  2.3004 -1.6159 -1.1997
  642MOL0     H86642  -1.024  11.095  -0.879  2.2162 -3.7367 -2.3006
  642MOL0     H86643  -1.089  11.000  -0.751 -3.0288  4.2019 -0.1374
  642MOL0     H86644  -0.898  11.218  -0.679 -0.3133  2.4526  2.0524
  642MOL0     H86645  -0.975  11.113  -0.569  0.7822 -0.0411 -0.1601
  642MOL0     H86646  -1.134  11.287  -0.760 -1.7262 -2.4675 -0.1692
  642MOL0     H86647  -1.196  11.208  -0.615  0.1456  0.6711  0.4821
  642MOL0     H86648  -1.025  11.331  -0.459  1.1886  0.5446 -0.2425
  642MOL0     H86649  -1.169  11.414  -0.528 -1.0640 -0.8765 -1.3026
  642MOL0     H86650  -1.049  11.556  -0.654 -1.5382 -3.0512 -2.6512
  642MOL0     H86651  -0.917  11.433  -0.679 -1.3153 -0.9469 -0.7115
  642MOL0     H86652  -0.629  10.817  -0.559  0.2882 -0.4943  1.1351
  642MOL0     H86653  -0.415  10.866  -0.494  1.2097 -0.7869 -0.2637
  642MOL0     H86654   0.167  10.642  -0.688  0.4177 -0.6178  0.8979
  642MOL0     H86655   0.384  10.732  -0.642  0.6126 -0.1906  0.5851
  642MOL0     H86656   2.131  10.521   0.001  0.4368  0.8265 -0.7295
  642MOL0     H86657   2.357  10.517  -0.001 -2.8113  1.3820 -0.2317
  642MOL0     H86658   2.742  10.288   0.006  2.3832 -2.9967  0.7258
  642MOL0     H86659   2.979  10.307  -0.040  0.0482 -0.6139 -0.1487
  642MOL0     H86660   3.346  10.367   0.089  0.0406  1.8687 -0.3646
  642MOL0     H86661   3.211  10.267   0.041 -0.4707 -0.0512 -0.6110
  642MOL0     H86662   3.274  10.535  -0.092  0.7856 -0.7183 -1.8562
  642MOL0     H86663   3.121  10.438  -0.104  0.2087 -0.2786  3.4864
  642MOL0     H86664   3.254  10.378  -0.278 -1.0165 -1.3319 -0.2221
  642MOL0     H86665   3.260  10.246  -0.171 -2.1443 -0.1653 -3.1811
  642MOL0     H86666   3.478  10.270  -0.275  0.6391 -1.2486  1.1313
  642MOL0     H86667   3.496  10.310  -0.100 -1.0604 -0.6246 -0.2172
  642MOL0     H86668   3.563  10.691  -0.286 -0.5438 -0.6428 -1.1155
  642MOL0     H86669   3.019  10.512   0.334 -1.4180  0.4371  1.5294
  642MOL0     H86670   2.762  10.492   0.375  0.2822  1.0428 -0.3800
  643MOL0     O86671   9.797   7.284   1.570 -0.2429 -0.2531  0.2194
  643MOL0     C86672   9.833   7.307   1.687  0.3352  0.3538 -0.1785
  643MOL0     O86673   9.744   7.319   1.798 -0.0460  0.4965  0.2341
  643MOL0     C86674   9.615   7.314   1.770  0.1085 -0.3071  0.2340
  643MOL0     C86675   9.547   7.223   1.690 -0.0425  0.0091 -0.1405
  643MOL0     C86676   9.405   7.233   1.681  0.3784  0.1300  1.1284
  643MOL0     C86677   9.333   7.332   1.733  0.1687 -0.4035 -0.1325
  643MOL0     O86678   9.204   7.338   1.700 -0.5041  0.5865  0.4170
  643MOL0     C86679   9.116   7.429   1.777  0.2658  0.2872 -0.0986
  643MOL0     C86680   8.972   7.363   1.760 -0.0219  0.0290 -0.1189
  643MOL0     C86681   8.868   7.428   1.855  0.1370 -0.4488 -0.2383
  643MOL0     C86682   8.751   7.328   1.867  0.5451  0.4701 -0.1576
  643MOL0     C86683   8.685   7.273   1.747 -0.3349  0.0124  1.4087
  643MOL0     C86684   8.574   7.170   1.773  0.4659  0.0525  0.6102
  643MOL0     C86685   8.449   7.253   1.796  0.1378 -0.1782  0.0741
  643MOL0     C86686   8.328   7.156   1.796 -1.0413 -0.2382 -0.7672
  643MOL0     N86687   8.221   7.210   1.881 -0.3780 -0.0127 -0.2277
  643MOL0     C86688   8.130   7.311   1.860 -0.2922  0.3173 -0.2567
  643MOL0     C86689   8.059   7.317   1.971 -0.5805 -0.5806 -0.1151
  643MOL0     C86690   7.954   7.417   1.988 -0.1361 -0.2895 -0.6755
  643MOL0     C86691   7.843   7.403   1.889 -0.0083 -0.7728 -0.8123
  643MOL0     C86692   7.717   7.471   1.935  1.1867 -0.1851 -0.3652
  643MOL0     C86693   7.608   7.455   1.826  0.2713 -0.2114  0.1920
  643MOL0     O86694   7.578   7.315   1.812  0.1331  0.1649 -0.5495
  643MOL0     C86695   7.478   7.265   1.888 -0.5237 -1.2092  1.4444
  643MOL0     C86696   7.349   7.293   1.861  0.8391 -0.7048  0.1821
  643MOL0     C86697   7.239   7.243   1.929  0.1138  0.3735 -0.4680
  643MOL0     C86698   7.099   7.280   1.899  0.5788  0.1741  0.3716
  643MOL0     C86699   7.274   7.159   2.037 -0.4985  1.3119  0.1930
  643MOL0     C86700   7.176   7.080   2.115 -0.5087 -1.0536  0.7150
  643MOL0     O86701   7.056   7.158   2.140 -0.1731 -0.5490 -0.2085
  643MOL0     C86702   6.970   7.103   2.227 -0.1395  0.1288  0.4028
  643MOL0     C86703   6.836   7.101   2.187 -0.6577 -0.2980  0.7657
  643MOL0     C86704   6.739   7.051   2.260 -0.0130  0.6752 -0.0707
  643MOL0     C86705   6.767   7.000   2.386 -0.2890 -0.2714 -0.1575
  643MOL0     O86706   6.679   6.951   2.471 -0.1259  0.0204  0.1705
  643MOL0     C86707   6.552   6.898   2.427  0.1819 -0.1360 -0.0147
  643MOL0     C86708   6.433   6.956   2.512  0.7114 -0.5472 -0.4302
  643MOL0     C86709   6.392   7.084   2.450  0.5293  0.0321  0.8169
  643MOL0     C86710   6.263   7.143   2.524 -0.6246 -0.4663  0.1943
  643MOL0     C86711   6.204   7.258   2.443  0.5261  0.5416  0.2898
  643MOL0     C86712   6.056   7.255   2.475 -0.0686  0.3466  0.3635
  643MOL0     C86713   5.995   7.398   2.462  0.1595  0.2307 -0.3957
  643MOL0     C86714   5.841   7.399   2.469 -0.6978  0.7096  0.0604
  643MOL0    Cl86715   5.772   7.547   2.506 -0.6982  0.0721  0.4409
  643MOL0     C86716   6.896   7.012   2.440  0.1315 -0.4224  0.9192
  643MOL0     C86717   6.999   7.055   2.357 -0.1259  0.0610 -0.2223
  643MOL0     O86718   7.203   6.966   2.155  0.2251 -0.3884  0.2994
  643MOL0     C86719   7.404   7.133   2.064  0.2398 -0.5819  0.1992
  643MOL0     C86720   7.507   7.189   1.992 -0.1406  0.5840  0.0824
  643MOL0     N86721   8.099   7.213   2.057  0.3328  0.2054 -0.0073
  643MOL0     N86722   8.193   7.157   2.000 -0.6334  0.6923 -0.0689
  643MOL0     C86723   9.406   7.434   1.792  0.5634  0.1957 -0.0181
  643MOL0     C86724   9.542   7.424   1.821  0.2898 -0.1615  1.2761
  643MOL0     C86725   9.978   7.336   1.703 -0.2685 -0.5038  0.3010
  643MOL0     C86726  10.077   7.300   1.607 -0.9464  0.8157 -0.3784
  643MOL0     C86727  10.210   7.341   1.640  0.2802  0.0021 -0.4847
  643MOL0     C86728  10.242   7.416   1.760  0.4417 -0.5428 -0.3381
  643MOL0     O86729  10.374   7.455   1.775  0.3126  0.2356  0.0035
  643MOL0     C86730  10.412   7.537   1.883 -0.2197 -0.3683  1.0307
  643MOL0     C86731  10.549   7.597   1.880 -0.5018 -0.2509 -0.4268
  643MOL0     C86732  10.578   7.656   1.741 -0.8483  0.9184 -0.0922
  643MOL0     C86733  10.703   7.750   1.742 -0.3757  0.7693 -1.1498
  643MOL0     C86734  10.830   7.677   1.770 -0.6947 -0.7371 -0.4980
  643MOL0     C86735  10.939   7.632   1.797  0.2185  0.1260  0.9354
  643MOL0     C86736  10.140   7.456   1.842  0.1088  0.7527  0.3995
  643MOL0     C86737  10.005   7.423   1.810 -0.2523 -0.1622 -1.5428
  643MOL0     H86738   9.603   7.142   1.644  0.7943  0.5255 -0.0606
  643MOL0     H86739   9.358   7.159   1.616  1.9374  1.2040 -1.3645
  643MOL0     H86740   9.147   7.416   1.881  2.1963 -4.1261 -0.9809
  643MOL0     H86741   9.115   7.536   1.754 -0.9979  0.1433 -0.7932
  643MOL0     H86742   8.945   7.377   1.655 -4.1679  2.9849  1.0766
  643MOL0     H86743   8.977   7.258   1.788  0.8738  0.1515  0.2105
  643MOL0     H86744   8.914   7.443   1.953  0.6434 -3.8082  0.1406
  643MOL0     H86745   8.828   7.521   1.813 -2.9593 -2.3598 -1.8374
  643MOL0     H86746   8.776   7.238   1.924  0.3056  1.3223  1.3498
  643MOL0     H86747   8.675   7.390   1.915  1.2640  1.3560 -0.1417
  643MOL0     H86748   8.646   7.357   1.688 -0.1734 -0.9160 -0.0657
  643MOL0     H86749   8.767   7.235   1.685  0.1542  3.6794 -0.4691
  643MOL0     H86750   8.567   7.105   1.686 -0.6571  1.3109 -0.2625
  643MOL0     H86751   8.604   7.120   1.866  2.2122 -0.3216 -0.1018
  643MOL0     H86752   8.457   7.302   1.894  2.3736  1.1503 -0.7031
  643MOL0     H86753   8.431   7.335   1.726 -0.6434  0.3851  0.9076
  643MOL0     H86754   8.359   7.058   1.834  0.3076 -0.6750 -2.8657
  643MOL0     H86755   8.293   7.141   1.694 -0.4627 -0.7224 -0.9002
  643MOL0     H86756   8.135   7.378   1.774 -0.2711 -1.9001 -2.0875
  643MOL0     H86757   7.920   7.411   2.092  0.6686 -3.3664 -0.4802
  643MOL0     H86758   8.013   7.508   1.978  0.7026 -0.7666 -0.1974
  643MOL0     H86759   7.829   7.295   1.880  0.9513 -0.9910  0.1390
  643MOL0     H86760   7.883   7.446   1.797  0.2475 -0.8080 -0.7172
  643MOL0     H86761   7.731   7.580   1.941 -1.0467  0.1772 -0.7338
  643MOL0     H86762   7.690   7.450   2.039  2.0291  2.4048  0.4569
  643MOL0     H86763   7.651   7.488   1.730  0.9840 -1.3360  0.1061
  643MOL0     H86764   7.523   7.519   1.849  0.5385  0.6582 -1.0723
  643MOL0     H86765   7.314   7.368   1.792  1.8575 -1.1365 -0.8330
  643MOL0     H86766   7.088   7.327   1.801 -3.9852  2.3912  1.6747
  643MOL0     H86767   7.028   7.197   1.898  1.6858 -0.8364  1.5875
  643MOL0     H86768   7.063   7.349   1.976  0.7726  0.8812 -0.1606
  643MOL0     H86769   6.810   7.146   2.092 -0.8957  0.0587  0.9996
  643MOL0     H86770   6.635   7.059   2.230 -0.3251 -0.7827  0.5502
  643MOL0     H86771   6.535   6.896   2.319  1.3145 -0.3395 -0.1966
  643MOL0     H86772   6.555   6.793   2.456  2.0953 -0.8898 -2.5612
  643MOL0     H86773   6.351   6.884   2.515  0.0890  0.1659  0.8104
  643MOL0     H86774   6.466   6.971   2.615  0.6729 -1.2576 -0.3133
  643MOL0     H86775   6.368   7.053   2.347 -0.7997  0.0571  1.1005
  643MOL0     H86776   6.473   7.157   2.442 -2.3095  3.3379 -0.2855
  643MOL0     H86777   6.193   7.061   2.542  1.7137 -2.4268  0.8303
  643MOL0     H86778   6.309   7.185   2.614 -1.9278  4.0137 -0.9474
  643MOL0     H86779   6.224   7.229   2.339 -0.0375 -1.9098  0.8089
  643MOL0     H86780   6.250   7.356   2.458 -0.1636  1.2204 -1.6310
  643MOL0     H86781   6.003   7.184   2.411  1.4537 -2.3259  1.8691
  643MOL0     H86782   6.037   7.218   2.577  1.8110 -0.6063  0.4115
  643MOL0     H86783   6.039   7.453   2.379  0.6684  2.8198  1.4779
  643MOL0     H86784   6.024   7.448   2.554  0.5332  1.1014 -0.9778
  643MOL0     H86785   5.806   7.329   2.546 -0.2547  2.5535  2.0257
  643MOL0     H86786   5.809   7.358   2.373  0.9925 -1.1483  0.2224
  643MOL0     H86787   6.907   6.978   2.543 -0.9066 -1.1776  0.7994
  643MOL0     H86788   7.099   7.055   2.400  0.4653 -2.8129 -1.3744
  643MOL0     H86789   7.440   7.054   2.129  2.1887 -3.6296 -4.1025
  643MOL0     H86790   7.612   7.167   2.011 -0.0562  1.6915  1.0312
  643MOL0     H86791   9.351   7.522   1.825  2.8364  1.2820  1.0924
  643MOL0     H86792   9.593   7.496   1.885 -0.6256  1.9227 -0.2098
  643MOL0     H86793  10.045   7.253   1.514 -2.1119  1.2080 -0.1933
  643MOL0     H86794  10.298   7.316   1.582  0.8181 -1.5373  0.9121
  643MOL0     H86795  10.347   7.624   1.868  1.6242  0.5661 -3.3437
  643MOL0     H86796  10.376   7.495   1.977  2.3693 -0.1197  2.2193
  643MOL0     H86797  10.629   7.529   1.909 -1.2552  0.1303  2.9784
  643MOL0     H86798  10.551   7.674   1.958  4.8006  0.1062 -0.5870
  643MOL0     H86799  10.498   7.716   1.698 -1.8198  0.0325  0.4246
  643MOL0     H86800  10.595   7.575   1.670 -2.9168 -0.9940  1.4376
  643MOL0     H86801  10.692   7.832   1.813 -1.5778  0.1716 -0.6076
  643MOL0     H86802  10.711   7.803   1.647  0.9726  0.6256 -1.1332
  643MOL0     H86803  11.039   7.604   1.825 -0.6985 -1.2337  3.0396
  643MOL0     H86804  10.151   7.521   1.928  0.0926  0.5748  0.5354
  643MOL0     H86805   9.934   7.477   1.872 -0.4756 -0.6928 -1.3293
  644MOL0     O86806   1.758   2.635   4.464 -0.3245  0.6095 -0.0252
  644MOL0     C86807   1.736   2.647   4.591 -0.0382  0.3148 -0.3107
  644MOL0     O86808   1.613   2.679   4.647  0.0690  0.1307 -0.0198
  644MOL0     C86809   1.504   2.717   4.575  0.1183 -0.2687 -0.3304
  644MOL0     C86810   1.473   2.853   4.583  0.3260  0.4552 -0.2481
  644MOL0     C86811   1.363   2.891   4.498  0.0578  0.3218  0.4501
  644MOL0     C86812   1.290   2.802   4.415 -0.1385 -0.4725 -0.8222
  644MOL0     O86813   1.186   2.857   4.349  0.0944 -0.5022  0.5806
  644MOL0     C86814   1.114   2.776   4.259  0.2355 -0.4570  0.9959
  644MOL0     C86815   1.005   2.864   4.194  0.2544 -0.1163  0.3437
  644MOL0     C86816   0.925   2.764   4.095 -1.0545 -0.1026 -0.1211
  644MOL0     C86817   0.950   2.793   3.942 -0.5186 -0.3061 -0.8836
  644MOL0     C86818   0.865   2.696   3.855  0.0145 -0.1778 -0.2844
  644MOL0     C86819   0.909   2.684   3.709 -0.1581  0.0771 -0.9842
  644MOL0     C86820   0.801   2.641   3.612 -0.2225  0.1535 -0.3041
  644MOL0     C86821   0.855   2.594   3.475  0.0224 -0.3080  1.3088
  644MOL0     N86822   0.916   2.460   3.485  0.3216  0.0578 -0.7114
  644MOL0     C86823   1.050   2.431   3.479  0.7556  0.2730 -0.4033
  644MOL0     C86824   1.065   2.293   3.478  0.5867  0.5182  0.1161
  644MOL0     C86825   1.194   2.213   3.463 -0.0283 -0.1554  0.4043
  644MOL0     C86826   1.279   2.226   3.586 -0.2828 -0.3816 -0.6745
  644MOL0     C86827   1.199   2.181   3.714  0.0548 -0.0786 -0.8236
  644MOL0     C86828   1.154   2.033   3.715 -0.7525  0.0849 -0.5575
  644MOL0     O86829   1.107   2.000   3.843  0.2802 -0.0204 -0.5703
  644MOL0     C86830   1.064   1.872   3.852  0.5292 -0.0266  0.5116
  644MOL0     C86831   1.140   1.762   3.821  0.2152  0.3632 -0.9561
  644MOL0     C86832   1.078   1.640   3.825  0.1669  0.9638 -1.1367
  644MOL0     C86833   1.161   1.525   3.780 -0.2468 -0.7399 -0.0246
  644MOL0     C86834   0.949   1.621   3.880  0.3994  0.0386  0.6556
  644MOL0     C86835   0.876   1.489   3.902  0.9964 -0.6811  0.6892
  644MOL0     O86836   0.938   1.377   3.856 -0.4836  0.0070  0.5399
  644MOL0     C86837   0.861   1.261   3.851 -0.1473 -0.4345  0.2654
  644MOL0     C86838   0.847   1.165   3.953 -0.2309  0.2510  0.4135
  644MOL0     C86839   0.762   1.059   3.935 -0.2985  0.3639 -0.2258
  644MOL0     C86840   0.692   1.035   3.818  0.4509 -0.0012 -1.1473
  644MOL0     O86841   0.596   0.933   3.825 -0.0912 -0.2201 -0.8193
  644MOL0     C86842   0.548   0.879   3.702  0.3261  0.6204 -0.7688
  644MOL0     C86843   0.431   0.777   3.729  0.0626  0.4494  0.6049
  644MOL0     C86844   0.407   0.715   3.593 -0.1392 -0.2227 -0.3114
  644MOL0     C86845   0.278   0.628   3.602 -0.8577 -0.5501  0.3073
  644MOL0     C86846   0.302   0.499   3.702  0.2764 -0.2039  0.1232
  644MOL0     C86847   0.198   0.390   3.677  0.3506  0.0810  0.0427
  644MOL0     C86848   0.053   0.425   3.693  0.4148  0.2767  0.2386
  644MOL0     C86849  -0.049   0.314   3.650 -0.1876 -0.3439 -0.1912
  644MOL0    Cl86850  -0.026   0.272   3.486  0.0371  0.4604  0.3589
  644MOL0     C86851   0.709   1.132   3.720  0.3517 -0.2264  0.0537
  644MOL0     C86852   0.792   1.244   3.733  0.2246 -0.2431  0.3209
  644MOL0     O86853   0.765   1.490   3.966  0.1024 -0.3546 -0.0314
  644MOL0     C86854   0.890   1.733   3.936 -0.0944  0.5685 -0.3090
  644MOL0     C86855   0.943   1.856   3.909 -0.5164  0.9762  0.2624
  644MOL0     N86856   0.942   2.235   3.496 -0.1273 -1.2468  0.1872
  644MOL0     N86857   0.856   2.338   3.500  0.3977  0.8412  1.2508
  644MOL0     C86858   1.338   2.668   4.410  0.2688  0.0722  0.0825
  644MOL0     C86859   1.442   2.622   4.489  0.0098  0.0263  0.2759
  644MOL0     C86860   1.841   2.626   4.693 -0.4023 -1.1866  0.1571
  644MOL0     C86861   1.805   2.644   4.825  0.0144  0.1122  0.3677
  644MOL0     C86862   1.899   2.606   4.924 -0.2696  0.5227 -0.0125
  644MOL0     C86863   2.034   2.575   4.891 -0.2055 -0.4883 -0.1840
  644MOL0     O86864   2.123   2.540   4.994  0.4848 -0.8528 -0.9736
  644MOL0     C86865   2.225   2.641   5.018 -0.1559  0.1121 -0.5404
  644MOL0     C86866   2.307   2.589   5.136 -0.1414  0.0020 -0.7495
  644MOL0     C86867   2.225   2.587   5.267 -0.6664  0.1058  0.1316
  644MOL0     C86868   2.293   2.559   5.407 -0.4966  0.9526 -0.0017
  644MOL0     C86869   2.362   2.434   5.414  0.0021  0.1083 -0.9374
  644MOL0     C86870   2.410   2.325   5.425 -0.4471 -0.0266 -0.4890
  644MOL0     C86871   2.076   2.572   4.759  0.1550 -0.0778  0.2101
  644MOL0     C86872   1.977   2.590   4.662 -0.1684  0.3563 -0.1238
  644MOL0     H86873   1.527   2.930   4.637 -1.2683 -0.0578  2.2161
  644MOL0     H86874   1.321   2.991   4.499 -1.8359 -0.3760 -1.5933
  644MOL0     H86875   1.175   2.730   4.181 -0.4191 -0.1212  0.2674
  644MOL0     H86876   1.063   2.695   4.312 -2.1921  0.2654 -0.1171
  644MOL0     H86877   0.939   2.898   4.274 -0.4507 -2.4616  0.8482
  644MOL0     H86878   1.053   2.948   4.142  1.7834 -1.6347 -0.8349
  644MOL0     H86879   0.947   2.664   4.133  1.1084  0.9080  1.4840
  644MOL0     H86880   0.819   2.783   4.109 -1.1378  1.0040 -1.9273
  644MOL0     H86881   0.931   2.899   3.928  0.5225  0.1841  0.9597
  644MOL0     H86882   1.057   2.786   3.919  0.1284  5.0895 -0.7780
  644MOL0     H86883   0.851   2.594   3.892 -2.6436 -0.2618 -1.3446
  644MOL0     H86884   0.766   2.743   3.859  0.4362  0.6899  0.3533
  644MOL0     H86885   0.959   2.772   3.669  1.5226 -0.3136  0.1748
  644MOL0     H86886   0.981   2.602   3.720 -0.2930  0.0790  0.0130
  644MOL0     H86887   0.759   2.554   3.663 -1.2508  1.5794  1.3954
  644MOL0     H86888   0.723   2.716   3.597  0.2560  0.8556  0.6561
  644MOL0     H86889   0.928   2.660   3.428 -2.0344  1.1726  0.0027
  644MOL0     H86890   0.768   2.590   3.408  2.4494 -0.4404 -2.1226
  644MOL0     H86891   1.124   2.509   3.467 -0.5559  1.3821 -1.7126
  644MOL0     H86892   1.167   2.109   3.439 -0.2353 -0.1322  0.5344
  644MOL0     H86893   1.254   2.251   3.380 -0.4528 -0.0909  0.1230
  644MOL0     H86894   1.300   2.332   3.597  0.3200 -0.5657  0.0362
  644MOL0     H86895   1.377   2.178   3.574  0.6341  1.5864 -1.4272
  644MOL0     H86896   1.118   2.253   3.726 -1.7549 -2.3131  1.2719
  644MOL0     H86897   1.273   2.191   3.794  0.5873  0.8042 -1.4088
  644MOL0     H86898   1.233   1.963   3.684 -0.5149 -0.1087  0.4651
  644MOL0     H86899   1.069   2.023   3.647 -0.2901  0.8336 -1.2635
  644MOL0     H86900   1.227   1.781   3.759 -1.2406  2.2369 -2.6004
  644MOL0     H86901   1.115   1.475   3.695  0.3719  1.1822 -1.5751
  644MOL0     H86902   1.260   1.560   3.746 -1.2107  1.5394 -0.7148
  644MOL0     H86903   1.179   1.452   3.859  0.8642 -2.4926 -1.8094
  644MOL0     H86904   0.890   1.193   4.049 -2.1498 -1.9698  2.0515
  644MOL0     H86905   0.747   0.996   4.021  1.2994 -0.6120 -0.6201
  644MOL0     H86906   0.498   0.947   3.633  1.2257  2.3274  0.2003
  644MOL0     H86907   0.640   0.850   3.649 -0.2331 -0.0737 -1.3831
  644MOL0     H86908   0.452   0.699   3.803  0.5539 -1.7165 -1.6694
  644MOL0     H86909   0.340   0.820   3.771 -0.3432 -0.1381  0.3421
  644MOL0     H86910   0.496   0.654   3.577  0.7754  1.2768 -1.1225
  644MOL0     H86911   0.389   0.797   3.522  0.7213 -1.1001 -1.5758
  644MOL0     H86912   0.189   0.684   3.631  0.8325  4.2903 -2.5616
  644MOL0     H86913   0.259   0.591   3.501 -0.9575  2.0576 -0.7066
  644MOL0     H86914   0.279   0.535   3.802 -2.6845 -0.5830 -0.3350
  644MOL0     H86915   0.408   0.472   3.699  0.8190  1.7300  0.3191
  644MOL0     H86916   0.205   0.361   3.571  0.6534 -1.7767  0.5449
  644MOL0     H86917   0.218   0.303   3.740 -1.5752 -2.4233 -2.5333
  644MOL0     H86918   0.037   0.520   3.642  1.1357  0.6222  0.6359
  644MOL0     H86919   0.032   0.454   3.797 -0.9034  2.7458 -0.6263
  644MOL0     H86920  -0.150   0.353   3.661  0.2960  1.3282 -1.2349
  644MOL0     H86921  -0.042   0.222   3.707 -2.0195 -0.5050 -0.1962
  644MOL0     H86922   0.657   1.132   3.624  1.3733 -4.4812 -0.7061
  644MOL0     H86923   0.809   1.315   3.654 -0.8620  1.4795  1.5588
  644MOL0     H86924   0.803   1.722   4.000 -0.4045 -0.3951 -0.8752
  644MOL0     H86925   0.901   1.951   3.940 -0.2300  0.4131  2.5071
  644MOL0     H86926   1.298   2.588   4.349  1.0019  0.3654 -0.8054
  644MOL0     H86927   1.479   2.521   4.492 -2.9132 -1.1335  2.6363
  644MOL0     H86928   1.707   2.683   4.848 -1.9151 -2.4553 -2.5426
  644MOL0     H86929   1.875   2.615   5.030 -2.6210 -3.5100  0.0358
  644MOL0     H86930   2.296   2.642   4.936  0.2366 -1.9898 -0.2837
  644MOL0     H86931   2.186   2.740   5.043  0.9543  0.3388  0.3834
  644MOL0     H86932   2.395   2.652   5.151  0.7113 -1.6988  2.3539
  644MOL0     H86933   2.353   2.497   5.099 -0.2117  0.4712 -2.0640
  644MOL0     H86934   2.152   2.508   5.251  0.4076 -0.7266 -0.9085
  644MOL0     H86935   2.175   2.684   5.272  1.0345  1.2117 -2.1266
  644MOL0     H86936   2.219   2.564   5.487 -0.9921  0.0949 -0.3777
  644MOL0     H86937   2.364   2.641   5.420  0.7598  0.1761 -1.6008
  644MOL0     H86938   2.442   2.225   5.444 -1.5512  0.0420  2.1580
  644MOL0     H86939   2.179   2.552   4.730  0.6016  2.3055 -0.0768
  644MOL0     H86940   2.009   2.576   4.559  2.6218 -0.2218  0.7336
  645MOL0     O86941   5.510   7.323   2.808  0.3872 -0.3531  0.7702
  645MOL0     C86942   5.603   7.310   2.888 -0.0177  0.0574 -0.3638
  645MOL0     O86943   5.603   7.211   2.990 -0.8014  0.0137  0.4157
  645MOL0     C86944   5.485   7.170   3.042 -0.1736  0.5470  0.7269
  645MOL0     C86945   5.432   7.241   3.141  0.5361  0.2726 -0.4472
  645MOL0     C86946   5.303   7.219   3.189  0.2890  0.5283 -0.2465
  645MOL0     C86947   5.233   7.110   3.139 -0.4882  0.3576 -0.5695
  645MOL0     O86948   5.103   7.072   3.169 -0.4310 -0.7763 -0.7361
  645MOL0     C86949   5.032   7.163   3.264  0.1031  0.1658 -0.4912
  645MOL0     C86950   4.911   7.095   3.313 -0.1384  0.8638 -0.0511
  645MOL0     C86951   4.833   7.167   3.424  1.2624 -0.1979 -0.7231
  645MOL0     C86952   4.697   7.114   3.454 -0.3129 -0.1453 -0.7729
  645MOL0     C86953   4.664   6.965   3.484  0.3162 -0.1347  0.1752
  645MOL0     C86954   4.545   6.913   3.401 -0.9521 -0.3331  0.4371
  645MOL0     C86955   4.545   6.764   3.378 -0.3535  0.7773 -0.4868
  645MOL0     C86956   4.459   6.734   3.256 -0.1419 -0.3409 -0.6010
  645MOL0     N86957   4.449   6.582   3.248 -0.2679 -0.2523 -0.0066
  645MOL0     C86958   4.556   6.502   3.228  0.3134 -1.7814 -0.5333
  645MOL0     C86959   4.504   6.380   3.227  0.3668  0.8620 -1.0071
  645MOL0     C86960   4.583   6.252   3.187  0.0389 -0.8281 -0.7174
  645MOL0     C86961   4.604   6.157   3.305 -0.2389  0.0517  0.1118
  645MOL0     C86962   4.735   6.082   3.303  0.0752  0.6603  0.4613
  645MOL0     C86963   4.749   6.003   3.434 -0.6400  0.4281  0.3902
  645MOL0     O86964   4.881   5.951   3.453 -0.0128  0.4185  0.8430
  645MOL0     C86965   4.977   6.038   3.506  0.3707  0.0931 -0.2907
  645MOL0     C86966   4.963   6.171   3.527  0.1311 -0.3806  0.2210
  645MOL0     C86967   5.060   6.244   3.607 -0.2486  0.8564 -0.3091
  645MOL0     C86968   5.042   6.383   3.630 -0.4116 -0.5143  0.1007
  645MOL0     C86969   5.174   6.172   3.652 -0.4671  0.6445  0.9325
  645MOL0     C86970   5.292   6.228   3.727 -0.4777  0.6955 -0.2583
  645MOL0     O86971   5.393   6.148   3.756 -0.0619 -0.4835  0.5802
  645MOL0     C86972   5.478   6.184   3.859 -0.9745  0.2396  0.5027
  645MOL0     C86973   5.613   6.193   3.813 -0.2571  0.5054 -0.1416
  645MOL0     C86974   5.705   6.233   3.906  0.1309  0.1486 -0.6047
  645MOL0     C86975   5.674   6.262   4.040 -0.1057 -0.1006 -0.5769
  645MOL0     O86976   5.777   6.293   4.132 -0.9769 -0.3977 -0.4547
  645MOL0     C86977   5.742   6.360   4.254  1.3815 -0.6814 -0.4299
  645MOL0     C86978   5.868   6.376   4.342 -0.6288 -0.3700 -0.6568
  645MOL0     C86979   5.828   6.466   4.464 -0.6248 -0.2636  0.9628
  645MOL0     C86980   5.952   6.475   4.567 -0.4022  0.1514 -0.0046
  645MOL0     C86981   5.906   6.559   4.681 -0.8016 -0.2600 -0.8723
  645MOL0     C86982   6.014   6.592   4.794 -0.1903  0.6418 -0.0441
  645MOL0     C86983   6.137   6.672   4.753  0.3381 -0.0675 -0.5835
  645MOL0     C86984   6.207   6.701   4.886 -0.7724  0.9892 -0.7028
  645MOL0    Cl86985   6.379   6.739   4.841  0.3526  0.2333 -0.3776
  645MOL0     C86986   5.543   6.254   4.091 -0.0911  0.2132 -0.6417
  645MOL0     C86987   5.439   6.218   3.993 -0.0215  0.2334 -0.4216
  645MOL0     O86988   5.287   6.353   3.756  0.5762  0.8907 -0.4076
  645MOL0     C86989   5.181   6.030   3.636  0.4973 -0.2663 -0.3043
  645MOL0     C86990   5.074   5.968   3.572 -0.1413 -0.7031  0.3588
  645MOL0     N86991   4.374   6.388   3.266  0.0970  0.0032 -0.4056
  645MOL0     N86992   4.341   6.505   3.275 -0.0952 -0.1750  0.3430
  645MOL0     C86993   5.291   7.031   3.039 -0.5866  0.0773 -0.0807
  645MOL0     C86994   5.418   7.057   2.987  0.2466  0.0395 -0.1731
  645MOL0     C86995   5.726   7.395   2.863  0.2593  0.5301 -0.7130
  645MOL0     C86996   5.850   7.343   2.887 -0.7020 -0.8080 -0.9007
  645MOL0     C86997   5.967   7.418   2.878  0.3755  0.5829  0.3496
  645MOL0     C86998   5.961   7.559   2.849 -0.3585  0.8295  0.0041
  645MOL0     O86999   6.076   7.621   2.855  0.0552  0.0643  0.2083
  645MOL0     C87000   6.092   7.763   2.833 -0.3972 -0.0334  0.8917
  645MOL0     C87001   6.094   7.805   2.685  0.1733  0.0417 -0.0556
  645MOL0     C87002   6.215   7.745   2.619 -0.2894  0.1442 -0.4178
  645MOL0     C87003   6.219   7.766   2.464 -0.2915  0.0245  0.1992
  645MOL0     C87004   6.353   7.729   2.412 -0.4731 -0.4842  0.0488
  645MOL0     C87005   6.461   7.744   2.355 -0.1680 -0.1537 -0.3746
  645MOL0     C87006   5.838   7.610   2.800  0.0018  0.0289  0.5718
  645MOL0     C87007   5.726   7.521   2.811  0.2098 -0.1095  0.5274
  645MOL0     H87008   5.487   7.329   3.173  1.7397 -1.3029  2.2015
  645MOL0     H87009   5.251   7.278   3.264  1.7026  3.2868 -1.3072
  645MOL0     H87010   5.087   7.188   3.355 -1.8929  0.3735  0.7075
  645MOL0     H87011   5.006   7.251   3.204  0.0044 -0.3983 -1.2986
  645MOL0     H87012   4.831   7.073   3.241  0.5110 -0.1666 -0.4864
  645MOL0     H87013   4.949   7.003   3.357  1.0361  1.2944 -0.1353
  645MOL0     H87014   4.890   7.179   3.517 -0.6642  2.3784  0.2437
  645MOL0     H87015   4.817   7.269   3.388 -0.9058  0.5306  1.9551
  645MOL0     H87016   4.669   7.159   3.550 -0.6871  0.8213 -1.3335
  645MOL0     H87017   4.625   7.161   3.387 -2.2373 -2.2872 -0.3247
  645MOL0     H87018   4.761   6.918   3.465  0.8352  0.6804  0.7398
  645MOL0     H87019   4.648   6.946   3.590  2.3794  1.7943  0.9032
  645MOL0     H87020   4.452   6.957   3.439 -0.9242 -0.0853  0.2269
  645MOL0     H87021   4.559   6.960   3.303 -3.1151  0.8108  0.6130
  645MOL0     H87022   4.643   6.725   3.352 -0.7838  0.2826 -1.4360
  645MOL0     H87023   4.509   6.724   3.474  2.2550  0.5891  0.4854
  645MOL0     H87024   4.511   6.768   3.167  2.8357 -4.6050 -0.7703
  645MOL0     H87025   4.356   6.766   3.273  0.6751  1.6244  1.1635
  645MOL0     H87026   4.660   6.533   3.221 -0.5614  1.7726 -0.0107
  645MOL0     H87027   4.529   6.203   3.106  1.8365 -0.5270 -2.1687
  645MOL0     H87028   4.675   6.295   3.145 -0.2404 -0.6925 -1.1991
  645MOL0     H87029   4.521   6.090   3.328 -0.4426  0.6626  1.2018
  645MOL0     H87030   4.607   6.223   3.392  0.7911  0.8482 -0.4952
  645MOL0     H87031   4.819   6.147   3.277  0.5908 -0.1732 -0.0137
  645MOL0     H87032   4.742   6.013   3.218  1.8934  1.4216 -0.0578
  645MOL0     H87033   4.681   5.918   3.446 -0.9939  0.6469 -0.0490
  645MOL0     H87034   4.719   6.065   3.520 -4.0576 -1.0231  0.4151
  645MOL0     H87035   4.886   6.231   3.481  1.3931  1.5558  0.4833
  645MOL0     H87036   5.131   6.429   3.586  1.0636 -4.4526 -1.4922
  645MOL0     H87037   4.952   6.422   3.581  1.4157  1.8936 -1.5833
  645MOL0     H87038   5.041   6.393   3.739 -2.5767  0.6770  0.0153
  645MOL0     H87039   5.652   6.161   3.716  1.5776 -0.0429  0.7238
  645MOL0     H87040   5.810   6.221   3.881  0.0922 -0.3067 -0.5660
  645MOL0     H87041   5.696   6.456   4.230  1.4225 -0.1502  1.4530
  645MOL0     H87042   5.670   6.304   4.315 -0.7757  0.8332 -1.4368
  645MOL0     H87043   5.887   6.276   4.381 -1.4548 -0.2722  0.0054
  645MOL0     H87044   5.949   6.419   4.281 -0.5741 -4.0453 -3.5241
  645MOL0     H87045   5.744   6.417   4.516 -0.3602 -3.5688 -1.4077
  645MOL0     H87046   5.806   6.567   4.428  3.2877 -0.0335 -1.3852
  645MOL0     H87047   5.971   6.376   4.608  2.7219  0.6439 -0.0356
  645MOL0     H87048   6.034   6.529   4.519 -0.1183 -0.8922 -0.7056
  645MOL0     H87049   5.827   6.512   4.740  1.3994  0.2355  2.8041
  645MOL0     H87050   5.861   6.654   4.651 -0.7722  0.1726  0.4111
  645MOL0     H87051   5.964   6.643   4.876  1.0241  1.2735  0.3284
  645MOL0     H87052   6.046   6.495   4.834 -0.5321  0.5676  0.0524
  645MOL0     H87053   6.121   6.769   4.706 -0.1322  0.6162  0.9150
  645MOL0     H87054   6.196   6.605   4.690 -0.5858 -4.0804  2.4092
  645MOL0     H87055   6.210   6.617   4.956 -2.6070  0.7121 -0.9058
  645MOL0     H87056   6.157   6.777   4.947 -0.3690  0.4557  0.3211
  645MOL0     H87057   5.503   6.273   4.190  1.1817 -0.5278  0.0327
  645MOL0     H87058   5.338   6.200   4.027 -0.6104  3.3115 -0.2588
  645MOL0     H87059   5.260   5.968   3.678  0.8092 -1.0746 -1.9799
  645MOL0     H87060   5.070   5.860   3.584 -0.4864 -0.5572  1.7791
  645MOL0     H87061   5.249   6.932   3.024 -0.2446 -0.0104 -0.4742
  645MOL0     H87062   5.472   6.993   2.919 -1.1821 -1.2718 -0.1213
  645MOL0     H87063   5.857   7.240   2.919  1.6744 -0.0321  1.4147
  645MOL0     H87064   6.062   7.379   2.913  0.1060  1.2748  1.9100
  645MOL0     H87065   6.014   7.821   2.883  0.6166  2.5111 -0.2693
  645MOL0     H87066   6.185   7.804   2.873  0.4235  1.1300 -1.9135
  645MOL0     H87067   6.083   7.913   2.674  1.4138  0.4121  1.9347
  645MOL0     H87068   6.004   7.760   2.640 -1.2240  2.0983  0.5572
  645MOL0     H87069   6.212   7.639   2.645 -0.9473  0.6339  1.7109
  645MOL0     H87070   6.302   7.791   2.666 -1.2531  2.0186 -0.3495
  645MOL0     H87071   6.188   7.867   2.435  2.2712  1.7195  2.9237
  645MOL0     H87072   6.147   7.698   2.417 -0.4759  2.4636 -3.4300
  645MOL0     H87073   6.550   7.748   2.296 -1.1699 -3.1397 -2.3052
  645MOL0     H87074   5.821   7.704   2.748 -3.2641 -1.3520 -1.0865
  645MOL0     H87075   5.634   7.548   2.761  1.4747 -0.1433 -1.9576
  646MOL0     O87076   7.907   9.705   5.626 -0.0210 -0.2057  0.2169
  646MOL0     C87077   7.962   9.598   5.649 -0.3381 -0.0431  0.2415
  646MOL0     O87078   7.900   9.479   5.686  0.2443 -0.1929  0.1056
  646MOL0     C87079   7.765   9.484   5.714 -0.6025 -0.6957  0.3385
  646MOL0     C87080   7.719   9.446   5.840 -0.1084 -0.7631  0.5811
  646MOL0     C87081   7.581   9.444   5.863  0.4676  0.8382  0.1174
  646MOL0     C87082   7.491   9.471   5.765  0.4453 -0.1887 -0.6313
  646MOL0     O87083   7.352   9.471   5.777 -0.9831  0.8906  0.1382
  646MOL0     C87084   7.286   9.402   5.882 -0.3591 -0.6352 -0.0634
  646MOL0     C87085   7.147   9.393   5.840  0.4954  1.1344  0.0166
  646MOL0     C87086   7.063   9.523   5.833  0.5008 -0.2899 -0.0369
  646MOL0     C87087   6.940   9.505   5.747  0.6854  0.4103 -0.1923
  646MOL0     C87088   6.838   9.611   5.733 -0.1838  0.2856  0.3354
  646MOL0     C87089   6.795   9.670   5.866 -0.1686 -0.2575  0.0520
  646MOL0     C87090   6.676   9.769   5.862  0.0806  0.9600  0.3804
  646MOL0     C87091   6.548   9.687   5.851 -0.4608 -0.2604  0.0529
  646MOL0     N87092   6.436   9.757   5.914  0.1604 -0.5497 -1.2920
  646MOL0     C87093   6.414   9.783   6.050 -0.6422  0.3843  1.5696
  646MOL0     C87094   6.316   9.877   6.056 -0.2400 -0.5199 -0.1510
  646MOL0     C87095   6.252   9.936   6.175  0.1289 -0.0803 -0.5135
  646MOL0     C87096   6.123   9.859   6.201 -0.2843  0.0673 -0.5649
  646MOL0     C87097   6.009   9.929   6.266  0.9337  0.1601  0.1719
  646MOL0     C87098   6.031   9.958   6.412 -0.6469  0.1675  0.8671
  646MOL0     O87099   5.934  10.042   6.467  0.6575 -0.2398  0.0745
  646MOL0     C87100   5.834   9.984   6.548 -0.1649  0.0160 -0.4993
  646MOL0     C87101   5.794   9.856   6.527  0.3039  0.3250  0.4668
  646MOL0     C87102   5.681   9.808   6.597 -0.3827 -0.7759 -0.3130
  646MOL0     C87103   5.629   9.684   6.539  0.8524 -0.4545 -0.0616
  646MOL0     C87104   5.632   9.880   6.708  0.6257  0.6449 -0.6739
  646MOL0     C87105   5.528   9.820   6.805 -1.4159  0.8066 -0.2854
  646MOL0     O87106   5.499   9.894   6.917  0.3763 -0.7876  0.0560
  646MOL0     C87107   5.416   9.856   7.011  0.9250  0.3601  0.0671
  646MOL0     C87108   5.284   9.815   6.977  0.2357  0.4425 -0.1142
  646MOL0     C87109   5.191   9.775   7.064  0.2552  0.0566 -0.2450
  646MOL0     C87110   5.224   9.775   7.204  0.7067  0.1084  0.3458
  646MOL0     O87111   5.146   9.725   7.304 -0.1739 -0.4551 -0.1154
  646MOL0     C87112   5.050   9.625   7.277 -0.6313  0.2324  0.6466
  646MOL0     C87113   5.120   9.495   7.238 -0.0537 -0.5534 -0.7352
  646MOL0     C87114   5.194   9.442   7.360  0.0231  0.3662  0.6413
  646MOL0     C87115   5.329   9.379   7.331 -1.2110 -0.3742  0.3333
  646MOL0     C87116   5.449   9.475   7.288  0.0893 -0.1981 -0.6403
  646MOL0     C87117   5.591   9.415   7.313  0.1203  0.3708 -1.1938
  646MOL0     C87118   5.621   9.276   7.253  0.5691  0.4365 -0.1577
  646MOL0     C87119   5.767   9.237   7.277  0.5414 -0.6225 -0.7334
  646MOL0    Cl87120   5.827   9.080   7.224 -0.0503  0.0431 -0.0272
  646MOL0     C87121   5.351   9.814   7.242 -0.1987  0.9891 -0.0145
  646MOL0     C87122   5.452   9.847   7.144  0.4326 -1.0627 -0.2082
  646MOL0     O87123   5.510   9.701   6.802 -0.2910  0.4779  0.4961
  646MOL0     C87124   5.674  10.010   6.725 -0.2770  0.8211  0.0969
  646MOL0     C87125   5.776  10.059   6.645  0.2980 -0.0921  0.2674
  646MOL0     N87126   6.270   9.895   5.925  0.1142  0.2829  0.0373
  646MOL0     N87127   6.343   9.819   5.843 -0.5187 -0.1864 -0.4596
  646MOL0     C87128   7.537   9.503   5.639  0.0258 -0.1007 -0.5048
  646MOL0     C87129   7.675   9.509   5.609  1.0996 -0.0858  0.0752
  646MOL0     C87130   8.104   9.605   5.625 -0.3286 -0.4286 -0.2004
  646MOL0     C87131   8.202   9.513   5.658 -0.0543  0.2059 -0.1739
  646MOL0     C87132   8.344   9.527   5.640 -0.8213 -0.1161 -0.1652
  646MOL0     C87133   8.392   9.643   5.578 -0.2210 -0.1889 -0.2027
  646MOL0     O87134   8.525   9.636   5.539  0.3048  0.2610  0.4699
  646MOL0     C87135   8.599   9.756   5.563 -0.1062  0.0892 -0.6431
  646MOL0     C87136   8.729   9.752   5.498 -0.5812  0.6921  0.6655
  646MOL0     C87137   8.722   9.785   5.348  0.1826 -0.4630  0.6205
  646MOL0     C87138   8.676   9.924   5.310 -0.2786  0.3932  0.5349
  646MOL0     C87139   8.770  10.027   5.343 -0.5236  0.1559  0.3940
  646MOL0     C87140   8.868  10.096   5.368  0.1290  0.2297 -0.2925
  646MOL0     C87141   8.297   9.732   5.522  1.1873 -0.1528  0.3107
  646MOL0     C87142   8.158   9.710   5.547 -0.9831 -0.3192  0.7365
  646MOL0     H87143   7.787   9.419   5.920  0.2764  1.5427  1.1142
  646MOL0     H87144   7.556   9.416   5.965 -2.0497  2.7534  0.1129
  646MOL0     H87145   7.328   9.302   5.893 -1.7860 -1.5428 -2.2172
  646MOL0     H87146   7.292   9.450   5.980 -0.6412 -1.3105  0.2882
  646MOL0     H87147   7.159   9.352   5.739  1.6894  1.4813 -0.0066
  646MOL0     H87148   7.102   9.320   5.907 -0.9818 -0.3468 -2.4678
  646MOL0     H87149   7.040   9.574   5.927  0.8772 -0.4048  0.1192
  646MOL0     H87150   7.119   9.594   5.772 -0.1912  0.9831  0.7588
  646MOL0     H87151   6.965   9.462   5.649  0.2849  0.2204 -0.2110
  646MOL0     H87152   6.879   9.429   5.797 -3.8201  2.0932 -2.5651
  646MOL0     H87153   6.881   9.692   5.672 -0.2572 -1.3956 -2.0777
  646MOL0     H87154   6.755   9.574   5.673 -0.4114  2.9201 -1.1569
  646MOL0     H87155   6.783   9.591   5.941  2.7315 -0.8986 -0.0563
  646MOL0     H87156   6.874   9.732   5.910 -1.9851  1.9746  0.3438
  646MOL0     H87157   6.667   9.831   5.951  0.0148  1.4971  0.0069
  646MOL0     H87158   6.693   9.842   5.782  2.1939  1.1484  0.9624
  646MOL0     H87159   6.559   9.589   5.899  0.6913 -0.3289 -0.3267
  646MOL0     H87160   6.513   9.682   5.748 -1.4127 -0.2246  0.3686
  646MOL0     H87161   6.469   9.743   6.135  0.3008 -2.9499 -0.4641
  646MOL0     H87162   6.314   9.931   6.265  0.4042  1.4293 -0.5852
  646MOL0     H87163   6.238  10.041   6.148  0.2171  0.1875  0.4275
  646MOL0     H87164   6.155   9.781   6.272 -2.8410 -1.1728 -0.6716
  646MOL0     H87165   6.072   9.823   6.112 -1.3495  2.7964 -1.1494
  646MOL0     H87166   5.918   9.870   6.260 -0.2337  1.9699 -0.5776
  646MOL0     H87167   5.975  10.016   6.209 -3.1249 -0.2305  1.6907
  646MOL0     H87168   6.124  10.015   6.425  0.3779 -0.0024 -3.8764
  646MOL0     H87169   6.042   9.868   6.473 -1.8060 -0.5595  0.0268
  646MOL0     H87170   5.839   9.805   6.442  0.4305  2.0135 -0.5174
  646MOL0     H87171   5.663   9.669   6.436  3.0132  1.1908  0.3424
  646MOL0     H87172   5.650   9.594   6.599 -0.2368 -0.6749  0.0035
  646MOL0     H87173   5.521   9.698   6.538  0.8438 -0.2013  1.4811
  646MOL0     H87174   5.264   9.817   6.870  6.1176  0.5519 -1.5925
  646MOL0     H87175   5.088   9.754   7.034 -0.4828  1.0080  1.4791
  646MOL0     H87176   4.978   9.603   7.357 -1.7673 -0.2924 -0.4845
  646MOL0     H87177   4.974   9.655   7.205 -0.8357  0.5503  0.9893
  646MOL0     H87178   5.042   9.423   7.214  0.8398 -1.8104  0.0126
  646MOL0     H87179   5.187   9.502   7.152 -0.2125  0.0258 -0.8153
  646MOL0     H87180   5.134   9.371   7.417  0.1174  1.6162  2.3832
  646MOL0     H87181   5.210   9.524   7.431 -1.0534  1.0037  0.1674
  646MOL0     H87182   5.360   9.334   7.426 -2.5501 -5.5817 -1.3617
  646MOL0     H87183   5.334   9.285   7.276  0.6150 -1.9292  2.9257
  646MOL0     H87184   5.436   9.558   7.359 -1.0383  1.8340 -3.0965
  646MOL0     H87185   5.442   9.514   7.186 -0.6975  1.3473 -0.0348
  646MOL0     H87186   5.656   9.493   7.270  1.3286  1.7680  2.7227
  646MOL0     H87187   5.610   9.424   7.420 -0.8031  0.7846 -1.0537
  646MOL0     H87188   5.596   9.279   7.146  0.0985  1.6025 -0.0244
  646MOL0     H87189   5.555   9.204   7.303  0.5697  0.0907 -0.6452
  646MOL0     H87190   5.784   9.233   7.385 -0.8370 -0.5900 -0.4868
  646MOL0     H87191   5.824   9.318   7.231 -0.8720  0.3578 -0.8106
  646MOL0     H87192   5.378   9.798   7.346  1.4756 -1.5588 -0.7653
  646MOL0     H87193   5.556   9.871   7.167  0.3321 -0.1068 -0.6893
  646MOL0     H87194   5.632  10.073   6.803  2.3085  2.4522  0.2996
  646MOL0     H87195   5.802  10.164   6.663 -1.5202  0.7191 -1.5290
  646MOL0     H87196   7.466   9.536   5.563 -1.1856 -0.1294  0.5843
  646MOL0     H87197   7.722   9.530   5.514  1.6176 -0.5909  0.2101
  646MOL0     H87198   8.180   9.434   5.730 -1.1539  3.2623  3.1423
  646MOL0     H87199   8.406   9.444   5.669  1.3075  0.5830 -2.3428
  646MOL0     H87200   8.536   9.840   5.535 -0.8596 -0.7100 -1.3945
  646MOL0     H87201   8.620   9.769   5.670 -2.2957 -0.4728 -0.0910
  646MOL0     H87202   8.781   9.656   5.499 -1.3206  0.1991 -1.6163
  646MOL0     H87203   8.798   9.821   5.548  0.6606 -0.4173  0.5347
  646MOL0     H87204   8.654   9.717   5.295 -2.2125  1.6425  0.8175
  646MOL0     H87205   8.823   9.782   5.307 -0.4438 -0.2874 -0.9807
  646MOL0     H87206   8.583   9.942   5.366  0.5229  1.2511  1.6370
  646MOL0     H87207   8.637   9.933   5.208 -6.4012 -0.4341  2.3678
  646MOL0     H87208   8.959  10.148   5.390  0.1482  0.8483 -1.7441
  646MOL0     H87209   8.332   9.810   5.456  1.3732 -0.7986 -0.3707
  646MOL0     H87210   8.090   9.791   5.521 -0.7267 -0.5990 -0.8610
  647MOL0     O87211   6.395   6.959  10.242 -0.7161 -0.5319 -0.3943
  647MOL0     C87212   6.357   7.072  10.272  0.1787  0.6329 -0.6723
  647MOL0     O87213   6.229   7.102  10.302  0.1387  0.0434 -0.6925
  647MOL0     C87214   6.127   7.010  10.298  0.0760 -0.0974  0.7280
  647MOL0     C87215   6.127   6.899  10.378 -0.5115  0.5828  0.3584
  647MOL0     C87216   6.017   6.810  10.375 -0.3407  0.3326  0.0661
  647MOL0     C87217   5.905   6.842  10.288 -0.4996 -0.1281  0.7060
  647MOL0     O87218   5.796   6.759  10.273  0.6065  0.1706 -0.4416
  647MOL0     C87219   5.783   6.646  10.360  0.3370  0.4736 -0.4957
  647MOL0     C87220   5.646   6.588  10.345 -0.1867  0.2368 -0.0954
  647MOL0     C87221   5.634   6.463  10.436  0.3820  0.1757 -0.1126
  647MOL0     C87222   5.493   6.406  10.434 -0.4225 -0.3942  0.6290
  647MOL0     C87223   5.400   6.481  10.522  0.1569  0.5544  0.5470
  647MOL0     C87224   5.291   6.384  10.565 -0.3668  0.3662  0.3207
  647MOL0     C87225   5.195   6.331  10.451 -0.6670  0.8612  0.3314
  647MOL0     C87226   5.106   6.443  10.401  0.3286  0.4149 -0.3136
  647MOL0     N87227   4.992   6.460  10.492  0.7504 -0.1473  1.0336
  647MOL0     C87228   4.907   6.361  10.534 -1.5193  0.2136 -0.1669
  647MOL0     C87229   4.831   6.430  10.620 -0.6337 -0.4033  0.9252
  647MOL0     C87230   4.697   6.376  10.680 -0.5475  1.0899 -0.4192
  647MOL0     C87231   4.564   6.419  10.607 -0.1282  0.2027 -0.2283
  647MOL0     C87232   4.451   6.355  10.693 -0.0937 -0.0531  0.3895
  647MOL0     C87233   4.312   6.383  10.636 -0.3287  0.4773 -0.9924
  647MOL0     O87234   4.215   6.336  10.730  0.2274  0.0911 -0.0623
  647MOL0     C87235   4.090   6.303  10.681  0.0030  0.7700 -0.0943
  647MOL0     C87236   3.993   6.305  10.773  0.4689 -0.1216  0.6105
  647MOL0     C87237   3.849   6.298  10.747  1.4392  0.0801  0.7553
  647MOL0     C87238   3.756   6.292  10.860  0.5411  0.0893  0.0654
  647MOL0     C87239   3.804   6.271  10.613  0.2523  1.1668 -0.7236
  647MOL0     C87240   3.657   6.255  10.571 -0.8945  0.2539 -0.8071
  647MOL0     O87241   3.640   6.247  10.438 -0.0072  0.5924 -0.4793
  647MOL0     C87242   3.510   6.239  10.393 -0.5893  1.3460  0.2180
  647MOL0     C87243   3.418   6.138  10.418  0.3288  0.0673 -0.2070
  647MOL0     C87244   3.282   6.158  10.372 -0.2161  0.4559  0.9957
  647MOL0     C87245   3.238   6.270  10.303 -0.9083 -0.6843 -1.0447
  647MOL0     O87246   3.115   6.317  10.272  0.4108 -0.2653  0.1217
  647MOL0     C87247   3.007   6.217  10.272 -0.3539  0.7679 -0.2682
  647MOL0     C87248   2.876   6.274  10.214 -0.5993 -0.1283  0.0036
  647MOL0     C87249   2.833   6.418  10.257 -1.4083  0.2828 -0.2239
  647MOL0     C87250   2.698   6.471  10.232 -0.1868  0.0450 -0.3048
  647MOL0     C87251   2.664   6.618  10.280 -0.0369  0.0592 -0.0455
  647MOL0     C87252   2.709   6.632  10.425 -0.1180 -0.1637 -0.3091
  647MOL0     C87253   2.627   6.541  10.522  0.9569  0.0224 -0.4505
  647MOL0     C87254   2.647   6.588  10.667  0.8154 -0.0799  0.2413
  647MOL0    Cl87255   2.560   6.482  10.786  0.2700 -0.5125 -0.3642
  647MOL0     C87256   3.332   6.369  10.286 -0.0059 -0.6476 -0.4356
  647MOL0     C87257   3.463   6.354  10.323 -0.0581 -0.0383 -0.3028
  647MOL0     O87258   3.569   6.251  10.655 -0.4129  0.5406  0.0457
  647MOL0     C87259   3.915   6.259  10.520  1.2041  0.0171  0.2172
  647MOL0     C87260   4.045   6.276  10.553 -0.3828  0.3502  0.0534
  647MOL0     N87261   4.871   6.568  10.622 -0.9476  0.6673  0.0751
  647MOL0     N87262   4.976   6.581  10.546  0.5068 -0.3282 -0.0677
  647MOL0     C87263   5.907   6.962  10.222 -0.3442 -0.7247  1.0779
  647MOL0     C87264   6.017   7.046  10.225 -0.9048 -0.9255 -0.1476
  647MOL0     C87265   6.457   7.178  10.254 -0.4760 -0.9691  0.2795
  647MOL0     C87266   6.428   7.315  10.283  0.0272 -0.1389 -0.1949
  647MOL0     C87267   6.528   7.420  10.273 -0.2580  0.3993 -1.3224
  647MOL0     C87268   6.653   7.387  10.219 -0.2721 -0.7203 -0.1200
  647MOL0     O87269   6.757   7.475  10.187 -0.1148 -0.1301 -0.1318
  647MOL0     C87270   6.783   7.583  10.276  1.2088 -0.4545  0.6901
  647MOL0     C87271   6.782   7.725  10.219  0.1176  0.0855 -0.4026
  647MOL0     C87272   6.636   7.761  10.183 -0.7124  0.4496 -0.7868
  647MOL0     C87273   6.651   7.851  10.065  0.6119 -0.2984  0.6330
  647MOL0     C87274   6.551   7.958  10.059  0.0652 -0.6209 -0.1242
  647MOL0     C87275   6.484   8.061  10.060 -0.3406  0.3432 -0.1618
  647MOL0     C87276   6.682   7.257  10.182  0.7664 -0.2284  0.1367
  647MOL0     C87277   6.587   7.152  10.209  0.5966 -0.7941  0.7321
  647MOL0     H87278   6.202   6.883  10.455  2.6054  0.5173 -2.4923
  647MOL0     H87279   6.027   6.726  10.443  2.3063  1.6956  1.5208
  647MOL0     H87280   5.864   6.576  10.341  0.4498 -0.1077  1.7837
  647MOL0     H87281   5.796   6.684  10.462  1.9828 -2.2551  0.4230
  647MOL0     H87282   5.569   6.663  10.360 -1.0264 -0.5224 -0.4931
  647MOL0     H87283   5.629   6.564  10.239 -1.6429  1.8245 -0.2588
  647MOL0     H87284   5.707   6.387  10.406  0.4388 -0.9757  2.6412
  647MOL0     H87285   5.667   6.496  10.535  3.5421  1.4430 -1.4404
  647MOL0     H87286   5.462   6.417  10.329 -0.0197  3.9194  0.7967
  647MOL0     H87287   5.502   6.302  10.465 -1.0637 -0.0770  1.9208
  647MOL0     H87288   5.450   6.507  10.615 -0.8831  3.8155  0.3158
  647MOL0     H87289   5.355   6.572  10.481 -0.9626  1.5460  3.7267
  647MOL0     H87290   5.340   6.296  10.606  0.6142 -0.5083 -2.4897
  647MOL0     H87291   5.226   6.426  10.642  0.2813  0.4061  0.8521
  647MOL0     H87292   5.253   6.294  10.366 -0.4913 -1.3995  1.3535
  647MOL0     H87293   5.136   6.244  10.483  1.4376 -0.9695 -0.5263
  647MOL0     H87294   5.074   6.424  10.298 -0.8531  1.5154 -0.1720
  647MOL0     H87295   5.149   6.543  10.392 -1.6903  1.1975 -2.6845
  647MOL0     H87296   4.890   6.258  10.503 -2.7285 -0.6307  2.9015
  647MOL0     H87297   4.701   6.267  10.676 -1.4944  1.0302 -0.0769
  647MOL0     H87298   4.687   6.411  10.784 -0.2244 -1.4284  0.5222
  647MOL0     H87299   4.577   6.389  10.502  1.6682  2.6545 -0.7811
  647MOL0     H87300   4.556   6.528  10.611 -1.2772  0.1105  0.6010
  647MOL0     H87301   4.458   6.387  10.798  3.6366 -2.4547  1.1131
  647MOL0     H87302   4.469   6.247  10.692 -1.5304 -0.3058 -1.2013
  647MOL0     H87303   4.314   6.339  10.536 -3.8572  1.1901 -1.4973
  647MOL0     H87304   4.302   6.491  10.619 -1.7380  0.3303 -1.1983
  647MOL0     H87305   4.027   6.309  10.876 -0.8324  0.2321  1.0484
  647MOL0     H87306   3.671   6.359  10.846 -0.8371 -2.0774 -2.7881
  647MOL0     H87307   3.716   6.192  10.879  0.3218  0.5286  2.2711
  647MOL0     H87308   3.808   6.319  10.953  2.2925 -0.8057 -0.6118
  647MOL0     H87309   3.457   6.052  10.471  0.5187  0.6167  0.5723
  647MOL0     H87310   3.206   6.087  10.405 -2.3792  2.9956  1.8341
  647MOL0     H87311   3.035   6.127  10.216  3.0825  2.2321 -1.1546
  647MOL0     H87312   2.979   6.198  10.376 -0.9944  0.1757 -0.5389
  647MOL0     H87313   2.890   6.282  10.106 -2.1888 -0.2928 -0.2278
  647MOL0     H87314   2.797   6.199  10.226  1.4357 -2.2809  0.7748
  647MOL0     H87315   2.906   6.488  10.214 -0.5469  1.0199  2.2570
  647MOL0     H87316   2.860   6.422  10.363  3.6602  4.0730 -1.2816
  647MOL0     H87317   2.682   6.467  10.124  0.1775 -0.2844 -0.3499
  647MOL0     H87318   2.622   6.399  10.263 -0.4333 -0.1021 -1.2501
  647MOL0     H87319   2.556   6.634  10.276  0.0584  1.2539  1.2175
  647MOL0     H87320   2.718   6.696  10.226 -1.5668  2.1843  1.3237
  647MOL0     H87321   2.815   6.613  10.441  0.0384 -1.0126 -2.1475
  647MOL0     H87322   2.692   6.733  10.464  1.8119 -0.3648  1.1941
  647MOL0     H87323   2.660   6.437  10.523 -0.5734 -0.4981  0.7049
  647MOL0     H87324   2.525   6.535  10.483  0.2796 -0.2499  1.2911
  647MOL0     H87325   2.621   6.693  10.686  1.0001 -0.4475  2.8588
  647MOL0     H87326   2.755   6.591  10.677  1.1095  1.8305 -2.3211
  647MOL0     H87327   3.298   6.465  10.248  2.5515  1.5599  2.2823
  647MOL0     H87328   3.542   6.423  10.296  0.7796 -0.9563 -0.2666
  647MOL0     H87329   3.889   6.230  10.419 -1.7394  1.7945  0.3672
  647MOL0     H87330   4.126   6.277  10.480 -1.6050  0.7450 -1.3503
  647MOL0     H87331   5.824   7.008  10.170 -0.4849 -1.9531  0.1813
  647MOL0     H87332   6.023   7.145  10.183 -2.2248 -0.2191  1.2302
  647MOL0     H87333   6.327   7.343  10.314 -0.1721 -2.5024  1.5831
  647MOL0     H87334   6.508   7.524  10.299  2.6962  0.2040  2.7010
  647MOL0     H87335   6.720   7.581  10.365 -3.3078 -3.4009 -2.1141
  647MOL0     H87336   6.885   7.560  10.306  1.1426 -0.7211  0.7135
  647MOL0     H87337   6.853   7.730  10.136 -0.2558 -2.0490 -0.8842
  647MOL0     H87338   6.810   7.799  10.296 -1.6329  0.7109 -0.3119
  647MOL0     H87339   6.582   7.811  10.265 -1.3178 -1.5556  0.1031
  647MOL0     H87340   6.577   7.670  10.165  0.2750 -0.5968  0.9913
  647MOL0     H87341   6.633   7.791   9.975 -1.5892 -1.8343  1.9813
  647MOL0     H87342   6.748   7.900  10.052 -0.6663  1.7387 -2.1618
  647MOL0     H87343   6.409   8.135  10.078  0.9180  1.5828  0.1602
  647MOL0     H87344   6.778   7.227  10.143  0.7000  1.0906 -1.1068
  647MOL0     H87345   6.615   7.049  10.186  0.0919 -0.0328 -4.4665
  648MOL0     O87346   5.841   7.913   7.581 -0.0343  0.5689  0.5113
  648MOL0     C87347   5.813   7.796   7.575  0.0960  0.0405 -0.2239
  648MOL0     O87348   5.896   7.696   7.613 -0.0485 -0.2445  0.8165
  648MOL0     C87349   6.006   7.732   7.680 -0.2222  0.7306 -0.3309
  648MOL0     C87350   5.993   7.780   7.813  0.8945 -0.1972  0.5172
  648MOL0     C87351   6.113   7.805   7.889  0.3932 -0.1040 -0.1948
  648MOL0     C87352   6.240   7.794   7.829 -0.6015 -0.2484  0.8805
  648MOL0     O87353   6.355   7.818   7.899  0.3986  0.1578 -0.1818
  648MOL0     C87354   6.472   7.868   7.825 -0.2811  0.0014  0.7154
  648MOL0     C87355   6.577   7.939   7.918 -0.2276 -0.1605  0.0220
  648MOL0     C87356   6.510   8.037   8.020 -1.1161 -0.1016  0.2191
  648MOL0     C87357   6.604   8.129   8.090 -0.4085 -0.1515 -0.3622
  648MOL0     C87358   6.518   8.221   8.191  0.8893 -1.0553 -0.0341
  648MOL0     C87359   6.589   8.341   8.257 -0.5271  0.2026 -0.3397
  648MOL0     C87360   6.497   8.399   8.370  1.4746 -0.5714 -0.7277
  648MOL0     C87361   6.560   8.532   8.403  0.7600 -0.0977  0.3036
  648MOL0     N87362   6.473   8.607   8.496 -0.6695 -0.5438  0.2265
  648MOL0     C87363   6.357   8.665   8.459 -0.4153 -0.2952  0.8679
  648MOL0     C87364   6.315   8.730   8.571  0.6425  0.4982  0.4806
  648MOL0     C87365   6.174   8.801   8.582  0.4530 -0.3288 -0.9449
  648MOL0     C87366   6.059   8.703   8.613 -0.1527  0.5520  0.2994
  648MOL0     C87367   6.080   8.582   8.703 -0.2845  0.1835 -0.7009
  648MOL0     C87368   5.948   8.509   8.716  0.1852  0.2801 -0.0894
  648MOL0     O87369   5.934   8.422   8.598 -0.8129 -0.4326  0.3339
  648MOL0     C87370   5.827   8.335   8.602  0.0354  0.1249  0.7757
  648MOL0     C87371   5.785   8.299   8.471 -1.1628 -1.1442 -0.2303
  648MOL0     C87372   5.695   8.198   8.447  0.2618  0.0491 -0.9325
  648MOL0     C87373   5.679   8.159   8.312  0.2525  0.1980 -0.1362
  648MOL0     C87374   5.632   8.138   8.558  0.4090 -0.4469 -0.8934
  648MOL0     C87375   5.524   8.035   8.551 -0.6865  0.5747  0.5806
  648MOL0     O87376   5.527   7.944   8.653  0.1823  0.1129 -0.5588
  648MOL0     C87377   5.430   7.845   8.648 -0.0959 -0.1545  0.1855
  648MOL0     C87378   5.461   7.706   8.647 -0.0792 -0.2984  0.7915
  648MOL0     C87379   5.358   7.615   8.659 -0.9848  0.5349 -0.1140
  648MOL0     C87380   5.228   7.646   8.690 -0.2121 -0.9139 -0.0877
  648MOL0     O87381   5.132   7.550   8.682  0.1591  0.2726 -0.0436
  648MOL0     C87382   5.128   7.469   8.800  0.2757 -0.8075  0.3853
  648MOL0     C87383   5.023   7.358   8.790 -0.4327 -0.0836 -0.2209
  648MOL0     C87384   4.882   7.395   8.827 -0.3254  0.4371 -0.3807
  648MOL0     C87385   4.795   7.292   8.770  0.7174 -0.3238  0.1382
  648MOL0     C87386   4.648   7.325   8.793 -0.2573 -0.5423  0.3902
  648MOL0     C87387   4.555   7.227   8.717 -0.5626 -0.2415  0.2616
  648MOL0     C87388   4.403   7.257   8.759  0.1595  0.1265 -0.7471
  648MOL0     C87389   4.357   7.377   8.681 -0.0271 -0.4824 -0.3673
  648MOL0    Cl87390   4.343   7.343   8.507 -0.3924 -0.1199  0.1780
  648MOL0     C87391   5.203   7.787   8.701  0.8594  0.1089 -0.0095
  648MOL0     C87392   5.300   7.885   8.683 -0.8802  0.2480 -0.3345
  648MOL0     O87393   5.447   8.022   8.456  0.4637 -0.2189  0.2812
  648MOL0     C87394   5.660   8.185   8.684 -0.0526  0.4745  0.0018
  648MOL0     C87395   5.764   8.278   8.712 -0.5057  0.2493  0.7241
  648MOL0     N87396   6.405   8.711   8.675 -0.6126  0.3198 -0.3035
  648MOL0     N87397   6.507   8.638   8.627 -0.2356  0.2098  0.1833
  648MOL0     C87398   6.250   7.735   7.701  0.0573  0.4066  0.8347
  648MOL0     C87399   6.132   7.716   7.627 -0.3196  0.6782 -0.1511
  648MOL0     C87400   5.676   7.758   7.525  0.3786  0.0837 -1.1389
  648MOL0     C87401   5.586   7.858   7.493 -0.6460 -0.2712 -0.0939
  648MOL0     C87402   5.461   7.831   7.435 -0.5660 -0.4447  0.8685
  648MOL0     C87403   5.421   7.704   7.409  0.2872  0.0159  1.4030
  648MOL0     O87404   5.306   7.692   7.331  0.2713  0.6561 -0.0944
  648MOL0     C87405   5.291   7.581   7.245 -0.6800 -0.0223  0.9390
  648MOL0     C87406   5.139   7.594   7.217  0.0744 -0.5294 -0.0083
  648MOL0     C87407   5.095   7.702   7.109  0.1810 -1.4526  0.9962
  648MOL0     C87408   4.963   7.671   7.038 -0.3394  0.0329 -0.2375
  648MOL0     C87409   4.970   7.534   6.979  1.0566 -0.6091  0.2151
  648MOL0     C87410   4.972   7.424   6.921  0.5155 -0.4598  0.3713
  648MOL0     C87411   5.505   7.594   7.447  0.5849 -1.0404  0.2530
  648MOL0     C87412   5.637   7.623   7.495  0.3688  0.2618 -0.2847
  648MOL0     H87413   5.893   7.791   7.853  1.0186 -0.5069  0.9076
  648MOL0     H87414   6.099   7.844   7.990 -0.6222 -1.4073  0.2040
  648MOL0     H87415   6.532   7.790   7.777 -0.7518  1.8480 -3.3138
  648MOL0     H87416   6.440   7.935   7.744  0.9302 -1.8368 -1.4201
  648MOL0     H87417   6.639   7.858   7.959 -2.3736 -1.8116  0.2135
  648MOL0     H87418   6.650   7.995   7.859 -0.3257 -0.9720 -0.8897
  648MOL0     H87419   6.435   8.101   7.971  1.2662  0.7748 -2.5198
  648MOL0     H87420   6.464   7.972   8.095 -1.2835 -0.8699 -0.5425
  648MOL0     H87421   6.678   8.068   8.143 -1.8675  0.4014  2.5163
  648MOL0     H87422   6.642   8.196   8.012 -0.9544 -0.8661 -1.2566
  648MOL0     H87423   6.425   8.255   8.144 -0.8380 -2.6130  2.0281
  648MOL0     H87424   6.470   8.160   8.268 -3.5906  0.2218 -1.4966
  648MOL0     H87425   6.681   8.310   8.308 -1.7213  1.0878  2.5588
  648MOL0     H87426   6.610   8.424   8.189 -1.4802  2.1166  1.5608
  648MOL0     H87427   6.395   8.420   8.337  1.3296 -0.8526 -0.4646
  648MOL0     H87428   6.494   8.333   8.457  1.4037 -1.2351 -1.2265
  648MOL0     H87429   6.571   8.578   8.304 -2.9887  0.6532  0.0726
  648MOL0     H87430   6.657   8.520   8.452  0.6773 -0.1456  0.4541
  648MOL0     H87431   6.321   8.661   8.356  3.7768  1.4832 -0.8659
  648MOL0     H87432   6.174   8.875   8.662 -0.6086 -0.3283 -0.9307
  648MOL0     H87433   6.142   8.849   8.489 -2.3574  0.9123  0.5403
  648MOL0     H87434   6.023   8.658   8.521 -2.7073 -1.4243  2.1399
  648MOL0     H87435   5.985   8.774   8.652  1.0954  0.8870  2.1964
  648MOL0     H87436   6.105   8.618   8.803 -0.9353  0.0499 -0.4853
  648MOL0     H87437   6.160   8.520   8.662 -1.5216 -1.2947 -0.9833
  648MOL0     H87438   5.860   8.574   8.712 -1.5581 -2.0315 -2.7305
  648MOL0     H87439   5.946   8.446   8.806 -1.5712 -1.3153 -1.1769
  648MOL0     H87440   5.846   8.349   8.396 -1.6717 -0.9505 -0.5248
  648MOL0     H87441   5.667   8.051   8.305  2.9712 -0.0649 -3.3153
  648MOL0     H87442   5.597   8.216   8.266 -0.7651 -1.3485 -0.2984
  648MOL0     H87443   5.774   8.182   8.263  1.2136  0.0663  1.5808
  648MOL0     H87444   5.558   7.662   8.628  0.6659  2.0928 -1.4754
  648MOL0     H87445   5.383   7.510   8.657  0.0089  0.7744 -0.8887
  648MOL0     H87446   5.226   7.422   8.809  1.2117  0.3326 -2.5529
  648MOL0     H87447   5.114   7.523   8.894  1.5733  1.0143 -0.4185
  648MOL0     H87448   5.029   7.327   8.686 -0.0843  2.0868 -0.8881
  648MOL0     H87449   5.047   7.274   8.856 -0.9169 -0.9566 -1.1379
  648MOL0     H87450   4.859   7.491   8.780 -0.7023  0.7237  0.3713
  648MOL0     H87451   4.873   7.402   8.936  0.7448 -3.1971  0.0764
  648MOL0     H87452   4.807   7.300   8.661  1.7686  1.7810  0.3437
  648MOL0     H87453   4.813   7.190   8.805  0.9416  0.3138  1.9739
  648MOL0     H87454   4.649   7.425   8.748 -0.7544  0.1843  1.8931
  648MOL0     H87455   4.616   7.334   8.897 -1.3822 -2.4267  0.2472
  648MOL0     H87456   4.563   7.253   8.611 -2.3481  0.9566  0.3758
  648MOL0     H87457   4.569   7.122   8.742 -2.7012 -0.9476 -1.2413
  648MOL0     H87458   4.386   7.263   8.866 -1.7667  1.1431 -1.0665
  648MOL0     H87459   4.329   7.184   8.724 -1.9221  2.6401 -1.9543
  648MOL0     H87460   4.427   7.460   8.690  0.0427 -0.7515  3.6541
  648MOL0     H87461   4.264   7.412   8.726  0.4743  2.8434 -1.6724
  648MOL0     H87462   5.106   7.827   8.731  0.1382 -0.8590 -0.9424
  648MOL0     H87463   5.286   7.992   8.692  2.7406  0.6774  2.5278
  648MOL0     H87464   5.613   8.142   8.772  0.6475  1.9827  1.1660
  648MOL0     H87465   5.789   8.313   8.811 -1.3014  1.8130  0.4041
  648MOL0     H87466   6.348   7.715   7.658 -0.8217  0.7963 -1.4726
  648MOL0     H87467   6.128   7.672   7.528 -3.3995 -1.5868  0.8025
  648MOL0     H87468   5.610   7.963   7.507 -0.1681 -0.3022 -0.6682
  648MOL0     H87469   5.401   7.914   7.399  1.8980  0.7309 -0.7440
  648MOL0     H87470   5.345   7.606   7.153 -0.8215 -0.7531  0.6494
  648MOL0     H87471   5.315   7.482   7.285  4.1813 -0.6115 -2.5568
  648MOL0     H87472   5.089   7.618   7.311  1.2763  0.6402  0.3734
  648MOL0     H87473   5.112   7.493   7.187  1.2641 -0.7253 -0.5022
  648MOL0     H87474   5.172   7.714   7.032 -0.8914 -2.2227 -0.2259
  648MOL0     H87475   5.068   7.798   7.154  0.7542 -1.3776  1.1866
  648MOL0     H87476   4.946   7.748   6.962 -0.7560 -1.3431 -1.5739
  648MOL0     H87477   4.879   7.671   7.108 -1.3019 -0.2881 -1.3754
  648MOL0     H87478   4.981   7.329   6.873  3.7705 -0.7976  1.4590
  648MOL0     H87479   5.464   7.496   7.425 -4.3158  0.4152  1.5162
  648MOL0     H87480   5.705   7.539   7.509 -1.0372 -0.5977  1.8503
  649MOL0     O87481   5.032   8.503   0.380  0.6856  0.5233  0.7760
  649MOL0     C87482   5.026   8.415   0.294  0.4064  0.0785  0.0992
  649MOL0     O87483   4.910   8.369   0.241  0.1634 -0.1978  0.3340
  649MOL0     C87484   4.798   8.449   0.242 -1.0833  0.9243 -1.0549
  649MOL0     C87485   4.683   8.397   0.295 -0.1286  0.2459 -0.5579
  649MOL0     C87486   4.573   8.485   0.324 -0.5000 -0.8020 -0.3056
  649MOL0     C87487   4.574   8.617   0.287 -0.7039 -0.6051 -0.1797
  649MOL0     O87488   4.468   8.693   0.313  0.0978  0.2749 -0.4693
  649MOL0     C87489   4.485   8.815   0.393  0.0955  1.1434 -0.3713
  649MOL0     C87490   4.353   8.835   0.481  0.3695  0.3165 -0.1649
  649MOL0     C87491   4.224   8.898   0.429 -0.2050 -0.1097  0.8774
  649MOL0     C87492   4.182   9.025   0.506 -0.3364 -0.1485 -0.3762
  649MOL0     C87493   4.039   9.050   0.448 -0.2852 -0.2602 -0.4558
  649MOL0     C87494   3.984   9.189   0.487  0.0560  0.5299 -0.2074
  649MOL0     C87495   3.833   9.225   0.460 -0.5859  0.1552  0.1337
  649MOL0     C87496   3.809   9.366   0.423 -0.1585 -0.3469 -0.6257
  649MOL0     N87497   3.669   9.399   0.402 -0.0314 -0.0501 -0.3139
  649MOL0     C87498   3.603   9.465   0.295  0.6700 -0.0123  0.4823
  649MOL0     C87499   3.473   9.499   0.336  0.3946  0.1662 -0.2614
  649MOL0     C87500   3.369   9.567   0.254 -0.7098  0.3684 -0.9681
  649MOL0     C87501   3.266   9.468   0.199 -1.1856 -0.0319  0.4219
  649MOL0     C87502   3.329   9.353   0.107  0.9394  0.1972 -0.3920
  649MOL0     C87503   3.378   9.412  -0.027  0.0994 -0.0129  1.0016
  649MOL0     O87504   3.274   9.486  -0.105  0.5051  0.1405 -0.3705
  649MOL0     C87505   3.170   9.421  -0.163  0.1888 -0.3076  0.4338
  649MOL0     C87506   3.078   9.515  -0.223  0.0474  0.9448  0.2674
  649MOL0     C87507   2.962   9.464  -0.298  0.3375  0.0875 -0.9349
  649MOL0     C87508   2.893   9.566  -0.386 -0.8870  0.4535 -1.0878
  649MOL0     C87509   2.931   9.323  -0.287 -0.0942 -0.5065  0.5339
  649MOL0     C87510   2.805   9.267  -0.352  0.4995  0.5147 -0.4715
  649MOL0     O87511   2.739   9.332  -0.451  0.4985 -0.1708 -0.1157
  649MOL0     C87512   2.605   9.297  -0.477  0.3070  0.6457  0.3370
  649MOL0     C87513   2.556   9.360  -0.595  0.3839  0.0696 -0.6429
  649MOL0     C87514   2.422   9.332  -0.635 -0.0352 -0.0456  0.4223
  649MOL0     C87515   2.335   9.254  -0.558  1.3460  0.5151  0.6410
  649MOL0     O87516   2.204   9.253  -0.605 -0.4483  0.3492  0.0810
  649MOL0     C87517   2.109   9.291  -0.506  1.1620  0.2573  0.1820
  649MOL0     C87518   1.966   9.296  -0.563  0.5537  0.0646 -0.8645
  649MOL0     C87519   1.962   9.395  -0.676 -0.3860 -0.4572  0.2617
  649MOL0     C87520   1.816   9.389  -0.728 -0.2007  0.4029 -0.5478
  649MOL0     C87521   1.819   9.473  -0.861 -0.3609  0.6145  0.4415
  649MOL0     C87522   1.686   9.452  -0.939  0.2289  0.8999 -0.3884
  649MOL0     C87523   1.564   9.463  -0.847 -0.6042 -0.3074 -0.3283
  649MOL0     C87524   1.442   9.495  -0.925 -0.2785  0.5427  0.1603
  649MOL0    Cl87525   1.405   9.368  -1.034  0.2166 -0.1566  0.2821
  649MOL0     C87526   2.380   9.198  -0.437  0.3928  0.6051  0.0567
  649MOL0     C87527   2.511   9.231  -0.402 -0.3932  0.4145  0.2004
  649MOL0     O87528   2.779   9.150  -0.313  0.7567 -0.1228 -0.1350
  649MOL0     C87529   3.027   9.238  -0.241 -0.5535 -0.4769 -0.2161
  649MOL0     C87530   3.145   9.285  -0.177  0.7353  0.4247 -0.1726
  649MOL0     N87531   3.456   9.460   0.467 -0.6981 -0.1843 -0.6672
  649MOL0     N87532   3.571   9.409   0.503  0.7236  0.1392 -0.3321
  649MOL0     C87533   4.685   8.657   0.210 -0.2256 -0.6199 -0.6420
  649MOL0     C87534   4.801   8.582   0.190  0.2070 -0.3384  0.1814
  649MOL0     C87535   5.152   8.337   0.276  0.5244 -0.6502 -0.3127
  649MOL0     C87536   5.166   8.205   0.235 -0.0659 -0.0523 -0.3676
  649MOL0     C87537   5.293   8.148   0.211 -0.1298  0.1424  0.2057
  649MOL0     C87538   5.416   8.217   0.245 -0.6992 -0.6632  0.4941
  649MOL0     O87539   5.540   8.164   0.232 -0.2620 -0.0814 -0.6802
  649MOL0     C87540   5.564   8.030   0.188 -0.4470  0.4422 -0.5942
  649MOL0     C87541   5.714   7.988   0.151 -0.3981  0.1742  1.3695
  649MOL0     C87542   5.750   8.055   0.020  0.2848 -0.0672  0.6361
  649MOL0     C87543   5.902   8.054   0.019  0.4372  0.2132 -0.6247
  649MOL0     C87544   5.953   8.094  -0.112  0.7172  0.0194 -0.2485
  649MOL0     C87545   5.977   8.130  -0.222 -0.1208 -0.2954 -0.1011
  649MOL0     C87546   5.401   8.350   0.292 -0.1968  0.2492  0.0279
  649MOL0     C87547   5.273   8.407   0.309  0.8545 -0.3749 -0.8557
  649MOL0     H87548   4.685   8.294   0.329 -1.4892 -0.1798 -1.6434
  649MOL0     H87549   4.488   8.448   0.380 -3.3920 -0.0208 -3.7905
  649MOL0     H87550   4.570   8.806   0.460 -1.1490  1.7847  1.3561
  649MOL0     H87551   4.496   8.900   0.325  4.8822  1.2619  0.2362
  649MOL0     H87552   4.320   8.736   0.516 -1.2302  1.4022  1.5963
  649MOL0     H87553   4.384   8.892   0.569 -0.0353  0.5051 -0.1438
  649MOL0     H87554   4.245   8.936   0.329 -0.4744  1.5972  1.4359
  649MOL0     H87555   4.140   8.828   0.432  0.6977 -1.3513 -1.1019
  649MOL0     H87556   4.180   9.002   0.613  2.0784 -0.5484 -0.3689
  649MOL0     H87557   4.254   9.105   0.488 -1.2976  0.4127 -1.9607
  649MOL0     H87558   4.035   9.040   0.339 -3.4345 -1.0001 -0.3809
  649MOL0     H87559   3.972   8.984   0.504 -0.4818  0.3443  0.0267
  649MOL0     H87560   4.011   9.199   0.593 -0.4003 -4.1630  0.5425
  649MOL0     H87561   4.041   9.264   0.432  0.0944  0.4732 -0.2450
  649MOL0     H87562   3.802   9.160   0.377 -0.1331 -1.8787  1.4922
  649MOL0     H87563   3.771   9.201   0.547 -0.4130 -1.0219 -0.0518
  649MOL0     H87564   3.862   9.389   0.330  0.1445 -0.2406 -0.4274
  649MOL0     H87565   3.849   9.437   0.495 -0.5658  1.1640 -1.8384
  649MOL0     H87566   3.652   9.492   0.202  0.7881  0.1171  0.5814
  649MOL0     H87567   3.327   9.636   0.328  1.2078 -0.0488  0.5898
  649MOL0     H87568   3.398   9.633   0.172 -0.0202  0.2279 -0.8366
  649MOL0     H87569   3.187   9.514   0.138 -0.1954  1.2080  0.0305
  649MOL0     H87570   3.222   9.416   0.285  1.1997 -1.7552  0.6917
  649MOL0     H87571   3.257   9.274   0.085 -1.9249  2.0075  1.6396
  649MOL0     H87572   3.411   9.299   0.155  0.5908 -0.9516 -1.0523
  649MOL0     H87573   3.394   9.324  -0.089 -0.8772  1.8136 -2.0774
  649MOL0     H87574   3.470   9.470  -0.017 -0.2614  0.6848  0.3896
  649MOL0     H87575   3.092   9.622  -0.219 -2.2696  1.5831 -3.3982
  649MOL0     H87576   2.905   9.523  -0.486 -0.6680 -0.7235 -0.5619
  649MOL0     H87577   2.790   9.584  -0.353  0.3331  0.9662  3.0391
  649MOL0     H87578   2.944   9.663  -0.386  1.2665 -0.6344 -1.7138
  649MOL0     H87579   2.626   9.418  -0.654  1.9967  2.6555  3.3638
  649MOL0     H87580   2.388   9.379  -0.726 -1.9760  0.1164  1.1975
  649MOL0     H87581   2.103   9.221  -0.422 -3.6203 -0.6319 -0.6036
  649MOL0     H87582   2.128   9.392  -0.469 -0.8304  1.0375 -0.7366
  649MOL0     H87583   1.929   9.197  -0.593 -0.6557  0.0814  0.4615
  649MOL0     H87584   1.898   9.329  -0.484  0.7739 -3.3343  0.9403
  649MOL0     H87585   2.034   9.383  -0.758  0.0600  0.8608  0.4319
  649MOL0     H87586   1.993   9.490  -0.630  1.4423 -0.2610 -1.2345
  649MOL0     H87587   1.785   9.288  -0.758  1.1813 -0.1863 -0.0848
  649MOL0     H87588   1.735   9.424  -0.663 -0.9035 -1.3960 -0.3896
  649MOL0     H87589   1.901   9.436  -0.923  0.4265  0.4968  1.5367
  649MOL0     H87590   1.837   9.578  -0.839  2.0757  0.0564  1.4967
  649MOL0     H87591   1.684   9.524  -1.022  1.8013 -0.2273 -1.4553
  649MOL0     H87592   1.678   9.355  -0.989 -3.9555 -1.1898  3.6000
  649MOL0     H87593   1.579   9.547  -0.778 -1.4011 -0.3045 -0.1488
  649MOL0     H87594   1.545   9.374  -0.786 -2.3287  0.1431 -0.1539
  649MOL0     H87595   1.462   9.586  -0.982  0.9330  0.2170  0.0465
  649MOL0     H87596   1.358   9.503  -0.854  0.7437 -4.2238  2.3527
  649MOL0     H87597   2.305   9.136  -0.390  1.2953 -2.2414 -1.9407
  649MOL0     H87598   2.545   9.196  -0.305 -1.8406  1.6714  1.2184
  649MOL0     H87599   3.029   9.130  -0.245 -2.1585 -0.7242  2.7048
  649MOL0     H87600   3.216   9.212  -0.139  0.9085  1.2684  1.1690
  649MOL0     H87601   4.692   8.752   0.159  0.8786 -1.1894 -1.6131
  649MOL0     H87602   4.881   8.631   0.135 -0.5065  2.4051  1.4423
  649MOL0     H87603   5.074   8.154   0.206  0.8287 -0.6806 -2.2398
  649MOL0     H87604   5.294   8.053   0.159  3.0198 -0.1186  0.5507
  649MOL0     H87605   5.532   7.955   0.261  0.9605 -0.5538 -0.9567
  649MOL0     H87606   5.491   8.008   0.110  0.7172  0.5614 -1.7535
  649MOL0     H87607   5.727   7.881   0.134 -0.3092  0.5378 -1.1597
  649MOL0     H87608   5.784   8.018   0.230 -0.0337 -1.3429  1.6503
  649MOL0     H87609   5.731   8.162   0.005  0.3427 -0.3586 -1.8826
  649MOL0     H87610   5.704   8.004  -0.065  1.2661  0.1228 -0.0319
  649MOL0     H87611   5.925   7.948   0.032 -2.1150 -0.3691 -0.1954
  649MOL0     H87612   5.957   8.116   0.091  3.3757 -3.1596  0.2813
  649MOL0     H87613   5.990   8.185  -0.314  0.6587  0.8387  0.6552
  649MOL0     H87614   5.492   8.404   0.316 -0.9024  0.0866  3.6729
  649MOL0     H87615   5.267   8.510   0.345  0.0673  0.1192 -2.3301
  650MOL0     O87616   1.504   1.700  10.832 -0.9537 -0.3035 -0.0188
  650MOL0     C87617   1.582   1.730  10.919 -1.1042 -0.9497  0.5692
  650MOL0     O87618   1.558   1.813  11.025 -0.7481  0.0508  0.2731
  650MOL0     C87619   1.441   1.863  11.066  0.3876 -0.3650 -0.0779
  650MOL0     C87620   1.446   1.988  11.127  0.2906  0.4525 -0.4529
  650MOL0     C87621   1.320   2.047  11.176  0.6998 -0.1900 -0.0199
  650MOL0     C87622   1.196   1.978  11.171 -0.4092  0.3448 -0.1816
  650MOL0     O87623   1.076   2.032  11.210  0.3320  0.3904 -0.2655
  650MOL0     C87624   1.073   2.146  11.310 -0.2063  0.1299  0.3268
  650MOL0     C87625   0.938   2.195  11.357  0.2665  0.0006 -0.3612
  650MOL0     C87626   0.868   2.107  11.470  0.8581  0.5512 -0.6463
  650MOL0     C87627   0.734   2.164  11.516 -0.7765  0.2016 -0.8139
  650MOL0     C87628   0.683   2.084  11.629  0.5807 -0.1914  0.3586
  650MOL0     C87629   0.542   2.135  11.648  0.2908 -1.5142 -0.3928
  650MOL0     C87630   0.476   2.048  11.751  0.4342  0.1239  0.3566
  650MOL0     C87631   0.348   2.108  11.803 -0.9592  0.1022 -1.3970
  650MOL0     N87632   0.244   2.013  11.844 -0.2078  0.5503 -0.0612
  650MOL0     C87633   0.156   1.942  11.763  0.0004 -0.8001  0.6749
  650MOL0     C87634   0.091   1.863  11.860  0.1290  0.8295  0.4047
  650MOL0     C87635  -0.011   1.765  11.813  0.3768  0.5411 -0.7164
  650MOL0     C87636  -0.117   1.732  11.923  0.4179  0.4617 -0.5242
  650MOL0     C87637  -0.230   1.641  11.875  0.4493  0.6626  1.0734
  650MOL0     C87638  -0.337   1.644  11.989  0.0695  0.6763  0.2592
  650MOL0     O87639  -0.456   1.580  11.938 -0.8310  0.1456 -0.0594
  650MOL0     C87640  -0.560   1.655  11.879  0.2151 -0.1389 -0.1431
  650MOL0     C87641  -0.548   1.792  11.847  0.0678 -0.1580 -0.7795
  650MOL0     C87642  -0.643   1.865  11.784  0.2388  0.5953  0.0995
  650MOL0     C87643  -0.611   2.006  11.757  1.1565  0.3229  0.1754
  650MOL0     C87644  -0.759   1.801  11.744 -0.6455 -0.1958 -0.1259
  650MOL0     C87645  -0.857   1.859  11.654 -0.5881  1.0714 -0.0400
  650MOL0     O87646  -0.982   1.801  11.656 -0.6285  0.5453 -0.5696
  650MOL0     C87647  -1.082   1.838  11.572 -0.1527  0.0986  0.2733
  650MOL0     C87648  -1.078   1.814  11.434  0.3332  0.1262 -0.6012
  650MOL0     C87649  -1.186   1.846  11.360  0.7560 -0.3141  0.9409
  650MOL0     C87650  -1.301   1.899  11.421  0.6484 -0.0126 -0.3685
  650MOL0     O87651  -1.411   1.924  11.334  0.0751 -0.0600  0.0734
  650MOL0     C87652  -1.528   1.994  11.387  0.6814 -0.2814  0.0128
  650MOL0     C87653  -1.625   2.008  11.268  0.2121 -0.3437  0.0602
  650MOL0     C87654  -1.744   2.100  11.299  0.5283 -1.3987  0.7465
  650MOL0     C87655  -1.847   2.036  11.393 -0.9106  0.2845 -0.5570
  650MOL0     C87656  -1.980   2.118  11.415 -0.3426 -0.6315 -0.3923
  650MOL0     C87657  -2.062   2.107  11.288  0.9094  0.4456  0.2180
  650MOL0     C87658  -2.192   2.192  11.296 -0.0409 -0.6847 -0.9172
  650MOL0     C87659  -2.280   2.200  11.175 -0.3083 -0.3448 -0.5617
  650MOL0    Cl87660  -2.452   2.218  11.232  0.5119  0.1435 -0.2579
  650MOL0     C87661  -1.304   1.926  11.566 -0.0267 -0.3897  0.4172
  650MOL0     C87662  -1.192   1.894  11.641  0.1928  0.2392 -0.4112
  650MOL0     O87663  -0.820   1.951  11.586 -0.3115  0.0083  1.3350
  650MOL0     C87664  -0.778   1.666  11.781 -0.9745 -0.3106 -0.2555
  650MOL0     C87665  -0.678   1.598  11.849 -0.3025  0.5624  0.1696
  650MOL0     N87666   0.145   1.883  11.983 -0.0797 -0.5543  0.6429
  650MOL0     N87667   0.236   1.972  11.974  0.2533 -0.0808 -0.0161
  650MOL0     C87668   1.208   1.841  11.120  0.4882  0.8750  0.3812
  650MOL0     C87669   1.324   1.792  11.067 -0.5082 -0.3957  0.5670
  650MOL0     C87670   1.725   1.661  10.918  0.2352  0.0751  0.1626
  650MOL0     C87671   1.820   1.671  11.018  0.2396 -1.0367 -0.0953
  650MOL0     C87672   1.947   1.614  11.007  0.0605 -0.0124  0.5199
  650MOL0     C87673   1.987   1.545  10.894  0.5461 -0.3059 -0.3996
  650MOL0     O87674   2.108   1.487  10.875 -0.1333 -0.2775  0.2208
  650MOL0     C87675   2.180   1.448  10.990  0.7115 -0.1143  0.4964
  650MOL0     C87676   2.286   1.563  11.015 -0.0898  0.0443  0.1187
  650MOL0     C87677   2.380   1.517  11.131 -0.7702 -0.1755 -0.1080
  650MOL0     C87678   2.503   1.598  11.155  0.0646 -0.2196  0.6172
  650MOL0     C87679   2.598   1.554  11.252  1.0671  0.1581 -0.2775
  650MOL0     C87680   2.696   1.530  11.322 -0.5476  0.4256  0.9391
  650MOL0     C87681   1.890   1.559  10.782  0.2076  0.0920 -0.6122
  650MOL0     C87682   1.760   1.606  10.789  0.8408 -0.5988 -0.1404
  650MOL0     H87683   1.539   2.043  11.137  0.5192  0.0102 -0.1017
  650MOL0     H87684   1.323   2.151  11.208  1.0667 -1.0901  3.2753
  650MOL0     H87685   1.131   2.119  11.399 -3.1978  0.1006  2.3942
  650MOL0     H87686   1.121   2.235  11.268  1.0031 -0.2631  0.8059
  650MOL0     H87687   0.955   2.296  11.394  1.3517  0.6055 -2.3804
  650MOL0     H87688   0.872   2.208  11.271 -0.1349  0.1325 -0.0391
  650MOL0     H87689   0.837   2.008  11.436  2.0716  0.3501 -1.2242
  650MOL0     H87690   0.938   2.094  11.554  1.0101  0.7474 -0.7417
  650MOL0     H87691   0.739   2.267  11.553 -4.0280  0.0371  0.3605
  650MOL0     H87692   0.663   2.159  11.434 -1.2443  0.7487 -0.4522
  650MOL0     H87693   0.691   1.980  11.596  1.5539 -0.0344  0.0622
  650MOL0     H87694   0.748   2.099  11.716  0.4399 -0.5106  0.5195
  650MOL0     H87695   0.540   2.241  11.675  0.3091 -1.5241 -0.3531
  650MOL0     H87696   0.486   2.122  11.555 -0.3245 -1.2332 -0.0590
  650MOL0     H87697   0.445   1.954  11.704 -0.8486 -0.5295  2.3343
  650MOL0     H87698   0.543   2.018  11.832 -0.9426 -1.8551  0.8394
  650MOL0     H87699   0.316   2.178  11.725  0.9477  0.8145 -1.5740
  650MOL0     H87700   0.374   2.167  11.891 -1.4025 -1.4318 -0.1890
  650MOL0     H87701   0.148   1.947  11.655 -2.7674  0.2168  0.8501
  650MOL0     H87702  -0.062   1.823  11.735  2.3690  4.6824  0.7615
  650MOL0     H87703   0.034   1.671  11.780  1.2246  0.4445  0.6593
  650MOL0     H87704  -0.146   1.828  11.966  3.9710  1.1098  0.7583
  650MOL0     H87705  -0.070   1.676  12.004  1.7190 -2.0787 -2.8597
  650MOL0     H87706  -0.194   1.542  11.847  2.4612  1.0644  2.0511
  650MOL0     H87707  -0.262   1.683  11.779  0.4066 -0.9589  0.3552
  650MOL0     H87708  -0.378   1.743  12.013 -0.6415  0.7932 -1.3055
  650MOL0     H87709  -0.306   1.601  12.084  1.8235  0.5749 -0.3220
  650MOL0     H87710  -0.465   1.852  11.883 -0.8212  0.4398  0.3509
  650MOL0     H87711  -0.559   2.028  11.663  2.3024 -1.1494  0.4336
  650MOL0     H87712  -0.700   2.069  11.745  0.9776 -0.3806 -3.2826
  650MOL0     H87713  -0.548   2.049  11.835 -1.9582  2.0047  1.9681
  650MOL0     H87714  -0.988   1.764  11.399  1.3402 -0.0589  2.0691
  650MOL0     H87715  -1.188   1.805  11.259 -1.4702 -0.4047  0.9578
  650MOL0     H87716  -1.579   1.947  11.471  2.2886  0.1459  1.2722
  650MOL0     H87717  -1.517   2.095  11.427 -0.1267 -2.0945  5.6502
  650MOL0     H87718  -1.579   2.055  11.181 -0.6636  1.4656  0.5321
  650MOL0     H87719  -1.656   1.906  11.243  1.6229 -1.3035  1.9917
  650MOL0     H87720  -1.786   2.130  11.202  3.1636  1.0389  0.2158
  650MOL0     H87721  -1.690   2.186  11.339  0.7580  0.2339 -2.7219
  650MOL0     H87722  -1.873   1.942  11.345 -0.7697  0.0949 -0.2673
  650MOL0     H87723  -1.798   1.999  11.484  0.2502  1.9545 -0.4429
  650MOL0     H87724  -1.961   2.225  11.430  0.1348 -0.6193 -1.0421
  650MOL0     H87725  -2.041   2.086  11.500  0.6274 -1.6106 -0.0542
  650MOL0     H87726  -1.993   2.154  11.217  2.9362 -1.4954  0.7697
  650MOL0     H87727  -2.079   2.004  11.255 -0.4938  1.1948 -1.4947
  650MOL0     H87728  -2.179   2.295  11.333  0.0881  0.4878 -3.9650
  650MOL0     H87729  -2.255   2.150  11.375 -1.3610 -0.9836 -2.0885
  650MOL0     H87730  -2.263   2.105  11.123  3.3446  0.8273 -1.8672
  650MOL0     H87731  -2.253   2.279  11.105 -0.8975 -0.0104 -0.4159
  650MOL0     H87732  -1.390   1.967  11.618 -0.9336 -0.7644 -0.7468
  650MOL0     H87733  -1.190   1.911  11.748 -0.8870  4.0265 -0.8437
  650MOL0     H87734  -0.873   1.618  11.758 -2.6516  3.6028 -2.5455
  650MOL0     H87735  -0.687   1.493  11.876 -1.7569  0.3222 -1.1209
  650MOL0     H87736   1.121   1.782  11.096  0.9357  1.2012 -2.3179
  650MOL0     H87737   1.330   1.696  11.016 -0.8026  0.1904 -0.6145
  650MOL0     H87738   1.801   1.721  11.112 -0.7512 -0.5875 -0.5249
  650MOL0     H87739   2.013   1.618  11.092  1.2494  4.1967 -0.3795
  650MOL0     H87740   2.118   1.425  11.078 -1.9514  0.7667 -1.0320
  650MOL0     H87741   2.226   1.353  10.965  1.2708  0.2159  0.2542
  650MOL0     H87742   2.238   1.656  11.048  0.3456 -0.5965  2.7493
  650MOL0     H87743   2.350   1.577  10.927  1.1337 -2.6214  0.4706
  650MOL0     H87744   2.424   1.418  11.114 -0.4756 -0.3105  1.3336
  650MOL0     H87745   2.323   1.519  11.224 -4.0294  0.7051 -1.9742
  650MOL0     H87746   2.475   1.698  11.189 -1.0033 -0.6963  1.1899
  650MOL0     H87747   2.559   1.606  11.062  1.3558  1.3454  1.4904
  650MOL0     H87748   2.787   1.500  11.370 -0.9427 -3.2609 -0.2282
  650MOL0     H87749   1.935   1.517  10.693  2.5011 -2.4980  1.6030
  650MOL0     H87750   1.699   1.596  10.699  0.7230 -0.9108 -0.0268
  651MOL0     O87751   5.539   7.276   7.422  0.0608  0.3855  0.3497
  651MOL0     C87752   5.517   7.172   7.354 -0.6721 -1.1609  0.4827
  651MOL0     O87753   5.395   7.130   7.311 -0.1272 -0.1202  0.2786
  651MOL0     C87754   5.278   7.195   7.350  0.2341 -1.4135  0.0170
  651MOL0     C87755   5.178   7.201   7.249 -0.1827  0.0834 -0.2623
  651MOL0     C87756   5.057   7.266   7.274  0.6506  0.1928  0.3311
  651MOL0     C87757   5.023   7.311   7.397 -0.1018 -0.6631 -0.0190
  651MOL0     O87758   4.899   7.373   7.401 -0.9349 -0.3370  0.5482
  651MOL0     C87759   4.854   7.432   7.520 -0.2270 -0.4459 -0.1090
  651MOL0     C87760   4.821   7.573   7.485 -0.2619 -0.9809  0.9114
  651MOL0     C87761   4.728   7.646   7.583  0.9809 -0.0985  0.2454
  651MOL0     C87762   4.774   7.634   7.727 -0.3879  0.8049  0.4841
  651MOL0     C87763   4.695   7.725   7.826 -0.6620  0.2905  0.1623
  651MOL0     C87764   4.760   7.731   7.972  0.6425 -0.1140  1.3193
  651MOL0     C87765   4.657   7.816   8.066 -0.1618  0.8506  1.6711
  651MOL0     C87766   4.703   7.847   8.211  0.2457  0.3830 -0.6380
  651MOL0     N87767   4.842   7.896   8.221  0.0757 -1.1591  0.0071
  651MOL0     C87768   4.954   7.819   8.254  0.7310 -1.1698 -0.5534
  651MOL0     C87769   5.062   7.900   8.257  0.9337  0.7339  0.3306
  651MOL0     C87770   5.196   7.874   8.313 -0.3928  0.0527 -0.3319
  651MOL0     C87771   5.275   7.768   8.234 -0.6528  0.3621 -0.6885
  651MOL0     C87772   5.219   7.625   8.258 -0.1708  0.1659 -0.2111
  651MOL0     C87773   5.337   7.533   8.223 -0.3963 -0.9269 -0.2882
  651MOL0     O87774   5.414   7.493   8.339  0.7320 -0.6018 -0.7324
  651MOL0     C87775   5.506   7.386   8.333  0.3118 -0.4147 -0.3690
  651MOL0     C87776   5.549   7.330   8.452  0.4512 -0.4751  1.0931
  651MOL0     C87777   5.639   7.221   8.462 -0.2518  0.5333 -0.4062
  651MOL0     C87778   5.686   7.185   8.605 -0.3033  0.7573 -0.4643
  651MOL0     C87779   5.683   7.154   8.341  0.4604  0.6781 -0.2876
  651MOL0     C87780   5.758   7.027   8.328 -0.9155 -0.0052  1.2593
  651MOL0     O87781   5.813   7.015   8.199 -0.5352 -0.3146  0.2125
  651MOL0     C87782   5.887   6.906   8.160  0.7466  0.4261  0.0799
  651MOL0     C87783   5.840   6.814   8.064  0.2526 -0.6028 -0.5303
  651MOL0     C87784   5.916   6.707   8.030  0.5837 -0.4767 -0.3209
  651MOL0     C87785   6.037   6.677   8.096  0.7427  0.7088 -0.8744
  651MOL0     O87786   6.121   6.576   8.071  0.1759  0.5778  0.3526
  651MOL0     C87787   6.060   6.457   8.025  0.3055  0.5382  0.3334
  651MOL0     C87788   6.161   6.345   8.020  0.2772 -0.3887  0.0212
  651MOL0     C87789   6.271   6.366   8.120 -0.3857  0.7146  0.2860
  651MOL0     C87790   6.374   6.244   8.122  0.0621 -0.2245  0.3549
  651MOL0     C87791   6.503   6.276   8.215 -0.1095 -0.5311  0.0168
  651MOL0     C87792   6.472   6.291   8.364  0.5086  0.6020 -0.1278
  651MOL0     C87793   6.594   6.331   8.443  0.3112 -0.3124 -0.4838
  651MOL0     C87794   6.699   6.222   8.466 -0.4335 -0.6792 -0.9001
  651MOL0    Cl87795   6.787   6.260   8.615  0.2930 -0.0570  0.3183
  651MOL0     C87796   6.082   6.767   8.195  0.2407  0.5463 -0.2090
  651MOL0     C87797   6.006   6.874   8.226 -0.0486  0.6318  0.5945
  651MOL0     O87798   5.768   6.940   8.418  0.9321  0.5712  0.1920
  651MOL0     C87799   5.629   7.211   8.220  0.1443  1.4319  0.8601
  651MOL0     C87800   5.545   7.325   8.216  0.5355  0.3843 -0.6945
  651MOL0     N87801   5.018   8.020   8.203 -0.2646 -0.0071  0.2082
  651MOL0     N87802   4.888   8.020   8.200  0.2862 -1.0697  0.3102
  651MOL0     C87803   5.121   7.313   7.493 -0.0908  0.6258 -0.5018
  651MOL0     C87804   5.240   7.251   7.475 -0.7358 -0.9357  0.7616
  651MOL0     C87805   5.632   7.101   7.291 -0.3573 -0.3642 -0.1166
  651MOL0     C87806   5.620   6.961   7.264 -0.0770 -0.3078 -0.5319
  651MOL0     C87807   5.719   6.896   7.190  0.3964  0.0111 -0.3555
  651MOL0     C87808   5.833   6.966   7.144  0.1708 -0.5549  0.2157
  651MOL0     O87809   5.934   6.883   7.108  0.4612 -0.1505 -0.4633
  651MOL0     C87810   6.070   6.933   7.094 -0.2389  0.3945  0.1710
  651MOL0     C87811   6.174   6.816   7.108  0.1845 -0.1810  0.1836
  651MOL0     C87812   6.141   6.696   7.027 -0.1630  0.5360 -0.4104
  651MOL0     C87813   6.073   6.587   7.109 -0.1992 -0.1422 -0.9989
  651MOL0     C87814   6.074   6.461   7.033 -0.9721 -0.0953 -0.1899
  651MOL0     C87815   6.083   6.369   6.966 -0.3646 -0.1066  1.1814
  651MOL0     C87816   5.845   7.102   7.174  0.1136 -0.0130  0.2914
  651MOL0     C87817   5.742   7.170   7.251 -1.5833 -0.2383  0.6909
  651MOL0     H87818   5.193   7.162   7.149  2.9602 -1.4303  0.6776
  651MOL0     H87819   4.974   7.282   7.206 -0.7405 -1.0263  1.6530
  651MOL0     H87820   4.776   7.361   7.547  0.0192  0.0168  2.0173
  651MOL0     H87821   4.917   7.429   7.609  0.3178  0.0018 -0.4661
  651MOL0     H87822   4.909   7.636   7.476 -2.1941  1.9240  1.0335
  651MOL0     H87823   4.773   7.579   7.387 -0.2398 -2.8468  0.7443
  651MOL0     H87824   4.720   7.752   7.559  1.7697  0.2279  1.3742
  651MOL0     H87825   4.631   7.594   7.581  0.4179  0.8796  1.0923
  651MOL0     H87826   4.770   7.527   7.750 -1.8070  0.5730 -0.6522
  651MOL0     H87827   4.880   7.659   7.722 -0.4538  1.1514  0.7707
  651MOL0     H87828   4.701   7.826   7.783  1.1987  0.7386  1.3326
  651MOL0     H87829   4.594   7.683   7.827 -0.1436 -0.9999  1.3009
  651MOL0     H87830   4.769   7.626   8.002  0.5556 -0.2654  0.8279
  651MOL0     H87831   4.848   7.796   7.967  2.1726 -2.1737 -0.9928
  651MOL0     H87832   4.642   7.914   8.021 -0.1263 -0.0261 -0.3762
  651MOL0     H87833   4.563   7.761   8.067  1.9012 -3.3570 -1.6146
  651MOL0     H87834   4.706   7.757   8.272 -1.1488  0.0561 -1.0207
  651MOL0     H87835   4.627   7.918   8.244  0.0104  1.1399 -2.6523
  651MOL0     H87836   4.935   7.717   8.287 -2.1312 -0.2489  0.9856
  651MOL0     H87837   5.260   7.961   8.296  1.8896 -1.8216 -2.0435
  651MOL0     H87838   5.192   7.852   8.420 -2.5912  0.5472 -0.2837
  651MOL0     H87839   5.376   7.780   8.274 -1.4417 -1.0829  1.9927
  651MOL0     H87840   5.274   7.792   8.127 -1.6262  1.5472 -0.4366
  651MOL0     H87841   5.140   7.610   8.185  0.6025  0.9407 -1.2446
  651MOL0     H87842   5.181   7.613   8.360  0.4485 -2.8326 -0.2501
  651MOL0     H87843   5.403   7.580   8.150 -0.5913  2.5262  1.5785
  651MOL0     H87844   5.290   7.440   8.189 -3.4309  0.7158 -0.9189
  651MOL0     H87845   5.507   7.374   8.542 -1.4416  0.4653 -0.1985
  651MOL0     H87846   5.608   7.195   8.680 -1.0557 -0.7859 -0.9834
  651MOL0     H87847   5.707   7.078   8.619  0.4362  1.0184  0.5108
  651MOL0     H87848   5.775   7.247   8.619  0.4760 -0.2675 -0.7083
  651MOL0     H87849   5.757   6.844   8.001  0.9709 -0.5020 -1.4415
  651MOL0     H87850   5.891   6.649   7.941 -1.5219  0.3857 -0.3521
  651MOL0     H87851   5.983   6.443   8.102 -2.8874  0.8364 -2.5671
  651MOL0     H87852   6.010   6.465   7.928  0.3535  1.0609  0.3485
  651MOL0     H87853   6.111   6.249   8.036  1.0015 -1.2752 -2.5478
  651MOL0     H87854   6.216   6.338   7.926 -0.6152 -1.5690 -0.4277
  651MOL0     H87855   6.242   6.393   8.222 -0.4871  0.6878  0.2642
  651MOL0     H87856   6.338   6.445   8.084 -0.2310  0.0448 -0.9873
  651MOL0     H87857   6.324   6.151   8.150  0.0520 -0.0989  0.7618
  651MOL0     H87858   6.420   6.229   8.024  1.3597  1.6555  0.6017
  651MOL0     H87859   6.559   6.367   8.191  0.5119 -0.5678  1.2757
  651MOL0     H87860   6.579   6.199   8.199 -0.1390 -0.1982 -2.0092
  651MOL0     H87861   6.394   6.366   8.378 -1.1029 -1.1096  0.4558
  651MOL0     H87862   6.434   6.193   8.393  4.4985 -0.8713  0.6643
  651MOL0     H87863   6.549   6.371   8.535 -2.3734  0.8098 -2.1520
  651MOL0     H87864   6.654   6.408   8.393 -0.1326 -0.0076 -0.5505
  651MOL0     H87865   6.782   6.219   8.395  2.1209 -0.8381  1.8812
  651MOL0     H87866   6.643   6.129   8.480  0.7419 -1.2056  0.6427
  651MOL0     H87867   6.171   6.753   8.254 -0.3350 -3.0259  0.0436
  651MOL0     H87868   6.044   6.942   8.301  1.7123 -0.5252  0.8004
  651MOL0     H87869   5.644   7.162   8.125 -2.9454  0.6982  0.6455
  651MOL0     H87870   5.514   7.353   8.116  2.0499 -0.2272 -1.3627
  651MOL0     H87871   5.119   7.361   7.591  0.4894  0.6948 -0.5243
  651MOL0     H87872   5.317   7.242   7.551  0.1872 -1.2981 -0.1974
  651MOL0     H87873   5.530   6.905   7.286 -0.2942  0.3319  0.2483
  651MOL0     H87874   5.718   6.790   7.166  2.4851 -0.1761  0.1788
  651MOL0     H87875   6.088   6.992   7.004 -0.2328  0.1233 -0.0066
  651MOL0     H87876   6.090   6.996   7.181 -1.4662  2.7778 -1.1482
  651MOL0     H87877   6.199   6.787   7.211  0.0906 -0.2895  0.1771
  651MOL0     H87878   6.262   6.855   7.057 -0.5085 -1.2200 -1.9395
  651MOL0     H87879   6.235   6.661   6.984 -0.0471  0.6612 -0.2605
  651MOL0     H87880   6.080   6.743   6.949  0.0553  1.6897  0.0925
  651MOL0     H87881   5.971   6.612   7.139  0.9796  1.3468  2.1770
  651MOL0     H87882   6.137   6.573   7.197  0.9561  0.8140 -1.6482
  651MOL0     H87883   6.093   6.274   6.917 -0.7098 -0.1658  1.2216
  651MOL0     H87884   5.940   7.153   7.162 -0.4636  1.1733  0.5536
  651MOL0     H87885   5.745   7.278   7.257  1.8034 -0.1739  0.1137
  652MOL0     O87886   6.192   2.587   7.763 -0.2607  0.1540  0.1193
  652MOL0     C87887   6.195   2.461   7.742 -0.5516 -0.4593 -0.1553
  652MOL0     O87888   6.116   2.366   7.808 -0.4618 -0.6382  0.1454
  652MOL0     C87889   6.003   2.414   7.863 -0.3284  0.0974  1.2208
  652MOL0     C87890   5.907   2.477   7.789  0.4241 -0.0188  0.5702
  652MOL0     C87891   5.794   2.542   7.846  0.3221  0.2894 -0.8434
  652MOL0     C87892   5.767   2.533   7.991 -1.5829  0.3024  0.4807
  652MOL0     O87893   5.654   2.586   8.048  0.2305 -0.0296 -0.3632
  652MOL0     C87894   5.536   2.594   7.965  0.3478  0.0426  0.4080
  652MOL0     C87895   5.494   2.741   7.964  0.7857 -0.2998  0.1435
  652MOL0     C87896   5.354   2.761   7.899 -0.8987 -0.3550  0.6077
  652MOL0     C87897   5.233   2.715   7.970 -0.1265 -0.4063 -0.7265
  652MOL0     C87898   5.116   2.806   7.951  0.7423 -0.4272 -0.0271
  652MOL0     C87899   5.133   2.941   8.027  0.2729  0.0895 -1.0885
  652MOL0     C87900   5.106   3.062   7.936 -0.2073  0.1224  0.0392
  652MOL0     C87901   4.959   3.067   7.894 -0.3732 -0.2710  0.2422
  652MOL0     N87902   4.917   3.187   7.819  0.1788  0.2489 -0.2053
  652MOL0     C87903   4.803   3.261   7.834 -1.0304  0.5340  0.1078
  652MOL0     C87904   4.807   3.356   7.738 -0.3007 -0.1696  0.3228
  652MOL0     C87905   4.709   3.467   7.726  0.3901  0.3564  0.5439
  652MOL0     C87906   4.621   3.448   7.598 -0.3327 -0.0034 -0.4818
  652MOL0     C87907   4.527   3.338   7.636  0.6169 -0.2338  0.0799
  652MOL0     C87908   4.421   3.320   7.530  0.1628 -0.2745 -0.0777
  652MOL0     O87909   4.313   3.418   7.530 -0.2359  0.8576  0.1255
  652MOL0     C87910   4.197   3.398   7.603  0.1788 -0.1263 -0.2662
  652MOL0     C87911   4.164   3.284   7.668  0.8560 -0.9795 -0.3161
  652MOL0     C87912   4.038   3.262   7.726 -1.0706  0.8849 -0.2421
  652MOL0     C87913   4.025   3.123   7.783 -0.0734  0.6462 -0.1066
  652MOL0     C87914   3.942   3.362   7.718 -1.1500  1.5908  0.8155
  652MOL0     C87915   3.802   3.336   7.749  1.1627 -0.1349 -1.0687
  652MOL0     O87916   3.717   3.425   7.686 -0.1351  0.2517 -0.2902
  652MOL0     C87917   3.584   3.412   7.712 -0.0579  0.3608  0.4881
  652MOL0     C87918   3.511   3.526   7.751 -0.4298 -0.5402  0.6009
  652MOL0     C87919   3.379   3.526   7.775  0.0642  0.1825 -0.5460
  652MOL0     C87920   3.309   3.405   7.769  0.3715  0.2489 -0.4270
  652MOL0     O87921   3.174   3.405   7.809  0.6144  1.0820 -0.8300
  652MOL0     C87922   3.139   3.288   7.888 -0.6185 -0.1965 -0.9755
  652MOL0     C87923   3.000   3.312   7.937 -0.2421  0.4842 -0.2657
  652MOL0     C87924   2.952   3.189   8.018  0.8013  0.6926  0.6805
  652MOL0     C87925   2.896   3.076   7.940  0.7938  1.1422  0.6855
  652MOL0     C87926   2.810   2.983   8.029  0.3492 -0.4007 -0.5507
  652MOL0     C87927   2.744   2.884   7.936  0.6594  0.1005  0.4187
  652MOL0     C87928   2.682   2.775   8.018  0.0289 -0.3673  0.4583
  652MOL0     C87929   2.565   2.698   7.958  0.0343  0.3243 -0.0704
  652MOL0    Cl87930   2.624   2.600   7.818 -0.3672 -0.5378 -0.1610
  652MOL0     C87931   3.372   3.297   7.710 -0.2288  0.4578  0.1707
  652MOL0     C87932   3.507   3.300   7.676  0.3807 -0.5954 -0.1679
  652MOL0     O87933   3.769   3.256   7.843  0.2674  0.2875  0.8975
  652MOL0     C87934   3.980   3.479   7.651  0.2901 -0.0951 -0.2120
  652MOL0     C87935   4.105   3.505   7.599  0.0624 -0.5047  0.4308
  652MOL0     N87936   4.915   3.332   7.658  0.4133  0.6707  0.5330
  652MOL0     N87937   4.980   3.228   7.711  0.2391 -0.5476 -0.2758
  652MOL0     C87938   5.863   2.467   8.062 -1.0010  0.5787  0.0194
  652MOL0     C87939   5.974   2.400   8.000 -0.2190 -0.5639 -0.4752
  652MOL0     C87940   6.298   2.412   7.653 -0.6308 -0.9290 -0.0499
  652MOL0     C87941   6.404   2.492   7.614 -0.1749  0.6243  0.2203
  652MOL0     C87942   6.516   2.440   7.552 -0.4843 -0.5831 -0.3554
  652MOL0     C87943   6.522   2.309   7.506  0.3364 -0.8848 -0.4507
  652MOL0     O87944   6.628   2.252   7.438 -0.6542 -0.4304 -0.2275
  652MOL0     C87945   6.616   2.128   7.368  0.0110  0.0990 -0.3031
  652MOL0     C87946   6.746   2.111   7.277  0.6589  0.8868 -1.1279
  652MOL0     C87947   6.867   2.104   7.375  0.0014  0.7865 -0.1161
  652MOL0     C87948   6.998   2.100   7.288 -0.4054  0.3152 -0.3350
  652MOL0     C87949   7.113   2.057   7.378  0.5143  0.3656  0.2701
  652MOL0     C87950   7.214   2.041   7.452 -0.3015  0.7970 -0.2526
  652MOL0     C87951   6.402   2.244   7.526  0.0819  1.0549  0.2049
  652MOL0     C87952   6.298   2.285   7.604 -0.1576  0.1786  0.6735
  652MOL0     H87953   5.936   2.480   7.684  2.5536  1.8720  1.1312
  652MOL0     H87954   5.742   2.600   7.770  1.4197 -1.4688 -3.0582
  652MOL0     H87955   5.552   2.574   7.858 -0.9676  2.4939 -0.3004
  652MOL0     H87956   5.452   2.533   7.999  0.5230 -1.4248 -1.5770
  652MOL0     H87957   5.502   2.785   8.064  3.9848 -0.2174 -0.0459
  652MOL0     H87958   5.562   2.805   7.907  0.6181  0.6666  0.9930
  652MOL0     H87959   5.343   2.869   7.883  0.0856 -0.6232 -2.4396
  652MOL0     H87960   5.349   2.735   7.793  0.4500 -1.2678  0.7481
  652MOL0     H87961   5.208   2.617   7.929 -1.7881 -0.2127 -0.2640
  652MOL0     H87962   5.243   2.705   8.079  3.1479  0.1217 -0.8897
  652MOL0     H87963   5.113   2.831   7.844  1.2997 -0.9006 -0.1594
  652MOL0     H87964   5.023   2.757   7.982  1.3940 -0.5877  1.7754
  652MOL0     H87965   5.066   2.954   8.112  1.0702 -4.6479  0.5955
  652MOL0     H87966   5.238   2.949   8.057 -0.5484  0.9554  1.9190
  652MOL0     H87967   5.124   3.152   7.995 -0.3782  1.3357 -1.6630
  652MOL0     H87968   5.174   3.054   7.850 -1.9020 -1.3134 -1.2624
  652MOL0     H87969   4.902   3.064   7.988  1.0546  1.7109  1.2571
  652MOL0     H87970   4.928   2.985   7.830  0.8150  0.3107 -1.1252
  652MOL0     H87971   4.736   3.243   7.917  2.9199 -1.8037  3.1851
  652MOL0     H87972   4.652   3.461   7.819 -0.3923  0.0915  0.0566
  652MOL0     H87973   4.757   3.565   7.721 -1.5376  1.3135 -0.3964
  652MOL0     H87974   4.678   3.406   7.515  0.0671  1.5511 -1.0350
  652MOL0     H87975   4.576   3.545   7.573 -0.5714  0.3412  1.1453
  652MOL0     H87976   4.485   3.366   7.733  2.7252  1.0424  0.6968
  652MOL0     H87977   4.585   3.246   7.652  2.5877  0.8319 -0.5409
  652MOL0     H87978   4.375   3.221   7.535 -1.1607  0.2659 -0.8408
  652MOL0     H87979   4.468   3.315   7.432  1.1189 -0.8799  0.3976
  652MOL0     H87980   4.235   3.202   7.673 -0.6099 -2.5439 -2.9174
  652MOL0     H87981   3.945   3.068   7.732 -0.1885  1.1094 -0.4339
  652MOL0     H87982   4.120   3.068   7.777  1.0153  2.0636  2.5844
  652MOL0     H87983   3.987   3.130   7.885 -6.2231 -0.7815 -1.8673
  652MOL0     H87984   3.569   3.618   7.761  2.0149 -1.8507 -0.6014
  652MOL0     H87985   3.336   3.619   7.810  0.6296  0.4253 -0.4949
  652MOL0     H87986   3.133   3.200   7.824 -0.0088 -0.6341 -0.4459
  652MOL0     H87987   3.213   3.268   7.967  0.4900  1.6456 -1.4779
  652MOL0     H87988   3.014   3.402   7.999  1.8990  0.8195 -1.1336
  652MOL0     H87989   2.927   3.337   7.860 -4.1727 -0.2344  2.8890
  652MOL0     H87990   2.869   3.235   8.073 -1.0294  1.8617 -2.7606
  652MOL0     H87991   3.036   3.157   8.080  1.1384 -0.1371 -0.1633
  652MOL0     H87992   2.840   3.116   7.854  1.0830 -0.7987 -0.4641
  652MOL0     H87993   2.979   3.012   7.910 -0.9594 -1.9752  2.0176
  652MOL0     H87994   2.736   3.042   8.084  1.7050 -0.5902  1.5875
  652MOL0     H87995   2.878   2.941   8.104  1.6947  2.8504  0.2246
  652MOL0     H87996   2.668   2.932   7.874  1.5605  2.4469  1.0145
  652MOL0     H87997   2.817   2.841   7.867  0.4817 -1.4622  1.1535
  652MOL0     H87998   2.653   2.827   8.110  1.0116 -0.1991  0.6866
  652MOL0     H87999   2.758   2.701   8.047  1.6644  0.9918 -0.1852
  652MOL0     H88000   2.491   2.770   7.919 -1.1343 -0.2675  0.9761
  652MOL0     H88001   2.516   2.630   8.028 -2.9594  0.5942 -1.7434
  652MOL0     H88002   3.313   3.209   7.689  1.0780 -0.0958 -1.4207
  652MOL0     H88003   3.558   3.214   7.633 -1.3118 -0.3800 -2.8502
  652MOL0     H88004   3.904   3.554   7.630  1.9466  1.0746 -2.4874
  652MOL0     H88005   4.132   3.593   7.541  0.2697 -0.4210  0.6533
  652MOL0     H88006   5.847   2.457   8.168  0.9769  2.3373  0.5473
  652MOL0     H88007   6.036   2.346   8.071 -0.5147  0.4169  0.5553
  652MOL0     H88008   6.422   2.593   7.651  4.5344 -0.3554  1.1210
  652MOL0     H88009   6.603   2.503   7.533 -1.1139 -0.1255 -1.8901
  652MOL0     H88010   6.603   2.040   7.432  0.0760 -0.9486 -1.6854
  652MOL0     H88011   6.531   2.141   7.300  0.3754 -1.4364 -1.0916
  652MOL0     H88012   6.758   2.204   7.220 -0.6266  1.0679 -1.1436
  652MOL0     H88013   6.737   2.021   7.217  1.9897 -1.1095  1.4702
  652MOL0     H88014   6.858   2.015   7.437 -0.5874 -0.2911 -1.6757
  652MOL0     H88015   6.871   2.192   7.439 -0.6607 -0.3405  1.5173
  652MOL0     H88016   7.017   2.195   7.237 -0.0125 -0.3808 -1.5223
  652MOL0     H88017   6.987   2.018   7.217  0.5833  0.0660 -0.2096
  652MOL0     H88018   7.302   2.009   7.503 -0.0996 -0.5301 -1.3870
  652MOL0     H88019   6.391   2.141   7.494 -0.4187  0.8765  0.9406
  652MOL0     H88020   6.203   2.235   7.624 -0.3256  1.0512  2.2554
  653MOL0     O88021   1.957   1.898   2.314 -0.0720  0.1485 -0.2336
  653MOL0     C88022   1.974   1.886   2.436  0.7452 -0.2243 -0.4511
  653MOL0     O88023   2.086   1.844   2.497  0.0075 -0.1202  0.5776
  653MOL0     C88024   2.193   1.795   2.432 -0.5869 -0.8192  0.6406
  653MOL0     C88025   2.180   1.705   2.330  0.1814 -1.1988 -0.1843
  653MOL0     C88026   2.290   1.635   2.284  0.0957  0.0473 -0.9432
  653MOL0     C88027   2.417   1.666   2.319 -0.5045 -0.6739  0.0332
  653MOL0     O88028   2.524   1.605   2.255 -0.3161 -0.4187 -0.1730
  653MOL0     C88029   2.657   1.646   2.290 -0.8041 -0.5775  0.2289
  653MOL0     C88030   2.758   1.545   2.249 -1.0266 -0.3464 -0.4812
  653MOL0     C88031   2.734   1.412   2.320 -0.1613  0.9562 -1.0500
  653MOL0     C88032   2.844   1.312   2.287  0.0469 -0.0496 -0.0850
  653MOL0     C88033   2.825   1.167   2.353 -0.1731 -0.1807  0.1322
  653MOL0     C88034   2.740   1.070   2.281  0.1216 -0.4508 -0.1826
  653MOL0     C88035   2.692   0.951   2.364 -0.1458  0.1277  1.4819
  653MOL0     C88036   2.592   0.852   2.293  0.0451  0.0496 -1.1983
  653MOL0     N88037   2.648   0.755   2.195 -0.4841 -0.3537 -0.2054
  653MOL0     C88038   2.737   0.648   2.232  0.0201 -0.6110  0.1549
  653MOL0     C88039   2.783   0.593   2.119  0.6444 -0.0126 -0.2979
  653MOL0     C88040   2.871   0.470   2.110  0.7844 -0.4447  0.3694
  653MOL0     C88041   3.004   0.499   2.031  0.9238 -0.3724  0.1635
  653MOL0     C88042   3.089   0.604   2.109  0.2611 -0.6991 -0.7339
  653MOL0     C88043   3.236   0.620   2.070  0.3345  0.5526  0.0662
  653MOL0     O88044   3.325   0.534   2.143  0.1750 -0.6455  0.1526
  653MOL0     C88045   3.463   0.548   2.132 -0.3603  0.6395  0.5531
  653MOL0     C88046   3.523   0.639   2.044  0.0990  0.7072  1.2043
  653MOL0     C88047   3.664   0.645   2.044  0.0796 -0.1775  0.4936
  653MOL0     C88048   3.727   0.768   1.971 -0.0162  0.4080  0.2743
  653MOL0     C88049   3.746   0.545   2.106 -0.0617  0.2572 -0.9028
  653MOL0     C88050   3.895   0.532   2.094  0.4317  0.7927  0.5663
  653MOL0     O88051   3.970   0.630   2.043  0.3865  0.2050  0.6714
  653MOL0     C88052   4.112   0.604   2.024  0.4716 -0.2031 -0.4032
  653MOL0     C88053   4.195   0.556   2.131 -0.0080 -0.1398 -0.5347
  653MOL0     C88054   4.338   0.541   2.106 -0.1587 -0.3654  0.0253
  653MOL0     C88055   4.397   0.581   1.985 -0.2363 -0.1256 -0.5692
  653MOL0     O88056   4.532   0.562   1.986 -0.0273 -0.3545  0.5481
  653MOL0     C88057   4.600   0.589   1.865 -1.0823 -0.8163 -0.7200
  653MOL0     C88058   4.752   0.590   1.896  0.1499 -0.0785 -0.6290
  653MOL0     C88059   4.829   0.540   1.771 -0.7319  0.4968  0.0431
  653MOL0     C88060   4.801   0.626   1.646  0.6295  0.5305  0.1790
  653MOL0     C88061   4.880   0.574   1.523  0.4416  0.2650  1.0194
  653MOL0     C88062   4.826   0.627   1.391  0.4457 -0.5285  0.0749
  653MOL0     C88063   4.918   0.587   1.276 -0.2208 -0.1844 -0.3102
  653MOL0     C88064   5.051   0.671   1.268 -0.0869 -0.1390  0.0697
  653MOL0    Cl88065   5.110   0.626   1.109 -0.1019 -0.1120  0.2456
  653MOL0     C88066   4.309   0.650   1.890 -0.3568  1.1187 -0.1826
  653MOL0     C88067   4.171   0.654   1.908 -0.1971 -0.4577 -0.8766
  653MOL0     O88068   3.939   0.421   2.131  0.0724 -0.2075  0.6912
  653MOL0     C88069   3.675   0.457   2.190  0.6858  0.2500  0.9113
  653MOL0     C88070   3.538   0.458   2.198  0.3870  0.2420  0.1700
  653MOL0     N88071   2.710   0.648   2.012  0.8139  0.2631  0.3547
  653MOL0     N88072   2.649   0.763   2.058  0.1901 -0.2836  0.1671
  653MOL0     C88073   2.429   1.767   2.417  0.1088 -0.8111  0.0959
  653MOL0     C88074   2.322   1.826   2.481  0.8000  0.3349  0.7050
  653MOL0     C88075   1.856   1.921   2.519 -0.4374  1.0670 -0.2343
  653MOL0     C88076   1.748   1.989   2.477 -0.4912 -0.1354 -0.1742
  653MOL0     C88077   1.644   2.029   2.549  0.6599  0.0027 -0.7250
  653MOL0     C88078   1.638   2.009   2.688  0.2677  0.1346 -0.3319
  653MOL0     O88079   1.537   2.038   2.774 -0.7651 -0.6187  0.0476
  653MOL0     C88080   1.431   2.109   2.713 -0.9022 -0.4154 -0.8935
  653MOL0     C88081   1.332   2.157   2.815  0.1965 -0.7790 -0.2984
  653MOL0     C88082   1.381   2.191   2.955 -0.7764 -0.0234 -0.0939
  653MOL0     C88083   1.314   2.313   3.012  0.0158  0.2508  0.8181
  653MOL0     C88084   1.174   2.295   3.035 -0.6529  0.2661 -0.9263
  653MOL0     C88085   1.057   2.279   3.059  0.4776  0.8372  0.1078
  653MOL0     C88086   1.744   1.938   2.749 -0.7915  0.1493  0.1533
  653MOL0     C88087   1.859   1.898   2.660  0.5903 -0.3883  0.3070
  653MOL0     H88088   2.082   1.677   2.292 -1.5750  0.9437  2.3651
  653MOL0     H88089   2.274   1.577   2.193  0.9295  1.8069 -2.2797
  653MOL0     H88090   2.686   1.742   2.246  0.6629 -0.9297  0.3995
  653MOL0     H88091   2.666   1.653   2.399 -1.2279 -0.5385  0.2632
  653MOL0     H88092   2.749   1.533   2.140  1.3939 -0.0220 -0.7665
  653MOL0     H88093   2.857   1.588   2.267 -2.3375  3.1771 -0.9653
  653MOL0     H88094   2.747   1.434   2.426 -0.0723  0.5506 -0.9763
  653MOL0     H88095   2.644   1.353   2.303 -1.0523  2.0770 -0.4173
  653MOL0     H88096   2.852   1.299   2.179 -0.6220 -1.2396 -0.0145
  653MOL0     H88097   2.932   1.360   2.332 -0.4513 -0.4890  1.4457
  653MOL0     H88098   2.918   1.110   2.364 -1.0442 -1.5152  0.8399
  653MOL0     H88099   2.798   1.183   2.458 -0.9615 -1.0518  0.0703
  653MOL0     H88100   2.652   1.121   2.242 -0.0573 -1.2178 -0.8367
  653MOL0     H88101   2.784   1.027   2.190 -1.8131 -0.9595 -0.9332
  653MOL0     H88102   2.781   0.900   2.403  0.6123  0.2238 -0.0363
  653MOL0     H88103   2.645   0.992   2.454  1.8408  0.5516  2.3926
  653MOL0     H88104   2.515   0.901   2.233 -1.3485 -0.9758 -0.3120
  653MOL0     H88105   2.549   0.799   2.378 -0.4880  0.7252 -1.0457
  653MOL0     H88106   2.757   0.609   2.332 -1.7167  0.0419  0.8050
  653MOL0     H88107   2.896   0.432   2.210 -0.6066 -0.6676  0.6577
  653MOL0     H88108   2.814   0.394   2.055  0.9697  0.4411 -1.1015
  653MOL0     H88109   2.969   0.535   1.934  0.7860 -0.3021  0.2385
  653MOL0     H88110   3.068   0.413   2.010 -2.4824 -3.4258  1.3455
  653MOL0     H88111   3.086   0.581   2.216 -2.7288 -0.3939 -0.6844
  653MOL0     H88112   3.048   0.705   2.103  2.8902  0.6330  1.3782
  653MOL0     H88113   3.271   0.721   2.092  3.8282 -0.3739 -0.5378
  653MOL0     H88114   3.236   0.606   1.961 -0.1693  0.5753  0.0605
  653MOL0     H88115   3.464   0.718   1.999 -1.7248 -0.3382  1.6696
  653MOL0     H88116   3.790   0.736   1.887  1.2166  2.6643  0.2669
  653MOL0     H88117   3.649   0.828   1.922  1.8525  0.9638 -2.2061
  653MOL0     H88118   3.780   0.828   2.045 -0.8543  0.2152  1.0593
  653MOL0     H88119   4.149   0.543   2.229  3.2045  3.1027  1.6564
  653MOL0     H88120   4.405   0.495   2.177  0.5012  1.1315  0.3836
  653MOL0     H88121   4.584   0.511   1.790 -2.4303 -2.1053  0.8398
  653MOL0     H88122   4.581   0.685   1.816 -0.9957 -1.5076 -2.1625
  653MOL0     H88123   4.781   0.694   1.912  2.5198 -0.6819 -0.7187
  653MOL0     H88124   4.772   0.540   1.991 -2.3706  0.7093  0.3968
  653MOL0     H88125   4.831   0.431   1.758  1.2226 -0.1733  4.2967
  653MOL0     H88126   4.933   0.547   1.805 -1.0235 -0.7681  1.2603
  653MOL0     H88127   4.699   0.629   1.609  0.4278  1.2532  0.7745
  653MOL0     H88128   4.832   0.725   1.680 -1.0050  0.5803  1.6565
  653MOL0     H88129   4.861   0.466   1.514 -2.0103  0.6057  1.2795
  653MOL0     H88130   4.985   0.593   1.543  1.1860 -0.6204 -1.5860
  653MOL0     H88131   4.730   0.584   1.361 -1.9539  5.6694 -3.1591
  653MOL0     H88132   4.816   0.735   1.373 -1.1002 -1.0561 -3.0371
  653MOL0     H88133   4.863   0.612   1.185  0.1636 -0.8511 -0.7354
  653MOL0     H88134   4.942   0.480   1.284 -0.1605 -0.4256 -2.8230
  653MOL0     H88135   5.121   0.641   1.347  1.0546  0.2954 -0.7344
  653MOL0     H88136   5.041   0.780   1.269  0.9628 -0.0172  1.9819
  653MOL0     H88137   4.349   0.697   1.801 -0.9792  1.1758 -0.4415
  653MOL0     H88138   4.107   0.704   1.836 -1.6666 -0.2156  0.5261
  653MOL0     H88139   3.726   0.381   2.249 -0.7140 -0.2679  1.4773
  653MOL0     H88140   3.494   0.376   2.253 -0.8252 -2.1027 -3.8851
  653MOL0     H88141   2.533   1.794   2.437  0.5604  0.6437 -3.4878
  653MOL0     H88142   2.327   1.906   2.554 -4.5585 -1.3219  3.4661
  653MOL0     H88143   1.734   2.013   2.372  0.3532 -0.1593 -0.2987
  653MOL0     H88144   1.566   2.077   2.490  0.0749 -1.4203 -1.1709
  653MOL0     H88145   1.470   2.191   2.652  0.0311  1.6511  2.2471
  653MOL0     H88146   1.382   2.040   2.643 -0.2679  0.9396 -2.7548
  653MOL0     H88147   1.275   2.066   2.834 -0.8685  0.2455  1.6970
  653MOL0     H88148   1.276   2.238   2.768 -0.2066 -1.9766 -2.0101
  653MOL0     H88149   1.488   2.210   2.961 -0.1946 -3.0302  0.7814
  653MOL0     H88150   1.381   2.108   3.026  1.5799 -1.1891 -1.3121
  653MOL0     H88151   1.328   2.399   2.946 -2.5005  0.6514  0.6851
  653MOL0     H88152   1.354   2.328   3.113  0.5902 -0.7599  0.7542
  653MOL0     H88153   0.952   2.270   3.079  0.7658 -0.9573  1.0838
  653MOL0     H88154   1.739   1.920   2.856  1.4100  1.0986  0.4559
  653MOL0     H88155   1.947   1.853   2.707  1.2075 -0.4014 -0.8328
  654MOL0     O88156   9.688   9.600   5.100 -0.1451  0.1646 -0.2350
  654MOL0     C88157   9.771   9.635   5.017  0.0336 -0.2509  0.2133
  654MOL0     O88158   9.736   9.677   4.889  0.2834 -0.5613 -0.0637
  654MOL0     C88159   9.601   9.663   4.848 -0.6796 -0.2002 -0.5992
  654MOL0     C88160   9.552   9.784   4.809  0.3402 -0.3444 -0.0032
  654MOL0     C88161   9.422   9.793   4.777  0.5307 -0.1197  0.4161
  654MOL0     C88162   9.339   9.675   4.766 -0.0679  0.6336  0.0127
  654MOL0     O88163   9.208   9.676   4.726 -0.3481 -0.1005 -1.2127
  654MOL0     C88164   9.122   9.631   4.833  0.8626  0.0223  0.6899
  654MOL0     C88165   9.005   9.736   4.834 -0.3465 -0.3305 -0.9094
  654MOL0     C88166   8.898   9.687   4.920 -0.2659 -0.2792 -0.3520
  654MOL0     C88167   8.803   9.792   4.947 -0.3419 -0.7313  0.0233
  654MOL0     C88168   8.737   9.833   4.819 -0.3169  0.0614 -0.5258
  654MOL0     C88169   8.628   9.930   4.840  0.0413 -0.9440  0.2649
  654MOL0     C88170   8.536   9.939   4.711  0.0307  0.1074 -0.3432
  654MOL0     C88171   8.455  10.064   4.706  0.5729 -0.2634 -0.4560
  654MOL0     N88172   8.362  10.065   4.597  0.2344 -0.0932  0.5698
  654MOL0     C88173   8.224  10.027   4.590  0.3503 -0.4542  0.1779
  654MOL0     C88174   8.178  10.084   4.474 -0.1425  0.0641  0.0776
  654MOL0     C88175   8.039  10.089   4.424  0.4428  1.4798  0.2817
  654MOL0     C88176   7.947  10.217   4.460  0.2146 -0.3019 -0.6173
  654MOL0     C88177   7.844  10.179   4.565  0.5021  0.5497 -0.3441
  654MOL0     C88178   7.788  10.295   4.641 -0.3543  1.0959 -0.2200
  654MOL0     O88179   7.712  10.378   4.553 -0.1508 -0.5292  0.0783
  654MOL0     C88180   7.605  10.451   4.605  0.5389 -0.7987 -0.3870
  654MOL0     C88181   7.498  10.452   4.519  0.6083  0.2833  0.2385
  654MOL0     C88182   7.377  10.523   4.561 -0.5827  0.0927 -0.0922
  654MOL0     C88183   7.266  10.513   4.457 -0.7643 -0.6352 -0.6286
  654MOL0     C88184   7.380  10.597   4.676 -0.6941  0.7226 -0.2355
  654MOL0     C88185   7.256  10.650   4.731  0.5861 -0.2992 -0.5842
  654MOL0     O88186   7.151  10.678   4.649 -0.4286 -0.4281 -0.0967
  654MOL0     C88187   7.026  10.683   4.713  0.0187  0.1301  0.7738
  654MOL0     C88188   6.987  10.593   4.808  0.1407  0.1175 -0.2048
  654MOL0     C88189   6.858  10.599   4.865  0.5507 -0.1965  0.3948
  654MOL0     C88190   6.764  10.701   4.811 -0.0450 -0.2996  0.1634
  654MOL0     O88191   6.639  10.696   4.870  0.4473 -0.8111 -0.2507
  654MOL0     C88192   6.536  10.784   4.822  1.5012  0.5232  0.1301
  654MOL0     C88193   6.407  10.748   4.894  0.4032 -0.2904  0.2318
  654MOL0     C88194   6.277  10.830   4.868  0.6192  0.6652  0.2531
  654MOL0     C88195   6.293  10.972   4.920 -0.4610  0.7984  0.4080
  654MOL0     C88196   6.170  11.059   4.899  0.5093 -0.4186 -0.2024
  654MOL0     C88197   6.036  10.993   4.911  0.5666 -0.2777 -0.6177
  654MOL0     C88198   5.923  11.088   4.885 -0.5414 -0.3319  0.2290
  654MOL0     C88199   5.888  11.182   5.000 -0.1835 -0.1936 -0.7177
  654MOL0    Cl88200   5.729  11.264   4.959 -0.0799  0.0017 -0.0330
  654MOL0     C88201   6.808  10.789   4.715  0.1110  0.3490  0.1903
  654MOL0     C88202   6.935  10.777   4.659  0.9533  0.3138 -0.5394
  654MOL0     O88203   7.263  10.673   4.857 -0.4589  0.1275  0.2418
  654MOL0     C88204   7.495  10.600   4.758  0.6563  0.1121  0.4938
  654MOL0     C88205   7.608  10.526   4.727  0.5069  0.5182  0.1916
  654MOL0     N88206   8.272  10.141   4.403 -0.5749  0.7958 -0.0100
  654MOL0     N88207   8.376  10.137   4.478  0.0143  1.2424  0.3929
  654MOL0     C88208   9.400   9.552   4.803  0.3703  0.4549  0.6476
  654MOL0     C88209   9.529   9.550   4.856 -0.7519  0.7008  0.2947
  654MOL0     C88210   9.910   9.632   5.070  0.6582  0.2282  0.5138
  654MOL0     C88211   9.932   9.618   5.209 -0.2831 -0.0155 -0.2165
  654MOL0     C88212  10.064   9.642   5.262  0.2986  0.3205  0.4376
  654MOL0     C88213  10.175   9.670   5.178 -0.8036 -0.0348 -0.2202
  654MOL0     O88214  10.304   9.696   5.220  0.4830  0.2954 -0.7028
  654MOL0     C88215  10.325   9.823   5.276 -0.0087 -0.0980 -0.2383
  654MOL0     C88216  10.450   9.904   5.226 -0.7240  0.3326 -0.1360
  654MOL0     C88217  10.558   9.926   5.339  0.7479  0.5809  0.0440
  654MOL0     C88218  10.685   9.966   5.277 -0.5196 -0.2830 -0.9387
  654MOL0     C88219  10.782  10.034   5.378  1.0904  1.1084 -0.0889
  654MOL0     C88220  10.867  10.095   5.439  0.2534  0.4575 -0.1098
  654MOL0     C88221  10.146   9.692   5.044 -0.7616  0.6725 -0.6695
  654MOL0     C88222  10.020   9.659   4.986  0.3467 -0.1902 -0.7290
  654MOL0     H88223   9.604   9.879   4.803 -2.0725  1.0379 -0.2664
  654MOL0     H88224   9.374   9.887   4.752 -3.1956 -2.1577 -0.9631
  654MOL0     H88225   9.081   9.532   4.812  1.6011  0.1797 -1.7420
  654MOL0     H88226   9.175   9.627   4.929  0.9926  1.5966  0.7083
  654MOL0     H88227   9.049   9.833   4.861 -1.2365 -0.4945  1.3822
  654MOL0     H88228   8.979   9.750   4.729 -2.3012  0.6488 -0.3252
  654MOL0     H88229   8.846   9.610   4.862  0.0442 -0.3177 -0.5850
  654MOL0     H88230   8.935   9.644   5.014  2.6980  2.3226 -0.1672
  654MOL0     H88231   8.732   9.764   5.026 -0.4059 -0.9300 -0.1022
  654MOL0     H88232   8.860   9.878   4.983 -0.6256 -1.4126  2.2591
  654MOL0     H88233   8.810   9.874   4.748 -1.5822  2.1832 -0.7003
  654MOL0     H88234   8.684   9.743   4.785  1.4893 -1.2701  0.0504
  654MOL0     H88235   8.550   9.891   4.905 -3.3948  2.0892 -1.6442
  654MOL0     H88236   8.666  10.028   4.868 -4.4378  1.5855 -1.4752
  654MOL0     H88237   8.583   9.929   4.613  2.0147 -2.8298  0.7875
  654MOL0     H88238   8.475   9.848   4.704  0.8647 -0.3603 -2.2069
  654MOL0     H88239   8.511  10.158   4.704  1.7869 -0.9273  0.7253
  654MOL0     H88240   8.386  10.063   4.790 -2.2284 -0.2255 -2.6238
  654MOL0     H88241   8.170   9.984   4.673  0.5580 -0.4697  0.3084
  654MOL0     H88242   8.044  10.079   4.315 -1.2350  0.9445  0.2321
  654MOL0     H88243   7.992  10.004   4.474  1.0295  2.6395  2.9954
  654MOL0     H88244   7.887  10.248   4.374 -0.8286 -1.3716 -0.3018
  654MOL0     H88245   8.006  10.299   4.504  1.2520 -1.8628  1.0631
  654MOL0     H88246   7.892  10.109   4.635  2.8639  0.2913 -2.0721
  654MOL0     H88247   7.767  10.119   4.515  0.7322  0.7471 -0.9384
  654MOL0     H88248   7.869  10.350   4.691  0.0960  0.3611 -0.1259
  654MOL0     H88249   7.717  10.257   4.716 -0.0370 -2.3582 -1.5057
  654MOL0     H88250   7.515  10.398   4.426  0.1915 -0.2721  0.4815
  654MOL0     H88251   7.172  10.480   4.503 -0.8791  0.2799 -0.1895
  654MOL0     H88252   7.255  10.612   4.411 -3.1310 -1.6478 -2.5026
  654MOL0     H88253   7.273  10.431   4.385  2.1038 -1.9868  1.0379
  654MOL0     H88254   7.057  10.512   4.822 -1.0151 -1.2300 -1.7468
  654MOL0     H88255   6.827  10.528   4.941 -0.5954 -2.1161 -1.7359
  654MOL0     H88256   6.552  10.886   4.859  0.4421  0.1097  1.8008
  654MOL0     H88257   6.528  10.789   4.713  0.9306 -0.1352  0.1376
  654MOL0     H88258   6.372  10.648   4.868 -2.5661  0.2208  1.7500
  654MOL0     H88259   6.427  10.735   5.001  2.0559 -1.5975 -0.2029
  654MOL0     H88260   6.198  10.779   4.924  2.3830 -0.2284  2.0387
  654MOL0     H88261   6.260  10.842   4.761  2.5872  1.5520  0.0070
  654MOL0     H88262   6.313  10.969   5.028  0.9206 -0.7756  0.1581
  654MOL0     H88263   6.378  11.026   4.880 -1.5243  2.4831  0.3373
  654MOL0     H88264   6.174  11.102   4.799 -1.9099 -0.9617 -0.5938
  654MOL0     H88265   6.174  11.138   4.974  1.9430 -1.4366  0.8518
  654MOL0     H88266   6.024  10.909   4.843 -0.5903 -0.0795 -0.6892
  654MOL0     H88267   6.028  10.958   5.015 -0.0074  1.3354 -0.0777
  654MOL0     H88268   5.831  11.032   4.869 -2.0686  2.5532 -2.2753
  654MOL0     H88269   5.934  11.141   4.790 -1.8038 -0.6803 -0.1359
  654MOL0     H88270   5.961  11.260   5.024 -1.0312  0.5010 -0.3436
  654MOL0     H88271   5.879  11.121   5.090  1.2782 -0.6986 -0.8953
  654MOL0     H88272   6.739  10.866   4.681 -1.9124 -1.4247  0.0317
  654MOL0     H88273   6.969  10.847   4.584  0.8037  0.1840 -0.7300
  654MOL0     H88274   7.489  10.659   4.849  0.3387 -0.1689  0.6604
  654MOL0     H88275   7.700  10.520   4.784  0.1481  3.0322  1.1829
  654MOL0     H88276   9.340   9.462   4.792 -1.1101  1.6759 -2.3246
  654MOL0     H88277   9.575   9.459   4.891 -3.8740 -1.5120 -0.8702
  654MOL0     H88278   9.855   9.601   5.284  0.6724 -1.1951  0.5433
  654MOL0     H88279  10.065   9.643   5.371 -0.0786  2.5047  0.4671
  654MOL0     H88280  10.238   9.888   5.257 -1.3456 -1.5841  0.5773
  654MOL0     H88281  10.337   9.812   5.384 -1.7776 -1.8787 -0.1640
  654MOL0     H88282  10.425  10.007   5.197  1.8368  1.8871  2.6652
  654MOL0     H88283  10.493   9.853   5.139 -0.2821  3.4641 -1.9187
  654MOL0     H88284  10.573   9.832   5.392  2.4875 -0.5811 -2.3188
  654MOL0     H88285  10.515   9.993   5.414  0.9581  1.2679 -0.4357
  654MOL0     H88286  10.668  10.043   5.201  0.0122  0.4931 -0.2845
  654MOL0     H88287  10.735   9.880   5.232  1.8881  0.6188 -0.1257
  654MOL0     H88288  10.949  10.138   5.492  0.3118  0.7735 -0.4505
  654MOL0     H88289  10.231   9.703   4.978  0.9747  0.4054  1.4082
  654MOL0     H88290  10.002   9.664   4.879 -0.3535 -0.4969 -0.6301
  655MOL0     O88291   1.508  10.440   9.483  0.0030  0.0419  0.5753
  655MOL0     C88292   1.551  10.510   9.395 -0.0237  0.4130 -0.2812
  655MOL0     O88293   1.478  10.564   9.298  1.0349  0.1272  0.1101
  655MOL0     C88294   1.342  10.570   9.304  0.1466  0.7618  0.1068
  655MOL0     C88295   1.273  10.534   9.187  0.0121  0.7158  0.1999
  655MOL0     C88296   1.134  10.563   9.179 -0.9688 -0.2750  1.3550
  655MOL0     C88297   1.071  10.633   9.283  0.9675 -0.0587 -0.2570
  655MOL0     O88298   0.930  10.651   9.284  0.6290  0.4566  0.1125
  655MOL0     C88299   0.846  10.537   9.248  0.6437 -0.3713 -0.1801
  655MOL0     C88300   0.700  10.550   9.274  0.1660 -0.5565 -0.5529
  655MOL0     C88301   0.666  10.597   9.409  0.0584 -1.0239 -0.0834
  655MOL0     C88302   0.734  10.505   9.512 -0.4327 -0.5533 -0.6434
  655MOL0     C88303   0.689  10.566   9.650 -0.1681 -0.9019 -0.3904
  655MOL0     C88304   0.716  10.467   9.764 -0.2781  0.5722  0.1277
  655MOL0     C88305   0.865  10.422   9.795  0.0525 -0.8148 -0.4558
  655MOL0     C88306   0.951  10.526   9.864  0.6973  0.6446 -0.7748
  655MOL0     N88307   1.091  10.478   9.904  0.3697 -0.2114  0.0436
  655MOL0     C88308   1.197  10.433   9.822  0.5669  0.4675 -0.5589
  655MOL0     C88309   1.281  10.372   9.905  0.1171 -0.5334 -0.0394
  655MOL0     C88310   1.406  10.298   9.864 -0.1453  0.1304 -0.0478
  655MOL0     C88311   1.535  10.356   9.907  0.9983 -0.3124 -0.8604
  655MOL0     C88312   1.660  10.258   9.929  0.3228 -0.8083  0.2402
  655MOL0     C88313   1.715  10.199   9.795  0.3659 -0.6988  0.0976
  655MOL0     O88314   1.855  10.194   9.804  0.3792 -0.0803  0.4268
  655MOL0     C88315   1.926  10.134   9.702 -0.1239  0.6006  0.5183
  655MOL0     C88316   1.872  10.103   9.573  0.0441 -0.1912  0.8654
  655MOL0     C88317   1.958  10.043   9.470  0.0923 -0.9048 -0.2318
  655MOL0     C88318   1.885   9.994   9.346 -0.2685  0.2286  0.0274
  655MOL0     C88319   2.103  10.031   9.491 -0.1360  0.5021  0.8854
  655MOL0     C88320   2.205   9.977   9.401 -0.0969  0.0803  0.4661
  655MOL0     O88321   2.343   9.986   9.443  1.0437  0.1701  1.0304
  655MOL0     C88322   2.424   9.913   9.363 -0.7934  0.3998 -0.0769
  655MOL0     C88323   2.432   9.773   9.380  0.3679 -0.0853 -0.0973
  655MOL0     C88324   2.526   9.704   9.304 -0.1639  0.0344 -0.1575
  655MOL0     C88325   2.619   9.773   9.217 -0.0584  0.3406  0.0741
  655MOL0     O88326   2.713   9.696   9.146 -0.0481  0.0307 -0.3191
  655MOL0     C88327   2.848   9.742   9.161 -0.0964  0.3351  0.8360
  655MOL0     C88328   2.939   9.625   9.159 -0.4941  1.1104 -0.1007
  655MOL0     C88329   3.011   9.598   9.022 -0.2607 -0.1246 -0.1774
  655MOL0     C88330   2.925   9.545   8.904 -0.0173 -0.9222 -0.0744
  655MOL0     C88331   3.014   9.494   8.791  0.3858 -0.1495  0.7081
  655MOL0     C88332   2.913   9.450   8.669 -0.0478 -0.3768  0.0837
  655MOL0     C88333   2.990   9.409   8.546  0.6899 -0.2415  1.2121
  655MOL0     C88334   3.053   9.529   8.474  0.6444 -0.8304 -1.3015
  655MOL0    Cl88335   3.101   9.486   8.308  0.1883 -0.0329 -0.1034
  655MOL0     C88336   2.615   9.913   9.210  0.1377  0.4323  0.4858
  655MOL0     C88337   2.512   9.984   9.281 -0.4084  0.4138  0.5322
  655MOL0     O88338   2.163   9.918   9.299 -0.2940  0.3929 -0.0883
  655MOL0     C88339   2.152  10.065   9.618 -0.0853  0.2464  0.9010
  655MOL0     C88340   2.068  10.116   9.712 -0.4436 -0.1755 -0.6104
  655MOL0     N88341   1.230  10.388  10.036  0.1112 -1.3338  0.0772
  655MOL0     N88342   1.119  10.453  10.031 -0.8344  0.1858 -0.4046
  655MOL0     C88343   1.140  10.662   9.403  0.9781  0.2739  1.0193
  655MOL0     C88344   1.271  10.629   9.416  0.2324 -0.0426  0.0545
  655MOL0     C88345   1.690  10.535   9.382 -0.4465  0.6290 -0.1989
  655MOL0     C88346   1.791  10.455   9.440 -0.2921 -0.7586 -0.3367
  655MOL0     C88347   1.926  10.476   9.423  0.1018 -0.1363 -0.2257
  655MOL0     C88348   1.969  10.569   9.326  0.4564  0.4338 -0.4068
  655MOL0     O88349   2.086  10.560   9.263 -0.0177  0.1808 -0.2157
  655MOL0     C88350   2.182  10.459   9.288  0.1453 -0.6661 -0.4081
  655MOL0     C88351   2.184  10.348   9.177  0.6763  0.0426 -0.2920
  655MOL0     C88352   2.325  10.302   9.152 -1.0993 -0.0868 -0.0649
  655MOL0     C88353   2.319  10.197   9.039 -0.0160  0.1301 -0.3309
  655MOL0     C88354   2.312  10.257   8.910  0.5719  0.4918  0.7201
  655MOL0     C88355   2.297  10.306   8.791  0.6911  0.2020 -0.2061
  655MOL0     C88356   1.875  10.660   9.278  0.1573 -0.4748  0.1596
  655MOL0     C88357   1.740  10.642   9.314 -0.3630 -0.1313 -0.1930
  655MOL0     H88358   1.322  10.485   9.104  0.9055 -3.1426  2.7234
  655MOL0     H88359   1.085  10.514   9.096  3.2571 -1.6537 -0.5787
  655MOL0     H88360   0.852  10.524   9.139 -2.8180  2.2987 -0.8595
  655MOL0     H88361   0.882  10.446   9.297 -0.3286 -1.4061 -1.3322
  655MOL0     H88362   0.661  10.622   9.202  0.1966  1.0725  0.9733
  655MOL0     H88363   0.648  10.455   9.261 -1.0915  0.1388 -0.7763
  655MOL0     H88364   0.707  10.697   9.422  3.1574 -2.4886  2.7144
  655MOL0     H88365   0.558  10.590   9.425 -0.2802  1.7698 -0.6565
  655MOL0     H88366   0.711  10.398   9.508 -1.6577 -0.4459  1.8475
  655MOL0     H88367   0.843  10.514   9.519 -0.6640  1.0700  2.0662
  655MOL0     H88368   0.737  10.664   9.663 -2.2939  0.2977 -1.1411
  655MOL0     H88369   0.581  10.578   9.645 -0.1492 -0.8539 -0.6824
  655MOL0     H88370   0.671  10.500   9.857  1.8218 -1.6365  2.0895
  655MOL0     H88371   0.653  10.384   9.732 -2.1210  1.6795  0.7888
  655MOL0     H88372   0.863  10.326   9.847  4.6334 -0.5472  0.6316
  655MOL0     H88373   0.915  10.396   9.701 -0.4328  3.3748 -2.1083
  655MOL0     H88374   0.908  10.555   9.961  2.7246  0.7994  0.1268
  655MOL0     H88375   0.967  10.612   9.798  0.9538 -0.1476 -1.7516
  655MOL0     H88376   1.198  10.430   9.713  2.5816  0.4504 -0.5647
  655MOL0     H88377   1.394  10.195   9.897 -1.2296  0.4274  0.5629
  655MOL0     H88378   1.412  10.308   9.755 -2.0316 -1.8257 -0.3936
  655MOL0     H88379   1.527  10.397  10.009  2.5536 -1.4477 -0.2350
  655MOL0     H88380   1.547  10.443   9.842 -4.1861 -0.2693 -2.2280
  655MOL0     H88381   1.623  10.178   9.994  1.4710  0.2457  2.3093
  655MOL0     H88382   1.743  10.300   9.987 -0.4893 -1.3022  1.8127
  655MOL0     H88383   1.693  10.273   9.717  2.5212 -1.9733 -1.8525
  655MOL0     H88384   1.669  10.103   9.772 -1.7281 -0.5066  2.9740
  655MOL0     H88385   1.765  10.113   9.559  0.3830 -0.3816 -2.6528
  655MOL0     H88386   1.917  10.055   9.261  1.3655 -0.4976  0.0758
  655MOL0     H88387   1.897   9.886   9.327  0.6353  0.1277  1.0975
  655MOL0     H88388   1.778  10.017   9.342  0.0468  1.5650 -1.4190
  655MOL0     H88389   2.354   9.720   9.434 -0.8075 -2.1596 -3.5347
  655MOL0     H88390   2.538   9.598   9.327  6.6510 -0.0985 -2.2120
  655MOL0     H88391   2.879   9.800   9.073  0.6852 -3.6206 -1.7450
  655MOL0     H88392   2.863   9.805   9.250  1.8552 -0.2141  0.9454
  655MOL0     H88393   3.015   9.633   9.237 -1.8702 -1.7616  1.6958
  655MOL0     H88394   2.889   9.534   9.192 -0.6421  2.1848  2.9184
  655MOL0     H88395   3.082   9.517   9.036 -1.0467 -1.0687 -1.4011
  655MOL0     H88396   3.062   9.689   8.988 -1.3234  0.4698 -0.2399
  655MOL0     H88397   2.871   9.457   8.942 -0.3127 -0.3427  0.8734
  655MOL0     H88398   2.856   9.625   8.877  2.6552  2.6341  2.7808
  655MOL0     H88399   3.069   9.405   8.821  2.8843  1.5871  1.6360
  655MOL0     H88400   3.077   9.571   8.745 -0.4061 -1.4771 -2.9773
  655MOL0     H88401   2.848   9.367   8.699  0.6515 -1.6344 -1.7028
  655MOL0     H88402   2.856   9.540   8.648  3.7189  2.0525 -0.6288
  655MOL0     H88403   2.924   9.353   8.479  3.0653 -2.3423  0.4868
  655MOL0     H88404   3.072   9.337   8.556  1.7508  0.3078 -2.3910
  655MOL0     H88405   3.144   9.556   8.529 -0.4807  3.6811 -1.2272
  655MOL0     H88406   3.000   9.624   8.466  0.1077 -0.9477  0.3712
  655MOL0     H88407   2.683   9.962   9.141  0.5022 -0.8891 -0.1195
  655MOL0     H88408   2.498  10.092   9.287  0.0969  0.6057 -1.0355
  655MOL0     H88409   2.257  10.071   9.644  0.0583  1.2213  0.1758
  655MOL0     H88410   2.103  10.139   9.812  2.1397  1.2702 -1.7351
  655MOL0     H88411   1.084  10.701   9.488 -1.4966  0.2621 -0.4827
  655MOL0     H88412   1.332  10.654   9.502  1.6581  2.0662 -1.4766
  655MOL0     H88413   1.772  10.368   9.502  1.4472 -0.0698  1.2610
  655MOL0     H88414   1.994  10.418   9.484  1.7441 -0.0818 -1.9173
  655MOL0     H88415   2.275  10.517   9.281 -0.9145  1.0528 -0.8949
  655MOL0     H88416   2.174  10.411   9.386 -2.2922 -1.3649 -0.8857
  655MOL0     H88417   2.142  10.400   9.090  0.8708  2.1874  0.8202
  655MOL0     H88418   2.119  10.268   9.211 -1.7334  1.5645 -1.0393
  655MOL0     H88419   2.366  10.264   9.246  0.5849  2.9258  0.5628
  655MOL0     H88420   2.398  10.376   9.116  0.5052 -2.5438 -2.2007
  655MOL0     H88421   2.233  10.129   9.046 -0.3334  0.4196 -1.2431
  655MOL0     H88422   2.410  10.139   9.054  0.1128 -0.1303 -1.9198
  655MOL0     H88423   2.267  10.347   8.697 -0.6213 -1.3000 -0.4927
  655MOL0     H88424   1.899  10.748   9.219 -3.1104  1.9537  2.1037
  655MOL0     H88425   1.670  10.716   9.277 -1.5698 -0.8862  0.5154
  656MOL0     O88426   1.501   1.718   1.999 -0.4272  1.1355 -0.7089
  656MOL0     C88427   1.586   1.787   2.050 -0.5885 -0.0667 -0.2182
  656MOL0     O88428   1.574   1.842   2.165 -0.0319 -0.2889  0.2832
  656MOL0     C88429   1.456   1.862   2.221 -0.3806  0.6528  0.4936
  656MOL0     C88430   1.376   1.753   2.252  0.2505 -0.1839 -0.2019
  656MOL0     C88431   1.256   1.777   2.321  0.0144 -0.5504 -0.1273
  656MOL0     C88432   1.205   1.905   2.357  0.3197  0.3194  0.5397
  656MOL0     O88433   1.078   1.919   2.417 -0.4567  0.5798  0.5304
  656MOL0     C88434   1.020   2.052   2.405 -0.2476 -0.1707  0.1643
  656MOL0     C88435   1.052   2.145   2.511  0.5300  0.9778 -0.1269
  656MOL0     C88436   0.996   2.101   2.656  0.5285 -0.4947  0.9212
  656MOL0     C88437   0.844   2.096   2.644 -0.3057  0.7170 -1.0365
  656MOL0     C88438   0.792   1.953   2.625  0.8525  0.8780 -0.5460
  656MOL0     C88439   0.639   1.955   2.619 -0.4599 -0.2034  0.6259
  656MOL0     C88440   0.576   1.824   2.592 -1.1160  0.4654 -0.3432
  656MOL0     C88441   0.425   1.833   2.626 -0.2659  0.4639  0.9293
  656MOL0     N88442   0.352   1.703   2.628 -0.1884 -0.4936  0.7727
  656MOL0     C88443   0.221   1.682   2.579 -0.6248 -0.4900  1.0761
  656MOL0     C88444   0.191   1.560   2.607  0.2378 -0.8867  0.9346
  656MOL0     C88445   0.057   1.492   2.602  0.0239 -0.2389 -0.5053
  656MOL0     C88446  -0.050   1.565   2.690  0.3317 -0.5518  0.7059
  656MOL0     C88447  -0.171   1.477   2.705 -0.2801 -0.3339 -0.4189
  656MOL0     C88448  -0.265   1.546   2.813  0.1870  0.3273 -0.1891
  656MOL0     O88449  -0.397   1.483   2.810 -0.3424 -0.2610  0.1920
  656MOL0     C88450  -0.494   1.525   2.893  0.0645  0.1823  0.1611
  656MOL0     C88451  -0.485   1.611   2.999 -0.5002 -0.4997  0.6023
  656MOL0     C88452  -0.597   1.644   3.078 -1.2281  1.5997 -0.2888
  656MOL0     C88453  -0.575   1.729   3.190 -0.3458 -1.2069 -0.3824
  656MOL0     C88454  -0.723   1.585   3.050 -0.2376 -0.1102  0.6591
  656MOL0     C88455  -0.842   1.586   3.128  0.5001 -0.0776 -0.5865
  656MOL0     O88456  -0.937   1.484   3.112  0.5931  0.2345  0.1938
  656MOL0     C88457  -1.032   1.487   3.210  0.3346 -0.4541 -0.4085
  656MOL0     C88458  -1.023   1.418   3.335 -0.2684 -0.1308 -0.5055
  656MOL0     C88459  -1.126   1.432   3.433 -0.3838 -0.2220  0.2423
  656MOL0     C88460  -1.239   1.505   3.406  1.5013 -0.1557 -1.3070
  656MOL0     O88461  -1.330   1.526   3.506 -0.8016  0.0785 -0.1841
  656MOL0     C88462  -1.425   1.638   3.495 -0.0417  0.3853  0.2842
  656MOL0     C88463  -1.506   1.640   3.630 -0.1136 -0.2079 -0.3596
  656MOL0     C88464  -1.658   1.663   3.607  0.6897 -0.0074 -0.4108
  656MOL0     C88465  -1.742   1.676   3.742 -0.5843  0.2369  0.0122
  656MOL0     C88466  -1.763   1.528   3.790 -0.3504 -0.1915  0.2876
  656MOL0     C88467  -1.804   1.525   3.935 -0.5221  0.0619  0.3679
  656MOL0     C88468  -1.835   1.387   3.995  0.4270 -0.8671 -0.4315
  656MOL0     C88469  -1.979   1.346   3.973 -0.3850 -0.5495  0.2329
  656MOL0    Cl88470  -2.038   1.216   4.079 -0.2667 -0.1330 -0.0817
  656MOL0     C88471  -1.249   1.566   3.281  0.6137  0.5973  1.2148
  656MOL0     C88472  -1.150   1.564   3.191  0.1045 -0.1347  0.1625
  656MOL0     O88473  -0.855   1.680   3.196  0.2780 -0.0000 -0.8733
  656MOL0     C88474  -0.730   1.515   2.929  0.0604  0.7617  0.2971
  656MOL0     C88475  -0.620   1.471   2.859 -0.7454 -0.1391 -0.0689
  656MOL0     N88476   0.303   1.498   2.661  0.0513  0.4279 -1.2218
  656MOL0     N88477   0.394   1.586   2.684  0.5645 -0.5295 -1.2140
  656MOL0     C88478   1.293   2.017   2.337 -0.5960  0.5838 -0.1806
  656MOL0     C88479   1.421   1.990   2.269  0.5270  0.2732  0.3387
  656MOL0     C88480   1.721   1.779   1.998 -0.5020 -0.6132 -0.7656
  656MOL0     C88481   1.754   1.689   1.895 -0.2067  0.0576  0.0695
  656MOL0     C88482   1.887   1.699   1.835  0.4967  0.2927 -0.5237
  656MOL0     C88483   1.979   1.784   1.895 -0.5465 -0.6098  0.6460
  656MOL0     O88484   2.107   1.786   1.840 -0.1311 -0.3427  0.4355
  656MOL0     C88485   2.215   1.824   1.918 -0.5271  0.0424 -0.0218
  656MOL0     C88486   2.324   1.753   1.843  0.4913  0.6313  0.3746
  656MOL0     C88487   2.449   1.776   1.926  0.3660  0.3741  0.1713
  656MOL0     C88488   2.559   1.670   1.916  0.4021 -0.7858 -0.4876
  656MOL0     C88489   2.585   1.629   1.778 -0.1745  0.5281  0.6164
  656MOL0     C88490   2.579   1.616   1.657  0.1538  0.0700 -0.5574
  656MOL0     C88491   1.946   1.878   1.989  0.7505  0.8879 -0.1868
  656MOL0     C88492   1.811   1.873   2.041 -0.1275  0.5106  0.4858
  656MOL0     H88493   1.421   1.657   2.233  2.4356  0.8179 -0.4285
  656MOL0     H88494   1.182   1.698   2.336  0.5040 -0.7877  1.1283
  656MOL0     H88495   1.050   2.103   2.313  0.3121  0.4449  0.6755
  656MOL0     H88496   0.911   2.044   2.404 -0.1318 -2.5135  0.6019
  656MOL0     H88497   1.159   2.161   2.528  0.1782  3.3081  0.2373
  656MOL0     H88498   1.012   2.244   2.485  0.6462  1.9838  3.0995
  656MOL0     H88499   1.051   2.013   2.689  0.6023 -0.1502  1.7371
  656MOL0     H88500   1.015   2.175   2.734  0.3502  0.5084  0.0360
  656MOL0     H88501   0.796   2.132   2.736 -1.2480 -0.2446 -1.1227
  656MOL0     H88502   0.806   2.160   2.564 -2.0749  2.8802  1.3647
  656MOL0     H88503   0.835   1.899   2.539  2.3504 -0.8561  1.1932
  656MOL0     H88504   0.825   1.888   2.707  0.6672 -0.0722 -1.2060
  656MOL0     H88505   0.592   1.994   2.710 -1.7739  0.1451 -0.1764
  656MOL0     H88506   0.615   2.020   2.534  0.7152 -0.7489 -0.1575
  656MOL0     H88507   0.602   1.777   2.496 -0.3262 -1.1416  0.6056
  656MOL0     H88508   0.627   1.751   2.656 -0.4331  0.5017 -0.8327
  656MOL0     H88509   0.376   1.889   2.546  0.1884 -3.2242 -2.2847
  656MOL0     H88510   0.403   1.874   2.725  2.1571 -0.0165  1.7315
  656MOL0     H88511   0.156   1.760   2.543  3.5392  1.4935 -3.3776
  656MOL0     H88512   0.004   1.500   2.507 -2.2949 -0.5899  0.6786
  656MOL0     H88513   0.064   1.386   2.627 -2.7031 -0.5426 -0.7120
  656MOL0     H88514  -0.081   1.659   2.645  1.5136 -0.3059  0.3905
  656MOL0     H88515  -0.017   1.588   2.792 -0.5063 -0.5309  0.9821
  656MOL0     H88516  -0.147   1.378   2.746  0.0382 -0.3321 -0.6025
  656MOL0     H88517  -0.221   1.454   2.611  0.1824 -0.3188 -0.6732
  656MOL0     H88518  -0.286   1.650   2.783 -3.0239 -0.5845 -1.5353
  656MOL0     H88519  -0.221   1.541   2.913  2.0629 -0.4506 -1.0174
  656MOL0     H88520  -0.390   1.662   3.015 -1.3926  1.0926  1.0590
  656MOL0     H88521  -0.470   1.736   3.218 -0.6958 -0.3867  0.8132
  656MOL0     H88522  -0.614   1.828   3.165 -4.5523 -1.9533  2.1056
  656MOL0     H88523  -0.642   1.696   3.270 -3.4346  1.4743 -1.6140
  656MOL0     H88524  -0.925   1.390   3.370 -0.0704  1.3716  0.2068
  656MOL0     H88525  -1.115   1.410   3.539  0.1663  1.6767  0.6198
  656MOL0     H88526  -1.380   1.736   3.473 -0.4287  0.5126  0.0443
  656MOL0     H88527  -1.493   1.607   3.415 -0.1163  1.8168 -0.2415
  656MOL0     H88528  -1.507   1.536   3.667 -1.3632 -0.9088 -2.2183
  656MOL0     H88529  -1.461   1.708   3.703  0.6551  0.1359 -1.1458
  656MOL0     H88530  -1.701   1.584   3.546  1.0760 -1.9952  1.7544
  656MOL0     H88531  -1.654   1.754   3.546  0.6835 -0.7715 -1.5576
  656MOL0     H88532  -1.679   1.732   3.812 -1.3706 -0.2285  1.1382
  656MOL0     H88533  -1.834   1.730   3.721  0.0916  1.1883 -0.5854
  656MOL0     H88534  -1.674   1.464   3.792 -0.0062  0.2863  2.4181
  656MOL0     H88535  -1.845   1.482   3.734  2.0985 -2.5803 -1.6071
  656MOL0     H88536  -1.717   1.561   3.990  0.8942 -0.7571 -1.2689
  656MOL0     H88537  -1.894   1.586   3.950 -1.0473 -0.7891  0.7361
  656MOL0     H88538  -1.820   1.399   4.102 -1.0839  1.6221 -0.4248
  656MOL0     H88539  -1.775   1.300   3.966 -0.3575 -2.2476  1.8673
  656MOL0     H88540  -1.993   1.326   3.867 -1.1376 -1.3270  0.4606
  656MOL0     H88541  -2.034   1.438   3.994  0.8459  0.4995 -0.9559
  656MOL0     H88542  -1.333   1.625   3.244  2.9184  2.0461 -2.2218
  656MOL0     H88543  -1.174   1.614   3.097 -2.1694 -0.7777  0.3325
  656MOL0     H88544  -0.824   1.470   2.901 -1.6242  2.8284  2.2326
  656MOL0     H88545  -0.637   1.401   2.779 -0.1784 -1.2567  0.7563
  656MOL0     H88546   1.274   2.120   2.366 -0.9942  0.8719 -1.3897
  656MOL0     H88547   1.478   2.076   2.236  0.0787 -0.0548 -1.4265
  656MOL0     H88548   1.678   1.631   1.845  2.1630 -1.4260 -2.0727
  656MOL0     H88549   1.924   1.635   1.756 -0.6756  1.2387 -1.8976
  656MOL0     H88550   2.236   1.930   1.926 -0.9925  0.1491 -0.1491
  656MOL0     H88551   2.192   1.783   2.016 -2.6073 -2.0205 -1.2678
  656MOL0     H88552   2.333   1.798   1.744  0.9871  0.2194  0.2301
  656MOL0     H88553   2.303   1.645   1.845 -1.2412  0.8838 -1.5674
  656MOL0     H88554   2.432   1.788   2.033  1.5278 -1.8238  0.6650
  656MOL0     H88555   2.486   1.872   1.888  4.0627 -0.4923  1.1298
  656MOL0     H88556   2.531   1.588   1.982 -0.9080 -0.2024 -0.2860
  656MOL0     H88557   2.648   1.714   1.962 -1.1761 -0.2696  2.2755
  656MOL0     H88558   2.568   1.600   1.552 -1.0685 -1.8646 -0.1915
  656MOL0     H88559   2.019   1.956   2.011  1.0318  1.1886 -2.0680
  656MOL0     H88560   1.776   1.942   2.117  0.5107  0.6649  0.6505
  657MOL0     O88561   2.958  10.609  10.044  0.2425 -0.5643  0.2034
  657MOL0     C88562   3.015  10.693   9.981  0.8501 -0.6103 -0.1481
  657MOL0     O88563   2.957  10.811   9.939 -0.1578 -0.4227  0.7733
  657MOL0     C88564   2.822  10.815   9.967 -0.5023  0.4561  0.2831
  657MOL0     C88565   2.736  10.719   9.923  0.6006  0.0257  0.0985
  657MOL0     C88566   2.597  10.724   9.952 -0.1919  0.7840  0.1597
  657MOL0     C88567   2.546  10.821  10.028 -0.2979  0.1672 -0.7669
  657MOL0     O88568   2.412  10.823  10.047  0.1968  0.4742  0.4378
  657MOL0     C88569   2.366  10.735  10.154  0.5436 -0.3738  1.0659
  657MOL0     C88570   2.295  10.831  10.257 -0.5134  0.8502  1.1325
  657MOL0     C88571   2.257  10.767  10.382  1.0036 -0.0325  0.0142
  657MOL0     C88572   2.152  10.853  10.466 -0.3378 -0.3992  0.0964
  657MOL0     C88573   2.123  10.810  10.613  0.2656 -0.2344 -0.0675
  657MOL0     C88574   2.039  10.902  10.691  1.1315 -0.6784  0.2921
  657MOL0     C88575   1.895  10.923  10.628  0.4013 -0.8509  0.2920
  657MOL0     C88576   1.800  10.995  10.717 -0.7473  1.6819 -0.1026
  657MOL0     N88577   1.662  11.003  10.658 -0.0816  0.2109  0.4410
  657MOL0     C88578   1.564  10.904  10.665 -0.8291  1.2887 -0.2527
  657MOL0     C88579   1.454  10.970  10.642  1.0729  0.2490 -0.2990
  657MOL0     C88580   1.319  10.904  10.634 -1.0686  0.3018 -0.1711
  657MOL0     C88581   1.200  11.004  10.610  0.0759 -0.9156  0.1838
  657MOL0     C88582   1.070  10.942  10.634  0.6264  0.5507 -0.1125
  657MOL0     C88583   0.951  11.042  10.599 -0.4946  0.7005 -0.4107
  657MOL0     O88584   0.830  10.973  10.587  0.6007  0.2407  0.4512
  657MOL0     C88585   0.700  11.022  10.578  0.1511 -0.6956 -0.2374
  657MOL0     C88586   0.665  11.150  10.620  0.2698 -0.2503 -0.2817
  657MOL0     C88587   0.537  11.209  10.601  0.3579  0.2000  0.6526
  657MOL0     C88588   0.517  11.352  10.654 -0.2935 -0.9710  1.5447
  657MOL0     C88589   0.434  11.133  10.530 -0.1071 -0.0262  0.4560
  657MOL0     C88590   0.302  11.174  10.484  0.3058  0.2664 -0.3617
  657MOL0     O88591   0.221  11.083  10.412 -0.4929 -0.2193 -0.4566
  657MOL0     C88592   0.090  11.129  10.379  0.2568  0.0449 -0.9431
  657MOL0     C88593  -0.022  11.038  10.389 -0.7240 -0.0217  0.4811
  657MOL0     C88594  -0.151  11.071  10.353 -0.2322 -0.0695 -0.7295
  657MOL0     C88595  -0.178  11.194  10.297  0.6413  0.0036 -0.8017
  657MOL0     O88596  -0.310  11.227  10.268  0.1669 -0.2200 -0.0366
  657MOL0     C88597  -0.421  11.128  10.266 -0.6599  0.3442 -0.1204
  657MOL0     C88598  -0.494  11.114  10.398  0.1176 -0.2316  0.7480
  657MOL0     C88599  -0.542  11.247  10.456 -0.2440  0.5006 -0.5179
  657MOL0     C88600  -0.563  11.252  10.601 -0.2872  0.0516 -0.3417
  657MOL0     C88601  -0.550  11.402  10.644 -0.7685 -1.0002 -0.1048
  657MOL0     C88602  -0.410  11.438  10.696 -1.2152 -0.0914 -0.7575
  657MOL0     C88603  -0.289  11.399  10.615  0.1479  0.8348 -0.2970
  657MOL0     C88604  -0.163  11.420  10.690  0.4108  0.0436  0.2956
  657MOL0    Cl88605  -0.155  11.588  10.751  0.4558  0.1311 -0.1206
  657MOL0     C88606  -0.079  11.287  10.289  0.5363  0.3004 -0.4207
  657MOL0     C88607   0.053  11.248  10.319 -0.6192 -0.8967 -0.1134
  657MOL0     O88608   0.271  11.287  10.510  0.6334 -0.0593 -0.4538
  657MOL0     C88609   0.473  10.998  10.493 -0.3671 -0.4454  0.0591
  657MOL0     C88610   0.604  10.936  10.512  0.0251  0.1393  0.3224
  657MOL0     N88611   1.479  11.102  10.603  0.0983 -0.4888 -0.3853
  657MOL0     N88612   1.609  11.119  10.612 -0.5748 -0.6112  0.1704
  657MOL0     C88613   2.636  10.915  10.072  0.1140 -0.5487  0.3455
  657MOL0     C88614   2.770  10.913  10.055 -1.2874  0.5087  0.6174
  657MOL0     C88615   3.156  10.679   9.962 -0.1988 -0.1221 -0.4048
  657MOL0     C88616   3.221  10.563  10.019  0.1209  0.3565  0.3561
  657MOL0     C88617   3.354  10.540   9.980 -0.1516 -0.0114  0.6477
  657MOL0     C88618   3.420  10.633   9.895  0.3845  0.7527 -0.5905
  657MOL0     O88619   3.554  10.608   9.867 -0.3535  0.1541  0.1674
  657MOL0     C88620   3.572  10.504   9.769 -0.9176 -0.2649  0.2627
  657MOL0     C88621   3.651  10.392   9.837 -0.3669  0.0718  0.5998
  657MOL0     C88622   3.787  10.438   9.852 -0.1509 -0.2747 -0.2946
  657MOL0     C88623   3.879  10.315   9.881 -0.9256  0.4823  0.3472
  657MOL0     C88624   3.864  10.272  10.022  0.3159 -0.0691 -0.5821
  657MOL0     C88625   3.861  10.244  10.140  0.5086  0.3646 -0.4578
  657MOL0     C88626   3.346  10.743   9.838 -0.1660  0.8209 -0.0622
  657MOL0     C88627   3.217  10.765   9.874  1.0690 -0.7712  0.0881
  657MOL0     H88628   2.769  10.640   9.857 -2.6295 -0.9293 -0.5763
  657MOL0     H88629   2.530  10.648   9.914  1.3723 -0.5606 -0.0386
  657MOL0     H88630   2.295  10.676  10.096 -1.2368  2.0818  0.5773
  657MOL0     H88631   2.443  10.670  10.196  2.0444  1.7856  1.8353
  657MOL0     H88632   2.373  10.903  10.280  1.1132 -0.7338  0.8363
  657MOL0     H88633   2.204  10.872  10.213  0.5128  4.2352  1.9405
  657MOL0     H88634   2.209  10.671  10.361 -1.0015  1.5126 -3.2418
  657MOL0     H88635   2.342  10.751  10.449 -1.2300 -2.6461  2.4717
  657MOL0     H88636   2.209  10.947  10.469  2.3319 -1.9291  0.5133
  657MOL0     H88637   2.059  10.852  10.409  0.4369  1.7228 -1.3505
  657MOL0     H88638   2.082  10.709  10.620  1.1832 -0.7530 -1.5311
  657MOL0     H88639   2.220  10.797  10.664 -0.1988 -1.6304  0.5169
  657MOL0     H88640   2.021  10.868  10.793 -2.2012  0.1763  0.0963
  657MOL0     H88641   2.091  10.998  10.679  0.4488 -0.0947  1.8701
  657MOL0     H88642   1.896  10.989  10.541 -3.1357 -0.0578  0.7230
  657MOL0     H88643   1.867  10.819  10.608  2.9515 -1.3658 -1.0985
  657MOL0     H88644   1.843  11.090  10.749  1.1334  1.6035 -2.1493
  657MOL0     H88645   1.791  10.930  10.804 -0.5313  0.8880 -0.6590
  657MOL0     H88646   1.570  10.796  10.674 -1.3925  1.1429 -1.4137
  657MOL0     H88647   1.321  10.829  10.555  0.6849 -1.8367  1.7833
  657MOL0     H88648   1.306  10.845  10.725  1.4162 -2.7139 -1.5695
  657MOL0     H88649   1.195  11.036  10.505 -0.0339 -0.3128  0.3729
  657MOL0     H88650   1.217  11.089  10.676  1.9444  0.4886 -1.9549
  657MOL0     H88651   1.068  10.914  10.740 -0.0599  1.9849  0.2673
  657MOL0     H88652   1.062  10.864  10.557  0.7067  2.0243 -1.6719
  657MOL0     H88653   0.975  11.075  10.497  0.3807 -1.7818 -1.0675
  657MOL0     H88654   0.943  11.125  10.670  1.5624  1.0981 -0.5768
  657MOL0     H88655   0.734  11.210  10.679  3.9276 -3.4792 -0.8515
  657MOL0     H88656   0.613  11.391  10.689  0.5375 -1.3920 -0.1694
  657MOL0     H88657   0.500  11.416  10.566 -0.1654 -1.0306  1.4774
  657MOL0     H88658   0.432  11.355  10.723  0.0645  1.3629  1.9653
  657MOL0     H88659  -0.012  10.939  10.432  2.1063 -0.6705 -1.3768
  657MOL0     H88660  -0.224  10.992  10.363  0.1123 -0.4527 -1.2182
  657MOL0     H88661  -0.491  11.158  10.187 -2.0656 -2.9948 -0.3345
  657MOL0     H88662  -0.385  11.028  10.242  0.9177  0.6457  0.8680
  657MOL0     H88663  -0.575  11.045  10.372 -1.0841  1.0084  1.1385
  657MOL0     H88664  -0.435  11.058  10.471  1.2369 -3.7942 -2.5067
  657MOL0     H88665  -0.637  11.270  10.407 -1.2656 -1.9109  0.1912
  657MOL0     H88666  -0.477  11.327  10.420  0.1226  0.1265 -0.7051
  657MOL0     H88667  -0.666  11.218  10.617 -0.1974 -0.3405 -0.5681
  657MOL0     H88668  -0.503  11.185  10.663  0.3466  1.6919  0.8805
  657MOL0     H88669  -0.617  11.400  10.731  1.5256 -1.4770  1.7462
  657MOL0     H88670  -0.580  11.478  10.572  1.4604 -1.1344 -1.2598
  657MOL0     H88671  -0.395  11.543  10.722 -0.6139 -0.7118  1.6563
  657MOL0     H88672  -0.385  11.394  10.793 -0.1673  0.2293 -0.8692
  657MOL0     H88673  -0.281  11.449  10.518 -0.3496 -0.6126 -1.1194
  657MOL0     H88674  -0.294  11.291  10.595 -1.4086  0.3900  2.0883
  657MOL0     H88675  -0.077  11.404  10.624 -0.2840  1.4253 -0.9840
  657MOL0     H88676  -0.164  11.353  10.777 -1.4809  0.8170  0.9072
  657MOL0     H88677  -0.117  11.386  10.265  0.1729  0.1651 -0.4091
  657MOL0     H88678   0.131  11.320  10.299  1.5212 -2.3388  2.4941
  657MOL0     H88679   0.399  10.932  10.450  0.2263 -2.5369  2.0376
  657MOL0     H88680   0.621  10.832  10.488  1.6507  0.4895 -0.1306
  657MOL0     H88681   2.595  10.989  10.140  1.3849 -0.6089  1.2301
  657MOL0     H88682   2.841  10.979  10.102  1.9866 -1.1870 -1.5211
  657MOL0     H88683   3.156  10.494  10.073 -0.2236 -0.4958 -1.0624
  657MOL0     H88684   3.407  10.457  10.026 -0.4023  0.6475  2.2111
  657MOL0     H88685   3.484  10.456   9.725  1.0341 -2.8037 -1.1633
  657MOL0     H88686   3.630  10.544   9.686 -1.2181 -0.5814 -0.1047
  657MOL0     H88687   3.662  10.310   9.764  1.4220  1.1104 -0.3574
  657MOL0     H88688   3.601  10.357   9.928 -0.5793 -0.8386  0.1540
  657MOL0     H88689   3.808  10.506   9.935 -2.4633 -1.8459  1.7125
  657MOL0     H88690   3.813  10.481   9.755 -0.4556 -1.0703 -0.7367
  657MOL0     H88691   3.985  10.341   9.884 -0.8515  0.1271  2.7914
  657MOL0     H88692   3.856  10.236   9.808  1.6553 -1.5868  1.5869
  657MOL0     H88693   3.836  10.213  10.240  0.1655 -1.1457 -0.9803
  657MOL0     H88694   3.407  10.806   9.775  1.3299  0.8637  1.3778
  657MOL0     H88695   3.168  10.851   9.832  0.9738  0.2551  2.1834
  658MOL0     O88696  10.043   3.150   6.298  0.6704 -0.0442  0.7385
  658MOL0     C88697  10.045   3.068   6.393 -0.2847  0.8554 -0.5457
  658MOL0     O88698   9.962   2.965   6.411 -0.1676 -0.2906 -0.4650
  658MOL0     C88699   9.849   2.970   6.333  0.2610 -0.6698  0.4883
  658MOL0     C88700   9.733   3.035   6.381  0.0435  0.1139  0.1509
  658MOL0     C88701   9.621   3.033   6.289 -0.2099 -0.2358  0.2304
  658MOL0     C88702   9.612   2.960   6.170  0.3189 -0.2223 -0.4508
  658MOL0     O88703   9.489   2.964   6.104 -0.1517  0.5189 -0.4219
  658MOL0     C88704   9.508   2.979   5.962  0.3378  0.1441  0.0862
  658MOL0     C88705   9.363   2.980   5.914  0.2535  0.7897  0.5341
  658MOL0     C88706   9.363   3.068   5.792  0.7582 -0.2003 -0.3801
  658MOL0     C88707   9.216   3.058   5.733  0.1827 -0.2261 -0.4365
  658MOL0     C88708   9.177   3.156   5.623  1.3674  0.1567 -0.7351
  658MOL0     C88709   9.021   3.137   5.588 -0.4063 -0.1855 -0.0262
  658MOL0     C88710   9.002   3.033   5.466  0.2578  0.2586 -0.1818
  658MOL0     C88711   8.848   3.004   5.452  0.1461  0.2923  0.9633
  658MOL0     N88712   8.785   3.117   5.394 -0.2556 -0.2740  0.3099
  658MOL0     C88713   8.666   3.172   5.445  0.3488  0.1813  0.9259
  658MOL0     C88714   8.616   3.250   5.348  0.2945  0.2285  0.1177
  658MOL0     C88715   8.507   3.346   5.360  0.0595  0.4661  0.2131
  658MOL0     C88716   8.386   3.301   5.448 -1.1408 -0.1913  0.2968
  658MOL0     C88717   8.335   3.158   5.418  0.6111  0.3158  0.0953
  658MOL0     C88718   8.203   3.128   5.491 -0.2000  0.7358  0.9810
  658MOL0     O88719   8.088   3.172   5.403  0.0915  0.0963 -0.3591
  658MOL0     C88720   7.970   3.216   5.460 -0.0354 -0.1334 -0.5990
  658MOL0     C88721   7.942   3.184   5.594 -0.3855 -0.3099 -0.0447
  658MOL0     C88722   7.827   3.238   5.655  0.9711 -0.4211 -0.4589
  658MOL0     C88723   7.805   3.204   5.808 -0.1866 -0.2984  1.2353
  658MOL0     C88724   7.750   3.340   5.588 -0.0199  0.0750 -0.1823
  658MOL0     C88725   7.638   3.420   5.647 -0.0569  0.0561 -0.4160
  658MOL0     O88726   7.562   3.372   5.753  0.1115  0.4935 -0.4033
  658MOL0     C88727   7.453   3.440   5.798  0.6734 -0.3797  0.2534
  658MOL0     C88728   7.459   3.565   5.840  0.1076 -0.3191  0.7525
  658MOL0     C88729   7.349   3.640   5.873  0.4606  0.4480 -0.4162
  658MOL0     C88730   7.224   3.586   5.871 -0.0230 -0.2570  0.4770
  658MOL0     O88731   7.109   3.652   5.893 -0.1960 -0.3198 -0.1174
  658MOL0     C88732   7.049   3.618   6.015  0.8255  0.4642  0.2376
  658MOL0     C88733   6.953   3.732   6.052 -0.4360  0.6335 -0.5724
  658MOL0     C88734   6.854   3.693   6.156 -0.3133  0.3964  0.0492
  658MOL0     C88735   6.755   3.802   6.194  0.0943 -0.8742 -0.0049
  658MOL0     C88736   6.645   3.767   6.289  0.5474 -0.5370  0.3946
  658MOL0     C88737   6.570   3.645   6.236  0.8924  0.5326  0.4763
  658MOL0     C88738   6.444   3.613   6.320 -0.6892  0.2416 -0.6140
  658MOL0     C88739   6.344   3.727   6.317 -0.0548  0.1114  0.5035
  658MOL0    Cl88740   6.195   3.677   6.387 -0.2447 -0.1188 -0.3286
  658MOL0     C88741   7.207   3.450   5.815  0.4891 -0.2622 -0.3599
  658MOL0     C88742   7.329   3.383   5.786  0.3208  0.3965  0.6962
  658MOL0     O88743   7.618   3.530   5.587 -0.7194 -0.4478  0.3859
  658MOL0     C88744   7.783   3.359   5.451 -0.6341 -0.5423  0.0696
  658MOL0     C88745   7.888   3.297   5.392  0.1051  0.6640 -0.7085
  658MOL0     N88746   8.716   3.246   5.249  0.2142  0.2029  0.2720
  658MOL0     N88747   8.822   3.169   5.276  0.6090 -0.4002  0.2059
  658MOL0     C88748   9.721   2.890   6.139  0.5411  0.0613  0.5750
  658MOL0     C88749   9.842   2.890   6.214  0.2304  0.7159  0.3064
  658MOL0     C88750  10.157   3.077   6.497 -0.1768 -0.4230  0.0576
  658MOL0     C88751  10.231   3.189   6.492  0.3799  0.7955 -0.5983
  658MOL0     C88752  10.335   3.209   6.576  0.4529 -0.0925  0.1252
  658MOL0     C88753  10.382   3.113   6.665 -0.6485 -0.4903  0.6477
  658MOL0     O88754  10.487   3.157   6.741 -0.7736  1.1004 -0.1025
  658MOL0     C88755  10.489   3.119   6.882 -0.7927  0.1959  0.6012
  658MOL0     C88756  10.618   3.035   6.920  0.3984  0.1829  0.3140
  658MOL0     C88757  10.751   3.095   6.871  0.2972  0.7960 -1.0373
  658MOL0     C88758  10.864   3.019   6.942 -0.4842  0.2551 -0.9138
  658MOL0     C88759  10.984   3.089   6.967  0.3001 -0.0990 -0.3380
  658MOL0     C88760  11.084   3.156   6.967 -0.8159 -0.3330 -0.0972
  658MOL0     C88761  10.309   2.988   6.663  0.7751  0.4454 -0.0824
  658MOL0     C88762  10.197   2.968   6.585 -0.5116  0.1619  0.7209
  658MOL0     H88763   9.713   3.084   6.476 -0.9710 -1.1098  0.6069
  658MOL0     H88764   9.533   3.094   6.308 -2.5095 -2.7111 -1.5837
  658MOL0     H88765   9.558   3.076   5.954 -1.0451  0.7947 -1.0591
  658MOL0     H88766   9.566   2.900   5.914 -2.5368 -1.5438 -0.8388
  658MOL0     H88767   9.319   2.883   5.890  2.6839 -0.5217  0.9820
  658MOL0     H88768   9.296   3.031   5.983  0.8678  0.4904  1.3714
  658MOL0     H88769   9.387   3.171   5.822 -0.7121 -0.3129  1.2849
  658MOL0     H88770   9.438   3.034   5.719 -1.5897 -0.5830 -2.7713
  658MOL0     H88771   9.214   2.965   5.675  2.6309 -1.6706  1.5775
  658MOL0     H88772   9.146   3.062   5.817 -1.0456  0.7944 -1.4717
  658MOL0     H88773   9.181   3.259   5.658 -2.4873 -0.2706  1.5492
  658MOL0     H88774   9.240   3.144   5.535  0.4340  2.7812 -1.8524
  658MOL0     H88775   8.971   3.110   5.681  1.9045 -4.0271  0.3451
  658MOL0     H88776   8.980   3.234   5.558 -3.1989 -0.9343  1.1267
  658MOL0     H88777   9.043   3.073   5.373  1.7733  1.4668  0.9307
  658MOL0     H88778   9.062   2.944   5.485  0.7349  0.8451  1.3046
  658MOL0     H88779   8.794   2.969   5.541 -1.3991 -1.6707 -0.6427
  658MOL0     H88780   8.835   2.917   5.388 -3.3889 -0.2658  2.2237
  658MOL0     H88781   8.614   3.148   5.538  0.7627 -1.3230  0.7994
  658MOL0     H88782   8.551   3.434   5.409  0.9808 -0.9320  2.0187
  658MOL0     H88783   8.470   3.388   5.267  2.0119  0.7934 -0.4780
  658MOL0     H88784   8.306   3.375   5.439  0.4222  1.4228 -1.1224
  658MOL0     H88785   8.430   3.299   5.548  0.0315 -0.6290 -0.2194
  658MOL0     H88786   8.411   3.080   5.430  2.4762  1.6811 -1.9092
  658MOL0     H88787   8.308   3.152   5.312 -2.8783  1.2018  0.7923
  658MOL0     H88788   8.198   3.175   5.590  0.1991 -1.1581  1.9514
  658MOL0     H88789   8.201   3.020   5.504 -2.8701  0.7066  0.8771
  658MOL0     H88790   7.999   3.110   5.648 -3.0167 -0.5611  2.6123
  658MOL0     H88791   7.898   3.172   5.856 -0.6343  0.1349  2.4058
  658MOL0     H88792   7.789   3.299   5.858  2.8206  1.0631 -0.1659
  658MOL0     H88793   7.718   3.138   5.824  0.4157 -0.9421  1.9206
  658MOL0     H88794   7.555   3.615   5.846 -0.6565  1.9547 -2.9331
  658MOL0     H88795   7.359   3.740   5.914  0.6089 -0.9752  3.3717
  658MOL0     H88796   6.998   3.521   6.016 -1.0833  1.3874  1.5746
  658MOL0     H88797   7.119   3.601   6.098 -1.1179 -2.3803  1.4454
  658MOL0     H88798   7.017   3.810   6.094  1.4634 -1.0875 -0.0945
  658MOL0     H88799   6.900   3.771   5.964  1.9905  0.2721 -2.3175
  658MOL0     H88800   6.911   3.683   6.249 -0.8482  0.2628  0.3663
  658MOL0     H88801   6.806   3.601   6.123 -0.6898  0.7981 -0.5326
  658MOL0     H88802   6.803   3.886   6.246 -2.6803  1.7840 -1.4166
  658MOL0     H88803   6.705   3.851   6.110 -1.9782  0.6804  1.9994
  658MOL0     H88804   6.574   3.850   6.293  1.5353  0.5745 -2.2881
  658MOL0     H88805   6.674   3.760   6.394  2.4436 -1.1204 -0.1339
  658MOL0     H88806   6.534   3.674   6.137  2.7927  0.4016 -0.2859
  658MOL0     H88807   6.634   3.556   6.229 -0.7584 -1.0122  3.1454
  658MOL0     H88808   6.475   3.597   6.423 -3.4261 -0.4579  0.1783
  658MOL0     H88809   6.398   3.522   6.279 -4.9506  1.7347  0.3936
  658MOL0     H88810   6.315   3.753   6.215 -2.2345  0.1003  1.0736
  658MOL0     H88811   6.376   3.819   6.368  0.2295 -0.4079  1.2838
  658MOL0     H88812   7.111   3.400   5.807 -0.7880  1.4301  2.6321
  658MOL0     H88813   7.336   3.281   5.750  0.8591  0.7678 -0.2786
  658MOL0     H88814   7.736   3.440   5.397  2.7178  1.0677 -0.6627
  658MOL0     H88815   7.914   3.309   5.287  0.5573 -1.0027 -0.8174
  658MOL0     H88816   9.708   2.831   6.049 -0.2642  2.2678 -0.8263
  658MOL0     H88817   9.931   2.834   6.188  0.9594  1.5994  0.8597
  658MOL0     H88818  10.206   3.266   6.420 -3.4244 -0.8477 -1.2872
  658MOL0     H88819  10.387   3.304   6.573  0.7438 -0.2142  1.0267
  658MOL0     H88820  10.491   3.210   6.942 -1.2894 -0.9042  2.3733
  658MOL0     H88821  10.403   3.058   6.911 -0.6455 -0.0676  0.4912
  658MOL0     H88822  10.615   2.932   6.884  3.0283 -0.0138  0.4538
  658MOL0     H88823  10.618   3.028   7.029  1.9976  0.0203  0.3284
  658MOL0     H88824  10.752   3.200   6.900  1.3663  0.8184 -1.1160
  658MOL0     H88825  10.757   3.095   6.762 -1.1244  0.7462 -1.1397
  658MOL0     H88826  10.891   2.928   6.888  1.2525  1.2016 -1.7288
  658MOL0     H88827  10.825   2.979   7.036 -0.9157  0.1077 -1.1550
  658MOL0     H88828  11.169   3.220   6.964 -2.5639  2.1265  0.0512
  658MOL0     H88829  10.357   2.907   6.718  1.3795  2.4584  2.5412
  658MOL0     H88830  10.118   2.894   6.592 -1.9406  1.5837  0.2843
  659MOL0     O88831   0.236   8.371  11.354 -0.5068  0.1069  0.1696
  659MOL0     C88832   0.200   8.445  11.439  0.6444 -0.0522 -1.0698
  659MOL0     O88833   0.083   8.521  11.439  0.1594  0.2507 -0.1502
  659MOL0     C88834   0.031   8.540  11.310  0.0762  0.4097 -0.4798
  659MOL0     C88835   0.046   8.653  11.233  0.3814  0.3900 -0.4418
  659MOL0     C88836  -0.028   8.668  11.117  0.0669 -0.0778  0.7234
  659MOL0     C88837  -0.128   8.578  11.087 -0.1573  0.0709  0.4984
  659MOL0     O88838  -0.219   8.601  10.984  0.5839 -0.4965  0.1923
  659MOL0     C88839  -0.206   8.714  10.895 -0.0509 -0.9972  0.1479
  659MOL0     C88840  -0.292   8.832  10.928  0.2031 -0.0170  1.1615
  659MOL0     C88841  -0.242   8.906  11.057  0.0432  0.2576  0.1491
  659MOL0     C88842  -0.313   9.040  11.087 -0.4851  0.1883  0.2484
  659MOL0     C88843  -0.297   9.153  10.980  0.3532  0.5672  0.0318
  659MOL0     C88844  -0.295   9.287  11.054  0.3104  0.2436 -0.1199
  659MOL0     C88845  -0.432   9.313  11.124 -0.0916  1.0603 -0.4344
  659MOL0     C88846  -0.444   9.455  11.192 -1.0665 -0.3194  0.2528
  659MOL0     N88847  -0.580   9.489  11.245  0.2891  0.5176  0.4687
  659MOL0     C88848  -0.646   9.430  11.346  0.7769  0.4523 -0.0113
  659MOL0     C88849  -0.764   9.506  11.370  0.2935 -0.8188  0.0519
  659MOL0     C88850  -0.864   9.485  11.490 -0.6648  0.4402  0.5021
  659MOL0     C88851  -0.921   9.619  11.537 -0.8980  0.7263 -1.0674
  659MOL0     C88852  -0.961   9.614  11.686  0.6228  0.2232 -0.2378
  659MOL0     C88853  -1.066   9.505  11.700  1.4342 -0.2190 -0.3590
  659MOL0     O88854  -1.181   9.540  11.614  0.3533  0.2539 -0.2215
  659MOL0     C88855  -1.299   9.462  11.614  0.2392  1.1510 -0.1671
  659MOL0     C88856  -1.309   9.333  11.667 -0.0132 -1.0722 -0.8153
  659MOL0     C88857  -1.422   9.257  11.674 -0.0073 -0.5259 -0.0947
  659MOL0     C88858  -1.408   9.109  11.701  0.1378 -0.6852 -1.1612
  659MOL0     C88859  -1.540   9.312  11.623 -0.3463 -0.8568 -0.2707
  659MOL0     C88860  -1.670   9.256  11.627 -0.3514  0.4220  0.3348
  659MOL0     O88861  -1.755   9.296  11.529  0.4516  0.0656  0.1732
  659MOL0     C88862  -1.885   9.249  11.521 -0.1461 -0.0883 -0.9543
  659MOL0     C88863  -1.922   9.184  11.407  0.2182  0.5604  0.1491
  659MOL0     C88864  -2.056   9.153  11.397  0.3050 -0.2303  0.8555
  659MOL0     C88865  -2.151   9.174  11.501  0.0101  0.2474 -0.0052
  659MOL0     O88866  -2.280   9.142  11.474 -0.7597 -0.6042 -0.7427
  659MOL0     C88867  -2.396   9.175  11.553 -0.2907 -0.0610  0.0961
  659MOL0     C88868  -2.511   9.076  11.501  0.0888 -0.2670 -0.1670
  659MOL0     C88869  -2.647   9.148  11.533 -1.1198  0.2500  0.1586
  659MOL0     C88870  -2.762   9.044  11.504 -0.7753  0.3387 -0.4750
  659MOL0     C88871  -2.894   9.081  11.564  0.4530 -0.2571 -0.0796
  659MOL0     C88872  -3.013   8.974  11.544 -0.3653 -0.1715  0.0113
  659MOL0     C88873  -2.988   8.849  11.629  0.3428  1.0192  0.1285
  659MOL0     C88874  -3.099   8.737  11.619  0.2154 -0.4244  0.1259
  659MOL0    Cl88875  -3.067   8.588  11.704  0.2952 -0.0218  0.0943
  659MOL0     C88876  -2.107   9.227  11.622 -0.0034 -0.4843  0.8190
  659MOL0     C88877  -1.979   9.269  11.630 -0.2736  0.2308  0.1367
  659MOL0     O88878  -1.705   9.187  11.723 -0.6181 -0.1358  1.0410
  659MOL0     C88879  -1.534   9.435  11.557  0.3120 -0.5133  0.3113
  659MOL0     C88880  -1.418   9.507  11.553 -0.3689  0.0748 -0.6470
  659MOL0     N88881  -0.767   9.607  11.272  0.2977 -0.0400 -0.0694
  659MOL0     N88882  -0.662   9.590  11.195 -0.8080  0.1220  0.5482
  659MOL0     C88883  -0.142   8.468  11.154 -0.7482  0.5998  0.5173
  659MOL0     C88884  -0.065   8.439  11.268 -0.0363  0.2391  1.1268
  659MOL0     C88885   0.288   8.454  11.564  0.0648 -0.1792  0.0383
  659MOL0     C88886   0.249   8.540  11.674  0.5720  0.0724  1.0387
  659MOL0     C88887   0.328   8.546  11.787 -0.4336  0.3092  0.4684
  659MOL0     C88888   0.450   8.475  11.794 -1.0903 -0.8576 -0.2325
  659MOL0     O88889   0.531   8.464  11.907  0.6420 -0.5295 -0.0035
  659MOL0     C88890   0.518   8.572  11.993 -0.1917 -0.4047 -0.1665
  659MOL0     C88891   0.629   8.578  12.111  0.4436 -0.7550 -0.2356
  659MOL0     C88892   0.764   8.591  12.055 -0.2804  0.0965 -0.7073
  659MOL0     C88893   0.873   8.619  12.158 -0.0189 -0.1831 -0.7380
  659MOL0     C88894   1.003   8.580  12.105  0.4735  0.8917  0.6593
  659MOL0     C88895   1.116   8.544  12.075 -0.1281  0.2359 -0.0705
  659MOL0     C88896   0.490   8.395  11.686 -0.0927 -0.0419  0.3911
  659MOL0     C88897   0.412   8.384  11.575  0.2303  0.2167  0.2942
  659MOL0     H88898   0.123   8.727  11.254  0.7808 -0.3987  0.9795
  659MOL0     H88899  -0.012   8.761  11.065 -1.3232  0.5630  1.3889
  659MOL0     H88900  -0.103   8.748  10.885 -0.4298  0.0355 -0.3571
  659MOL0     H88901  -0.235   8.674  10.798  2.0931  0.9163 -1.3640
  659MOL0     H88902  -0.288   8.908  10.850 -3.7101 -1.5716 -0.8275
  659MOL0     H88903  -0.396   8.801  10.942  0.3672  0.0480  2.6621
  659MOL0     H88904  -0.269   8.851  11.148 -1.2679 -0.5739 -0.7112
  659MOL0     H88905  -0.134   8.924  11.049 -0.0145  0.0435 -1.4604
  659MOL0     H88906  -0.418   9.016  11.106 -0.2486 -1.5409 -0.4848
  659MOL0     H88907  -0.270   9.078  11.180 -0.2882  1.8785 -0.4975
  659MOL0     H88908  -0.203   9.139  10.925 -0.4819 -3.3931 -0.7366
  659MOL0     H88909  -0.380   9.152  10.909  0.7934  1.1177 -0.4995
  659MOL0     H88910  -0.209   9.292  11.122 -0.1235 -5.3210  1.3445
  659MOL0     H88911  -0.284   9.352  10.967  0.7880  1.6774  0.9765
  659MOL0     H88912  -0.519   9.298  11.059 -1.8590  1.1340  1.7987
  659MOL0     H88913  -0.441   9.242  11.207  0.2541 -0.1732 -1.4179
  659MOL0     H88914  -0.424   9.514  11.102 -1.2919 -1.8074 -0.8085
  659MOL0     H88915  -0.363   9.464  11.264 -1.0090 -0.7304  0.2414
  659MOL0     H88916  -0.618   9.349  11.413  1.3746 -0.3176 -1.1516
  659MOL0     H88917  -0.938   9.415  11.451 -0.1890 -0.1921  0.7112
  659MOL0     H88918  -0.815   9.430  11.572  0.3832  0.5988 -0.0005
  659MOL0     H88919  -1.006   9.653  11.478 -3.7410  0.6301  2.6423
  659MOL0     H88920  -0.838   9.691  11.538 -1.9518  1.9669 -1.3049
  659MOL0     H88921  -0.994   9.716  11.707  0.5614 -0.1836  1.8240
  659MOL0     H88922  -0.875   9.597  11.751 -0.3197 -0.5901  0.8073
  659MOL0     H88923  -1.100   9.502  11.804  0.3407  1.3426 -0.6405
  659MOL0     H88924  -1.027   9.406  11.673  1.4598 -1.5805  3.9848
  659MOL0     H88925  -1.222   9.281  11.705 -0.1783 -1.5901 -1.1308
  659MOL0     H88926  -1.470   9.066  11.781  0.5647  1.0408  0.1538
  659MOL0     H88927  -1.433   9.065  11.604  1.0083  0.2341 -1.8266
  659MOL0     H88928  -1.302   9.097  11.725  0.0390 -3.1616 -1.5998
  659MOL0     H88929  -1.859   9.171  11.319 -2.7323  0.8495 -2.1783
  659MOL0     H88930  -2.098   9.109  11.307  0.1724  0.3010  0.6531
  659MOL0     H88931  -2.395   9.168  11.662 -3.8879 -0.1597  0.2344
  659MOL0     H88932  -2.410   9.282  11.533  1.9265  0.3173  0.3824
  659MOL0     H88933  -2.499   9.049  11.396 -1.9328 -0.5226 -0.3541
  659MOL0     H88934  -2.503   8.989  11.567  3.2182  0.6231  0.8244
  659MOL0     H88935  -2.648   9.241  11.476  0.4167  2.1682  3.0470
  659MOL0     H88936  -2.645   9.178  11.638 -0.8314 -1.6704  0.7485
  659MOL0     H88937  -2.766   9.023  11.397 -0.6911 -2.9354  0.0895
  659MOL0     H88938  -2.736   8.954  11.560 -1.0606  2.4582  3.4889
  659MOL0     H88939  -2.938   9.163  11.506 -1.8502 -0.8577  0.6958
  659MOL0     H88940  -2.881   9.115  11.667  0.0080 -2.8555  0.9117
  659MOL0     H88941  -3.100   9.028  11.582 -0.7568  1.5622 -3.0326
  659MOL0     H88942  -3.030   8.947  11.439  0.2582 -2.0771  0.3761
  659MOL0     H88943  -2.969   8.867  11.735  1.0399  1.9916 -0.1471
  659MOL0     H88944  -2.892   8.811  11.593  1.7629  4.4040 -0.0794
  659MOL0     H88945  -3.100   8.710  11.513 -0.0814 -0.5212  0.1522
  659MOL0     H88946  -3.196   8.773  11.655  1.7863  2.4127  1.9167
  659MOL0     H88947  -2.166   9.236  11.712  1.0680  1.3641  1.3975
  659MOL0     H88948  -1.938   9.317  11.719  0.2610 -0.5687  0.3302
  659MOL0     H88949  -1.616   9.482  11.504 -0.1910  1.5508  2.7323
  659MOL0     H88950  -1.423   9.601  11.499 -0.7213 -0.2804 -1.2448
  659MOL0     H88951  -0.219   8.397  11.128  1.9804 -2.5295  0.4211
  659MOL0     H88952  -0.088   8.341  11.308  2.8037 -0.4616  1.2404
  659MOL0     H88953   0.160   8.598  11.652 -2.4244 -2.8692  4.0755
  659MOL0     H88954   0.307   8.618  11.865 -0.8928 -0.5056  1.1199
  659MOL0     H88955   0.519   8.666  11.937 -3.4992  0.0357  0.3110
  659MOL0     H88956   0.418   8.574  12.036 -0.0821  0.8288  0.0908
  659MOL0     H88957   0.607   8.505  12.189 -1.4476  0.7855  0.7567
  659MOL0     H88958   0.611   8.675  12.160 -1.9792 -1.0510 -0.3926
  659MOL0     H88959   0.751   8.681  11.994  0.0794  0.9937  0.4883
  659MOL0     H88960   0.779   8.503  11.992 -2.8030 -1.2655  0.4638
  659MOL0     H88961   0.856   8.552  12.243  2.2283 -0.3018 -0.3215
  659MOL0     H88962   0.871   8.719  12.203  0.4930 -0.4859 -0.0278
  659MOL0     H88963   1.216   8.510  12.059 -0.3217 -2.0370  2.6936
  659MOL0     H88964   0.584   8.341  11.683  0.2170  0.5308 -2.1758
  659MOL0     H88965   0.444   8.331  11.486 -2.3329 -1.2285  0.1277
  660MOL0     O88966   9.409   4.265   8.642 -0.2604 -0.7537  0.2761
  660MOL0     C88967   9.399   4.167   8.569 -0.4563  0.3781 -0.2157
  660MOL0     O88968   9.363   4.037   8.614 -0.8920  0.5307  0.3131
  660MOL0     C88969   9.348   4.015   8.748  0.0504  0.5571 -0.2282
  660MOL0     C88970   9.230   3.965   8.793  0.3845  0.5792  0.3211
  660MOL0     C88971   9.216   3.932   8.928  0.6202 -0.0090  0.0337
  660MOL0     C88972   9.333   3.946   9.015  0.0509  0.5633 -0.3094
  660MOL0     O88973   9.311   3.903   9.149 -0.2316 -0.1912  0.1656
  660MOL0     C88974   9.422   3.858   9.226 -0.5067 -0.4661 -0.2315
  660MOL0     C88975   9.485   3.986   9.292 -0.0394  0.1530 -0.7400
  660MOL0     C88976   9.610   3.955   9.383 -1.1539 -0.0818  0.2292
  660MOL0     C88977   9.666   4.089   9.429 -0.7748  0.2866  0.3890
  660MOL0     C88978   9.801   4.061   9.500 -0.2917 -1.1800 -0.2253
  660MOL0     C88979   9.825   4.166   9.608 -0.7868 -0.2426 -0.2866
  660MOL0     C88980   9.752   4.143   9.750  0.2976  1.0538  0.4728
  660MOL0     C88981   9.799   4.237   9.864 -0.4679 -0.6724 -0.1749
  660MOL0     N88982   9.939   4.246   9.873 -0.8864 -0.6295  0.3172
  660MOL0     C88983  10.014   4.144   9.948  0.3701  0.4568  0.2537
  660MOL0     C88984  10.137   4.186   9.943 -0.4326  0.2653  0.4125
  660MOL0     C88985  10.260   4.124  10.017  1.7608 -0.4540  1.6819
  660MOL0     C88986  10.269   4.181  10.163 -0.1731 -0.3312 -1.1017
  660MOL0     C88987  10.407   4.141  10.218 -0.6823 -0.3322 -0.1925
  660MOL0     C88988  10.542   4.185  10.163 -0.3348 -0.6217  0.0561
  660MOL0     O88989  10.591   4.091  10.066  0.2531 -0.3622  0.3480
  660MOL0     C88990  10.699   4.136   9.991  0.5055  0.8946 -0.6060
  660MOL0     C88991  10.765   4.261  10.012  0.1856  0.1863 -0.1954
  660MOL0     C88992  10.888   4.290   9.940 -0.4550 -0.1650  0.6932
  660MOL0     C88993  10.948   4.430   9.959 -0.5409 -0.2431 -0.6330
  660MOL0     C88994  10.950   4.186   9.859 -0.3249 -0.4842 -0.7543
  660MOL0     C88995  11.091   4.197   9.798 -0.7927 -0.8346  0.6642
  660MOL0     O88996  11.146   4.085   9.750 -0.4997 -0.5202  0.5727
  660MOL0     C88997  11.251   4.093   9.661 -0.2485 -0.5930 -0.1488
  660MOL0     C88998  11.373   4.092   9.726 -0.3715 -0.0351  0.5250
  660MOL0     C88999  11.486   4.050   9.662 -0.0835 -0.4248  0.5732
  660MOL0     C89000  11.479   4.023   9.525  0.1160  0.0226 -0.6443
  660MOL0     O89001  11.587   3.980   9.447 -0.6634  0.0778 -0.0902
  660MOL0     C89002  11.724   3.960   9.500 -0.7060 -0.4416 -0.4502
  660MOL0     C89003  11.813   3.902   9.393 -0.0982 -0.3073  0.1916
  660MOL0     C89004  11.951   3.880   9.447  0.2832 -0.8313 -0.4003
  660MOL0     C89005  12.022   3.765   9.369 -1.5936 -0.0464 -0.3484
  660MOL0     C89006  11.960   3.628   9.371 -0.0173 -0.3920 -0.1964
  660MOL0     C89007  11.914   3.580   9.511 -0.3871  0.6125 -0.2759
  660MOL0     C89008  11.851   3.438   9.489 -0.0191  0.0185  0.2073
  660MOL0     C89009  11.765   3.397   9.611 -0.4522 -0.8331  0.3309
  660MOL0    Cl89010  11.631   3.524   9.613  0.5338  0.1940  0.0471
  660MOL0     C89011  11.352   4.022   9.460  0.8371 -0.6357  0.3483
  660MOL0     C89012  11.228   4.053   9.526 -1.7275  0.0549  0.2146
  660MOL0     O89013  11.141   4.309   9.783  0.6461 -1.4007  1.3697
  660MOL0     C89014  10.881   4.064   9.855  0.0782  0.1598  0.4211
  660MOL0     C89015  10.757   4.043   9.910  0.6763 -0.0475  1.2615
  660MOL0     N89016  10.150   4.299   9.865  0.5185 -0.7072 -0.0368
  660MOL0     N89017  10.032   4.346   9.835  1.4500 -0.1716  0.4506
  660MOL0     C89018   9.453   3.984   8.961 -0.7820 -0.0098  0.4469
  660MOL0     C89019   9.459   4.028   8.827  0.3200 -0.4887 -0.2514
  660MOL0     C89020   9.413   4.188   8.425 -0.3697  0.5010 -0.6381
  660MOL0     C89021   9.395   4.075   8.336  0.2498 -0.2293  0.3739
  660MOL0     C89022   9.428   4.087   8.203 -0.1681  0.3545 -0.3025
  660MOL0     C89023   9.451   4.210   8.139 -0.7762  0.5387 -0.0459
  660MOL0     O89024   9.449   4.207   7.999 -0.0580  0.7277  0.2589
  660MOL0     C89025   9.531   4.311   7.938 -0.3555  0.7514 -0.3415
  660MOL0     C89026   9.570   4.271   7.793  0.3464 -0.1796 -0.0801
  660MOL0     C89027   9.657   4.371   7.718  0.2731 -0.9146 -0.0553
  660MOL0     C89028   9.778   4.419   7.795 -0.0393  0.2344  0.8834
  660MOL0     C89029   9.851   4.511   7.711  0.4722 -0.5125  0.0339
  660MOL0     C89030   9.909   4.580   7.629  0.4180 -0.0065 -0.0228
  660MOL0     C89031   9.462   4.320   8.221 -0.3660 -1.0325 -0.0674
  660MOL0     C89032   9.439   4.312   8.362 -0.1481 -0.0692  0.3868
  660MOL0     H89033   9.140   3.957   8.733  1.1763  1.6865 -1.0512
  660MOL0     H89034   9.128   3.879   8.963  1.3856 -0.1428  1.8911
  660MOL0     H89035   9.380   3.791   9.302 -1.6621  1.8260  1.2558
  660MOL0     H89036   9.485   3.798   9.158  0.7503  0.7334 -0.1515
  660MOL0     H89037   9.512   4.056   9.213 -0.6144 -1.3285 -2.3044
  660MOL0     H89038   9.409   4.037   9.353  1.3193 -0.0044  1.1899
  660MOL0     H89039   9.600   3.887   9.468  1.9361 -0.1343  0.6717
  660MOL0     H89040   9.690   3.906   9.326  1.4396  2.9301  0.9321
  660MOL0     H89041   9.670   4.157   9.343  1.8788  0.0366  0.2479
  660MOL0     H89042   9.603   4.128   9.509  1.6089  3.0526  1.0979
  660MOL0     H89043   9.806   3.963   9.549  0.9588 -1.1462 -0.2369
  660MOL0     H89044   9.883   4.066   9.428 -0.6988  0.9136 -0.6118
  660MOL0     H89045   9.931   4.165   9.633 -0.5943  1.3788 -0.8951
  660MOL0     H89046   9.795   4.264   9.569 -3.2911 -1.5086 -1.7974
  660MOL0     H89047   9.643   4.152   9.741  0.1716  0.5238  1.2872
  660MOL0     H89048   9.780   4.047   9.795  2.2273  1.9900  1.3978
  660MOL0     H89049   9.748   4.211   9.958  0.4635 -0.9282  0.2751
  660MOL0     H89050   9.771   4.341   9.844  0.7647 -0.3989 -0.5788
  660MOL0     H89051   9.967   4.063  10.002 -0.3984  1.0649  0.5112
  660MOL0     H89052  10.245   4.016  10.021 -0.6532 -0.2913 -0.4809
  660MOL0     H89053  10.346   4.147   9.953 -0.0448 -1.4902 -1.3159
  660MOL0     H89054  10.195   4.139  10.231  1.4084 -0.4075  0.6395
  660MOL0     H89055  10.256   4.290  10.159  0.1266  0.0301  3.2115
  660MOL0     H89056  10.409   4.031  10.223  2.3797 -0.3733 -0.2468
  660MOL0     H89057  10.395   4.175  10.321 -0.4083 -0.2608 -0.1824
  660MOL0     H89058  10.620   4.190  10.240  2.2665 -0.5903 -2.4272
  660MOL0     H89059  10.536   4.291  10.134 -0.1825 -0.9698 -1.3295
  660MOL0     H89060  10.727   4.339  10.076 -1.6660  1.9612 -3.2029
  660MOL0     H89061  10.922   4.471  10.057  1.4317 -1.4460  0.4839
  660MOL0     H89062  11.058   4.429   9.958 -0.5145 -2.0670 -2.2054
  660MOL0     H89063  10.912   4.500   9.884 -1.3293 -1.3827 -1.3505
  660MOL0     H89064  11.373   4.116   9.832 -1.0934 -2.0535  1.0351
  660MOL0     H89065  11.571   4.060   9.728 -0.3221 -1.2551  1.0176
  660MOL0     H89066  11.773   4.051   9.535 -0.2489  0.7006 -3.7541
  660MOL0     H89067  11.714   3.891   9.584 -1.6546  0.5028  0.2458
  660MOL0     H89068  11.765   3.807   9.367 -1.6405  0.5251 -0.1736
  660MOL0     H89069  11.825   3.976   9.313  0.3623 -1.4202 -0.7921
  660MOL0     H89070  11.954   3.876   9.557 -1.2431  2.9940 -0.0955
  660MOL0     H89071  12.014   3.966   9.426  1.8206 -1.3413  1.7085
  660MOL0     H89072  12.021   3.791   9.263  1.7226 -4.0488 -1.6606
  660MOL0     H89073  12.127   3.755   9.399 -1.4394  0.8320 -0.5898
  660MOL0     H89074  12.040   3.558   9.346  2.6202  2.1046  0.6870
  660MOL0     H89075  11.884   3.628   9.293  1.2668  2.4475 -1.6233
  660MOL0     H89076  11.999   3.573   9.579 -0.6254 -1.1526 -0.1046
  660MOL0     H89077  11.849   3.658   9.551  1.1163  1.2546  0.9960
  660MOL0     H89078  11.925   3.359   9.474  0.6722  0.3996  1.5420
  660MOL0     H89079  11.803   3.445   9.391  1.5057 -2.2827 -0.7998
  660MOL0     H89080  11.824   3.412   9.701 -0.6926  3.3166 -0.0329
  660MOL0     H89081  11.730   3.294   9.601 -2.4319 -0.0100 -2.2124
  660MOL0     H89082  11.344   3.997   9.355 -0.9843 -1.2520  0.6035
  660MOL0     H89083  11.125   4.049   9.493 -1.2042 -1.7675 -1.3472
  660MOL0     H89084  10.922   3.980   9.800 -2.6011 -1.1743  0.3068
  660MOL0     H89085  10.690   3.958   9.902 -3.4757  2.9238  1.3191
  660MOL0     H89086   9.548   3.986   9.014  0.4408 -0.2101 -1.6281
  660MOL0     H89087   9.550   4.060   8.778  0.6545  2.0357  1.7978
  660MOL0     H89088   9.378   3.973   8.368 -1.9580  0.5026  1.7094
  660MOL0     H89089   9.423   4.004   8.133 -0.1677  0.3861 -0.3395
  660MOL0     H89090   9.479   4.406   7.927  0.5793  1.0188 -3.5024
  660MOL0     H89091   9.620   4.326   8.000 -1.9229 -1.2843  2.5951
  660MOL0     H89092   9.473   4.277   7.742  1.6925  3.1459 -2.5711
  660MOL0     H89093   9.623   4.175   7.790 -0.1300 -0.5358  1.5340
  660MOL0     H89094   9.592   4.453   7.687  1.6176 -0.6635 -2.5289
  660MOL0     H89095   9.689   4.322   7.625 -0.2961  1.6078 -1.6920
  660MOL0     H89096   9.847   4.339   7.821  2.9204  2.3491  0.0558
  660MOL0     H89097   9.751   4.466   7.890 -2.2939 -0.0103  0.4261
  660MOL0     H89098   9.958   4.632   7.549  0.4282  0.3578  0.2168
  660MOL0     H89099   9.489   4.415   8.175  2.1897 -2.0039 -0.8156
  660MOL0     H89100   9.444   4.403   8.422 -0.4276 -0.9269  1.7574
  661MOL0     O89101   5.256   3.456  10.127 -0.1965 -0.4762  0.1731
  661MOL0     C89102   5.293   3.402  10.232 -0.6025 -0.5448  0.3228
  661MOL0     O89103   5.208   3.390  10.341 -0.2292 -0.0963 -0.0560
  661MOL0     C89104   5.083   3.443  10.332  0.1332  0.0938  0.2993
  661MOL0     C89105   4.975   3.354  10.302 -0.0681  0.0199  0.3650
  661MOL0     C89106   4.849   3.407  10.267  0.0024  0.2326 -0.0494
  661MOL0     C89107   4.821   3.542  10.289 -0.5338 -0.5955  0.4651
  661MOL0     O89108   4.698   3.566  10.248 -0.4774 -0.0189  0.1727
  661MOL0     C89109   4.638   3.685  10.304  0.4101  0.0760 -0.0628
  661MOL0     C89110   4.649   3.801  10.197 -0.2541  0.2341  0.0057
  661MOL0     C89111   4.531   3.799  10.090 -1.0264  0.2888 -0.3790
  661MOL0     C89112   4.533   3.929  10.011  0.4929 -0.9154 -0.5098
  661MOL0     C89113   4.407   3.957   9.928  0.5331  0.2810 -0.5558
  661MOL0     C89114   4.434   4.085   9.838  0.7656  0.5746  0.6287
  661MOL0     C89115   4.316   4.111   9.737  0.0026 -0.0160 -0.5230
  661MOL0     C89116   4.308   4.255   9.690  0.2981 -0.7253 -0.6347
  661MOL0     N89117   4.211   4.256   9.575 -0.1442  0.2740 -0.7255
  661MOL0     C89118   4.232   4.222   9.442 -0.2286 -0.8058  0.6091
  661MOL0     C89119   4.113   4.228   9.377 -0.7008  0.9603  0.4639
  661MOL0     C89120   4.072   4.212   9.228 -0.5936  1.0450 -0.1251
  661MOL0     C89121   4.146   4.321   9.143  0.1156 -0.2519  0.8980
  661MOL0     C89122   4.150   4.312   8.992 -0.8843 -0.1025 -0.0648
  661MOL0     C89123   4.025   4.344   8.931 -0.3885  0.5215 -0.7403
  661MOL0     O89124   4.037   4.321   8.782 -0.1867 -0.7983 -0.2918
  661MOL0     C89125   3.936   4.374   8.710  0.0900 -1.2664 -0.7488
  661MOL0     C89126   3.949   4.357   8.578  0.0975  0.7404 -0.0562
  661MOL0     C89127   3.848   4.397   8.480 -0.2494  0.5993 -0.5512
  661MOL0     C89128   3.876   4.357   8.338  0.5228  0.5199  1.1931
  661MOL0     C89129   3.731   4.457   8.526  0.1042 -0.2657 -0.5994
  661MOL0     C89130   3.641   4.540   8.433 -0.5186  0.8061 -0.2950
  661MOL0     O89131   3.553   4.616   8.502  1.2098 -0.6037 -0.0137
  661MOL0     C89132   3.469   4.692   8.416 -0.6507 -0.2082  0.4921
  661MOL0     C89133   3.378   4.627   8.327  0.0033 -0.3296  0.9743
  661MOL0     C89134   3.292   4.705   8.245  0.0399 -0.1812 -0.1745
  661MOL0     C89135   3.299   4.844   8.241 -0.0104  0.8900 -0.3322
  661MOL0     O89136   3.232   4.908   8.133 -0.0473  0.0227  0.2957
  661MOL0     C89137   3.286   5.037   8.102 -0.1404  0.1257  0.5630
  661MOL0     C89138   3.200   5.112   8.008  0.4408 -0.6222 -0.4947
  661MOL0     C89139   3.050   5.099   8.050 -0.2174 -1.0182 -0.3298
  661MOL0     C89140   2.965   5.171   7.936 -0.0257  0.0586 -0.3349
  661MOL0     C89141   2.827   5.213   7.970  0.5081  0.2641  1.1919
  661MOL0     C89142   2.787   5.329   7.877  0.1591  0.2404  0.6403
  661MOL0     C89143   2.642   5.371   7.882 -0.6153 -0.3582  0.0746
  661MOL0     C89144   2.549   5.252   7.848  1.0687 -0.0431  0.6337
  661MOL0    Cl89145   2.398   5.303   7.764 -0.3155  0.4159 -0.1216
  661MOL0     C89146   3.391   4.902   8.336 -0.0350 -0.4334  0.2524
  661MOL0     C89147   3.474   4.828   8.418  0.5743 -0.8768  0.5886
  661MOL0     O89148   3.663   4.535   8.316  0.4432  0.0833  0.1681
  661MOL0     C89149   3.713   4.469   8.669  0.0841  0.3427  0.5358
  661MOL0     C89150   3.811   4.434   8.764 -0.8045  0.1333 -0.5898
  661MOL0     N89151   4.024   4.241   9.484 -0.1112 -0.4925  0.0978
  661MOL0     N89152   4.077   4.260   9.595 -0.6980 -1.1476 -0.6690
  661MOL0     C89153   4.929   3.627  10.311  0.3397 -0.2430 -0.5626
  661MOL0     C89154   5.062   3.578  10.339  0.9567 -0.2621 -0.1050
  661MOL0     C89155   5.435   3.370  10.250  0.4492 -0.7530  0.0836
  661MOL0     C89156   5.482   3.326  10.373 -0.3340  0.5464 -0.9200
  661MOL0     C89157   5.615   3.299  10.389 -0.3717  0.6213 -0.7158
  661MOL0     C89158   5.707   3.310  10.284  0.0100  0.1608  0.7852
  661MOL0     O89159   5.840   3.292  10.311  0.3664 -0.2054  0.5804
  661MOL0     C89160   5.929   3.275  10.189 -0.3183 -0.1957 -0.1372
  661MOL0     C89161   6.063   3.209  10.239  0.8637 -0.1426 -0.7770
  661MOL0     C89162   6.159   3.276  10.335  0.0976 -0.2197 -0.1168
  661MOL0     C89163   6.242   3.392  10.285  0.4787 -0.8988  0.1133
  661MOL0     C89164   6.176   3.505  10.214  1.0186 -0.1793  0.1175
  661MOL0     C89165   6.110   3.585  10.153 -0.7074 -0.4130  0.3727
  661MOL0     C89166   5.657   3.344  10.161 -0.8345  0.4921 -0.3848
  661MOL0     C89167   5.525   3.373  10.140  0.1323 -1.1692 -0.3768
  661MOL0     H89168   4.983   3.246  10.301  0.7401  0.0773 -0.9150
  661MOL0     H89169   4.762   3.350  10.234 -0.7266  0.5362  1.2609
  661MOL0     H89170   4.530   3.668  10.314 -0.6658  4.0788 -2.4501
  661MOL0     H89171   4.674   3.721  10.401 -0.7357 -0.7692  0.7069
  661MOL0     H89172   4.638   3.885  10.266  0.0645 -0.7139  1.2380
  661MOL0     H89173   4.751   3.803  10.158  0.4292  0.4017  1.7130
  661MOL0     H89174   4.540   3.717  10.017 -1.9132  2.4090 -3.0246
  661MOL0     H89175   4.437   3.788  10.143 -2.0286  2.5337 -1.5538
  661MOL0     H89176   4.565   4.010  10.077  0.4967 -0.4025 -1.1416
  661MOL0     H89177   4.615   3.922   9.940 -1.2088 -3.4444 -2.4141
  661MOL0     H89178   4.377   3.875   9.863 -0.8783  0.9921 -0.8439
  661MOL0     H89179   4.328   3.979  10.000 -0.2827  0.1844 -1.4013
  661MOL0     H89180   4.430   4.167   9.910 -1.5122  1.7933 -0.7391
  661MOL0     H89181   4.533   4.063   9.796 -0.1301 -1.6456 -0.4706
  661MOL0     H89182   4.328   4.041   9.653  0.3756 -0.0475 -0.4456
  661MOL0     H89183   4.223   4.094   9.791 -0.8523  0.1711 -1.8802
  661MOL0     H89184   4.411   4.280   9.662  1.2666 -1.7058  1.6925
  661MOL0     H89185   4.274   4.324   9.768 -1.4636 -1.3446 -0.8325
  661MOL0     H89186   4.326   4.194   9.395 -1.5646 -2.0495 -1.4792
  661MOL0     H89187   4.103   4.116   9.186 -0.1440  1.0180  0.2579
  661MOL0     H89188   3.965   4.215   9.206 -0.2098 -1.3974 -2.9523
  661MOL0     H89189   4.246   4.332   9.186  0.6596  0.6269 -0.5016
  661MOL0     H89190   4.096   4.418   9.151  1.7487  1.5990 -5.3298
  661MOL0     H89191   4.171   4.209   8.960 -0.3949  0.2263 -0.8276
  661MOL0     H89192   4.232   4.374   8.956 -1.2621  1.3188  1.3836
  661MOL0     H89193   3.993   4.440   8.973 -1.0338 -0.4276  1.0669
  661MOL0     H89194   3.948   4.274   8.964  0.4057 -0.5018 -0.9794
  661MOL0     H89195   4.040   4.304   8.555  0.0382  0.1671  0.9875
  661MOL0     H89196   3.804   4.285   8.297  1.5090  1.0795 -1.7055
  661MOL0     H89197   3.881   4.443   8.271 -1.1945  0.5254  1.0180
  661MOL0     H89198   3.976   4.313   8.336  2.0846  3.8306  1.1635
  661MOL0     H89199   3.377   4.520   8.305  0.1900 -0.0062 -0.7432
  661MOL0     H89200   3.224   4.654   8.178 -0.3274 -0.5908  0.5084
  661MOL0     H89201   3.318   5.098   8.187 -0.1885  3.2805 -1.5005
  661MOL0     H89202   3.381   5.012   8.054 -0.6900 -1.5222  0.2620
  661MOL0     H89203   3.228   5.217   8.020  0.2630 -0.8285  2.6933
  661MOL0     H89204   3.224   5.089   7.904 -2.1067  0.0597 -1.2977
  661MOL0     H89205   3.045   5.154   8.144 -0.2963  2.3179 -2.1582
  661MOL0     H89206   3.011   4.997   8.055 -1.7733 -0.3965  0.9741
  661MOL0     H89207   3.020   5.263   7.910  2.3543 -1.1906  0.0095
  661MOL0     H89208   2.964   5.105   7.848 -1.9680 -0.2766 -0.1014
  661MOL0     H89209   2.819   5.236   8.077 -3.1164  1.4247  0.8303
  661MOL0     H89210   2.771   5.119   7.963  0.8190 -0.0939  2.8952
  661MOL0     H89211   2.839   5.421   7.905 -1.8671  1.8202 -0.5132
  661MOL0     H89212   2.820   5.303   7.776  0.7962  0.3836  0.8079
  661MOL0     H89213   2.615   5.455   7.817  2.2082  0.3305 -0.3488
  661MOL0     H89214   2.621   5.404   7.984 -0.4208 -2.2366  0.7482
  661MOL0     H89215   2.541   5.202   7.945  2.0498 -1.9995 -0.2230
  661MOL0     H89216   2.591   5.179   7.777  0.9141 -2.3281  2.7521
  661MOL0     H89217   3.412   5.008   8.347  1.3182 -0.5081 -1.1619
  661MOL0     H89218   3.543   4.878   8.485  1.6359  0.2278 -1.2415
  661MOL0     H89219   3.617   4.513   8.695 -1.4863 -2.0226 -0.8522
  661MOL0     H89220   3.794   4.452   8.869 -0.6309  2.5725 -0.9306
  661MOL0     H89221   4.907   3.732  10.324  0.7337 -0.2604  0.3759
  661MOL0     H89222   5.144   3.648  10.354  0.5333 -0.3022  3.0269
  661MOL0     H89223   5.408   3.323  10.452  0.1189 -2.4964 -0.4724
  661MOL0     H89224   5.648   3.278  10.490 -0.3219  2.0031 -0.4251
  661MOL0     H89225   5.880   3.219  10.109 -0.9378  1.2415 -0.8117
  661MOL0     H89226   5.960   3.366  10.138  2.3879 -0.6967  0.4909
  661MOL0     H89227   6.123   3.176  10.154 -1.1364 -1.6119 -1.6955
  661MOL0     H89228   6.025   3.117  10.284  0.2260  0.3082 -0.3699
  661MOL0     H89229   6.227   3.192  10.354  0.0312 -0.6021 -1.4625
  661MOL0     H89230   6.103   3.296  10.426 -1.4060  0.0919 -1.0827
  661MOL0     H89231   6.304   3.338  10.212  1.2539  1.2945 -0.9345
  661MOL0     H89232   6.309   3.425  10.365 -0.1724 -0.5751  0.5317
  661MOL0     H89233   6.057   3.668  10.111  0.0669 -0.2864 -0.3816
  661MOL0     H89234   5.728   3.342  10.079 -3.7683 -2.5315 -3.1723
  661MOL0     H89235   5.493   3.386  10.037 -2.8254  1.7721  0.7398
  662MOL0     O89236   9.750   9.170  11.197 -0.4795  0.0077 -0.7773
  662MOL0     C89237   9.831   9.251  11.235 -0.4943 -0.2119 -0.1196
  662MOL0     O89238   9.813   9.386  11.234 -0.2637 -0.2315  0.5399
  662MOL0     C89239   9.712   9.424  11.156  0.9260 -0.2342 -0.7744
  662MOL0     C89240   9.721   9.430  11.019  0.1398  0.3607 -0.0741
  662MOL0     C89241   9.612   9.476  10.947  0.4988  0.0318  0.4622
  662MOL0     C89242   9.484   9.512  11.002 -0.9204  0.0370  0.9347
  662MOL0     O89243   9.388   9.547  10.911 -0.9150  0.5699  1.1445
  662MOL0     C89244   9.395   9.681  10.861  0.7891 -0.6906  0.7156
  662MOL0     C89245   9.340   9.778  10.966 -0.0888  0.6158 -0.1615
  662MOL0     C89246   9.193   9.773  10.997  0.3348  0.3314  0.1927
  662MOL0     C89247   9.164   9.703  11.130 -0.5972 -0.8419  0.1721
  662MOL0     C89248   9.026   9.688  11.161 -0.6711 -0.0928  0.4571
  662MOL0     C89249   8.974   9.593  11.270  0.0582  0.6053 -0.1092
  662MOL0     C89250   9.032   9.451  11.252 -0.1083  0.4583  0.5597
  662MOL0     C89251   8.977   9.373  11.126  0.0502 -0.0406 -0.1114
  662MOL0     N89252   8.833   9.366  11.113 -0.0420  0.2354 -0.7884
  662MOL0     C89253   8.753   9.281  11.189  0.4544  0.0662  0.0688
  662MOL0     C89254   8.630   9.326  11.151  0.0977 -0.3854 -0.0874
  662MOL0     C89255   8.498   9.277  11.200 -0.6779  0.5894 -0.1983
  662MOL0     C89256   8.455   9.129  11.143  0.7071 -0.6677  0.8878
  662MOL0     C89257   8.405   9.123  11.002 -0.6772 -0.7745 -0.3783
  662MOL0     C89258   8.410   8.978  10.951 -0.3101 -0.2198  0.3364
  662MOL0     O89259   8.333   8.893  11.037  0.5184  0.0065  0.5923
  662MOL0     C89260   8.198   8.894  11.005  0.4001  0.0215  0.2123
  662MOL0     C89261   8.112   8.833  11.101 -0.1332 -0.7265 -0.1557
  662MOL0     C89262   7.970   8.840  11.086  0.4429  0.5865 -0.4296
  662MOL0     C89263   7.889   8.767  11.201  0.0195  0.9976  0.0324
  662MOL0     C89264   7.913   8.883  10.961 -0.0103 -0.5229 -0.3850
  662MOL0     C89265   7.766   8.858  10.928  0.4482 -0.2449 -0.5564
  662MOL0     O89266   7.697   8.770  11.002  0.3693 -0.3540 -0.1804
  662MOL0     C89267   7.582   8.717  10.961 -0.2107  0.1226 -0.4967
  662MOL0     C89268   7.575   8.656  10.838 -0.8782  0.5099  0.3443
  662MOL0     C89269   7.467   8.576  10.809  0.0860 -0.0718  0.4830
  662MOL0     C89270   7.362   8.564  10.887  0.7233 -0.0966  0.4411
  662MOL0     O89271   7.257   8.481  10.843 -0.7140  0.5168  0.1411
  662MOL0     C89272   7.151   8.462  10.936 -0.4518 -0.3453 -1.2660
  662MOL0     C89273   7.034   8.393  10.869 -0.1700  0.3082  0.4440
  662MOL0     C89274   6.982   8.471  10.745  0.9549 -0.5656  0.1183
  662MOL0     C89275   7.030   8.420  10.618 -0.2805  0.7292 -0.3466
  662MOL0     C89276   6.945   8.450  10.499  0.1835 -0.2941 -0.4327
  662MOL0     C89277   6.954   8.595  10.452 -0.3888 -0.3405  0.6514
  662MOL0     C89278   6.885   8.616  10.317  0.6999  0.7920  0.2695
  662MOL0     C89279   6.889   8.766  10.268  0.3435 -0.0494 -0.8024
  662MOL0    Cl89280   7.038   8.855  10.321 -0.0252 -0.2936  0.0063
  662MOL0     C89281   7.372   8.620  11.017 -0.3841 -0.2602  0.2168
  662MOL0     C89282   7.474   8.701  11.051  0.2137 -0.0965  0.0173
  662MOL0     O89283   7.726   8.923  10.828 -0.2903 -0.4756 -0.2496
  662MOL0     C89284   7.999   8.955  10.881  0.4010 -0.0048 -0.0569
  662MOL0     C89285   8.138   8.965  10.905 -0.1838 -0.3972 -0.7865
  662MOL0     N89286   8.638   9.435  11.060  0.0538  0.7449 -0.0951
  662MOL0     N89287   8.766   9.454  11.040  0.5380  0.2437  0.1638
  662MOL0     C89288   9.477   9.509  11.140 -0.4084  0.6990 -0.6639
  662MOL0     C89289   9.588   9.466  11.216 -0.4430 -0.6291 -0.6016
  662MOL0     C89290   9.958   9.209  11.292 -0.2913  0.1851  0.5556
  662MOL0     C89291   9.982   9.081  11.339  0.4204  0.0473 -0.7286
  662MOL0     C89292  10.103   9.036  11.388  0.4330 -1.0798  0.2319
  662MOL0     C89293  10.214   9.125  11.390 -0.1525 -0.1473 -0.7604
  662MOL0     O89294  10.336   9.103  11.438  0.0590 -0.1571 -0.2679
  662MOL0     C89295  10.364   8.991  11.529  0.3160  0.3573 -0.0858
  662MOL0     C89296  10.507   9.011  11.580 -0.6163  0.2858 -0.3507
  662MOL0     C89297  10.520   9.136  11.678 -0.0795 -0.0618 -0.0469
  662MOL0     C89298  10.674   9.154  11.708  1.0500 -0.1541 -0.7212
  662MOL0     C89299  10.699   9.288  11.768  0.5310  0.3383  1.3460
  662MOL0     C89300  10.727   9.400  11.798 -0.7756  0.7511  0.7746
  662MOL0     C89301  10.198   9.249  11.338 -0.6222 -0.1572  1.4009
  662MOL0     C89302  10.073   9.294  11.291 -0.4693 -1.2741  0.7018
  662MOL0     H89303   9.812   9.423  10.961  1.6690  1.9326  1.9870
  662MOL0     H89304   9.619   9.460  10.840 -1.9163 -1.1488  0.4077
  662MOL0     H89305   9.498   9.717  10.854  0.3216  1.2392  2.8099
  662MOL0     H89306   9.347   9.698  10.764  2.2866  1.7591  0.2924
  662MOL0     H89307   9.407   9.773  11.052 -0.7082 -2.0395  0.2688
  662MOL0     H89308   9.364   9.874  10.919 -2.2614  1.6901  0.7716
  662MOL0     H89309   9.148   9.872  11.011 -1.6844 -0.7496  1.7929
  662MOL0     H89310   9.144   9.718  10.916 -0.3254  3.8480 -2.0262
  662MOL0     H89311   9.212   9.604  11.135 -1.8421 -1.4680  0.1164
  662MOL0     H89312   9.211   9.759  11.212 -2.8653 -2.0743  2.4695
  662MOL0     H89313   8.989   9.788  11.189  0.5084  0.6387 -0.5014
  662MOL0     H89314   8.973   9.660  11.069 -0.6103 -1.2774  0.7655
  662MOL0     H89315   9.001   9.635  11.367  2.3683  0.5342 -0.6470
  662MOL0     H89316   8.865   9.581  11.271  0.0434  0.7034 -0.3847
  662MOL0     H89317   9.141   9.437  11.259 -0.4307 -1.3850  3.3919
  662MOL0     H89318   8.991   9.400  11.339 -2.8189 -0.2364 -1.0284
  662MOL0     H89319   9.012   9.269  11.122  0.2422  0.0400 -2.4568
  662MOL0     H89320   9.022   9.417  11.036  1.0534 -2.1231 -0.7165
  662MOL0     H89321   8.772   9.195  11.253  1.9478 -0.0197 -0.4312
  662MOL0     H89322   8.488   9.277  11.309 -3.0446  2.8917 -0.3179
  662MOL0     H89323   8.423   9.353  11.175  1.3408  1.9982 -2.3689
  662MOL0     H89324   8.374   9.091  11.205 -1.8946  3.1415  0.1853
  662MOL0     H89325   8.540   9.060  11.154 -0.5815 -1.9462  4.6231
  662MOL0     H89326   8.473   9.185  10.943 -0.3135  0.4177  1.2318
  662MOL0     H89327   8.304   9.165  11.005 -0.7862 -1.0842  1.0384
  662MOL0     H89328   8.516   8.948  10.944 -0.3872 -1.2202  2.5815
  662MOL0     H89329   8.382   8.962  10.847 -1.1062 -0.5945  0.6026
  662MOL0     H89330   8.155   8.786  11.190  1.8579 -0.8127 -1.1103
  662MOL0     H89331   7.867   8.666  11.165  4.1846  0.5947 -1.9602
  662MOL0     H89332   7.949   8.748  11.291  0.2030  2.0723  0.1490
  662MOL0     H89333   7.804   8.824  11.240 -0.7274  0.7169 -1.1403
  662MOL0     H89334   7.659   8.660  10.770 -0.2657 -3.6873  0.5740
  662MOL0     H89335   7.463   8.526  10.713 -1.2720 -1.7160  1.3456
  662MOL0     H89336   7.196   8.397  11.012  2.0110  2.3033 -0.2823
  662MOL0     H89337   7.118   8.556  10.982 -1.9266 -1.6324  0.4202
  662MOL0     H89338   7.064   8.289  10.851 -1.6238 -0.5155  2.4126
  662MOL0     H89339   6.963   8.377  10.951  1.3725 -2.1678  1.4010
  662MOL0     H89340   7.006   8.578  10.751  0.9464 -0.3760 -2.1810
  662MOL0     H89341   6.873   8.470  10.746  0.8023  2.6033 -0.8901
  662MOL0     H89342   7.131   8.449  10.587  0.8872 -3.1048 -0.6966
  662MOL0     H89343   7.033   8.311  10.628 -2.0535  0.8486  4.1216
  662MOL0     H89344   6.847   8.433  10.542  0.4860  1.5232  1.1158
  662MOL0     H89345   6.965   8.375  10.422  0.8742 -0.9640  0.3756
  662MOL0     H89346   6.931   8.666  10.532 -1.3559 -0.1633  0.2266
  662MOL0     H89347   7.059   8.624  10.440 -0.8480  1.1757  0.1747
  662MOL0     H89348   6.780   8.585  10.316  1.0785 -0.6089 -1.6341
  662MOL0     H89349   6.933   8.560  10.237 -0.2057  0.7509 -0.2570
  662MOL0     H89350   6.796   8.816  10.297  0.3880  0.6176 -1.7520
  662MOL0     H89351   6.890   8.768  10.159  2.6485  3.0621 -0.8587
  662MOL0     H89352   7.294   8.590  11.087  1.8773 -2.9189  1.8227
  662MOL0     H89353   7.488   8.742  11.150  3.7573  1.1365 -0.8477
  662MOL0     H89354   7.966   9.005  10.791 -1.4906 -0.4563  0.3344
  662MOL0     H89355   8.198   9.022  10.834  1.4878  0.6244  1.3036
  662MOL0     H89356   9.393   9.532  11.204 -2.5059  0.1099 -3.0548
  662MOL0     H89357   9.581   9.466  11.325  2.0706  1.7997 -0.3363
  662MOL0     H89358   9.900   9.011  11.345  2.7320 -2.7064  3.2720
  662MOL0     H89359  10.107   8.942  11.443 -0.3662 -1.0686  0.3232
  662MOL0     H89360  10.293   8.991  11.612  1.2690  1.1760  0.7568
  662MOL0     H89361  10.348   8.901  11.470  2.3333 -1.1923  1.5903
  662MOL0     H89362  10.581   9.009  11.500 -0.3503 -0.5099 -0.0902
  662MOL0     H89363  10.535   8.929  11.647  0.0824  0.7514 -0.0509
  662MOL0     H89364  10.460   9.140  11.769  0.2660 -0.3442  0.1951
  662MOL0     H89365  10.484   9.222  11.620 -1.7935 -1.5479 -1.2909
  662MOL0     H89366  10.734   9.147  11.617 -1.3536 -0.6301 -2.3548
  662MOL0     H89367  10.702   9.084  11.787  0.9848  0.3168 -0.2781
  662MOL0     H89368  10.743   9.506  11.797 -3.5967  1.3660 -3.0790
  662MOL0     H89369  10.292   9.304  11.332  0.9646 -2.8144  0.0291
  662MOL0     H89370  10.075   9.395  11.251  2.3600 -1.0866  1.0817
  663MOL0     O89371   2.034  10.464  10.671 -0.0006  0.4547  0.6765
  663MOL0     C89372   2.010  10.341  10.660 -0.6451 -0.1545 -0.7835
  663MOL0     O89373   1.889  10.292  10.679  0.4947 -0.0241  0.7746
  663MOL0     C89374   1.776  10.371  10.704  0.3186 -0.4335  0.0570
  663MOL0     C89375   1.768  10.483  10.781 -0.5188 -0.1581 -0.4411
  663MOL0     C89376   1.651  10.559  10.783 -0.6141 -0.5407  0.3681
  663MOL0     C89377   1.539  10.534  10.706  0.3544  0.2050  0.0956
  663MOL0     O89378   1.424  10.604  10.731  0.5756 -0.2532 -0.1036
  663MOL0     C89379   1.297  10.529  10.742 -0.7732  0.4780 -0.4399
  663MOL0     C89380   1.274  10.490  10.881 -0.3242  1.1020  0.0302
  663MOL0     C89381   1.127  10.452  10.893 -0.2669 -0.5932 -0.4621
  663MOL0     C89382   1.103  10.373  11.030  0.4642 -0.5388  0.6400
  663MOL0     C89383   0.953  10.388  11.069 -0.6527 -0.1981 -0.3964
  663MOL0     C89384   0.857  10.313  10.980 -0.0929  0.0094 -0.1290
  663MOL0     C89385   0.708  10.353  11.016  0.8399  0.4177  0.0243
  663MOL0     C89386   0.673  10.491  10.987 -0.4263 -0.0403 -0.4086
  663MOL0     N89387   0.688  10.517  10.847  0.4661 -0.4251  0.2152
  663MOL0     C89388   0.793  10.572  10.779  0.0659 -0.1925  0.5069
  663MOL0     C89389   0.748  10.579  10.653  0.0950 -0.1738 -0.3281
  663MOL0     C89390   0.833  10.630  10.542 -0.2055 -0.6239 -0.4748
  663MOL0     C89391   0.956  10.548  10.509 -0.4325 -0.5656 -0.3418
  663MOL0     C89392   0.932  10.417  10.447 -0.3924  0.8672  0.8309
  663MOL0     C89393   1.061  10.347  10.416  0.0708  0.1123 -0.6505
  663MOL0     O89394   1.096  10.271  10.530  0.3401 -0.2783  0.3222
  663MOL0     C89395   1.212  10.202  10.524 -0.4944 -0.9198 -0.0451
  663MOL0     C89396   1.290  10.169  10.407 -0.3453  0.8019  0.3933
  663MOL0     C89397   1.416  10.097  10.427  0.8777  0.3311  0.0385
  663MOL0     C89398   1.487  10.056  10.300 -0.0988 -0.4841  0.0714
  663MOL0     C89399   1.469  10.069  10.557  0.7772  0.1446  0.3732
  663MOL0     C89400   1.592  10.002  10.587  0.8861 -0.7652  0.3871
  663MOL0     O89401   1.646  10.025  10.712 -0.7812  0.1798  0.4241
  663MOL0     C89402   1.744   9.938  10.765 -0.0901 -0.8755 -0.3852
  663MOL0     C89403   1.732   9.796  10.771  0.5200 -0.1689  0.1325
  663MOL0     C89404   1.835   9.717  10.832  0.2930  0.2214  0.0461
  663MOL0     C89405   1.950   9.777  10.876  0.0422 -0.2682  0.8675
  663MOL0     O89406   2.051   9.694  10.930 -0.5971 -0.7905 -0.2715
  663MOL0     C89407   2.138   9.766  11.026  0.4089  0.0676 -0.0129
  663MOL0     C89408   2.240   9.670  11.093 -1.4889  0.0118  0.5408
  663MOL0     C89409   2.170   9.561  11.174  0.8855  0.7963  0.2008
  663MOL0     C89410   2.270   9.446  11.211 -0.7288 -0.2082  0.5982
  663MOL0     C89411   2.389   9.510  11.287  0.6722 -0.0735 -0.3625
  663MOL0     C89412   2.459   9.408  11.377  0.0596 -0.7722  1.0410
  663MOL0     C89413   2.596   9.441  11.441 -0.4340 -0.4495 -0.6427
  663MOL0     C89414   2.722   9.464  11.356 -0.1471 -0.3548 -0.4037
  663MOL0    Cl89415   2.705   9.622  11.279  0.5598 -0.5922 -0.0220
  663MOL0     C89416   1.960   9.923  10.868  0.3820 -0.7852 -0.0523
  663MOL0     C89417   1.854  10.001  10.820 -0.3341 -0.1239 -0.8721
  663MOL0     O89418   1.641   9.931  10.501  0.6934 -0.3018  0.0491
  663MOL0     C89419   1.391  10.112  10.673 -0.0400  0.0102  0.6632
  663MOL0     C89420   1.267  10.172  10.646  0.3453  0.0952  0.1095
  663MOL0     N89421   0.619  10.524  10.645  0.0904 -0.8914 -1.2003
  663MOL0     N89422   0.587  10.488  10.759  0.6188 -0.4120  0.4913
  663MOL0     C89423   1.556  10.432  10.607  0.6612 -0.1215  0.3959
  663MOL0     C89424   1.672  10.350  10.611  0.1314  0.1074  0.6057
  663MOL0     C89425   2.122  10.248  10.636  0.0621 -0.7593  0.2431
  663MOL0     C89426   2.101  10.130  10.567  0.3478 -0.8214 -0.1442
  663MOL0     C89427   2.202  10.055  10.503  0.3023 -0.2938 -0.2576
  663MOL0     C89428   2.337  10.087  10.531  0.1878 -0.7303  0.1405
  663MOL0     O89429   2.445  10.014  10.489  0.8113  0.7237 -0.2734
  663MOL0     C89430   2.433   9.933  10.371  0.3884 -0.5124  1.0954
  663MOL0     C89431   2.559   9.858  10.334  0.3711  0.0392  0.5465
  663MOL0     C89432   2.672   9.957  10.309 -0.0784 -0.6306  0.0578
  663MOL0     C89433   2.799   9.897  10.254 -0.5065 -0.0189  0.1808
  663MOL0     C89434   2.897  10.003  10.241 -0.6883 -0.3846  0.7237
  663MOL0     C89435   2.971  10.093  10.220 -0.4094 -1.7575 -0.6150
  663MOL0     C89436   2.359  10.194  10.616 -0.3281 -0.1347 -0.7504
  663MOL0     C89437   2.253  10.266  10.668  0.1755 -0.3718 -0.5484
  663MOL0     H89438   1.838  10.517  10.856 -1.3885  2.3243 -0.6415
  663MOL0     H89439   1.640  10.636  10.859 -0.5526  0.2984 -0.4566
  663MOL0     H89440   1.222  10.598  10.702 -2.2774 -2.7329 -3.7901
  663MOL0     H89441   1.305  10.443  10.675  2.9550 -0.1913  0.6078
  663MOL0     H89442   1.337  10.406  10.911  3.7804  4.0547  0.4949
  663MOL0     H89443   1.304  10.566  10.952 -1.4390  2.3336 -0.7706
  663MOL0     H89444   1.068  10.545  10.893  0.1989 -0.2597  1.6827
  663MOL0     H89445   1.101  10.385  10.810  0.1605 -1.9267  0.4501
  663MOL0     H89446   1.131  10.269  11.009  0.5259 -0.0263 -2.2642
  663MOL0     H89447   1.165  10.409  11.112  0.1794  1.3012  0.1003
  663MOL0     H89448   0.934  10.353  11.171  0.0470 -1.2781 -0.6178
  663MOL0     H89449   0.933  10.495  11.076 -0.7770 -0.2505  0.0987
  663MOL0     H89450   0.877  10.328  10.873  0.2384 -5.2386 -1.0673
  663MOL0     H89451   0.865  10.205  10.996  0.3737  0.0415 -0.1400
  663MOL0     H89452   0.634  10.292  10.963 -0.1222  0.2016  1.5722
  663MOL0     H89453   0.698  10.326  11.121  0.3496 -0.1309 -0.1504
  663MOL0     H89454   0.750  10.556  11.029  3.0543 -3.8504 -0.2641
  663MOL0     H89455   0.571  10.517  11.015  0.4467  1.0010  2.1597
  663MOL0     H89456   0.890  10.613  10.802  1.1986 -2.5842  0.2654
  663MOL0     H89457   0.778  10.651  10.450  0.7337  3.1591 -0.2985
  663MOL0     H89458   0.859  10.732  10.570 -0.2213  0.1424 -3.0572
  663MOL0     H89459   1.021  10.544  10.597 -1.8554  0.7749  0.8348
  663MOL0     H89460   1.008  10.602  10.429 -0.7127 -0.0074 -0.1509
  663MOL0     H89461   0.895  10.436  10.346 -2.0209 -0.6511  1.0729
  663MOL0     H89462   0.859  10.363  10.508 -1.5674  0.2867 -0.9825
  663MOL0     H89463   1.142  10.416  10.390  2.0346 -1.1813  1.6767
  663MOL0     H89464   1.042  10.285  10.328 -0.4547  1.7669 -1.7440
  663MOL0     H89465   1.235  10.182  10.315 -1.5949 -0.3962  0.9409
  663MOL0     H89466   1.591  10.090  10.294  0.1407 -1.2033 -0.0384
  663MOL0     H89467   1.483   9.948  10.284  1.8874 -0.2866 -2.2904
  663MOL0     H89468   1.436  10.108  10.219 -0.5591  1.1363  1.3443
  663MOL0     H89469   1.644   9.743  10.736  0.4309 -2.7919  3.7293
  663MOL0     H89470   1.810   9.613  10.846 -2.8766  0.7261 -1.0306
  663MOL0     H89471   2.201   9.835  10.970  0.2825 -1.4399 -2.1631
  663MOL0     H89472   2.083   9.805  11.113  0.0219  0.3388 -0.3724
  663MOL0     H89473   2.306   9.624  11.019 -2.3963  2.2746 -1.8610
  663MOL0     H89474   2.304   9.719  11.166 -1.0548 -1.0007  0.8524
  663MOL0     H89475   2.089   9.521  11.113  2.2486 -1.7544 -0.0447
  663MOL0     H89476   2.132   9.610  11.265  0.5946 -0.6896  0.9063
  663MOL0     H89477   2.216   9.381  11.281 -0.7372  1.2484  2.0341
  663MOL0     H89478   2.296   9.393  11.120 -3.0919  1.3036 -1.0895
  663MOL0     H89479   2.357   9.583  11.361  0.7305  0.0382 -0.4472
  663MOL0     H89480   2.458   9.560  11.219  0.2921 -1.2673 -1.6732
  663MOL0     H89481   2.394   9.404  11.465  0.0668  1.0245  1.1565
  663MOL0     H89482   2.458   9.312  11.324 -2.3000  0.5185 -1.5391
  663MOL0     H89483   2.623   9.360  11.509 -0.0038 -0.3175 -0.6555
  663MOL0     H89484   2.594   9.530  11.503  4.8325 -1.3278  1.2836
  663MOL0     H89485   2.728   9.396  11.271  0.6687  0.2215 -0.8197
  663MOL0     H89486   2.813   9.457  11.416 -0.6416 -1.9925  0.2294
  663MOL0     H89487   2.043   9.982  10.905 -1.3633  1.9909 -0.3078
  663MOL0     H89488   1.861  10.110  10.815 -4.5310  0.2790 -1.7215
  663MOL0     H89489   1.415  10.092  10.777 -0.0101  0.5186  0.7579
  663MOL0     H89490   1.213  10.195  10.737  1.0281 -0.3839  0.6434
  663MOL0     H89491   1.482  10.408  10.531  2.8743 -0.7819 -1.6706
  663MOL0     H89492   1.679  10.256  10.558  0.9469  1.1084 -1.1477
  663MOL0     H89493   1.999  10.112  10.535 -1.3004  1.2801  3.3209
  663MOL0     H89494   2.178   9.962  10.454 -0.6251  1.2880 -3.0267
  663MOL0     H89495   2.362   9.855  10.400  0.1500  0.0109  1.9522
  663MOL0     H89496   2.385   9.993  10.294 -0.3029  0.2321  2.0670
  663MOL0     H89497   2.525   9.813  10.240 -1.5851  1.3240  0.5606
  663MOL0     H89498   2.586   9.797  10.421 -2.3551 -0.1068  1.3962
  663MOL0     H89499   2.693  10.009  10.403  2.8752  1.4996 -1.5968
  663MOL0     H89500   2.629  10.029  10.237 -2.7683 -2.1533  0.0180
  663MOL0     H89501   2.772   9.847  10.160 -1.5376 -3.0913  1.9524
  663MOL0     H89502   2.836   9.815  10.317  3.1597 -0.9837 -2.8633
  663MOL0     H89503   3.038  10.176  10.218 -0.7842 -1.4544 -1.1849
  663MOL0     H89504   2.462  10.216  10.641 -0.9995 -0.4107  2.7576
  663MOL0     H89505   2.279  10.347  10.736  0.1322  0.1969 -1.1928
  664MOL0     O89506   3.828  11.127   7.980  0.1623 -0.3838  0.0136
  664MOL0     C89507   3.861  11.206   8.069 -0.0492  0.5986 -1.1642
  664MOL0     O89508   3.795  11.209   8.193 -0.4705  0.5204 -0.1504
  664MOL0     C89509   3.697  11.110   8.210  0.4473  0.4175 -0.7663
  664MOL0     C89510   3.726  10.979   8.226  0.4539 -0.2916  0.4482
  664MOL0     C89511   3.633  10.874   8.243  1.0361 -0.3315  0.0366
  664MOL0     C89512   3.500  10.913   8.261  0.6915  0.8195 -0.3339
  664MOL0     O89513   3.418  10.803   8.271  0.1735 -0.4668  0.1044
  664MOL0     C89514   3.275  10.808   8.301 -0.6265 -0.3853  0.1024
  664MOL0     C89515   3.236  10.829   8.455  0.2018 -0.6429  0.4697
  664MOL0     C89516   3.311  10.741   8.542 -0.2080  0.4796  0.5361
  664MOL0     C89517   3.407  10.809   8.627 -0.3663  0.0779 -0.5324
  664MOL0     C89518   3.471  10.728   8.739  0.0084 -0.1907  0.1996
  664MOL0     C89519   3.549  10.611   8.689 -1.3309  1.1751 -0.0840
  664MOL0     C89520   3.595  10.510   8.797 -0.3334 -0.5854 -0.9434
  664MOL0     C89521   3.684  10.565   8.912  0.4934  0.7470  0.0764
  664MOL0     N89522   3.601  10.627   9.015  0.4071  0.1110 -0.3986
  664MOL0     C89523   3.575  10.754   9.061 -0.1694 -0.6790  0.6230
  664MOL0     C89524   3.492  10.735   9.160  0.8608  0.2458  0.3199
  664MOL0     C89525   3.423  10.845   9.239 -0.0225  0.2810  0.1069
  664MOL0     C89526   3.449  10.834   9.392  0.0542 -1.1645  0.2316
  664MOL0     C89527   3.422  10.955   9.486 -0.6862  0.4613  0.2575
  664MOL0     C89528   3.280  11.002   9.483 -0.7344  1.4924  1.1843
  664MOL0     O89529   3.269  11.100   9.586 -0.0420  0.1135 -0.0830
  664MOL0     C89530   3.147  11.128   9.646  1.0229 -0.7402 -0.1171
  664MOL0     C89531   3.160  11.216   9.752  0.8245  0.3332 -0.5339
  664MOL0     C89532   3.052  11.248   9.837 -0.9840 -0.6214 -0.5312
  664MOL0     C89533   3.081  11.340   9.949  0.9606  0.3260  0.2116
  664MOL0     C89534   2.928  11.189   9.810 -0.7028 -0.2439 -0.6300
  664MOL0     C89535   2.797  11.225   9.879  0.1029  0.6151 -0.0259
  664MOL0     O89536   2.685  11.192   9.815  0.2852  0.4625  0.6683
  664MOL0     C89537   2.566  11.235   9.865 -0.2123  0.7719 -0.1769
  664MOL0     C89538   2.460  11.142   9.878 -0.6444 -0.1942  0.0467
  664MOL0     C89539   2.340  11.192   9.933 -0.0433  0.0292  0.4319
  664MOL0     C89540   2.320  11.329   9.952 -0.1624 -0.1997  0.5392
  664MOL0     O89541   2.196  11.371   9.981 -0.3070  0.3301 -0.1411
  664MOL0     C89542   2.181  11.484  10.071 -0.2660  0.1171  1.0903
  664MOL0     C89543   2.029  11.495  10.098 -0.3515 -0.2063  0.1608
  664MOL0     C89544   1.946  11.570   9.991 -0.1241  0.9470  0.5287
  664MOL0     C89545   2.007  11.698   9.939  1.3567 -0.1903  0.0839
  664MOL0     C89546   1.900  11.776   9.851 -0.4757  0.2121  0.8789
  664MOL0     C89547   1.855  11.702   9.722  1.0800 -0.8099 -0.6734
  664MOL0     C89548   1.745  11.773   9.642 -0.0940 -0.1359 -0.4955
  664MOL0     C89549   1.699  11.676   9.527 -0.5669 -0.6588  0.7327
  664MOL0    Cl89550   1.585  11.779   9.420 -0.0021 -0.0939  0.2129
  664MOL0     C89551   2.428  11.422   9.925  0.5294 -0.5638 -0.4706
  664MOL0     C89552   2.547  11.368   9.890  0.0908 -0.0680 -0.4977
  664MOL0     O89553   2.797  11.278   9.990  0.6982  0.6616  0.2198
  664MOL0     C89554   2.918  11.107   9.698  0.0436 -0.3931 -0.5915
  664MOL0     C89555   3.025  11.079   9.614  0.5700 -0.5388  0.2480
  664MOL0     N89556   3.457  10.602   9.173 -0.2702 -0.1457 -0.2753
  664MOL0     N89557   3.526  10.544   9.088  0.1052  0.6277  0.3702
  664MOL0     C89558   3.455  11.050   8.243 -0.0329  0.3386 -0.3603
  664MOL0     C89559   3.564  11.141   8.212  0.5338 -0.0726 -1.3136
  664MOL0     C89560   3.964  11.310   8.040 -0.3448 -0.0171  0.4946
  664MOL0     C89561   4.026  11.320   7.905  0.2687 -0.6864  0.6356
  664MOL0     C89562   4.110  11.426   7.880  0.5718 -0.0792 -0.2303
  664MOL0     C89563   4.132  11.519   7.984  0.3296  0.1839 -0.3250
  664MOL0     O89564   4.205  11.627   7.954 -0.5392  0.4783 -0.2903
  664MOL0     C89565   4.152  11.736   7.874 -0.5710 -0.7930  0.2002
  664MOL0     C89566   4.116  11.855   7.955  0.0256 -0.6758 -0.4508
  664MOL0     C89567   4.250  11.924   7.991  0.3965 -0.0884 -0.2604
  664MOL0     C89568   4.302  12.030   7.894 -0.1092  0.2436  0.5257
  664MOL0     C89569   4.436  12.080   7.936 -0.1987  0.6205  0.0920
  664MOL0     C89570   4.550  12.116   7.965 -0.2987 -0.0508  0.1758
  664MOL0     C89571   4.065  11.513   8.108  0.8042  0.8794  0.3662
  664MOL0     C89572   3.979  11.411   8.137 -0.4672 -0.0922  0.5627
  664MOL0     H89573   3.829  10.946   8.214 -0.1490 -1.9909 -0.4060
  664MOL0     H89574   3.665  10.771   8.247 -1.1166 -1.0176  0.9828
  664MOL0     H89575   3.227  10.883   8.238  1.2683 -1.1925 -2.4292
  664MOL0     H89576   3.237  10.708   8.277 -0.3297 -0.1581 -1.3789
  664MOL0     H89577   3.258  10.932   8.486 -1.5200  0.2557 -1.0885
  664MOL0     H89578   3.128  10.817   8.468 -0.4892  1.6987 -2.0310
  664MOL0     H89579   3.243  10.681   8.603  0.2284  0.1637  0.7219
  664MOL0     H89580   3.367  10.665   8.486  0.1926 -1.2305  3.0792
  664MOL0     H89581   3.495  10.838   8.568 -0.8144 -1.8871 -2.2935
  664MOL0     H89582   3.363  10.893   8.681 -0.5447 -1.2329  1.4686
  664MOL0     H89583   3.533  10.790   8.803 -0.0857 -2.2759  2.4606
  664MOL0     H89584   3.392  10.702   8.810  0.2500  0.1348  0.5910
  664MOL0     H89585   3.487  10.562   8.614 -1.2065  0.2657  0.4026
  664MOL0     H89586   3.643  10.648   8.649  0.4617 -2.0655  0.8057
  664MOL0     H89587   3.508  10.468   8.848 -0.5058 -1.2117 -1.7376
  664MOL0     H89588   3.662  10.441   8.745  3.7754  1.0324  1.6808
  664MOL0     H89589   3.762  10.632   8.875  0.9710  0.3171  0.2851
  664MOL0     H89590   3.739  10.478   8.952 -0.4905  1.0525  2.2469
  664MOL0     H89591   3.622  10.847   9.029 -2.6358  0.4213 -0.0460
  664MOL0     H89592   3.475  10.937   9.213  4.0473  0.4226  6.5148
  664MOL0     H89593   3.318  10.838   9.210  0.6084 -3.0716 -1.8098
  664MOL0     H89594   3.553  10.805   9.411  0.3681  1.0013  2.2768
  664MOL0     H89595   3.394  10.749   9.432  0.0206 -2.0308 -1.5448
  664MOL0     H89596   3.491  11.033   9.453  0.8431  1.6112  5.4211
  664MOL0     H89597   3.452  10.936   9.589  1.0375  2.5992  0.2090
  664MOL0     H89598   3.221  10.909   9.491 -0.4569  0.8194 -2.6579
  664MOL0     H89599   3.251  11.032   9.382 -0.1373  2.7048  1.3598
  664MOL0     H89600   3.263  11.243   9.774  1.6709 -0.1993 -3.4010
  664MOL0     H89601   3.024  11.433   9.940  1.3559  0.3522 -3.1016
  664MOL0     H89602   3.064  11.289  10.044  0.8242 -0.2554 -0.1211
  664MOL0     H89603   3.190  11.351   9.942  1.0555 -1.3969 -2.0280
  664MOL0     H89604   2.466  11.039   9.846  3.6624  0.3091 -1.3841
  664MOL0     H89605   2.267  11.115   9.958 -1.1372  1.4761  1.9106
  664MOL0     H89606   2.234  11.464  10.165  0.3184  0.0117  0.7496
  664MOL0     H89607   2.234  11.566  10.021  1.4879 -1.3635  0.3946
  664MOL0     H89608   1.983  11.397  10.114 -0.6818  0.1552  1.4845
  664MOL0     H89609   2.010  11.560  10.183  0.0162  1.0440 -0.6874
  664MOL0     H89610   1.847  11.605  10.025 -1.3162  0.8015 -2.4742
  664MOL0     H89611   1.922  11.496   9.915  5.5680 -0.2373 -0.5483
  664MOL0     H89612   2.044  11.757  10.023  2.4845 -0.8145  0.0401
  664MOL0     H89613   2.094  11.683   9.874  0.7284  0.6393 -1.0071
  664MOL0     H89614   1.939  11.874   9.821  0.2604  0.6332  3.0505
  664MOL0     H89615   1.806  11.798   9.904 -0.8488  4.7816 -1.1432
  664MOL0     H89616   1.943  11.683   9.659 -0.4119 -0.0755 -3.1216
  664MOL0     H89617   1.806  11.611   9.757  0.7539 -0.7198 -0.8914
  664MOL0     H89618   1.786  11.867   9.604  0.2045 -0.1866 -0.3079
  664MOL0     H89619   1.664  11.816   9.700 -0.1576  2.7478 -2.4963
  664MOL0     H89620   1.638  11.590   9.556 -2.6609  0.4633 -0.1311
  664MOL0     H89621   1.787  11.644   9.470 -1.2660 -0.1974 -0.6427
  664MOL0     H89622   2.425  11.530   9.938  1.0484 -0.7966  2.0908
  664MOL0     H89623   2.630  11.437   9.873 -0.8393  1.2637  0.1965
  664MOL0     H89624   2.824  11.065   9.663  0.3147  0.7400 -2.8603
  664MOL0     H89625   3.024  11.017   9.524  2.8718  2.2167 -1.8618
  664MOL0     H89626   3.347  11.061   8.235 -0.0459  0.8442  0.4755
  664MOL0     H89627   3.544  11.242   8.179  1.7268  0.2812 -1.0221
  664MOL0     H89628   4.001  11.244   7.833  0.4301 -0.8999  0.8023
  664MOL0     H89629   4.162  11.435   7.785  0.3481  4.3745 -0.1493
  664MOL0     H89630   4.230  11.750   7.799 -0.3956 -0.9493  0.3518
  664MOL0     H89631   4.052  11.723   7.831 -1.3431 -0.1922  1.7163
  664MOL0     H89632   4.051  11.824   8.037  0.5687  2.1371  1.1821
  664MOL0     H89633   4.050  11.913   7.889  0.2449  0.1658  0.0465
  664MOL0     H89634   4.327  11.846   7.994  1.4414  0.7866 -2.2267
  664MOL0     H89635   4.228  11.971   8.087  2.0664  0.8673 -0.3195
  664MOL0     H89636   4.229  12.110   7.909 -1.5412 -0.7867 -0.6845
  664MOL0     H89637   4.302  12.000   7.788  0.0215  2.1245 -0.0518
  664MOL0     H89638   4.647  12.154   7.989 -0.3967  0.6138 -0.4521
  664MOL0     H89639   4.086  11.584   8.188 -2.2048 -1.7663  3.8500
  664MOL0     H89640   3.931  11.397   8.234  4.7262 -1.3308  3.3092
  665MOL0     O89641   5.325   9.500   2.604 -0.5366 -0.0132  0.2007
  665MOL0     C89642   5.399   9.538   2.518 -0.1705  0.3151  0.7526
  665MOL0     O89643   5.359   9.604   2.405 -0.4155  0.1933  0.0851
  665MOL0     C89644   5.229   9.614   2.367  0.0241  0.5136  0.0170
  665MOL0     C89645   5.184   9.742   2.355  0.2516  1.4892  0.5496
  665MOL0     C89646   5.058   9.765   2.314 -0.6186  0.3128  0.4794
  665MOL0     C89647   4.959   9.663   2.309 -0.8650 -0.4361  0.3385
  665MOL0     O89648   4.828   9.701   2.288 -0.4174  0.0918 -0.2759
  665MOL0     C89649   4.732   9.596   2.292  0.6123 -0.8713  0.5208
  665MOL0     C89650   4.580   9.649   2.307 -0.3278 -0.3987  0.0306
  665MOL0     C89651   4.554   9.771   2.219 -0.5001  0.4212  0.4365
  665MOL0     C89652   4.404   9.790   2.208  0.6665 -0.2791  0.2866
  665MOL0     C89653   4.364   9.888   2.093 -1.0050  0.2967 -0.3191
  665MOL0     C89654   4.208   9.879   2.074 -0.3177 -0.2955 -0.1054
  665MOL0     C89655   4.157   9.958   1.948 -0.4789 -0.0608 -0.2923
  665MOL0     C89656   4.002   9.972   1.943 -0.1485 -0.0013 -0.1386
  665MOL0     N89657   3.927   9.843   1.953 -0.0839 -0.3975  0.8086
  665MOL0     C89658   3.978   9.719   1.921 -0.3869  0.4574  0.3464
  665MOL0     C89659   3.870   9.634   1.937 -0.4347 -0.3805 -0.5869
  665MOL0     C89660   3.883   9.491   1.913 -0.5885  0.3508  0.7245
  665MOL0     C89661   3.858   9.445   1.765  0.4709  0.0428  0.3796
  665MOL0     C89662   3.826   9.301   1.750  0.5459  0.8467 -0.7961
  665MOL0     C89663   3.689   9.259   1.811  0.6177 -1.0571  0.5713
  665MOL0     O89664   3.665   9.118   1.802 -0.2459 -0.5341 -0.1639
  665MOL0     C89665   3.628   9.057   1.685 -0.3201 -0.1243  0.0133
  665MOL0     C89666   3.628   8.919   1.677  0.1290 -0.6388 -0.5044
  665MOL0     C89667   3.574   8.841   1.572 -0.1313  1.0710  0.5310
  665MOL0     C89668   3.579   8.685   1.580 -0.4434  0.0810 -0.8478
  665MOL0     C89669   3.535   8.914   1.460 -0.2333  0.3048  0.2423
  665MOL0     C89670   3.494   8.862   1.332  0.1496  0.3147  0.2770
  665MOL0     O89671   3.488   8.938   1.215  0.1133 -0.0436  0.0494
  665MOL0     C89672   3.460   8.878   1.093  1.0577  0.6818 -0.1252
  665MOL0     C89673   3.536   8.775   1.044  0.5810  0.2613 -0.1383
  665MOL0     C89674   3.514   8.718   0.923 -0.6961 -0.3217 -0.0423
  665MOL0     C89675   3.423   8.782   0.831  0.3629  0.0356 -0.0411
  665MOL0     O89676   3.392   8.744   0.708  0.6069 -0.4240  0.4739
  665MOL0     C89677   3.399   8.604   0.671 -0.6859 -0.1072 -0.7925
  665MOL0     C89678   3.318   8.579   0.542 -1.1694  0.2910  0.2471
  665MOL0     C89679   3.178   8.533   0.585 -0.0407 -0.3366  0.8751
  665MOL0     C89680   3.090   8.488   0.470  0.5275  0.0194 -0.7093
  665MOL0     C89681   3.047   8.608   0.384 -0.3682 -0.0759  0.6529
  665MOL0     C89682   2.993   8.563   0.247 -0.3541  0.2363 -0.2135
  665MOL0     C89683   2.886   8.451   0.243 -0.1035 -0.1289  1.3952
  665MOL0     C89684   2.752   8.526   0.284 -0.1732  0.2112 -0.3366
  665MOL0    Cl89685   2.700   8.629   0.153  0.1301  0.0560 -0.1981
  665MOL0     C89686   3.353   8.894   0.875 -0.5868 -0.6493 -0.4806
  665MOL0     C89687   3.369   8.936   0.998 -0.0937 -0.4477  0.1850
  665MOL0     O89688   3.451   8.746   1.337  0.8608 -0.6774  0.3715
  665MOL0     C89689   3.538   9.056   1.464  0.4233 -0.5195 -0.4611
  665MOL0     C89690   3.570   9.133   1.579  0.7985  0.3049  0.3768
  665MOL0     N89691   3.767   9.708   1.992 -0.3346  0.1500 -0.0277
  665MOL0     N89692   3.801   9.828   2.010  0.5141  0.3243  0.6690
  665MOL0     C89693   5.011   9.528   2.310  0.3721 -0.8152 -0.4520
  665MOL0     C89694   5.141   9.509   2.342  0.9971  0.6169 -0.3127
  665MOL0     C89695   5.545   9.523   2.526  0.0221  0.4324 -0.6149
  665MOL0     C89696   5.633   9.563   2.422 -0.1814  0.0619 -0.1195
  665MOL0     C89697   5.772   9.537   2.432 -0.1484  0.0248 -0.1553
  665MOL0     C89698   5.832   9.483   2.544 -0.0083  0.4434 -0.0084
  665MOL0     O89699   5.968   9.462   2.556 -0.1557  0.2423 -0.0545
  665MOL0     C89700   6.062   9.570   2.520  0.6238  0.4651 -0.3810
  665MOL0     C89701   6.194   9.503   2.478 -0.1696  0.0756  0.1757
  665MOL0     C89702   6.305   9.601   2.433 -0.0368  0.3217  0.8509
  665MOL0     C89703   6.454   9.549   2.445  0.7248  0.1102 -0.0778
  665MOL0     C89704   6.500   9.529   2.578  0.5624 -0.1738 -0.9405
  665MOL0     C89705   6.525   9.527   2.699 -0.1066 -0.1302  0.4169
  665MOL0     C89706   5.742   9.437   2.642 -0.5818 -0.4510  0.0527
  665MOL0     C89707   5.602   9.452   2.627  0.1027 -0.3508  0.2656
  665MOL0     H89708   5.240   9.835   2.353 -1.6984  2.7190 -1.1764
  665MOL0     H89709   5.037   9.870   2.295 -1.4747 -0.5116 -4.9877
  665MOL0     H89710   4.732   9.555   2.191  1.8068 -2.3695  1.0985
  665MOL0     H89711   4.764   9.510   2.352  1.1717 -1.9690 -1.2880
  665MOL0     H89712   4.512   9.566   2.288 -0.4246 -0.0827 -1.0745
  665MOL0     H89713   4.575   9.682   2.410  2.4548  2.0954 -0.4880
  665MOL0     H89714   4.615   9.853   2.260  0.3323  0.3972 -0.6834
  665MOL0     H89715   4.596   9.769   2.118 -0.0283  0.9717  0.6121
  665MOL0     H89716   4.352   9.694   2.198  1.8663 -1.0228  0.8832
  665MOL0     H89717   4.372   9.828   2.305  1.1860 -1.1751  0.8293
  665MOL0     H89718   4.385   9.991   2.125  3.0818 -0.4275 -0.2426
  665MOL0     H89719   4.427   9.874   2.005  1.4790  2.0310  1.0614
  665MOL0     H89720   4.177   9.774   2.069 -2.1030  0.0088  2.5103
  665MOL0     H89721   4.158   9.927   2.159 -0.3146 -1.9076  0.8441
  665MOL0     H89722   4.208  10.054   1.945  2.2007 -1.3914 -0.0142
  665MOL0     H89723   4.189   9.903   1.859  0.3245  1.4112 -0.9377
  665MOL0     H89724   3.965  10.008   1.847 -2.4689  1.3055  1.1603
  665MOL0     H89725   3.954  10.041   2.013 -2.6228  2.1436 -3.6105
  665MOL0     H89726   4.079   9.704   1.886  1.1145  2.0624  3.5442
  665MOL0     H89727   3.978   9.457   1.953 -0.0693 -0.4651 -1.1070
  665MOL0     H89728   3.806   9.438   1.970 -2.4076 -0.1228 -2.0025
  665MOL0     H89729   3.937   9.471   1.694 -0.4950  2.2533  0.0247
  665MOL0     H89730   3.768   9.503   1.740  0.8620 -0.1384 -1.5604
  665MOL0     H89731   3.905   9.239   1.792  0.8009  1.9529  0.3770
  665MOL0     H89732   3.827   9.281   1.642  1.9781 -0.3483 -0.5979
  665MOL0     H89733   3.606   9.316   1.769 -0.9784 -2.7317  1.2917
  665MOL0     H89734   3.697   9.280   1.918  1.3744 -1.1808  0.5481
  665MOL0     H89735   3.663   8.877   1.770  0.1062  1.3667  0.4811
  665MOL0     H89736   3.488   8.637   1.543  0.6153 -1.3749 -1.6341
  665MOL0     H89737   3.663   8.654   1.518 -1.4318 -0.7500 -1.8043
  665MOL0     H89738   3.596   8.662   1.686 -0.6300 -1.2608 -1.0976
  665MOL0     H89739   3.616   8.748   1.112  2.7860  0.8336 -2.3408
  665MOL0     H89740   3.568   8.632   0.884  0.0757  0.9414 -1.9178
  665MOL0     H89741   3.504   8.576   0.661 -0.9298 -0.7688 -1.6478
  665MOL0     H89742   3.355   8.545   0.751 -1.1269  0.6116 -0.4979
  665MOL0     H89743   3.315   8.673   0.486 -2.2710  0.0546 -0.1088
  665MOL0     H89744   3.373   8.499   0.491  0.3661  0.6152  1.3163
  665MOL0     H89745   3.131   8.613   0.644  0.3029  0.5290  0.0074
  665MOL0     H89746   3.200   8.453   0.657  1.8775  0.7033  1.5341
  665MOL0     H89747   3.143   8.413   0.410 -0.5988 -0.8633 -0.6391
  665MOL0     H89748   2.998   8.441   0.507  0.2437 -0.6779 -2.2300
  665MOL0     H89749   3.137   8.663   0.358 -1.5987  0.7785 -2.1121
  665MOL0     H89750   2.979   8.674   0.439  0.0838  0.6621  0.3303
  665MOL0     H89751   2.962   8.654   0.194 -2.8700 -1.6892 -2.3085
  665MOL0     H89752   3.089   8.532   0.205  1.8540  1.3039  3.5898
  665MOL0     H89753   2.916   8.371   0.311 -0.7390 -1.0886  0.5714
  665MOL0     H89754   2.864   8.413   0.143  2.2031  1.4157  0.2016
  665MOL0     H89755   2.769   8.577   0.379 -1.3599 -1.0510  0.5841
  665MOL0     H89756   2.673   8.456   0.311 -1.5551  2.0216  0.5179
  665MOL0     H89757   3.277   8.939   0.812 -0.9765 -0.5230  0.0695
  665MOL0     H89758   3.310   9.021   1.031 -0.0246  0.5653 -2.1517
  665MOL0     H89759   3.504   9.119   1.382  2.6971 -0.2603 -1.2745
  665MOL0     H89760   3.539   9.236   1.574  0.8749  0.2931 -0.4069
  665MOL0     H89761   4.960   9.432   2.305 -0.9198 -0.1164 -1.4221
  665MOL0     H89762   5.170   9.404   2.345 -0.7791  0.0737 -0.9403
  665MOL0     H89763   5.603   9.623   2.336 -1.6961  2.0822  1.6894
  665MOL0     H89764   5.833   9.572   2.350 -0.1286  3.1282  1.0644
  665MOL0     H89765   6.020   9.638   2.445 -0.7268 -0.1648 -0.2375
  665MOL0     H89766   6.074   9.626   2.613 -2.4616 -0.9748  1.0358
  665MOL0     H89767   6.182   9.439   2.390  0.7624  1.0758 -0.7044
  665MOL0     H89768   6.234   9.444   2.561  0.9106 -0.9145 -1.0008
  665MOL0     H89769   6.293   9.675   2.513  0.7642  2.6013 -1.0290
  665MOL0     H89770   6.290   9.648   2.336  0.8390  1.8482  1.4195
  665MOL0     H89771   6.512   9.630   2.399  0.6496  1.1322  1.5418
  665MOL0     H89772   6.472   9.454   2.394 -1.6278  0.0186 -0.8423
  665MOL0     H89773   6.545   9.518   2.804  0.3091  0.8780  0.4329
  665MOL0     H89774   5.781   9.391   2.731 -2.5686  0.2385  1.3692
  665MOL0     H89775   5.542   9.419   2.711  0.1793 -0.4171  0.2945
  666MOL0     O89776   0.469  10.267   5.753 -0.4256 -0.3385 -0.4268
  666MOL0     C89777   0.465  10.163   5.685 -0.5764 -0.8153  0.1539
  666MOL0     O89778   0.352  10.120   5.620  0.4213 -0.2134 -0.1485
  666MOL0     C89779   0.230  10.191   5.637  0.1854 -1.4255  0.0640
  666MOL0     C89780   0.135  10.162   5.538  0.3891 -0.4618 -0.6189
  666MOL0     C89781   0.007  10.223   5.534  0.2810 -0.0899  0.3347
  666MOL0     C89782  -0.033  10.312   5.635 -0.4617 -0.5273  0.6198
  666MOL0     O89783  -0.169  10.348   5.629 -0.6350  0.2115  0.3799
  666MOL0     C89784  -0.184  10.487   5.670  0.4301 -0.4673  0.0318
  666MOL0     C89785  -0.262  10.551   5.552  0.2787  0.2084 -0.1826
  666MOL0     C89786  -0.401  10.498   5.530  0.2689  0.0883  0.1980
  666MOL0     C89787  -0.470  10.589   5.426  0.2693 -0.8019  0.1007
  666MOL0     C89788  -0.608  10.531   5.385  0.1272  0.6797  0.5415
  666MOL0     C89789  -0.703  10.551   5.505 -0.2579  0.0422  0.1014
  666MOL0     C89790  -0.854  10.540   5.465  0.4003  0.8507  0.2507
  666MOL0     C89791  -0.901  10.389   5.490  1.1438  0.0991 -1.0633
  666MOL0     N89792  -1.043  10.357   5.450 -0.6219  0.6445 -0.5092
  666MOL0     C89793  -1.156  10.431   5.486  0.1226  0.5240  0.1812
  666MOL0     C89794  -1.255  10.356   5.429  0.1061  0.1291  0.6595
  666MOL0     C89795  -1.402  10.391   5.426  0.2792 -0.4686 -0.4211
  666MOL0     C89796  -1.434  10.540   5.427  0.3433 -0.2405  0.2100
  666MOL0     C89797  -1.556  10.581   5.344  0.5222  0.0997 -0.1698
  666MOL0     C89798  -1.686  10.506   5.380  0.5880  0.9547  0.3292
  666MOL0     O89799  -1.738  10.554   5.512 -0.6165 -0.0131 -0.2949
  666MOL0     C89800  -1.856  10.494   5.561  0.0762 -0.1997  1.0489
  666MOL0     C89801  -1.952  10.425   5.487 -1.0731  0.1438 -0.1486
  666MOL0     C89802  -2.074  10.392   5.537  0.6340 -1.2076 -0.7105
  666MOL0     C89803  -2.178  10.330   5.441 -0.0804  0.2770 -0.2042
  666MOL0     C89804  -2.112  10.433   5.665  0.3272  0.2743 -0.8135
  666MOL0     C89805  -2.247  10.415   5.737  0.8403 -0.9226  0.0264
  666MOL0     O89806  -2.259  10.450   5.861  0.8172  0.5380  0.1306
  666MOL0     C89807  -2.382  10.433   5.923  0.0605 -0.6333  0.5191
  666MOL0     C89808  -2.388  10.334   6.026  0.8155  0.7522  0.0964
  666MOL0     C89809  -2.512  10.305   6.090  0.6021 -0.2743  0.0191
  666MOL0     C89810  -2.628  10.377   6.056  0.0829 -0.2593 -0.2082
  666MOL0     O89811  -2.747  10.353   6.126  0.5608  0.3719  0.6253
  666MOL0     C89812  -2.864  10.419   6.102  0.1051 -0.2147  0.6621
  666MOL0     C89813  -2.985  10.364   6.172 -0.0964 -0.9119 -0.4328
  666MOL0     C89814  -3.103  10.472   6.170  0.3861  0.5475 -0.1708
  666MOL0     C89815  -3.212  10.448   6.268 -0.0304 -0.2058 -0.4099
  666MOL0     C89816  -3.329  10.552   6.240  0.1900 -0.2136 -0.9336
  666MOL0     C89817  -3.446  10.543   6.351 -0.5711  0.7654 -0.6460
  666MOL0     C89818  -3.555  10.643   6.321  0.1480 -0.1651 -0.4714
  666MOL0     C89819  -3.649  10.661   6.438 -0.4595 -0.2094 -0.4311
  666MOL0    Cl89820  -3.559  10.745   6.577  0.4341 -0.2505  0.0121
  666MOL0     C89821  -2.615  10.480   5.963  0.0939 -0.7097  0.0336
  666MOL0     C89822  -2.498  10.506   5.893 -0.7464  0.8164 -0.8383
  666MOL0     O89823  -2.341  10.401   5.661 -0.2878  0.2057 -0.0670
  666MOL0     C89824  -2.015  10.493   5.744 -0.1784  0.4422 -0.0551
  666MOL0     C89825  -1.897  10.532   5.686  0.0745 -1.2859  0.1249
  666MOL0     N89826  -1.199  10.243   5.371 -0.1951  0.2369 -0.0505
  666MOL0     N89827  -1.076  10.255   5.364  0.6357 -0.4698 -0.6279
  666MOL0     C89828   0.058  10.355   5.725 -0.2829  1.0469 -0.8265
  666MOL0     C89829   0.187  10.292   5.728 -0.6152 -0.3957  0.2928
  666MOL0     C89830   0.587  10.098   5.643 -0.4184  0.0200 -0.6901
  666MOL0     C89831   0.704  10.089   5.723 -0.3098  0.0536 -1.1574
  666MOL0     C89832   0.820  10.020   5.679  0.1353  0.0334  0.7366
  666MOL0     C89833   0.824   9.976   5.548 -0.8377  0.3454  0.2544
  666MOL0     O89834   0.940   9.908   5.495  0.4956 -0.2794  0.0967
  666MOL0     C89835   1.065   9.890   5.568 -0.4051 -0.1421  1.4401
  666MOL0     C89836   1.175   9.838   5.477 -0.1142  0.5117  0.6622
  666MOL0     C89837   1.220   9.929   5.362 -0.0803  0.2079  0.2321
  666MOL0     C89838   1.204   9.876   5.223 -0.3100  0.2380  0.1006
  666MOL0     C89839   1.065   9.828   5.201 -0.5041  0.4268 -0.2881
  666MOL0     C89840   0.943   9.824   5.170  0.5533  0.1348 -0.1484
  666MOL0     C89841   0.711   9.990   5.470  0.2252 -0.2326 -0.0212
  666MOL0     C89842   0.598  10.052   5.517 -0.0840  0.0097 -0.1805
  666MOL0     H89843   0.159  10.097   5.454  2.2468 -1.5998  0.7258
  666MOL0     H89844  -0.058  10.217   5.447  0.0510  0.5420  0.4523
  666MOL0     H89845  -0.252  10.497   5.755 -0.2481  1.5125 -0.6917
  666MOL0     H89846  -0.093  10.543   5.691  1.2206 -1.0616 -1.6309
  666MOL0     H89847  -0.253  10.659   5.567  2.6770 -0.0683  0.8513
  666MOL0     H89848  -0.201  10.543   5.462 -0.9068  2.0323 -1.2202
  666MOL0     H89849  -0.387  10.397   5.490  1.0725  0.2912 -0.0637
  666MOL0     H89850  -0.444  10.498   5.631  0.2931 -0.5831  0.2135
  666MOL0     H89851  -0.490  10.691   5.457 -2.1744 -0.5468 -2.0356
  666MOL0     H89852  -0.403  10.599   5.339 -1.4448 -0.0093 -1.1888
  666MOL0     H89853  -0.654  10.600   5.314  1.1744 -0.3462 -1.1975
  666MOL0     H89854  -0.604  10.425   5.357 -0.0899  0.0968  2.5205
  666MOL0     H89855  -0.682  10.480   5.585 -2.8206  1.5328  2.3000
  666MOL0     H89856  -0.679  10.643   5.558  3.1570  0.0828 -1.2391
  666MOL0     H89857  -0.911  10.613   5.523 -0.3753 -0.3703  1.0663
  666MOL0     H89858  -0.866  10.562   5.358  0.0536  2.0373  0.5187
  666MOL0     H89859  -0.903  10.367   5.597 -1.4514  1.2229 -0.7992
  666MOL0     H89860  -0.831  10.323   5.438 -0.3208 -3.2295  0.8793
  666MOL0     H89861  -1.142  10.525   5.538  0.4282 -0.2224  1.5060
  666MOL0     H89862  -1.444  10.351   5.333  1.4475  0.5744 -1.4302
  666MOL0     H89863  -1.438  10.326   5.507 -1.4259 -2.8564 -2.9164
  666MOL0     H89864  -1.356  10.577   5.360  1.0692 -1.5752  0.2821
  666MOL0     H89865  -1.423  10.597   5.520  5.4142  1.3405 -1.0617
  666MOL0     H89866  -1.557  10.554   5.238 -3.2729 -1.0526  0.0195
  666MOL0     H89867  -1.567  10.689   5.358 -2.2819 -0.1351  0.0848
  666MOL0     H89868  -1.673  10.398   5.373  1.9162  1.1356 -0.3105
  666MOL0     H89869  -1.766  10.532   5.311 -2.0033 -1.1959  2.3296
  666MOL0     H89870  -1.932  10.397   5.384  2.1528  0.2896  0.3278
  666MOL0     H89871  -2.215  10.236   5.483 -2.2745  2.9561  4.6075
  666MOL0     H89872  -2.270  10.389   5.431  0.3394  1.0868  0.5757
  666MOL0     H89873  -2.131  10.313   5.343  1.0019 -2.2039  0.6837
  666MOL0     H89874  -2.301  10.272   6.046  0.3564  0.1851  0.3501
  666MOL0     H89875  -2.515  10.228   6.166  0.0758  0.0874  0.3747
  666MOL0     H89876  -2.850  10.525   6.126 -1.0441  0.1498 -0.1745
  666MOL0     H89877  -2.883  10.411   5.995  0.9162  1.6862  0.3299
  666MOL0     H89878  -3.027  10.276   6.123 -2.4303 -0.1152  0.0229
  666MOL0     H89879  -2.956  10.343   6.276 -0.3389  1.7304  0.2208
  666MOL0     H89880  -3.131  10.492   6.067  1.0726 -1.6221 -0.8226
  666MOL0     H89881  -3.068  10.560   6.226  0.2473 -1.9155  4.3130
  666MOL0     H89882  -3.265  10.352   6.261 -5.8980  2.4329  1.7780
  666MOL0     H89883  -3.171  10.466   6.367  0.2364 -2.5996 -0.0279
  666MOL0     H89884  -3.369  10.545   6.138  1.4222 -0.2531 -1.4307
  666MOL0     H89885  -3.285  10.652   6.241  1.4757 -0.7678  0.4448
  666MOL0     H89886  -3.489  10.443   6.342 -0.1844  0.6162 -0.8507
  666MOL0     H89887  -3.388  10.556   6.443  2.4248 -2.6383 -1.7921
  666MOL0     H89888  -3.613  10.600   6.239 -0.6509 -2.4372  1.1857
  666MOL0     H89889  -3.516  10.740   6.288 -0.2284 -0.3278 -1.4260
  666MOL0     H89890  -3.678  10.561   6.473  0.3337  0.1512  1.3945
  666MOL0     H89891  -3.744  10.712   6.419 -0.1869  0.5322  0.1383
  666MOL0     H89892  -2.689  10.557   5.941  1.0610  0.2486  0.0081
  666MOL0     H89893  -2.490  10.588   5.823 -0.7147  1.4476 -0.1090
  666MOL0     H89894  -2.020  10.529   5.846  0.3551 -0.7206  0.3997
  666MOL0     H89895  -1.831  10.598   5.741  0.1664  0.9517 -2.4663
  666MOL0     H89896   0.025  10.416   5.808  1.0980  1.0251 -0.2234
  666MOL0     H89897   0.249  10.312   5.815  0.0423 -2.0699  0.2533
  666MOL0     H89898   0.705  10.123   5.826  1.4932  0.8055 -1.3905
  666MOL0     H89899   0.903   9.999   5.746 -0.2116 -3.5276  0.2354
  666MOL0     H89900   1.100   9.990   5.595 -1.0643  0.5522 -0.1395
  666MOL0     H89901   1.055   9.833   5.660  0.6741  1.8903  2.8894
  666MOL0     H89902   1.148   9.738   5.442  1.9799 -0.3291  1.3124
  666MOL0     H89903   1.263   9.816   5.539  0.1234 -0.2333  0.0754
  666MOL0     H89904   1.324   9.953   5.385 -1.1728  3.2433  2.8475
  666MOL0     H89905   1.179  10.030   5.375  0.7018  0.4174  1.2858
  666MOL0     H89906   1.275   9.794   5.208 -1.8948 -1.5582  1.8452
  666MOL0     H89907   1.228   9.950   5.146  1.4146 -0.7357 -0.3498
  666MOL0     H89908   0.845   9.839   5.129  0.7896  3.6551  0.2358
  666MOL0     H89909   0.717   9.943   5.372 -1.5704 -1.6648  0.4978
  666MOL0     H89910   0.511  10.052   5.451 -0.4010 -2.3377  0.1697
  667MOL0     O89911   8.554   9.059   9.781 -0.0489  1.1650  0.7747
  667MOL0     C89912   8.592   9.096   9.672  0.5844 -0.0113  0.2378
  667MOL0     O89913   8.510   9.085   9.555 -0.3776  0.3547 -0.1905
  667MOL0     C89914   8.375   9.066   9.550  0.1731  1.1665 -1.1200
  667MOL0     C89915   8.304   9.074   9.428 -0.6937  0.0799  1.2026
  667MOL0     C89916   8.168   9.083   9.412 -0.1110  0.1179 -0.1994
  667MOL0     C89917   8.087   9.081   9.530 -0.1369  0.4332 -0.0728
  667MOL0     O89918   7.955   9.062   9.542 -0.1410 -0.0321  0.2496
  667MOL0     C89919   7.894   9.006   9.430 -0.8147  0.0932  0.7528
  667MOL0     C89920   7.742   9.002   9.449  0.2093 -0.0353  0.1260
  667MOL0     C89921   7.691   8.895   9.548  0.1310 -0.6353 -0.2812
  667MOL0     C89922   7.540   8.864   9.526 -0.7779  0.6469 -0.7009
  667MOL0     C89923   7.467   8.985   9.575 -0.3778 -0.6552 -0.8329
  667MOL0     C89924   7.315   8.978   9.561 -1.0009 -0.2477 -0.6087
  667MOL0     C89925   7.249   9.068   9.675  0.0704 -0.9233 -0.1596
  667MOL0     C89926   7.093   9.035   9.687 -0.6287  0.0390 -0.4030
  667MOL0     N89927   7.071   8.906   9.754  0.4453 -1.5468 -0.0906
  667MOL0     C89928   7.092   8.881   9.886 -0.3462  0.0283 -0.3143
  667MOL0     C89929   7.104   8.747   9.889 -0.5518 -0.3489  0.1384
  667MOL0     C89930   7.153   8.673  10.008  0.1837  0.8800  0.3766
  667MOL0     C89931   7.299   8.717  10.054 -0.0787  0.5559  0.0461
  667MOL0     C89932   7.412   8.665   9.953  0.5171 -0.1605  0.0166
  667MOL0     C89933   7.545   8.748   9.975  0.5513  0.0565  0.1895
  667MOL0     O89934   7.639   8.699   9.880 -0.4641  0.3864  0.1190
  667MOL0     C89935   7.768   8.696   9.941 -0.4356 -0.1386  0.4425
  667MOL0     C89936   7.823   8.579  10.008  0.0231 -0.3361  0.8066
  667MOL0     C89937   7.954   8.584  10.063 -0.8422  0.5519 -0.1189
  667MOL0     C89938   7.992   8.458  10.137 -0.6771 -0.7016 -0.1252
  667MOL0     C89939   8.033   8.695  10.057  0.3215  0.5700  0.1507
  667MOL0     C89940   8.161   8.716  10.134 -0.2904  1.0106  0.3295
  667MOL0     O89941   8.221   8.834  10.127  0.1988 -0.4065  0.2480
  667MOL0     C89942   8.359   8.843  10.150  0.7206  0.1969 -0.1144
  667MOL0     C89943   8.438   8.884  10.045  0.4865 -1.1952  0.4390
  667MOL0     C89944   8.577   8.876  10.055  0.0429 -0.4056 -0.5107
  667MOL0     C89945   8.634   8.829  10.176 -0.2862 -0.1994 -0.0750
  667MOL0     O89946   8.776   8.823  10.186  0.0428 -0.6059  0.4854
  667MOL0     C89947   8.822   8.904  10.298  0.1090 -0.0833  0.4860
  667MOL0     C89948   8.974   8.927  10.288  0.0858 -0.2337  0.4689
  667MOL0     C89949   9.013   9.020  10.166  0.3311  0.4358  0.2808
  667MOL0     C89950   9.114   9.124  10.198  0.5626  0.5121  0.2788
  667MOL0     C89951   9.129   9.202  10.069  0.4589 -0.4582  0.4767
  667MOL0     C89952   9.237   9.304  10.095 -0.5841  0.1045  0.5736
  667MOL0     C89953   9.289   9.384   9.959  0.5346 -0.4258 -0.5225
  667MOL0     C89954   9.217   9.519   9.940  0.4088  0.3451  0.6367
  667MOL0    Cl89955   9.060   9.514   9.867  0.6569  0.1429  0.0900
  667MOL0     C89956   8.555   8.789  10.285 -0.0819 -0.1350  0.7406
  667MOL0     C89957   8.414   8.800  10.269 -0.1027 -1.0248  0.0816
  667MOL0     O89958   8.198   8.623  10.206 -0.3330  0.2483 -0.0872
  667MOL0     C89959   7.971   8.804   9.994 -0.4995 -0.6483 -0.0650
  667MOL0     C89960   7.848   8.808   9.933  0.1418 -0.8051 -0.1944
  667MOL0     N89961   7.075   8.698   9.772  0.8015  1.1295 -0.0616
  667MOL0     N89962   7.057   8.787   9.689  0.2350 -0.1761  0.5702
  667MOL0     C89963   8.148   9.070   9.650 -0.5339  0.9845 -0.7671
  667MOL0     C89964   8.287   9.066   9.658 -0.9799 -0.1009 -0.4819
  667MOL0     C89965   8.732   9.166   9.653  0.0516  0.6661 -0.1836
  667MOL0     C89966   8.765   9.244   9.546  0.3616 -0.4309 -0.0709
  667MOL0     C89967   8.891   9.302   9.546  0.9489  0.4808 -0.8832
  667MOL0     C89968   8.989   9.263   9.638  0.6201  0.0123  1.0914
  667MOL0     O89969   9.120   9.290   9.614 -0.0788 -0.8342 -0.0614
  667MOL0     C89970   9.147   9.394   9.515  0.2478  0.9999 -0.4533
  667MOL0     C89971   9.293   9.405   9.491  0.5670  0.2053 -0.4840
  667MOL0     C89972   9.377   9.478   9.598  0.6516  0.3815 -0.4310
  667MOL0     C89973   9.526   9.453   9.593 -0.5647 -0.4391  0.6298
  667MOL0     C89974   9.592   9.549   9.498  0.2584  0.1688 -0.0441
  667MOL0     C89975   9.645   9.628   9.425  1.1548 -0.5542  0.6468
  667MOL0     C89976   8.952   9.196   9.753 -0.2193 -0.8442 -0.0896
  667MOL0     C89977   8.815   9.151   9.767 -0.5953  0.1439 -0.2151
  667MOL0     H89978   8.364   9.074   9.338 -2.4594  3.3134 -0.1305
  667MOL0     H89979   8.136   9.069   9.309  3.3942  0.9535 -1.5570
  667MOL0     H89980   7.920   9.058   9.337  3.1374 -0.1080  1.5936
  667MOL0     H89981   7.932   8.903   9.424 -2.9179 -0.6702 -1.2054
  667MOL0     H89982   7.701   9.103   9.454 -1.3860 -0.6160 -0.6914
  667MOL0     H89983   7.707   8.980   9.348 -1.3399  1.0393  0.4101
  667MOL0     H89984   7.748   8.803   9.531  0.0190 -0.5299 -1.3174
  667MOL0     H89985   7.708   8.928   9.651 -0.1235 -2.6281  0.4523
  667MOL0     H89986   7.516   8.853   9.419 -1.7075  3.0764 -0.8161
  667MOL0     H89987   7.516   8.775   9.584 -1.6095  2.2050  1.4399
  667MOL0     H89988   7.479   9.002   9.682 -0.1873  0.7313 -1.0534
  667MOL0     H89989   7.511   9.078   9.538  0.8701 -0.4027  1.1529
  667MOL0     H89990   7.284   8.997   9.457 -1.5859  0.0432 -0.3863
  667MOL0     H89991   7.285   8.879   9.597 -3.3220  0.2814 -0.8809
  667MOL0     H89992   7.305   9.043   9.765 -0.4632 -1.4347  0.0400
  667MOL0     H89993   7.258   9.175   9.652 -2.0721 -0.6857 -0.1614
  667MOL0     H89994   7.047   9.008   9.591  3.0029 -3.8970 -1.3256
  667MOL0     H89995   7.040   9.118   9.735  0.9305 -0.4413  2.2903
  667MOL0     H89996   7.098   8.945   9.974 -4.8589 -0.4563  0.5766
  667MOL0     H89997   7.086   8.691  10.093  1.4471 -0.9255  1.8350
  667MOL0     H89998   7.149   8.567   9.981  0.8101  1.1720 -0.9396
  667MOL0     H89999   7.326   8.676  10.152  0.8503  1.0622  0.0111
  667MOL0     H90000   7.308   8.825  10.062  0.0496  0.5985 -0.6080
  667MOL0     H90001   7.377   8.687   9.852  0.7184  0.4266  0.0731
  667MOL0     H90002   7.426   8.557   9.962 -3.0042 -0.6728  0.9972
  667MOL0     H90003   7.579   8.736  10.079 -1.4364  1.5779  1.0715
  667MOL0     H90004   7.521   8.853   9.955  3.0295  0.5007 -0.7741
  667MOL0     H90005   7.756   8.494  10.006  1.1473 -1.2721 -1.7589
  667MOL0     H90006   8.076   8.407  10.090 -0.2435  0.8184 -1.0534
  667MOL0     H90007   8.011   8.482  10.242 -1.5728 -3.2794  0.7188
  667MOL0     H90008   7.910   8.385  10.143  0.0818 -1.6229 -0.5805
  667MOL0     H90009   8.396   8.922   9.953  1.2059 -0.8328  0.2483
  667MOL0     H90010   8.644   8.915   9.980 -0.3145  1.2435 -0.0006
  667MOL0     H90011   8.769   8.999  10.287 -1.0705 -0.7778 -0.0270
  667MOL0     H90012   8.786   8.861  10.391 -0.2613 -1.2626 -0.1807
  667MOL0     H90013   9.001   8.980  10.380 -0.4239 -1.5321  1.4118
  667MOL0     H90014   9.028   8.833  10.283  1.5152  0.4741  1.7175
  667MOL0     H90015   8.917   9.063  10.134 -0.2982 -2.2375 -1.7996
  667MOL0     H90016   9.053   8.967  10.079  2.0338 -1.3246  2.0559
  667MOL0     H90017   9.074   9.191  10.275  1.1078  1.5613 -0.3351
  667MOL0     H90018   9.209   9.079  10.228 -0.5254 -2.3557 -0.2070
  667MOL0     H90019   9.034   9.245  10.037  0.4104 -2.3308 -2.2258
  667MOL0     H90020   9.163   9.138   9.987  2.4422  0.3532  0.5918
  667MOL0     H90021   9.208   9.376  10.172  2.1532  0.1070  1.7184
  667MOL0     H90022   9.323   9.249  10.134 -1.4324 -1.2852  0.5310
  667MOL0     H90023   9.283   9.325   9.867 -1.8376 -0.8403 -0.1484
  667MOL0     H90024   9.397   9.394   9.977  1.2607 -3.9979 -1.9611
  667MOL0     H90025   9.281   9.586   9.881  0.9751  0.8680  1.8070
  667MOL0     H90026   9.204   9.581  10.029 -1.8576  2.1250 -0.8057
  667MOL0     H90027   8.610   8.760  10.374 -0.9844  0.1341  1.3943
  667MOL0     H90028   8.347   8.766  10.347 -1.5416  0.9250 -0.2396
  667MOL0     H90029   8.041   8.886   9.978 -0.0085 -0.4726  2.5221
  667MOL0     H90030   7.813   8.896   9.880 -0.9513 -1.2198 -0.2007
  667MOL0     H90031   8.086   9.051   9.738 -1.1491  0.5899 -1.2815
  667MOL0     H90032   8.336   9.062   9.755  1.6322  1.4532 -1.6295
  667MOL0     H90033   8.687   9.262   9.472 -1.3406 -0.0928  1.7231
  667MOL0     H90034   8.901   9.358   9.454 -1.3853  1.0230 -0.8566
  667MOL0     H90035   9.106   9.361   9.419  1.0292  1.4963 -0.9719
  667MOL0     H90036   9.091   9.484   9.545 -0.5827  0.3087  0.1084
  667MOL0     H90037   9.303   9.455   9.394  0.1904 -1.7955 -1.6183
  667MOL0     H90038   9.338   9.306   9.477 -2.0253 -1.0081 -0.8948
  667MOL0     H90039   9.354   9.433   9.695 -1.6576  2.7001  0.1871
  667MOL0     H90040   9.362   9.586   9.595 -1.4899  0.1312 -0.1740
  667MOL0     H90041   9.556   9.354   9.559  2.6246  0.8461 -0.7814
  667MOL0     H90042   9.571   9.477   9.690  0.3042  1.0922 -0.1031
  667MOL0     H90043   9.698   9.691   9.357 -1.4881 -0.7167 -1.7227
  667MOL0     H90044   9.028   9.174   9.827 -2.4566 -2.5558  1.8688
  667MOL0     H90045   8.774   9.098   9.852 -0.8607 -0.8158 -0.9162
  668MOL0     O90046   0.884   8.990   0.932 -0.1720 -0.2276  0.1062
  668MOL0     C90047   0.886   8.993   0.809 -0.7760 -0.5032 -0.2213
  668MOL0     O90048   0.994   9.022   0.729  0.0854 -0.8489 -0.4830
  668MOL0     C90049   1.115   9.031   0.797  0.3684  0.1677  0.4056
  668MOL0     C90050   1.171   8.927   0.875  0.5611 -0.9932  0.6136
  668MOL0     C90051   1.292   8.935   0.945  0.8280  0.7873 -0.0039
  668MOL0     C90052   1.358   9.061   0.946 -0.6539  0.4370  0.2961
  668MOL0     O90053   1.476   9.092   1.014  1.0810 -0.1846  0.5585
  668MOL0     C90054   1.522   8.992   1.107  0.5373  0.0741 -0.0123
  668MOL0     C90055   1.649   9.071   1.174  0.0133  0.1106  0.5805
  668MOL0     C90056   1.630   9.215   1.231  0.6322  0.0412 -1.0021
  668MOL0     C90057   1.767   9.278   1.286  0.2023  0.4217  0.1460
  668MOL0     C90058   1.761   9.400   1.368 -0.0344  0.1873 -0.9270
  668MOL0     C90059   1.714   9.525   1.289 -0.9742 -0.5290  0.1834
  668MOL0     C90060   1.668   9.642   1.375  0.4082  0.7023 -0.4825
  668MOL0     C90061   1.774   9.732   1.417  0.1719  0.2914  0.7722
  668MOL0     N90062   1.856   9.810   1.312  0.0948 -0.4997  0.0420
  668MOL0     C90063   1.806   9.914   1.241  0.1013 -0.7351 -0.3536
  668MOL0     C90064   1.898   9.937   1.148 -0.6727 -0.2333  0.2602
  668MOL0     C90065   1.899  10.046   1.049  0.0202 -1.3320  0.3011
  668MOL0     C90066   1.854  10.185   1.101 -0.6998  0.0813  0.0827
  668MOL0     C90067   1.830  10.291   0.987 -0.1794 -0.0659  0.9543
  668MOL0     C90068   1.750  10.405   1.047 -0.0230  0.5503  0.1429
  668MOL0     O90069   1.733  10.523   0.964  0.3440 -0.1597  0.7800
  668MOL0     C90070   1.659  10.514   0.852 -0.3228 -0.1747 -0.4529
  668MOL0     C90071   1.674  10.623   0.765 -0.1682  0.3105 -0.0873
  668MOL0     C90072   1.604  10.635   0.647  0.0026  0.4956 -0.0579
  668MOL0     C90073   1.635  10.767   0.563 -0.0092  0.2426  0.7384
  668MOL0     C90074   1.514  10.526   0.616 -0.1035 -0.2012  0.6555
  668MOL0     C90075   1.427  10.526   0.500  0.6111 -0.8778  0.4619
  668MOL0     O90076   1.335  10.420   0.490  0.3443 -0.4114  0.2237
  668MOL0     C90077   1.227  10.431   0.399  0.4694 -0.4556  0.7652
  668MOL0     C90078   1.150  10.546   0.401 -0.2532 -0.6138 -0.4541
  668MOL0     C90079   1.027  10.538   0.325 -0.3936 -0.0994 -0.2158
  668MOL0     C90080   1.002  10.435   0.238  0.3773  0.1916 -0.2056
  668MOL0     O90081   0.888  10.427   0.154  0.2063  0.4368 -0.6187
  668MOL0     C90082   0.838  10.551   0.104  0.1392  0.1529  0.4952
  668MOL0     C90083   0.716  10.524   0.020 -0.7614  0.0186 -0.3599
  668MOL0     C90084   0.603  10.449   0.090 -0.0006  0.0399  0.0519
  668MOL0     C90085   0.495  10.400   0.002  0.2701  1.0853 -0.3375
  668MOL0     C90086   0.398  10.304   0.090 -0.1589 -0.1917  0.3226
  668MOL0     C90087   0.247  10.287   0.045 -0.7074 -0.6509 -0.2563
  668MOL0     C90088   0.167  10.199   0.137 -0.3161 -0.4592  0.4418
  668MOL0     C90089   0.027  10.163   0.078  0.5842 -0.8816  0.0859
  668MOL0    Cl90090  -0.045  10.066   0.203 -0.1104 -0.3012 -0.1067
  668MOL0     C90091   1.083  10.322   0.236 -1.3032  0.0942 -0.5780
  668MOL0     C90092   1.197  10.325   0.320 -0.0455 -0.0642  0.4360
  668MOL0     O90093   1.436  10.612   0.412  0.0060  0.2235  0.1370
  668MOL0     C90094   1.508  10.408   0.695 -0.8561 -0.0821  0.1622
  668MOL0     C90095   1.581  10.408   0.815  0.2834 -0.1114 -0.0350
  668MOL0     N90096   2.007   9.850   1.170 -0.0704 -0.4284 -0.2019
  668MOL0     N90097   1.974   9.768   1.262 -0.0144  0.5323  0.6192
  668MOL0     C90098   1.295   9.169   0.887 -0.2300  0.1474  0.0592
  668MOL0     C90099   1.174   9.159   0.820  0.1263  0.2614  0.2896
  668MOL0     C90100   0.750   8.982   0.735  0.0240  0.0587 -0.2867
  668MOL0     C90101   0.741   9.018   0.600  0.1292 -0.2415 -0.5356
  668MOL0     C90102   0.622   9.012   0.538  0.3585  0.2815 -0.2892
  668MOL0     C90103   0.509   8.958   0.594  0.7904 -0.3939 -0.0854
  668MOL0     O90104   0.393   8.959   0.515  0.1876 -0.2196 -0.5027
  668MOL0     C90105   0.269   8.947   0.578  0.0822  0.0164  0.2705
  668MOL0     C90106   0.153   8.952   0.480 -0.5998  0.4179 -0.7481
  668MOL0     C90107   0.010   8.945   0.532  0.0014  0.3497 -1.1085
  668MOL0     C90108  -0.101   8.983   0.430  0.1714  0.5988  0.2941
  668MOL0     C90109  -0.069   8.928   0.294 -0.9296  0.8572 -0.0808
  668MOL0     C90110  -0.034   8.883   0.183  0.3415 -0.3214 -0.4331
  668MOL0     C90111   0.516   8.921   0.729 -0.0217  0.0690 -0.3930
  668MOL0     C90112   0.631   8.938   0.802 -1.0809 -0.2775 -0.3608
  668MOL0     H90113   1.120   8.834   0.851  0.2112 -0.6629  0.0479
  668MOL0     H90114   1.327   8.849   1.001 -0.1841  1.2326  1.3815
  668MOL0     H90115   1.448   8.960   1.180  2.2066 -1.8917  0.8981
  668MOL0     H90116   1.556   8.898   1.063 -1.0240  0.4489 -2.1968
  668MOL0     H90117   1.676   9.014   1.264  0.0451 -0.8573 -0.0243
  668MOL0     H90118   1.737   9.066   1.108  0.4887 -3.6336  1.3051
  668MOL0     H90119   1.586   9.284   1.158 -0.8514  0.5266  0.3018
  668MOL0     H90120   1.557   9.202   1.312  2.1400 -0.1633  0.3767
  668MOL0     H90121   1.824   9.203   1.341  3.7476  3.0495  0.3324
  668MOL0     H90122   1.833   9.297   1.201  0.7295 -0.7923  0.2667
  668MOL0     H90123   1.688   9.382   1.448 -0.8010  1.3340 -1.3319
  668MOL0     H90124   1.857   9.419   1.416 -1.1355 -0.6945  1.8486
  668MOL0     H90125   1.803   9.566   1.240 -2.2014  1.5799 -0.4098
  668MOL0     H90126   1.634   9.504   1.217  1.0947  0.2677 -2.5461
  668MOL0     H90127   1.592   9.694   1.317  1.1434  1.0654 -1.1341
  668MOL0     H90128   1.626   9.600   1.467 -0.5941 -0.7281 -1.5497
  668MOL0     H90129   1.836   9.682   1.492 -0.7257 -0.5000  1.0016
  668MOL0     H90130   1.720   9.797   1.486 -0.4742 -2.6425  3.2066
  668MOL0     H90131   1.713   9.970   1.250 -1.7924 -3.4873 -1.4529
  668MOL0     H90132   2.000  10.058   1.009 -0.3894 -0.2042 -0.4652
  668MOL0     H90133   1.834  10.011   0.968  0.5769  0.3193 -0.9171
  668MOL0     H90134   1.938  10.209   1.167  1.5480 -0.1325 -2.5030
  668MOL0     H90135   1.764  10.171   1.161  0.4789  0.2706  1.9844
  668MOL0     H90136   1.763  10.250   0.911 -0.5173  2.3871 -0.1688
  668MOL0     H90137   1.919  10.328   0.935 -1.6435  0.6626 -1.1758
  668MOL0     H90138   1.793  10.438   1.142  0.9394 -0.9067  0.2378
  668MOL0     H90139   1.652  10.368   1.081 -1.6201  3.3529 -1.0167
  668MOL0     H90140   1.746  10.703   0.781  0.4350  0.1732 -1.7883
  668MOL0     H90141   1.678  10.733   0.468 -0.7161  0.8338  0.1966
  668MOL0     H90142   1.546  10.828   0.545 -0.2274 -0.5126 -1.0199
  668MOL0     H90143   1.707  10.827   0.619  2.7780 -0.6242 -1.6614
  668MOL0     H90144   1.170  10.616   0.482 -1.3199 -2.3078  1.3690
  668MOL0     H90145   0.967  10.628   0.318 -1.1488 -0.7004 -2.3812
  668MOL0     H90146   0.816  10.629   0.177  3.1857  1.6043  0.0049
  668MOL0     H90147   0.908  10.597   0.034  0.4098  2.6559  2.2865
  668MOL0     H90148   0.692  10.620  -0.026  2.2474  1.1673  0.2666
  668MOL0     H90149   0.743  10.451  -0.058  1.5851  1.2858 -0.8142
  668MOL0     H90150   0.562  10.518   0.164 -0.6844 -1.1967  0.8547
  668MOL0     H90151   0.640  10.363   0.146 -0.8801 -0.5468 -0.2485
  668MOL0     H90152   0.429  10.478  -0.037 -2.5467 -0.6815  0.5878
  668MOL0     H90153   0.542  10.362  -0.089 -0.0965 -1.1397  0.3389
  668MOL0     H90154   0.373  10.346   0.188 -1.6902  1.1565 -0.5891
  668MOL0     H90155   0.444  10.205   0.093 -0.8833 -0.5688 -0.6572
  668MOL0     H90156   0.201  10.386   0.043  2.0438  0.8640  2.2906
  668MOL0     H90157   0.242  10.241  -0.054  2.6520  0.5976 -1.1630
  668MOL0     H90158   0.148  10.254   0.230 -1.6912 -0.0698 -0.0484
  668MOL0     H90159   0.226  10.108   0.150  0.9046  0.5057  2.1588
  668MOL0     H90160   0.043  10.102  -0.012 -1.4138 -2.6638  0.8546
  668MOL0     H90161  -0.040  10.245   0.050 -0.5849 -1.9674 -0.4297
  668MOL0     H90162   1.070  10.244   0.162 -1.6371  0.4499 -0.8985
  668MOL0     H90163   1.270  10.245   0.330  0.0866  0.3034  3.4206
  668MOL0     H90164   1.454  10.315   0.680  1.3381 -1.2640 -0.8104
  668MOL0     H90165   1.570  10.324   0.883 -0.8865 -0.1578 -0.2591
  668MOL0     H90166   1.340   9.265   0.914 -0.6878  0.1678  0.7657
  668MOL0     H90167   1.137   9.256   0.790  0.8292  0.8555  1.2945
  668MOL0     H90168   0.824   9.067   0.550 -0.2888  2.2825  1.0599
  668MOL0     H90169   0.606   9.058   0.441 -0.8243  1.2063  0.3111
  668MOL0     H90170   0.272   8.851   0.631  0.5726  0.5498  1.2380
  668MOL0     H90171   0.256   9.033   0.645 -1.2093  0.7178 -0.8040
  668MOL0     H90172   0.153   8.870   0.408  2.2417 -2.0958  1.8721
  668MOL0     H90173   0.170   9.039   0.415  1.4781 -0.0094 -0.8408
  668MOL0     H90174   0.004   9.006   0.622 -0.0320  1.1144 -1.6216
  668MOL0     H90175  -0.004   8.845   0.575  1.1835  0.4198 -0.5107
  668MOL0     H90176  -0.104   9.093   0.428  1.9306  0.8601  3.8201
  668MOL0     H90177  -0.192   8.936   0.468  0.8028 -0.8321  0.0833
  668MOL0     H90178  -0.004   8.832   0.094  1.3258 -0.5936  0.0463
  668MOL0     H90179   0.429   8.870   0.769  0.8590 -1.3309 -0.2154
  668MOL0     H90180   0.628   8.917   0.908  2.2030 -2.5770 -0.5559
  669MOL0     O90181   2.460   3.277   9.890  0.1821  0.5674 -0.1600
  669MOL0     C90182   2.522   3.284  10.000 -0.3907  0.2966  0.3338
  669MOL0     O90183   2.471   3.335  10.116 -0.7092 -0.2304  0.2268
  669MOL0     C90184   2.338   3.372  10.116  0.1801 -1.3183  0.5084
  669MOL0     C90185   2.247   3.286  10.183 -1.0423 -0.2637 -0.0125
  669MOL0     C90186   2.106   3.307  10.189 -0.4436 -0.3026  0.3288
  669MOL0     C90187   2.061   3.434  10.142  0.8627  0.8324  0.1377
  669MOL0     O90188   1.926   3.465  10.166  0.2053  0.4376 -0.6026
  669MOL0     C90189   1.880   3.593  10.140  1.5086 -0.2271  0.6685
  669MOL0     C90190   1.724   3.593  10.150  0.6252 -0.7984 -0.1541
  669MOL0     C90191   1.640   3.563  10.017  0.3249  0.8485 -0.4152
  669MOL0     C90192   1.669   3.433   9.945 -0.0128  0.6500 -0.6062
  669MOL0     C90193   1.556   3.386   9.854 -0.3351  0.0592  0.0164
  669MOL0     C90194   1.501   3.484   9.743  0.2302  0.9014 -0.1175
  669MOL0     C90195   1.597   3.533   9.628 -0.1001 -0.4500 -0.2773
  669MOL0     C90196   1.603   3.429   9.512  0.9855 -0.0857  0.0112
  669MOL0     N90197   1.468   3.435   9.443  0.5831  0.1117 -0.5439
  669MOL0     C90198   1.375   3.338   9.475  1.0081 -0.3377  0.0161
  669MOL0     C90199   1.267   3.370   9.390  0.7716  0.0287  0.1184
  669MOL0     C90200   1.134   3.306   9.367 -0.7429 -0.7256  0.1545
  669MOL0     C90201   1.022   3.395   9.432  0.3998  0.0165  0.4664
  669MOL0     C90202   0.898   3.308   9.457 -0.1568 -0.0138  0.1964
  669MOL0     C90203   0.853   3.241   9.323  1.0640 -0.0205 -0.6302
  669MOL0     O90204   0.715   3.204   9.339  0.7049  0.5832 -0.4362
  669MOL0     C90205   0.651   3.146   9.237  0.6086 -0.8126  0.1987
  669MOL0     C90206   0.649   3.197   9.107 -0.2823 -0.6702 -0.7656
  669MOL0     C90207   0.554   3.159   9.013  0.1108 -0.4880  0.5509
  669MOL0     C90208   0.558   3.197   8.872 -0.3772 -0.4154  0.4709
  669MOL0     C90209   0.447   3.082   9.057 -0.4044 -0.5772  0.6047
  669MOL0     C90210   0.345   3.034   8.958 -0.3082  0.8164  0.1544
  669MOL0     O90211   0.215   3.090   8.973  0.0338  0.2656  0.3070
  669MOL0     C90212   0.120   3.061   8.876 -1.0602  0.7595 -0.0242
  669MOL0     C90213   0.094   2.926   8.861 -0.1043  0.5465 -0.4327
  669MOL0     C90214  -0.005   2.888   8.768 -1.0533 -0.4250 -0.3248
  669MOL0     C90215  -0.067   2.986   8.683  0.9773  0.9698 -0.1331
  669MOL0     O90216  -0.165   2.942   8.600 -0.2601 -0.2734  0.0008
  669MOL0     C90217  -0.149   2.812   8.535  0.2598 -0.1247  0.4289
  669MOL0     C90218  -0.246   2.811   8.419 -0.3166  0.0811 -0.1504
  669MOL0     C90219  -0.268   2.950   8.350  0.4074  0.3795  0.2566
  669MOL0     C90220  -0.145   3.009   8.289  0.8542 -0.7353 -0.2016
  669MOL0     C90221  -0.164   3.138   8.201  1.7401  0.1657  0.0071
  669MOL0     C90222  -0.039   3.200   8.145 -0.7434  1.0240 -0.4503
  669MOL0     C90223  -0.059   3.319   8.060  0.2334 -0.3368  0.5345
  669MOL0     C90224   0.068   3.372   7.995  0.0325  0.6836  0.3174
  669MOL0    Cl90225   0.170   3.465   8.112  0.2284  0.6309  0.2209
  669MOL0     C90226  -0.040   3.116   8.693  0.2958  0.1083 -0.4147
  669MOL0     C90227   0.052   3.163   8.799 -0.6432 -0.0018  0.3835
  669MOL0     O90228   0.375   2.950   8.877  0.5071  0.6821 -0.0724
  669MOL0     C90229   0.453   3.029   9.185 -0.5658  0.6352 -0.4258
  669MOL0     C90230   0.549   3.068   9.278 -0.4727  0.2101  0.6817
  669MOL0     N90231   1.314   3.486   9.325  0.2135  0.3734  0.0739
  669MOL0     N90232   1.428   3.524   9.352  0.3429  0.3025  0.3115
  669MOL0     C90233   2.145   3.517  10.069  0.5918 -1.0988 -0.2694
  669MOL0     C90234   2.283   3.498  10.065 -0.4482  0.5309 -0.6057
  669MOL0     C90235   2.653   3.214  10.011 -0.0279  0.8609 -0.3570
  669MOL0     C90236   2.713   3.194  10.138 -0.1402  0.1924  0.0392
  669MOL0     C90237   2.815   3.104  10.155  0.5455  0.4554 -0.4074
  669MOL0     C90238   2.871   3.032  10.045  0.6885 -0.2853 -0.1944
  669MOL0     O90239   2.983   2.942  10.052  0.3788 -0.1652  0.4822
  669MOL0     C90240   3.085   2.962  10.150 -0.6296 -0.9564 -0.1807
  669MOL0     C90241   3.067   2.874  10.274 -0.9566  0.4491  0.2006
  669MOL0     C90242   3.183   2.846  10.369  0.1202 -1.0097  0.0999
  669MOL0     C90243   3.239   2.967  10.431 -0.4769 -0.5938 -0.0637
  669MOL0     C90244   3.338   3.027  10.333 -0.2465  0.9326 -0.0147
  669MOL0     C90245   3.417   3.086  10.268 -0.6424  0.2054  0.2110
  669MOL0     C90246   2.824   3.055   9.916 -0.0342  0.1297 -0.2150
  669MOL0     C90247   2.714   3.146   9.896  0.2383 -0.3531  0.0553
  669MOL0     H90248   2.306   3.204  10.224 -1.0722  0.4770  1.6265
  669MOL0     H90249   2.040   3.226  10.221  0.9220 -1.5555  0.0972
  669MOL0     H90250   1.921   3.660  10.216  1.4683  2.6408 -1.6829
  669MOL0     H90251   1.906   3.630  10.041  0.8546 -0.4904  0.3910
  669MOL0     H90252   1.702   3.522  10.231  1.8357 -1.5019 -0.4260
  669MOL0     H90253   1.695   3.693  10.185 -1.4639 -2.5549  3.8165
  669MOL0     H90254   1.534   3.563  10.043  0.8102 -0.1212  1.7146
  669MOL0     H90255   1.655   3.643   9.943 -0.4631  2.1299  0.7597
  669MOL0     H90256   1.763   3.457   9.894 -0.1523  2.1195 -0.2255
  669MOL0     H90257   1.690   3.360  10.024 -1.2730  0.4098 -0.4751
  669MOL0     H90258   1.600   3.301   9.803 -0.6963  0.4413 -0.9672
  669MOL0     H90259   1.470   3.346   9.908 -0.6641 -0.5434 -0.9319
  669MOL0     H90260   1.402   3.445   9.716  0.4675  0.5383 -0.4565
  669MOL0     H90261   1.486   3.579   9.796  0.7053  1.9228 -1.7431
  669MOL0     H90262   1.554   3.624   9.586  0.6969 -0.6091 -1.4742
  669MOL0     H90263   1.697   3.546   9.668 -1.4506 -0.2158  3.4150
  669MOL0     H90264   1.631   3.332   9.553  0.3187  0.2044  1.1821
  669MOL0     H90265   1.669   3.473   9.436 -0.1325  0.4838 -0.6535
  669MOL0     H90266   1.380   3.259   9.549 -2.7680  1.0127  1.9511
  669MOL0     H90267   1.115   3.308   9.260  1.1304 -1.0090 -0.2083
  669MOL0     H90268   1.140   3.205   9.407  3.4188  0.1284  2.2812
  669MOL0     H90269   0.988   3.471   9.361 -0.4605  0.2258  1.0804
  669MOL0     H90270   1.061   3.451   9.518  0.9768 -1.8946  1.4893
  669MOL0     H90271   0.818   3.373   9.494 -0.7247 -0.6041  0.0410
  669MOL0     H90272   0.924   3.229   9.528  0.7095  0.7394  0.7204
  669MOL0     H90273   0.916   3.151   9.319  2.0961  0.6337  0.3054
  669MOL0     H90274   0.860   3.298   9.230 -1.9619 -1.0597 -1.6197
  669MOL0     H90275   0.732   3.262   9.081  0.2280 -0.5014  1.1548
  669MOL0     H90276   0.474   3.263   8.845  0.8954  1.1661  0.2092
  669MOL0     H90277   0.646   3.259   8.853 -1.2140  0.7004  0.1272
  669MOL0     H90278   0.555   3.106   8.812 -0.2026 -1.6193  2.2151
  669MOL0     H90279   0.134   2.841   8.915  0.6548 -0.0780 -1.9217
  669MOL0     H90280  -0.041   2.786   8.763  1.6190 -1.7044  2.8630
  669MOL0     H90281  -0.047   2.787   8.503  0.7618  0.2823  1.6515
  669MOL0     H90282  -0.190   2.732   8.598 -0.6511 -1.1930 -1.4139
  669MOL0     H90283  -0.202   2.747   8.342 -1.6624 -3.0519  1.4939
  669MOL0     H90284  -0.335   2.758   8.454  2.0083 -2.2864  2.6929
  669MOL0     H90285  -0.308   3.021   8.423 -0.9932  1.1296 -1.1918
  669MOL0     H90286  -0.338   2.942   8.266  1.2748  0.8609 -0.5248
  669MOL0     H90287  -0.078   3.041   8.369 -0.4823  0.2185  0.5570
  669MOL0     H90288  -0.089   2.935   8.231  0.0849 -0.0958 -1.8297
  669MOL0     H90289  -0.211   3.216   8.262  3.4643 -0.3894  2.1918
  669MOL0     H90290  -0.236   3.115   8.122 -2.8837  0.4724  3.7174
  669MOL0     H90291   0.033   3.208   8.227  0.7268  0.7100 -1.6612
  669MOL0     H90292   0.008   3.124   8.081 -0.0811  0.0673  1.1153
  669MOL0     H90293  -0.115   3.390   8.121 -0.9068 -1.5024  0.8862
  669MOL0     H90294  -0.129   3.286   7.982 -0.2596  1.2736  0.2708
  669MOL0     H90295   0.037   3.442   7.916 -0.9373 -1.3351 -1.1819
  669MOL0     H90296   0.129   3.299   7.940 -1.3084  2.2664 -3.6004
  669MOL0     H90297  -0.090   3.186   8.627 -1.5798  2.1851  2.9062
  669MOL0     H90298   0.073   3.270   8.801  0.7901 -0.2611  0.6388
  669MOL0     H90299   0.372   2.960   9.207  1.1533 -1.5386 -0.6074
  669MOL0     H90300   0.534   3.048   9.383 -1.4605  0.4196  0.5894
  669MOL0     H90301   2.113   3.607  10.018  1.8229 -1.5585 -1.9388
  669MOL0     H90302   2.349   3.548   9.994  0.2141  1.0702  0.3546
  669MOL0     H90303   2.680   3.258  10.220  0.8174  2.0883 -0.9850
  669MOL0     H90304   2.858   3.087  10.254  0.2021  0.4832 -0.2516
  669MOL0     H90305   3.185   2.935  10.116  1.5293 -0.8314  5.1204
  669MOL0     H90306   3.095   3.067  10.179  2.7226 -1.3116  0.2555
  669MOL0     H90307   3.047   2.776  10.230  2.1128  0.5387 -1.6837
  669MOL0     H90308   2.979   2.910  10.328 -1.1195 -0.5574  0.6313
  669MOL0     H90309   3.257   2.795  10.307 -2.4518 -1.9859 -2.3865
  669MOL0     H90310   3.148   2.784  10.453  1.4314 -0.7126  0.8961
  669MOL0     H90311   3.303   2.936  10.515  1.5021 -0.1226 -1.3455
  669MOL0     H90312   3.157   3.035  10.456  0.8706  0.1224  2.9873
  669MOL0     H90313   3.497   3.133  10.213  0.3201  1.3607  2.4718
  669MOL0     H90314   2.872   3.011   9.830 -2.0424  1.9147 -2.3720
  669MOL0     H90315   2.678   3.166   9.795 -1.7018 -0.1573  0.7284
  670MOL0     O90316   3.766   3.929  11.011  0.1191  0.3631 -0.5526
  670MOL0     C90317   3.874   3.971  11.037  0.0319 -0.3106  0.5917
  670MOL0     O90318   3.932   4.076  10.966 -0.8768 -0.3715 -0.5066
  670MOL0     C90319   3.875   4.126  10.848 -0.5807  0.2836 -0.6419
  670MOL0     C90320   3.827   4.040  10.747  0.6236 -0.5513  0.7685
  670MOL0     C90321   3.751   4.101  10.636  0.9819  0.7856 -0.3318
  670MOL0     C90322   3.730   4.238  10.635  0.0284  0.2666 -0.5181
  670MOL0     O90323   3.642   4.279  10.537  0.1184  0.1835  0.2905
  670MOL0     C90324   3.657   4.404  10.474  0.4246  0.0181  0.3730
  670MOL0     C90325   3.568   4.391  10.348 -0.6205 -0.4396  0.6213
  670MOL0     C90326   3.418   4.421  10.369 -0.5870 -0.1746  0.1105
  670MOL0     C90327   3.372   4.506  10.248 -0.5909 -0.2756 -0.3060
  670MOL0     C90328   3.225   4.545  10.265 -1.2962 -0.2836 -0.6760
  670MOL0     C90329   3.176   4.637  10.149  0.2551  0.3417  0.5400
  670MOL0     C90330   3.029   4.624  10.110  0.7139  0.0945  0.4520
  670MOL0     C90331   2.982   4.743  10.017  0.2121 -0.5163  0.2900
  670MOL0     N90332   2.836   4.742  10.006 -0.2527 -0.2200  0.9221
  670MOL0     C90333   2.777   4.643   9.927  0.4172 -0.4154  0.2898
  670MOL0     C90334   2.645   4.667   9.944 -1.1108  0.4601 -0.2757
  670MOL0     C90335   2.545   4.596   9.862  0.4253 -0.4677 -0.3740
  670MOL0     C90336   2.411   4.673   9.848  0.2005 -0.4909  0.1500
  670MOL0     C90337   2.430   4.808   9.769 -0.3625 -0.5086  0.0240
  670MOL0     C90338   2.300   4.849   9.704 -1.0627  0.1898 -0.9361
  670MOL0     O90339   2.320   4.986   9.671  0.5469  0.8159 -0.6116
  670MOL0     C90340   2.209   5.054   9.621 -0.2587  0.3817  0.8368
  670MOL0     C90341   2.208   5.192   9.613  0.0543  0.1825 -0.7204
  670MOL0     C90342   2.087   5.259   9.579  0.1817 -0.0541  0.0036
  670MOL0     C90343   2.087   5.412   9.575 -0.4961 -0.0641 -0.5347
  670MOL0     C90344   1.970   5.191   9.536 -0.5139  1.0655 -0.0084
  670MOL0     C90345   1.833   5.248   9.501  0.1866  0.5526 -0.0857
  670MOL0     O90346   1.764   5.318   9.606 -0.5551  0.4387  0.4062
  670MOL0     C90347   1.638   5.357   9.564  0.8256  0.5611 -0.2577
  670MOL0     C90348   1.601   5.493   9.561 -0.3398  1.0033  0.8348
  670MOL0     C90349   1.472   5.535   9.536 -1.0144 -0.3875  0.6841
  670MOL0     C90350   1.379   5.441   9.492  0.6563 -0.9032 -0.0363
  670MOL0     O90351   1.254   5.483   9.449  0.3791  0.3485  0.3948
  670MOL0     C90352   1.149   5.439   9.529  0.0188  0.7257 -0.5590
  670MOL0     C90353   1.021   5.500   9.491  0.6376  0.0620  1.2841
  670MOL0     C90354   0.899   5.466   9.587 -0.2271  0.2407 -0.4753
  670MOL0     C90355   0.773   5.528   9.533  0.4671 -0.4894 -0.8437
  670MOL0     C90356   0.660   5.481   9.624 -0.4331  0.1329 -0.3435
  670MOL0     C90357   0.525   5.510   9.561 -0.1960  0.6923 -0.7508
  670MOL0     C90358   0.421   5.484   9.674  0.0741  0.0973 -0.2067
  670MOL0     C90359   0.275   5.484   9.628 -0.1462  0.8692 -0.3188
  670MOL0    Cl90360   0.259   5.339   9.517 -0.4642  0.3401  0.1102
  670MOL0     C90361   1.401   5.305   9.505  0.0436 -0.5719  0.8575
  670MOL0     C90362   1.527   5.266   9.557  0.3142 -0.3387  0.6888
  670MOL0     O90363   1.789   5.222   9.392  0.5343 -0.2513  0.5874
  670MOL0     C90364   1.973   5.052   9.545  0.2979  0.0774  0.9357
  670MOL0     C90365   2.093   4.988   9.575 -0.0326 -0.1762  0.4814
  670MOL0     N90366   2.627   4.768  10.035 -0.0552 -1.2695  0.0731
  670MOL0     N90367   2.740   4.823  10.058  0.0998  0.6846 -0.8069
  670MOL0     C90368   3.779   4.324  10.738 -1.3959  0.3507 -0.1015
  670MOL0     C90369   3.849   4.262  10.844 -1.2916  0.3556 -0.5538
  670MOL0     C90370   3.947   3.912  11.150 -0.8421 -0.3871  0.4115
  670MOL0     C90371   4.078   3.861  11.128  0.3632 -0.0384 -0.2372
  670MOL0     C90372   4.144   3.795  11.230 -0.4989  0.3426 -0.0201
  670MOL0     C90373   4.085   3.795  11.357 -0.4167 -0.0661  0.4135
  670MOL0     O90374   4.166   3.739  11.451  0.1034  0.2919  0.7192
  670MOL0     C90375   4.267   3.824  11.498  0.5139 -0.5274  0.8501
  670MOL0     C90376   4.394   3.747  11.538  0.4100 -0.1172 -0.5607
  670MOL0     C90377   4.373   3.689  11.682  0.9338 -0.2517  0.4088
  670MOL0     C90378   4.507   3.680  11.750  0.9663 -0.8740 -0.1083
  670MOL0     C90379   4.588   3.569  11.708  0.1192  0.5168  0.1442
  670MOL0     C90380   4.679   3.492  11.684  0.0883 -0.1660  0.4899
  670MOL0     C90381   3.962   3.842  11.382 -0.0031  0.3119  0.1205
  670MOL0     C90382   3.884   3.903  11.275 -0.6504  0.3642 -0.4062
  670MOL0     H90383   3.843   3.934  10.730 -2.1341 -0.7304 -1.6359
  670MOL0     H90384   3.695   4.054  10.556 -1.6810 -0.8807  2.2710
  670MOL0     H90385   3.641   4.485  10.546  2.4097  0.6170  0.1909
  670MOL0     H90386   3.758   4.409  10.431 -0.0262 -1.4928 -0.9690
  670MOL0     H90387   3.602   4.464  10.274  0.4782 -0.3054  1.2347
  670MOL0     H90388   3.576   4.288  10.312 -2.5686 -0.6103  0.5725
  670MOL0     H90389   3.368   4.323  10.370  2.3178 -1.7812 -0.4562
  670MOL0     H90390   3.403   4.483  10.457  6.0604  0.5067  1.2514
  670MOL0     H90391   3.432   4.598  10.247  2.6614 -2.2482 -1.4873
  670MOL0     H90392   3.388   4.446  10.158 -0.6507 -1.0227  0.1792
  670MOL0     H90393   3.161   4.458  10.250 -2.4897  0.2308  1.1170
  670MOL0     H90394   3.202   4.585  10.364 -2.4341 -0.1376 -0.9880
  670MOL0     H90395   3.201   4.738  10.179 -2.1336  1.0215  0.4844
  670MOL0     H90396   3.235   4.602  10.064 -0.7997  0.1429 -0.1373
  670MOL0     H90397   2.999   4.527  10.069 -1.2466  1.0888 -0.5957
  670MOL0     H90398   2.971   4.642  10.201 -1.3356  0.7292 -0.9021
  670MOL0     H90399   3.017   4.718   9.917  0.0841 -0.0628  0.1292
  670MOL0     H90400   3.024   4.840  10.044 -0.3467 -0.1217 -0.2327
  670MOL0     H90401   2.823   4.569   9.862  0.4689  0.4495 -0.6724
  670MOL0     H90402   2.591   4.577   9.765 -0.2018  1.4909 -1.1076
  670MOL0     H90403   2.520   4.507   9.920  0.8013 -0.9195 -0.8958
  670MOL0     H90404   2.371   4.695   9.948  3.1860 -0.1280  1.3861
  670MOL0     H90405   2.341   4.601   9.805 -2.0142  2.0613 -0.8111
  670MOL0     H90406   2.502   4.794   9.688 -0.4077 -0.7085  0.0193
  670MOL0     H90407   2.467   4.884   9.838  0.5702 -1.5941  0.7398
  670MOL0     H90408   2.229   4.845   9.786  1.5382 -3.2342  1.4585
  670MOL0     H90409   2.275   4.792   9.614 -0.5678  0.2101 -1.0920
  670MOL0     H90410   2.296   5.249   9.644 -1.9019  2.1063  1.7219
  670MOL0     H90411   2.005   5.445   9.511  0.9134 -0.9704 -2.9143
  670MOL0     H90412   2.077   5.457   9.674 -0.2972 -0.2790 -0.4160
  670MOL0     H90413   2.181   5.438   9.526 -0.7037  1.5919 -0.1118
  670MOL0     H90414   1.679   5.564   9.589  0.3358 -0.5743  3.2841
  670MOL0     H90415   1.454   5.642   9.533 -1.4377 -0.4743 -2.6134
  670MOL0     H90416   1.129   5.332   9.525 -2.2868  1.1365 -1.7254
  670MOL0     H90417   1.162   5.459   9.636 -2.3153  0.5384 -0.1819
  670MOL0     H90418   1.034   5.607   9.475  2.8375 -0.5728 -2.3036
  670MOL0     H90419   0.996   5.457   9.394  0.3648  0.1540  1.3117
  670MOL0     H90420   0.911   5.488   9.693 -0.4366  1.1303 -0.6264
  670MOL0     H90421   0.888   5.357   9.591 -0.6408  0.1829 -2.1901
  670MOL0     H90422   0.776   5.637   9.530  2.3075 -0.5225 -2.3797
  670MOL0     H90423   0.759   5.498   9.428 -2.3457  1.0939 -1.0155
  670MOL0     H90424   0.675   5.530   9.721 -1.9562  0.2081 -0.1157
  670MOL0     H90425   0.663   5.371   9.632 -2.3744 -0.0172 -1.2863
  670MOL0     H90426   0.508   5.613   9.528 -3.0536  0.6037  0.1323
  670MOL0     H90427   0.508   5.450   9.471  3.7575 -0.6173 -0.8185
  670MOL0     H90428   0.439   5.567   9.743  2.3166  0.6096 -1.3203
  670MOL0     H90429   0.446   5.397   9.735  2.7512  3.0723  3.3796
  670MOL0     H90430   0.252   5.571   9.566 -1.2063  0.3331 -0.7168
  670MOL0     H90431   0.206   5.477   9.712 -1.6091  0.7158 -1.4799
  670MOL0     H90432   1.325   5.238   9.468 -1.7448  3.0637 -2.8746
  670MOL0     H90433   1.553   5.163   9.582  1.5358  0.2347  1.9415
  670MOL0     H90434   1.886   4.989   9.530  1.5464 -1.4302 -0.3203
  670MOL0     H90435   2.076   4.882   9.565  0.1571 -0.0960 -0.8188
  670MOL0     H90436   3.745   4.427  10.748  0.0714  1.1318 -2.4400
  670MOL0     H90437   3.886   4.322  10.926 -4.4295  2.3070 -0.3799
  670MOL0     H90438   4.126   3.853  11.032 -1.2459  0.8585 -1.1558
  670MOL0     H90439   4.242   3.753  11.211 -1.4021 -0.8399 -2.5020
  670MOL0     H90440   4.298   3.892  11.417 -1.1823  0.2437  0.8150
  670MOL0     H90441   4.237   3.890  11.580  1.7118 -1.0018  1.7029
  670MOL0     H90442   4.480   3.814  11.543  1.3498 -1.2360 -1.1309
  670MOL0     H90443   4.430   3.668  11.471  2.3418 -0.4247  0.7725
  670MOL0     H90444   4.318   3.594  11.675 -1.6300  1.0307  1.8220
  670MOL0     H90445   4.315   3.750  11.752 -1.6960 -1.4261 -0.6101
  670MOL0     H90446   4.479   3.674  11.856 -0.1654  0.6552 -0.2821
  670MOL0     H90447   4.563   3.772  11.731 -1.1276  0.2016 -1.5101
  670MOL0     H90448   4.753   3.424  11.649  1.5371  2.9590 -3.2582
  670MOL0     H90449   3.908   3.823  11.474  1.4099 -1.1446  0.6973
  670MOL0     H90450   3.786   3.943  11.295 -1.1477 -0.5512 -0.9199
  671MOL0     O90451  11.381   6.020   3.335 -0.5886  0.1387  0.0184
  671MOL0     C90452  11.401   6.007   3.457  0.2938 -0.0114  0.1622
  671MOL0     O90453  11.329   5.929   3.541  0.6567  0.3841 -0.4588
  671MOL0     C90454  11.212   5.877   3.508 -0.3421  0.0639  0.6787
  671MOL0     C90455  11.184   5.807   3.391  0.1745 -0.5917  0.3557
  671MOL0     C90456  11.071   5.721   3.389 -0.0408  0.3028 -0.1883
  671MOL0     C90457  10.969   5.723   3.490 -0.8569 -0.2879  0.6171
  671MOL0     O90458  10.859   5.648   3.476  0.8235 -0.4796 -0.9215
  671MOL0     C90459  10.846   5.539   3.570 -0.5233  0.9044 -0.2926
  671MOL0     C90460  10.692   5.499   3.580 -0.7755 -0.8022 -0.8072
  671MOL0     C90461  10.613   5.606   3.650  0.3871  0.1158 -0.5969
  671MOL0     C90462  10.574   5.572   3.784 -0.1456  0.3302 -0.7617
  671MOL0     C90463  10.512   5.693   3.852  1.0825 -0.1818 -0.1168
  671MOL0     C90464  10.625   5.789   3.902  0.2693  0.7799 -0.2486
  671MOL0     C90465  10.557   5.905   3.985 -0.4972 -0.3148  0.0786
  671MOL0     C90466  10.654   5.993   4.066 -0.8456 -0.4486  0.1006
  671MOL0     N90467  10.763   6.048   3.980 -0.1693  0.0087  0.4799
  671MOL0     C90468  10.765   6.149   3.892 -0.4011  0.1144  0.5386
  671MOL0     C90469  10.881   6.131   3.827  0.5327 -0.3530  0.0021
  671MOL0     C90470  10.924   6.191   3.698 -0.1994  0.9692  0.1156
  671MOL0     C90471  11.062   6.269   3.720  0.2962  0.0220 -0.7148
  671MOL0     C90472  11.132   6.300   3.584 -0.3714 -0.5204  0.3112
  671MOL0     C90473  11.058   6.404   3.496  0.2086  0.0058 -0.6633
  671MOL0     O90474  11.138   6.523   3.487 -0.0048  0.9081 -0.0003
  671MOL0     C90475  11.262   6.525   3.435 -1.0853 -0.7894  0.6676
  671MOL0     C90476  11.294   6.439   3.330  0.4292  0.3226 -0.2538
  671MOL0     C90477  11.425   6.433   3.276  1.7168 -0.2951  0.2243
  671MOL0     C90478  11.432   6.362   3.137  0.2879 -0.1735  0.1738
  671MOL0     C90479  11.530   6.511   3.340 -0.3867  0.6742  0.4896
  671MOL0     C90480  11.671   6.513   3.310 -0.4618  0.5819 -0.9312
  671MOL0     O90481  11.714   6.404   3.238  0.4774  0.6078 -0.4933
  671MOL0     C90482  11.841   6.415   3.176  0.4921 -0.5337 -0.1379
  671MOL0     C90483  11.856   6.518   3.083  0.8260  0.1167 -0.3459
  671MOL0     C90484  11.979   6.528   3.012  0.4542 -0.1576 -0.0359
  671MOL0     C90485  12.084   6.437   3.039  0.4555  0.0178 -1.3567
  671MOL0     O90486  12.202   6.459   2.970 -0.3956 -0.5241  0.4834
  671MOL0     C90487  12.321   6.391   3.008  0.3863  0.3652  0.0420
  671MOL0     C90488  12.429   6.409   2.898 -0.1443  0.5008 -0.2098
  671MOL0     C90489  12.567   6.345   2.929  0.2242  0.3341  0.3576
  671MOL0     C90490  12.679   6.397   2.852 -0.3162  0.2788 -0.5380
  671MOL0     C90491  12.818   6.336   2.886 -0.0487  0.7957 -0.1986
  671MOL0     C90492  12.845   6.187   2.874  0.4618  0.1663 -0.9096
  671MOL0     C90493  12.985   6.158   2.812 -0.5674  0.8293 -0.0080
  671MOL0     C90494  13.032   6.013   2.827  1.1296 -0.5752  0.1903
  671MOL0    Cl90495  13.198   6.007   2.758  0.6589  0.3581 -0.3658
  671MOL0     C90496  12.054   6.328   3.122  0.4493 -1.0902  0.5888
  671MOL0     C90497  11.931   6.317   3.195 -0.0338 -0.5748  0.6313
  671MOL0     O90498  11.734   6.618   3.341  0.3716  0.2361 -0.2130
  671MOL0     C90499  11.489   6.588   3.452  0.0989 -0.1062  0.4212
  671MOL0     C90500  11.358   6.592   3.494 -1.1224  0.3473 -0.4520
  671MOL0     N90501  10.953   6.020   3.882  0.6002 -0.2856 -0.7167
  671MOL0     N90502  10.882   5.977   3.981  0.7762 -0.3850  0.1374
  671MOL0     C90503  10.995   5.803   3.600  0.1462 -0.9754  0.5899
  671MOL0     C90504  11.115   5.866   3.610 -0.5308 -0.0538 -0.0046
  671MOL0     C90505  11.501   6.094   3.517  0.0906 -0.1975  0.0699
  671MOL0     C90506  11.507   6.129   3.656  0.4180 -0.2605 -0.1175
  671MOL0     C90507  11.625   6.187   3.704  0.4400 -0.1026  0.0061
  671MOL0     C90508  11.731   6.218   3.622 -0.1326 -0.5792  0.0579
  671MOL0     O90509  11.840   6.257   3.686  0.0731  0.2958 -0.2141
  671MOL0     C90510  11.965   6.275   3.616 -0.7633 -0.5816 -0.1700
  671MOL0     C90511  12.079   6.293   3.714 -0.3671 -0.6714  0.3568
  671MOL0     C90512  12.070   6.181   3.824 -0.6949 -0.8251  0.7268
  671MOL0     C90513  12.200   6.199   3.903  0.2537 -0.4323  0.2637
  671MOL0     C90514  12.319   6.162   3.831  0.4839  0.3098 -0.1809
  671MOL0     C90515  12.408   6.148   3.754 -0.4000 -0.0015 -0.9881
  671MOL0     C90516  11.721   6.209   3.484 -0.0302 -0.0056 -0.5987
  671MOL0     C90517  11.610   6.150   3.434 -1.0290 -0.1072  0.5543
  671MOL0     H90518  11.249   5.801   3.304  0.1629 -1.9150  0.4205
  671MOL0     H90519  11.051   5.654   3.306 -1.7964  0.5797 -0.0250
  671MOL0     H90520  10.915   5.460   3.539  1.2440  0.2352  4.4484
  671MOL0     H90521  10.881   5.567   3.670  0.2946  1.0937 -0.6291
  671MOL0     H90522  10.643   5.475   3.485 -0.5981 -1.8981 -0.6399
  671MOL0     H90523  10.688   5.403   3.633 -1.9016  0.0243  0.6814
  671MOL0     H90524  10.685   5.688   3.646  0.3016  0.3183  1.2395
  671MOL0     H90525  10.522   5.629   3.594 -1.4643 -2.7670  1.0117
  671MOL0     H90526  10.495   5.497   3.778  0.3631 -0.1353 -2.0132
  671MOL0     H90527  10.657   5.528   3.841  0.3153  0.6522 -1.1692
  671MOL0     H90528  10.454   5.752   3.780  1.8091 -2.8851 -3.1610
  671MOL0     H90529  10.448   5.667   3.937 -0.5733  0.9575 -0.9615
  671MOL0     H90530  10.688   5.736   3.974 -2.3208  1.1722  2.5402
  671MOL0     H90531  10.678   5.833   3.817  0.9516 -0.8430 -0.6909
  671MOL0     H90532  10.502   5.970   3.916 -0.7406 -1.1716 -0.5479
  671MOL0     H90533  10.485   5.865   4.057  0.8732 -0.2515  1.5472
  671MOL0     H90534  10.708   5.940   4.144  2.3464  1.5616 -0.5407
  671MOL0     H90535  10.606   6.083   4.106  1.0833  0.3800  0.6831
  671MOL0     H90536  10.684   6.215   3.864 -0.5089 -0.6089 -0.9740
  671MOL0     H90537  10.941   6.109   3.627 -1.9309  2.2939 -1.9395
  671MOL0     H90538  10.856   6.266   3.658  0.8663  2.0906  0.3436
  671MOL0     H90539  11.131   6.204   3.774 -0.4958 -1.4628 -1.4387
  671MOL0     H90540  11.040   6.362   3.775  0.8591  1.2276 -2.4376
  671MOL0     H90541  11.139   6.204   3.532 -2.3475 -1.7417  2.1375
  671MOL0     H90542  11.236   6.326   3.605  0.2785 -0.5270 -2.5017
  671MOL0     H90543  10.967   6.417   3.554  0.0328 -2.3183 -0.2999
  671MOL0     H90544  11.024   6.367   3.399 -0.9594 -2.8730  0.7332
  671MOL0     H90545  11.224   6.367   3.290 -0.0692  0.2017  0.8056
  671MOL0     H90546  11.475   6.262   3.150  1.2979  0.5150  2.7746
  671MOL0     H90547  11.331   6.351   3.097  0.7421  0.5319 -1.2066
  671MOL0     H90548  11.480   6.419   3.057 -1.4735 -0.3447 -1.0584
  671MOL0     H90549  11.772   6.585   3.072 -0.4265 -1.1644  1.1128
  671MOL0     H90550  11.975   6.599   2.930 -2.2088 -1.0219 -0.7519
  671MOL0     H90551  12.348   6.428   3.108 -2.3299  2.6395  0.0576
  671MOL0     H90552  12.294   6.285   3.012  1.6087  0.0345  3.4488
  671MOL0     H90553  12.388   6.364   2.808  3.2679 -1.5707 -0.9207
  671MOL0     H90554  12.451   6.515   2.882  1.2776  0.2423 -0.1088
  671MOL0     H90555  12.557   6.238   2.909 -0.4461  0.6452 -1.1109
  671MOL0     H90556  12.581   6.367   3.035 -4.3576  1.4681  0.9028
  671MOL0     H90557  12.657   6.373   2.747  0.4661 -1.1882 -0.3963
  671MOL0     H90558  12.677   6.506   2.857  3.3153  0.4299 -0.2531
  671MOL0     H90559  12.856   6.375   2.980  1.4982 -0.5112 -0.2345
  671MOL0     H90560  12.892   6.380   2.818  1.5489 -1.1038  0.2179
  671MOL0     H90561  12.839   6.137   2.971 -2.8985  2.1657  0.1224
  671MOL0     H90562  12.776   6.141   2.803 -0.6195 -0.4872  0.5098
  671MOL0     H90563  13.052   6.225   2.867  0.0766 -1.5619  2.3690
  671MOL0     H90564  12.970   6.185   2.708  2.9152  0.6575 -0.6823
  671MOL0     H90565  12.960   5.946   2.779 -1.3925  3.5923 -2.4182
  671MOL0     H90566  13.036   5.997   2.935 -0.1648  2.4701  0.8032
  671MOL0     H90567  12.139   6.265   3.145  1.2864 -0.3715 -0.4313
  671MOL0     H90568  11.910   6.228   3.252 -0.7916 -0.7424  0.0989
  671MOL0     H90569  11.562   6.648   3.507  2.0000 -2.3623  0.4904
  671MOL0     H90570  11.326   6.666   3.567 -1.5584  1.0064 -1.2947
  671MOL0     H90571  10.909   5.814   3.666 -4.2851  0.0490 -4.6651
  671MOL0     H90572  11.139   5.923   3.699 -0.3466 -0.6556  0.3345
  671MOL0     H90573  11.426   6.115   3.726 -0.6027  2.7269 -0.5519
  671MOL0     H90574  11.622   6.212   3.810 -0.8762  1.3889 -0.3494
  671MOL0     H90575  11.986   6.188   3.553  0.5519 -0.2732 -0.1895
  671MOL0     H90576  11.948   6.370   3.565  1.4862  0.2161  0.4454
  671MOL0     H90577  12.074   6.388   3.767  0.2632 -1.0810  1.1822
  671MOL0     H90578  12.170   6.289   3.654 -0.3522 -3.4200  0.4475
  671MOL0     H90579  12.058   6.080   3.783 -0.3555 -0.0594 -1.3865
  671MOL0     H90580  11.988   6.194   3.896 -1.1731 -0.9146  0.2108
  671MOL0     H90581  12.181   6.142   3.995 -0.3082 -0.9505 -0.1637
  671MOL0     H90582  12.222   6.302   3.932  2.2034 -0.0541 -2.2636
  671MOL0     H90583  12.489   6.132   3.686 -1.2319 -1.8371 -1.6095
  671MOL0     H90584  11.798   6.239   3.414  1.8180  0.0823  1.3578
  671MOL0     H90585  11.616   6.133   3.327  3.2072  1.4430  0.3770
  672MOL0     O90586   3.772   6.888   9.186 -0.3199 -0.2089 -0.0453
  672MOL0     C90587   3.800   6.967   9.095 -0.9626 -0.4031 -0.2483
  672MOL0     O90588   3.719   7.037   9.021  0.6030  0.3801 -0.1114
  672MOL0     C90589   3.592   7.005   9.047  0.9706  0.2162 -0.0313
  672MOL0     C90590   3.520   7.064   9.157  1.1584 -0.0640 -0.1270
  672MOL0     C90591   3.391   7.016   9.179 -0.4796 -0.5369 -0.1405
  672MOL0     C90592   3.327   6.922   9.091  0.4565 -1.5057  0.2526
  672MOL0     O90593   3.197   6.879   9.125 -0.0956  1.0699  0.1377
  672MOL0     C90594   3.103   6.833   9.027 -0.2971  0.0196 -0.5724
  672MOL0     C90595   2.979   6.778   9.098 -0.4519  0.5262 -0.1311
  672MOL0     C90596   2.920   6.889   9.200  0.1527 -0.0054 -0.1453
  672MOL0     C90597   2.803   6.838   9.284  0.3216  0.7692 -0.7781
  672MOL0     C90598   2.679   6.818   9.192 -0.6589 -0.5784 -0.4752
  672MOL0     C90599   2.540   6.771   9.252 -0.0722  0.9901  0.3826
  672MOL0     C90600   2.555   6.667   9.361  0.3175 -0.1072 -0.4329
  672MOL0     C90601   2.426   6.630   9.431  0.4765 -0.3954 -0.3870
  672MOL0     N90602   2.338   6.538   9.354  0.1894 -0.1467 -0.3437
  672MOL0     C90603   2.269   6.440   9.416 -0.7377  0.4753  0.1608
  672MOL0     C90604   2.198   6.379   9.317 -0.1012 -0.4235 -0.8446
  672MOL0     C90605   2.108   6.262   9.338  0.1475  1.2984  0.6368
  672MOL0     C90606   1.961   6.309   9.348  0.2110 -1.0469  0.5363
  672MOL0     C90607   1.870   6.190   9.391 -0.0526 -0.2404 -0.4517
  672MOL0     C90608   1.715   6.217   9.378 -0.5412  1.0748  0.1370
  672MOL0     O90609   1.681   6.326   9.457  0.1504  0.4319 -0.1696
  672MOL0     C90610   1.551   6.377   9.455  0.1299  1.2891  0.0788
  672MOL0     C90611   1.440   6.338   9.366  0.5810 -0.5703 -0.0789
  672MOL0     C90612   1.313   6.400   9.380  1.1958 -0.0811 -0.7644
  672MOL0     C90613   1.209   6.346   9.286  0.8822  0.2341 -0.0753
  672MOL0     C90614   1.286   6.483   9.494  0.6551  0.1781  0.3022
  672MOL0     C90615   1.152   6.542   9.517 -0.5811  0.3564 -0.3290
  672MOL0     O90616   1.053   6.548   9.414 -0.6428  0.4482 -0.0215
  672MOL0     C90617   0.936   6.620   9.444 -0.3266 -0.0891 -1.5205
  672MOL0     C90618   0.848   6.591   9.557 -0.3269  0.2257 -0.0196
  672MOL0     C90619   0.730   6.667   9.576  0.3532 -0.1851  0.1437
  672MOL0     C90620   0.709   6.782   9.486  0.1433  0.2042 -0.1055
  672MOL0     O90621   0.605   6.871   9.495 -1.0028  0.5607 -0.4626
  672MOL0     C90622   0.521   6.867   9.619 -0.0326 -1.0503  1.0709
  672MOL0     C90623   0.398   6.959   9.583  0.0953 -0.1823 -0.1107
  672MOL0     C90624   0.319   6.964   9.717  0.6238  0.1952 -0.0499
  672MOL0     C90625   0.195   7.046   9.702 -0.1566 -0.2389  0.4771
  672MOL0     C90626   0.120   7.061   9.838 -0.0296  0.4368  0.5730
  672MOL0     C90627  -0.014   7.139   9.833 -0.3650 -0.6075  0.4472
  672MOL0     C90628  -0.112   7.112   9.720 -0.8660 -0.7471  0.7551
  672MOL0     C90629  -0.251   7.176   9.724  0.7160 -1.0561 -0.2288
  672MOL0    Cl90630  -0.326   7.159   9.891 -0.3527  0.2589 -0.1628
  672MOL0     C90631   0.799   6.805   9.391  0.2595  0.5462 -0.0580
  672MOL0     C90632   0.911   6.732   9.374  0.3410 -1.0474  0.5815
  672MOL0     O90633   1.139   6.588   9.630 -0.7749 -0.5814  0.4357
  672MOL0     C90634   1.397   6.525   9.568 -0.0931  0.3686  0.5680
  672MOL0     C90635   1.524   6.474   9.549 -0.2223  0.3517 -0.2565
  672MOL0     N90636   2.233   6.433   9.197  0.5559  0.4005  1.0134
  672MOL0     N90637   2.309   6.536   9.221 -0.3982  0.0630  0.9265
  672MOL0     C90638   3.395   6.894   8.970  0.3391  0.1774 -0.5215
  672MOL0     C90639   3.526   6.926   8.953 -0.1660  0.0053  0.2176
  672MOL0     C90640   3.947   6.984   9.067 -0.6162 -0.4270  0.3158
  672MOL0     C90641   4.044   6.905   9.131 -0.2323  0.2518 -0.8701
  672MOL0     C90642   4.172   6.926   9.095 -0.6415  0.6551 -0.6177
  672MOL0     C90643   4.219   7.022   9.009  0.1354 -0.1737  0.9696
  672MOL0     O90644   4.352   7.036   8.975 -0.4498  0.4273  0.8528
  672MOL0     C90645   4.444   7.018   9.077  0.2376 -0.8286 -0.7021
  672MOL0     C90646   4.572   7.070   9.034  0.4396  0.3643  0.6868
  672MOL0     C90647   4.660   7.078   9.165  0.0031 -0.3866 -0.0917
  672MOL0     C90648   4.805   7.094   9.142  0.8616  0.1673  0.7382
  672MOL0     C90649   4.887   7.071   9.267  0.3783 -0.1044  0.1079
  672MOL0     C90650   4.939   7.059   9.378  0.2558 -0.1288 -0.2090
  672MOL0     C90651   4.124   7.104   8.954 -0.6540 -0.6171 -0.8839
  672MOL0     C90652   3.988   7.087   8.986 -0.9309 -0.6314  0.1911
  672MOL0     H90653   3.568   7.137   9.222  0.0529 -1.0908  1.9404
  672MOL0     H90654   3.325   7.059   9.254 -2.1992  3.5743 -3.6448
  672MOL0     H90655   3.076   6.910   8.954 -0.3203 -0.2374 -0.8371
  672MOL0     H90656   3.150   6.748   8.976  0.6509 -0.5374  1.1266
  672MOL0     H90657   2.902   6.759   9.023 -0.4461  0.0697 -0.0210
  672MOL0     H90658   3.009   6.682   9.142  0.2295  0.9059  0.2672
  672MOL0     H90659   3.005   6.914   9.264  0.9330 -1.9921 -0.3107
  672MOL0     H90660   2.895   6.978   9.142  0.2653  0.0602 -0.0936
  672MOL0     H90661   2.828   6.737   9.317  0.4994  0.6405 -1.3046
  672MOL0     H90662   2.795   6.897   9.376  3.1757 -0.1852  0.2150
  672MOL0     H90663   2.666   6.912   9.138 -0.2081 -2.0579 -3.4363
  672MOL0     H90664   2.696   6.748   9.109  2.5083  0.7224 -1.0640
  672MOL0     H90665   2.484   6.859   9.285 -0.6213  1.0081 -0.5474
  672MOL0     H90666   2.480   6.732   9.169  1.4031 -0.2964 -0.1211
  672MOL0     H90667   2.613   6.583   9.323  1.2929  0.0555  0.6335
  672MOL0     H90668   2.613   6.712   9.443 -0.4875 -1.0682  0.6971
  672MOL0     H90669   2.366   6.717   9.459  0.9667 -0.3947  0.7156
  672MOL0     H90670   2.450   6.589   9.530 -1.5540  4.3669  2.4177
  672MOL0     H90671   2.268   6.415   9.521  1.7056 -1.1967 -0.1178
  672MOL0     H90672   2.123   6.191   9.256  2.6794  1.9980  0.3970
  672MOL0     H90673   2.139   6.214   9.431 -1.0056  1.1080  0.9346
  672MOL0     H90674   1.947   6.345   9.246  1.6341 -1.4599  0.1802
  672MOL0     H90675   1.953   6.387   9.424  1.6160  0.8838 -1.2012
  672MOL0     H90676   1.891   6.159   9.493 -2.4790  3.6635  1.5073
  672MOL0     H90677   1.898   6.111   9.321 -0.0123  1.6055 -2.6294
  672MOL0     H90678   1.679   6.119   9.411  0.5212 -0.0091 -1.6830
  672MOL0     H90679   1.679   6.237   9.276  3.7079  1.1984 -1.5635
  672MOL0     H90680   1.460   6.264   9.290 -1.7908 -1.1246 -0.2582
  672MOL0     H90681   1.260   6.290   9.208  1.9107  3.9284 -2.2745
  672MOL0     H90682   1.133   6.284   9.336  0.6843  1.7964  1.6953
  672MOL0     H90683   1.149   6.424   9.238 -0.7620 -0.3074  0.9951
  672MOL0     H90684   0.866   6.501   9.616  0.1338  2.0953  2.9184
  672MOL0     H90685   0.651   6.633   9.642 -1.6864  0.7420 -1.7129
  672MOL0     H90686   0.489   6.765   9.640  0.6544 -1.7046 -0.9153
  672MOL0     H90687   0.578   6.907   9.704 -1.8683  1.1710  1.3840
  672MOL0     H90688   0.433   7.059   9.559  0.0676 -0.3564 -0.8955
  672MOL0     H90689   0.328   6.917   9.511 -1.7927  1.2782  0.7824
  672MOL0     H90690   0.384   7.011   9.791  0.9520 -0.7146  0.2463
  672MOL0     H90691   0.294   6.864   9.751 -0.4933  0.6010  0.3609
  672MOL0     H90692   0.231   7.143   9.666  1.1988 -0.9888 -0.2898
  672MOL0     H90693   0.134   7.002   9.622 -1.9276  0.0616  1.6222
  672MOL0     H90694   0.185   7.117   9.906  1.2164 -0.7219  0.3688
  672MOL0     H90695   0.100   6.965   9.885  0.1213  1.1442  2.1506
  672MOL0     H90696  -0.064   7.145   9.930 -1.5726 -0.6422 -0.1524
  672MOL0     H90697   0.014   7.243   9.811  3.0522 -1.2756  1.1586
  672MOL0     H90698  -0.118   7.004   9.701  5.2921 -1.4327  0.7257
  672MOL0     H90699  -0.056   7.147   9.633  1.3920 -2.4761  1.4178
  672MOL0     H90700  -0.321   7.134   9.651 -0.7099 -0.9261  1.0296
  672MOL0     H90701  -0.237   7.283   9.706  1.6071 -0.7410  2.0065
  672MOL0     H90702   0.762   6.880   9.322  0.9929 -0.4762 -1.6184
  672MOL0     H90703   0.983   6.765   9.300 -0.2905  0.5292  0.6391
  672MOL0     H90704   1.382   6.585   9.657  0.0023  2.0672 -0.5252
  672MOL0     H90705   1.598   6.512   9.618  0.7885  0.9384 -1.6220
  672MOL0     H90706   3.348   6.832   8.895 -1.8056 -0.4528  1.2398
  672MOL0     H90707   3.573   6.884   8.865  0.3479 -2.5836  1.6362
  672MOL0     H90708   4.022   6.829   9.206 -1.2630  3.1459  1.9943
  672MOL0     H90709   4.246   6.856   9.135 -1.8503 -0.4810 -0.2766
  672MOL0     H90710   4.406   7.072   9.164  3.6677  0.3008  0.2136
  672MOL0     H90711   4.449   6.911   9.100 -0.7163 -0.9140 -0.8501
  672MOL0     H90712   4.564   7.162   8.976 -3.3728 -0.3490 -0.1737
  672MOL0     H90713   4.612   6.988   8.973  1.5015  0.0046  1.8132
  672MOL0     H90714   4.643   6.989   9.226  0.5233 -0.7737 -0.4983
  672MOL0     H90715   4.619   7.152   9.234  1.1135 -0.5230  0.7495
  672MOL0     H90716   4.821   7.192   9.095  5.1784 -1.5067 -1.8649
  672MOL0     H90717   4.847   7.028   9.066 -1.1117  0.9621 -1.1590
  672MOL0     H90718   4.985   7.050   9.474 -1.6189  0.8022  0.8130
  672MOL0     H90719   4.148   7.181   8.881 -1.9342 -0.8121 -1.5528
  672MOL0     H90720   3.917   7.160   8.947  0.9092  0.8640 -0.4827
  673MOL0     O90721   1.285  11.073   2.226  0.6009  0.5750 -0.7007
  673MOL0     C90722   1.290  11.177   2.290  0.9210 -0.9502  0.1755
  673MOL0     O90723   1.183  11.225   2.359  0.7752 -0.4556 -0.2140
  673MOL0     C90724   1.059  11.170   2.325 -0.0834 -0.6292  0.2818
  673MOL0     C90725   1.006  11.196   2.198 -0.2373 -0.1090  0.5115
  673MOL0     C90726   0.883  11.134   2.151 -0.4323 -0.5608  1.0241
  673MOL0     C90727   0.815  11.060   2.247  0.2182 -0.1259 -0.5947
  673MOL0     O90728   0.692  11.003   2.219 -0.1135 -0.1865 -0.8435
  673MOL0     C90729   0.609  11.067   2.126  0.7764  0.3707  0.5615
  673MOL0     C90730   0.472  11.001   2.111  0.1143 -0.7719  0.9422
  673MOL0     C90731   0.428  11.022   1.961  0.5094  0.7915  0.1147
  673MOL0     C90732   0.274  11.000   1.943 -0.3591  0.6660  0.5186
  673MOL0     C90733   0.214  10.878   2.019  0.5322 -1.0294 -0.8368
  673MOL0     C90734   0.057  10.874   2.002 -0.1358  0.4567 -0.0895
  673MOL0     C90735  -0.027  10.765   2.067  0.5771  0.2460 -0.1823
  673MOL0     C90736  -0.016  10.785   2.216  0.0537  1.2915  0.1413
  673MOL0     N90737  -0.122  10.693   2.269  0.5992  0.0207  0.4961
  673MOL0     C90738  -0.103  10.565   2.319 -0.0064 -0.1082  0.2952
  673MOL0     C90739  -0.216  10.527   2.380  0.6609  0.1441  1.4401
  673MOL0     C90740  -0.258  10.395   2.440  0.3349  0.0835  0.3811
  673MOL0     C90741  -0.136  10.297   2.458  1.1155 -0.0460 -0.2386
  673MOL0     C90742  -0.175  10.181   2.558 -0.6114 -1.2257 -0.0932
  673MOL0     C90743  -0.304  10.107   2.528 -0.0437 -0.4716 -0.2868
  673MOL0     O90744  -0.300   9.980   2.599 -0.3454  0.5610 -0.9229
  673MOL0     C90745  -0.403   9.890   2.591 -0.4866  0.0606  0.5812
  673MOL0     C90746  -0.510   9.907   2.510 -0.4631  0.1373  0.3993
  673MOL0     C90747  -0.619   9.819   2.518  0.3609  0.9797  0.0343
  673MOL0     C90748  -0.747   9.849   2.433  0.2741  0.2648 -0.1181
  673MOL0     C90749  -0.619   9.720   2.619 -0.2304  0.1979  0.4639
  673MOL0     C90750  -0.738   9.640   2.651 -0.9238 -0.0827  0.3591
  673MOL0     O90751  -0.855   9.708   2.664 -0.5879 -0.3480  0.2068
  673MOL0     C90752  -0.966   9.639   2.670  0.1891  0.2510 -0.2739
  673MOL0     C90753  -1.056   9.665   2.561 -0.9593 -0.6739 -0.0100
  673MOL0     C90754  -1.176   9.605   2.576  1.0870 -0.0460 -0.6096
  673MOL0     C90755  -1.212   9.521   2.688  0.1874  0.2442  0.6754
  673MOL0     O90756  -1.344   9.484   2.668 -0.1306  0.1580  0.6342
  673MOL0     C90757  -1.395   9.382   2.753 -0.0939  0.3463  0.0502
  673MOL0     C90758  -1.502   9.314   2.666 -0.0632  0.2741 -0.6285
  673MOL0     C90759  -1.619   9.405   2.643 -0.0336 -0.2179 -0.1189
  673MOL0     C90760  -1.732   9.328   2.581 -1.2062 -0.0498  0.0329
  673MOL0     C90761  -1.870   9.387   2.643  0.2650  0.9693  0.2736
  673MOL0     C90762  -1.986   9.320   2.577  0.3921 -0.2017 -0.2401
  673MOL0     C90763  -1.970   9.167   2.588  0.1888  0.5870 -0.5448
  673MOL0     C90764  -2.107   9.103   2.602 -0.5272 -0.5553 -0.1699
  673MOL0    Cl90765  -2.189   9.134   2.454 -0.5002 -0.2741 -0.3931
  673MOL0     C90766  -1.119   9.494   2.788  0.1066 -0.2217  0.7205
  673MOL0     C90767  -1.000   9.556   2.776  0.1363  0.0247  1.0059
  673MOL0     O90768  -0.716   9.526   2.689  0.4341 -0.0516  0.1617
  673MOL0     C90769  -0.510   9.711   2.711 -0.0454 -0.1536  0.0020
  673MOL0     C90770  -0.403   9.797   2.690  0.2259 -0.0958  0.4021
  673MOL0     N90771  -0.306  10.632   2.367  0.3743 -0.1308  0.5645
  673MOL0     N90772  -0.247  10.733   2.304 -0.6921  0.0291  0.0214
  673MOL0     C90773   0.863  11.033   2.373 -0.6142 -0.2686 -0.0642
  673MOL0     C90774   0.979  11.095   2.422  0.4936 -0.7431  0.0700
  673MOL0     C90775   1.415  11.257   2.306 -0.7428 -1.2236  1.1554
  673MOL0     C90776   1.524  11.250   2.212  0.3418 -0.1496 -0.5193
  673MOL0     C90777   1.642  11.325   2.237  0.1465 -0.1146 -0.0403
  673MOL0     C90778   1.664  11.401   2.348 -0.0616 -0.2450  0.8290
  673MOL0     O90779   1.788  11.452   2.351  0.1416  0.4771 -0.0622
  673MOL0     C90780   1.813  11.566   2.437 -0.0655  1.0552  0.0773
  673MOL0     C90781   1.964  11.608   2.409  0.2911  0.5418  0.0268
  673MOL0     C90782   2.055  11.492   2.456  0.0141 -0.2538 -0.5548
  673MOL0     C90783   2.199  11.546   2.473 -0.6868 -0.8179  0.4472
  673MOL0     C90784   2.289  11.479   2.558  0.0863 -0.1694 -0.5671
  673MOL0     C90785   2.380  11.427   2.611 -0.2875  0.7286 -0.0862
  673MOL0     C90786   1.556  11.412   2.434  0.4138  0.2963 -0.5542
  673MOL0     C90787   1.432  11.353   2.407 -0.2593  0.8748  0.2298
  673MOL0     H90788   1.047  11.261   2.121 -1.4700 -0.4728 -0.4796
  673MOL0     H90789   0.855  11.152   2.047  2.6218  0.8857  0.3464
  673MOL0     H90790   0.590  11.172   2.150 -1.3299 -0.3871  2.5939
  673MOL0     H90791   0.665  11.061   2.032  1.5615 -2.7797  1.1289
  673MOL0     H90792   0.469  10.893   2.129 -1.2248 -1.0997 -0.9979
  673MOL0     H90793   0.401  11.040   2.184  0.2256  0.5584  0.3627
  673MOL0     H90794   0.443  11.123   1.923 -2.6681  1.3282  0.0629
  673MOL0     H90795   0.485  10.947   1.905 -0.0517  1.9645 -2.1030
  673MOL0     H90796   0.220  11.090   1.974  0.7772  1.1542  1.1506
  673MOL0     H90797   0.254  11.005   1.836 -0.4691  0.0290  0.5057
  673MOL0     H90798   0.257  10.786   1.977  2.6180 -0.2052 -0.6586
  673MOL0     H90799   0.228  10.899   2.125 -1.3352  2.8086 -1.1949
  673MOL0     H90800   0.022  10.964   2.053 -0.8364  0.5717 -0.7515
  673MOL0     H90801   0.037  10.879   1.894 -0.6967  1.7916  0.0547
  673MOL0     H90802  -0.127  10.788   2.030  2.0985  2.9689 -3.1630
  673MOL0     H90803  -0.011  10.667   2.021  1.3423 -0.1080  0.8084
  673MOL0     H90804  -0.051  10.882   2.251 -1.6582 -0.1602  2.9128
  673MOL0     H90805   0.083  10.752   2.251 -0.6308 -3.4109 -1.5890
  673MOL0     H90806  -0.010  10.511   2.308  1.1629  2.1985 -2.2097
  673MOL0     H90807  -0.295  10.416   2.540  0.2471  0.6181  0.2415
  673MOL0     H90808  -0.332  10.368   2.364  0.2932 -0.8802  0.7531
  673MOL0     H90809  -0.047  10.350   2.493  0.9525  1.8316 -2.4027
  673MOL0     H90810  -0.119  10.247   2.362 -3.5532 -1.5697 -0.5590
  673MOL0     H90811  -0.180  10.233   2.654 -0.0888  1.4894 -1.4245
  673MOL0     H90812  -0.097  10.104   2.559 -0.8533 -1.6311 -3.1502
  673MOL0     H90813  -0.308  10.095   2.419 -1.2615 -2.1192 -0.1004
  673MOL0     H90814  -0.394  10.169   2.537 -0.2798 -0.6659 -1.1801
  673MOL0     H90815  -0.524   9.996   2.449  1.3228  3.0251  3.8819
  673MOL0     H90816  -0.828   9.892   2.493 -1.3316 -0.7837 -1.4374
  673MOL0     H90817  -0.717   9.905   2.343  2.0685  3.0026  2.0245
  673MOL0     H90818  -0.790   9.753   2.402  1.2924  0.3845 -2.0665
  673MOL0     H90819  -1.052   9.747   2.491  1.6271 -1.2852 -0.6602
  673MOL0     H90820  -1.258   9.618   2.507 -0.7578 -0.1057  1.4693
  673MOL0     H90821  -1.331   9.297   2.777 -2.8041 -2.1801 -1.0060
  673MOL0     H90822  -1.431   9.419   2.849 -0.0605 -2.3218  1.1550
  673MOL0     H90823  -1.465   9.301   2.564  0.2991 -0.9786 -0.3605
  673MOL0     H90824  -1.540   9.218   2.703 -1.6051  1.2986  0.5797
  673MOL0     H90825  -1.591   9.489   2.578  1.0681 -1.5230 -1.3898
  673MOL0     H90826  -1.649   9.445   2.740 -0.9023 -1.6396  0.2306
  673MOL0     H90827  -1.724   9.325   2.472 -0.2376 -3.9726  0.0562
  673MOL0     H90828  -1.726   9.227   2.622 -0.6930  0.5497  1.5328
  673MOL0     H90829  -1.883   9.495   2.631 -2.3379  0.9516  2.1482
  673MOL0     H90830  -1.881   9.369   2.750  1.2902  0.8578  0.3702
  673MOL0     H90831  -2.078   9.356   2.625  0.5651 -2.2957  1.8103
  673MOL0     H90832  -1.981   9.356   2.474 -0.3610  1.7335  0.3564
  673MOL0     H90833  -1.911   9.130   2.673  0.3547  0.8115 -0.5619
  673MOL0     H90834  -1.921   9.126   2.500 -1.0635 -2.1215 -0.0978
  673MOL0     H90835  -2.159   9.159   2.681 -0.9200 -0.2846 -0.6120
  673MOL0     H90836  -2.107   8.997   2.626  1.6288 -0.8436 -1.2515
  673MOL0     H90837  -1.143   9.431   2.874 -0.5880 -2.3953 -0.9527
  673MOL0     H90838  -0.920   9.544   2.848  0.5314  0.6674  0.6782
  673MOL0     H90839  -0.508   9.646   2.798  0.0993 -0.6016 -0.3261
  673MOL0     H90840  -0.322   9.789   2.761 -1.6472 -4.1760  2.3506
  673MOL0     H90841   0.801  10.969   2.435 -2.9103  3.9774  2.4914
  673MOL0     H90842   1.027  11.084   2.519 -1.8592 -1.2591  1.2480
  673MOL0     H90843   1.522  11.193   2.119  0.9141 -2.2772  0.7002
  673MOL0     H90844   1.720  11.325   2.162  0.8455 -0.7820  0.6751
  673MOL0     H90845   1.756  11.653   2.406 -0.3467  0.9685  0.3383
  673MOL0     H90846   1.794  11.551   2.544 -0.7648  1.2510 -0.0156
  673MOL0     H90847   1.981  11.703   2.460 -0.2124  0.4685  0.3336
  673MOL0     H90848   1.976  11.611   2.300 -2.2892 -1.1630 -0.3978
  673MOL0     H90849   2.059  11.416   2.378  2.0186  0.0820 -0.8369
  673MOL0     H90850   2.001  11.453   2.543  1.0131 -1.0897 -0.2805
  673MOL0     H90851   2.196  11.652   2.499  2.1984 -0.7495  0.7352
  673MOL0     H90852   2.238  11.539   2.371 -0.1572 -0.5774  0.6337
  673MOL0     H90853   2.456  11.391   2.678  1.3355  1.1823 -1.6133
  673MOL0     H90854   1.558  11.460   2.532  1.7156  0.2578 -0.5381
  673MOL0     H90855   1.343  11.379   2.463 -0.4012  0.4934  0.1865
  674MOL0     O90856  10.675   4.381   3.073 -0.2257 -0.1014  0.0190
  674MOL0     C90857  10.764   4.437   2.998  0.0328  0.6652  0.3703
  674MOL0     O90858  10.816   4.394   2.885 -0.0991 -0.0222 -0.0642
  674MOL0     C90859  10.779   4.271   2.848  0.1126 -0.6130 -0.4582
  674MOL0     C90860  10.642   4.251   2.810 -0.3869 -0.2519  0.0546
  674MOL0     C90861  10.607   4.139   2.745 -0.7998  0.4286  0.2256
  674MOL0     C90862  10.697   4.026   2.727  0.6266 -0.2151  0.2014
  674MOL0     O90863  10.665   3.904   2.677  0.2394  0.7480 -0.4785
  674MOL0     C90864  10.541   3.886   2.612 -0.6229  0.1007  0.2148
  674MOL0     C90865  10.499   3.743   2.569 -0.1336  0.1698 -0.7035
  674MOL0     C90866  10.441   3.654   2.681 -0.8641  0.6204 -0.3000
  674MOL0     C90867  10.302   3.694   2.730 -0.0349 -0.2955 -0.8818
  674MOL0     C90868  10.260   3.595   2.834  0.7082 -1.2573 -0.1471
  674MOL0     C90869  10.257   3.452   2.797 -0.1443 -0.0060  1.1887
  674MOL0     C90870  10.175   3.382   2.905 -0.1742  0.7288 -0.7231
  674MOL0     C90871  10.202   3.236   2.897  1.1363 -0.7350  0.3329
  674MOL0     N90872  10.089   3.166   2.966 -0.5326  0.2161  0.3036
  674MOL0     C90873  10.005   3.083   2.900  0.6795  0.4250 -0.2780
  674MOL0     C90874   9.923   3.026   2.994  0.5222 -0.4813 -0.4474
  674MOL0     C90875   9.822   2.919   2.990  0.3863 -0.7215 -0.1449
  674MOL0     C90876   9.691   2.971   2.923  1.0840 -0.2812  0.4200
  674MOL0     C90877   9.604   3.058   3.013 -1.3423 -0.4239 -0.3626
  674MOL0     C90878   9.464   3.081   2.961  0.2393 -0.7728 -0.0151
  674MOL0     O90879   9.413   3.189   3.038  1.3784 -0.3392 -0.1102
  674MOL0     C90880   9.282   3.223   3.029  0.6667  0.2823  0.3610
  674MOL0     C90881   9.226   3.298   3.137 -0.1023  0.4320 -0.0861
  674MOL0     C90882   9.095   3.339   3.119  0.8578 -0.2714 -0.5690
  674MOL0     C90883   9.031   3.437   3.218 -0.6616 -0.3373  0.7357
  674MOL0     C90884   9.019   3.319   3.001  0.0539 -0.0222  0.5703
  674MOL0     C90885   8.892   3.384   2.965 -0.0982 -0.6075  0.4531
  674MOL0     O90886   8.869   3.408   2.829 -0.3029  0.2780 -0.3216
  674MOL0     C90887   8.755   3.471   2.791  0.5305 -0.2980 -0.6861
  674MOL0     C90888   8.712   3.587   2.851 -1.1296  0.2362 -0.4790
  674MOL0     C90889   8.604   3.657   2.799 -0.0418  0.8262  0.5827
  674MOL0     C90890   8.543   3.609   2.686  1.0052 -0.1759  0.5551
  674MOL0     O90891   8.449   3.696   2.628 -0.5482 -0.8808 -0.0391
  674MOL0     C90892   8.477   3.736   2.495 -0.3671  1.3958  0.4661
  674MOL0     C90893   8.372   3.840   2.465 -0.9112  0.4078 -0.2959
  674MOL0     C90894   8.350   3.860   2.319  0.4861  0.4420 -0.7219
  674MOL0     C90895   8.237   3.963   2.299  0.1540 -0.5941  0.5790
  674MOL0     C90896   8.196   3.964   2.148  0.5874 -0.5521 -0.3266
  674MOL0     C90897   8.100   4.083   2.111 -1.1147 -0.7648  0.3741
  674MOL0     C90898   7.965   4.051   2.149  0.8454  0.8238  0.2056
  674MOL0     C90899   7.876   4.171   2.143 -0.3697 -0.9579  0.3028
  674MOL0    Cl90900   7.899   4.251   1.982  0.0494 -0.0990 -0.1665
  674MOL0     C90901   8.580   3.488   2.630  0.0809 -0.1259 -0.5856
  674MOL0     C90902   8.693   3.420   2.677  0.0205  0.4381  0.1782
  674MOL0     O90903   8.797   3.386   3.040 -0.8474  0.1127 -0.2250
  674MOL0     C90904   9.069   3.229   2.902 -0.4400  0.2595 -0.3518
  674MOL0     C90905   9.201   3.184   2.920  0.1232  0.1083 -0.3438
  674MOL0     N90906   9.955   3.079   3.116  0.2304 -0.5481 -0.1703
  674MOL0     N90907  10.048   3.171   3.097 -0.0732 -0.4749 -0.6382
  674MOL0     C90908  10.829   4.047   2.755 -0.4281 -0.4061 -0.0723
  674MOL0     C90909  10.876   4.169   2.812  0.8072  0.3549 -0.6097
  674MOL0     C90910  10.822   4.559   3.047  0.9551  0.3150 -0.3573
  674MOL0     C90911  10.758   4.612   3.164  0.4126  0.3358 -0.1003
  674MOL0     C90912  10.799   4.740   3.221  0.4472  0.9105 -0.9432
  674MOL0     C90913  10.905   4.805   3.166 -0.4519 -0.4464 -0.2840
  674MOL0     O90914  10.936   4.924   3.224  0.0709  0.0825 -0.0597
  674MOL0     C90915  11.051   4.996   3.183  0.0233  0.6246 -0.1194
  674MOL0     C90916  11.048   5.134   3.247  0.0500  0.5351 -0.0950
  674MOL0     C90917  11.173   5.218   3.228 -0.7621 -0.3624 -0.5609
  674MOL0     C90918  11.152   5.337   3.144 -0.3785  0.1007  0.1579
  674MOL0     C90919  11.266   5.424   3.166  0.2218 -0.8778 -0.9121
  674MOL0     C90920  11.360   5.493   3.216 -0.4023 -0.0178  0.2267
  674MOL0     C90921  10.982   4.736   3.069 -0.1422 -0.8956  0.0507
  674MOL0     C90922  10.934   4.624   3.001  0.5194 -0.6560  0.1474
  674MOL0     H90923  10.579   4.338   2.823  1.1446  1.1243 -1.2987
  674MOL0     H90924  10.501   4.150   2.723 -0.8210  0.6886  0.4436
  674MOL0     H90925  10.465   3.926   2.680 -0.1549  0.0213  0.7839
  674MOL0     H90926  10.550   3.946   2.520  0.9490  0.0511  0.3172
  674MOL0     H90927  10.418   3.738   2.494  1.1908 -1.6493 -2.1080
  674MOL0     H90928  10.588   3.704   2.519  0.9714  0.9081  0.6155
  674MOL0     H90929  10.424   3.557   2.632 -1.0198 -0.3887  1.6495
  674MOL0     H90930  10.506   3.623   2.764 -0.8658 -2.4183 -1.2937
  674MOL0     H90931  10.308   3.800   2.756 -1.1449  0.0443 -1.9411
  674MOL0     H90932  10.227   3.704   2.651 -1.3539  0.3278  0.3991
  674MOL0     H90933  10.320   3.619   2.922  2.2565  0.1218 -1.5037
  674MOL0     H90934  10.155   3.617   2.853  0.2896 -3.7188  0.7412
  674MOL0     H90935  10.206   3.432   2.702  1.7771  1.1012 -0.1431
  674MOL0     H90936  10.360   3.416   2.802 -0.1226  0.1711  2.1409
  674MOL0     H90937  10.212   3.407   3.005  0.1270 -0.9952 -0.3735
  674MOL0     H90938  10.067   3.396   2.896 -0.5896  1.0128  3.0233
  674MOL0     H90939  10.305   3.213   2.925  1.4833  1.6169  1.1923
  674MOL0     H90940  10.181   3.216   2.791 -0.6315 -1.8680  0.8671
  674MOL0     H90941  10.004   3.069   2.793  1.1732  0.3267 -0.2736
  674MOL0     H90942   9.861   2.841   2.924  1.9647  1.4921 -1.9696
  674MOL0     H90943   9.796   2.887   3.091 -1.2639 -2.2906 -0.9936
  674MOL0     H90944   9.625   2.887   2.899  2.2217 -0.7364 -1.2594
  674MOL0     H90945   9.714   3.023   2.830  3.1952 -0.7888  0.6036
  674MOL0     H90946   9.646   3.158   3.023  0.0397 -1.2120  3.1976
  674MOL0     H90947   9.606   3.010   3.111  0.9433 -2.6377 -1.3696
  674MOL0     H90948   9.408   2.994   2.995  0.9814 -0.3019  2.6007
  674MOL0     H90949   9.462   3.084   2.851 -1.2804  0.3024  0.0033
  674MOL0     H90950   9.283   3.327   3.225  0.2120 -0.0679 -0.1198
  674MOL0     H90951   9.007   3.535   3.175  1.4139  0.1359  0.5389
  674MOL0     H90952   8.942   3.395   3.266 -0.3461 -0.9518  0.7881
  674MOL0     H90953   9.107   3.452   3.294  0.3846  1.0509 -0.5275
  674MOL0     H90954   8.757   3.629   2.941  1.0978  0.9770 -1.8699
  674MOL0     H90955   8.575   3.742   2.861  0.8879  0.5443  1.4257
  674MOL0     H90956   8.577   3.775   2.478  0.7604 -1.7642 -0.9926
  674MOL0     H90957   8.464   3.646   2.434 -2.4115  0.4824  2.1157
  674MOL0     H90958   8.281   3.799   2.509  2.1470 -3.7498  3.0482
  674MOL0     H90959   8.408   3.925   2.524  2.4671  0.6016 -2.3701
  674MOL0     H90960   8.316   3.774   2.261 -0.1830  1.3985 -1.7992
  674MOL0     H90961   8.437   3.909   2.275 -0.1669  2.1172 -0.2264
  674MOL0     H90962   8.151   3.930   2.358  0.6169 -1.4726  0.7783
  674MOL0     H90963   8.269   4.061   2.335  1.9125 -0.6499 -0.6868
  674MOL0     H90964   8.156   3.869   2.111 -1.3891 -0.1976  0.7244
  674MOL0     H90965   8.285   3.982   2.087  0.8985 -1.6558 -0.2128
  674MOL0     H90966   8.138   4.170   2.165 -1.4370 -1.6942  2.1999
  674MOL0     H90967   8.111   4.097   2.004  1.3130  0.6673  0.7422
  674MOL0     H90968   7.974   4.011   2.251  1.9958 -1.9696 -0.9018
  674MOL0     H90969   7.915   3.972   2.093  0.4834 -0.6188  2.4298
  674MOL0     H90970   7.912   4.240   2.220  1.9110  0.2368 -1.7324
  674MOL0     H90971   7.771   4.139   2.153 -0.3024 -1.4809 -0.5872
  674MOL0     H90972   8.515   3.434   2.562  0.7300 -0.0240 -1.2990
  674MOL0     H90973   8.716   3.322   2.637 -0.1849  0.2894  0.4193
  674MOL0     H90974   9.019   3.203   2.809 -1.3668 -1.5896  0.6186
  674MOL0     H90975   9.244   3.124   2.840 -0.4715  1.7417 -1.9558
  674MOL0     H90976  10.909   3.980   2.728  1.5718  1.6570  0.4277
  674MOL0     H90977  10.983   4.183   2.827  1.2625 -0.8539 -2.3495
  674MOL0     H90978  10.681   4.569   3.226  1.9122 -0.8449  1.0265
  674MOL0     H90979  10.764   4.783   3.314 -0.0230  0.7084 -1.0238
  674MOL0     H90980  11.136   4.938   3.220 -0.9582  0.4833  2.0355
  674MOL0     H90981  11.052   5.005   3.074  2.4604 -0.2621 -0.2259
  674MOL0     H90982  11.031   5.111   3.352  0.5725  0.0305 -0.1198
  674MOL0     H90983  10.958   5.179   3.203 -0.4777  0.4691  0.9022
  674MOL0     H90984  11.257   5.156   3.196 -0.3432 -1.0136  1.6225
  674MOL0     H90985  11.191   5.250   3.332  2.4625 -0.0479 -1.1093
  674MOL0     H90986  11.057   5.379   3.179 -0.3182 -0.7822  1.4267
  674MOL0     H90987  11.155   5.317   3.036  3.6400 -0.5921  0.2182
  674MOL0     H90988  11.443   5.547   3.256 -0.7496 -1.5531  3.3055
  674MOL0     H90989  11.073   4.780   3.029 -0.3713 -0.1735  0.3237
  674MOL0     H90990  10.997   4.583   2.922  2.1342  0.5861  0.7260
  675MOL0     O90991  10.864   2.324   4.766 -0.1079  0.1161  0.4860
  675MOL0     C90992  10.893   2.219   4.712  0.5540  0.2731 -0.3147
  675MOL0     O90993  10.792   2.133   4.659  0.7322  0.4637 -0.0059
  675MOL0     C90994  10.664   2.172   4.683 -0.3435 -0.2099  0.7340
  675MOL0     C90995  10.587   2.240   4.596  0.2923  0.3973  0.0356
  675MOL0     C90996  10.448   2.256   4.623  0.1713  0.0760 -0.2366
  675MOL0     C90997  10.380   2.208   4.735 -0.6891 -0.6662 -0.2084
  675MOL0     O90998  10.245   2.243   4.736 -0.0372  0.4483  1.1925
  675MOL0     C90999  10.172   2.217   4.851 -0.7527 -0.1223 -0.2034
  675MOL0     C91000  10.030   2.275   4.857 -0.1620  0.1116  0.0100
  675MOL0     C91001  10.018   2.420   4.917 -0.9708 -0.0395 -0.8798
  675MOL0     C91002   9.884   2.487   4.878 -0.6431 -0.3510  0.5858
  675MOL0     C91003   9.769   2.412   4.953  0.5851 -0.3490 -0.0097
  675MOL0     C91004   9.640   2.492   4.935  0.1215  0.7306  0.1547
  675MOL0     C91005   9.506   2.431   4.989  0.5990 -1.0696  0.3671
  675MOL0     C91006   9.384   2.525   4.948  0.3390 -0.0039 -0.5682
  675MOL0     N91007   9.251   2.459   4.908  0.2187  0.8203 -0.5000
  675MOL0     C91008   9.142   2.443   4.988  0.4914  0.0058  0.2612
  675MOL0     C91009   9.077   2.343   4.925 -0.5059  0.0519  0.0902
  675MOL0     C91010   8.935   2.315   4.973  0.1531  0.6305 -0.2447
  675MOL0     C91011   8.887   2.180   4.931  0.3497  0.6455  0.1109
  675MOL0     C91012   8.749   2.152   4.994  0.5259  0.0792 -0.4375
  675MOL0     C91013   8.652   2.054   4.920  0.1813  0.7426  0.4116
  675MOL0     O91014   8.617   2.098   4.785  0.0163  0.1635  0.5470
  675MOL0     C91015   8.507   2.042   4.725 -0.0295 -0.5042  0.1104
  675MOL0     C91016   8.460   1.921   4.764 -0.0336  0.1393 -0.6341
  675MOL0     C91017   8.349   1.860   4.708  0.1223 -0.0571  0.0369
  675MOL0     C91018   8.324   1.711   4.749  0.3222 -0.0669  0.3992
  675MOL0     C91019   8.279   1.933   4.613  0.1961 -0.3510 -0.4421
  675MOL0     C91020   8.158   1.886   4.536 -0.2814  0.5323  0.8555
  675MOL0     O91021   8.124   1.950   4.415 -0.4735  0.7041 -0.2739
  675MOL0     C91022   7.999   1.914   4.374  0.1680  0.7468 -0.6405
  675MOL0     C91023   7.976   1.781   4.328  0.7299  0.0318 -0.7290
  675MOL0     C91024   7.845   1.757   4.280  0.2041  0.6798  0.7733
  675MOL0     C91025   7.747   1.849   4.269  0.6352  0.5601  0.3738
  675MOL0     O91026   7.626   1.814   4.213  0.0021  0.3401  0.0610
  675MOL0     C91027   7.605   1.730   4.098 -0.0804 -0.0924  0.5865
  675MOL0     C91028   7.459   1.692   4.070 -0.6390  0.7544 -0.1491
  675MOL0     C91029   7.464   1.587   3.954 -0.2499  0.8870  0.2994
  675MOL0     C91030   7.332   1.583   3.871 -0.7967  0.2097  0.5776
  675MOL0     C91031   7.295   1.453   3.802 -0.6399  0.2773 -0.5680
  675MOL0     C91032   7.426   1.412   3.718 -0.1652  0.4231 -0.5766
  675MOL0     C91033   7.382   1.373   3.573 -0.0529  0.4588  0.5892
  675MOL0     C91034   7.500   1.327   3.476 -1.2270  0.0456  0.5931
  675MOL0    Cl91035   7.609   1.207   3.544 -0.0932 -0.0240  0.2123
  675MOL0     C91036   7.769   1.974   4.303 -0.5850 -0.6527 -0.4977
  675MOL0     C91037   7.894   2.007   4.361 -0.1887 -0.4640 -0.4279
  675MOL0     O91038   8.096   1.792   4.585  0.3600  0.0844 -0.6281
  675MOL0     C91039   8.316   2.065   4.590  0.0522 -0.2507  0.4091
  675MOL0     C91040   8.428   2.123   4.648 -0.3639  0.5146  0.0858
  675MOL0     N91041   9.149   2.305   4.814 -0.1031 -0.2653  0.7666
  675MOL0     N91042   9.249   2.373   4.799 -0.4436 -0.4402  0.7302
  675MOL0     C91043  10.456   2.138   4.822 -0.3996  0.5100  0.1653
  675MOL0     C91044  10.591   2.108   4.785 -0.2743  0.3910 -0.1000
  675MOL0     C91045  11.027   2.168   4.705 -0.4037 -0.3665  0.7773
  675MOL0     C91046  11.042   2.037   4.635  0.7235 -0.5813 -0.1427
  675MOL0     C91047  11.162   1.991   4.611  0.4421 -0.4409 -0.2814
  675MOL0     C91048  11.279   2.065   4.643  0.3468 -0.0343  0.2595
  675MOL0     O91049  11.402   2.016   4.623  0.3069  0.0435 -0.0701
  675MOL0     C91050  11.423   1.887   4.562 -0.1911 -0.8672 -0.3616
  675MOL0     C91051  11.558   1.829   4.594 -0.8194 -0.4080  0.0235
  675MOL0     C91052  11.602   1.821   4.750  0.1411 -1.3852  0.2749
  675MOL0     C91053  11.750   1.809   4.764 -0.9584  0.6270 -0.9843
  675MOL0     C91054  11.786   1.683   4.709 -1.0678  0.5117  0.6097
  675MOL0     C91055  11.813   1.573   4.653 -0.3382  1.1516 -0.0877
  675MOL0     C91056  11.261   2.180   4.709 -0.2929 -0.1990 -0.3904
  675MOL0     C91057  11.142   2.235   4.743 -0.5472 -1.1394  0.0906
  675MOL0     H91058  10.628   2.272   4.501 -0.9190  3.8103  0.5359
  675MOL0     H91059  10.393   2.311   4.547  1.3150  1.5038 -0.0714
  675MOL0     H91060  10.165   2.110   4.872  0.1340 -0.0530  0.4901
  675MOL0     H91061  10.220   2.256   4.940  0.5804 -2.2115  0.0641
  675MOL0     H91062   9.992   2.276   4.754 -1.1258  0.7940  0.3508
  675MOL0     H91063   9.962   2.212   4.915 -0.1951 -0.7004 -0.8757
  675MOL0     H91064  10.024   2.412   5.025 -0.4024 -2.7741 -1.0481
  675MOL0     H91065  10.098   2.484   4.877  2.7051 -2.3341  2.0400
  675MOL0     H91066   9.892   2.589   4.917  1.0507  0.8511 -2.5275
  675MOL0     H91067   9.880   2.494   4.768  0.0438  1.0582  0.6231
  675MOL0     H91068   9.759   2.315   4.904 -2.0660  0.9740 -2.4170
  675MOL0     H91069   9.786   2.391   5.059 -2.4058  0.3898  0.7084
  675MOL0     H91070   9.649   2.588   4.988 -1.7906  0.1927  1.5831
  675MOL0     H91071   9.628   2.508   4.828 -0.7562 -2.8763 -0.3872
  675MOL0     H91072   9.505   2.330   4.947  0.0626 -0.7466 -0.4312
  675MOL0     H91073   9.511   2.419   5.098  1.0927 -2.3847  0.2258
  675MOL0     H91074   9.405   2.584   4.858  0.3281 -0.9547 -1.2032
  675MOL0     H91075   9.376   2.599   5.029 -1.7880  1.6760 -2.1836
  675MOL0     H91076   9.143   2.485   5.088  3.6471  0.8185 -0.0108
  675MOL0     H91077   8.919   2.345   5.077  1.5849  0.6845 -0.0231
  675MOL0     H91078   8.869   2.388   4.924 -0.2702 -0.3750 -1.2257
  675MOL0     H91079   8.948   2.093   4.955  0.0516 -0.0213 -1.4845
  675MOL0     H91080   8.869   2.186   4.824  2.3365 -1.3043 -0.3916
  675MOL0     H91081   8.696   2.247   5.010  2.2395  0.7602  1.8550
  675MOL0     H91082   8.774   2.105   5.090  0.7680 -0.2925 -0.6812
  675MOL0     H91083   8.562   2.043   4.981  0.2832  4.3805  1.4514
  675MOL0     H91084   8.697   1.955   4.909 -1.3467  0.1631 -0.9601
  675MOL0     H91085   8.508   1.879   4.852 -0.7662  1.1229  0.2698
  675MOL0     H91086   8.221   1.689   4.777  0.7507 -2.6036  0.2213
  675MOL0     H91087   8.346   1.645   4.665  0.1842  1.3267 -0.7611
  675MOL0     H91088   8.382   1.681   4.837 -0.5919  0.4676  1.2064
  675MOL0     H91089   8.049   1.701   4.342  1.4550  0.8099  0.0929
  675MOL0     H91090   7.830   1.658   4.239 -1.8849  1.1223  0.3618
  675MOL0     H91091   7.646   1.769   4.005 -1.6824 -1.9272 -0.9778
  675MOL0     H91092   7.660   1.636   4.104 -1.9633 -1.1478  2.8054
  675MOL0     H91093   7.410   1.650   4.159 -2.7477  1.1536 -1.0563
  675MOL0     H91094   7.402   1.777   4.033 -0.9347  1.4157  1.7269
  675MOL0     H91095   7.473   1.485   3.993 -0.5238  0.8214  0.1932
  675MOL0     H91096   7.544   1.609   3.883 -1.6594 -1.6998 -2.3261
  675MOL0     H91097   7.250   1.612   3.937 -2.3512 -4.9761  1.3759
  675MOL0     H91098   7.341   1.665   3.799  0.9796  1.9539  2.6242
  675MOL0     H91099   7.203   1.463   3.744 -2.7045 -1.1479  2.2368
  675MOL0     H91100   7.280   1.381   3.882 -2.3727  0.1374 -0.9775
  675MOL0     H91101   7.493   1.497   3.702 -1.4755  1.1439 -2.6731
  675MOL0     H91102   7.474   1.332   3.775 -0.5978 -1.4099 -2.6198
  675MOL0     H91103   7.326   1.447   3.516  0.9353 -0.2894 -1.4482
  675MOL0     H91104   7.315   1.287   3.575  1.9601 -1.2028  0.3164
  675MOL0     H91105   7.551   1.421   3.453 -0.7330 -0.3305  0.1074
  675MOL0     H91106   7.471   1.279   3.382  2.4259  1.4593 -1.4767
  675MOL0     H91107   7.699   2.053   4.277  1.3655  1.4219  0.2948
  675MOL0     H91108   7.905   2.111   4.392 -2.9711 -0.4413  0.7767
  675MOL0     H91109   8.254   2.128   4.527 -0.8137  0.7108  2.1484
  675MOL0     H91110   8.456   2.226   4.630  3.2133 -0.6026 -1.6756
  675MOL0     H91111  10.410   2.090   4.908 -0.8081  0.6844  0.0436
  675MOL0     H91112  10.651   2.041   4.845  1.2467  0.5253 -1.3918
  675MOL0     H91113  10.958   1.978   4.600 -0.9271  0.0510  2.4896
  675MOL0     H91114  11.150   1.893   4.566 -2.8518 -1.5776  2.5828
  675MOL0     H91115  11.352   1.816   4.604 -0.4937  1.8608  4.5117
  675MOL0     H91116  11.420   1.880   4.453 -0.7480  1.7003 -0.5773
  675MOL0     H91117  11.628   1.901   4.552  0.7323 -1.4158  0.8042
  675MOL0     H91118  11.576   1.736   4.541 -0.2427 -1.6075  2.2038
  675MOL0     H91119  11.544   1.741   4.797 -0.4299 -1.4012 -0.4361
  675MOL0     H91120  11.572   1.903   4.816 -1.9580 -1.9308  0.0602
  675MOL0     H91121  11.768   1.814   4.872  0.3879  1.4989 -1.2243
  675MOL0     H91122  11.799   1.896   4.718 -1.8040  2.0766  0.7032
  675MOL0     H91123  11.802   1.475   4.611 -2.8412  0.7022  1.4424
  675MOL0     H91124  11.343   2.245   4.736  0.0792 -0.2408 -1.3923
  675MOL0     H91125  11.131   2.331   4.793 -2.1623 -2.3505  2.1792
  676MOL0     O91126   3.710   4.595   2.814 -0.0387  0.2278  0.1005
  676MOL0     C91127   3.807   4.523   2.798 -0.2319  1.3033  0.9275
  676MOL0     O91128   3.811   4.412   2.723 -0.0171  0.1763 -0.1331
  676MOL0     C91129   3.717   4.377   2.632 -0.4223 -0.2230  0.7132
  676MOL0     C91130   3.753   4.267   2.565  0.6887  0.6973  0.6318
  676MOL0     C91131   3.669   4.212   2.466  0.6962 -0.1982 -0.6302
  676MOL0     C91132   3.548   4.266   2.448  0.3046  0.9794 -0.0276
  676MOL0     O91133   3.469   4.226   2.349  1.2158 -0.1103  0.6327
  676MOL0     C91134   3.530   4.188   2.224  1.2796 -0.0161  0.3954
  676MOL0     C91135   3.419   4.157   2.123 -0.1685 -0.3167 -0.5225
  676MOL0     C91136   3.368   4.289   2.064  0.1171 -0.2791  0.5257
  676MOL0     C91137   3.269   4.263   1.948 -0.1369 -0.4491 -0.1513
  676MOL0     C91138   3.197   4.392   1.903 -0.9265 -0.3323  0.2616
  676MOL0     C91139   3.057   4.364   1.844  0.1024  0.7146  0.1049
  676MOL0     C91140   2.983   4.487   1.799  0.0600  1.0301  0.4014
  676MOL0     C91141   3.025   4.555   1.664  0.0859 -0.0584  0.2611
  676MOL0     N91142   3.015   4.460   1.547 -0.2779 -0.2804 -0.6345
  676MOL0     C91143   2.903   4.388   1.502  0.4539  0.3918 -0.1024
  676MOL0     C91144   2.950   4.320   1.388  0.3727 -0.0438  0.5838
  676MOL0     C91145   2.854   4.253   1.286 -0.6735  0.2794  0.2034
  676MOL0     C91146   2.746   4.182   1.371  0.0290 -0.7495 -0.7402
  676MOL0     C91147   2.616   4.271   1.389  0.1960  0.6770 -0.7681
  676MOL0     C91148   2.550   4.284   1.246 -0.7965  0.5410  0.5906
  676MOL0     O91149   2.419   4.332   1.268 -0.3321  0.9719  0.4452
  676MOL0     C91150   2.351   4.354   1.148  0.5857  0.0486 -0.6202
  676MOL0     C91151   2.220   4.401   1.162 -0.5375  0.3235 -0.2887
  676MOL0     C91152   2.144   4.447   1.051  0.0666 -0.8906 -0.1719
  676MOL0     C91153   2.004   4.494   1.105  0.2366  0.6605  0.0531
  676MOL0     C91154   2.188   4.433   0.918 -0.6270 -0.1478 -0.0410
  676MOL0     C91155   2.116   4.468   0.801 -0.2028  0.1966  0.5227
  676MOL0     O91156   1.983   4.478   0.806  0.6010  0.1668 -1.0512
  676MOL0     C91157   1.903   4.494   0.699  0.4961 -0.2699  0.3429
  676MOL0     C91158   1.835   4.616   0.683  0.1311  0.1035  0.3447
  676MOL0     C91159   1.753   4.639   0.573  0.1590  0.3895  0.0628
  676MOL0     C91160   1.727   4.555   0.477  0.9500  0.5641 -0.8733
  676MOL0     O91161   1.638   4.584   0.375  0.5583  0.0713 -1.3648
  676MOL0     C91162   1.647   4.515   0.249  0.2142  0.2616  0.6634
  676MOL0     C91163   1.573   4.601   0.148  0.5274  0.1933  0.3466
  676MOL0     C91164   1.421   4.560   0.146  0.8232 -0.0677  0.0570
  676MOL0     C91165   1.348   4.627   0.029  0.5236 -0.3469 -0.1306
  676MOL0     C91166   1.381   4.582  -0.114  0.3447 -0.1607  1.3329
  676MOL0     C91167   1.288   4.647  -0.224 -0.1616  0.2646 -0.2968
  676MOL0     C91168   1.171   4.560  -0.243  0.0211 -0.6208  0.2832
  676MOL0     C91169   1.197   4.415  -0.301 -0.5214  0.0787  0.1411
  676MOL0    Cl91170   1.043   4.367  -0.386 -0.1405  0.0925 -0.0611
  676MOL0     C91171   1.788   4.434   0.490 -0.8715  0.3691 -0.7532
  676MOL0     C91172   1.876   4.402   0.596  0.2929  0.6893  0.1420
  676MOL0     O91173   2.178   4.491   0.700  0.0063  0.8264 -0.5497
  676MOL0     C91174   2.321   4.383   0.910 -0.6022 -0.0543  1.0117
  676MOL0     C91175   2.400   4.348   1.018 -0.0011  0.9202 -0.2805
  676MOL0     N91176   3.077   4.353   1.368  0.4977  0.1052  0.0181
  676MOL0     N91177   3.114   4.437   1.460 -0.6654 -0.4751 -0.3890
  676MOL0     C91178   3.503   4.368   2.523 -0.3852 -0.2421 -0.2728
  676MOL0     C91179   3.589   4.436   2.618 -0.6461 -0.3679 -0.5948
  676MOL0     C91180   3.910   4.529   2.897 -0.3964  0.1764  0.2316
  676MOL0     C91181   3.935   4.650   2.966 -0.6318 -0.2510  0.0191
  676MOL0     C91182   4.044   4.665   3.057  0.1587 -1.1611  0.7892
  676MOL0     C91183   4.123   4.560   3.080  0.5202 -0.3510  0.5858
  676MOL0     O91184   4.226   4.581   3.168  0.3001 -0.2256  0.2310
  676MOL0     C91185   4.337   4.491   3.180 -1.0429 -0.1012  0.2708
  676MOL0     C91186   4.464   4.548   3.242 -0.7876  0.3055  0.5296
  676MOL0     C91187   4.456   4.569   3.394  0.2170  0.2782 -0.6693
  676MOL0     C91188   4.536   4.690   3.446 -0.7013 -0.3787 -0.4570
  676MOL0     C91189   4.680   4.680   3.427 -0.1950  0.6492  0.3287
  676MOL0     C91190   4.789   4.644   3.398  0.0617  0.2772 -0.1100
  676MOL0     C91191   4.093   4.434   3.025  0.2477  0.0674 -0.8864
  676MOL0     C91192   3.993   4.416   2.933  1.2765 -0.0841 -0.6632
  676MOL0     H91193   3.854   4.230   2.581 -0.2807 -2.1314  0.7730
  676MOL0     H91194   3.701   4.118   2.421  0.7353 -0.5468  0.1191
  676MOL0     H91195   3.591   4.267   2.180  1.7382  0.2796  1.5206
  676MOL0     H91196   3.590   4.098   2.240  1.8902  0.3266  0.0759
  676MOL0     H91197   3.462   4.096   2.043 -3.6681 -2.1993 -1.1712
  676MOL0     H91198   3.333   4.106   2.168  0.1312 -2.1577 -1.9413
  676MOL0     H91199   3.329   4.360   2.138 -1.3457 -1.5349  0.9947
  676MOL0     H91200   3.447   4.353   2.022 -0.8268 -0.6928 -2.0251
  676MOL0     H91201   3.326   4.227   1.862 -0.4972  1.1525 -1.1107
  676MOL0     H91202   3.197   4.188   1.981 -0.5876 -0.5679 -1.3248
  676MOL0     H91203   3.188   4.458   1.990  0.1498 -1.9833  1.6982
  676MOL0     H91204   3.256   4.446   1.828 -3.4300  0.9791 -0.9075
  676MOL0     H91205   3.055   4.286   1.768  0.9077  0.2191  0.5721
  676MOL0     H91206   2.990   4.335   1.926  0.5879  2.3798  1.1505
  676MOL0     H91207   2.874   4.477   1.788  0.4754 -1.5175 -2.8421
  676MOL0     H91208   2.998   4.550   1.887  0.1111 -2.3969  3.0585
  676MOL0     H91209   3.125   4.596   1.681 -1.2513  3.1789  1.0694
  676MOL0     H91210   2.963   4.644   1.651  0.6233  0.0218 -2.2255
  676MOL0     H91211   2.807   4.386   1.553  0.6834 -0.1188  0.3221
  676MOL0     H91212   2.807   4.325   1.219 -2.8668 -1.1924  0.0364
  676MOL0     H91213   2.914   4.186   1.223  1.6552  0.0918  2.4522
  676MOL0     H91214   2.782   4.148   1.469 -2.4598 -0.8196  0.2071
  676MOL0     H91215   2.715   4.093   1.315  3.9645 -1.0785 -2.7244
  676MOL0     H91216   2.623   4.369   1.437  0.5009  0.2729  0.0217
  676MOL0     H91217   2.551   4.212   1.454 -1.8449  1.5483 -1.9200
  676MOL0     H91218   2.557   4.186   1.198  0.6768  0.3146  1.2366
  676MOL0     H91219   2.606   4.359   1.191 -0.4890  1.3127  1.9030
  676MOL0     H91220   2.183   4.409   1.263  0.7773  1.0448  0.1487
  676MOL0     H91221   1.941   4.412   1.141 -2.3699  1.8234 -1.5553
  676MOL0     H91222   2.009   4.558   1.194  0.1706  0.4771  0.1902
  676MOL0     H91223   1.938   4.541   1.032 -0.0301  2.6675  1.5029
  676MOL0     H91224   1.864   4.691   0.756  2.1681 -2.7066  2.6495
  676MOL0     H91225   1.691   4.729   0.569 -1.0914 -0.4464 -3.8924
  676MOL0     H91226   1.753   4.505   0.225  0.1576  0.5639  0.2857
  676MOL0     H91227   1.607   4.413   0.254 -1.5674  0.9709  2.0783
  676MOL0     H91228   1.589   4.708   0.166 -1.7602  0.6401 -0.0122
  676MOL0     H91229   1.612   4.578   0.048 -3.7291 -0.4935 -1.3486
  676MOL0     H91230   1.379   4.588   0.242 -0.0297  0.1862 -0.3801
  676MOL0     H91231   1.410   4.452   0.134 -0.6266 -0.0412  0.9588
  676MOL0     H91232   1.241   4.604   0.041 -0.3018  2.4577 -1.2838
  676MOL0     H91233   1.349   4.733   0.056  1.3577 -0.4135  0.1235
  676MOL0     H91234   1.393   4.477  -0.144  2.4211  0.8557 -1.8768
  676MOL0     H91235   1.480   4.626  -0.129 -0.3608  1.5318  1.3854
  676MOL0     H91236   1.249   4.745  -0.195 -1.9697 -0.7636  0.9202
  676MOL0     H91237   1.349   4.664  -0.313 -0.2270  1.9054 -0.0562
  676MOL0     H91238   1.115   4.603  -0.327  2.3403  2.6458  0.2231
  676MOL0     H91239   1.105   4.547  -0.156  0.2634 -4.2116  0.0699
  676MOL0     H91240   1.219   4.357  -0.211  2.8762  0.2595 -0.4340
  676MOL0     H91241   1.278   4.401  -0.373 -0.6967 -0.6353  0.0768
  676MOL0     H91242   1.765   4.351   0.423  0.0754 -0.1630 -0.4562
  676MOL0     H91243   1.921   4.303   0.600 -0.5524  0.3344  1.5997
  676MOL0     H91244   2.371   4.374   0.814 -0.4316  2.7940  0.7555
  676MOL0     H91245   2.502   4.313   1.005  0.1517  0.8477  1.0167
  676MOL0     H91246   3.399   4.399   2.515 -0.3291 -0.4317 -2.2709
  676MOL0     H91247   3.555   4.524   2.671 -2.0542 -1.8203  1.0509
  676MOL0     H91248   3.875   4.736   2.938  0.9190  0.4128 -1.4323
  676MOL0     H91249   4.064   4.762   3.101  1.5548 -1.7573  1.5313
  676MOL0     H91250   4.295   4.403   3.229 -0.1141 -1.0357 -0.5599
  676MOL0     H91251   4.365   4.461   3.078 -0.2875  5.0412 -1.2951
  676MOL0     H91252   4.479   4.648   3.200  0.7869 -0.8722 -2.0086
  676MOL0     H91253   4.550   4.484   3.220 -0.4828  0.2312  1.8431
  676MOL0     H91254   4.484   4.474   3.440 -2.0509 -1.0055 -1.7960
  676MOL0     H91255   4.349   4.574   3.418 -0.0950 -0.8694 -1.7513
  676MOL0     H91256   4.533   4.686   3.555  1.7149 -1.0851 -0.3716
  676MOL0     H91257   4.501   4.784   3.402 -0.4746  0.2290  0.6143
  676MOL0     H91258   4.893   4.624   3.384  0.5320  2.8750 -0.9531
  676MOL0     H91259   4.162   4.351   3.038 -0.1415 -0.1071  0.0950
  676MOL0     H91260   3.980   4.319   2.887 -3.6187  0.9514 -2.0004
  677MOL0     O91261   1.206   9.893   9.796 -0.5451  0.6450  0.8622
  677MOL0     C91262   1.184   9.993   9.737 -0.5879  0.0352 -0.6483
  677MOL0     O91263   1.082  10.084   9.760  0.5388 -0.3420 -0.0517
  677MOL0     C91264   0.993  10.068   9.864  0.0389  0.4915 -0.6825
  677MOL0     C91265   1.034  10.082   9.998 -0.0395  0.3348  1.7052
  677MOL0     C91266   0.937  10.045  10.102 -1.2355 -0.5736  0.0664
  677MOL0     C91267   0.807   9.994  10.068 -0.9913  0.0035  0.1872
  677MOL0     O91268   0.706   9.979  10.150 -0.3919  0.0783  0.4186
  677MOL0     C91269   0.648  10.091  10.213  0.1300 -0.2385  0.7635
  677MOL0     C91270   0.606  10.049  10.356 -0.1214  0.1311  0.3347
  677MOL0     C91271   0.502   9.936  10.354 -0.5960  0.4491 -0.0322
  677MOL0     C91272   0.567   9.791  10.370  0.0884 -0.8458 -1.0430
  677MOL0     C91273   0.451   9.701  10.340  0.3038 -0.5337  0.0083
  677MOL0     C91274   0.488   9.562  10.344 -0.5793  0.1027 -0.2230
  677MOL0     C91275   0.363   9.474  10.324  0.3844 -0.6475 -0.4475
  677MOL0     C91276   0.274   9.493  10.203 -0.3870  0.2617  0.7800
  677MOL0     N91277   0.182   9.391  10.189 -0.4104  0.7825 -0.0544
  677MOL0     C91278   0.064   9.420  10.121 -0.4595 -0.3395 -0.0284
  677MOL0     C91279  -0.004   9.302  10.126  0.1243  0.2197  0.9134
  677MOL0     C91280  -0.145   9.290  10.069 -0.7660  0.3340 -0.3090
  677MOL0     C91281  -0.231   9.390  10.147  0.0644  0.3069  0.8342
  677MOL0     C91282  -0.379   9.388  10.106  0.6861  0.1664  0.1951
  677MOL0     C91283  -0.443   9.267  10.166  0.7141  0.3438 -0.8067
  677MOL0     O91284  -0.575   9.280  10.113  0.4472 -0.1603 -0.1439
  677MOL0     C91285  -0.673   9.304  10.197  0.3210 -0.0714  0.1961
  677MOL0     C91286  -0.786   9.374  10.159  0.2380  0.2696  0.7963
  677MOL0     C91287  -0.890   9.394  10.245  0.6114  0.6111  0.2253
  677MOL0     C91288  -1.011   9.470  10.182 -0.2611 -0.1379  0.3805
  677MOL0     C91289  -0.879   9.351  10.384 -0.9367  0.3453 -0.0769
  677MOL0     C91290  -0.977   9.380  10.488 -0.3983 -1.4993  0.3307
  677MOL0     O91291  -0.948   9.332  10.608 -0.3471  0.0611 -0.6431
  677MOL0     C91292  -0.983   9.396  10.725  0.7799 -0.7378 -0.4635
  677MOL0     C91293  -0.886   9.450  10.813 -0.1746  0.2204  0.0377
  677MOL0     C91294  -0.930   9.520  10.931  0.4685 -0.1945 -0.3575
  677MOL0     C91295  -1.066   9.508  10.964  0.4355 -0.4010 -0.4709
  677MOL0     O91296  -1.123   9.573  11.069 -0.2862  0.5032 -0.8638
  677MOL0     C91297  -1.060   9.695  11.116  0.1224 -0.6995 -0.1005
  677MOL0     C91298  -1.136   9.762  11.222  0.8607 -0.7011  0.1880
  677MOL0     C91299  -1.285   9.775  11.172 -0.2399  0.1074  0.0404
  677MOL0     C91300  -1.375   9.818  11.287  0.4444 -0.3223 -0.5562
  677MOL0     C91301  -1.524   9.825  11.253  0.2823 -0.3037  0.5910
  677MOL0     C91302  -1.595   9.877  11.374 -1.0796  0.1940 -0.6870
  677MOL0     C91303  -1.741   9.898  11.352 -0.6443  0.7329  0.5046
  677MOL0     C91304  -1.824   9.941  11.472  0.4652 -0.3005  0.0056
  677MOL0    Cl91305  -1.979  10.001  11.424  0.2052 -0.1695  0.0344
  677MOL0     C91306  -1.161   9.450  10.882 -0.4601 -0.3991  0.7347
  677MOL0     C91307  -1.124   9.404  10.759 -0.1053  0.1236  0.5514
  677MOL0     O91308  -1.074   9.460  10.470 -1.0178  0.4014  0.3697
  677MOL0     C91309  -0.766   9.289  10.422 -0.8053 -0.0154 -0.0391
  677MOL0     C91310  -0.662   9.257  10.331  0.8195 -0.2335  0.7496
  677MOL0     N91311   0.066   9.202  10.196 -0.3048  0.0107 -0.1630
  677MOL0     N91312   0.176   9.258  10.234 -0.3453  1.8100 -0.0489
  677MOL0     C91313   0.773   9.983   9.932 -0.3652 -0.5432 -0.0920
  677MOL0     C91314   0.868  10.022   9.839 -0.2033 -0.3531  0.2938
  677MOL0     C91315   1.261  10.024   9.621  0.1483  0.0730  0.1957
  677MOL0     C91316   1.372   9.942   9.592 -0.3215 -0.2724  0.0485
  677MOL0     C91317   1.474   9.992   9.500  0.0601 -0.8659 -0.8353
  677MOL0     C91318   1.450  10.098   9.414 -0.0616 -0.0560 -0.2619
  677MOL0     O91319   1.544  10.131   9.316 -0.1924  0.1325  0.1889
  677MOL0     C91320   1.501  10.191   9.197 -0.2976 -0.2461  0.7708
  677MOL0     C91321   1.611  10.194   9.085 -0.0530  0.1732 -0.4619
  677MOL0     C91322   1.728  10.290   9.131 -0.6742  0.2426 -0.5085
  677MOL0     C91323   1.849  10.298   9.028 -0.4392 -0.4056  0.0008
  677MOL0     C91324   1.903  10.161   9.010  0.3488  0.0245  0.4114
  677MOL0     C91325   1.935  10.045   8.988 -0.2448 -0.6089  1.0191
  677MOL0     C91326   1.329  10.164   9.432  0.4033 -0.4752  0.3465
  677MOL0     C91327   1.236  10.133   9.532  0.5064 -0.3233  0.1014
  677MOL0     H91328   1.133  10.125  10.013  0.4080 -0.1670  0.3292
  677MOL0     H91329   0.975  10.044  10.203 -0.4129 -2.8738 -0.2092
  677MOL0     H91330   0.724  10.170  10.214  0.8078 -0.6546 -2.7726
  677MOL0     H91331   0.564  10.132  10.156  0.2320 -1.3092 -0.1983
  677MOL0     H91332   0.686  10.015  10.422 -1.8531  1.4315  3.2656
  677MOL0     H91333   0.564  10.140  10.398  0.4555  1.3272 -1.5404
  677MOL0     H91334   0.448   9.940  10.449  1.9936 -1.5142  1.6830
  677MOL0     H91335   0.447   9.957  10.262  2.9139  1.5831 -2.0577
  677MOL0     H91336   0.658   9.789  10.310 -0.6107  1.9468 -2.3311
  677MOL0     H91337   0.609   9.777  10.470 -0.9284  1.8149 -0.1611
  677MOL0     H91338   0.368   9.720  10.409  0.6371 -0.1868  0.3163
  677MOL0     H91339   0.415   9.727  10.239  0.3156  0.3988  0.2356
  677MOL0     H91340   0.557   9.543  10.261  1.1402 -0.7477  1.3472
  677MOL0     H91341   0.553   9.541  10.429  1.7499  0.0328 -1.9087
  677MOL0     H91342   0.393   9.369  10.328  0.2215 -0.6955 -0.4796
  677MOL0     H91343   0.300   9.486  10.413 -0.4975  1.5634 -1.2994
  677MOL0     H91344   0.338   9.502  10.115 -1.3073  1.9584  0.2354
  677MOL0     H91345   0.223   9.590  10.205 -0.9636 -0.0473  2.1725
  677MOL0     H91346   0.034   9.518  10.087 -2.6488 -0.7543  0.5397
  677MOL0     H91347  -0.157   9.316   9.964 -0.5727  0.8207 -0.2111
  677MOL0     H91348  -0.180   9.186  10.073 -1.4551  0.5820  0.7966
  677MOL0     H91349  -0.195   9.491  10.129 -1.7671  0.9983  0.8244
  677MOL0     H91350  -0.220   9.382  10.256  0.5045  3.6968  1.1292
  677MOL0     H91351  -0.388   9.397   9.998 -0.6464  1.9071  0.3918
  677MOL0     H91352  -0.423   9.480  10.146  2.5924  0.7129  1.1205
  677MOL0     H91353  -0.428   9.278  10.274 -1.3336 -0.4035 -0.3948
  677MOL0     H91354  -0.397   9.177  10.125 -1.0121  0.3532 -2.9650
  677MOL0     H91355  -0.787   9.412  10.058 -2.0659  1.5251  1.2448
  677MOL0     H91356  -1.095   9.435  10.242 -1.9040  0.1890 -1.6501
  677MOL0     H91357  -0.993   9.578  10.180 -1.4373  0.0558 -1.0239
  677MOL0     H91358  -1.021   9.432  10.080  0.5831 -1.2243  0.6817
  677MOL0     H91359  -0.781   9.468  10.790  0.0850 -1.2850 -0.0202
  677MOL0     H91360  -0.856   9.574  10.990  3.5930  0.1572 -4.2371
  677MOL0     H91361  -0.959   9.673  11.153  0.0865 -1.0210 -0.1938
  677MOL0     H91362  -1.063   9.766  11.033  0.1636  1.0505  1.3235
  677MOL0     H91363  -1.123   9.711  11.318 -1.0047 -2.1363 -0.2492
  677MOL0     H91364  -1.094   9.863  11.228  0.6253 -0.6914  3.0239
  677MOL0     H91365  -1.319   9.680  11.130  0.9872 -0.8256  1.0712
  677MOL0     H91366  -1.296   9.856  11.099  0.0079  0.1578  0.0591
  677MOL0     H91367  -1.351   9.743  11.363  0.2238  0.5279  0.3771
  677MOL0     H91368  -1.348   9.916  11.328  2.7270 -1.9060  2.0844
  677MOL0     H91369  -1.562   9.729  11.216  0.6516 -0.5700  0.8933
  677MOL0     H91370  -1.541   9.898  11.174 -1.0257 -1.2171  0.0025
  677MOL0     H91371  -1.569   9.811  11.458  0.4318  0.0908 -1.2049
  677MOL0     H91372  -1.548   9.972  11.398 -1.0033 -0.6785  3.3019
  677MOL0     H91373  -1.786   9.803  11.319 -1.3374  1.5562 -1.0541
  677MOL0     H91374  -1.768   9.968  11.272 -1.9184 -2.1734 -1.8274
  677MOL0     H91375  -1.774  10.016  11.533  3.3749 -0.3759 -2.0809
  677MOL0     H91376  -1.835   9.859  11.544 -2.3718 -1.7660 -1.8884
  677MOL0     H91377  -1.264   9.458  10.916 -0.9867 -0.4957 -0.7898
  677MOL0     H91378  -1.198   9.356  10.695 -2.8921  1.7850  2.2984
  677MOL0     H91379  -0.761   9.258  10.526 -3.4928 -2.2585 -0.4705
  677MOL0     H91380  -0.570   9.214  10.369  1.3022 -0.2879 -0.4403
  677MOL0     H91381   0.672   9.955   9.902 -1.7217  2.5475  1.2265
  677MOL0     H91382   0.837  10.030   9.735 -0.6366  1.5017  0.5433
  677MOL0     H91383   1.388   9.845   9.638 -2.0304  0.2106  1.8148
  677MOL0     H91384   1.569   9.939   9.499  2.5571  2.9287  2.6377
  677MOL0     H91385   1.410  10.149   9.152 -1.6056  2.1404  1.0245
  677MOL0     H91386   1.486  10.295   9.225  2.3049  0.1522  0.9575
  677MOL0     H91387   1.557  10.227   8.996 -0.4254 -1.4584 -0.8683
  677MOL0     H91388   1.650  10.097   9.054 -2.5036 -1.6110  1.6681
  677MOL0     H91389   1.775  10.262   9.226 -0.3572  2.0930 -0.0676
  677MOL0     H91390   1.685  10.387   9.158  0.4163  0.2964  1.2250
  677MOL0     H91391   1.925  10.366   9.066  0.1124 -0.2194 -1.3716
  677MOL0     H91392   1.815  10.347   8.936 -0.1586 -0.4525 -0.1285
  677MOL0     H91393   1.959   9.945   8.961 -2.0888 -0.8003 -0.1169
  677MOL0     H91394   1.314  10.245   9.362  2.6999  0.1266  0.4552
  677MOL0     H91395   1.147  10.195   9.547 -0.1042 -0.1463 -3.4209
  678MOL0     O91396   8.374   2.655   9.201 -0.0667 -0.1871 -0.3816
  678MOL0     C91397   8.406   2.716   9.304  0.5041 -0.4896 -0.2684
  678MOL0     O91398   8.318   2.781   9.381  0.1223  0.2857 -0.9333
  678MOL0     C91399   8.186   2.790   9.344  0.6116  0.8564  0.0437
  678MOL0     C91400   8.147   2.830   9.217  1.1015 -0.6479 -0.1485
  678MOL0     C91401   8.013   2.846   9.175 -0.9083  0.2027 -0.4780
  678MOL0     C91402   7.919   2.797   9.274  0.3602 -0.5249  1.1425
  678MOL0     O91403   7.780   2.809   9.255  0.2204 -0.1157  0.2995
  678MOL0     C91404   7.722   2.850   9.131 -0.4444  0.1094 -0.4636
  678MOL0     C91405   7.577   2.797   9.131 -0.2126  0.4290  0.0618
  678MOL0     C91406   7.575   2.647   9.107  0.8692  0.2726 -0.0042
  678MOL0     C91407   7.428   2.593   9.096  0.2242 -0.7946  0.4545
  678MOL0     C91408   7.361   2.629   8.962 -0.4145 -1.0436  0.2566
  678MOL0     C91409   7.266   2.527   8.910 -0.7114 -0.5720  0.1392
  678MOL0     C91410   7.137   2.507   8.994 -0.5935  0.7997  0.4027
  678MOL0     C91411   7.042   2.630   8.983 -0.4363  0.2757 -0.1062
  678MOL0     N91412   6.912   2.640   9.051  0.4669 -0.1288 -1.2319
  678MOL0     C91413   6.869   2.567   9.163 -0.4394  0.4516  0.0430
  678MOL0     C91414   6.751   2.615   9.180 -0.5992  0.4564 -0.5770
  678MOL0     C91415   6.655   2.570   9.293  0.5626  0.3385  0.1324
  678MOL0     C91416   6.711   2.564   9.434  0.4364 -0.1039 -0.8182
  678MOL0     C91417   6.778   2.697   9.484 -0.2838  0.1943 -0.8997
  678MOL0     C91418   6.709   2.832   9.454 -0.2139  1.0399  0.0777
  678MOL0     O91419   6.797   2.936   9.513  0.8804 -0.0552 -0.1283
  678MOL0     C91420   6.921   2.965   9.468  0.7583  0.0934 -0.2393
  678MOL0     C91421   6.973   2.938   9.341  0.4701  0.3212 -0.2142
  678MOL0     C91422   7.098   2.981   9.298 -0.6700 -0.4976  1.7548
  678MOL0     C91423   7.140   2.969   9.146 -0.5492 -0.6741 -0.1953
  678MOL0     C91424   7.186   3.038   9.398  0.2377 -0.7079  0.8772
  678MOL0     C91425   7.328   3.062   9.379 -0.3044 -0.1242 -0.0794
  678MOL0     O91426   7.396   3.128   9.478 -0.0084  0.3580  0.8520
  678MOL0     C91427   7.530   3.138   9.477 -0.2949 -0.1610  0.3385
  678MOL0     C91428   7.587   3.264   9.518  0.1537  0.2065  0.4411
  678MOL0     C91429   7.719   3.292   9.497  0.4300 -0.6224  0.6966
  678MOL0     C91430   7.807   3.191   9.458  0.5783  0.2078  0.2896
  678MOL0     O91431   7.952   3.204   9.443 -0.2435 -0.2353  0.3741
  678MOL0     C91432   7.990   3.311   9.353  0.7308  0.1687  0.3896
  678MOL0     C91433   8.133   3.335   9.316 -0.0568  0.2014 -0.1600
  678MOL0     C91434   8.192   3.224   9.222 -0.1081 -1.5047 -0.1263
  678MOL0     C91435   8.342   3.228   9.221  0.0215  0.4581  0.8058
  678MOL0     C91436   8.394   3.138   9.107  0.1511  0.1786  0.8011
  678MOL0     C91437   8.535   3.093   9.134 -0.0000  0.2575 -0.0244
  678MOL0     C91438   8.592   2.997   9.021 -0.0872 -0.0959  0.4398
  678MOL0     C91439   8.744   2.958   9.043 -0.0307  0.0100 -0.4776
  678MOL0    Cl91440   8.837   3.097   9.074  0.3107  0.5420  0.4791
  678MOL0     C91441   7.755   3.064   9.437  0.1817 -0.2563  0.2926
  678MOL0     C91442   7.615   3.038   9.438  0.1258  0.5527  0.7684
  678MOL0     O91443   7.382   3.019   9.275  0.0495 -0.3591 -0.2156
  678MOL0     C91444   7.133   3.045   9.530 -0.3962 -0.1354 -0.0091
  678MOL0     C91445   6.997   3.022   9.565  0.1930 -0.7788 -1.7731
  678MOL0     N91446   6.733   2.727   9.094  0.1826 -0.4823  0.3030
  678MOL0     N91447   6.831   2.745   9.024  0.0581  0.0666  0.7432
  678MOL0     C91448   7.953   2.765   9.402 -0.8832 -0.1632 -0.9551
  678MOL0     C91449   8.089   2.765   9.439  0.9185  0.0195 -0.1350
  678MOL0     C91450   8.542   2.694   9.336 -0.5208 -0.0465  0.1563
  678MOL0     C91451   8.583   2.705   9.464 -0.6509 -0.0842 -0.2709
  678MOL0     C91452   8.717   2.673   9.500  0.6269  0.2555 -0.1148
  678MOL0     C91453   8.808   2.612   9.414  0.0177 -0.4727 -0.6711
  678MOL0     O91454   8.928   2.571   9.462 -0.1854  0.2814 -0.9858
  678MOL0     C91455   8.922   2.429   9.482 -0.9582 -0.2451  0.3027
  678MOL0     C91456   9.046   2.382   9.549 -0.3366 -0.5858 -0.7174
  678MOL0     C91457   9.170   2.397   9.470 -0.5223 -0.1015  0.4300
  678MOL0     C91458   9.284   2.336   9.552 -0.7112 -0.2586 -0.5929
  678MOL0     C91459   9.412   2.324   9.478  0.7636  0.8469  0.2592
  678MOL0     C91460   9.510   2.315   9.412  0.3905 -0.7180 -0.9458
  678MOL0     C91461   8.773   2.598   9.281 -0.0088  0.6391 -0.2553
  678MOL0     C91462   8.636   2.631   9.240 -0.4736  0.6150  0.0366
  678MOL0     H91463   8.220   2.875   9.150 -2.2473  1.3352 -2.7963
  678MOL0     H91464   7.989   2.897   9.082  0.2500  1.9782  0.1423
  678MOL0     H91465   7.715   2.959   9.129 -3.0861  0.0427  0.5676
  678MOL0     H91466   7.767   2.801   9.045 -1.8289 -1.3377 -0.4102
  678MOL0     H91467   7.532   2.811   9.230 -1.6212  0.0334 -0.4950
  678MOL0     H91468   7.515   2.852   9.060  0.7723  1.5490  0.0431
  678MOL0     H91469   7.637   2.625   9.019  0.6901 -0.2830  0.0044
  678MOL0     H91470   7.624   2.594   9.189  0.6927  1.8609  1.1596
  678MOL0     H91471   7.420   2.486   9.117 -2.1257 -0.4072  1.9047
  678MOL0     H91472   7.369   2.637   9.176  1.8713  0.2967  1.1213
  678MOL0     H91473   7.319   2.730   8.961  2.6776  0.4824  3.2033
  678MOL0     H91474   7.436   2.643   8.884  1.6076 -1.0299  2.1029
  678MOL0     H91475   7.239   2.547   8.806  1.5124 -3.8870 -1.2516
  678MOL0     H91476   7.316   2.429   8.906  0.6077  0.0381  0.9501
  678MOL0     H91477   7.093   2.420   8.945  2.3490 -0.4019 -0.3086
  678MOL0     H91478   7.166   2.488   9.098 -1.8747  0.5523  0.7320
  678MOL0     H91479   7.028   2.642   8.876 -0.7865 -0.9523 -0.2224
  678MOL0     H91480   7.103   2.708   9.029  0.7503  0.3255 -1.7070
  678MOL0     H91481   6.923   2.490   9.218 -0.9561 -0.3544 -0.5619
  678MOL0     H91482   6.569   2.636   9.281  1.5213  1.5363 -0.3485
  678MOL0     H91483   6.620   2.470   9.267  1.0504 -0.0548  0.9082
  678MOL0     H91484   6.795   2.495   9.434 -0.6828 -1.6280  2.3277
  678MOL0     H91485   6.634   2.535   9.506  3.1198 -0.3679  2.1010
  678MOL0     H91486   6.879   2.700   9.441  0.2244  0.5915  0.2726
  678MOL0     H91487   6.783   2.681   9.592  0.1566 -3.4947 -1.3266
  678MOL0     H91488   6.612   2.826   9.506  0.6236 -0.9267  1.5701
  678MOL0     H91489   6.695   2.839   9.346  3.4914  1.6982 -0.4906
  678MOL0     H91490   6.905   2.896   9.268  1.0731  0.1544 -0.6879
  678MOL0     H91491   7.220   2.895   9.159 -1.6756 -1.7908  0.6454
  678MOL0     H91492   7.055   2.944   9.082 -1.5238  1.5041  0.1461
  678MOL0     H91493   7.180   3.058   9.096  1.0656 -1.7160 -0.8370
  678MOL0     H91494   7.520   3.342   9.551 -0.5165  0.1175 -0.6456
  678MOL0     H91495   7.753   3.390   9.530 -0.6692 -0.4920  1.4812
  678MOL0     H91496   7.930   3.301   9.262 -0.9690  1.5955  1.2776
  678MOL0     H91497   7.962   3.406   9.400  2.6234  0.7291  0.4495
  678MOL0     H91498   8.128   3.428   9.259 -3.2435  1.0078  1.2459
  678MOL0     H91499   8.194   3.356   9.405 -1.5809  0.9270  0.7517
  678MOL0     H91500   8.149   3.229   9.122 -0.8780  0.2056  0.2480
  678MOL0     H91501   8.164   3.126   9.261  3.3478 -1.7625  2.2350
  678MOL0     H91502   8.390   3.325   9.204 -2.5680  1.7294  0.2516
  678MOL0     H91503   8.378   3.186   9.315  1.9055 -1.9975 -0.8473
  678MOL0     H91504   8.390   3.202   9.019 -3.4014  1.2335  1.5839
  678MOL0     H91505   8.326   3.054   9.089  2.9252 -1.6173 -2.5608
  678MOL0     H91506   8.598   3.179   9.159  2.1228 -1.1867 -0.0934
  678MOL0     H91507   8.526   3.037   9.228 -0.2928 -0.7036 -0.6078
  678MOL0     H91508   8.589   3.051   8.927 -0.5606  1.7635  1.4826
  678MOL0     H91509   8.531   2.906   9.017 -1.4595  0.7778  0.8226
  678MOL0     H91510   8.783   2.895   8.962 -1.4098  1.1354 -2.0927
  678MOL0     H91511   8.739   2.902   9.137 -2.8760  0.1228 -0.4725
  678MOL0     H91512   7.820   2.981   9.411 -0.4795 -0.7484  0.1797
  678MOL0     H91513   7.581   2.940   9.406 -1.7343  0.3015  3.1773
  678MOL0     H91514   7.200   3.077   9.610 -1.1707  0.9897  0.2228
  678MOL0     H91515   6.967   3.033   9.669 -1.3004 -2.5027 -1.9579
  678MOL0     H91516   7.874   2.737   9.471 -1.6868  4.0932  0.1604
  678MOL0     H91517   8.118   2.738   9.540  0.0450  2.5655  0.8731
  678MOL0     H91518   8.520   2.742   9.545  2.5519  2.0671  1.4402
  678MOL0     H91519   8.726   2.676   9.608  0.5687 -3.8786  0.1476
  678MOL0     H91520   8.838   2.404   9.548 -1.6363 -2.7152 -1.3649
  678MOL0     H91521   8.911   2.393   9.380 -1.5571  1.5603 -0.3179
  678MOL0     H91522   9.027   2.276   9.569 -1.4536 -0.3692 -0.5998
  678MOL0     H91523   9.066   2.426   9.647 -0.4790  0.0138 -0.9524
  678MOL0     H91524   9.185   2.505   9.461 -0.4118 -0.2724 -2.2898
  678MOL0     H91525   9.158   2.363   9.367 -2.1191 -3.3501  1.5666
  678MOL0     H91526   9.256   2.232   9.570  1.1001 -1.0451 -1.9712
  678MOL0     H91527   9.302   2.380   9.651 -2.7111 -1.9905  0.6199
  678MOL0     H91528   9.595   2.306   9.347 -0.0779 -0.5705 -1.5883
  678MOL0     H91529   8.849   2.557   9.215  1.1349  1.9670  0.1955
  678MOL0     H91530   8.604   2.606   9.139 -0.2975 -4.0082  0.8968
  679MOL0     O91531   0.057   6.503  10.267  0.1684 -0.1779  0.1359
  679MOL0     C91532   0.100   6.387  10.265  0.7127 -0.4961  0.0212
  679MOL0     O91533   0.023   6.275  10.245  0.3102 -0.3495  0.6755
  679MOL0     C91534  -0.110   6.297  10.219 -1.4306 -0.6020 -0.1276
  679MOL0     C91535  -0.210   6.293  10.322 -1.0739  0.0946  0.1707
  679MOL0     C91536  -0.341   6.304  10.301  0.4651 -1.4451  0.3438
  679MOL0     C91537  -0.389   6.330  10.174 -0.1901 -0.7410 -0.8165
  679MOL0     O91538  -0.520   6.353  10.131 -0.0392  0.0573  0.0760
  679MOL0     C91539  -0.626   6.348  10.223  0.1192 -0.2132  0.6130
  679MOL0     C91540  -0.758   6.355  10.139 -0.4872 -0.6117 -0.5061
  679MOL0     C91541  -0.877   6.289  10.212  0.3365  0.3806  0.2633
  679MOL0     C91542  -1.010   6.344  10.155  0.7056  0.2173  0.0281
  679MOL0     C91543  -1.131   6.247  10.174 -0.0320 -0.4466 -0.3139
  679MOL0     C91544  -1.271   6.305  10.146 -0.0481  0.6985 -0.2605
  679MOL0     C91545  -1.382   6.217  10.204  0.5597  0.3369 -0.1135
  679MOL0     C91546  -1.493   6.181  10.105 -0.2523 -0.3091  0.0656
  679MOL0     N91547  -1.586   6.292  10.088  0.1623  0.3315 -0.5074
  679MOL0     C91548  -1.678   6.339  10.181  0.0340 -0.4036 -0.3863
  679MOL0     C91549  -1.752   6.428  10.115  1.2056 -0.4454  0.0885
  679MOL0     C91550  -1.864   6.515  10.163 -0.2406 -0.6180 -0.3525
  679MOL0     C91551  -1.988   6.512  10.082 -0.9105 -0.2478 -0.1045
  679MOL0     C91552  -2.095   6.612  10.134 -0.0288 -0.0787  1.7734
  679MOL0     C91553  -2.233   6.571  10.084  0.1414 -0.2675  0.2020
  679MOL0     O91554  -2.285   6.481  10.181  0.4775  0.2482  0.1202
  679MOL0     C91555  -2.409   6.429  10.161 -0.0698  0.4046  0.9209
  679MOL0     C91556  -2.431   6.309  10.227 -0.3268  0.2799  0.0370
  679MOL0     C91557  -2.548   6.233  10.216  0.6977 -0.5690  0.3592
  679MOL0     C91558  -2.556   6.094  10.261  0.1239 -0.6975 -0.6586
  679MOL0     C91559  -2.647   6.276  10.128  0.0620 -0.0556  0.1993
  679MOL0     C91560  -2.762   6.200  10.095 -0.2815 -0.0566 -0.4743
  679MOL0     O91561  -2.805   6.225   9.967 -0.4124  0.1126  0.8305
  679MOL0     C91562  -2.938   6.217   9.946 -0.1017  0.4744  0.4131
  679MOL0     C91563  -3.000   6.330   9.899  0.0601 -0.7096  0.0920
  679MOL0     C91564  -3.134   6.333   9.877  0.4902  0.3962  0.4996
  679MOL0     C91565  -3.216   6.220   9.894 -0.6075 -0.3046  0.1254
  679MOL0     O91566  -3.344   6.242   9.874  0.1552 -0.5974 -0.8078
  679MOL0     C91567  -3.438   6.134   9.855  0.4652 -0.4000 -1.3046
  679MOL0     C91568  -3.586   6.172   9.853  0.0259 -0.2516 -0.6074
  679MOL0     C91569  -3.676   6.044   9.855 -0.6909 -0.3958 -0.2497
  679MOL0     C91570  -3.674   5.975   9.720 -0.3879 -0.5168 -0.0729
  679MOL0     C91571  -3.804   5.903   9.704 -0.2971  0.1151 -0.0757
  679MOL0     C91572  -3.917   5.981   9.637 -0.3398  0.1373 -0.1864
  679MOL0     C91573  -4.051   5.906   9.596 -1.1082  0.2798 -0.6206
  679MOL0     C91574  -4.138   6.003   9.520 -0.5472 -0.5620  0.3805
  679MOL0    Cl91575  -4.202   6.124   9.629 -0.2672 -0.4007 -0.3827
  679MOL0     C91576  -3.148   6.104   9.923 -0.2215  0.3002 -1.4657
  679MOL0     C91577  -3.012   6.101   9.958 -1.0162  0.0481  0.8814
  679MOL0     O91578  -2.823   6.129  10.177  0.2091  0.2549  0.2740
  679MOL0     C91579  -2.632   6.409  10.081 -0.2987  0.2247  0.4774
  679MOL0     C91580  -2.518   6.487  10.088 -0.1357  0.2103  1.0559
  679MOL0     N91581  -1.709   6.437   9.983  0.2781 -0.0548  1.3120
  679MOL0     N91582  -1.616   6.350   9.969 -0.1270  0.1267 -0.1777
  679MOL0     C91583  -0.295   6.330  10.069  0.5833  0.5607 -0.6103
  679MOL0     C91584  -0.157   6.323  10.085  0.1247 -0.0690 -0.1055
  679MOL0     C91585   0.230   6.360  10.342 -0.4887 -0.7296 -0.2806
  679MOL0     C91586   0.279   6.231  10.352 -0.5571 -0.6371  0.2372
  679MOL0     C91587   0.411   6.208  10.391  0.4389 -0.2483  1.0534
  679MOL0     C91588   0.496   6.313  10.434 -0.4063  0.2062  0.6468
  679MOL0     O91589   0.628   6.292  10.460 -0.1826 -0.2360  0.2343
  679MOL0     C91590   0.694   6.186  10.382 -0.8681 -0.7177 -0.8167
  679MOL0     C91591   0.783   6.098  10.479  0.2873  0.2291 -0.5952
  679MOL0     C91592   0.910   6.169  10.506  0.7905 -0.6640 -0.7796
  679MOL0     C91593   1.015   6.159  10.396 -0.2464  0.3580  0.2446
  679MOL0     C91594   1.144   6.221  10.426  0.4043  0.3598  0.1388
  679MOL0     C91595   1.251   6.266  10.467 -0.2968  0.0914 -0.2847
  679MOL0     C91596   0.444   6.439  10.445 -0.4709 -0.9127  0.3106
  679MOL0     C91597   0.317   6.458  10.394  0.1857 -1.0337  0.1245
  679MOL0     H91598  -0.188   6.259  10.423 -1.4345 -0.5278  0.0423
  679MOL0     H91599  -0.413   6.305  10.382 -1.5922  1.5704 -1.3200
  679MOL0     H91600  -0.633   6.245  10.259  2.3190 -1.0647 -1.1115
  679MOL0     H91601  -0.619   6.430  10.295 -0.2639  1.8166 -1.5401
  679MOL0     H91602  -0.785   6.459  10.118  0.3644  0.0956  1.5803
  679MOL0     H91603  -0.747   6.300  10.045  1.3857  2.2393 -2.1262
  679MOL0     H91604  -0.874   6.181  10.190 -0.2151  0.5939 -0.9462
  679MOL0     H91605  -0.892   6.304  10.320 -0.0817 -0.9654  0.4178
  679MOL0     H91606  -1.021   6.445  10.195  1.0721  0.1929  0.1907
  679MOL0     H91607  -0.993   6.366  10.049 -3.1382  5.1721  0.0203
  679MOL0     H91608  -1.119   6.148  10.129  0.2965  0.6467 -2.7768
  679MOL0     H91609  -1.139   6.227  10.281 -1.7352  2.5088  0.2464
  679MOL0     H91610  -1.290   6.408  10.179  0.1050  0.8017 -0.4863
  679MOL0     H91611  -1.291   6.303  10.038 -1.1010  1.4118 -0.0909
  679MOL0     H91612  -1.351   6.122  10.248  1.3627  1.4462  1.8258
  679MOL0     H91613  -1.442   6.257  10.286 -0.1709 -1.8028  0.4868
  679MOL0     H91614  -1.551   6.091  10.124 -1.2070  0.6482  1.9819
  679MOL0     H91615  -1.440   6.176  10.009 -1.6831  1.1574 -0.8519
  679MOL0     H91616  -1.708   6.313  10.282 -2.2955  0.4213 -0.8087
  679MOL0     H91617  -1.894   6.500  10.267  1.8259  0.3095  0.4213
  679MOL0     H91618  -1.815   6.612  10.162  0.4789 -0.8609  2.7177
  679MOL0     H91619  -2.029   6.413  10.104  0.1483 -0.7443 -0.2828
  679MOL0     H91620  -1.973   6.514   9.974 -2.7284 -0.0616 -0.3872
  679MOL0     H91621  -2.074   6.703  10.078  0.9156 -0.1849  1.9380
  679MOL0     H91622  -2.100   6.621  10.243 -2.0093  2.2514  1.5663
  679MOL0     H91623  -2.223   6.516   9.991  1.3676 -3.0585  1.8454
  679MOL0     H91624  -2.292   6.663  10.072  2.2114  0.9589 -1.1271
  679MOL0     H91625  -2.361   6.259  10.293  1.9604  3.1098 -0.0560
  679MOL0     H91626  -2.460   6.059  10.299 -0.6659 -1.3950  0.8067
  679MOL0     H91627  -2.628   6.078  10.342  1.0732 -0.3441  0.2670
  679MOL0     H91628  -2.580   6.031  10.174 -0.7346 -2.2978  0.6663
  679MOL0     H91629  -2.952   6.425   9.880 -1.3867  0.0128 -0.1434
  679MOL0     H91630  -3.175   6.429   9.849  1.0733  0.4628 -0.1642
  679MOL0     H91631  -3.412   6.082   9.762  4.5747 -4.1512  1.5302
  679MOL0     H91632  -3.428   6.070   9.943  0.6995 -0.4131 -1.3405
  679MOL0     H91633  -3.603   6.240   9.937 -0.4694  0.6001 -1.3755
  679MOL0     H91634  -3.593   6.234   9.763  0.5587  3.0244  1.4319
  679MOL0     H91635  -3.781   6.068   9.876 -0.5509  0.5357 -0.5597
  679MOL0     H91636  -3.648   5.968   9.929  1.4701 -1.9596 -2.5265
  679MOL0     H91637  -3.666   6.044   9.635 -0.0553 -1.2069 -0.6129
  679MOL0     H91638  -3.584   5.913   9.722  0.3791  0.5394 -0.8077
  679MOL0     H91639  -3.834   5.874   9.805  1.0984  0.1225  0.3703
  679MOL0     H91640  -3.787   5.814   9.642 -2.8452  1.3534 -2.7824
  679MOL0     H91641  -3.948   6.049   9.717  0.3170 -1.5047  1.5512
  679MOL0     H91642  -3.875   6.027   9.547  0.7843 -1.7880 -0.7046
  679MOL0     H91643  -4.109   5.880   9.685  0.0477 -0.1716  0.0286
  679MOL0     H91644  -4.037   5.812   9.541  0.2030 -0.7849  1.3998
  679MOL0     H91645  -4.220   5.955   9.466  1.3620 -1.1639 -2.1979
  679MOL0     H91646  -4.084   6.055   9.440 -2.9492  0.9072 -0.3780
  679MOL0     H91647  -3.201   6.010   9.934  2.0151 -1.0857 -1.8313
  679MOL0     H91648  -2.962   6.006   9.973 -2.1578 -0.9327 -1.0473
  679MOL0     H91649  -2.710   6.452  10.019 -0.6229  1.2858  1.5818
  679MOL0     H91650  -2.507   6.586  10.044 -0.3727  0.1967  0.9621
  679MOL0     H91651  -0.339   6.345   9.971 -5.3600 -0.8950  1.4284
  679MOL0     H91652  -0.099   6.337   9.994  1.3305  0.0653  0.6607
  679MOL0     H91653   0.221   6.152  10.305 -0.0207 -0.1944 -1.2165
  679MOL0     H91654   0.449   6.107  10.380  2.2438  0.4761  0.2189
  679MOL0     H91655   0.632   6.113  10.329  2.1211 -1.5284 -3.4704
  679MOL0     H91656   0.751   6.236  10.303  0.7457 -2.1062 -0.5735
  679MOL0     H91657   0.808   5.997  10.446  0.3006 -1.7598  4.4946
  679MOL0     H91658   0.721   6.077  10.567 -3.2884 -1.2951 -3.2252
  679MOL0     H91659   0.961   6.129  10.594  2.1082  0.0734 -1.1840
  679MOL0     H91660   0.898   6.276  10.522  1.9543  0.0220 -3.8581
  679MOL0     H91661   0.968   6.199  10.306  1.6687  0.6528 -0.6720
  679MOL0     H91662   1.037   6.054  10.374  3.1467  0.7179  1.2776
  679MOL0     H91663   1.341   6.311  10.504 -1.1058  0.8455  0.8529
  679MOL0     H91664   0.502   6.529  10.466  0.4279 -1.0886 -1.2573
  679MOL0     H91665   0.282   6.561  10.389  0.0772 -1.0590  0.3616
  680MOL0     O91666   4.098   1.252  10.077 -0.0536  0.1414  0.0074
  680MOL0     C91667   4.107   1.135  10.051  0.8439  0.0249 -0.0710
  680MOL0     O91668   4.000   1.060  10.003 -0.3923  0.5303  0.3290
  680MOL0     C91669   3.906   1.107   9.913 -0.4355  0.1098  0.0261
  680MOL0     C91670   3.822   1.011   9.868  0.7306  0.3089  0.7805
  680MOL0     C91671   3.721   1.037   9.779 -0.4608  0.0062  0.3946
  680MOL0     C91672   3.686   1.169   9.733 -0.8969  0.0996  0.2484
  680MOL0     O91673   3.598   1.205   9.629 -0.1153  0.2916 -0.4284
  680MOL0     C91674   3.467   1.160   9.648  0.1159 -0.8846  0.0568
  680MOL0     C91675   3.386   1.231   9.765 -0.5146  0.3134  0.5358
  680MOL0     C91676   3.281   1.134   9.816 -0.3570  0.9048 -0.2321
  680MOL0     C91677   3.216   1.173   9.953  0.4373 -0.5939  0.0928
  680MOL0     C91678   3.119   1.295   9.942 -0.1966 -0.1178 -0.3251
  680MOL0     C91679   3.033   1.311  10.071 -0.5957 -1.2214 -0.1310
  680MOL0     C91680   2.891   1.251  10.039 -0.5908  0.1614 -0.6697
  680MOL0     C91681   2.819   1.251  10.173  0.7897 -0.4462 -0.3033
  680MOL0     N91682   2.807   1.104  10.218  0.2885 -0.1496 -0.1388
  680MOL0     C91683   2.693   1.038  10.261  0.4224 -1.2066 -0.0906
  680MOL0     C91684   2.740   0.927  10.316  0.4231 -0.6755 -0.5071
  680MOL0     C91685   2.658   0.823  10.389  1.0782 -0.0110 -0.0605
  680MOL0     C91686   2.513   0.852  10.385  0.2862  0.3015 -0.2947
  680MOL0     C91687   2.436   0.725  10.444 -0.0287  0.3669 -0.1071
  680MOL0     C91688   2.291   0.755  10.460  0.0215  0.0056  0.2790
  680MOL0     O91689   2.248   0.781  10.324 -0.0650  0.3363 -0.0307
  680MOL0     C91690   2.126   0.835  10.288  0.8736 -0.1273 -0.0143
  680MOL0     C91691   2.095   0.834  10.151 -0.1237  0.2462  0.1927
  680MOL0     C91692   1.964   0.865  10.109  0.8050  0.4394  0.0812
  680MOL0     C91693   1.937   0.870   9.959 -0.2263 -0.1579  0.5364
  680MOL0     C91694   1.863   0.885  10.204 -0.5472  0.4260 -0.5120
  680MOL0     C91695   1.718   0.915  10.167 -1.4577 -0.2105 -0.1919
  680MOL0     O91696   1.633   0.924  10.265 -0.8389  0.9265 -0.0936
  680MOL0     C91697   1.498   0.921  10.238  0.2959  0.4131 -0.2963
  680MOL0     C91698   1.432   0.799  10.261  1.1678  0.4010 -0.3899
  680MOL0     C91699   1.291   0.791  10.255 -0.3166 -0.7471 -0.5945
  680MOL0     C91700   1.209   0.909  10.219 -0.2365  0.7110  1.1216
  680MOL0     O91701   1.072   0.891  10.197 -0.6055  0.7949  0.5420
  680MOL0     C91702   0.990   0.857  10.305 -0.3587  0.8270  0.6288
  680MOL0     C91703   0.840   0.847  10.249  0.0157 -0.2164 -0.2952
  680MOL0     C91704   0.742   0.786  10.342 -0.4586 -0.1399 -0.6493
  680MOL0     C91705   0.685   0.895  10.430 -0.3471  0.4889  0.2182
  680MOL0     C91706   0.574   0.853  10.519  0.2039 -0.2188 -0.6118
  680MOL0     C91707   0.436   0.853  10.450 -0.5082 -0.0034 -0.2670
  680MOL0     C91708   0.322   0.824  10.551  0.3394  0.6554 -0.7313
  680MOL0     C91709   0.196   0.827  10.457 -1.1844  1.2763 -0.0874
  680MOL0    Cl91710   0.042   0.759  10.529 -0.8367  0.3034 -0.4087
  680MOL0     C91711   1.277   1.029  10.191  0.2472  0.3420  0.0391
  680MOL0     C91712   1.420   1.034  10.196 -0.4965 -0.7758 -0.1386
  680MOL0     O91713   1.683   0.919  10.049 -0.1030  0.2188 -0.3449
  680MOL0     C91714   1.893   0.870  10.344  0.5358  0.7279  0.5428
  680MOL0     C91715   2.019   0.836  10.380 -1.1042 -0.0656  0.2852
  680MOL0     N91716   2.872   0.910  10.289 -0.4521 -0.2256  0.6410
  680MOL0     N91717   2.909   1.014  10.232 -0.2753  0.1216 -0.4074
  680MOL0     C91718   3.773   1.270   9.787 -0.3229 -0.1324 -0.5117
  680MOL0     C91719   3.875   1.240   9.874  0.4194 -0.7567 -0.5184
  680MOL0     C91720   4.234   1.063  10.068  0.5333  0.5367 -0.8362
  680MOL0     C91721   4.224   0.915  10.056  0.2281 -0.5556  0.1266
  680MOL0     C91722   4.340   0.843  10.086  0.8676  0.2628 -0.1304
  680MOL0     C91723   4.462   0.913  10.099 -0.1866  0.9991  0.0201
  680MOL0     O91724   4.582   0.857  10.127 -0.1215 -0.5702 -0.2329
  680MOL0     C91725   4.610   0.723  10.082 -0.2629 -0.2809  0.0501
  680MOL0     C91726   4.740   0.662  10.132 -0.2110 -0.2513  0.3514
  680MOL0     C91727   4.713   0.612  10.267 -0.2137  0.2292 -0.4412
  680MOL0     C91728   4.828   0.527  10.331  0.0175 -1.2236  0.8924
  680MOL0     C91729   4.949   0.603  10.330 -0.1918 -0.4921 -1.1521
  680MOL0     C91730   5.057   0.666  10.324 -0.8478  0.8201  0.1196
  680MOL0     C91731   4.463   1.051  10.104 -0.4827 -0.0834 -0.3311
  680MOL0     C91732   4.353   1.127  10.097  0.3085  0.4928  0.2341
  680MOL0     H91733   3.853   0.914   9.906 -2.5577 -0.3073  2.2519
  680MOL0     H91734   3.661   0.953   9.746 -0.0685 -0.6536  1.3275
  680MOL0     H91735   3.408   1.192   9.562 -0.7007 -0.7037  0.6736
  680MOL0     H91736   3.469   1.051   9.644 -0.5267 -0.9275  0.7364
  680MOL0     H91737   3.459   1.240   9.846  0.1578  0.6565 -0.0956
  680MOL0     H91738   3.351   1.333   9.746  2.8854  1.1899 -2.0756
  680MOL0     H91739   3.210   1.100   9.740  2.1791 -2.2511 -1.4090
  680MOL0     H91740   3.331   1.040   9.841  1.8788  2.2124  0.4989
  680MOL0     H91741   3.150   1.086   9.960 -1.7883  0.5590 -3.6741
  680MOL0     H91742   3.285   1.193  10.036 -1.0924  0.2924  1.1792
  680MOL0     H91743   3.174   1.389   9.936 -1.0519  0.3834 -0.5175
  680MOL0     H91744   3.066   1.288   9.846  0.0092 -0.8085 -0.3993
  680MOL0     H91745   3.085   1.268  10.158 -0.5380  1.3491  1.1945
  680MOL0     H91746   3.033   1.415  10.104 -0.8269 -1.5076  0.8073
  680MOL0     H91747   2.827   1.299   9.964  0.9637 -1.1801 -3.0092
  680MOL0     H91748   2.907   1.146  10.014 -1.1110 -0.9774  3.1569
  680MOL0     H91749   2.719   1.295  10.169  0.0954 -1.7346  1.3338
  680MOL0     H91750   2.879   1.307  10.246  0.0909 -0.4149  0.2649
  680MOL0     H91751   2.592   1.079  10.268  0.7770 -0.2842 -0.2919
  680MOL0     H91752   2.664   0.726  10.339  0.4293  0.9758 -2.1512
  680MOL0     H91753   2.689   0.817  10.494 -1.6183  2.4430  0.9973
  680MOL0     H91754   2.470   0.868  10.286  1.5319  0.1236 -0.8889
  680MOL0     H91755   2.488   0.939  10.445  0.1741  0.6327 -0.8121
  680MOL0     H91756   2.478   0.686  10.537  0.1427 -1.7835 -1.0313
  680MOL0     H91757   2.440   0.645  10.369 -0.2471 -0.7350  1.0057
  680MOL0     H91758   2.277   0.839  10.528 -2.4240  0.4050 -0.6028
  680MOL0     H91759   2.226   0.681  10.509  1.8824 -1.0573  1.2366
  680MOL0     H91760   2.175   0.811  10.081  0.6889 -0.3076  1.2733
  680MOL0     H91761   1.878   0.784   9.926  0.2491 -0.1705 -0.3226
  680MOL0     H91762   1.889   0.964   9.931 -2.9878 -1.5211  0.2999
  680MOL0     H91763   2.028   0.861   9.899 -0.3438 -0.6988  0.4313
  680MOL0     H91764   1.480   0.708  10.295 -0.3728 -0.8526 -1.3897
  680MOL0     H91765   1.238   0.698  10.274  1.3276 -1.3808  1.3292
  680MOL0     H91766   1.030   0.762  10.340  0.8488  0.6248 -1.1768
  680MOL0     H91767   1.000   0.933  10.383  1.9741 -2.0655  3.3773
  680MOL0     H91768   0.816   0.949  10.219  2.3798  0.9648  1.4931
  680MOL0     H91769   0.838   0.789  10.156  2.7865  0.3955 -0.8092
  680MOL0     H91770   0.790   0.715  10.408 -2.5719 -0.2942  0.8309
  680MOL0     H91771   0.664   0.750  10.273 -0.4107  2.2165 -2.0569
  680MOL0     H91772   0.764   0.940  10.491 -1.5978  0.6623  1.7897
  680MOL0     H91773   0.649   0.967  10.356 -0.5253 -0.8114 -1.0074
  680MOL0     H91774   0.569   0.926  10.601  3.5829 -1.3324  0.7458
  680MOL0     H91775   0.598   0.755  10.559  1.7223  0.4623  0.2307
  680MOL0     H91776   0.425   0.949  10.399 -2.0343  0.7833  1.4230
  680MOL0     H91777   0.439   0.776  10.373 -0.2178 -0.4563  0.1885
  680MOL0     H91778   0.317   0.904  10.624 -1.0442  1.1154 -1.3022
  680MOL0     H91779   0.334   0.730  10.606  1.2954  1.2682  0.1427
  680MOL0     H91780   0.217   0.762  10.371 -1.4740  0.9944  0.0539
  680MOL0     H91781   0.180   0.929  10.420 -0.7378  1.7661  1.0130
  680MOL0     H91782   1.221   1.121  10.176 -0.4680 -0.2608 -1.1584
  680MOL0     H91783   1.478   1.122  10.172 -0.5671 -0.3098  1.3262
  680MOL0     H91784   1.817   0.875  10.422  1.2883 -1.3995  1.4791
  680MOL0     H91785   2.039   0.811  10.484  0.3899 -3.0686 -0.6253
  680MOL0     H91786   3.763   1.366   9.738 -1.4987  0.6409  1.1408
  680MOL0     H91787   3.932   1.326   9.908 -0.9218 -0.3185  0.7190
  680MOL0     H91788   4.130   0.862  10.043 -1.2257  1.6705  0.9588
  680MOL0     H91789   4.318   0.738  10.098 -0.0221  0.1306 -2.3797
  680MOL0     H91790   4.522   0.662  10.107 -1.5468  2.0429  1.5022
  680MOL0     H91791   4.621   0.738   9.974  1.3203  1.1084  0.3771
  680MOL0     H91792   4.818   0.739  10.126 -0.4741  0.0557  0.8087
  680MOL0     H91793   4.763   0.581  10.062  4.1217  1.0856 -0.0564
  680MOL0     H91794   4.623   0.552  10.281  1.0115 -1.2859  1.3029
  680MOL0     H91795   4.696   0.691  10.340 -0.1463 -0.7737  0.6839
  680MOL0     H91796   4.847   0.435  10.274 -1.0265  0.4495 -2.3960
  680MOL0     H91797   4.794   0.490  10.428  0.1867 -1.3880  0.8889
  680MOL0     H91798   5.154   0.709  10.305 -1.8772  2.4498 -1.8531
  680MOL0     H91799   4.549   1.110  10.134 -0.7637 -0.3908  1.1574
  680MOL0     H91800   4.359   1.231  10.127 -0.7320 -0.0071  2.3948
  681MOL0     O91801   2.210   0.453   4.829  0.5799  0.6692  0.0095
  681MOL0     C91802   2.324   0.502   4.832  0.0923 -0.1776  0.3073
  681MOL0     O91803   2.364   0.618   4.780  0.3113 -0.4721  0.2529
  681MOL0     C91804   2.285   0.689   4.696 -0.3323  0.0070 -0.7165
  681MOL0     C91805   2.153   0.736   4.716  1.0078  0.9964 -0.5343
  681MOL0     C91806   2.080   0.809   4.618  0.5456  0.0807  0.4784
  681MOL0     C91807   2.139   0.853   4.497 -1.2283 -0.7641 -0.2195
  681MOL0     O91808   2.065   0.924   4.407 -0.0513  0.1162  0.0370
  681MOL0     C91809   2.114   1.039   4.344 -0.3096  1.0818  0.3640
  681MOL0     C91810   1.998   1.138   4.336  0.1031  0.3950 -0.8737
  681MOL0     C91811   2.036   1.256   4.255 -0.6846 -0.6954 -0.2688
  681MOL0     C91812   1.917   1.347   4.233 -0.7636 -0.2438  0.2292
  681MOL0     C91813   1.977   1.484   4.218 -1.0246 -0.6427 -0.1556
  681MOL0     C91814   1.871   1.590   4.180  0.3799  0.8204 -0.3138
  681MOL0     C91815   1.927   1.725   4.126  0.0322  0.9135  0.0630
  681MOL0     C91816   1.947   1.817   4.251  0.1007  0.8989 -0.7099
  681MOL0     N91817   2.038   1.927   4.205 -0.3632 -0.0564  0.1679
  681MOL0     C91818   2.020   2.065   4.238 -0.4867  0.7336 -0.5724
  681MOL0     C91819   2.144   2.116   4.214 -0.0017 -0.9110 -0.6669
  681MOL0     C91820   2.196   2.242   4.276 -0.7521 -1.0746 -0.3458
  681MOL0     C91821   2.180   2.365   4.185  0.1734 -0.4787  0.1384
  681MOL0     C91822   2.248   2.490   4.242  0.6801 -0.3173 -0.3150
  681MOL0     C91823   2.399   2.486   4.211 -0.1513  0.7331 -0.7472
  681MOL0     O91824   2.452   2.618   4.211 -0.3554 -0.0995 -0.0638
  681MOL0     C91825   2.577   2.646   4.162 -0.6594 -0.2785  0.6399
  681MOL0     C91826   2.656   2.551   4.094  0.7929 -0.6791 -0.2150
  681MOL0     C91827   2.779   2.585   4.053 -0.1085  0.2779 -0.2834
  681MOL0     C91828   2.882   2.477   4.021  0.1686 -0.4048  0.0946
  681MOL0     C91829   2.816   2.720   4.041 -0.3509  0.0202 -0.2264
  681MOL0     C91830   2.934   2.765   3.979 -0.6354 -0.7705  0.7268
  681MOL0     O91831   3.006   2.862   4.039 -0.7955  0.4874  0.6819
  681MOL0     C91832   3.132   2.892   4.005  0.5300  0.0365 -0.2454
  681MOL0     C91833   3.252   2.826   4.048  0.1428  0.6216  0.6748
  681MOL0     C91834   3.381   2.852   4.008  0.6890 -0.5868 -1.2042
  681MOL0     C91835   3.393   2.960   3.924 -0.6941  0.1816  1.4249
  681MOL0     O91836   3.513   3.001   3.873  0.3981  0.1078  0.1998
  681MOL0     C91837   3.634   2.935   3.913 -0.1491  0.8993 -0.0210
  681MOL0     C91838   3.741   2.997   3.834 -0.6062 -0.1374 -0.0176
  681MOL0     C91839   3.861   2.903   3.805  0.3278 -0.3152  0.6849
  681MOL0     C91840   3.990   2.978   3.786 -0.6669  0.4670 -0.1570
  681MOL0     C91841   4.095   2.907   3.681  0.9363  0.6080  0.1032
  681MOL0     C91842   4.240   2.939   3.696  0.9001  0.4419  0.6944
  681MOL0     C91843   4.328   2.851   3.619 -0.4194  0.2267 -0.2125
  681MOL0     C91844   4.328   2.876   3.467 -1.0602 -1.0531  0.1441
  681MOL0    Cl91845   4.370   3.044   3.413  0.2002  0.0022 -0.0165
  681MOL0     C91846   3.285   3.020   3.857 -0.7066 -0.0538 -0.0266
  681MOL0     C91847   3.151   2.984   3.898  0.5603 -0.4424  0.6612
  681MOL0     O91848   2.960   2.718   3.866 -0.1961  0.7451  0.7150
  681MOL0     C91849   2.738   2.815   4.107  0.1783  0.6031 -0.1225
  681MOL0     C91850   2.616   2.780   4.166 -0.0698  0.2570 -0.3129
  681MOL0     N91851   2.225   2.026   4.154 -0.4376  0.3604 -0.5247
  681MOL0     N91852   2.160   1.913   4.149 -0.0588  0.4806 -0.2268
  681MOL0     C91853   2.273   0.812   4.481  0.3422 -0.4544  0.0532
  681MOL0     C91854   2.341   0.732   4.569  0.3351  1.0684  0.4331
  681MOL0     C91855   2.429   0.424   4.911  0.9145  0.1439  0.0386
  681MOL0     C91856   2.396   0.289   4.949 -0.7749  0.3052  0.6047
  681MOL0     C91857   2.482   0.210   5.026  0.2496  0.0690 -0.0314
  681MOL0     C91858   2.612   0.258   5.054  0.3278  0.4523  0.1628
  681MOL0     O91859   2.707   0.185   5.129 -0.2622 -0.0582 -0.5027
  681MOL0     C91860   2.683   0.050   5.178  0.7662 -0.4425 -0.2290
  681MOL0     C91861   2.797  -0.007   5.255 -0.4403  0.4037 -0.6048
  681MOL0     C91862   2.937   0.000   5.184  0.0009  0.5725  0.8435
  681MOL0     C91863   3.043  -0.095   5.237  0.2434  0.1651  0.3614
  681MOL0     C91864   3.149  -0.121   5.141 -0.3174 -0.8724 -0.2809
  681MOL0     C91865   3.246  -0.156   5.077  0.0824 -0.3602  0.2017
  681MOL0     C91866   2.653   0.384   5.018  0.3949  1.3095 -0.2365
  681MOL0     C91867   2.562   0.457   4.937 -1.0165 -0.1895 -0.8089
  681MOL0     H91868   2.104   0.708   4.809 -0.9920 -0.5281 -1.9673
  681MOL0     H91869   1.977   0.841   4.632 -0.2232 -1.4734 -1.1840
  681MOL0     H91870   2.202   1.074   4.398 -1.8279  1.0662  3.0163
  681MOL0     H91871   2.141   1.012   4.242 -3.0255  0.0675 -0.1733
  681MOL0     H91872   1.905   1.095   4.299  0.9634 -0.8241 -1.7367
  681MOL0     H91873   1.965   1.163   4.436 -1.3663 -1.9927 -0.6919
  681MOL0     H91874   2.117   1.302   4.312 -1.1660  2.0046 -1.6200
  681MOL0     H91875   2.081   1.231   4.159  0.1679  0.7447 -0.2644
  681MOL0     H91876   1.860   1.326   4.142  0.9408  1.8881 -1.4534
  681MOL0     H91877   1.844   1.351   4.315 -1.6225 -1.3009 -0.4597
  681MOL0     H91878   2.037   1.525   4.300 -0.8307  4.0413 -2.3518
  681MOL0     H91879   2.040   1.484   4.129 -1.2718  0.4970 -0.3391
  681MOL0     H91880   1.793   1.548   4.116  0.5626 -0.7484  0.4402
  681MOL0     H91881   1.828   1.613   4.278  2.2525  0.6404  0.5961
  681MOL0     H91882   2.015   1.698   4.068 -2.2810 -0.6990 -2.9816
  681MOL0     H91883   1.861   1.778   4.057  0.6616 -0.3670 -1.5780
  681MOL0     H91884   1.987   1.756   4.332 -3.4007 -2.3844 -1.1513
  681MOL0     H91885   1.855   1.851   4.299  1.1187  3.0561 -0.1953
  681MOL0     H91886   1.934   2.113   4.284  0.0180  0.7295  0.3966
  681MOL0     H91887   2.129   2.252   4.362  2.0463  1.3582  1.7676
  681MOL0     H91888   2.299   2.229   4.312 -1.0034  0.0119  0.8200
  681MOL0     H91889   2.075   2.381   4.163 -0.4859 -3.5921  0.4744
  681MOL0     H91890   2.218   2.334   4.087  0.0100 -3.5055  0.9260
  681MOL0     H91891   2.217   2.504   4.346 -3.7082  1.8513 -1.7044
  681MOL0     H91892   2.199   2.576   4.194 -0.7293  0.5340  2.4241
  681MOL0     H91893   2.420   2.448   4.111 -0.1402 -1.7832  0.1348
  681MOL0     H91894   2.448   2.425   4.288  1.0897  1.9790 -0.5118
  681MOL0     H91895   2.626   2.447   4.099 -1.2159 -0.1425  0.0696
  681MOL0     H91896   2.985   2.507   3.997  0.8523 -1.3699  1.7270
  681MOL0     H91897   2.890   2.420   4.113  2.2749  1.5972  1.2626
  681MOL0     H91898   2.834   2.413   3.946 -1.8293  0.7708  0.2983
  681MOL0     H91899   3.227   2.740   4.109 -1.5387 -1.2102 -2.3039
  681MOL0     H91900   3.458   2.784   4.041  1.0849  1.4724  2.6222
  681MOL0     H91901   3.645   2.945   4.021  1.3184 -2.1460  0.2105
  681MOL0     H91902   3.625   2.827   3.898  2.0016  0.8940 -1.9628
  681MOL0     H91903   3.702   3.023   3.735 -0.1575  0.6986  0.0150
  681MOL0     H91904   3.764   3.087   3.892 -0.9110 -0.3514  0.4433
  681MOL0     H91905   3.846   2.854   3.708 -0.2904  1.5047 -0.1978
  681MOL0     H91906   3.871   2.835   3.890 -0.5234  0.1030  1.1340
  681MOL0     H91907   3.973   3.082   3.755 -1.3557  0.2672 -0.4562
  681MOL0     H91908   4.042   2.984   3.882 -1.7691  0.3028  0.4661
  681MOL0     H91909   4.064   2.935   3.580  2.4478 -3.9314 -1.8826
  681MOL0     H91910   4.070   2.800   3.679 -1.1062  0.9524  2.0630
  681MOL0     H91911   4.266   3.041   3.664  1.5620  0.0310 -0.1264
  681MOL0     H91912   4.266   2.918   3.800  2.1477 -1.2076  0.0800
  681MOL0     H91913   4.302   2.746   3.636 -0.0528 -0.0682 -1.3379
  681MOL0     H91914   4.423   2.869   3.669  0.0343  5.6847 -2.3743
  681MOL0     H91915   4.234   2.849   3.417  0.8400 -1.7079 -3.4397
  681MOL0     H91916   4.405   2.808   3.429 -0.8642  0.8911 -3.3447
  681MOL0     H91917   3.306   3.095   3.781  0.6725 -1.2393 -0.8629
  681MOL0     H91918   3.064   3.019   3.843  0.4085 -2.4958 -0.5020
  681MOL0     H91919   2.759   2.922   4.114 -2.8042  1.4663 -2.3723
  681MOL0     H91920   2.556   2.860   4.209 -2.9327 -1.4872 -0.8265
  681MOL0     H91921   2.309   0.838   4.383  0.3982  0.8032  0.3877
  681MOL0     H91922   2.438   0.695   4.537 -0.3307  2.0081 -3.1016
  681MOL0     H91923   2.297   0.248   4.928  0.5906 -3.1976  0.3408
  681MOL0     H91924   2.456   0.107   5.044 -2.1621  0.2835 -1.6968
  681MOL0     H91925   2.594   0.059   5.241  2.3600  2.7578  1.8654
  681MOL0     H91926   2.656  -0.009   5.091 -3.2015  0.3337  0.3025
  681MOL0     H91927   2.777  -0.107   5.293  2.7335 -0.5430 -1.2023
  681MOL0     H91928   2.807   0.062   5.339 -0.3643 -1.4104  0.9370
  681MOL0     H91929   2.972   0.104   5.188  0.3465  0.4365  1.4304
  681MOL0     H91930   2.919  -0.028   5.080  1.6648  2.1001  0.0889
  681MOL0     H91931   2.993  -0.189   5.261  0.7182  0.2458  1.7412
  681MOL0     H91932   3.082  -0.066   5.335  0.1487  1.8792 -0.0741
  681MOL0     H91933   3.321  -0.193   5.010 -0.1390 -2.6614  1.1293
  681MOL0     H91934   2.752   0.425   5.038  0.8523  0.0863  0.0969
  681MOL0     H91935   2.597   0.552   4.898  1.3507  0.8343  3.1628
  682MOL0     O91936   3.674   8.613   2.853 -0.0662  0.5886 -0.2075
  682MOL0     C91937   3.657   8.499   2.904 -0.3305  0.8001  0.2460
  682MOL0     O91938   3.530   8.459   2.939  0.0714 -0.2790  0.4303
  682MOL0     C91939   3.425   8.545   2.922 -0.5995  0.4047  0.1819
  682MOL0     C91940   3.415   8.680   2.970 -0.4707  0.0044 -0.1282
  682MOL0     C91941   3.302   8.748   2.942  0.4342  0.2891  0.8904
  682MOL0     C91942   3.200   8.690   2.870  0.2620  0.4986  0.4218
  682MOL0     O91943   3.084   8.761   2.837 -0.5095  1.4528  0.1487
  682MOL0     C91944   3.055   8.894   2.882  0.3236  0.8630  0.4445
  682MOL0     C91945   2.913   8.918   2.833  0.3309 -1.1921  0.1391
  682MOL0     C91946   2.868   9.065   2.843  0.3612  0.3690 -0.2936
  682MOL0     C91947   2.719   9.060   2.830 -0.0957  1.1263  0.0644
  682MOL0     C91948   2.661   9.190   2.870 -0.3752  1.0817  0.4128
  682MOL0     C91949   2.510   9.183   2.846  0.0302  0.0925  0.1218
  682MOL0     C91950   2.427   9.306   2.902 -0.3978 -0.0623 -0.5099
  682MOL0     C91951   2.456   9.442   2.830 -0.3746  0.8083  0.2179
  682MOL0     N91952   2.413   9.441   2.689 -0.1319 -0.5462  0.4698
  682MOL0     C91953   2.292   9.401   2.632  0.0800  0.0482  0.9810
  682MOL0     C91954   2.301   9.422   2.502  0.8634  0.1415  0.2172
  682MOL0     C91955   2.206   9.373   2.392  0.6932 -0.3075 -0.2788
  682MOL0     C91956   2.075   9.453   2.392  0.3237  0.0043  0.6176
  682MOL0     C91957   1.990   9.427   2.522 -0.9400 -0.5377  0.0338
  682MOL0     C91958   1.844   9.412   2.486  0.3005 -0.1535 -0.8766
  682MOL0     O91959   1.790   9.376   2.613  0.0238  0.2520 -0.6587
  682MOL0     C91960   1.653   9.346   2.617 -0.2697  0.1680 -0.4454
  682MOL0     C91961   1.605   9.336   2.744 -0.1652  0.8195  0.0097
  682MOL0     C91962   1.463   9.334   2.762 -0.1913  0.3318  0.1497
  682MOL0     C91963   1.428   9.295   2.903  0.3761  0.2527  1.5447
  682MOL0     C91964   1.368   9.349   2.651 -0.6526 -0.0002 -0.1928
  682MOL0     C91965   1.224   9.339   2.675  0.8543 -0.3039 -0.2429
  682MOL0     O91966   1.154   9.304   2.568  0.9065 -0.0629  0.0745
  682MOL0     C91967   1.011   9.301   2.574  0.5003  0.3027 -0.5505
  682MOL0     C91968   0.933   9.418   2.550 -0.3135  1.0337 -0.5068
  682MOL0     C91969   0.792   9.419   2.570 -0.1107  0.5102 -0.7024
  682MOL0     C91970   0.725   9.300   2.610  0.0025 -0.6018 -0.3401
  682MOL0     O91971   0.586   9.296   2.629  0.3353 -0.1068  0.3255
  682MOL0     C91972   0.537   9.371   2.743 -0.9093  1.2041 -0.2302
  682MOL0     C91973   0.394   9.399   2.697 -0.8150  0.2694  0.2083
  682MOL0     C91974   0.313   9.481   2.796 -0.3305  0.0644  0.1671
  682MOL0     C91975   0.163   9.459   2.780  0.6317  0.6010  0.5600
  682MOL0     C91976   0.075   9.555   2.858  0.4976  0.0846 -0.8565
  682MOL0     C91977  -0.075   9.551   2.815  0.5463  0.2081  0.1901
  682MOL0     C91978  -0.140   9.406   2.829  0.1354 -0.2707  0.1550
  682MOL0     C91979  -0.294   9.406   2.837  1.8120 -0.4651 -0.1256
  682MOL0    Cl91980  -0.340   9.505   2.981 -0.2031  0.3922 -0.0128
  682MOL0     C91981   0.804   9.188   2.630  0.2301  0.5658 -0.5178
  682MOL0     C91982   0.941   9.184   2.616 -0.9585  0.5569  0.4836
  682MOL0     O91983   1.170   9.361   2.786 -0.3974  0.6001  0.1651
  682MOL0     C91984   1.422   9.349   2.524 -0.3595 -0.5887 -0.0067
  682MOL0     C91985   1.565   9.348   2.512 -0.1579 -0.9876  0.2798
  682MOL0     N91986   2.417   9.489   2.480  0.1057  0.0172 -0.1106
  682MOL0     N91987   2.485   9.495   2.592  0.5150 -0.3899  0.3173
  682MOL0     C91988   3.209   8.563   2.814  0.3721 -0.1175 -0.4828
  682MOL0     C91989   3.320   8.492   2.855  0.6521  0.1592 -0.3432
  682MOL0     C91990   3.773   8.408   2.908 -0.9348 -0.0274 -0.4840
  682MOL0     C91991   3.762   8.283   2.975 -0.0131 -0.9871  0.7340
  682MOL0     C91992   3.870   8.197   2.993 -0.4532  0.2069 -0.3415
  682MOL0     C91993   3.997   8.240   2.958 -1.0951 -0.1946  0.7794
  682MOL0     O91994   4.091   8.141   2.980 -0.0323  0.2096  0.9480
  682MOL0     C91995   4.230   8.154   2.954  0.1574 -0.2988 -0.4162
  682MOL0     C91996   4.294   8.012   2.964 -0.2075 -0.2455  0.5159
  682MOL0     C91997   4.448   8.011   2.952  0.6384  0.4413  0.4547
  682MOL0     C91998   4.500   7.867   2.958  1.1136 -1.1666 -0.2892
  682MOL0     C91999   4.632   7.853   2.905 -1.2493  0.2095 -0.5232
  682MOL0     C92000   4.755   7.854   2.882 -0.1958 -0.3507 -0.0984
  682MOL0     C92001   4.018   8.365   2.890  0.1234  0.7565  0.2226
  682MOL0     C92002   3.908   8.454   2.873 -0.4564  0.3962  0.4737
  682MOL0     H92003   3.489   8.740   3.023 -2.9481  1.5900  1.7587
  682MOL0     H92004   3.297   8.846   2.989  0.9679  1.0923 -0.6675
  682MOL0     H92005   3.074   8.894   2.989  2.1732  1.2311  0.1590
  682MOL0     H92006   3.125   8.961   2.831  1.7073 -0.9585 -0.1377
  682MOL0     H92007   2.905   8.881   2.731  1.6587 -1.5619  0.1564
  682MOL0     H92008   2.834   8.859   2.882 -1.0714 -1.9175 -2.8048
  682MOL0     H92009   2.898   9.101   2.942  0.7790  1.6264 -0.8610
  682MOL0     H92010   2.925   9.120   2.768 -1.4531  0.5645 -1.5941
  682MOL0     H92011   2.685   9.048   2.727 -0.6671  2.4312  0.0793
  682MOL0     H92012   2.675   8.985   2.897 -0.2756  0.1980 -1.0683
  682MOL0     H92013   2.671   9.197   2.979 -1.7686 -2.4615  0.9148
  682MOL0     H92014   2.715   9.269   2.817 -0.0045  0.4055 -0.2257
  682MOL0     H92015   2.478   9.173   2.742  0.3494 -1.4544  0.1436
  682MOL0     H92016   2.480   9.089   2.893  3.5804 -1.9071 -1.2273
  682MOL0     H92017   2.321   9.279   2.899 -0.3132 -0.6960  1.2925
  682MOL0     H92018   2.456   9.315   3.007  0.3571 -0.1148 -0.7048
  682MOL0     H92019   2.559   9.474   2.845  0.9619 -2.5803 -0.7609
  682MOL0     H92020   2.403   9.519   2.886  0.3562  1.1175  0.4994
  682MOL0     H92021   2.205   9.370   2.689 -1.0777  2.6954  0.8212
  682MOL0     H92022   2.250   9.396   2.294 -0.9865  0.4916 -0.8892
  682MOL0     H92023   2.183   9.267   2.406  2.0156 -0.4957  0.7514
  682MOL0     H92024   2.021   9.415   2.305 -2.1543  1.6553  1.3225
  682MOL0     H92025   2.086   9.559   2.369  0.2179 -0.6391 -2.9175
  682MOL0     H92026   2.001   9.507   2.596  1.0624 -0.2274 -0.5507
  682MOL0     H92027   2.022   9.332   2.567  2.8494  0.1089 -0.9648
  682MOL0     H92028   1.833   9.345   2.400  3.0804 -1.4783 -0.3229
  682MOL0     H92029   1.795   9.504   2.455 -1.2632 -0.1286  1.4471
  682MOL0     H92030   1.674   9.332   2.828 -0.0971  1.6543  0.0014
  682MOL0     H92031   1.351   9.357   2.950 -0.9169 -1.2496  1.4927
  682MOL0     H92032   1.388   9.193   2.907 -0.7045  0.6662  1.7454
  682MOL0     H92033   1.516   9.300   2.967 -0.6732  1.5496  2.9842
  682MOL0     H92034   0.987   9.508   2.524  1.4486  0.2082  0.1699
  682MOL0     H92035   0.751   9.518   2.559 -0.2757  0.6110  0.6990
  682MOL0     H92036   0.550   9.307   2.830 -0.3177  1.3493 -0.2086
  682MOL0     H92037   0.577   9.471   2.759 -2.0143  1.4284  1.3118
  682MOL0     H92038   0.395   9.448   2.599 -1.2822 -2.7167 -1.3847
  682MOL0     H92039   0.343   9.306   2.674 -0.3209  0.1985 -0.6412
  682MOL0     H92040   0.336   9.587   2.776  1.9229 -0.5331 -0.7216
  682MOL0     H92041   0.335   9.462   2.901  0.4088  0.2368  0.0532
  682MOL0     H92042   0.128   9.459   2.676  0.5634 -1.7167  0.5280
  682MOL0     H92043   0.145   9.359   2.819  1.2578  0.6195  0.9095
  682MOL0     H92044   0.110   9.659   2.860 -1.5877  0.8513  1.6213
  682MOL0     H92045   0.078   9.523   2.963 -1.2240 -3.0297 -1.6327
  682MOL0     H92046  -0.128   9.620   2.881 -0.9190  0.7212 -1.4554
  682MOL0     H92047  -0.083   9.585   2.711 -0.2960 -0.0355  0.1637
  682MOL0     H92048  -0.107   9.356   2.921 -0.4327  0.6720  0.8858
  682MOL0     H92049  -0.113   9.337   2.749  1.5792  1.8721 -1.3181
  682MOL0     H92050  -0.326   9.302   2.850  2.2645 -0.6942 -0.7948
  682MOL0     H92051  -0.347   9.454   2.754  0.6084  0.8786  1.3480
  682MOL0     H92052   0.740   9.105   2.658 -0.4114  1.7380  1.7682
  682MOL0     H92053   0.992   9.089   2.626  0.9865  1.5571  0.7366
  682MOL0     H92054   1.370   9.356   2.429  1.7320 -0.4986 -1.2078
  682MOL0     H92055   1.614   9.366   2.417  0.0729 -0.1454  0.5503
  682MOL0     H92056   3.144   8.515   2.742  2.2915 -2.6994 -0.6188
  682MOL0     H92057   3.329   8.392   2.814  0.1079  0.3189 -0.8610
  682MOL0     H92058   3.664   8.246   3.005 -1.4799  1.8872 -0.0523
  682MOL0     H92059   3.860   8.099   3.040  0.1588  1.2544  2.1097
  682MOL0     H92060   4.254   8.190   2.854  0.4098  0.3512 -0.1283
  682MOL0     H92061   4.268   8.225   3.028 -1.2713  0.5653 -0.4921
  682MOL0     H92062   4.256   7.947   2.884 -1.4573 -1.8738  2.3425
  682MOL0     H92063   4.259   7.965   3.056  0.9679  1.1867  1.7496
  682MOL0     H92064   4.488   8.051   3.045 -0.1673  0.4733  0.7983
  682MOL0     H92065   4.480   8.070   2.865  0.6232 -1.6312 -1.0548
  682MOL0     H92066   4.436   7.805   2.893  1.7946 -1.5255 -0.6269
  682MOL0     H92067   4.487   7.841   3.063 -3.7765  2.8205  0.4390
  682MOL0     H92068   4.861   7.864   2.880  0.1596 -1.9238  3.3765
  682MOL0     H92069   4.119   8.392   2.862  1.3782 -2.3825  1.2308
  682MOL0     H92070   3.916   8.555   2.836  0.7193  0.2651  0.3128
  683MOL0     O92071   7.063   1.396   1.550 -0.5743  0.2686 -0.5363
  683MOL0     C92072   7.143   1.323   1.613 -0.0282  0.3229  0.6164
  683MOL0     O92073   7.109   1.228   1.710 -0.0512 -0.0953 -0.4596
  683MOL0     C92074   6.979   1.210   1.730 -0.0458 -0.3705 -0.5096
  683MOL0     C92075   6.903   1.308   1.807 -0.4844  0.3579 -0.4646
  683MOL0     C92076   6.758   1.287   1.821  0.6142  0.9001  0.6319
  683MOL0     C92077   6.690   1.180   1.752 -0.4167 -0.3522  0.2311
  683MOL0     O92078   6.557   1.148   1.777  0.6728 -0.1882 -0.7239
  683MOL0     C92079   6.470   1.176   1.666  0.0818  0.0190 -0.7950
  683MOL0     C92080   6.407   1.316   1.664  0.2313  0.1296 -0.3453
  683MOL0     C92081   6.342   1.347   1.799  1.4053  0.8162  0.2193
  683MOL0     C92082   6.218   1.435   1.786 -0.0258  0.3822  0.1500
  683MOL0     C92083   6.087   1.368   1.741 -0.4629  0.4082  0.5182
  683MOL0     C92084   6.010   1.312   1.860  0.3541 -0.4417  0.1220
  683MOL0     C92085   5.865   1.272   1.825 -0.2205 -0.0986  0.4408
  683MOL0     C92086   5.761   1.397   1.814 -0.1644 -0.1749 -0.9039
  683MOL0     N92087   5.624   1.347   1.850  0.0290  0.3322  0.6664
  683MOL0     C92088   5.558   1.250   1.776  0.5141 -0.6190  0.4587
  683MOL0     C92089   5.440   1.223   1.838  0.1243  0.1708  0.4631
  683MOL0     C92090   5.357   1.096   1.817  0.4690  0.6504 -0.4014
  683MOL0     C92091   5.217   1.116   1.857  0.6252 -0.2331  0.0847
  683MOL0     C92092   5.136   0.994   1.840  0.3228 -0.0574  0.0531
  683MOL0     C92093   5.073   0.973   1.709 -0.2954  0.3202  0.3799
  683MOL0     O92094   4.977   1.076   1.685 -0.0442 -0.5047  0.1412
  683MOL0     C92095   4.853   1.021   1.671  0.7173 -0.6301 -0.4522
  683MOL0     C92096   4.792   0.988   1.549  0.5932  0.0251  0.2033
  683MOL0     C92097   4.662   0.944   1.539  1.4527 -0.5233  0.0661
  683MOL0     C92098   4.612   0.888   1.407  0.3300  0.8809  0.2605
  683MOL0     C92099   4.573   0.955   1.651 -1.2512  0.8708 -0.2836
  683MOL0     C92100   4.429   0.913   1.661 -0.2231  0.3073 -0.8236
  683MOL0     O92101   4.354   0.971   1.757 -0.0287 -0.4323 -0.2186
  683MOL0     C92102   4.220   0.984   1.730  0.5401  0.9155  0.0691
  683MOL0     C92103   4.122   0.963   1.828  0.2217 -1.1505  0.2772
  683MOL0     C92104   3.981   0.972   1.792 -0.1408  0.2116  0.4194
  683MOL0     C92105   3.944   0.996   1.659 -0.1744  0.2187 -0.6885
  683MOL0     O92106   3.817   0.991   1.617 -0.3508 -0.2967 -0.9252
  683MOL0     C92107   3.752   1.117   1.586  0.0089 -0.0291 -0.9575
  683MOL0     C92108   3.605   1.091   1.603 -0.6569 -0.7282 -0.2330
  683MOL0     C92109   3.502   1.197   1.558 -0.2081 -0.2173 -0.8628
  683MOL0     C92110   3.357   1.165   1.603 -0.0165 -0.2342 -0.1269
  683MOL0     C92111   3.250   1.272   1.556  0.4484  0.2316  0.5386
  683MOL0     C92112   3.232   1.261   1.403 -0.1409  0.7511  0.2926
  683MOL0     C92113   3.102   1.327   1.366  0.8335 -0.2703 -0.1816
  683MOL0     C92114   3.046   1.277   1.230 -0.0794  0.0759 -0.7768
  683MOL0    Cl92115   2.964   1.115   1.265 -0.1898 -0.2799  0.4534
  683MOL0     C92116   4.043   1.016   1.567  0.4703 -0.1707 -0.0339
  683MOL0     C92117   4.178   1.017   1.604 -0.7147 -1.4769  0.6265
  683MOL0     O92118   4.395   0.823   1.593 -0.1254  0.2738  0.3712
  683MOL0     C92119   4.635   1.008   1.770 -0.4529  0.1064  0.6767
  683MOL0     C92120   4.774   1.028   1.783  0.0158 -0.5426  0.8793
  683MOL0     N92121   5.423   1.322   1.932  0.9127  0.2193  0.6154
  683MOL0     N92122   5.534   1.382   1.950 -0.3418 -0.1900 -0.8525
  683MOL0     C92123   6.760   1.098   1.669 -1.0757 -0.3226  0.1032
  683MOL0     C92124   6.897   1.114   1.663 -0.1087 -0.7355 -0.0281
  683MOL0     C92125   7.284   1.348   1.601  0.3030 -0.9594 -0.6767
  683MOL0     C92126   7.360   1.304   1.707  0.5281  0.1991 -0.5691
  683MOL0     C92127   7.488   1.340   1.727 -0.1232  0.2384 -0.1493
  683MOL0     C92128   7.549   1.412   1.629  0.9728 -0.0533 -0.1521
  683MOL0     O92129   7.679   1.450   1.634 -0.5004  0.3317  0.2412
  683MOL0     C92130   7.768   1.412   1.731  0.3131  0.3558  0.0301
  683MOL0     C92131   7.918   1.461   1.700  0.9130 -0.6917  0.2998
  683MOL0     C92132   8.009   1.458   1.824 -0.1422 -0.2784  0.7050
  683MOL0     C92133   8.137   1.536   1.799  0.2880  0.2534 -0.5462
  683MOL0     C92134   8.254   1.450   1.777 -0.1664 -0.2332 -0.2390
  683MOL0     C92135   8.358   1.382   1.766 -0.0690 -0.0173  0.7761
  683MOL0     C92136   7.480   1.452   1.507  0.6871  0.3870 -0.6688
  683MOL0     C92137   7.345   1.425   1.504 -0.1882 -0.1899  0.4041
  683MOL0     H92138   6.959   1.385   1.858  1.4848 -0.2549 -1.5589
  683MOL0     H92139   6.688   1.348   1.877  0.9167  0.3026  1.6755
  683MOL0     H92140   6.521   1.165   1.570  2.5118  2.0446  0.1264
  683MOL0     H92141   6.391   1.101   1.670  0.9660 -1.1499  5.6998
  683MOL0     H92142   6.472   1.401   1.643  0.7091 -0.3379 -0.7816
  683MOL0     H92143   6.325   1.321   1.591  0.2686  0.7682 -0.3425
  683MOL0     H92144   6.308   1.257   1.853  1.4466  1.5520  1.5219
  683MOL0     H92145   6.416   1.388   1.869 -0.2482  0.7773  2.0884
  683MOL0     H92146   6.211   1.494   1.878 -1.0035 -0.6567  0.7673
  683MOL0     H92147   6.244   1.512   1.713  2.4254  0.9069  1.4657
  683MOL0     H92148   6.029   1.446   1.690  0.7898  0.5336 -0.7951
  683MOL0     H92149   6.111   1.290   1.668 -2.3165  0.7445 -0.5318
  683MOL0     H92150   6.065   1.223   1.894 -0.9991 -0.0250  3.9788
  683MOL0     H92151   6.005   1.390   1.936 -2.8210  1.4915 -1.8350
  683MOL0     H92152   5.871   1.213   1.734  0.7897 -0.5226  0.7680
  683MOL0     H92153   5.823   1.203   1.898 -1.7683 -0.2086 -0.5089
  683MOL0     H92154   5.774   1.433   1.711 -0.9390  1.3755 -0.4979
  683MOL0     H92155   5.785   1.475   1.887 -1.2660 -1.1230  0.5214
  683MOL0     H92156   5.592   1.207   1.683  0.9882  0.9753 -0.1299
  683MOL0     H92157   5.362   1.083   1.709  0.7564 -3.7230 -0.0272
  683MOL0     H92158   5.411   1.012   1.861 -0.1556 -0.1304 -1.1001
  683MOL0     H92159   5.168   1.198   1.803 -3.9243 -3.1024 -0.7394
  683MOL0     H92160   5.200   1.143   1.961 -2.9056  3.5730 -1.2092
  683MOL0     H92161   5.064   0.992   1.922  0.2926  3.4075  0.2743
  683MOL0     H92162   5.195   0.903   1.851 -1.1498 -0.9869  0.5988
  683MOL0     H92163   5.023   0.875   1.713 -0.6549  0.3521 -1.9688
  683MOL0     H92164   5.138   0.970   1.622 -2.9182 -0.5581 -1.6720
  683MOL0     H92165   4.856   1.000   1.462  1.3580 -3.8905  0.0342
  683MOL0     H92166   4.515   0.936   1.390 -0.5061 -0.3670  1.2773
  683MOL0     H92167   4.680   0.896   1.321 -2.4151 -0.1019 -2.1788
  683MOL0     H92168   4.589   0.781   1.418 -3.6211  1.6875  1.3546
  683MOL0     H92169   4.144   0.957   1.934  0.9375 -0.2083  0.2010
  683MOL0     H92170   3.907   0.945   1.866 -0.7170  0.6075  0.0004
  683MOL0     H92171   3.771   1.200   1.655 -1.5084  1.3934 -2.1800
  683MOL0     H92172   3.785   1.148   1.487  2.5946  1.1584  0.1598
  683MOL0     H92173   3.583   1.013   1.530 -1.0793  2.3593 -3.6383
  683MOL0     H92174   3.588   1.049   1.703 -2.5339 -0.4192 -0.3955
  683MOL0     H92175   3.504   1.199   1.449 -0.8552  0.9397 -0.8679
  683MOL0     H92176   3.524   1.295   1.601 -2.0514  0.0307 -0.4102
  683MOL0     H92177   3.334   1.069   1.557  0.1852 -1.5978  2.4380
  683MOL0     H92178   3.340   1.151   1.710  0.9333 -0.0686  0.0565
  683MOL0     H92179   3.263   1.378   1.583 -2.3688 -0.0578  3.6057
  683MOL0     H92180   3.153   1.243   1.596 -0.1155  0.3253 -0.7063
  683MOL0     H92181   3.313   1.309   1.347  1.2677 -1.6394  0.1523
  683MOL0     H92182   3.230   1.156   1.375  0.9763  0.7544  0.1637
  683MOL0     H92183   3.123   1.434   1.355 -1.5772  0.1385 -1.7090
  683MOL0     H92184   3.022   1.325   1.440 -0.7007  1.0478 -1.6977
  683MOL0     H92185   3.131   1.259   1.162  1.0069  1.2927  0.2193
  683MOL0     H92186   2.981   1.354   1.189 -1.2558 -1.4098 -1.8104
  683MOL0     H92187   4.005   1.046   1.469 -2.9929 -1.3562  0.8068
  683MOL0     H92188   4.245   1.049   1.525 -2.8033  0.7430 -0.3562
  683MOL0     H92189   4.582   1.027   1.862 -1.1576 -1.6651  0.6856
  683MOL0     H92190   4.816   1.069   1.874 -1.5700  0.4322  1.2033
  683MOL0     H92191   6.703   1.037   1.599 -3.8507 -0.2928  2.1747
  683MOL0     H92192   6.941   1.052   1.586  0.7587  3.1528 -2.9925
  683MOL0     H92193   7.310   1.249   1.786 -1.7751  0.8945 -1.4377
  683MOL0     H92194   7.535   1.321   1.823 -0.2794 -0.7560 -0.2530
  683MOL0     H92195   7.728   1.455   1.823 -0.7371  0.7168 -0.5846
  683MOL0     H92196   7.782   1.303   1.738  2.5382  0.2788 -3.3213
  683MOL0     H92197   7.909   1.565   1.669  2.2945 -1.5557 -3.5769
  683MOL0     H92198   7.958   1.406   1.614 -1.8417  0.0087 -1.5589
  683MOL0     H92199   8.024   1.354   1.853 -1.1087 -0.9022 -0.9370
  683MOL0     H92200   7.958   1.504   1.909  2.5487  1.5299  1.4952
  683MOL0     H92201   8.149   1.596   1.889  2.2343 -0.0173 -0.5876
  683MOL0     H92202   8.122   1.603   1.713  0.6598  0.0646 -0.7634
  683MOL0     H92203   8.452   1.333   1.774 -0.0866  0.1457  2.5232
  683MOL0     H92204   7.531   1.513   1.433  3.6493  0.4815  1.2853
  683MOL0     H92205   7.286   1.457   1.420  0.2799  0.6552  0.3867
  684MOL0     O92206   6.069   1.469   9.041 -0.9490  0.5655  0.5875
  684MOL0     C92207   6.138   1.537   8.960  0.3013 -0.5565  0.2746
  684MOL0     O92208   6.145   1.676   8.948 -0.2655 -0.1027 -0.6249
  684MOL0     C92209   6.037   1.739   8.990  0.6379 -0.5900 -0.5030
  684MOL0     C92210   5.984   1.742   9.118 -0.0228 -0.0915  0.5986
  684MOL0     C92211   5.869   1.812   9.155 -0.4419 -0.8862  0.4595
  684MOL0     C92212   5.815   1.900   9.053  0.1331  0.9487  0.2903
  684MOL0     O92213   5.701   1.969   9.078 -0.5478  0.5751  0.3370
  684MOL0     C92214   5.626   1.964   9.199 -0.2969  0.1476 -0.5196
  684MOL0     C92215   5.516   2.070   9.202 -0.1116  0.1843 -1.4100
  684MOL0     C92216   5.387   2.034   9.116 -0.3835  0.2759  0.1833
  684MOL0     C92217   5.291   2.152   9.119 -0.8772  0.3604  0.3731
  684MOL0     C92218   5.159   2.126   9.054 -0.2634 -0.1732  0.3821
  684MOL0     C92219   5.067   2.250   9.069 -0.4027  0.1095  0.4147
  684MOL0     C92220   4.936   2.230   8.989  0.1078 -0.4066 -0.2595
  684MOL0     C92221   4.841   2.345   9.015 -0.0106  1.0380  0.5703
  684MOL0     N92222   4.718   2.342   8.931  0.4411  0.0066  0.3146
  684MOL0     C92223   4.616   2.431   8.943 -0.1729  0.4685  0.1254
  684MOL0     C92224   4.552   2.422   8.823  0.3102 -0.0078  0.2359
  684MOL0     C92225   4.442   2.524   8.779  0.4516 -0.6193  0.7405
  684MOL0     C92226   4.291   2.486   8.817  0.2983 -0.3663  1.1822
  684MOL0     C92227   4.268   2.492   8.970  0.0326  0.7757 -1.0543
  684MOL0     C92228   4.129   2.439   8.996  0.1637 -0.2029 -1.0817
  684MOL0     O92229   4.080   2.513   9.114 -0.5694 -0.6128  0.0069
  684MOL0     C92230   3.949   2.546   9.125 -0.2701 -0.6190 -0.5477
  684MOL0     C92231   3.927   2.671   9.197 -0.9515 -0.1516  0.5295
  684MOL0     C92232   3.803   2.728   9.221 -0.3214  0.4731 -0.2626
  684MOL0     C92233   3.810   2.847   9.317 -0.2585  0.0810 -0.4806
  684MOL0     C92234   3.688   2.660   9.165  0.2994 -0.8835 -0.1638
  684MOL0     C92235   3.548   2.719   9.172 -0.1175 -0.1769 -0.9230
  684MOL0     O92236   3.456   2.646   9.102  0.2588 -0.6844 -0.4161
  684MOL0     C92237   3.337   2.711   9.083 -0.4889 -0.7308  0.7717
  684MOL0     C92238   3.322   2.792   8.966 -0.7547 -0.6426  0.0215
  684MOL0     C92239   3.211   2.877   8.957  0.7349 -0.2672 -0.1190
  684MOL0     C92240   3.110   2.877   9.056  0.0713 -0.1059  0.5783
  684MOL0     O92241   3.012   2.970   9.050  0.0713 -0.8178  0.4744
  684MOL0     C92242   2.875   2.929   9.037 -0.6223 -0.4585 -0.2859
  684MOL0     C92243   2.830   2.859   8.906 -0.2146 -0.1995 -0.5306
  684MOL0     C92244   2.680   2.840   8.894 -0.7430  0.8366  0.4110
  684MOL0     C92245   2.608   2.973   8.871  0.7915 -0.0082 -0.0232
  684MOL0     C92246   2.469   2.956   8.815 -1.0829  0.4587 -0.4592
  684MOL0     C92247   2.416   3.092   8.768  0.0782 -0.1629  0.5443
  684MOL0     C92248   2.302   3.059   8.675  0.7140 -0.6079 -0.8709
  684MOL0     C92249   2.187   2.988   8.746  0.3555  0.3433  0.8348
  684MOL0    Cl92250   2.159   3.037   8.924  0.0558 -0.0072  0.1323
  684MOL0     C92251   3.121   2.782   9.163  0.1206 -0.3182 -1.2431
  684MOL0     C92252   3.238   2.698   9.175  0.6369  0.6033  0.8482
  684MOL0     O92253   3.530   2.829   9.234  0.8915  0.2508  0.1084
  684MOL0     C92254   3.715   2.545   9.083 -0.0056  0.8853  0.5349
  684MOL0     C92255   3.839   2.491   9.061  0.6238  0.0727  0.1590
  684MOL0     N92256   4.610   2.319   8.750  0.6018 -0.1474  0.3303
  684MOL0     N92257   4.696   2.262   8.820  0.2693  0.4035  0.0222
  684MOL0     C92258   5.867   1.907   8.924 -0.3004  0.4799  0.4568
  684MOL0     C92259   5.977   1.821   8.892  0.4646 -0.1041 -0.0852
  684MOL0     C92260   6.229   1.459   8.868 -0.7992 -0.5685  0.6239
  684MOL0     C92261   6.359   1.500   8.828  0.0856 -1.1971 -0.9365
  684MOL0     C92262   6.450   1.428   8.750 -0.0669 -0.1719  0.3505
  684MOL0     C92263   6.401   1.297   8.716 -0.9588 -0.6891 -0.2215
  684MOL0     O92264   6.481   1.205   8.637 -0.2040 -0.7037  0.0073
  684MOL0     C92265   6.615   1.240   8.599  0.4608 -0.8889  0.4278
  684MOL0     C92266   6.683   1.109   8.556 -0.0588  0.2681  0.5121
  684MOL0     C92267   6.839   1.140   8.525 -0.4416 -0.3769  0.0619
  684MOL0     C92268   6.874   1.241   8.406  0.6484 -0.0933 -0.4321
  684MOL0     C92269   6.857   1.379   8.461 -0.6490 -1.1190  0.8969
  684MOL0     C92270   6.858   1.493   8.494 -0.1906 -0.0816  0.2522
  684MOL0     C92271   6.271   1.264   8.743 -0.1560  0.3657 -0.0526
  684MOL0     C92272   6.188   1.345   8.816  0.4979  0.7670 -0.8894
  684MOL0     H92273   6.029   1.692   9.204  1.5664  2.2310  1.2087
  684MOL0     H92274   5.826   1.804   9.254  0.8977  0.4405  1.2064
  684MOL0     H92275   5.581   1.867   9.222 -0.8845  0.1727 -1.4982
  684MOL0     H92276   5.682   1.987   9.290 -2.8891  3.9566  0.3631
  684MOL0     H92277   5.493   2.074   9.309  2.0970 -1.8710 -0.7605
  684MOL0     H92278   5.556   2.161   9.156  2.6421 -0.7276 -0.9863
  684MOL0     H92279   5.423   2.001   9.018 -1.1963  1.4752 -0.5616
  684MOL0     H92280   5.348   1.940   9.154  0.2805 -1.5779 -3.3357
  684MOL0     H92281   5.270   2.192   9.219  1.6041  1.9415  0.3419
  684MOL0     H92282   5.342   2.228   9.060 -0.8273  0.3143  0.3570
  684MOL0     H92283   5.173   2.101   8.948  0.1732 -2.7433  0.9783
  684MOL0     H92284   5.106   2.040   9.097 -2.4536  0.2834 -1.2329
  684MOL0     H92285   5.042   2.258   9.175 -2.0290  0.7053  0.0212
  684MOL0     H92286   5.112   2.345   9.040  1.2314 -1.0664 -1.0871
  684MOL0     H92287   4.961   2.237   8.883 -2.1886  0.9987 -0.7667
  684MOL0     H92288   4.886   2.137   9.018 -0.5344 -0.3777 -1.2501
  684MOL0     H92289   4.889   2.443   9.016  0.8092  0.6400  1.9811
  684MOL0     H92290   4.800   2.332   9.116 -2.2220  1.4727 -0.2079
  684MOL0     H92291   4.590   2.506   9.017 -0.0791 -0.9115  1.5964
  684MOL0     H92292   4.469   2.625   8.813  1.0375 -1.5052  3.0674
  684MOL0     H92293   4.441   2.540   8.671 -0.5024  1.7309  1.0388
  684MOL0     H92294   4.261   2.388   8.779  1.7480 -0.0905 -0.8645
  684MOL0     H92295   4.227   2.558   8.765 -1.1875 -2.6119 -0.2652
  684MOL0     H92296   4.272   2.596   9.004  0.6758  0.3897  0.1168
  684MOL0     H92297   4.348   2.432   9.015 -0.3368 -1.0946 -2.7627
  684MOL0     H92298   4.128   2.332   9.018  0.0356  0.1739  0.8960
  684MOL0     H92299   4.061   2.462   8.914 -0.8405  0.1340 -0.1715
  684MOL0     H92300   4.005   2.735   9.237 -0.8233 -0.5604  0.9509
  684MOL0     H92301   3.769   2.824   9.416 -0.5115 -1.5118 -0.9255
  684MOL0     H92302   3.914   2.874   9.336 -0.1739 -1.7315  2.1424
  684MOL0     H92303   3.758   2.930   9.267  0.1437  0.2752 -0.5755
  684MOL0     H92304   3.393   2.790   8.884  0.2426 -1.8874  0.8791
  684MOL0     H92305   3.210   2.921   8.858  2.0644 -0.0838 -0.0646
  684MOL0     H92306   2.841   2.886   9.132  0.4883 -1.1179 -0.1638
  684MOL0     H92307   2.819   3.022   9.040 -2.1551 -1.3554  2.6910
  684MOL0     H92308   2.864   2.922   8.824  0.4511  2.6490  1.7365
  684MOL0     H92309   2.875   2.760   8.901  2.2628  0.7994  0.2820
  684MOL0     H92310   2.635   2.792   8.981 -3.4408  0.7441 -0.9217
  684MOL0     H92311   2.680   2.775   8.807 -1.9663  0.1873  0.8705
  684MOL0     H92312   2.596   3.023   8.967 -0.6150 -1.9955  0.8961
  684MOL0     H92313   2.659   3.038   8.799  0.5687 -0.5138 -0.6557
  684MOL0     H92314   2.415   2.915   8.901 -0.2157 -0.0675 -0.1447
  684MOL0     H92315   2.474   2.893   8.726 -1.3852  0.6167 -0.5897
  684MOL0     H92316   2.380   3.152   8.853 -0.9444 -1.1302  0.8178
  684MOL0     H92317   2.485   3.151   8.707 -1.9232  3.5274  1.5149
  684MOL0     H92318   2.334   2.998   8.590 -0.2301 -1.2450 -0.7868
  684MOL0     H92319   2.268   3.152   8.627 -1.6615 -1.4395 -0.9403
  684MOL0     H92320   2.206   2.880   8.748  0.0232  0.2400 -0.4846
  684MOL0     H92321   2.100   3.005   8.682  1.8968 -0.8836 -1.7566
  684MOL0     H92322   3.037   2.783   9.231  1.0014  0.5411 -0.1229
  684MOL0     H92323   3.248   2.628   9.258  1.2802 -2.5726 -1.7194
  684MOL0     H92324   3.623   2.512   9.036 -0.1891  2.1825 -0.0562
  684MOL0     H92325   3.845   2.403   8.998 -2.9475 -0.6048  0.5892
  684MOL0     H92326   5.827   1.971   8.847  1.2340  0.4553 -0.3965
  684MOL0     H92327   6.010   1.822   8.789 -1.0830  3.1368 -0.7057
  684MOL0     H92328   6.394   1.591   8.875  0.7721 -0.7183 -2.2974
  684MOL0     H92329   6.546   1.476   8.735  0.8333 -1.6590  1.1238
  684MOL0     H92330   6.617   1.306   8.512 -0.5733 -1.5896 -0.1582
  684MOL0     H92331   6.651   1.292   8.688 -0.3100  1.1817 -0.4162
  684MOL0     H92332   6.624   1.073   8.472  1.6235 -3.0812  0.5987
  684MOL0     H92333   6.675   1.034   8.636  1.8654 -1.2374 -0.6282
  684MOL0     H92334   6.892   1.049   8.496 -1.2218 -0.7094 -0.3518
  684MOL0     H92335   6.892   1.172   8.615  0.9273 -1.2031 -0.4153
  684MOL0     H92336   6.813   1.220   8.317 -0.0696  1.8879 -0.4630
  684MOL0     H92337   6.978   1.238   8.373  0.9176  1.4095  0.2326
  684MOL0     H92338   6.867   1.595   8.524 -2.4723  0.7324 -1.5520
  684MOL0     H92339   6.227   1.172   8.706 -2.2866  1.3071 -0.0263
  684MOL0     H92340   6.102   1.302   8.866  0.5610  3.7916  2.1110
  685MOL0     O92341   8.564   1.057   2.364  0.3123  1.3126 -0.2506
  685MOL0     C92342   8.561   1.022   2.242 -0.0828 -0.3032  0.6964
  685MOL0     O92343   8.510   1.101   2.144  0.5926 -1.1071 -0.0094
  685MOL0     C92344   8.425   1.199   2.173 -0.1818 -0.3911 -0.0231
  685MOL0     C92345   8.322   1.193   2.258 -0.2063 -0.2752  0.0670
  685MOL0     C92346   8.248   1.310   2.298  0.1699  0.3355 -0.1659
  685MOL0     C92347   8.280   1.431   2.235 -1.1674  0.9094 -0.2565
  685MOL0     O92348   8.211   1.543   2.276  0.2285 -0.8054 -0.0494
  685MOL0     C92349   8.264   1.678   2.250 -0.2778 -0.3042  0.5558
  685MOL0     C92350   8.162   1.756   2.163 -0.3219  0.3353  0.4110
  685MOL0     C92351   8.040   1.781   2.254  0.2506 -0.3545  0.3652
  685MOL0     C92352   7.922   1.853   2.184 -0.1229 -0.5810 -0.2035
  685MOL0     C92353   7.835   1.793   2.075 -0.0909  0.3072 -0.0442
  685MOL0     C92354   7.742   1.687   2.145  0.8451  0.8049 -0.7399
  685MOL0     C92355   7.634   1.630   2.057  0.2842  0.0625  0.1580
  685MOL0     C92356   7.527   1.737   2.019 -0.0075 -0.2165  0.1260
  685MOL0     N92357   7.446   1.781   2.134  0.1006 -0.2738  0.0953
  685MOL0     C92358   7.340   1.710   2.185  0.8598  0.2718 -1.0962
  685MOL0     C92359   7.295   1.786   2.295  0.3699  0.4142 -0.5547
  685MOL0     C92360   7.187   1.747   2.400 -0.4525 -0.5054  0.1657
  685MOL0     C92361   7.047   1.732   2.327  0.5977  0.0064 -0.6074
  685MOL0     C92362   7.007   1.856   2.249 -0.6643  0.7323 -0.7920
  685MOL0     C92363   6.991   1.989   2.338  0.6132 -0.4730  0.9890
  685MOL0     O92364   6.913   1.962   2.459  1.1838  0.4258 -0.5159
  685MOL0     C92365   6.774   1.972   2.460  0.4772  0.2678  0.6188
  685MOL0     C92366   6.700   2.076   2.399  0.7688  0.4216  0.7745
  685MOL0     C92367   6.564   2.079   2.403 -0.8218 -0.1107  0.5944
  685MOL0     C92368   6.508   2.200   2.325  0.0151  0.5567 -0.2403
  685MOL0     C92369   6.490   1.975   2.475 -0.0264 -0.9684 -0.3212
  685MOL0     C92370   6.346   1.980   2.486 -0.0627 -0.3496 -0.8669
  685MOL0     O92371   6.286   1.866   2.526  0.5275  0.6366  0.4677
  685MOL0     C92372   6.150   1.850   2.532  0.1385 -0.0104 -1.1640
  685MOL0     C92373   6.054   1.914   2.454  1.0747 -0.2075 -0.1623
  685MOL0     C92374   5.918   1.890   2.480 -0.4397  1.3301 -0.3770
  685MOL0     C92375   5.881   1.807   2.580 -0.0754 -0.3227  0.0884
  685MOL0     O92376   5.745   1.797   2.605  0.6406  0.3250 -0.1809
  685MOL0     C92377   5.671   1.673   2.614  0.2427  1.1922 -0.2474
  685MOL0     C92378   5.611   1.653   2.470 -0.4452 -0.1748  0.2805
  685MOL0     C92379   5.489   1.564   2.488 -1.0277  1.5416  0.0441
  685MOL0     C92380   5.431   1.543   2.347  0.1927 -0.9102 -0.6038
  685MOL0     C92381   5.301   1.461   2.336 -0.3338  0.1078 -0.6766
  685MOL0     C92382   5.177   1.538   2.384 -0.2248  0.9648 -0.9961
  685MOL0     C92383   5.066   1.438   2.445 -0.1011  0.1610 -0.0348
  685MOL0     C92384   4.924   1.494   2.420 -0.7985 -0.0815  0.4991
  685MOL0    Cl92385   4.913   1.662   2.470  0.6851  0.2083 -0.2812
  685MOL0     C92386   5.974   1.752   2.665  0.2682  0.7247 -0.8922
  685MOL0     C92387   6.108   1.775   2.642  0.0187  0.0140 -0.0404
  685MOL0     O92388   6.288   2.088   2.474 -1.0516 -0.1069 -0.3188
  685MOL0     C92389   6.566   1.875   2.532 -0.2601  0.0023 -0.1356
  685MOL0     C92390   6.709   1.868   2.524  0.3692  0.3625 -0.3761
  685MOL0     N92391   7.377   1.896   2.302 -0.5370 -0.0790  0.6182
  685MOL0     N92392   7.480   1.879   2.223  0.5960 -0.6102  0.4219
  685MOL0     C92393   8.376   1.432   2.125 -0.1762 -0.4916  0.2695
  685MOL0     C92394   8.435   1.312   2.094  0.0394  0.6447 -0.3758
  685MOL0     C92395   8.624   0.890   2.199  0.0511 -0.0236 -0.3573
  685MOL0     C92396   8.710   0.812   2.286 -0.4653 -0.5467  0.2726
  685MOL0     C92397   8.760   0.693   2.249 -0.1990  0.1533 -0.0122
  685MOL0     C92398   8.726   0.645   2.126 -0.2532 -0.7519  0.1693
  685MOL0     O92399   8.794   0.533   2.106  0.1576  0.3705 -0.0352
  685MOL0     C92400   8.751   0.441   1.998 -0.3478 -0.3415 -0.2766
  685MOL0     C92401   8.609   0.406   1.995  0.4490 -0.4060 -0.2781
  685MOL0     C92402   8.547   0.367   2.129 -0.4203 -0.1406 -0.3428
  685MOL0     C92403   8.417   0.286   2.114  0.3460 -0.5517  0.0059
  685MOL0     C92404   8.309   0.366   2.060 -0.4669  0.0571  0.0979
  685MOL0     C92405   8.228   0.432   2.010  0.9294 -0.3111  0.8008
  685MOL0     C92406   8.662   0.726   2.026 -0.1218  0.1193 -0.1632
  685MOL0     C92407   8.606   0.848   2.061 -0.3825  0.7112 -1.1262
  685MOL0     H92408   8.294   1.101   2.309 -0.3673 -1.9718 -2.8210
  685MOL0     H92409   8.166   1.311   2.370  1.1765 -1.9415  1.1168
  685MOL0     H92410   8.274   1.732   2.345  2.0659  0.9963 -0.3496
  685MOL0     H92411   8.361   1.687   2.201  0.0484 -1.2914  0.9922
  685MOL0     H92412   8.201   1.854   2.135  3.1135 -0.5795  1.5187
  685MOL0     H92413   8.132   1.699   2.074  1.3666  0.2263 -0.1328
  685MOL0     H92414   7.999   1.694   2.306 -0.4105 -0.0870  0.3084
  685MOL0     H92415   8.067   1.846   2.338 -2.4231  0.8753  0.3550
  685MOL0     H92416   7.852   1.882   2.263 -0.7742 -0.6494 -0.7420
  685MOL0     H92417   7.963   1.946   2.143  1.4237 -1.7744 -1.5010
  685MOL0     H92418   7.784   1.878   2.028  1.7919  3.0009  2.4336
  685MOL0     H92419   7.898   1.748   1.997 -0.5284  0.1854 -0.3315
  685MOL0     H92420   7.800   1.597   2.170 -0.5456  0.1660  0.3778
  685MOL0     H92421   7.696   1.726   2.236  1.3492  2.4599 -1.1745
  685MOL0     H92422   7.674   1.575   1.971 -0.3370  1.2455 -0.9192
  685MOL0     H92423   7.577   1.559   2.117  2.0512 -1.3159  0.3237
  685MOL0     H92424   7.461   1.675   1.958 -0.0549 -3.5851  3.2765
  685MOL0     H92425   7.566   1.826   1.968  1.0348 -1.0758 -0.6006
  685MOL0     H92426   7.298   1.619   2.144 -0.7693  0.6070 -0.2467
  685MOL0     H92427   7.221   1.652   2.442  1.8690  0.1229 -0.1527
  685MOL0     H92428   7.201   1.825   2.476  2.7527  0.1696 -0.9439
  685MOL0     H92429   6.970   1.696   2.396  0.2039  0.0689 -1.0088
  685MOL0     H92430   7.070   1.650   2.258  1.6038  0.5639 -0.9558
  685MOL0     H92431   6.913   1.842   2.194  0.9142  3.1730 -4.4616
  685MOL0     H92432   7.074   1.871   2.164 -0.9535 -1.3953 -1.4738
  685MOL0     H92433   6.950   2.060   2.266  1.6538 -1.5270 -0.7144
  685MOL0     H92434   7.089   2.022   2.375 -1.1505  2.5556  3.4815
  685MOL0     H92435   6.767   2.150   2.356 -0.7204  2.2979  1.5340
  685MOL0     H92436   6.587   2.243   2.262  1.2274  0.4444  1.1419
  685MOL0     H92437   6.439   2.153   2.255 -0.7050 -1.9105  1.9946
  685MOL0     H92438   6.450   2.269   2.387  0.5504  0.9093 -0.1230
  685MOL0     H92439   6.091   1.989   2.384  4.2487 -0.6479  0.8895
  685MOL0     H92440   5.838   1.927   2.416  0.6878  3.3865 -0.6872
  685MOL0     H92441   5.735   1.590   2.648 -2.1189  0.1260  1.8638
  685MOL0     H92442   5.589   1.680   2.685  0.9486  0.6261  0.6448
  685MOL0     H92443   5.585   1.751   2.427 -0.6861 -0.3047  0.1278
  685MOL0     H92444   5.683   1.615   2.397  1.6971  4.2184 -0.2424
  685MOL0     H92445   5.413   1.615   2.549 -0.4365  0.2660  1.9225
  685MOL0     H92446   5.530   1.475   2.537 -1.5969  1.5862  0.6222
  685MOL0     H92447   5.407   1.642   2.307 -2.2778 -1.5282 -0.8267
  685MOL0     H92448   5.509   1.506   2.279 -0.5132 -0.1014 -1.8907
  685MOL0     H92449   5.310   1.373   2.401  1.3909  0.2112 -0.7092
  685MOL0     H92450   5.297   1.414   2.238  2.2182  1.2953 -1.4524
  685MOL0     H92451   5.205   1.619   2.452  0.0093 -0.0758  0.1816
  685MOL0     H92452   5.134   1.582   2.293  2.3521  1.9053 -1.8513
  685MOL0     H92453   5.067   1.445   2.554  1.1644  0.4263 -0.0531
  685MOL0     H92454   5.078   1.333   2.416  2.6510  0.5529 -0.5721
  685MOL0     H92455   4.844   1.435   2.465 -0.5787 -0.7928 -0.0124
  685MOL0     H92456   4.895   1.501   2.314  0.2647  2.9081  0.2901
  685MOL0     H92457   5.940   1.700   2.754  0.3297 -0.8265 -1.7420
  685MOL0     H92458   6.173   1.733   2.718  0.6129 -0.4743 -0.7946
  685MOL0     H92459   6.511   1.793   2.577 -0.0445 -1.6666 -2.7082
  685MOL0     H92460   6.743   1.773   2.563 -2.6072  0.3937  2.7340
  685MOL0     H92461   8.396   1.519   2.063  3.9842 -1.0187  0.5469
  685MOL0     H92462   8.508   1.318   2.013 -1.5350 -1.7732 -2.1388
  685MOL0     H92463   8.737   0.851   2.383 -1.4552 -1.8632  1.1020
  685MOL0     H92464   8.808   0.623   2.316 -3.0762 -2.4705 -0.4353
  685MOL0     H92465   8.787   0.477   1.901 -2.5207  1.7556 -0.4087
  685MOL0     H92466   8.788   0.340   2.016 -1.4847 -1.2487 -2.6330
  685MOL0     H92467   8.596   0.319   1.931 -1.6556  0.0827 -0.5836
  685MOL0     H92468   8.561   0.489   1.942  0.9593  0.2109  0.2086
  685MOL0     H92469   8.532   0.461   2.182 -0.1613  0.4001 -1.2130
  685MOL0     H92470   8.625   0.312   2.184  0.1946  0.4391 -0.6234
  685MOL0     H92471   8.399   0.259   2.219  0.6861 -1.0887 -0.0664
  685MOL0     H92472   8.442   0.195   2.058  0.3051 -0.0147 -0.9127
  685MOL0     H92473   8.171   0.506   1.957  1.9245  1.8226  2.5260
  685MOL0     H92474   8.637   0.702   1.923 -1.8228  1.2915 -0.0640
  685MOL0     H92475   8.580   0.922   1.987  0.1929  2.0408 -0.0396
  686MOL0     O92476   4.150  10.380   3.116  0.2734  0.0813 -0.3626
  686MOL0     C92477   4.267  10.356   3.099 -0.7609  0.6115  0.7642
  686MOL0     O92478   4.331  10.349   2.975 -0.4756  0.2455 -0.4197
  686MOL0     C92479   4.265  10.388   2.869 -0.0968  0.7764  0.0430
  686MOL0     C92480   4.224  10.520   2.847  0.3696  0.0557  0.4575
  686MOL0     C92481   4.135  10.556   2.740 -0.3359 -0.4069  0.2371
  686MOL0     C92482   4.104  10.456   2.640  0.2021  0.7760  0.5331
  686MOL0     O92483   4.028  10.475   2.528  0.8829 -1.1638  0.2009
  686MOL0     C92484   3.907  10.549   2.544  0.7926 -0.6509 -0.2133
  686MOL0     C92485   3.820  10.505   2.428  0.2484 -0.4770 -0.4916
  686MOL0     C92486   3.679  10.554   2.427  0.1015 -0.4504 -1.0446
  686MOL0     C92487   3.593  10.515   2.309  0.5156  0.4683 -0.4480
  686MOL0     C92488   3.460  10.564   2.320 -0.2056 -0.0477 -0.2382
  686MOL0     C92489   3.377  10.512   2.203 -1.2398 -0.0972 -0.5327
  686MOL0     C92490   3.238  10.561   2.196  0.2676 -0.3649  0.1725
  686MOL0     C92491   3.136  10.482   2.279 -0.0845  0.6717 -0.9386
  686MOL0     N92492   3.172  10.495   2.419  0.0593  0.4947  0.7701
  686MOL0     C92493   3.181  10.615   2.489  0.5215  0.6462  0.4178
  686MOL0     C92494   3.199  10.574   2.617 -0.0674 -0.7263 -0.3407
  686MOL0     C92495   3.229  10.673   2.730 -0.1728 -0.6754 -0.7523
  686MOL0     C92496   3.376  10.711   2.762  0.6065 -0.4184 -0.7347
  686MOL0     C92497   3.440  10.586   2.834 -0.1114  0.1826 -0.0668
  686MOL0     C92498   3.578  10.607   2.876 -0.0745  0.7028  0.3122
  686MOL0     O92499   3.598  10.722   2.955  0.3885  0.1832 -0.4971
  686MOL0     C92500   3.713  10.717   3.036 -0.0229  0.2486 -0.3865
  686MOL0     C92501   3.730  10.814   3.128 -0.0108 -0.4088  0.1452
  686MOL0     C92502   3.850  10.838   3.192  0.0188  0.9592 -0.0285
  686MOL0     C92503   3.848  10.969   3.272  0.0016 -0.8882 -0.4104
  686MOL0     C92504   3.962  10.746   3.177  0.4394  0.0152 -0.0873
  686MOL0     C92505   4.086  10.758   3.250 -0.1325 -0.2160 -0.2770
  686MOL0     O92506   4.080  10.770   3.382  0.3773 -0.9207 -0.5961
  686MOL0     C92507   4.198  10.779   3.449  0.6668  0.2265  0.2162
  686MOL0     C92508   4.249  10.675   3.523 -0.2351  0.4899 -0.6087
  686MOL0     C92509   4.367  10.709   3.604  0.0957  0.6397 -0.2279
  686MOL0     C92510   4.429  10.832   3.593 -0.6831  0.0860 -0.5721
  686MOL0     O92511   4.545  10.861   3.671 -0.1271  0.0583  0.6741
  686MOL0     C92512   4.516  10.967   3.769 -0.9144  0.2826 -0.4352
  686MOL0     C92513   4.630  11.074   3.756 -0.4018 -0.5664  0.2588
  686MOL0     C92514   4.768  11.017   3.742  0.1749  0.1709 -0.0635
  686MOL0     C92515   4.866  11.137   3.759  0.3669 -0.6196  0.4103
  686MOL0     C92516   5.003  11.096   3.706  0.4520  0.0278  0.6929
  686MOL0     C92517   5.054  10.967   3.761  0.1554  0.3165 -0.1538
  686MOL0     C92518   5.204  10.952   3.733 -0.4767  1.3056  0.5929
  686MOL0     C92519   5.236  10.938   3.590  0.2320  0.6780  0.3878
  686MOL0    Cl92520   5.365  10.823   3.551 -0.3613  0.0644  0.1712
  686MOL0     C92521   4.376  10.933   3.507 -0.6908  0.1349  0.5007
  686MOL0     C92522   4.250  10.910   3.444 -0.0426  0.3931  1.4006
  686MOL0     O92523   4.186  10.771   3.181  0.1108  0.0565  0.0946
  686MOL0     C92524   3.949  10.643   3.089  0.4041 -0.7603 -0.2013
  686MOL0     C92525   3.826  10.627   3.014  0.3181 -0.8284 -0.2293
  686MOL0     N92526   3.187  10.434   2.622 -0.2175 -0.0364  0.3099
  686MOL0     N92527   3.168  10.388   2.500 -0.2601  0.8692 -0.4003
  686MOL0     C92528   4.161  10.328   2.655  0.0316 -0.2034 -0.2070
  686MOL0     C92529   4.254  10.299   2.762 -0.0629  0.3213 -0.0470
  686MOL0     C92530   4.358  10.346   3.213  0.5728 -0.7916  1.1036
  686MOL0     C92531   4.316  10.327   3.344  0.5179 -0.8557 -0.1427
  686MOL0     C92532   4.402  10.323   3.457 -0.2969 -0.4526 -0.4431
  686MOL0     C92533   4.541  10.348   3.445  0.6363 -0.0984  1.0599
  686MOL0     O92534   4.629  10.350   3.545  0.6417  0.3454  0.2781
  686MOL0     C92535   4.605  10.309   3.681 -0.1671  1.2921 -0.1502
  686MOL0     C92536   4.735  10.306   3.764 -0.4649 -0.4821 -0.7391
  686MOL0     C92537   4.842  10.210   3.707 -0.0245 -1.1648 -1.1781
  686MOL0     C92538   4.979  10.235   3.776 -0.5497 -0.4077  1.2525
  686MOL0     C92539   4.985  10.188   3.909 -0.4399  0.2813 -0.1320
  686MOL0     C92540   4.977  10.170   4.029 -0.3622 -0.3072  0.5213
  686MOL0     C92541   4.586  10.368   3.320 -0.4312 -1.2870 -0.0653
  686MOL0     C92542   4.499  10.362   3.204 -0.1182 -0.9918 -0.0030
  686MOL0     H92543   4.255  10.603   2.909  0.4424  1.1866 -1.0330
  686MOL0     H92544   4.099  10.658   2.731  4.3284  1.2705 -2.1911
  686MOL0     H92545   3.856  10.527   2.638 -1.3489  0.4321 -1.0330
  686MOL0     H92546   3.920  10.657   2.535 -2.5897 -0.3021 -3.0883
  686MOL0     H92547   3.864  10.534   2.333 -0.0875 -0.7374 -0.7280
  686MOL0     H92548   3.810  10.396   2.431 -0.4064 -0.4280  2.1646
  686MOL0     H92549   3.629  10.515   2.517  1.5553  2.6252  1.2965
  686MOL0     H92550   3.682  10.663   2.435  0.8677 -0.4163 -1.7461
  686MOL0     H92551   3.654  10.568   2.235 -2.1239  0.2305 -2.9499
  686MOL0     H92552   3.605  10.407   2.301  0.2374  0.4512 -0.6365
  686MOL0     H92553   3.420  10.532   2.416 -4.3010  3.3338 -0.5232
  686MOL0     H92554   3.450  10.673   2.316  1.4263  0.2384  1.6790
  686MOL0     H92555   3.436  10.548   2.118  1.2449  0.7507  1.4324
  686MOL0     H92556   3.371  10.403   2.197  0.2114 -0.1532 -1.5981
  686MOL0     H92557   3.228  10.667   2.217 -1.1342 -0.1871 -1.2363
  686MOL0     H92558   3.206  10.544   2.093  1.0213 -0.4120 -0.0591
  686MOL0     H92559   3.145  10.377   2.250  2.0767  0.2623  0.9878
  686MOL0     H92560   3.033  10.512   2.257 -0.6168 -1.8915 -2.2939
  686MOL0     H92561   3.167  10.717   2.455  0.4776  1.2714  2.2158
  686MOL0     H92562   3.165  10.761   2.720 -0.1703 -0.5746  0.0051
  686MOL0     H92563   3.192  10.628   2.822 -1.0224 -1.3977 -1.4399
  686MOL0     H92564   3.369  10.799   2.827 -2.9005 -1.9362  1.1879
  686MOL0     H92565   3.432  10.743   2.674 -1.5081  0.0234 -1.9888
  686MOL0     H92566   3.439  10.504   2.762  0.5995  1.0548 -1.1094
  686MOL0     H92567   3.382  10.547   2.918 -2.4756  1.9593 -0.7737
  686MOL0     H92568   3.645  10.628   2.792 -0.4008  1.8421  0.3226
  686MOL0     H92569   3.606  10.514   2.926 -1.3648  0.3127  0.3661
  686MOL0     H92570   3.641  10.876   3.138 -0.4223 -1.1213  1.0871
  686MOL0     H92571   3.762  11.029   3.242  1.1648  2.2618  2.0617
  686MOL0     H92572   3.843  10.936   3.376  0.3691 -0.2178 -0.1738
  686MOL0     H92573   3.930  11.038   3.255 -0.6911  0.3690  1.1518
  686MOL0     H92574   4.220  10.570   3.528 -0.2066  0.5290  0.7142
  686MOL0     H92575   4.412  10.630   3.664  1.6483  1.0188 -0.8682
  686MOL0     H92576   4.421  11.017   3.747 -0.9734  0.8859  1.0193
  686MOL0     H92577   4.516  10.937   3.874 -1.6560 -1.7987 -0.9932
  686MOL0     H92578   4.617  11.146   3.675  0.4408  0.8302  1.3232
  686MOL0     H92579   4.631  11.126   3.852 -2.5269 -0.0249  0.0510
  686MOL0     H92580   4.772  10.961   3.648  3.1299  1.0252 -0.5262
  686MOL0     H92581   4.792  10.941   3.817 -0.4827 -0.6125 -0.6242
  686MOL0     H92582   4.833  11.221   3.697  0.5056  0.3481  1.6052
  686MOL0     H92583   4.865  11.161   3.866  0.3802  2.3750 -0.1909
  686MOL0     H92584   5.075  11.176   3.728  4.1235 -2.6714 -0.4899
  686MOL0     H92585   4.989  11.091   3.598 -1.5455  0.1489  0.9116
  686MOL0     H92586   5.024  10.951   3.865 -1.4868 -1.3543 -0.8287
  686MOL0     H92587   5.013  10.881   3.707 -1.0328  0.5699  0.3119
  686MOL0     H92588   5.234  10.857   3.779 -0.4205  0.8050 -0.4626
  686MOL0     H92589   5.258  11.037   3.776  1.6050  1.0275 -1.2729
  686MOL0     H92590   5.260  11.031   3.537  0.6040 -0.4684 -1.5384
  686MOL0     H92591   5.147  10.912   3.532  0.1782  0.4253  0.5819
  686MOL0     H92592   4.429  11.027   3.497 -1.5759  0.6167  0.1965
  686MOL0     H92593   4.208  10.991   3.386  4.9641  2.5725  0.2569
  686MOL0     H92594   4.044  10.595   3.072  3.1334  2.7314  3.2976
  686MOL0     H92595   3.820  10.547   2.941  0.0330 -0.9597 -0.0606
  686MOL0     H92596   4.172  10.255   2.576  0.7380  1.8553 -2.0949
  686MOL0     H92597   4.297  10.200   2.779 -1.1474  0.1462  1.9572
  686MOL0     H92598   4.212  10.316   3.374 -0.0805  2.7476 -0.3948
  686MOL0     H92599   4.369  10.317   3.561  0.5966 -1.0673 -0.1877
  686MOL0     H92600   4.533  10.379   3.723 -2.2839 -0.0657 -1.3028
  686MOL0     H92601   4.549  10.215   3.690 -0.9458  1.9069  2.1683
  686MOL0     H92602   4.711  10.260   3.860 -0.0188  0.9833  0.0983
  686MOL0     H92603   4.767  10.408   3.787 -3.8867  0.4127  0.8061
  686MOL0     H92604   4.862  10.247   3.606 -0.5422  0.2521 -0.7889
  686MOL0     H92605   4.802  10.109   3.710 -1.9410 -0.4507  1.8929
  686MOL0     H92606   5.007  10.340   3.766  1.3232 -0.9587  0.1497
  686MOL0     H92607   5.054  10.170   3.729 -0.0072  1.1005 -0.0673
  686MOL0     H92608   4.978  10.156   4.135  1.9372  0.3965  0.6642
  686MOL0     H92609   4.689  10.389   3.292 -1.6844 -0.5706 -4.9980
  686MOL0     H92610   4.543  10.376   3.105 -0.9097 -1.3898 -0.4170
  687MOL0     O92611   3.822   5.516   4.723 -0.0538 -0.3825 -0.2150
  687MOL0     C92612   3.903   5.418   4.709 -0.1917 -0.3777 -0.7482
  687MOL0     O92613   3.870   5.298   4.661  0.8180 -0.3016 -0.1873
  687MOL0     C92614   3.751   5.269   4.608  0.4706  0.2598 -0.6904
  687MOL0     C92615   3.625   5.325   4.630  0.1852  0.0864  0.5165
  687MOL0     C92616   3.508   5.282   4.571  0.2796  0.3419 -0.1312
  687MOL0     C92617   3.503   5.178   4.484 -0.4459 -0.1772 -0.2432
  687MOL0     O92618   3.381   5.125   4.439 -0.7201 -0.8430 -0.3362
  687MOL0     C92619   3.380   5.095   4.299 -0.6511 -1.3760 -0.7727
  687MOL0     C92620   3.236   5.057   4.257  0.1017 -0.0548 -0.4386
  687MOL0     C92621   3.209   5.023   4.111  0.1549 -0.7670  0.1025
  687MOL0     C92622   3.285   5.114   4.022 -0.4079  0.0068 -0.1828
  687MOL0     C92623   3.242   5.115   3.874  0.2944  0.1716 -1.2422
  687MOL0     C92624   3.317   5.212   3.789 -0.5099  0.2638 -0.0148
  687MOL0     C92625   3.254   5.223   3.654  0.0110  0.5427  0.8723
  687MOL0     C92626   3.313   5.344   3.583 -0.1261  1.7174 -0.5022
  687MOL0     N92627   3.239   5.383   3.460 -0.5789  0.9251  0.3075
  687MOL0     C92628   3.228   5.297   3.361 -0.5302  0.6414  0.1978
  687MOL0     C92629   3.146   5.362   3.269  1.1680  0.1659 -0.6426
  687MOL0     C92630   3.095   5.300   3.143  0.4091  0.0709  0.7237
  687MOL0     C92631   2.953   5.310   3.095 -0.3462 -0.0641 -0.4060
  687MOL0     C92632   2.950   5.271   2.945 -0.5661 -0.0091  0.4962
  687MOL0     C92633   2.805   5.254   2.897 -0.1237  1.2764 -0.5907
  687MOL0     O92634   2.727   5.372   2.915  0.8086 -0.1790  0.3054
  687MOL0     C92635   2.594   5.359   2.889 -0.4446  0.2784 -0.8645
  687MOL0     C92636   2.525   5.235   2.847  0.7387 -0.3744  0.9553
  687MOL0     C92637   2.394   5.239   2.800  0.0743 -0.2244 -0.2948
  687MOL0     C92638   2.352   5.116   2.725 -0.2974  0.1534 -0.0176
  687MOL0     C92639   2.326   5.361   2.787 -0.2083  0.1597 -0.5333
  687MOL0     C92640   2.184   5.362   2.747 -0.3721  0.0304  0.8180
  687MOL0     O92641   2.138   5.479   2.692 -0.1192  0.0921 -0.2153
  687MOL0     C92642   1.999   5.501   2.697 -0.4342 -0.5406  0.5832
  687MOL0     C92643   1.913   5.430   2.607 -0.3319  0.4779 -0.2327
  687MOL0     C92644   1.772   5.455   2.625  0.0646 -0.2798  0.0636
  687MOL0     C92645   1.730   5.557   2.706  0.1855  0.0231 -0.3752
  687MOL0     O92646   1.599   5.575   2.717 -0.9014 -0.3097 -0.4307
  687MOL0     C92647   1.518   5.468   2.784 -0.1236 -0.2088  0.5867
  687MOL0     C92648   1.481   5.520   2.924  0.4716 -0.3120  0.5172
  687MOL0     C92649   1.427   5.660   2.918 -0.7257 -0.1457  0.3605
  687MOL0     C92650   1.349   5.698   3.043  0.2533  0.7440  0.5271
  687MOL0     C92651   1.333   5.852   3.053 -0.6057 -0.3652 -0.5988
  687MOL0     C92652   1.254   5.874   3.184 -0.3241  0.4410  0.7211
  687MOL0     C92653   1.228   6.019   3.200 -0.2471 -1.4042 -0.7593
  687MOL0     C92654   1.341   6.090   3.266 -0.1446  0.3131 -0.3439
  687MOL0    Cl92655   1.304   6.254   3.265 -0.3068 -0.0528  0.2854
  687MOL0     C92656   1.815   5.642   2.771 -0.1146 -0.4993 -0.1980
  687MOL0     C92657   1.947   5.611   2.771 -0.0605  0.0731  0.0896
  687MOL0     O92658   2.120   5.272   2.793 -0.0303  0.1685 -0.0763
  687MOL0     C92659   2.390   5.489   2.817 -0.5560  0.7622 -0.4328
  687MOL0     C92660   2.521   5.482   2.870  0.3360 -0.0440 -0.3587
  687MOL0     N92661   3.117   5.487   3.313 -0.3907 -0.0049 -0.2589
  687MOL0     N92662   3.188   5.505   3.422  0.5534 -0.3816 -0.0489
  687MOL0     C92663   3.629   5.123   4.447 -0.1518 -0.4101 -0.1189
  687MOL0     C92664   3.745   5.163   4.513  0.2388  0.3543  0.4921
  687MOL0     C92665   4.048   5.428   4.746 -0.2605  0.5472 -0.2514
  687MOL0     C92666   4.091   5.520   4.845  0.0030 -0.1825  0.6574
  687MOL0     C92667   4.227   5.519   4.887 -0.4417 -0.0953  0.3658
  687MOL0     C92668   4.320   5.427   4.830 -0.9742 -0.5376 -0.1789
  687MOL0     O92669   4.446   5.421   4.883 -0.5269  0.6446 -0.2043
  687MOL0     C92670   4.552   5.418   4.776 -0.1603 -0.6576  0.8329
  687MOL0     C92671   4.577   5.560   4.717 -0.4057  0.7649  1.7125
  687MOL0     C92672   4.630   5.655   4.815 -0.0703  0.8074 -1.6245
  687MOL0     C92673   4.776   5.681   4.807  0.1912  0.0207 -0.5835
  687MOL0     C92674   4.826   5.794   4.894 -0.6600  0.0820  0.2243
  687MOL0     C92675   4.842   5.887   4.982  0.1869 -0.7726  0.6880
  687MOL0     C92676   4.268   5.324   4.752 -0.0272  1.3988 -0.1171
  687MOL0     C92677   4.138   5.325   4.702  0.1072 -0.2483  0.9907
  687MOL0     H92678   3.611   5.417   4.687 -1.3759  1.4071 -1.7984
  687MOL0     H92679   3.411   5.323   4.596 -1.7062 -1.4412 -4.0157
  687MOL0     H92680   3.407   5.181   4.238 -4.1058 -0.6093 -1.4202
  687MOL0     H92681   3.448   5.019   4.259 -0.5822 -1.1067 -1.1743
  687MOL0     H92682   3.198   4.972   4.314 -0.0207 -1.2644 -2.2321
  687MOL0     H92683   3.166   5.137   4.282 -0.5910 -1.3529  2.2254
  687MOL0     H92684   3.245   4.922   4.092  2.9239 -0.3522  2.5255
  687MOL0     H92685   3.102   5.028   4.091 -0.0156  1.5640  1.2599
  687MOL0     H92686   3.293   5.217   4.056 -4.9020  0.8008 -0.8951
  687MOL0     H92687   3.388   5.076   4.020 -0.4496 -0.1037 -2.2504
  687MOL0     H92688   3.258   5.013   3.839 -0.1923  0.2123 -1.5953
  687MOL0     H92689   3.135   5.137   3.869  0.1601 -0.2593 -0.4382
  687MOL0     H92690   3.299   5.303   3.846 -0.2138  1.9469 -2.4749
  687MOL0     H92691   3.426   5.198   3.791 -0.4580  0.7233  1.0764
  687MOL0     H92692   3.270   5.136   3.589 -0.7409  1.9524 -1.3019
  687MOL0     H92693   3.145   5.226   3.658 -0.2046 -0.0039 -2.0149
  687MOL0     H92694   3.421   5.330   3.574 -0.1663  0.3012  0.8379
  687MOL0     H92695   3.300   5.421   3.659 -0.2862  0.2122  1.0550
  687MOL0     H92696   3.269   5.198   3.344 -1.3832  0.4437 -0.7978
  687MOL0     H92697   3.153   5.335   3.057 -0.4474  1.1478  0.5712
  687MOL0     H92698   3.122   5.194   3.157 -2.4561 -0.6307  1.4948
  687MOL0     H92699   2.928   5.415   3.110  1.9867  0.5892 -0.6284
  687MOL0     H92700   2.887   5.238   3.144 -1.0214 -1.6946 -3.4490
  687MOL0     H92701   3.005   5.178   2.930 -0.4595 -0.3668  2.7603
  687MOL0     H92702   2.999   5.347   2.883 -2.3397  0.2789 -0.6398
  687MOL0     H92703   2.762   5.170   2.953 -0.0136  1.4558 -0.2361
  687MOL0     H92704   2.804   5.235   2.789 -1.0300 -0.7480 -0.2638
  687MOL0     H92705   2.570   5.137   2.852 -0.0600 -0.7764  0.4358
  687MOL0     H92706   2.334   5.026   2.785  0.0558  0.8072  1.1107
  687MOL0     H92707   2.263   5.125   2.663  0.9279 -1.4687 -2.1450
  687MOL0     H92708   2.426   5.086   2.650 -0.8215 -0.2292 -0.3853
  687MOL0     H92709   1.959   5.360   2.538  0.3795  2.2390 -1.6089
  687MOL0     H92710   1.703   5.402   2.560  1.2328 -1.2523 -0.4198
  687MOL0     H92711   1.429   5.442   2.726  0.9293  0.0990 -1.2867
  687MOL0     H92712   1.573   5.373   2.781  0.3453  0.0783 -1.5503
  687MOL0     H92713   1.408   5.462   2.981 -0.4922  3.6583  3.7570
  687MOL0     H92714   1.570   5.530   2.986 -0.3536  4.7652  1.3349
  687MOL0     H92715   1.357   5.661   2.834 -0.3757  1.3106  0.0643
  687MOL0     H92716   1.508   5.731   2.896  2.0475 -3.1908 -0.1423
  687MOL0     H92717   1.251   5.650   3.041 -0.7446  2.6718 -1.3777
  687MOL0     H92718   1.403   5.655   3.128 -0.6800 -1.2412  0.1480
  687MOL0     H92719   1.283   5.891   2.964  0.2031  0.3597 -0.7497
  687MOL0     H92720   1.433   5.896   3.066 -0.7238 -0.4717  0.8351
  687MOL0     H92721   1.157   5.824   3.181 -0.2887  0.4223 -0.5792
  687MOL0     H92722   1.309   5.831   3.268  1.0136  0.7387  0.0358
  687MOL0     H92723   1.146   6.027   3.272  0.9122 -2.0530  0.6742
  687MOL0     H92724   1.198   6.073   3.109 -1.5270 -0.9871 -0.1066
  687MOL0     H92725   1.433   6.070   3.210 -0.7169  0.0372 -1.2075
  687MOL0     H92726   1.340   6.053   3.368 -5.8451  2.5184  0.7662
  687MOL0     H92727   1.787   5.728   2.831 -2.5990 -2.1234  1.1253
  687MOL0     H92728   2.006   5.679   2.832 -0.0024 -0.8651  1.1191
  687MOL0     H92729   2.344   5.587   2.807 -0.5246  1.3070  3.2329
  687MOL0     H92730   2.564   5.580   2.889 -2.7314  1.2323  0.5343
  687MOL0     H92731   3.622   5.044   4.373  1.7356 -0.9733  0.2674
  687MOL0     H92732   3.826   5.095   4.489 -1.6977 -1.6322 -0.8032
  687MOL0     H92733   4.004   5.570   4.885 -1.7396 -0.6459 -2.2916
  687MOL0     H92734   4.263   5.572   4.976  3.5389 -3.9999  1.4549
  687MOL0     H92735   4.648   5.385   4.818  0.4815 -1.6346 -1.2854
  687MOL0     H92736   4.517   5.357   4.693  0.0864  1.8409 -1.2255
  687MOL0     H92737   4.481   5.597   4.680  0.4135  1.5783  0.3439
  687MOL0     H92738   4.649   5.544   4.636  0.5029  2.3920  2.1606
  687MOL0     H92739   4.628   5.625   4.920  3.1421 -0.8538 -1.9027
  687MOL0     H92740   4.580   5.751   4.801  1.8921  1.6328 -3.6310
  687MOL0     H92741   4.805   5.707   4.705  0.9237  0.3701 -0.3002
  687MOL0     H92742   4.822   5.585   4.834 -0.8627 -0.9012 -1.9133
  687MOL0     H92743   4.860   5.962   5.057  0.7886 -0.5088  0.2945
  687MOL0     H92744   4.343   5.250   4.727  0.6126  1.7076  0.8098
  687MOL0     H92745   4.117   5.238   4.640 -0.2213  1.2672 -1.1356
  688MOL0     O92746  11.369   7.028   4.802  0.3379 -0.6828 -1.3902
  688MOL0     C92747  11.469   7.079   4.757  0.0772  1.1834 -1.5657
  688MOL0     O92748  11.478   7.160   4.651 -0.3254 -0.0237  0.0537
  688MOL0     C92749  11.370   7.222   4.594 -0.1520  0.2265 -0.4981
  688MOL0     C92750  11.233   7.205   4.615 -1.2904 -0.0493  0.1426
  688MOL0     C92751  11.143   7.259   4.522 -0.0115  0.0298 -0.2113
  688MOL0     C92752  11.189   7.348   4.419  0.2119 -0.0765  0.7256
  688MOL0     O92753  11.098   7.410   4.340  0.3506 -0.1492  0.4893
  688MOL0     C92754  11.138   7.406   4.203 -0.0630  0.2649 -0.0179
  688MOL0     C92755  11.049   7.481   4.114  0.1958 -0.0746  0.1221
  688MOL0     C92756  11.042   7.400   3.983 -0.9465  0.3242 -0.9009
  688MOL0     C92757  10.976   7.479   3.866 -0.6851 -0.3910 -0.2427
  688MOL0     C92758  10.902   7.374   3.775 -0.7051 -0.2915  0.9615
  688MOL0     C92759  10.815   7.435   3.660 -0.1816  0.2549 -0.0479
  688MOL0     C92760  10.748   7.314   3.578  0.1214  0.3089  0.1909
  688MOL0     C92761  10.653   7.370   3.470 -0.4356  0.5956 -0.3355
  688MOL0     N92762  10.532   7.437   3.532  0.3659  0.1854  0.1707
  688MOL0     C92763  10.442   7.380   3.619  0.3383  0.0385  0.3589
  688MOL0     C92764  10.359   7.483   3.655  0.8867  0.4258 -0.4483
  688MOL0     C92765  10.233   7.462   3.744  0.2913 -0.2135  0.1391
  688MOL0     C92766  10.121   7.463   3.653  0.4186 -0.0014 -0.0416
  688MOL0     C92767  10.004   7.382   3.706  0.8451  0.5349 -1.0894
  688MOL0     C92768   9.884   7.388   3.616 -0.2740  0.2270  0.2860
  688MOL0     O92769   9.896   7.304   3.491  0.0002  0.3666 -0.6414
  688MOL0     C92770   9.786   7.278   3.405 -0.7700 -0.6407  0.0525
  688MOL0     C92771   9.664   7.345   3.407 -0.3549 -0.8318  0.3030
  688MOL0     C92772   9.561   7.325   3.312 -0.1108  0.1695 -0.2869
  688MOL0     C92773   9.435   7.402   3.338  0.0926 -0.5979 -0.1098
  688MOL0     C92774   9.580   7.232   3.211 -1.1588 -0.0915  0.9133
  688MOL0     C92775   9.475   7.196   3.124  0.1695 -0.2132 -0.4392
  688MOL0     O92776   9.355   7.169   3.181  0.7823  0.2347 -0.1877
  688MOL0     C92777   9.263   7.081   3.138 -0.1416 -0.3574 -0.1616
  688MOL0     C92778   9.134   7.089   3.192  0.9404  0.4399 -0.0238
  688MOL0     C92779   9.039   6.993   3.166  0.7872  0.1884  0.7988
  688MOL0     C92780   9.070   6.885   3.088  0.4971  0.3550  0.3401
  688MOL0     O92781   8.978   6.789   3.057  0.1066 -0.0079  0.2673
  688MOL0     C92782   8.882   6.747   3.158 -0.7572  0.2793  1.1652
  688MOL0     C92783   8.744   6.805   3.120 -0.7482  0.2678 -0.2325
  688MOL0     C92784   8.637   6.733   3.199  0.2696  0.6695  0.4926
  688MOL0     C92785   8.497   6.786   3.170  0.5381 -0.4099 -0.2834
  688MOL0     C92786   8.383   6.727   3.251 -0.6930  0.3783 -0.3821
  688MOL0     C92787   8.254   6.810   3.232 -0.1521  0.4705 -0.2734
  688MOL0     C92788   8.141   6.728   3.287  0.3243  0.0006 -0.2629
  688MOL0     C92789   8.030   6.814   3.338 -1.0368  0.6284 -0.9996
  688MOL0    Cl92790   7.958   6.907   3.210 -0.2228  0.5319  0.1104
  688MOL0     C92791   9.184   6.884   3.012 -0.3879 -0.0496  0.2622
  688MOL0     C92792   9.283   6.981   3.044  0.1442 -0.3042 -0.2264
  688MOL0     O92793   9.503   7.179   3.006 -0.1541 -0.2603  0.3662
  688MOL0     C92794   9.708   7.170   3.203  0.7600  0.1940  0.3462
  688MOL0     C92795   9.806   7.200   3.297  0.4416 -0.2899 -0.4902
  688MOL0     N92796  10.402   7.599   3.590  0.6375 -0.8109  0.5218
  688MOL0     N92797  10.512   7.572   3.535  0.8300 -0.1961  0.1981
  688MOL0     C92798  11.325   7.380   4.407  1.7031  0.8415 -0.3369
  688MOL0     C92799  11.403   7.316   4.497  0.6640 -0.3643  0.2012
  688MOL0     C92800  11.601   7.049   4.826 -0.7513 -0.9237 -0.2483
  688MOL0     C92801  11.607   6.943   4.919 -0.1830  0.0805  0.2798
  688MOL0     C92802  11.713   6.926   5.001  0.3471  0.6550 -0.4490
  688MOL0     C92803  11.817   7.009   4.987 -0.3438  0.0909  0.5273
  688MOL0     O92804  11.915   6.999   5.074 -0.7106  0.2434  0.3296
  688MOL0     C92805  12.051   7.055   5.047  0.0393 -0.4303  0.4027
  688MOL0     C92806  12.129   6.952   4.966  0.0224  0.9172 -0.5166
  688MOL0     C92807  12.271   6.995   4.949 -0.3851  0.2388 -0.6092
  688MOL0     C92808  12.289   7.092   4.827  0.6311  0.6989 -0.8687
  688MOL0     C92809  12.411   7.159   4.858  0.4657 -0.2099  0.5082
  688MOL0     C92810  12.506   7.211   4.916  0.5590 -0.0239  0.7249
  688MOL0     C92811  11.822   7.114   4.893 -0.0862 -0.1316  0.1076
  688MOL0     C92812  11.717   7.129   4.806  0.0708  0.0810 -0.3860
  688MOL0     H92813  11.183   7.145   4.690  0.7563  0.5469  2.0957
  688MOL0     H92814  11.038   7.253   4.548 -0.2929 -0.7485 -1.4225
  688MOL0     H92815  11.231   7.460   4.187 -0.5223  0.8086 -0.9614
  688MOL0     H92816  11.142   7.300   4.174 -2.5341 -0.0091  0.3731
  688MOL0     H92817  10.947   7.478   4.154  0.9320  0.3233  2.1496
  688MOL0     H92818  11.066   7.588   4.097 -2.5052  0.6339  1.3486
  688MOL0     H92819  11.139   7.359   3.954 -0.9214  0.4627 -1.0144
  688MOL0     H92820  10.981   7.314   4.009 -0.6686  0.0743 -1.0677
  688MOL0     H92821  10.912   7.563   3.895 -0.3040  0.0160 -0.5715
  688MOL0     H92822  11.061   7.518   3.811 -0.4105 -0.6475 -0.0033
  688MOL0     H92823  10.967   7.304   3.723 -0.0864  2.5296 -2.4624
  688MOL0     H92824  10.839   7.311   3.839 -2.7754  0.7453  0.0570
  688MOL0     H92825  10.735   7.492   3.709 -2.1449 -1.6438 -0.8644
  688MOL0     H92826  10.877   7.501   3.599  1.6474  1.1451  2.6001
  688MOL0     H92827  10.825   7.261   3.521 -1.6819  0.4865 -2.6321
  688MOL0     H92828  10.693   7.241   3.637 -0.5914  0.2728 -0.4917
  688MOL0     H92829  10.619   7.290   3.404  0.6584  0.7411 -1.0870
  688MOL0     H92830  10.710   7.444   3.414  0.9551  1.5254  2.1447
  688MOL0     H92831  10.431   7.274   3.635  0.1193  0.0862  0.5220
  688MOL0     H92832  10.240   7.365   3.794  0.6116  1.0754  2.7646
  688MOL0     H92833  10.222   7.536   3.824 -3.5934  0.0866 -0.4741
  688MOL0     H92834  10.142   7.424   3.553  0.2846  1.4721 -0.6708
  688MOL0     H92835  10.092   7.568   3.651 -0.3354  0.0447  4.1539
  688MOL0     H92836   9.982   7.402   3.811  0.7363 -1.5450 -0.6630
  688MOL0     H92837  10.042   7.279   3.706  3.5276  1.4365 -1.1789
  688MOL0     H92838   9.870   7.494   3.591  1.0592  0.7338  1.5728
  688MOL0     H92839   9.800   7.353   3.677  1.8522 -0.5658  2.9333
  688MOL0     H92840   9.656   7.417   3.488 -2.4483  1.0005 -1.4100
  688MOL0     H92841   9.460   7.480   3.410 -2.4701  2.8840 -2.6643
  688MOL0     H92842   9.405   7.449   3.244 -0.0317 -1.9966 -0.8033
  688MOL0     H92843   9.354   7.339   3.378  0.7464  0.5374  3.3741
  688MOL0     H92844   9.106   7.169   3.260 -2.9326  0.1500 -1.0479
  688MOL0     H92845   8.941   7.002   3.211  0.4686  0.2633  0.1152
  688MOL0     H92846   8.875   6.638   3.153 -0.4228  0.3141 -2.3045
  688MOL0     H92847   8.909   6.772   3.261 -2.1586  1.5568  1.2636
  688MOL0     H92848   8.750   6.914   3.129  0.5400  0.1047  1.2981
  688MOL0     H92849   8.707   6.785   3.020 -2.3109 -0.0169  0.3710
  688MOL0     H92850   8.646   6.727   3.308 -1.9177 -0.9612  0.6704
  688MOL0     H92851   8.650   6.625   3.190 -0.1764  0.6312  0.2672
  688MOL0     H92852   8.510   6.892   3.195 -0.6603 -0.5966  1.2486
  688MOL0     H92853   8.475   6.763   3.065  0.1706 -2.4030  0.1976
  688MOL0     H92854   8.411   6.711   3.356  3.8451 -1.2007 -1.5993
  688MOL0     H92855   8.381   6.627   3.208  1.2301  0.6951 -1.3277
  688MOL0     H92856   8.267   6.908   3.278  1.3914  0.8112 -1.3266
  688MOL0     H92857   8.242   6.838   3.127  0.7964  1.3924 -0.1538
  688MOL0     H92858   8.172   6.652   3.359  0.1425  1.4293  1.3861
  688MOL0     H92859   8.104   6.672   3.200  0.0269 -1.5746  0.8269
  688MOL0     H92860   8.073   6.883   3.412  0.5608 -1.5749  0.2497
  688MOL0     H92861   7.957   6.748   3.385 -0.5034 -1.1591 -2.5345
  688MOL0     H92862   9.209   6.802   2.947  1.2936  1.2212 -0.7875
  688MOL0     H92863   9.385   6.962   3.010  0.0973  0.6954 -0.9763
  688MOL0     H92864   9.722   7.092   3.129 -0.9219  1.0903 -0.9823
  688MOL0     H92865   9.910   7.171   3.290  0.9243  1.4694 -0.9030
  688MOL0     H92866  11.371   7.448   4.336  1.3986  0.3961 -0.9637
  688MOL0     H92867  11.507   7.346   4.487 -0.0099  1.3784 -2.4553
  688MOL0     H92868  11.530   6.867   4.916  1.2722 -1.4243 -0.8940
  688MOL0     H92869  11.731   6.867   5.091  5.0938  2.9061  0.3688
  688MOL0     H92870  12.056   7.155   5.002 -1.0735 -0.5422  0.0003
  688MOL0     H92871  12.112   7.065   5.137  1.2520 -4.2219  0.1534
  688MOL0     H92872  12.080   6.935   4.870 -0.9996 -1.7960  0.3934
  688MOL0     H92873  12.132   6.858   5.022  2.7963  0.8094 -0.7105
  688MOL0     H92874  12.338   6.909   4.937 -1.5412 -0.4209 -2.9604
  688MOL0     H92875  12.302   7.051   5.037 -0.5076 -0.8014  0.1101
  688MOL0     H92876  12.212   7.167   4.808 -0.2632  0.0957  0.3402
  688MOL0     H92877  12.305   7.026   4.741  0.5507 -2.5687  1.4326
  688MOL0     H92878  12.582   7.247   4.983  1.3523 -0.2603 -0.0272
  688MOL0     H92879  11.904   7.184   4.882  1.7018 -2.0709  0.6498
  688MOL0     H92880  11.724   7.213   4.738  0.8117  2.0793  2.0362
  689MOL0     O92881   2.956   7.342   9.994 -0.8058  0.0150 -0.3527
  689MOL0     C92882   2.902   7.401   9.900 -0.5529  0.7304 -0.2844
  689MOL0     O92883   2.967   7.487   9.808  0.9002 -0.0450  0.4461
  689MOL0     C92884   3.096   7.523   9.816  0.3734  1.5582  0.6696
  689MOL0     C92885   3.143   7.571   9.941  1.0641  0.5588 -0.5565
  689MOL0     C92886   3.274   7.611   9.954 -0.3635 -0.3804 -0.3088
  689MOL0     C92887   3.365   7.611   9.846  0.1087  1.0611 -0.0521
  689MOL0     O92888   3.491   7.636   9.885 -0.4634 -0.5702 -0.4693
  689MOL0     C92889   3.599   7.565   9.815 -0.4783  0.2321 -0.0450
  689MOL0     C92890   3.653   7.651   9.699 -0.5286 -0.6813 -0.0651
  689MOL0     C92891   3.731   7.781   9.740  0.0449  0.2689 -0.1861
  689MOL0     C92892   3.769   7.862   9.609 -0.2249  0.7426 -1.1237
  689MOL0     C92893   3.888   7.959   9.631  0.2241 -0.1976  0.0117
  689MOL0     C92894   3.911   8.053   9.509  0.2167  0.2435  0.2594
  689MOL0     C92895   4.049   8.129   9.520 -0.0130  0.3002  0.1641
  689MOL0     C92896   4.063   8.230   9.396  0.9649 -0.1248 -1.0861
  689MOL0     N92897   4.181   8.310   9.425 -0.1989 -0.5580  0.2926
  689MOL0     C92898   4.307   8.300   9.367 -0.0360 -0.8934 -0.0204
  689MOL0     C92899   4.386   8.389   9.428 -0.2879  0.1539 -0.1045
  689MOL0     C92900   4.540   8.372   9.415  0.1712  0.8557 -0.1519
  689MOL0     C92901   4.616   8.508   9.400 -0.1552  0.4594  0.0811
  689MOL0     C92902   4.770   8.479   9.394  0.7344 -0.7941 -0.4313
  689MOL0     C92903   4.846   8.613   9.419 -0.3343 -0.1887  0.4188
  689MOL0     O92904   4.883   8.661   9.290 -0.3404 -0.6569 -0.0300
  689MOL0     C92905   4.983   8.759   9.284 -0.3011  0.3722  0.5067
  689MOL0     C92906   5.017   8.838   9.391  0.3450 -0.3799 -0.0545
  689MOL0     C92907   5.124   8.928   9.391  0.6658  0.1552  0.2581
  689MOL0     C92908   5.143   8.990   9.528  0.2874  0.7841 -0.7378
  689MOL0     C92909   5.207   8.938   9.276 -0.0131 -0.2387 -0.3059
  689MOL0     C92910   5.329   9.018   9.277 -0.6368 -0.5879  0.4071
  689MOL0     O92911   5.364   9.085   9.163  0.1833 -0.1632 -0.7038
  689MOL0     C92912   5.463   9.177   9.164  0.0986  0.2114  0.5836
  689MOL0     C92913   5.509   9.250   9.271  0.1343 -0.8198  0.8732
  689MOL0     C92914   5.618   9.342   9.258 -1.1524 -1.0535  0.0346
  689MOL0     C92915   5.694   9.349   9.132 -0.2134 -0.3024  0.0962
  689MOL0     O92916   5.813   9.408   9.126 -0.2744  0.4600 -0.0676
  689MOL0     C92917   5.864   9.460   9.001  0.2632 -0.0441 -0.3179
  689MOL0     C92918   5.950   9.577   9.045  0.9219  0.2071 -0.3988
  689MOL0     C92919   5.875   9.705   9.098 -0.9246  0.7602  0.1800
  689MOL0     C92920   5.781   9.761   8.993  0.6097  1.3693 -0.5166
  689MOL0     C92921   5.757   9.909   8.999  0.3592  0.4394 -0.4589
  689MOL0     C92922   5.629   9.946   9.066 -0.3185  0.1386 -0.8653
  689MOL0     C92923   5.650   9.930   9.222 -0.2762 -0.7459 -0.3375
  689MOL0     C92924   5.524   9.950   9.308 -0.5553 -0.0920  0.1874
  689MOL0    Cl92925   5.449  10.106   9.286 -0.2269  0.1889  0.3562
  689MOL0     C92926   5.634   9.290   9.019  0.3931 -0.9912 -0.0275
  689MOL0     C92927   5.522   9.205   9.042 -0.2157 -0.2806  0.2319
  689MOL0     O92928   5.413   8.994   9.373 -0.6055 -0.1387  0.4784
  689MOL0     C92929   5.170   8.857   9.171 -0.4210  0.7287  0.6362
  689MOL0     C92930   5.058   8.768   9.175 -0.3010 -0.4036  0.0639
  689MOL0     N92931   4.321   8.443   9.536 -0.1186 -0.2789 -0.3773
  689MOL0     N92932   4.192   8.412   9.522 -0.0135  0.6235 -0.1100
  689MOL0     C92933   3.314   7.556   9.728  0.0929 -0.2718 -0.1943
  689MOL0     C92934   3.182   7.524   9.711 -0.6111  0.0137  0.4397
  689MOL0     C92935   2.754   7.376   9.886  0.1586 -0.7608  0.4759
  689MOL0     C92936   2.697   7.438   9.781 -0.2519  0.6157  0.4386
  689MOL0     C92937   2.567   7.422   9.757  0.6153  0.1431 -0.2276
  689MOL0     C92938   2.488   7.348   9.853 -0.2382 -0.5106 -0.0302
  689MOL0     O92939   2.351   7.336   9.827  0.9906  0.3166 -0.3003
  689MOL0     C92940   2.274   7.222   9.867 -0.6681 -0.3848 -0.3647
  689MOL0     C92941   2.130   7.264   9.890  0.6470 -0.6714  0.0776
  689MOL0     C92942   2.039   7.158   9.955  0.1285  1.2759 -0.9083
  689MOL0     C92943   1.884   7.185   9.958  0.5144 -0.1304  0.4672
  689MOL0     C92944   1.823   7.061  10.004  0.3150  0.3631 -0.5660
  689MOL0     C92945   1.762   6.956  10.042  0.2623 -0.0821 -0.2282
  689MOL0     C92946   2.546   7.296   9.963 -1.1533 -0.1989 -0.1558
  689MOL0     C92947   2.683   7.313   9.980 -0.4522 -0.5032 -0.1584
  689MOL0     H92948   3.085   7.579  10.032  0.2566  0.9929 -1.1045
  689MOL0     H92949   3.303   7.633  10.056 -1.3676 -0.3707 -0.0153
  689MOL0     H92950   3.685   7.540   9.878  0.7981 -2.9469 -2.7747
  689MOL0     H92951   3.564   7.465   9.787 -2.2441  0.3165  1.6100
  689MOL0     H92952   3.727   7.593   9.642  1.0746  3.1891 -2.2992
  689MOL0     H92953   3.571   7.677   9.632  0.3195  4.0291  0.3491
  689MOL0     H92954   3.657   7.846   9.788 -0.2884 -0.2845  0.0608
  689MOL0     H92955   3.812   7.753   9.809 -0.9751 -2.1474  0.1542
  689MOL0     H92956   3.783   7.787   9.532 -0.3908 -0.1940 -0.2639
  689MOL0     H92957   3.682   7.916   9.569 -1.3559 -0.5445 -0.4701
  689MOL0     H92958   3.854   8.019   9.716 -1.9125 -0.8725 -0.3081
  689MOL0     H92959   3.974   7.896   9.657 -1.2093 -1.6632  1.3961
  689MOL0     H92960   3.906   7.999   9.414 -2.9409  3.2312 -1.5389
  689MOL0     H92961   3.831   8.128   9.507  1.0533  1.2487 -3.4925
  689MOL0     H92962   4.058   8.190   9.610  5.4425  2.9789 -1.7569
  689MOL0     H92963   4.126   8.052   9.527 -3.1541 -2.9720  2.9485
  689MOL0     H92964   3.973   8.291   9.385 -0.8356 -1.9273  2.0253
  689MOL0     H92965   4.079   8.176   9.303 -1.5542 -1.8532 -0.6129
  689MOL0     H92966   4.340   8.226   9.295 -1.9438  0.9521 -3.0112
  689MOL0     H92967   4.566   8.321   9.508 -4.0649 -0.9672  0.3006
  689MOL0     H92968   4.564   8.314   9.326  1.0054  1.4138 -0.2962
  689MOL0     H92969   4.599   8.558   9.496  0.0412  0.0553  0.3296
  689MOL0     H92970   4.580   8.562   9.312  0.1756 -0.6974 -0.7804
  689MOL0     H92971   4.803   8.421   9.306  2.7836  0.1235 -0.3163
  689MOL0     H92972   4.796   8.413   9.477 -1.4204 -1.0493  0.0921
  689MOL0     H92973   4.937   8.603   9.480 -0.6751 -0.7478  0.8427
  689MOL0     H92974   4.781   8.689   9.463 -1.0550  1.0466 -2.5589
  689MOL0     H92975   4.969   8.822   9.487  2.4122 -0.1318  1.0733
  689MOL0     H92976   5.115   9.096   9.531 -1.9835  0.1997  0.3212
  689MOL0     H92977   5.083   8.938   9.602  0.0527  2.5629  0.3862
  689MOL0     H92978   5.247   8.977   9.560  0.6653  1.7886 -1.5016
  689MOL0     H92979   5.442   9.260   9.356 -3.4932  2.6076 -1.9803
  689MOL0     H92980   5.651   9.416   9.330 -1.5926  2.2983 -2.9162
  689MOL0     H92981   5.919   9.387   8.942 -0.1681 -0.1226 -0.6279
  689MOL0     H92982   5.781   9.495   8.939  0.0727 -0.8117 -0.5035
  689MOL0     H92983   6.018   9.526   9.114  0.5955 -2.1095 -1.6767
  689MOL0     H92984   6.015   9.606   8.962 -0.1830  1.0376 -1.0062
  689MOL0     H92985   5.955   9.775   9.125 -1.5545  1.5683 -0.0031
  689MOL0     H92986   5.825   9.679   9.192  0.4193 -1.0613  0.4303
  689MOL0     H92987   5.826   9.731   8.898 -0.6809 -2.5181 -0.1041
  689MOL0     H92988   5.685   9.709   8.994 -0.1217  2.6901 -0.5986
  689MOL0     H92989   5.760   9.954   8.899 -0.6206  1.3587 -0.0979
  689MOL0     H92990   5.844   9.947   9.053 -0.7808  0.5707  1.3581
  689MOL0     H92991   5.598  10.047   9.040  1.1012  0.5359 -1.0881
  689MOL0     H92992   5.551   9.873   9.042  0.3020 -0.7673 -0.2150
  689MOL0     H92993   5.719  10.009   9.252 -1.4737  0.4297 -0.5672
  689MOL0     H92994   5.694   9.831   9.239  1.8268 -0.2464 -2.2995
  689MOL0     H92995   5.551   9.935   9.413  2.9359  0.7576 -0.4633
  689MOL0     H92996   5.455   9.874   9.271 -2.0575  1.6667 -0.8334
  689MOL0     H92997   5.667   9.297   8.915  0.0392  2.0891 -0.0356
  689MOL0     H92998   5.493   9.147   8.955  0.8794 -1.2168  0.4657
  689MOL0     H92999   5.212   8.868   9.072  0.4967  2.2614  1.1630
  689MOL0     H93000   5.045   8.691   9.099 -0.4698 -0.4434  0.1350
  689MOL0     H93001   3.383   7.531   9.648 -1.1341 -2.0050 -0.7609
  689MOL0     H93002   3.143   7.490   9.615  3.3050 -2.4695 -0.5049
  689MOL0     H93003   2.752   7.499   9.710  1.9609 -0.9121  0.7322
  689MOL0     H93004   2.515   7.474   9.678 -2.5217  0.1684  1.6658
  689MOL0     H93005   2.273   7.143   9.792  1.5133  0.3325 -1.2380
  689MOL0     H93006   2.310   7.166   9.953  0.5696 -0.7136 -1.0756
  689MOL0     H93007   2.074   7.296   9.802 -2.4209 -1.1374  1.7214
  689MOL0     H93008   2.130   7.352   9.956  0.9011  1.1875 -2.2667
  689MOL0     H93009   2.075   7.142  10.057 -0.5839 -1.7875 -1.0538
  689MOL0     H93010   2.061   7.059   9.914 -3.4654 -0.4611  0.8622
  689MOL0     H93011   1.857   7.194   9.853  0.1826 -0.4594  0.5204
  689MOL0     H93012   1.871   7.269  10.028 -1.2969 -1.4144  1.7638
  689MOL0     H93013   1.706   6.867  10.063  1.1240 -0.1540  1.9981
  689MOL0     H93014   2.491   7.239  10.038 -0.4655 -1.2681 -0.4370
  689MOL0     H93015   2.717   7.265  10.072 -2.2238  2.0588  2.0073
  690MOL0     O93016   6.621   2.782   2.993  0.3131  0.6474 -0.5037
  690MOL0     C93017   6.625   2.660   3.005 -0.5899 -1.1222 -0.3724
  690MOL0     O93018   6.518   2.578   3.022 -0.2046 -0.1459  0.4861
  690MOL0     C93019   6.389   2.633   3.010 -0.6752  1.2163  0.2190
  690MOL0     C93020   6.290   2.536   2.982 -0.7849 -0.0692  0.2646
  690MOL0     C93021   6.153   2.575   2.983  1.0901  0.0094 -0.0477
  690MOL0     C93022   6.106   2.707   3.003  0.1845  0.3962 -0.9220
  690MOL0     O93023   5.980   2.755   3.017 -0.1239  0.5141 -0.4794
  690MOL0     C93024   5.884   2.659   2.968 -0.5690 -0.1308 -0.3711
  690MOL0     C93025   5.753   2.738   2.927  0.8670 -0.5645  0.2733
  690MOL0     C93026   5.634   2.644   2.892 -0.2857 -0.3304 -0.1431
  690MOL0     C93027   5.572   2.597   3.026  0.2713 -0.5926  0.4697
  690MOL0     C93028   5.426   2.543   3.012 -0.0517  0.3075 -0.0220
  690MOL0     C93029   5.416   2.387   2.964  0.3988 -0.2661 -0.1202
  690MOL0     C93030   5.271   2.344   2.958  0.1455 -0.2324  0.2085
  690MOL0     C93031   5.259   2.188   2.983 -0.1639 -0.5458  0.2648
  690MOL0     N93032   5.127   2.128   2.994 -0.2396 -0.4125 -0.6441
  690MOL0     C93033   5.026   2.139   2.904  0.2757  0.6599  0.8062
  690MOL0     C93034   4.921   2.070   2.966 -1.5027  0.4189 -0.4779
  690MOL0     C93035   4.790   2.038   2.907 -0.2325 -0.4713 -0.5074
  690MOL0     C93036   4.679   2.128   2.967 -0.0328  0.0682 -0.2739
  690MOL0     C93037   4.554   2.131   2.877  1.7081  0.8703  0.0089
  690MOL0     C93038   4.465   2.244   2.928 -0.2504  0.4011  0.5851
  690MOL0     O93039   4.354   2.244   2.828 -0.7126 -0.0323  0.4876
  690MOL0     C93040   4.232   2.289   2.866  0.5395  0.3237  0.4580
  690MOL0     C93041   4.137   2.286   2.766  0.3354  0.0663  1.0975
  690MOL0     C93042   4.008   2.315   2.796 -0.4781  0.0685 -0.1820
  690MOL0     C93043   3.907   2.304   2.681 -0.4987 -0.4467  0.4149
  690MOL0     C93044   3.961   2.348   2.928 -0.0172 -0.0529  0.6009
  690MOL0     C93045   3.826   2.401   2.967  0.5047 -0.0052 -1.0789
  690MOL0     O93046   3.770   2.350   3.086  0.0865 -0.6572 -0.1540
  690MOL0     C93047   3.648   2.387   3.125  0.8455 -0.1661 -0.2834
  690MOL0     C93048   3.606   2.524   3.149  0.2936  0.1253 -0.2985
  690MOL0     C93049   3.488   2.561   3.198  0.9704 -0.6594  0.3383
  690MOL0     C93050   3.398   2.453   3.231 -0.5925  0.8636 -0.3301
  690MOL0     O93051   3.281   2.495   3.276 -0.6546  0.1726  0.4394
  690MOL0     C93052   3.254   2.458   3.413 -0.2327 -0.0253 -0.3572
  690MOL0     C93053   3.101   2.467   3.446 -0.2871 -0.1167 -0.9868
  690MOL0     C93054   3.017   2.383   3.349  0.0899 -0.0783  0.5254
  690MOL0     C93055   2.871   2.397   3.372 -0.3033  0.3575  0.0620
  690MOL0     C93056   2.792   2.286   3.295 -0.1173  0.3452  0.4224
  690MOL0     C93057   2.641   2.305   3.327 -0.8633 -0.7071 -1.1755
  690MOL0     C93058   2.543   2.216   3.253  0.4656 -0.5859  0.4857
  690MOL0     C93059   2.398   2.242   3.296 -0.0331 -0.1954 -0.4955
  690MOL0    Cl93060   2.352   2.419   3.299  0.6392 -0.4167 -0.2983
  690MOL0     C93061   3.435   2.320   3.213  0.2918  0.0249 -0.8650
  690MOL0     C93062   3.558   2.292   3.162 -0.3138 -0.2768 -0.1590
  690MOL0     O93063   3.777   2.482   2.896  0.2945 -0.0563  0.1571
  690MOL0     C93064   4.055   2.327   3.024  0.5554 -0.3313  0.1605
  690MOL0     C93065   4.192   2.305   2.999  1.3101 -0.1825  0.3930
  690MOL0     N93066   4.969   2.028   3.092 -0.2993 -0.1878  0.7265
  690MOL0     N93067   5.086   2.075   3.116  0.4312 -0.5198  0.1518
  690MOL0     C93068   6.208   2.802   3.017 -0.2025 -0.3973  0.3600
  690MOL0     C93069   6.348   2.764   3.032 -0.2543  0.2812 -0.3386
  690MOL0     C93070   6.754   2.601   3.032  0.2206 -0.8974 -0.5125
  690MOL0     C93071   6.869   2.687   3.024 -0.0242 -0.1605  0.1274
  690MOL0     C93072   6.997   2.632   3.041 -0.4133 -0.7927  1.0340
  690MOL0     C93073   7.017   2.495   3.060  0.4041 -0.9992 -1.1410
  690MOL0     O93074   7.150   2.460   3.067  0.1671  0.6152 -0.1095
  690MOL0     C93075   7.185   2.326   3.092 -0.8391  0.0749 -0.7755
  690MOL0     C93076   7.340   2.331   3.103  0.5143  0.4007  0.6806
  690MOL0     C93077   7.400   2.197   3.102  0.2084  0.5124  0.1618
  690MOL0     C93078   7.529   2.203   3.188 -0.3805  0.2878 -0.1685
  690MOL0     C93079   7.516   2.189   3.326 -0.1700 -0.0027 -0.9379
  690MOL0     C93080   7.507   2.177   3.444 -0.6235  0.2463 -0.7443
  690MOL0     C93081   6.909   2.410   3.067 -0.3738 -0.3890  0.6985
  690MOL0     C93082   6.782   2.465   3.063  0.3366 -0.2793  0.9181
  690MOL0     H93083   6.329   2.435   2.971  2.4300  1.1591 -1.1209
  690MOL0     H93084   6.076   2.499   2.980  0.9588  0.0973  0.9113
  690MOL0     H93085   5.915   2.605   2.878 -0.8699  1.6360 -1.5901
  690MOL0     H93086   5.860   2.584   3.044  1.6992 -1.9518 -1.3335
  690MOL0     H93087   5.733   2.805   3.011 -1.2154 -4.1170  2.8961
  690MOL0     H93088   5.773   2.801   2.840 -2.3532  1.6850  0.9505
  690MOL0     H93089   5.561   2.692   2.827  0.0034 -1.7890 -1.6154
  690MOL0     H93090   5.672   2.554   2.842 -0.0266 -0.5852  0.5049
  690MOL0     H93091   5.625   2.519   3.080 -0.4615 -2.2053 -1.0475
  690MOL0     H93092   5.554   2.686   3.087 -1.1713 -0.0122 -0.7336
  690MOL0     H93093   5.364   2.557   3.102 -0.5678  0.5015 -0.4059
  690MOL0     H93094   5.375   2.608   2.940 -1.2318  3.0557  3.0057
  690MOL0     H93095   5.447   2.393   2.859  3.5379 -1.9071  0.5755
  690MOL0     H93096   5.490   2.331   3.023  1.1148  2.3427  1.6199
  690MOL0     H93097   5.212   2.408   3.025 -0.8080 -0.0048 -0.8167
  690MOL0     H93098   5.249   2.367   2.853  0.1394  0.9624  0.4533
  690MOL0     H93099   5.324   2.160   3.067 -0.4266 -1.9126  0.0302
  690MOL0     H93100   5.307   2.145   2.895 -3.3876 -0.2150 -1.8101
  690MOL0     H93101   5.024   2.183   2.805 -0.1152 -2.2230 -0.5751
  690MOL0     H93102   4.805   2.047   2.799  1.6867 -0.4638 -0.2780
  690MOL0     H93103   4.768   1.938   2.945 -0.8080 -0.6859 -1.3780
  690MOL0     H93104   4.724   2.227   2.966 -0.0367  0.0700 -1.3010
  690MOL0     H93105   4.648   2.085   3.063 -3.9844 -3.4784 -2.7887
  690MOL0     H93106   4.490   2.044   2.892 -0.6484  2.6059  0.4685
  690MOL0     H93107   4.589   2.160   2.777 -1.7969  0.5261 -1.4733
  690MOL0     H93108   4.516   2.340   2.920  0.1477  0.1203 -0.5223
  690MOL0     H93109   4.433   2.244   3.032 -0.7993  1.7460  0.4368
  690MOL0     H93110   4.185   2.260   2.672 -0.3995 -0.4310  0.8491
  690MOL0     H93111   3.846   2.390   2.653 -1.1677 -1.9674 -3.3784
  690MOL0     H93112   3.957   2.276   2.587 -3.6180 -1.1844 -1.1468
  690MOL0     H93113   3.828   2.233   2.708 -0.9399 -1.5752 -3.2684
  690MOL0     H93114   3.679   2.597   3.116 -0.3132  0.6349 -0.5293
  690MOL0     H93115   3.453   2.663   3.216  2.3438 -0.1304  0.1568
  690MOL0     H93116   3.277   2.352   3.419 -0.4492 -0.4066 -3.9296
  690MOL0     H93117   3.324   2.509   3.480  2.4130 -2.2482 -1.2425
  690MOL0     H93118   3.098   2.430   3.549  3.6260  3.2775  0.6302
  690MOL0     H93119   3.052   2.565   3.438 -3.8007 -1.7958 -2.1702
  690MOL0     H93120   3.050   2.279   3.355  1.3171  0.2602  0.0104
  690MOL0     H93121   3.036   2.416   3.247 -1.4895  0.7492  0.4734
  690MOL0     H93122   2.834   2.388   3.475  1.0236 -0.8426  0.4615
  690MOL0     H93123   2.834   2.496   3.344  0.3050  0.3679 -0.7582
  690MOL0     H93124   2.829   2.187   3.324 -2.4553 -0.9949 -0.9489
  690MOL0     H93125   2.804   2.295   3.187 -1.8000 -0.6469  0.1258
  690MOL0     H93126   2.647   2.293   3.436 -0.6774  3.4030 -0.5868
  690MOL0     H93127   2.618   2.411   3.314  0.4405 -0.0540  1.2262
  690MOL0     H93128   2.570   2.111   3.268 -2.0648 -2.1191 -3.9581
  690MOL0     H93129   2.549   2.246   3.148 -2.7292  1.5103  0.7658
  690MOL0     H93130   2.386   2.204   3.398  1.7911  3.1229  1.1015
  690MOL0     H93131   2.328   2.183   3.235  2.0375 -2.0151 -1.2432
  690MOL0     H93132   3.369   2.238   3.238 -1.2452  0.8842 -1.9141
  690MOL0     H93133   3.577   2.185   3.166 -3.0146 -0.7894  1.3671
  690MOL0     H93134   4.020   2.331   3.127 -1.2740 -1.0097 -0.3987
  690MOL0     H93135   4.252   2.278   3.085 -1.6320  1.3866  3.1802
  690MOL0     H93136   6.185   2.908   3.017 -1.0075 -0.5506  1.5581
  690MOL0     H93137   6.412   2.846   3.061 -0.4734 -0.3681  2.2490
  690MOL0     H93138   6.856   2.788   2.984  0.2355 -1.0900 -2.5200
  690MOL0     H93139   7.082   2.699   3.038 -1.0505  0.1983  3.0880
  690MOL0     H93140   7.139   2.304   3.189 -2.4613 -0.4869 -1.6197
  690MOL0     H93141   7.151   2.252   3.018 -1.4011  1.9093 -2.4176
  690MOL0     H93142   7.384   2.387   3.186 -1.1782  2.0949  0.5084
  690MOL0     H93143   7.378   2.380   3.014 -2.2978  0.6044 -0.5271
  690MOL0     H93144   7.424   2.183   2.997 -2.0125  1.3734 -0.5042
  690MOL0     H93145   7.333   2.120   3.140 -1.0086  0.8341 -1.2726
  690MOL0     H93146   7.582   2.295   3.159 -1.3088  0.8337 -0.1754
  690MOL0     H93147   7.587   2.113   3.166  2.7356  2.4538 -1.6613
  690MOL0     H93148   7.503   2.170   3.551  2.0004  4.3064 -0.1763
  690MOL0     H93149   6.938   2.308   3.045  1.4649  0.1489  0.4206
  690MOL0     H93150   6.697   2.397   3.058  0.2843 -0.3536  2.5289
  691MOL0     O93151   4.926   3.890   8.207 -0.4546  0.0141 -0.3819
  691MOL0     C93152   5.001   3.911   8.304 -1.3839  0.4411 -0.3090
  691MOL0     O93153   4.994   4.021   8.390  0.1758 -0.5897  0.7649
  691MOL0     C93154   4.888   4.130   8.376  0.4387  1.1167  0.3112
  691MOL0     C93155   4.770   4.119   8.300  0.4390  0.0635  0.9934
  691MOL0     C93156   4.676   4.224   8.294 -0.4467 -0.0516 -0.3837
  691MOL0     C93157   4.700   4.340   8.362 -0.1649  0.2830  0.2233
  691MOL0     O93158   4.638   4.460   8.355  0.4567  0.0430  0.3774
  691MOL0     C93159   4.533   4.488   8.260 -0.0737  0.9763  0.4086
  691MOL0     C93160   4.486   4.637   8.260  0.0701  0.0048  0.5654
  691MOL0     C93161   4.357   4.675   8.175 -0.8325  0.8986 -0.7585
  691MOL0     C93162   4.319   4.824   8.179 -1.1450 -0.4170 -0.3766
  691MOL0     C93163   4.169   4.836   8.141  0.6689 -0.9499 -0.8276
  691MOL0     C93164   4.126   4.982   8.153 -0.7464  0.0384 -0.4793
  691MOL0     C93165   4.033   5.025   8.035  0.8383 -0.2432  0.7946
  691MOL0     C93166   3.893   4.985   8.069  1.8060 -0.0555  0.1867
  691MOL0     N93167   3.779   5.058   8.006  0.4239 -0.4771 -0.4387
  691MOL0     C93168   3.774   5.115   7.876 -0.6299 -0.6914 -0.0343
  691MOL0     C93169   3.652   5.166   7.868  0.6406 -0.6075  0.1013
  691MOL0     C93170   3.594   5.234   7.741 -0.9121  0.1287  1.4023
  691MOL0     C93171   3.632   5.152   7.615  0.4474  0.4466 -0.1067
  691MOL0     C93172   3.554   5.018   7.607  0.8385 -0.2057  0.0525
  691MOL0     C93173   3.402   5.041   7.577 -0.5942 -0.7506  1.1454
  691MOL0     O93174   3.395   5.085   7.441 -0.7899  0.1317  0.8163
  691MOL0     C93175   3.276   5.135   7.396 -0.1595  0.1639  0.5707
  691MOL0     C93176   3.156   5.158   7.467  1.3611 -0.3876  0.3367
  691MOL0     C93177   3.039   5.202   7.402 -0.6026  0.1018  0.2317
  691MOL0     C93178   2.923   5.219   7.501 -0.5236  0.1497  0.9571
  691MOL0     C93179   3.039   5.207   7.261  0.3789  0.3216 -1.0682
  691MOL0     C93180   2.912   5.223   7.183 -0.3777 -0.3094  0.3227
  691MOL0     O93181   2.940   5.295   7.066  0.3187 -0.5458 -0.3175
  691MOL0     C93182   2.849   5.338   6.967  0.5107  0.1056  0.3080
  691MOL0     C93183   2.890   5.368   6.831  0.3710 -0.4498 -0.7171
  691MOL0     C93184   2.801   5.390   6.722 -0.4907 -1.0854  0.0406
  691MOL0     C93185   2.668   5.379   6.748  0.1255  0.3784  0.3160
  691MOL0     O93186   2.569   5.402   6.650 -0.5380  0.1178  0.0803
  691MOL0     C93187   2.615   5.417   6.521 -0.1511 -0.1734 -0.5755
  691MOL0     C93188   2.495   5.445   6.427  0.3438  0.6603 -0.2211
  691MOL0     C93189   2.399   5.542   6.491  0.9290 -0.5648  0.2769
  691MOL0     C93190   2.283   5.548   6.392  0.1791 -0.0217  0.1171
  691MOL0     C93191   2.163   5.619   6.464  0.4658  0.2473  0.7475
  691MOL0     C93192   2.063   5.661   6.353  0.3705  0.7269 -0.0740
  691MOL0     C93193   1.952   5.752   6.404 -0.0839 -0.4364  0.7439
  691MOL0     C93194   1.847   5.789   6.296 -0.3682  0.3545  0.3382
  691MOL0    Cl93195   1.922   5.909   6.185  0.0976  0.2809 -0.4582
  691MOL0     C93196   2.624   5.356   6.883  0.0431 -0.1792  0.6558
  691MOL0     C93197   2.710   5.342   6.995 -0.2327 -0.3488 -0.1379
  691MOL0     O93198   2.806   5.174   7.215  0.3603  0.6700  0.1847
  691MOL0     C93199   3.155   5.175   7.195 -0.3783  0.0845  0.0263
  691MOL0     C93200   3.277   5.154   7.258  0.5711  0.6583 -0.1670
  691MOL0     N93201   3.589   5.140   7.990 -0.5508  0.7376  0.2624
  691MOL0     N93202   3.665   5.072   8.071  0.3860  0.0998 -0.2947
  691MOL0     C93203   4.826   4.358   8.426  0.0622  0.2843  0.0872
  691MOL0     C93204   4.909   4.245   8.446 -1.0842 -0.1271  0.0828
  691MOL0     C93205   5.093   3.798   8.334  0.1088 -0.0119  0.3962
  691MOL0     C93206   5.039   3.671   8.338 -0.0042  0.7906 -0.8456
  691MOL0     C93207   5.132   3.561   8.369  0.4960 -0.0205 -1.1189
  691MOL0     C93208   5.261   3.581   8.412 -1.1556 -0.4173 -0.8345
  691MOL0     O93209   5.362   3.486   8.416 -0.1220  0.1182  0.5790
  691MOL0     C93210   5.348   3.364   8.334 -0.6918 -0.2704 -0.3980
  691MOL0     C93211   5.291   3.256   8.431  0.5973 -0.5438 -0.1284
  691MOL0     C93212   5.287   3.122   8.374  0.1204  0.1827  0.0556
  691MOL0     C93213   5.210   3.013   8.457  0.0873  0.6122 -0.6783
  691MOL0     C93214   5.238   2.880   8.399 -0.2627  0.4751 -0.6426
  691MOL0     C93215   5.252   2.763   8.351  0.2732  0.3142  0.0260
  691MOL0     C93216   5.305   3.711   8.425 -0.0759 -0.6075 -0.5626
  691MOL0     C93217   5.228   3.815   8.372 -0.1177  0.6145 -0.5496
  691MOL0     H93218   4.747   4.035   8.236 -2.2661  2.0134 -0.7979
  691MOL0     H93219   4.588   4.208   8.231 -0.0915 -0.1973 -0.8508
  691MOL0     H93220   4.553   4.457   8.157 -4.0741 -1.6507  0.2036
  691MOL0     H93221   4.447   4.431   8.297  1.8611 -1.3601  1.5526
  691MOL0     H93222   4.472   4.662   8.365  2.8151  1.4414  0.6871
  691MOL0     H93223   4.570   4.699   8.228  0.6507 -2.0961 -2.4139
  691MOL0     H93224   4.376   4.639   8.074 -0.2054 -0.8251 -0.0729
  691MOL0     H93225   4.265   4.619   8.196  0.1799 -0.7357 -0.5199
  691MOL0     H93226   4.334   4.869   8.278 -1.5071  0.5339 -0.7354
  691MOL0     H93227   4.376   4.883   8.106 -0.2608 -1.5508 -0.6292
  691MOL0     H93228   4.146   4.800   8.040  0.3325 -1.5605 -0.5412
  691MOL0     H93229   4.117   4.779   8.218 -0.3911 -1.4083 -1.8445
  691MOL0     H93230   4.069   4.986   8.246 -2.3879 -2.6142 -1.2726
  691MOL0     H93231   4.216   5.042   8.170  1.4263 -3.4827  1.8733
  691MOL0     H93232   4.033   5.134   8.021 -0.5371 -0.3407 -0.1250
  691MOL0     H93233   4.056   4.968   7.945  0.2917  0.9317 -0.1140
  691MOL0     H93234   3.891   5.004   8.176  2.8586 -2.5489  0.7178
  691MOL0     H93235   3.882   4.877   8.057 -0.7215  0.0478  0.9247
  691MOL0     H93236   3.853   5.128   7.802 -0.1472  1.0740  0.7371
  691MOL0     H93237   3.486   5.244   7.759 -1.6815 -3.3698 -0.5284
  691MOL0     H93238   3.636   5.335   7.738 -0.0564 -0.2459  0.4086
  691MOL0     H93239   3.740   5.145   7.628  0.5368  0.4186 -0.8491
  691MOL0     H93240   3.620   5.206   7.521 -2.4722  1.6007  0.8180
  691MOL0     H93241   3.551   4.959   7.699  0.6179 -0.3596 -0.0504
  691MOL0     H93242   3.600   4.954   7.531  0.9458  1.4762 -1.3728
  691MOL0     H93243   3.361   5.122   7.639  0.4712  0.8240 -0.1160
  691MOL0     H93244   3.347   4.947   7.588  2.1329 -2.5064  0.8269
  691MOL0     H93245   3.159   5.134   7.573  1.4072 -2.0794 -0.0154
  691MOL0     H93246   2.830   5.257   7.458 -1.7561 -2.9588  0.6348
  691MOL0     H93247   2.904   5.119   7.539 -1.3878 -0.1055 -0.1093
  691MOL0     H93248   2.952   5.294   7.575  3.4829  0.0491 -0.2512
  691MOL0     H93249   2.997   5.381   6.815  0.0999  1.3713 -1.3176
  691MOL0     H93250   2.848   5.408   6.626 -0.5998 -2.5919 -0.3193
  691MOL0     H93251   2.682   5.503   6.524 -0.5481  0.1567  2.1656
  691MOL0     H93252   2.678   5.339   6.477  0.9021 -0.4536  1.3158
  691MOL0     H93253   2.520   5.479   6.326 -0.3087 -0.4080 -0.7607
  691MOL0     H93254   2.444   5.348   6.415 -0.0946  0.9641 -0.8656
  691MOL0     H93255   2.439   5.644   6.489 -1.4619  0.5612 -4.5424
  691MOL0     H93256   2.353   5.523   6.589  1.7581 -2.1005  0.3959
  691MOL0     H93257   2.317   5.593   6.298  0.4653  0.7638  0.5869
  691MOL0     H93258   2.260   5.443   6.372  0.5890 -0.5668  2.2860
  691MOL0     H93259   2.201   5.708   6.516  2.8701  0.3026 -0.9274
  691MOL0     H93260   2.112   5.557   6.538 -1.0898  1.3066  0.6131
  691MOL0     H93261   2.113   5.711   6.269 -0.1490 -0.7138 -1.2975
  691MOL0     H93262   2.028   5.564   6.318  3.6402  0.2229 -2.3265
  691MOL0     H93263   1.984   5.849   6.445 -0.3907  0.3461 -0.7996
  691MOL0     H93264   1.907   5.684   6.476  2.2579 -1.1814  1.5884
  691MOL0     H93265   1.781   5.861   6.345  2.5991  2.6157  1.3499
  691MOL0     H93266   1.793   5.708   6.245  1.0880 -0.7214  0.4261
  691MOL0     H93267   2.516   5.355   6.891  0.0788 -3.5475  2.0789
  691MOL0     H93268   2.672   5.345   7.096  0.7098  2.6040  0.2216
  691MOL0     H93269   3.155   5.171   7.087  1.9204  0.5411 -0.0555
  691MOL0     H93270   3.367   5.149   7.197 -0.1325 -0.8190 -1.1603
  691MOL0     H93271   4.874   4.446   8.468  0.9471 -0.5007  0.7855
  691MOL0     H93272   5.003   4.249   8.501 -2.5728  5.2165  2.9585
  691MOL0     H93273   4.936   3.640   8.319  0.2168 -1.3735  1.0779
  691MOL0     H93274   5.098   3.459   8.360  4.0282 -1.2050 -2.5276
  691MOL0     H93275   5.278   3.372   8.250 -0.0254  1.0745 -0.8475
  691MOL0     H93276   5.451   3.348   8.301 -0.7644  0.5555 -1.0534
  691MOL0     H93277   5.204   3.297   8.483  0.2005 -0.7904 -0.5859
  691MOL0     H93278   5.359   3.246   8.516 -0.5347 -0.3570  0.8118
  691MOL0     H93279   5.395   3.111   8.361  0.3316 -0.0723  1.8607
  691MOL0     H93280   5.247   3.114   8.272  0.5318 -1.9659  0.0200
  691MOL0     H93281   5.102   3.030   8.455  0.2624  1.7151 -2.6395
  691MOL0     H93282   5.240   3.012   8.562 -1.8644  0.4516 -0.0857
  691MOL0     H93283   5.253   2.664   8.311 -1.1413  1.1896 -2.3406
  691MOL0     H93284   5.407   3.727   8.458 -0.4168  0.0266  0.2352
  691MOL0     H93285   5.263   3.918   8.376 -0.7262  0.7953  1.0374
  692MOL0     O93286   2.717   3.500   1.156 -0.2256 -0.0252  0.1379
  692MOL0     C93287   2.702   3.427   1.061 -0.0841 -0.8897  0.3982
  692MOL0     O93288   2.580   3.394   1.010 -0.7129 -0.0705  0.2396
  692MOL0     C93289   2.465   3.446   1.062 -0.2299 -0.1590  0.1811
  692MOL0     C93290   2.418   3.422   1.195  0.0747 -0.5230  0.5606
  692MOL0     C93291   2.291   3.466   1.224  0.3742 -0.1306 -0.9090
  692MOL0     C93292   2.215   3.539   1.135  1.1570 -0.6292  0.6134
  692MOL0     O93293   2.096   3.577   1.190  0.2682 -0.8131 -1.2204
  692MOL0     C93294   2.030   3.693   1.130  1.4267  1.3000 -0.0644
  692MOL0     C93295   1.883   3.699   1.166 -0.3711 -0.2874 -0.1670
  692MOL0     C93296   1.866   3.788   1.296  0.0388  0.1747  0.8975
  692MOL0     C93297   1.722   3.784   1.342 -0.9670 -0.7962 -1.0767
  692MOL0     C93298   1.698   3.880   1.460  0.2823  0.2911  0.1949
  692MOL0     C93299   1.551   3.929   1.446  0.2196  0.3469 -0.7253
  692MOL0     C93300   1.446   3.815   1.441  0.0467 -0.0048 -0.1684
  692MOL0     C93301   1.314   3.882   1.437 -0.4387  0.0183 -0.1393
  692MOL0     N93302   1.211   3.786   1.406  0.2722 -0.3990 -0.8999
  692MOL0     C93303   1.140   3.707   1.497  0.0064 -0.0214 -0.2777
  692MOL0     C93304   1.027   3.662   1.425 -0.1737  0.1023  0.8679
  692MOL0     C93305   0.920   3.572   1.484 -0.0369  0.1574  1.2285
  692MOL0     C93306   0.790   3.601   1.420  0.6509  1.0874  0.1497
  692MOL0     C93307   0.673   3.540   1.507  0.4862  0.6947 -0.4123
  692MOL0     C93308   0.552   3.633   1.496  0.9099 -0.2882  0.1813
  692MOL0     O93309   0.444   3.545   1.510  0.1293  0.4462  0.0089
  692MOL0     C93310   0.318   3.601   1.524  1.2741  1.0152 -0.7074
  692MOL0     C93311   0.297   3.739   1.527 -0.0018  0.0859 -0.0470
  692MOL0     C93312   0.171   3.794   1.551 -0.5963 -0.2730 -0.7468
  692MOL0     C93313   0.160   3.939   1.580 -0.5562 -0.4030  0.2357
  692MOL0     C93314   0.061   3.711   1.565 -0.6166  0.0482  0.6586
  692MOL0     C93315  -0.082   3.750   1.586  0.5451 -0.2460 -0.5059
  692MOL0     O93316  -0.171   3.642   1.579  0.0224 -0.4985  0.1968
  692MOL0     C93317  -0.306   3.651   1.577 -0.4277 -0.0690  0.3379
  692MOL0     C93318  -0.361   3.526   1.562  1.0184  0.8926  0.3256
  692MOL0     C93319  -0.494   3.511   1.526  0.8029  0.2393  0.5117
  692MOL0     C93320  -0.576   3.622   1.527  0.3012 -0.3966  0.8603
  692MOL0     O93321  -0.718   3.612   1.515 -0.0996 -0.0272 -0.8200
  692MOL0     C93322  -0.779   3.718   1.439  0.8063  0.3442  0.4688
  692MOL0     C93323  -0.931   3.712   1.440  0.0783 -1.2412 -0.0192
  692MOL0     C93324  -1.007   3.587   1.394  0.2531  0.1615 -0.2693
  692MOL0     C93325  -1.155   3.601   1.423 -0.7383  0.0704  0.9726
  692MOL0     C93326  -1.240   3.504   1.324 -0.6386 -0.2959 -0.6660
  692MOL0     C93327  -1.392   3.501   1.371 -0.0114 -0.5471 -0.3215
  692MOL0     C93328  -1.474   3.605   1.287 -0.3066 -0.4975 -0.1033
  692MOL0     C93329  -1.616   3.624   1.342  0.1979  0.2119 -0.1674
  692MOL0    Cl93330  -1.701   3.462   1.335 -0.3160  0.2380 -0.4968
  692MOL0     C93331  -0.525   3.752   1.564  0.0025  1.1936 -0.3533
  692MOL0     C93332  -0.387   3.762   1.582  1.1493 -0.7216 -0.6003
  692MOL0     O93333  -0.119   3.869   1.615 -0.0996  0.8638 -0.1412
  692MOL0     C93334   0.084   3.579   1.543  0.9169 -0.4392  1.1719
  692MOL0     C93335   0.206   3.521   1.508  0.0547  0.1700  0.5620
  692MOL0     N93336   1.042   3.708   1.293 -0.0680 -0.0483 -0.4319
  692MOL0     N93337   1.145   3.784   1.293  0.7807  0.3348  1.1978
  692MOL0     C93338   2.264   3.550   1.007  0.2188 -0.1225  1.1584
  692MOL0     C93339   2.387   3.504   0.966 -0.7230  0.4205 -0.0517
  692MOL0     C93340   2.816   3.385   0.990  0.2710 -0.1293  0.2268
  692MOL0     C93341   2.814   3.255   0.942 -0.1053 -1.0410  0.4893
  692MOL0     C93342   2.930   3.201   0.888 -0.7726 -0.0032 -0.0104
  692MOL0     C93343   3.050   3.278   0.869 -0.2099 -0.6254 -0.7536
  692MOL0     O93344   3.173   3.226   0.822  0.2728  0.0261 -0.1801
  692MOL0     C93345   3.169   3.239   0.678  1.1966 -0.1068 -0.1869
  692MOL0     C93346   3.302   3.267   0.620  0.1549  0.4988  0.1006
  692MOL0     C93347   3.377   3.378   0.686  0.0801  0.0236 -0.2696
  692MOL0     C93348   3.507   3.398   0.606 -0.9455  0.0871  0.7718
  692MOL0     C93349   3.612   3.304   0.646 -0.5418 -0.1053 -0.6611
  692MOL0     C93350   3.685   3.231   0.699 -0.4243  0.5268 -0.1355
  692MOL0     C93351   3.053   3.407   0.930 -0.5652  0.2416 -0.4930
  692MOL0     C93352   2.937   3.454   0.990 -0.2722 -0.2675 -0.3201
  692MOL0     H93353   2.480   3.368   1.266 -0.0054  0.2944  1.2651
  692MOL0     H93354   2.263   3.455   1.328  5.7465 -0.9016  0.7667
  692MOL0     H93355   2.089   3.776   1.170  2.8175  0.2825  0.0685
  692MOL0     H93356   2.031   3.690   1.021 -2.3426 -0.4393 -0.2072
  692MOL0     H93357   1.816   3.736   1.089 -3.4582 -2.0792  1.4788
  692MOL0     H93358   1.847   3.598   1.188  0.5966 -0.1175  2.5182
  692MOL0     H93359   1.931   3.760   1.380  0.7814  3.0358  1.3825
  692MOL0     H93360   1.901   3.890   1.277  1.1666 -0.1714  1.0811
  692MOL0     H93361   1.657   3.810   1.258  0.8397  0.9826 -2.0064
  692MOL0     H93362   1.696   3.681   1.367  0.5627 -0.8085  0.7202
  692MOL0     H93363   1.716   3.827   1.554  1.1329 -1.1573 -0.7379
  692MOL0     H93364   1.763   3.967   1.446 -2.2431  2.1497 -0.7282
  692MOL0     H93365   1.535   4.003   1.526  3.6966  0.6356 -0.1302
  692MOL0     H93366   1.543   3.977   1.348 -2.4242 -0.4710 -0.9614
  692MOL0     H93367   1.458   3.756   1.349 -0.0912 -0.2366 -0.0368
  692MOL0     H93368   1.455   3.751   1.529  1.2717 -0.4095 -0.5535
  692MOL0     H93369   1.310   3.967   1.368  0.6508  1.8831  1.9493
  692MOL0     H93370   1.281   3.926   1.532 -3.9521  3.6080 -2.6815
  692MOL0     H93371   1.167   3.689   1.600  1.6539  0.2403 -0.6360
  692MOL0     H93372   0.950   3.468   1.467 -3.0376 -0.5405 -0.4752
  692MOL0     H93373   0.914   3.584   1.592  1.9903  1.0889  1.2871
  692MOL0     H93374   0.783   3.533   1.335  0.7981  0.9504  0.2482
  692MOL0     H93375   0.767   3.701   1.382 -5.1073  0.5209  1.3040
  692MOL0     H93376   0.697   3.539   1.614 -1.1003  1.7753 -0.0151
  692MOL0     H93377   0.657   3.434   1.482  3.1709 -1.0840  4.0559
  692MOL0     H93378   0.541   3.687   1.402 -0.9390  1.5477  1.3669
  692MOL0     H93379   0.551   3.701   1.581  3.1949  1.1673 -0.8544
  692MOL0     H93380   0.377   3.811   1.540 -2.2738  2.6974  0.3062
  692MOL0     H93381   0.094   3.997   1.515 -1.3472 -1.5044  0.0187
  692MOL0     H93382   0.129   3.960   1.682  0.0714  0.9064  0.1714
  692MOL0     H93383   0.258   3.989   1.582 -0.2615 -0.9192 -0.6730
  692MOL0     H93384  -0.294   3.440   1.561 -0.0899 -0.0159  0.7554
  692MOL0     H93385  -0.533   3.410   1.520 -2.7849  1.4119  1.9616
  692MOL0     H93386  -0.750   3.814   1.483 -1.7435 -0.2410  3.9229
  692MOL0     H93387  -0.746   3.714   1.335  0.3862 -0.4567  0.3566
  692MOL0     H93388  -0.971   3.736   1.539  0.6864 -0.1441 -0.0278
  692MOL0     H93389  -0.957   3.799   1.380  0.9810 -2.5890 -2.5172
  692MOL0     H93390  -0.974   3.491   1.436 -0.6046 -0.6466 -1.3910
  692MOL0     H93391  -0.990   3.588   1.286  4.4645  0.5465  0.2262
  692MOL0     H93392  -1.181   3.581   1.527 -2.2432 -0.1538  0.5800
  692MOL0     H93393  -1.187   3.703   1.401  0.2539  0.2854  0.4701
  692MOL0     H93394  -1.208   3.401   1.342  2.0090  0.8375  1.9655
  692MOL0     H93395  -1.220   3.527   1.219  0.6432 -0.0075 -0.3776
  692MOL0     H93396  -1.440   3.406   1.348 -1.6888  0.3808 -0.9192
  692MOL0     H93397  -1.400   3.526   1.477 -0.9006  0.0609 -0.5152
  692MOL0     H93398  -1.470   3.575   1.182 -0.1000 -2.1453  0.3551
  692MOL0     H93399  -1.432   3.706   1.293 -1.7825  0.1199  0.3941
  692MOL0     H93400  -1.673   3.696   1.282  0.5435  0.1950 -0.5175
  692MOL0     H93401  -1.625   3.653   1.447  0.2015 -0.3107 -0.0214
  692MOL0     H93402  -0.592   3.837   1.573 -1.8379 -0.2884  0.9938
  692MOL0     H93403  -0.356   3.865   1.595  0.3208 -0.3465 -1.5298
  692MOL0     H93404   0.004   3.506   1.554  1.1207 -0.7080  0.9051
  692MOL0     H93405   0.225   3.415   1.492  0.0555  0.3278 -0.5174
  692MOL0     H93406   2.211   3.608   0.932 -0.7276 -1.1182  1.0211
  692MOL0     H93407   2.431   3.517   0.868  0.4610  2.7555  0.6902
  692MOL0     H93408   2.724   3.194   0.942  0.3689 -1.7568  0.7761
  692MOL0     H93409   2.919   3.097   0.858 -1.2514 -0.1189  0.5340
  692MOL0     H93410   3.110   3.161   0.629 -2.8386  1.6638  1.3620
  692MOL0     H93411   3.109   3.329   0.666 -1.1084 -1.2298  1.9597
  692MOL0     H93412   3.296   3.297   0.515  3.7219 -0.5363 -0.5324
  692MOL0     H93413   3.357   3.172   0.625 -3.2736 -1.5869  1.5639
  692MOL0     H93414   3.409   3.357   0.788  0.1549  0.5979 -0.1691
  692MOL0     H93415   3.320   3.471   0.679 -2.0301 -1.1114  0.9046
  692MOL0     H93416   3.549   3.498   0.619 -0.1620  0.2840 -2.5733
  692MOL0     H93417   3.488   3.397   0.499 -0.3234  0.3012  0.6549
  692MOL0     H93418   3.753   3.164   0.749  0.6688  0.7508 -1.2927
  692MOL0     H93419   3.140   3.470   0.945  0.2752 -0.9054 -0.4055
  692MOL0     H93420   2.947   3.544   1.051  0.6487 -0.8751  0.4434
  693MOL0     O93421   4.408   9.864   0.426  0.0071 -0.0455  0.1673
  693MOL0     C93422   4.453   9.787   0.341  0.1563 -0.1537 -0.3143
  693MOL0     O93423   4.410   9.769   0.214 -0.1780  0.0093 -0.3990
  693MOL0     C93424   4.296   9.834   0.170  0.0234  0.1154 -0.3436
  693MOL0     C93425   4.202   9.916   0.241  0.0831  0.0557 -0.4448
  693MOL0     C93426   4.088   9.964   0.183  0.9325  0.2398 -0.1210
  693MOL0     C93427   4.069   9.955   0.045  0.4948  0.0443 -0.4141
  693MOL0     O93428   3.952  10.004  -0.020 -0.1761  0.0692 -0.5469
  693MOL0     C93429   3.834   9.976   0.052  0.3332 -0.4277  0.2095
  693MOL0     C93430   3.721  10.007  -0.054  0.7788 -0.1780  0.3892
  693MOL0     C93431   3.584   9.985   0.010 -0.2788  0.4210 -0.6736
  693MOL0     C93432   3.457   9.946  -0.071 -0.7624 -0.5313  0.5503
  693MOL0     C93433   3.340   9.900   0.009  0.4977  0.3218 -0.1124
  693MOL0     C93434   3.217   9.885  -0.087  0.7687  0.1103 -1.2943
  693MOL0     C93435   3.089   9.855   0.001 -0.5191  0.7027 -0.4318
  693MOL0     C93436   2.961   9.851  -0.074  0.6632 -0.7364 -0.4457
  693MOL0     N93437   2.895   9.986  -0.100  0.2535  0.7749  0.2427
  693MOL0     C93438   2.760   9.992  -0.120 -0.4123 -0.0446 -0.9859
  693MOL0     C93439   2.747  10.097  -0.196  0.0040 -0.0403  0.2071
  693MOL0     C93440   2.621  10.158  -0.264  0.6085  0.9303 -0.3001
  693MOL0     C93441   2.499  10.107  -0.205 -0.0404  0.5316 -0.2803
  693MOL0     C93442   2.375  10.190  -0.255  0.0490  0.4154  0.4461
  693MOL0     C93443   2.239  10.136  -0.203  0.4008 -0.1965 -0.8304
  693MOL0     O93444   2.128  10.209  -0.252  0.7074  0.1470  0.4736
  693MOL0     C93445   2.001  10.177  -0.225  0.2790  0.7637 -0.6875
  693MOL0     C93446   1.896  10.243  -0.298 -0.1471  0.1143 -0.4408
  693MOL0     C93447   1.757  10.220  -0.274  0.6906 -0.5914 -0.0725
  693MOL0     C93448   1.650  10.293  -0.355  0.3927  0.9174  0.0316
  693MOL0     C93449   1.722  10.116  -0.177  0.2206 -0.6052  0.9286
  693MOL0     C93450   1.577  10.079  -0.158  0.2298 -1.0990  0.6733
  693MOL0     O93451   1.504  10.043  -0.270 -0.2473 -0.3023 -0.2667
  693MOL0     C93452   1.371  10.023  -0.253  0.1985  0.4535 -0.1293
  693MOL0     C93453   1.274  10.116  -0.195  0.3260  0.4048 -0.3960
  693MOL0     C93454   1.140  10.066  -0.186 -0.7950 -0.5707  0.4161
  693MOL0     C93455   1.103   9.947  -0.237  0.5380  0.0549  0.2052
  693MOL0     O93456   0.971   9.904  -0.221  0.7499  0.4161 -0.1994
  693MOL0     C93457   0.966   9.801  -0.132 -0.4417 -0.1056  0.4362
  693MOL0     C93458   0.825   9.777  -0.090  0.2232 -0.3029 -0.4010
  693MOL0     C93459   0.726   9.759  -0.201 -0.6662  0.5903 -0.3336
  693MOL0     C93460   0.584   9.783  -0.165  0.5862 -0.2465  0.1183
  693MOL0     C93461   0.474   9.742  -0.268  0.4995  1.0699  0.1698
  693MOL0     C93462   0.334   9.766  -0.209  0.8368  0.6885  0.2794
  693MOL0     C93463   0.227   9.733  -0.312  0.2375 -0.6474 -0.1596
  693MOL0     C93464   0.102   9.662  -0.261  0.4372  0.7333  0.0621
  693MOL0    Cl93465   0.144   9.518  -0.159 -0.7904  0.2012 -0.7985
  693MOL0     C93466   1.194   9.857  -0.297  0.0717 -0.1640 -0.6288
  693MOL0     C93467   1.327   9.901  -0.299 -0.3906  1.0151  0.3688
  693MOL0     O93468   1.540  10.062  -0.039  0.0532  0.1225  0.0540
  693MOL0     C93469   1.818  10.060  -0.098  0.0633  0.2797 -0.4173
  693MOL0     C93470   1.957  10.091  -0.121 -0.1028 -0.2424  0.3717
  693MOL0     N93471   2.870  10.156  -0.213 -0.9636 -0.9008  0.2976
  693MOL0     N93472   2.960  10.076  -0.170 -0.3775  0.6008  0.3166
  693MOL0     C93473   4.169   9.881  -0.022  0.6622  0.4157  0.1756
  693MOL0     C93474   4.269   9.815   0.044  0.0202  0.4369 -0.2018
  693MOL0     C93475   4.578   9.711   0.381  0.5420  0.0892  0.2295
  693MOL0     C93476   4.641   9.738   0.502 -1.0615  0.5275 -1.0929
  693MOL0     C93477   4.759   9.668   0.540  0.6692 -0.7481 -0.4124
  693MOL0     C93478   4.818   9.570   0.456 -0.9310 -0.2845 -0.3346
  693MOL0     O93479   4.917   9.486   0.501 -0.1047  0.0915 -0.4447
  693MOL0     C93480   5.034   9.553   0.550 -0.4349  0.1583 -0.1980
  693MOL0     C93481   5.157   9.456   0.525 -0.6087 -0.2256 -0.2625
  693MOL0     C93482   5.207   9.463   0.376  0.7655  0.9186 -0.4990
  693MOL0     C93483   5.322   9.369   0.353 -0.1651  0.5775  0.4260
  693MOL0     C93484   5.446   9.416   0.420  0.2588 -1.4663 -0.4612
  693MOL0     C93485   5.534   9.453   0.486 -0.0048  0.5342 -0.9006
  693MOL0     C93486   4.756   9.548   0.341 -0.3459  0.1773  0.3713
  693MOL0     C93487   4.641   9.616   0.297  0.2838 -0.5331 -0.5141
  693MOL0     H93488   4.203   9.931   0.348  2.7838 -1.3818 -0.1939
  693MOL0     H93489   4.020  10.024   0.243 -0.1532 -1.5526  0.5343
  693MOL0     H93490   3.821   9.873   0.085  0.3108  0.0620  1.8330
  693MOL0     H93491   3.814  10.042   0.137  0.9819 -0.4989  0.4248
  693MOL0     H93492   3.732  10.109  -0.091  3.2264 -0.5286  0.0420
  693MOL0     H93493   3.734   9.936  -0.136  2.4283  0.3150  0.1963
  693MOL0     H93494   3.607   9.897   0.070 -2.8699  0.0176 -0.1350
  693MOL0     H93495   3.557  10.059   0.086 -0.7263 -0.4457  0.0381
  693MOL0     H93496   3.423  10.037  -0.122  1.5185  0.3433  0.4693
  693MOL0     H93497   3.475   9.869  -0.147 -0.5736 -2.4320  2.4260
  693MOL0     H93498   3.354   9.814   0.076 -3.2827 -0.8764 -0.6234
  693MOL0     H93499   3.324   9.983   0.078  3.0010  1.5441 -0.8919
  693MOL0     H93500   3.197   9.979  -0.140 -0.4830  2.3089  2.6336
  693MOL0     H93501   3.245   9.798  -0.146  1.1705 -2.6036  2.5420
  693MOL0     H93502   3.107   9.754   0.040 -1.5321 -0.5824 -3.0223
  693MOL0     H93503   3.079   9.918   0.089  2.7716 -0.0445  0.6188
  693MOL0     H93504   2.896   9.783  -0.018 -1.1100  1.3699  0.1620
  693MOL0     H93505   2.964   9.798  -0.171 -1.0551 -1.5615 -0.0807
  693MOL0     H93506   2.685   9.930  -0.072  1.6143 -0.4397  1.9351
  693MOL0     H93507   2.623  10.267  -0.258  0.8060  0.8735  0.9079
  693MOL0     H93508   2.635  10.135  -0.370  2.2981  0.2636  0.0281
  693MOL0     H93509   2.488  10.116  -0.096  1.9950 -0.5813  0.0717
  693MOL0     H93510   2.486  10.002  -0.232  0.7307  0.6206 -1.0372
  693MOL0     H93511   2.383  10.181  -0.364  1.2940 -1.7594  0.6818
  693MOL0     H93512   2.371  10.295  -0.223 -2.6251  0.1547  1.2524
  693MOL0     H93513   2.234  10.130  -0.094  2.2596 -3.0122 -0.8048
  693MOL0     H93514   2.232  10.028  -0.219  5.8203 -1.0134  0.2355
  693MOL0     H93515   1.921  10.315  -0.376 -1.7267 -0.8134 -1.8891
  693MOL0     H93516   1.551  10.292  -0.308  0.8894  0.4626  1.1005
  693MOL0     H93517   1.691  10.394  -0.367  2.0106  0.2829 -0.0879
  693MOL0     H93518   1.640  10.245  -0.453 -0.5678  0.7635  0.1979
  693MOL0     H93519   1.305  10.216  -0.168  1.7770 -0.3200  0.8252
  693MOL0     H93520   1.070  10.123  -0.125 -1.0340 -1.8394  1.3613
  693MOL0     H93521   1.008   9.714  -0.182  1.2058  1.2076 -0.5610
  693MOL0     H93522   1.017   9.833  -0.041  0.5783 -2.0840  0.6148
  693MOL0     H93523   0.823   9.686  -0.029 -0.1432  0.1396  0.2593
  693MOL0     H93524   0.796   9.859  -0.023 -1.8417  3.0840 -4.8755
  693MOL0     H93525   0.739   9.663  -0.251 -0.9622 -0.2364  1.1213
  693MOL0     H93526   0.753   9.826  -0.283 -1.9644  1.7206  0.1209
  693MOL0     H93527   0.557   9.734  -0.071 -1.0935 -1.9438 -1.1707
  693MOL0     H93528   0.582   9.892  -0.158  0.4057 -0.1285 -1.5138
  693MOL0     H93529   0.489   9.639  -0.302 -0.6220  0.8290  0.3653
  693MOL0     H93530   0.483   9.809  -0.354 -5.6832  1.4174 -0.6546
  693MOL0     H93531   0.317   9.713  -0.115  1.2855  0.9853  0.5314
  693MOL0     H93532   0.318   9.870  -0.179  1.1177  0.5057  1.0999
  693MOL0     H93533   0.273   9.661  -0.380  1.6156  0.2544 -0.2256
  693MOL0     H93534   0.208   9.827  -0.366 -1.1964 -1.0216 -0.3346
  693MOL0     H93535   0.034   9.632  -0.342  0.8507  1.1822 -0.4598
  693MOL0     H93536   0.055   9.737  -0.196  1.3664  2.6189 -1.3185
  693MOL0     H93537   1.169   9.758  -0.334 -1.1145 -0.1136 -0.0000
  693MOL0     H93538   1.401   9.837  -0.346 -3.4257 -2.1197 -0.5742
  693MOL0     H93539   1.786  10.000  -0.013 -0.1592  0.3257 -0.4672
  693MOL0     H93540   2.047  10.049  -0.077 -0.3626 -0.5405  0.6234
  693MOL0     H93541   4.170   9.872  -0.131  0.3481 -0.7679  0.2606
  693MOL0     H93542   4.339   9.755  -0.014 -0.8343 -2.7046  1.7771
  693MOL0     H93543   4.598   9.798   0.582 -0.7416  0.2133 -0.6846
  693MOL0     H93544   4.807   9.672   0.638 -1.2752 -2.0958  0.6518
  693MOL0     H93545   5.040   9.651   0.503 -0.9152 -0.8316 -2.5189
  693MOL0     H93546   5.040   9.557   0.659  2.0741 -1.4589 -0.1973
  693MOL0     H93547   5.123   9.355   0.548  0.6091 -0.1072  2.3805
  693MOL0     H93548   5.231   9.480   0.602 -1.2230  1.8092 -0.2293
  693MOL0     H93549   5.239   9.557   0.329  0.1869 -1.0495 -5.3118
  693MOL0     H93550   5.120   9.428   0.321 -0.5329  1.6051  1.0418
  693MOL0     H93551   5.351   9.365   0.248  1.3372 -1.2298  0.8591
  693MOL0     H93552   5.300   9.266   0.382  2.6033  0.2324  1.6085
  693MOL0     H93553   5.618   9.505   0.527 -0.5026 -0.3214  1.3360
  693MOL0     H93554   4.791   9.462   0.284 -0.5345 -1.1666  2.1954
  693MOL0     H93555   4.598   9.597   0.199 -2.6159  1.6720  0.1915
  694MOL0     O93556  10.565   6.735   0.807 -0.1314 -0.1915 -0.5727
  694MOL0     C93557  10.621   6.661   0.731 -0.4963  0.6755  0.3123
  694MOL0     O93558  10.564   6.585   0.633 -0.0374 -0.1333 -0.0421
  694MOL0     C93559  10.425   6.561   0.627 -0.5125  0.3453  0.4115
  694MOL0     C93560  10.346   6.545   0.736  0.9238 -0.0182  0.0123
  694MOL0     C93561  10.211   6.514   0.732  0.3758  0.5082 -0.1130
  694MOL0     C93562  10.157   6.498   0.609 -0.2526  0.8441 -0.3894
  694MOL0     O93563  10.028   6.460   0.607 -0.0742 -0.7536  0.8602
  694MOL0     C93564   9.971   6.381   0.496  0.3097 -0.7092 -0.5667
  694MOL0     C93565   9.831   6.359   0.537  0.6375 -0.1380  0.5911
  694MOL0     C93566   9.773   6.310   0.405  0.6307  0.7236  0.4324
  694MOL0     C93567   9.625   6.285   0.424  0.0664  0.5142 -0.1298
  694MOL0     C93568   9.540   6.407   0.467 -0.0034  0.9334  1.0042
  694MOL0     C93569   9.530   6.500   0.338  0.4575  0.3215 -0.2599
  694MOL0     C93570   9.424   6.600   0.367 -0.1434  0.3848 -0.4834
  694MOL0     C93571   9.421   6.699   0.251 -0.5896  0.1600  0.8688
  694MOL0     N93572   9.316   6.805   0.251  0.2064  0.7947 -0.1558
  694MOL0     C93573   9.220   6.835   0.163  0.9156 -0.3246 -0.9694
  694MOL0     C93574   9.146   6.937   0.212 -0.4341  0.7734 -0.4812
  694MOL0     C93575   9.018   6.998   0.166  0.1007  0.4228  0.8127
  694MOL0     C93576   8.899   6.923   0.230  0.6477  0.6317  0.2312
  694MOL0     C93577   8.766   6.972   0.171  0.3717 -0.5448  0.7414
  694MOL0     C93578   8.638   6.911   0.233  0.8208  0.4697  0.9097
  694MOL0     O93579   8.521   6.992   0.187  0.4721  0.2004 -0.4021
  694MOL0     C93580   8.389   6.953   0.224 -0.7011 -0.2999  0.5969
  694MOL0     C93581   8.286   7.049   0.229  0.1144  0.3158 -0.6830
  694MOL0     C93582   8.152   7.011   0.274 -0.4648 -0.2008  0.2423
  694MOL0     C93583   8.052   7.132   0.291  0.2614 -0.0724 -0.1413
  694MOL0     C93584   8.124   6.876   0.296 -0.5792  0.4251 -0.2172
  694MOL0     C93585   7.995   6.822   0.349  0.0685  0.0133  0.3447
  694MOL0     O93586   7.982   6.687   0.355  0.7297  0.6283  0.0463
  694MOL0     C93587   7.873   6.629   0.415  1.2980  0.2337  0.5176
  694MOL0     C93588   7.733   6.676   0.401  0.3230  0.4898 -0.8520
  694MOL0     C93589   7.627   6.601   0.464 -1.2357  0.3553  0.1242
  694MOL0     C93590   7.650   6.483   0.530 -0.1123  0.3687  0.4578
  694MOL0     O93591   7.541   6.433   0.604  0.7622 -0.4263  0.5694
  694MOL0     C93592   7.532   6.293   0.614 -0.6555  0.8044 -0.3890
  694MOL0     C93593   7.411   6.258   0.691 -0.3350 -0.4196  0.0019
  694MOL0     C93594   7.296   6.207   0.610 -0.0759  0.1107  0.7803
  694MOL0     C93595   7.171   6.182   0.687 -0.4603  1.3580 -0.2363
  694MOL0     C93596   7.059   6.122   0.590 -0.2385 -0.9428  0.2188
  694MOL0     C93597   7.072   5.970   0.573  0.2616 -0.0186 -0.2200
  694MOL0     C93598   6.954   5.930   0.482 -0.1086 -0.3963 -0.3035
  694MOL0     C93599   6.989   5.941   0.334 -0.4453  0.3292 -0.2160
  694MOL0    Cl93600   7.125   5.846   0.271 -0.1970 -0.6183 -0.0789
  694MOL0     C93601   7.778   6.435   0.536 -0.4454  0.6404  0.0000
  694MOL0     C93602   7.890   6.506   0.490 -0.7862 -1.3032 -0.4193
  694MOL0     O93603   7.926   6.904   0.416  0.3920 -0.0802 -0.2580
  694MOL0     C93604   8.230   6.783   0.281  0.0651  0.9827  1.2399
  694MOL0     C93605   8.355   6.821   0.237 -0.1530  0.3666 -0.5915
  694MOL0     N93606   9.200   6.977   0.331 -0.4062  0.0579  0.0510
  694MOL0     N93607   9.307   6.897   0.351  0.1045 -0.9981  0.3596
  694MOL0     C93608  10.233   6.509   0.482 -0.4572 -0.3069  0.0161
  694MOL0     C93609  10.367   6.548   0.503 -0.7911 -0.5044  0.6100
  694MOL0     C93610  10.771   6.651   0.748  0.1381  0.1075 -0.8126
  694MOL0     C93611  10.848   6.564   0.666 -0.5835  0.4289  0.2850
  694MOL0     C93612  10.987   6.563   0.681 -0.6699  1.1922 -0.1112
  694MOL0     C93613  11.054   6.631   0.785  0.0834  0.4844 -0.8866
  694MOL0     O93614  11.189   6.627   0.808 -1.1156 -0.5692  0.0530
  694MOL0     C93615  11.272   6.522   0.759 -0.0666 -0.2073  0.4020
  694MOL0     C93616  11.342   6.546   0.626  0.2373 -0.4732  0.5524
  694MOL0     C93617  11.442   6.434   0.592 -0.3625 -0.0486  0.2141
  694MOL0     C93618  11.388   6.297   0.588  0.4991  0.5021  0.9795
  694MOL0     C93619  11.267   6.277   0.502  0.1285  0.1438  0.6045
  694MOL0     C93620  11.158   6.268   0.440 -0.2004 -0.5438 -0.2520
  694MOL0     C93621  10.975   6.719   0.864 -0.2426 -0.6151 -0.2096
  694MOL0     C93622  10.837   6.730   0.841  0.8240  0.2760  0.3349
  694MOL0     H93623  10.387   6.545   0.837  0.7786 -0.8930  0.0802
  694MOL0     H93624  10.145   6.524   0.817 -0.3093  0.9035 -0.6758
  694MOL0     H93625   9.970   6.446   0.408 -1.9407 -0.6308 -0.5525
  694MOL0     H93626  10.030   6.291   0.474  1.8273 -0.3443  1.7465
  694MOL0     H93627   9.822   6.290   0.622 -1.3631  1.1599  1.5085
  694MOL0     H93628   9.789   6.457   0.564  1.3790  0.0459  1.1175
  694MOL0     H93629   9.787   6.369   0.313  1.0992 -0.4242 -0.2558
  694MOL0     H93630   9.826   6.220   0.372  1.9147  2.3204 -2.2432
  694MOL0     H93631   9.596   6.255   0.323  0.4226  1.1726 -0.4361
  694MOL0     H93632   9.604   6.194   0.481 -1.0482 -0.8291 -2.5388
  694MOL0     H93633   9.439   6.379   0.497  0.8559 -0.8138  2.5200
  694MOL0     H93634   9.580   6.462   0.553 -0.1964  1.1482  0.9545
  694MOL0     H93635   9.633   6.537   0.330  0.1896  1.0608 -0.4014
  694MOL0     H93636   9.509   6.439   0.251  1.6965 -1.6807  0.7732
  694MOL0     H93637   9.328   6.548   0.372  0.5381 -0.9636 -0.7593
  694MOL0     H93638   9.447   6.658   0.456 -1.8556  2.5096 -1.3396
  694MOL0     H93639   9.413   6.638   0.160  0.5821 -0.8395  1.4200
  694MOL0     H93640   9.522   6.740   0.247  0.5193 -2.4845 -0.6541
  694MOL0     H93641   9.200   6.774   0.076  0.2610  0.3182 -1.2746
  694MOL0     H93642   9.016   7.105   0.187 -1.7378 -0.0611  3.7018
  694MOL0     H93643   9.011   6.998   0.057 -1.6684  1.4137  0.8901
  694MOL0     H93644   8.900   6.936   0.339  1.5172  2.9213  0.0038
  694MOL0     H93645   8.909   6.817   0.209  1.5010  1.0053 -1.3697
  694MOL0     H93646   8.763   6.931   0.069  0.0427 -1.5629  1.1534
  694MOL0     H93647   8.758   7.081   0.163  1.0570 -0.4079  1.8400
  694MOL0     H93648   8.642   6.912   0.343 -1.1326 -1.4321  1.0580
  694MOL0     H93649   8.626   6.808   0.198  1.1371  0.1996  1.5536
  694MOL0     H93650   8.318   7.152   0.219 -0.3777  0.6609  1.0138
  694MOL0     H93651   8.092   7.220   0.239  2.9425 -0.9071  0.3686
  694MOL0     H93652   7.950   7.098   0.275  0.6731 -1.6142  0.3794
  694MOL0     H93653   8.049   7.158   0.397 -1.6313  0.6026 -0.3280
  694MOL0     H93654   7.705   6.769   0.352  2.2916  2.2814  1.2003
  694MOL0     H93655   7.526   6.637   0.453 -1.8590 -1.9799 -3.1914
  694MOL0     H93656   7.535   6.253   0.513 -0.6354 -0.6898  0.1705
  694MOL0     H93657   7.614   6.249   0.672  1.0231  0.4268 -2.8794
  694MOL0     H93658   7.433   6.177   0.761 -0.6708 -0.9773 -0.5325
  694MOL0     H93659   7.371   6.349   0.737 -0.0292 -1.1877  1.8723
  694MOL0     H93660   7.323   6.121   0.549 -2.0440  0.1746 -0.2525
  694MOL0     H93661   7.276   6.289   0.541 -2.2254 -0.4463  0.6821
  694MOL0     H93662   7.186   6.110   0.769 -2.3232 -0.1933 -1.1646
  694MOL0     H93663   7.131   6.268   0.740  1.9391  1.9867  0.7086
  694MOL0     H93664   7.054   6.173   0.493  0.2458  0.4721  0.9060
  694MOL0     H93665   6.966   6.130   0.647  0.0836 -0.8662  0.7464
  694MOL0     H93666   7.165   5.940   0.523  0.5451  1.5501 -0.7221
  694MOL0     H93667   7.067   5.923   0.672 -1.4344  0.1079 -0.2174
  694MOL0     H93668   6.863   5.987   0.505 -1.0716 -0.5934 -3.2240
  694MOL0     H93669   6.935   5.825   0.509  0.3300  0.0830  2.0694
  694MOL0     H93670   7.001   6.044   0.300  2.2194 -0.2294 -1.2435
  694MOL0     H93671   6.903   5.902   0.280 -1.5940 -0.3255  1.9575
  694MOL0     H93672   7.806   6.341   0.583  0.0524  0.4538 -0.6480
  694MOL0     H93673   7.996   6.489   0.506 -0.7505 -0.7347  0.0086
  694MOL0     H93674   8.215   6.676   0.287 -2.5295  1.2209  0.4776
  694MOL0     H93675   8.431   6.744   0.242  1.7063  2.1596  0.3571
  694MOL0     H93676  10.196   6.479   0.384  3.5123 -3.1123 -0.8866
  694MOL0     H93677  10.428   6.554   0.414  0.0994  1.9036  1.2890
  694MOL0     H93678  10.803   6.496   0.595  1.0126 -1.1940  0.7354
  694MOL0     H93679  11.048   6.494   0.625  0.8615  1.2566  1.3882
  694MOL0     H93680  11.353   6.501   0.829  0.5881 -0.8140 -0.5148
  694MOL0     H93681  11.206   6.435   0.754 -2.0799  1.1540  1.6808
  694MOL0     H93682  11.378   6.649   0.634 -4.1800  1.2998  0.6967
  694MOL0     H93683  11.271   6.557   0.544 -0.0363  2.8260  1.1105
  694MOL0     H93684  11.520   6.431   0.668 -0.3582  1.6014  0.3137
  694MOL0     H93685  11.485   6.455   0.494  0.5458 -2.1774  0.0923
  694MOL0     H93686  11.358   6.269   0.689 -0.3876 -1.8549  0.1054
  694MOL0     H93687  11.468   6.226   0.566 -1.7929 -1.6470 -1.0900
  694MOL0     H93688  11.061   6.277   0.395  0.5848  1.5080 -1.6674
  694MOL0     H93689  11.028   6.780   0.936  0.3558 -0.2556 -0.9345
  694MOL0     H93690  10.792   6.811   0.898 -0.4903 -1.0585  1.2574
  695MOL0     O93691   2.529   5.485   1.695  0.0751 -0.3996 -0.5290
  695MOL0     C93692   2.615   5.405   1.667 -0.4822  0.6805 -0.2781
  695MOL0     O93693   2.580   5.289   1.598 -0.6474  0.2671 -0.8732
  695MOL0     C93694   2.459   5.274   1.532 -0.1948 -0.0269  0.1986
  695MOL0     C93695   2.394   5.368   1.451 -0.8452 -0.3776  0.5023
  695MOL0     C93696   2.269   5.351   1.396 -0.0121  0.8121  0.0351
  695MOL0     C93697   2.204   5.218   1.416  0.1364 -0.6894 -0.0490
  695MOL0     O93698   2.067   5.187   1.387 -0.0327 -0.2828  0.4726
  695MOL0     C93699   1.998   5.269   1.294 -0.1131  0.2013  0.2283
  695MOL0     C93700   1.923   5.381   1.373 -0.3580 -0.4745  0.2893
  695MOL0     C93701   1.844   5.330   1.496 -0.5961 -0.5334 -0.2467
  695MOL0     C93702   1.687   5.345   1.446  0.0319 -0.0919  0.0708
  695MOL0     C93703   1.650   5.249   1.334  0.4102  0.0030  0.2555
  695MOL0     C93704   1.514   5.292   1.282 -0.7557 -0.1879 -0.0856
  695MOL0     C93705   1.455   5.165   1.204  0.2473  0.0149  0.1964
  695MOL0     C93706   1.328   5.196   1.123  0.9141  0.0480 -1.6116
  695MOL0     N93707   1.263   5.077   1.062 -0.2333  0.0217  0.8444
  695MOL0     C93708   1.139   5.096   0.995 -0.4568 -0.1086  0.3085
  695MOL0     C93709   1.132   4.977   0.919  0.3985 -0.7475 -0.1730
  695MOL0     C93710   1.028   4.957   0.815 -0.0048 -0.1295 -0.4096
  695MOL0     C93711   0.896   4.883   0.852  0.9989 -0.1550 -0.1974
  695MOL0     C93712   0.908   4.755   0.942  0.2330  0.3997  0.2421
  695MOL0     C93713   0.776   4.689   0.987 -0.3128 -0.9424 -0.2207
  695MOL0     O93714   0.679   4.789   1.035 -0.1927  0.5382 -0.0869
  695MOL0     C93715   0.542   4.758   1.041  0.2776  1.2098  0.0569
  695MOL0     C93716   0.490   4.627   1.022  0.3572 -0.7453  0.0352
  695MOL0     C93717   0.358   4.595   1.049  0.2710 -0.6807 -0.6571
  695MOL0     C93718   0.320   4.452   1.019  0.5801  0.2456  0.3178
  695MOL0     C93719   0.263   4.694   1.094 -0.2283  0.8824  0.5812
  695MOL0     C93720   0.124   4.662   1.130 -0.0609  0.1602  0.3253
  695MOL0     O93721   0.054   4.762   1.193 -0.2026 -0.5928 -0.1000
  695MOL0     C93722  -0.069   4.734   1.244  0.3828 -0.1746 -0.0788
  695MOL0     C93723  -0.175   4.714   1.150  0.0788  0.1160 -0.5811
  695MOL0     C93724  -0.307   4.688   1.203  0.5880 -0.3439  0.0055
  695MOL0     C93725  -0.330   4.712   1.351  0.0992  0.0540  0.3914
  695MOL0     O93726  -0.453   4.703   1.410  0.8442  1.2350 -0.2095
  695MOL0     C93727  -0.469   4.753   1.556 -0.0904  0.0447  0.5759
  695MOL0     C93728  -0.612   4.798   1.587 -0.1441 -0.5279  0.6631
  695MOL0     C93729  -0.712   4.679   1.556 -0.8142 -0.5100 -0.9478
  695MOL0     C93730  -0.786   4.636   1.681 -1.5327  0.2678 -0.3446
  695MOL0     C93731  -0.884   4.537   1.633  0.2735 -0.1166 -0.1538
  695MOL0     C93732  -0.937   4.460   1.749 -0.1672 -0.0816  0.6180
  695MOL0     C93733  -1.062   4.377   1.719 -0.9830  0.1549  1.0396
  695MOL0     C93734  -1.187   4.463   1.745 -0.1618 -0.9591 -0.0612
  695MOL0    Cl93735  -1.210   4.529   1.917  0.5215 -0.2468 -0.1982
  695MOL0     C93736  -0.212   4.726   1.430 -0.6005  0.6868 -0.6511
  695MOL0     C93737  -0.084   4.729   1.381  1.0316  0.1339  0.1247
  695MOL0     O93738   0.080   4.545   1.119  0.6880  0.0451  0.2019
  695MOL0     C93739   0.319   4.821   1.122 -0.7161 -0.4055 -0.2243
  695MOL0     C93740   0.458   4.852   1.091  0.3811  0.5494 -0.2126
  695MOL0     N93741   1.247   4.902   0.942 -0.2182 -0.0013  1.0284
  695MOL0     N93742   1.321   4.960   1.029 -0.1226 -0.9239 -0.1370
  695MOL0     C93743   2.277   5.125   1.487 -0.8078  0.3070 -0.1142
  695MOL0     C93744   2.402   5.151   1.553 -0.0921 -0.3727 -0.5086
  695MOL0     C93745   2.745   5.414   1.737  1.1344  0.1289  0.3479
  695MOL0     C93746   2.856   5.339   1.691 -0.9981  0.5542 -1.2110
  695MOL0     C93747   2.977   5.359   1.756  0.3056 -0.1332  0.2617
  695MOL0     C93748   3.005   5.464   1.843 -0.0743  0.1130 -0.8636
  695MOL0     O93749   3.130   5.470   1.902 -0.5992  0.1593 -0.2241
  695MOL0     C93750   3.139   5.490   2.042 -0.3331 -0.2992 -0.7854
  695MOL0     C93751   3.285   5.474   2.089  0.2154 -1.1855  0.0318
  695MOL0     C93752   3.373   5.591   2.037  0.2083 -0.1966 -0.3572
  695MOL0     C93753   3.502   5.602   2.116 -0.5555  0.6129  0.8082
  695MOL0     C93754   3.598   5.498   2.081 -0.1997 -1.4951 -0.3955
  695MOL0     C93755   3.662   5.395   2.062  0.5149  0.3817  0.4044
  695MOL0     C93756   2.899   5.543   1.882 -0.3093 -0.5060 -0.3301
  695MOL0     C93757   2.770   5.519   1.833  0.0910 -0.0175 -0.5845
  695MOL0     H93758   2.452   5.456   1.425 -0.4261  0.0259  2.6573
  695MOL0     H93759   2.225   5.440   1.351  1.7162  1.1059 -1.1865
  695MOL0     H93760   2.060   5.326   1.224  0.4253  3.8286  3.3218
  695MOL0     H93761   1.936   5.196   1.241 -0.1657  0.6501 -0.3416
  695MOL0     H93762   1.992   5.459   1.406 -1.1204  0.6855 -0.7755
  695MOL0     H93763   1.853   5.428   1.304 -1.7131 -0.5283  1.5688
  695MOL0     H93764   1.863   5.224   1.514  1.5667 -0.7751 -3.2933
  695MOL0     H93765   1.870   5.387   1.585  2.7569 -3.1657  0.6482
  695MOL0     H93766   1.619   5.320   1.528  0.7980  0.2157  0.8191
  695MOL0     H93767   1.671   5.450   1.419 -1.0973 -0.7289 -1.8984
  695MOL0     H93768   1.722   5.261   1.253  1.2174  0.1475  0.9774
  695MOL0     H93769   1.653   5.150   1.381  2.7361 -0.2705 -0.3641
  695MOL0     H93770   1.438   5.324   1.354  1.0840 -1.6975  2.7447
  695MOL0     H93771   1.544   5.370   1.212  2.8869 -1.4850 -0.1698
  695MOL0     H93772   1.522   5.125   1.128  1.6264 -1.0025  1.8750
  695MOL0     H93773   1.427   5.094   1.282 -0.4748  0.4666  0.3608
  695MOL0     H93774   1.361   5.272   1.050  1.0535  0.3507 -1.2381
  695MOL0     H93775   1.261   5.240   1.197  0.2161 -2.2255 -0.8127
  695MOL0     H93776   1.076   5.185   0.991  1.2462  1.1243 -1.4937
  695MOL0     H93777   1.019   5.047   0.754  0.7660 -0.6392 -1.3048
  695MOL0     H93778   1.069   4.878   0.751 -0.7283 -0.3389 -0.6306
  695MOL0     H93779   0.863   4.855   0.752 -1.0764 -1.6486  0.8354
  695MOL0     H93780   0.822   4.952   0.894 -1.9352 -2.7859 -0.6707
  695MOL0     H93781   0.952   4.786   1.037 -3.4950  2.2249  1.5544
  695MOL0     H93782   0.962   4.673   0.894  0.2713 -0.3048  1.4471
  695MOL0     H93783   0.787   4.618   1.070  0.6967 -2.3349 -1.4878
  695MOL0     H93784   0.732   4.631   0.906 -0.1440 -0.5775 -0.5781
  695MOL0     H93785   0.543   4.544   0.976  0.1838 -0.6288 -0.3748
  695MOL0     H93786   0.221   4.439   0.973 -0.0901  2.1910  1.1251
  695MOL0     H93787   0.396   4.413   0.950  1.9047  3.7943 -0.3924
  695MOL0     H93788   0.327   4.388   1.107  0.3502 -0.2351 -0.0048
  695MOL0     H93789  -0.160   4.725   1.043  0.2518  1.2453 -0.4542
  695MOL0     H93790  -0.396   4.666   1.145  0.1704  1.5944 -0.1697
  695MOL0     H93791  -0.439   4.677   1.629  1.5356  2.0000  2.0556
  695MOL0     H93792  -0.410   4.842   1.578  2.1233 -0.7997 -1.4621
  695MOL0     H93793  -0.631   4.830   1.690 -1.9697 -0.3175  0.3070
  695MOL0     H93794  -0.650   4.884   1.532 -1.0958 -1.2779  0.1007
  695MOL0     H93795  -0.652   4.602   1.507  1.9364  1.7217 -1.3468
  695MOL0     H93796  -0.791   4.709   1.487 -2.2636 -1.0479  0.4060
  695MOL0     H93797  -0.719   4.586   1.752  0.0307 -0.1767 -2.0764
  695MOL0     H93798  -0.825   4.724   1.734  1.6859 -1.1037  5.0493
  695MOL0     H93799  -0.834   4.470   1.563 -1.5158  0.4153 -2.0358
  695MOL0     H93800  -0.968   4.585   1.582 -1.3332  0.5202  2.8429
  695MOL0     H93801  -0.868   4.382   1.783 -2.8963 -3.9466 -1.8594
  695MOL0     H93802  -0.962   4.533   1.826  1.0972  4.5881 -2.9089
  695MOL0     H93803  -1.066   4.291   1.787 -1.0986 -0.7846 -0.1154
  695MOL0     H93804  -1.059   4.330   1.620  1.3572  0.3813  0.9550
  695MOL0     H93805  -1.280   4.411   1.720 -0.7756 -1.4922  2.9485
  695MOL0     H93806  -1.187   4.546   1.675 -0.0242  1.0002  2.1285
  695MOL0     H93807  -0.212   4.724   1.538 -1.9585 -0.6163 -0.6429
  695MOL0     H93808   0.007   4.734   1.442  1.3011 -1.3590 -0.1251
  695MOL0     H93809   0.254   4.901   1.153 -0.9576 -1.2926  1.7231
  695MOL0     H93810   0.491   4.954   1.108 -1.2099  1.2059 -0.8862
  695MOL0     H93811   2.221   5.034   1.502  0.1283 -0.3152 -0.3392
  695MOL0     H93812   2.428   5.083   1.634  0.0601 -0.1368 -0.3590
  695MOL0     H93813   2.845   5.269   1.609 -2.5987  1.4012 -1.7659
  695MOL0     H93814   3.057   5.295   1.720 -1.8814 -2.3485 -1.0397
  695MOL0     H93815   3.114   5.595   2.059  1.6260  0.3436 -1.5034
  695MOL0     H93816   3.072   5.426   2.099  0.2466  0.3770  0.6972
  695MOL0     H93817   3.317   5.375   2.055  2.5069 -0.6951  0.5877
  695MOL0     H93818   3.294   5.485   2.198  3.2730 -0.3500 -0.2291
  695MOL0     H93819   3.323   5.689   2.038 -0.4231 -0.5109 -0.7829
  695MOL0     H93820   3.398   5.579   1.931  0.0537  4.4043 -1.1353
  695MOL0     H93821   3.497   5.604   2.225  0.2449 -3.1544  1.0694
  695MOL0     H93822   3.552   5.694   2.085 -0.2678  0.8620  1.9587
  695MOL0     H93823   3.707   5.299   2.046  0.5289  0.5505 -0.6055
  695MOL0     H93824   2.908   5.604   1.971 -2.2358 -0.0866 -0.3818
  695MOL0     H93825   2.688   5.580   1.869 -0.5808 -0.2909 -1.6141
  696MOL0     O93826   0.797  11.013   7.144 -0.2334 -0.0911 -0.1336
  696MOL0     C93827   0.848  11.056   7.250  0.3366  0.5023  0.9015
  696MOL0     O93828   0.969  11.117   7.256  0.4507  0.4905  0.7579
  696MOL0     C93829   1.015  11.160   7.134 -0.2690  0.5025 -0.8261
  696MOL0     C93830   1.135  11.099   7.100 -0.2647  0.6115 -0.6053
  696MOL0     C93831   1.205  11.114   6.979 -0.7081 -0.3202 -0.5370
  696MOL0     C93832   1.145  11.196   6.887  0.2028 -0.8884  0.0807
  696MOL0     O93833   1.210  11.219   6.765  1.2337 -0.6967  0.2247
  696MOL0     C93834   1.207  11.354   6.708  0.3192  1.0179 -0.5454
  696MOL0     C93835   1.343  11.408   6.683 -0.5301 -1.0591 -0.2712
  696MOL0     C93836   1.337  11.538   6.592 -0.1992 -0.2896  0.5489
  696MOL0     C93837   1.476  11.603   6.571 -0.8316 -0.2925 -0.1720
  696MOL0     C93838   1.448  11.731   6.484  0.1170  0.3387 -0.0377
  696MOL0     C93839   1.579  11.773   6.415 -0.2089 -0.4005 -0.0332
  696MOL0     C93840   1.561  11.893   6.319 -0.3634  0.2455 -0.1562
  696MOL0     C93841   1.521  11.849   6.179 -0.1813 -0.2837 -0.3441
  696MOL0     N93842   1.504  11.966   6.095  0.1209  0.7397 -0.1865
  696MOL0     C93843   1.405  12.062   6.084  0.6496  0.2343  0.2007
  696MOL0     C93844   1.458  12.163   6.021 -0.0706 -0.0906  0.2190
  696MOL0     C93845   1.401  12.295   5.990  0.5209 -0.1062  0.0614
  696MOL0     C93846   1.254  12.308   6.036  0.2306  0.5187 -0.1522
  696MOL0     C93847   1.190  12.448   6.024  0.1699 -0.3225  0.9108
  696MOL0     C93848   1.046  12.424   6.077  0.6514 -0.6864 -0.2069
  696MOL0     O93849   0.995  12.557   6.094 -0.0759  0.3576  0.3122
  696MOL0     C93850   0.900  12.609   6.011  0.2786 -0.1978 -0.1101
  696MOL0     C93851   0.887  12.745   6.009 -0.0695  0.4378 -0.0221
  696MOL0     C93852   0.790  12.817   5.944  0.4525  0.6318 -0.0525
  696MOL0     C93853   0.795  12.963   5.957 -0.3602 -0.2711  0.3349
  696MOL0     C93854   0.695  12.746   5.859 -0.2626  0.0772 -0.1820
  696MOL0     C93855   0.592  12.794   5.760  0.5801  0.5176 -0.1962
  696MOL0     O93856   0.533  12.706   5.677 -0.0985  0.2181  0.8985
  696MOL0     C93857   0.444  12.748   5.582  0.0887  0.8247  0.3199
  696MOL0     C93858   0.461  12.717   5.449 -0.0139 -0.0580  0.6828
  696MOL0     C93859   0.362  12.753   5.348 -0.3963  0.5743 -0.0015
  696MOL0     C93860   0.252  12.819   5.394  0.5186 -0.8529  0.1109
  696MOL0     O93861   0.148  12.875   5.315 -0.6056 -0.0455  0.0652
  696MOL0     C93862   0.141  12.843   5.176  0.1742  0.5312 -0.8239
  696MOL0     C93863   0.030  12.922   5.111 -0.0387  0.2065 -0.0637
  696MOL0     C93864   0.072  13.054   5.053  1.1993 -0.2284  0.4020
  696MOL0     C93865   0.086  13.161   5.171  0.3644  0.5205 -0.0457
  696MOL0     C93866   0.105  13.299   5.125 -0.1666 -0.3630  0.5248
  696MOL0     C93867  -0.027  13.345   5.049  0.3996 -0.1697 -0.9457
  696MOL0     C93868  -0.050  13.492   5.064 -0.2557  0.4114 -0.0821
  696MOL0     C93869   0.069  13.577   4.997 -0.6313  0.7517 -0.5831
  696MOL0    Cl93870   0.025  13.753   4.992  0.0849 -0.0495 -0.0305
  696MOL0     C93871   0.238  12.859   5.531  0.4295  0.4860 -0.2242
  696MOL0     C93872   0.338  12.824   5.632 -0.7241  0.6748 -0.9887
  696MOL0     O93873   0.583  12.913   5.760 -0.0582 -0.3440  0.3957
  696MOL0     C93874   0.705  12.600   5.868 -0.2741 -0.4981 -0.1224
  696MOL0     C93875   0.804  12.532   5.941 -0.1948 -0.5911 -0.3471
  696MOL0     N93876   1.596  12.141   5.991  0.6433  1.0202 -1.2141
  696MOL0     N93877   1.618  12.024   6.042  0.1724  0.2215 -0.5600
  696MOL0     C93878   1.019  11.260   6.917  0.5065  0.8188  0.1542
  696MOL0     C93879   0.954  11.226   7.037 -0.7342 -0.4707 -1.0479
  696MOL0     C93880   0.780  11.036   7.379 -0.0335 -0.7688  0.1298
  696MOL0     C93881   0.654  10.972   7.391 -0.2822 -0.4472  0.5220
  696MOL0     C93882   0.584  10.959   7.516  0.4606 -0.4993  0.3711
  696MOL0     C93883   0.640  11.010   7.634 -0.4495  0.1158 -0.8581
  696MOL0     O93884   0.559  10.977   7.739  0.0727 -0.4041 -0.0151
  696MOL0     C93885   0.589  11.042   7.863  0.1338 -1.1429 -0.0022
  696MOL0     C93886   0.569  10.935   7.963 -0.5524  0.0739  0.4889
  696MOL0     C93887   0.689  10.837   7.960 -0.7992  0.0217  0.6891
  696MOL0     C93888   0.662  10.721   8.055 -0.2502  0.6882 -0.6889
  696MOL0     C93889   0.775  10.626   8.071  0.6824  1.1219 -0.5738
  696MOL0     C93890   0.869  10.555   8.086  0.0438 -0.1460 -0.3868
  696MOL0     C93891   0.774  11.063   7.629 -0.6159  0.9245  0.6362
  696MOL0     C93892   0.847  11.073   7.503 -0.4838 -0.7705  0.1868
  696MOL0     H93893   1.183  11.037   7.175 -2.6122  1.6047  1.8763
  696MOL0     H93894   1.298  11.066   6.953 -1.2732 -1.0776 -1.2233
  696MOL0     H93895   1.152  11.342   6.614 -2.4403 -0.5712  1.1397
  696MOL0     H93896   1.149  11.420   6.772  0.2754  0.9015 -0.4656
  696MOL0     H93897   1.395  11.427   6.778  2.1408 -0.5896 -1.7290
  696MOL0     H93898   1.413  11.334   6.641  1.0919  0.4411 -0.3288
  696MOL0     H93899   1.298  11.524   6.491  0.9068 -0.4714  0.1306
  696MOL0     H93900   1.274  11.612   6.642 -0.4638  0.2288 -0.5273
  696MOL0     H93901   1.531  11.614   6.665 -0.1570 -3.6093 -0.0385
  696MOL0     H93902   1.545  11.539   6.515  0.4875  0.2141  0.8154
  696MOL0     H93903   1.363  11.713   6.416 -0.9675  1.2490  1.0426
  696MOL0     H93904   1.398  11.806   6.546  0.3572  2.1259 -1.8941
  696MOL0     H93905   1.652  11.794   6.494  1.5019  0.8045 -1.8404
  696MOL0     H93906   1.622  11.690   6.359 -1.5999 -1.1869  0.0363
  696MOL0     H93907   1.482  11.955   6.362 -0.8857 -0.0721 -0.6439
  696MOL0     H93908   1.649  11.958   6.313 -1.3316  1.5137 -1.7724
  696MOL0     H93909   1.438  11.778   6.192  0.1990 -0.6688  0.0153
  696MOL0     H93910   1.598  11.791   6.127 -1.2873 -0.8888 -1.3722
  696MOL0     H93911   1.309  12.048   6.133  0.4856  0.6319 -0.0026
  696MOL0     H93912   1.460  12.371   6.042  0.1122  0.5592 -0.4245
  696MOL0     H93913   1.421  12.312   5.884  1.6546 -0.9457  0.1253
  696MOL0     H93914   1.252  12.269   6.138 -0.5504 -5.2549 -1.9849
  696MOL0     H93915   1.188  12.238   5.983 -3.1713  1.7467  2.1144
  696MOL0     H93916   1.193  12.474   5.918 -1.4097 -0.1093  0.8937
  696MOL0     H93917   1.238  12.532   6.075 -2.9605  3.2777 -1.5147
  696MOL0     H93918   1.039  12.369   6.171  2.3256  0.2149  0.4870
  696MOL0     H93919   0.995  12.369   5.998 -0.7076 -2.5815  1.8720
  696MOL0     H93920   0.962  12.797   6.068 -0.3299 -0.0419  0.7483
  696MOL0     H93921   0.839  12.994   6.052 -1.2458 -2.2961  1.4672
  696MOL0     H93922   0.872  12.995   5.886  0.8520 -0.0205  1.7262
  696MOL0     H93923   0.709  13.028   5.940  1.3025  2.2252  0.9707
  696MOL0     H93924   0.558  12.678   5.420 -1.5417 -4.0365  0.2903
  696MOL0     H93925   0.365  12.726   5.242 -1.1778  1.2605 -0.2087
  696MOL0     H93926   0.234  12.867   5.124 -0.7436  0.3015 -2.6489
  696MOL0     H93927   0.120  12.739   5.153 -0.5281  0.9590 -2.2508
  696MOL0     H93928  -0.008  12.858   5.030  0.9523 -2.6516  1.5956
  696MOL0     H93929  -0.051  12.934   5.183  1.0402  1.0883  1.0416
  696MOL0     H93930  -0.006  13.092   4.987  2.1748  2.2852  0.5632
  696MOL0     H93931   0.162  13.042   4.992  1.5243  0.7468  0.6620
  696MOL0     H93932  -0.004  13.164   5.233  0.7816 -0.3579  0.6179
  696MOL0     H93933   0.176  13.132   5.226  1.2099  2.6141 -0.2268
  696MOL0     H93934   0.199  13.305   5.068 -1.2270 -3.1371 -1.7639
  696MOL0     H93935   0.129  13.365   5.209  0.5976  0.3087 -0.1946
  696MOL0     H93936  -0.025  13.317   4.943  0.3927 -2.1602 -0.4589
  696MOL0     H93937  -0.111  13.294   5.096 -0.3287  2.7673  1.2055
  696MOL0     H93938  -0.055  13.523   5.169  1.9773 -1.3975  0.6512
  696MOL0     H93939  -0.140  13.515   5.006  1.2125 -1.5159 -3.3867
  696MOL0     H93940   0.091  13.545   4.895  2.0695 -0.9487  0.4423
  696MOL0     H93941   0.147  13.574   5.073  0.4280  1.3202 -1.6204
  696MOL0     H93942   0.161  12.935   5.541 -1.6836 -1.6454  0.6055
  696MOL0     H93943   0.326  12.843   5.739 -0.9899 -0.6481 -0.7573
  696MOL0     H93944   0.638  12.535   5.814 -2.3591  1.4572 -0.0618
  696MOL0     H93945   0.812  12.424   5.944 -1.3195 -0.7437 -1.8028
  696MOL0     H93946   0.960  11.314   6.843 -0.0477 -1.8344 -1.5091
  696MOL0     H93947   0.853  11.257   7.060 -0.5811 -0.0097 -1.0015
  696MOL0     H93948   0.612  10.941   7.296 -2.1508 -1.0512  1.4965
  696MOL0     H93949   0.483  10.920   7.501  1.6603 -2.8628 -2.7291
  696MOL0     H93950   0.687  11.089   7.875 -1.3372  1.7652  1.5256
  696MOL0     H93951   0.521  11.125   7.882  2.0580  1.0132 -1.9310
  696MOL0     H93952   0.475  10.886   7.938 -0.7843  1.4002 -1.4405
  696MOL0     H93953   0.550  10.976   8.063 -0.0687  0.9772  0.2214
  696MOL0     H93954   0.776  10.899   7.986  1.3643 -3.0222  1.2039
  696MOL0     H93955   0.696  10.804   7.856  2.5027  1.4565  0.3263
  696MOL0     H93956   0.581  10.657   8.017 -0.7608  1.0549 -0.2226
  696MOL0     H93957   0.632  10.751   8.155  1.6884 -0.1224  0.1938
  696MOL0     H93958   0.960  10.508   8.120 -1.9449 -2.0006  2.8389
  696MOL0     H93959   0.820  11.093   7.723 -3.1252  1.0949  1.8899
  696MOL0     H93960   0.947  11.114   7.502 -0.9729  0.4473  0.2018
  697MOL0     O93961  11.287   8.630   7.543 -0.2858  0.3263  0.2646
  697MOL0     C93962  11.307   8.511   7.568 -0.5757 -0.9218  0.7410
  697MOL0     O93963  11.221   8.416   7.611  0.8301  0.5075  0.0585
  697MOL0     C93964  11.082   8.419   7.613 -0.0127 -0.8869  0.3828
  697MOL0     C93965  11.002   8.530   7.589 -0.1089 -0.0519 -0.3228
  697MOL0     C93966  10.854   8.526   7.586 -0.5057  0.4388 -0.2114
  697MOL0     C93967  10.784   8.401   7.618  0.1662 -0.2698 -0.2562
  697MOL0     O93968  10.644   8.394   7.622 -1.1275 -0.3265 -0.3360
  697MOL0     C93969  10.571   8.507   7.583  0.5946 -0.3680 -0.2885
  697MOL0     C93970  10.416   8.490   7.610 -1.0368  0.5288  0.0934
  697MOL0     C93971  10.349   8.622   7.567  0.2388  0.2070  0.0921
  697MOL0     C93972  10.196   8.624   7.604  0.7178 -0.0874 -0.9099
  697MOL0     C93973  10.116   8.746   7.547  0.2588  0.2297 -0.1545
  697MOL0     C93974   9.973   8.722   7.536 -0.6420  0.2766 -0.3236
  697MOL0     C93975   9.895   8.840   7.472 -0.7831 -0.3725 -0.3314
  697MOL0     C93976   9.757   8.787   7.425  0.0712  0.8075 -0.4784
  697MOL0     N93977   9.654   8.789   7.531 -0.0197 -0.3914  0.1752
  697MOL0     C93978   9.655   8.715   7.646 -0.4724  0.2581  0.4664
  697MOL0     C93979   9.556   8.766   7.731 -0.9597  0.0245  0.2943
  697MOL0     C93980   9.501   8.703   7.857 -0.5680  0.3555 -1.1541
  697MOL0     C93981   9.491   8.805   7.969  0.0229 -0.1490 -0.4348
  697MOL0     C93982   9.520   8.763   8.119  0.3717  0.8397  1.1225
  697MOL0     C93983   9.667   8.741   8.151 -0.4605  0.1903  0.1796
  697MOL0     O93984   9.755   8.817   8.065  0.0767 -0.0406  0.3831
  697MOL0     C93985   9.892   8.797   8.069 -0.4378 -0.3862 -0.0489
  697MOL0     C93986   9.947   8.737   8.181  0.5787 -1.1871 -0.7266
  697MOL0     C93987  10.083   8.715   8.190  0.4662  0.9740  0.0630
  697MOL0     C93988  10.142   8.658   8.320  0.2335 -0.3377  0.2000
  697MOL0     C93989  10.168   8.742   8.074  0.3710  0.2569 -0.2529
  697MOL0     C93990  10.318   8.735   8.080 -0.3003  0.2260  0.3246
  697MOL0     O93991  10.386   8.734   7.959  0.4069  0.8525  0.1763
  697MOL0     C93992  10.525   8.720   7.968  0.5093  0.2603  0.4165
  697MOL0     C93993  10.588   8.594   7.945  0.4301 -0.2216  0.0193
  697MOL0     C93994  10.717   8.571   7.980 -0.5320 -0.8331 -0.0450
  697MOL0     C93995  10.800   8.681   8.020  0.5587 -0.2200  0.4606
  697MOL0     O93996  10.930   8.652   8.046  0.4425  0.3318  0.1054
  697MOL0     C93997  11.019   8.614   7.931  0.4587  0.3234  0.8285
  697MOL0     C93998  11.153   8.580   7.999 -0.3484  0.8510  0.2037
  697MOL0     C93999  11.273   8.591   7.900 -0.7213 -0.5159  1.0760
  697MOL0     C94000  11.399   8.571   7.976 -0.1068  0.6410 -0.3055
  697MOL0     C94001  11.516   8.621   7.899  0.3009  0.0600 -0.0357
  697MOL0     C94002  11.650   8.556   7.941 -0.9104  0.4909 -0.1199
  697MOL0     C94003  11.766   8.604   7.839 -0.4460 -0.2201 -0.0403
  697MOL0     C94004  11.905   8.598   7.893 -1.6182  0.1450 -0.0405
  697MOL0    Cl94005  11.958   8.445   7.932 -0.1336  0.0817  0.3026
  697MOL0     C94006  10.747   8.806   8.032  0.8447  0.3835  0.6195
  697MOL0     C94007  10.610   8.824   8.010  1.5001 -0.1063  0.9615
  697MOL0     O94008  10.375   8.735   8.190  0.0796 -0.0176  0.0195
  697MOL0     C94009  10.102   8.797   7.957  0.1369 -0.0749 -0.4295
  697MOL0     C94010   9.963   8.821   7.951 -0.5272  1.0622  0.1982
  697MOL0     N94011   9.509   8.881   7.667 -0.5414  1.0030 -0.2020
  697MOL0     N94012   9.560   8.891   7.550  0.2643  0.7435  0.4063
  697MOL0     C94013  10.863   8.292   7.634 -0.2713  0.4704  0.0954
  697MOL0     C94014  11.005   8.301   7.639 -0.6585 -0.5216 -0.3390
  697MOL0     C94015  11.449   8.456   7.550 -0.1799 -0.7674  1.2815
  697MOL0     C94016  11.545   8.529   7.467  0.1768 -0.8191 -0.0884
  697MOL0     C94017  11.675   8.493   7.471 -0.0309 -0.6584  0.7401
  697MOL0     C94018  11.720   8.380   7.534  0.3105  0.8148 -0.5623
  697MOL0     O94019  11.855   8.355   7.530  0.3648 -0.1449 -0.1934
  697MOL0     C94020  11.920   8.248   7.612 -0.1499  0.4091  0.2923
  697MOL0     C94021  12.044   8.205   7.527  0.1052 -0.8252 -0.8418
  697MOL0     C94022  12.126   8.102   7.599 -0.3376  0.6413  0.0948
  697MOL0     C94023  12.246   8.068   7.506  0.5409  0.1016 -0.1475
  697MOL0     C94024  12.365   8.153   7.542  0.7029 -0.2912  1.4226
  697MOL0     C94025  12.453   8.226   7.571 -0.0870 -0.5719 -0.1473
  697MOL0     C94026  11.614   8.296   7.589  0.4791 -0.1956  0.4194
  697MOL0     C94027  11.485   8.334   7.596 -0.0804 -0.0879  1.2318
  697MOL0     H94028  11.039   8.624   7.547 -1.2177  0.4439 -0.2099
  697MOL0     H94029  10.794   8.607   7.547  0.5310  0.4477 -1.8742
  697MOL0     H94030  10.604   8.592   7.643 -1.5784 -2.1033  3.7621
  697MOL0     H94031  10.582   8.521   7.475 -0.7643 -2.2654 -0.7387
  697MOL0     H94032  10.382   8.403   7.554  0.0692 -0.6837  1.2129
  697MOL0     H94033  10.392   8.459   7.712  3.3119 -1.4909  0.7253
  697MOL0     H94034  10.398   8.716   7.596  1.3573  0.2833 -1.8890
  697MOL0     H94035  10.352   8.608   7.459 -0.0435 -0.2049  0.1352
  697MOL0     H94036  10.162   8.530   7.559  0.8157 -0.2522 -0.6456
  697MOL0     H94037  10.181   8.608   7.712 -0.5460 -3.5413 -1.4433
  697MOL0     H94038  10.150   8.826   7.612  3.6964 -1.1492  0.0025
  697MOL0     H94039  10.160   8.782   7.453 -0.9818 -1.8923 -1.6485
  697MOL0     H94040   9.954   8.634   7.474  1.5972 -0.2669 -0.3306
  697MOL0     H94041   9.946   8.715   7.642 -2.3306  0.0552 -0.7384
  697MOL0     H94042   9.885   8.933   7.529 -0.9174 -0.0100 -0.9373
  697MOL0     H94043   9.952   8.871   7.384  1.8201 -0.6518  1.1526
  697MOL0     H94044   9.762   8.685   7.385 -2.1840  0.4918 -0.0678
  697MOL0     H94045   9.721   8.848   7.342  0.3200  0.4698 -0.8414
  697MOL0     H94046   9.716   8.634   7.684  0.8885  1.4827  0.9915
  697MOL0     H94047   9.407   8.655   7.830  0.6490 -1.7925 -1.8324
  697MOL0     H94048   9.569   8.623   7.888  0.6071 -0.2232 -4.7376
  697MOL0     H94049   9.392   8.852   7.964  0.3071  0.3624 -1.6583
  697MOL0     H94050   9.559   8.889   7.955 -1.7677  1.6834  1.1500
  697MOL0     H94051   9.457   8.678   8.146  2.8036 -0.8582  1.7090
  697MOL0     H94052   9.490   8.854   8.172 -3.0672  1.3054 -1.2707
  697MOL0     H94053   9.709   8.640   8.146  0.1236  0.4709 -4.3714
  697MOL0     H94054   9.675   8.769   8.257 -1.1907  2.7564 -0.3762
  697MOL0     H94055   9.880   8.708   8.261 -3.1612 -2.8982 -4.1001
  697MOL0     H94056  10.212   8.578   8.295  2.1488  0.8944  1.3595
  697MOL0     H94057  10.206   8.727   8.376 -1.3261  0.1933  1.4120
  697MOL0     H94058  10.061   8.609   8.375  0.6018  0.0300  1.0879
  697MOL0     H94059  10.532   8.514   7.898 -2.2486  1.7083 -0.3239
  697MOL0     H94060  10.749   8.468   7.977  0.2217 -0.5862 -2.0348
  697MOL0     H94061  10.988   8.530   7.868  1.2041  0.8426 -0.2612
  697MOL0     H94062  11.029   8.698   7.862  1.5242  3.2542  4.2661
  697MOL0     H94063  11.169   8.655   8.078  1.2059  1.3877 -0.5737
  697MOL0     H94064  11.141   8.484   8.050 -1.0564  0.6046 -0.4255
  697MOL0     H94065  11.271   8.686   7.847 -1.4694 -1.0359  0.1525
  697MOL0     H94066  11.265   8.511   7.826  0.2663  0.5532 -0.2508
  697MOL0     H94067  11.403   8.621   8.073 -2.6619 -0.1021  0.2670
  697MOL0     H94068  11.414   8.465   7.997 -1.7104  0.8653  2.4438
  697MOL0     H94069  11.523   8.729   7.915  1.2647  0.2394 -1.4469
  697MOL0     H94070  11.502   8.614   7.790  0.7610  0.4342 -0.1235
  697MOL0     H94071  11.677   8.571   8.046 -2.6903  2.7787  0.1036
  697MOL0     H94072  11.635   8.448   7.927  2.9022 -0.6554  2.8249
  697MOL0     H94073  11.752   8.708   7.808 -0.3632 -0.7100 -1.8172
  697MOL0     H94074  11.766   8.550   7.744  0.9924  1.0065 -0.7838
  697MOL0     H94075  11.908   8.654   7.987  0.2484 -2.9003  1.8836
  697MOL0     H94076  11.975   8.642   7.821 -1.6162  2.0211  1.0442
  697MOL0     H94077  10.802   8.895   8.061 -2.3339  2.3393  1.1447
  697MOL0     H94078  10.569   8.925   8.016 -1.4893 -0.9269 -2.1493
  697MOL0     H94079  10.152   8.821   7.863  1.2925 -2.2319 -0.4240
  697MOL0     H94080   9.928   8.863   7.857  0.4367  1.4853  0.0156
  697MOL0     H94081  10.815   8.196   7.645 -1.2854  0.7920 -1.1910
  697MOL0     H94082  11.060   8.208   7.645  1.4579  0.7297  2.3597
  697MOL0     H94083  11.507   8.615   7.414  0.4811 -0.3493  0.4427
  697MOL0     H94084  11.752   8.552   7.422 -1.5346  0.1553 -0.7719
  697MOL0     H94085  11.940   8.284   7.714 -4.4153 -2.2386  2.3638
  697MOL0     H94086  11.862   8.158   7.633 -2.6651  2.0213  0.6158
  697MOL0     H94087  12.104   8.293   7.502 -2.0255  1.2015  0.7367
  697MOL0     H94088  12.007   8.168   7.431  0.5057 -2.1650 -0.5147
  697MOL0     H94089  12.072   8.008   7.615 -2.1580  1.6872  0.3724
  697MOL0     H94090  12.161   8.141   7.695  0.9432 -0.9651  0.3229
  697MOL0     H94091  12.212   8.074   7.403 -2.5585  3.7484  0.8339
  697MOL0     H94092  12.270   7.962   7.514  1.4826  0.3151 -0.0900
  697MOL0     H94093  12.532   8.293   7.596 -2.1656  0.5929  4.1448
  697MOL0     H94094  11.658   8.206   7.631  4.2114  1.3830  0.3347
  697MOL0     H94095  11.415   8.268   7.647 -0.2764 -0.3519  0.6228
  698MOL0     O94096  10.852   9.460   5.592 -0.7373  0.7532 -1.2210
  698MOL0     C94097  10.859   9.559   5.526  0.3206 -1.0559  0.4199
  698MOL0     O94098  10.750   9.621   5.486 -0.3405 -0.6764  0.2681
  698MOL0     C94099  10.627   9.597   5.545  0.0617  0.1136  0.3917
  698MOL0     C94100  10.596   9.606   5.683  0.2398 -0.0704  0.0575
  698MOL0     C94101  10.467   9.566   5.724  0.1426 -0.0738  0.0311
  698MOL0     C94102  10.357   9.531   5.628  0.4176 -0.9435  0.1098
  698MOL0     O94103  10.224   9.501   5.666 -0.0818 -0.4290 -0.4158
  698MOL0     C94104  10.167   9.607   5.739 -0.4106  0.3270 -0.1102
  698MOL0     C94105  10.030   9.567   5.766  0.8290 -0.1644 -0.4804
  698MOL0     C94106   9.944   9.553   5.634  0.3588  0.9873 -0.1891
  698MOL0     C94107   9.799   9.502   5.680 -0.5934  0.2195  0.2454
  698MOL0     C94108   9.690   9.553   5.585 -0.0929 -0.8131 -0.0269
  698MOL0     C94109   9.550   9.543   5.640  0.3319 -0.6010 -0.0615
  698MOL0     C94110   9.514   9.410   5.697  0.9753 -0.1227  0.2157
  698MOL0     C94111   9.361   9.412   5.723  0.0283 -0.0009  0.3788
  698MOL0     N94112   9.279   9.393   5.599  0.0156 -0.9705  0.0097
  698MOL0     C94113   9.311   9.350   5.475 -0.2190 -0.9522  0.7478
  698MOL0     C94114   9.194   9.347   5.415  0.3225 -0.1131  1.3362
  698MOL0     C94115   9.170   9.328   5.266  0.2683 -0.2575  0.0248
  698MOL0     C94116   9.018   9.324   5.231 -1.0751 -0.8894 -0.3400
  698MOL0     C94117   8.995   9.314   5.077  1.3381  0.4570 -0.2700
  698MOL0     C94118   8.846   9.282   5.047  0.0898  0.2585 -0.6917
  698MOL0     O94119   8.814   9.304   4.908  0.5198  0.2389  0.3089
  698MOL0     C94120   8.684   9.275   4.853  0.3060  0.0657 -0.0158
  698MOL0     C94121   8.591   9.212   4.931  0.5152  0.0852  0.7031
  698MOL0     C94122   8.459   9.215   4.882  0.2700 -0.0355 -0.0282
  698MOL0     C94123   8.355   9.127   4.957 -0.4954  0.4508 -0.0029
  698MOL0     C94124   8.423   9.278   4.763 -0.0054  0.3222  0.2683
  698MOL0     C94125   8.283   9.282   4.723 -0.0317 -0.5068  0.1361
  698MOL0     O94126   8.187   9.302   4.817 -0.4330  0.0395  0.6550
  698MOL0     C94127   8.059   9.279   4.785  1.0100 -0.1026  0.0384
  698MOL0     C94128   7.992   9.353   4.689  0.1960 -0.0220 -0.4764
  698MOL0     C94129   7.862   9.310   4.645 -0.9180 -0.5864 -0.1217
  698MOL0     C94130   7.794   9.214   4.710 -0.0440 -0.5177  0.2439
  698MOL0     O94131   7.661   9.189   4.694  0.7051  0.3506  0.1030
  698MOL0     C94132   7.588   9.241   4.586  0.4906 -1.0539  0.1867
  698MOL0     C94133   7.529   9.371   4.627 -0.1845  0.4469 -0.0931
  698MOL0     C94134   7.437   9.415   4.505 -0.4017 -0.1360  1.1568
  698MOL0     C94135   7.368   9.548   4.520 -0.4280 -0.0025 -0.7301
  698MOL0     C94136   7.453   9.671   4.576 -0.1918 -0.0307  0.0560
  698MOL0     C94137   7.573   9.693   4.483  0.0385  0.4167  0.2009
  698MOL0     C94138   7.656   9.814   4.541  0.1264  0.2064 -0.2154
  698MOL0     C94139   7.799   9.764   4.548  0.3808 -0.3709 -0.7421
  698MOL0    Cl94140   7.805   9.655   4.695  0.1372 -0.2288  0.0056
  698MOL0     C94141   7.854   9.142   4.817  0.4982 -0.2654  0.1461
  698MOL0     C94142   7.987   9.172   4.852 -0.7981 -0.1639 -0.1361
  698MOL0     O94143   8.261   9.274   4.599 -0.0046 -1.0179 -0.9842
  698MOL0     C94144   8.521   9.337   4.677 -0.3311 -0.7159 -0.0550
  698MOL0     C94145   8.654   9.335   4.725  0.9253 -1.0325  0.0335
  698MOL0     N94146   9.090   9.376   5.502  0.0661  0.6109  0.4661
  698MOL0     N94147   9.144   9.393   5.614  0.4014 -0.3879 -0.5181
  698MOL0     C94148  10.394   9.511   5.487 -0.2530  0.7583 -0.4201
  698MOL0     C94149  10.524   9.547   5.453 -0.9433  0.2912  0.4706
  698MOL0     C94150  10.985   9.608   5.477 -0.4004 -0.0934 -0.0325
  698MOL0     C94151  11.084   9.515   5.428  0.3066 -0.2243 -0.9781
  698MOL0     C94152  11.207   9.552   5.372 -0.5282 -0.4182  0.9575
  698MOL0     C94153  11.237   9.694   5.366 -0.0469 -0.5944 -0.5412
  698MOL0     O94154  11.354   9.736   5.309 -0.4546  0.2072 -0.0383
  698MOL0     C94155  11.412   9.862   5.334  0.6796  0.6327 -0.8199
  698MOL0     C94156  11.549   9.877   5.265  0.0344 -0.1946  0.2655
  698MOL0     C94157  11.663   9.798   5.338  0.1579  0.9742  1.6521
  698MOL0     C94158  11.790   9.806   5.250  0.4759  0.1215 -0.1417
  698MOL0     C94159  11.853   9.933   5.221  0.9287  0.0373 -1.3958
  698MOL0     C94160  11.920  10.028   5.181  0.5071  0.0462 -0.3595
  698MOL0     C94161  11.146   9.786   5.414  0.6263  0.0623  0.2256
  698MOL0     C94162  11.020   9.738   5.457  0.0160 -0.1341  0.9254
  698MOL0     H94163  10.676   9.630   5.751  0.7082 -1.5871  0.0741
  698MOL0     H94164  10.453   9.570   5.831 -0.6049  0.7854 -0.0820
  698MOL0     H94165  10.220   9.624   5.834  1.0663  0.0070 -0.8401
  698MOL0     H94166  10.162   9.701   5.684 -3.3476  0.2443 -0.1252
  698MOL0     H94167  10.029   9.481   5.834 -0.8263  0.7201  0.6884
  698MOL0     H94168   9.981   9.643   5.828  1.0490  1.1682 -1.8749
  698MOL0     H94169   9.958   9.656   5.600 -1.4607  2.8069  3.9729
  698MOL0     H94170   9.976   9.474   5.565 -0.3380 -1.1598  1.8186
  698MOL0     H94171   9.800   9.392   5.677 -0.5002  0.2247  0.0967
  698MOL0     H94172   9.787   9.543   5.781  0.2184  2.0569 -0.3613
  698MOL0     H94173   9.717   9.655   5.557  1.0518 -1.6131 -2.0543
  698MOL0     H94174   9.700   9.492   5.494  0.8081 -0.9126  0.1298
  698MOL0     H94175   9.536   9.612   5.724 -2.6048  0.7532 -1.4921
  698MOL0     H94176   9.482   9.570   5.558 -1.3868  1.1725  1.8293
  698MOL0     H94177   9.539   9.326   5.632 -2.8969 -1.1239 -0.2267
  698MOL0     H94178   9.568   9.385   5.789  0.6452 -0.5334  0.3032
  698MOL0     H94179   9.334   9.504   5.776  0.4842 -0.0225  0.6539
  698MOL0     H94180   9.339   9.329   5.790 -1.8805  2.3606  2.9396
  698MOL0     H94181   9.408   9.341   5.427 -1.2807 -1.4068 -1.4132
  698MOL0     H94182   9.224   9.394   5.198 -1.1962 -0.1098 -1.0425
  698MOL0     H94183   9.204   9.227   5.239 -2.1024 -0.7952 -1.2006
  698MOL0     H94184   8.969   9.417   5.263  0.7147  0.2732 -0.8067
  698MOL0     H94185   8.977   9.236   5.280  2.7616 -2.7424 -0.0453
  698MOL0     H94186   9.073   9.254   5.029 -2.7372 -3.4153 -2.7938
  698MOL0     H94187   9.006   9.417   5.041 -1.1821  0.4201 -1.3559
  698MOL0     H94188   8.781   9.331   5.119  2.0623 -0.3920  1.6856
  698MOL0     H94189   8.823   9.178   5.071  1.1267  0.3382  0.7910
  698MOL0     H94190   8.621   9.156   5.019  2.6476  1.6574  1.0555
  698MOL0     H94191   8.300   9.061   4.890  0.4826  0.0289 -0.4138
  698MOL0     H94192   8.401   9.054   5.026  0.0432  0.1531 -0.6645
  698MOL0     H94193   8.293   9.200   5.009  0.4080 -0.4920  2.6082
  698MOL0     H94194   8.042   9.435   4.640 -0.4031 -1.5641 -4.0079
  698MOL0     H94195   7.824   9.364   4.559 -1.4989  3.7292  2.5469
  698MOL0     H94196   7.643   9.237   4.491 -0.3692 -2.0541 -0.2907
  698MOL0     H94197   7.503   9.173   4.580 -2.6262  2.3761  1.3607
  698MOL0     H94198   7.468   9.357   4.717 -0.0597 -2.7464 -0.3875
  698MOL0     H94199   7.610   9.443   4.644  1.2781 -1.0820 -0.3510
  698MOL0     H94200   7.366   9.335   4.484 -0.4552 -0.2988  1.9041
  698MOL0     H94201   7.500   9.425   4.417 -1.9640  0.7160  0.0909
  698MOL0     H94202   7.311   9.581   4.432 -0.4668 -0.5301 -0.9036
  698MOL0     H94203   7.290   9.529   4.594 -0.3429  0.9095 -0.3894
  698MOL0     H94204   7.486   9.638   4.675 -2.4449  2.0756  1.6113
  698MOL0     H94205   7.394   9.763   4.584  1.2130  1.1748 -2.2192
  698MOL0     H94206   7.632   9.603   4.465 -1.8399 -0.5107 -1.8701
  698MOL0     H94207   7.543   9.703   4.378 -1.2589 -1.0039  0.3943
  698MOL0     H94208   7.612   9.850   4.634  0.1732  2.3497 -0.9770
  698MOL0     H94209   7.656   9.902   4.476  0.0291 -0.4617 -1.1399
  698MOL0     H94210   7.864   9.849   4.571 -0.6513 -0.3377  2.7021
  698MOL0     H94211   7.823   9.715   4.454  2.9487 -0.9905  0.1673
  698MOL0     H94212   7.798   9.069   4.875 -2.3093  1.4305 -0.2955
  698MOL0     H94213   8.033   9.113   4.930  0.2724  0.7478 -0.0471
  698MOL0     H94214   8.492   9.401   4.594  0.7460 -1.1304 -0.7727
  698MOL0     H94215   8.740   9.380   4.675  0.3666 -0.7706 -0.6978
  698MOL0     H94216  10.325   9.477   5.411  1.2262 -0.7251 -1.1500
  698MOL0     H94217  10.539   9.536   5.346  1.1871  2.7334  0.4224
  698MOL0     H94218  11.062   9.409   5.442 -2.7675  0.4248 -0.1927
  698MOL0     H94219  11.277   9.475   5.342 -0.5393 -1.0483  2.4444
  698MOL0     H94220  11.344   9.938   5.295  1.7396  2.3917  0.6466
  698MOL0     H94221  11.423   9.876   5.442  3.0012 -0.8046 -0.8003
  698MOL0     H94222  11.579   9.982   5.257  1.4957 -0.7207 -3.2499
  698MOL0     H94223  11.553   9.849   5.159 -0.7016  0.4815  0.0413
  698MOL0     H94224  11.621   9.699   5.357 -1.9940  1.6724  0.8739
  698MOL0     H94225  11.681   9.845   5.435  3.5932  1.5188  0.8750
  698MOL0     H94226  11.768   9.754   5.157 -3.2673  0.1966  0.5588
  698MOL0     H94227  11.864   9.751   5.309 -0.2921 -0.7030  0.0753
  698MOL0     H94228  11.975  10.104   5.129  0.8569 -1.6963 -2.6921
  698MOL0     H94229  11.164   9.893   5.417  2.4716 -0.2163  2.6193
  698MOL0     H94230  10.952   9.820   5.472  0.3601  0.8336 -2.1157
  699MOL0     O94231   8.204   3.725   6.609  0.3619  0.1346 -0.4933
  699MOL0     C94232   8.252   3.744   6.502 -0.2111  0.8262 -0.5336
  699MOL0     O94233   8.385   3.781   6.476  0.0834 -0.1031  0.4875
  699MOL0     C94234   8.462   3.831   6.585 -0.5318  0.1006 -0.2711
  699MOL0     C94235   8.409   3.903   6.699 -0.0739 -0.6091  1.0169
  699MOL0     C94236   8.502   3.943   6.796 -0.3741 -0.1599 -0.1079
  699MOL0     C94237   8.636   3.908   6.788 -0.1996  0.3788 -2.0962
  699MOL0     O94238   8.723   3.960   6.887 -0.2925  0.3372 -0.0183
  699MOL0     C94239   8.863   3.925   6.858 -0.6393 -0.7983  0.3020
  699MOL0     C94240   8.948   3.986   6.968  0.2335  0.9859  0.7066
  699MOL0     C94241   8.961   4.136   6.955 -0.8882  0.5700  0.8707
  699MOL0     C94242   9.093   4.179   7.019 -0.1252  0.2676 -0.4715
  699MOL0     C94243   9.097   4.332   6.993 -0.7374 -0.1974  0.7538
  699MOL0     C94244   9.225   4.398   7.046  0.2316 -0.1303 -0.4022
  699MOL0     C94245   9.221   4.551   7.029  0.2478 -0.5484  0.2122
  699MOL0     C94246   9.343   4.629   7.080  0.7502 -0.0491  0.6084
  699MOL0     N94247   9.457   4.592   6.994 -0.0806  0.1174  0.2094
  699MOL0     C94248   9.480   4.648   6.865 -0.6135 -1.0106 -0.0252
  699MOL0     C94249   9.587   4.580   6.821 -0.0279  0.5252  0.3649
  699MOL0     C94250   9.644   4.586   6.683 -0.3305 -0.6832 -0.1724
  699MOL0     C94251   9.543   4.533   6.579  0.2853 -1.1264  1.2513
  699MOL0     C94252   9.544   4.377   6.571  0.4044  0.3523  0.5073
  699MOL0     C94253   9.661   4.317   6.496 -0.4623  0.8946  0.3887
  699MOL0     O94254   9.680   4.384   6.371 -0.0090  0.2996 -0.8026
  699MOL0     C94255   9.783   4.341   6.296 -0.2332  0.7855 -0.5748
  699MOL0     C94256   9.886   4.247   6.336  0.8012 -0.0619  1.0555
  699MOL0     C94257   9.994   4.209   6.248 -0.0334 -0.1310 -0.3529
  699MOL0     C94258  10.098   4.101   6.303  0.5820  0.0701  0.2768
  699MOL0     C94259  10.007   4.270   6.123 -0.0372  0.4697 -0.0049
  699MOL0     C94260  10.118   4.245   6.021  0.4237 -0.0097 -0.5629
  699MOL0     O94261  10.126   4.318   5.909  0.3173 -0.7848 -0.7785
  699MOL0     C94262  10.238   4.292   5.829 -0.0740  0.1285  0.0926
  699MOL0     C94263  10.226   4.198   5.723 -0.8512 -0.6031 -0.7715
  699MOL0     C94264  10.338   4.172   5.644  0.3446 -0.0892 -0.2638
  699MOL0     C94265  10.459   4.229   5.674  0.5034  0.1703 -0.4989
  699MOL0     O94266  10.562   4.183   5.602 -0.4147 -0.1607 -0.3173
  699MOL0     C94267  10.695   4.203   5.642 -0.6738  1.0430  0.1399
  699MOL0     C94268  10.792   4.125   5.543  0.4611 -0.4098  0.4932
  699MOL0     C94269  10.784   3.967   5.561 -0.0722 -1.0221 -0.0823
  699MOL0     C94270  10.644   3.898   5.536 -0.1350 -0.7017  0.6586
  699MOL0     C94271  10.657   3.752   5.515  0.3564  0.1464  0.2562
  699MOL0     C94272  10.514   3.688   5.480  0.1985  0.5849  0.2013
  699MOL0     C94273  10.518   3.532   5.445  0.2851  0.9227 -0.5254
  699MOL0     C94274  10.395   3.488   5.370  1.5468 -0.1587  0.0641
  699MOL0    Cl94275  10.247   3.494   5.485  0.0074  0.7061  0.0153
  699MOL0     C94276  10.472   4.320   5.778  0.3904 -0.2141 -0.5702
  699MOL0     C94277  10.359   4.351   5.853  0.3539  0.3084 -0.4968
  699MOL0     O94278  10.202   4.163   6.057 -0.0446 -0.8145 -0.3047
  699MOL0     C94279   9.908   4.360   6.083 -0.2173  0.3436  0.4424
  699MOL0     C94280   9.796   4.388   6.165 -0.2086 -0.4333  0.0555
  699MOL0     N94281   9.616   4.478   6.907 -0.3510  0.0744 -0.8186
  699MOL0     N94282   9.540   4.484   7.015 -0.4882  0.4157 -0.3302
  699MOL0     C94283   8.681   3.827   6.685  0.7307  0.5299  0.4091
  699MOL0     C94284   8.594   3.786   6.582 -0.3932 -0.1569 -0.5168
  699MOL0     C94285   8.170   3.731   6.382  0.1431  0.2744 -0.8114
  699MOL0     C94286   8.216   3.777   6.259 -0.0239 -0.5328  0.3851
  699MOL0     C94287   8.137   3.774   6.146  0.6451 -0.3574  0.3985
  699MOL0     C94288   8.013   3.717   6.148 -0.3337 -0.0753  0.3121
  699MOL0     O94289   7.937   3.733   6.029 -0.4670  0.0653  0.0312
  699MOL0     C94290   7.805   3.697   6.029 -0.9528  0.3516  1.0699
  699MOL0     C94291   7.728   3.811   6.094 -0.2526  0.2714  1.1536
  699MOL0     C94292   7.577   3.779   6.124 -0.2858 -0.2399 -0.2277
  699MOL0     C94293   7.525   3.826   6.253  0.6875  0.6024  0.0905
  699MOL0     C94294   7.394   3.769   6.278 -0.4943 -0.6214  0.6261
  699MOL0     C94295   7.287   3.722   6.292 -0.1863 -0.6289  0.7455
  699MOL0     C94296   7.960   3.674   6.275 -0.1418  0.6815 -0.4140
  699MOL0     C94297   8.038   3.683   6.392 -0.1190  0.2430 -0.7922
  699MOL0     H94298   8.306   3.934   6.701  0.1771  0.7381 -1.6929
  699MOL0     H94299   8.478   4.007   6.881  0.0590 -1.3560  0.9432
  699MOL0     H94300   8.890   3.819   6.872  1.6426 -0.7612 -2.7608
  699MOL0     H94301   8.909   3.963   6.766 -0.8545  1.3301  1.0190
  699MOL0     H94302   8.909   3.967   7.069 -2.6843 -0.4616 -0.5721
  699MOL0     H94303   9.038   3.925   6.964 -1.4949 -1.7346  0.5031
  699MOL0     H94304   8.955   4.166   6.850 -0.6278  0.6753  0.8859
  699MOL0     H94305   8.875   4.179   7.007  1.0301  2.9848  2.3035
  699MOL0     H94306   9.097   4.148   7.124 -1.4126  0.9688 -0.1948
  699MOL0     H94307   9.179   4.131   6.970 -2.5730 -4.4850 -0.7689
  699MOL0     H94308   9.080   4.374   6.894 -1.0788  0.9813  1.3003
  699MOL0     H94309   9.014   4.367   7.055 -1.7393  0.9495 -1.1540
  699MOL0     H94310   9.234   4.372   7.152  2.9554  1.2451 -0.2206
  699MOL0     H94311   9.320   4.364   7.004  0.4280 -0.4506  0.2771
  699MOL0     H94312   9.216   4.566   6.920 -1.3799  2.3639  0.5956
  699MOL0     H94313   9.132   4.598   7.071  0.5214  0.1001  0.0812
  699MOL0     H94314   9.367   4.598   7.183  0.2287  0.3420  0.8536
  699MOL0     H94315   9.316   4.735   7.081  0.1989 -0.1408 -1.1244
  699MOL0     H94316   9.411   4.720   6.820  1.6366  1.3113 -0.0262
  699MOL0     H94317   9.660   4.690   6.654  1.8764 -0.8204  0.3390
  699MOL0     H94318   9.741   4.537   6.673 -0.1146  0.0826 -2.3026
  699MOL0     H94319   9.558   4.577   6.480 -4.1777 -0.7940  0.5158
  699MOL0     H94320   9.442   4.565   6.606 -0.2676  1.7801 -3.3005
  699MOL0     H94321   9.454   4.342   6.521  0.2750 -0.5500  1.3461
  699MOL0     H94322   9.534   4.337   6.673  1.6082  2.3503  1.4858
  699MOL0     H94323   9.630   4.215   6.471  0.6145  0.7493 -0.4186
  699MOL0     H94324   9.750   4.321   6.560 -1.1985  3.8785  1.3773
  699MOL0     H94325   9.879   4.204   6.435 -1.0346 -0.3391  0.8398
  699MOL0     H94326  10.053   4.046   6.386  2.2827 -3.1099 -0.7221
  699MOL0     H94327  10.126   4.024   6.230 -1.9994  0.1065 -0.8868
  699MOL0     H94328  10.180   4.164   6.336  0.7129  0.9095 -1.5270
  699MOL0     H94329  10.134   4.143   5.706 -3.8430  3.3505  1.2125
  699MOL0     H94330  10.337   4.106   5.558 -1.3584 -0.7666  0.2325
  699MOL0     H94331  10.732   4.306   5.635  2.1089 -0.0015 -1.9183
  699MOL0     H94332  10.713   4.171   5.745  2.8921  0.7980 -0.4525
  699MOL0     H94333  10.768   4.155   5.440 -0.4172 -0.7493  0.5907
  699MOL0     H94334  10.898   4.151   5.553  0.6625 -1.3843  0.9992
  699MOL0     H94335  10.800   3.943   5.666  1.1758 -2.6577 -0.5982
  699MOL0     H94336  10.865   3.914   5.510  1.4775 -2.7479  3.7718
  699MOL0     H94337  10.566   3.915   5.611 -1.4789 -1.1111 -0.6175
  699MOL0     H94338  10.595   3.935   5.445 -3.6121 -2.1365  1.7872
  699MOL0     H94339  10.691   3.699   5.605 -1.2035 -1.3689  0.0141
  699MOL0     H94340  10.726   3.725   5.434  1.3870 -1.3884  1.5703
  699MOL0     H94341  10.444   3.716   5.559  1.4088 -2.2608  2.4917
  699MOL0     H94342  10.473   3.729   5.387  0.1467 -1.1967 -0.6142
  699MOL0     H94343  10.534   3.474   5.537  0.6739 -0.5905 -1.5240
  699MOL0     H94344  10.607   3.506   5.387 -0.6974 -2.2351 -0.8201
  699MOL0     H94345  10.418   3.389   5.328  1.6166 -0.8099  1.5597
  699MOL0     H94346  10.382   3.561   5.290  1.7748 -0.4071 -0.2023
  699MOL0     H94347  10.555   4.375   5.820 -0.3762 -1.4231  2.8369
  699MOL0     H94348  10.360   4.421   5.936 -0.7831  0.3947 -0.5334
  699MOL0     H94349   9.904   4.407   5.986  2.3217  0.0688  0.1478
  699MOL0     H94350   9.725   4.455   6.116  0.0064  0.3136  0.7472
  699MOL0     H94351   8.781   3.789   6.664  1.1560  2.6249 -1.7204
  699MOL0     H94352   8.624   3.735   6.491  1.0210 -0.2210 -0.0489
  699MOL0     H94353   8.315   3.817   6.239 -0.4997  0.0312 -0.9364
  699MOL0     H94354   8.183   3.790   6.049  1.8459 -2.3053  0.5853
  699MOL0     H94355   7.779   3.665   5.927  0.9873 -4.2420  1.7780
  699MOL0     H94356   7.790   3.605   6.085 -0.6344 -0.8033 -0.6567
  699MOL0     H94357   7.723   3.907   6.041  0.5838 -0.5692 -0.5399
  699MOL0     H94358   7.781   3.841   6.185  1.5122  0.0929  0.2404
  699MOL0     H94359   7.568   3.670   6.125  0.6557 -0.3273  0.8933
  699MOL0     H94360   7.523   3.811   6.034  0.6782  0.1984 -0.6705
  699MOL0     H94361   7.511   3.934   6.255  0.9489  0.7402 -2.5972
  699MOL0     H94362   7.604   3.795   6.323  2.9056  2.0093 -1.6465
  699MOL0     H94363   7.185   3.689   6.305 -1.6224  3.1573  0.3421
  699MOL0     H94364   7.855   3.649   6.282  0.2572 -0.5272  3.0404
  699MOL0     H94365   7.995   3.655   6.487 -1.2221 -0.7920 -1.5642
  700MOL0     O94366   4.814   4.310   9.936  0.3086  0.0700 -0.6005
  700MOL0     C94367   4.878   4.416   9.935 -0.5844  0.4394 -0.0786
  700MOL0     O94368   4.845   4.529   9.871 -1.2670 -0.0067 -0.5847
  700MOL0     C94369   4.712   4.536   9.824  0.0554 -0.2582 -0.7371
  700MOL0     C94370   4.598   4.552   9.903 -0.1842 -0.0869  0.7128
  700MOL0     C94371   4.468   4.571   9.841 -0.1289  0.1997 -0.6245
  700MOL0     C94372   4.447   4.578   9.704 -0.0229  0.0662 -0.0773
  700MOL0     O94373   4.321   4.598   9.650  0.3088 -0.4576  0.3345
  700MOL0     C94374   4.319   4.683   9.534  0.2912  0.4071  0.1975
  700MOL0     C94375   4.171   4.728   9.510  0.2192  0.3001 -1.4629
  700MOL0     C94376   4.088   4.615   9.449 -0.4260 -0.2575  0.1402
  700MOL0     C94377   3.950   4.671   9.412 -0.7594  0.3010  0.1359
  700MOL0     C94378   3.890   4.601   9.294  0.1702  0.2947  1.1033
  700MOL0     C94379   3.739   4.622   9.286  0.4232 -0.6450 -0.2312
  700MOL0     C94380   3.665   4.513   9.207  0.2768  0.0313  1.0113
  700MOL0     C94381   3.626   4.383   9.289 -0.2806 -0.3589  0.8014
  700MOL0     N94382   3.537   4.312   9.196  0.1552  0.4946  0.4271
  700MOL0     C94383   3.420   4.357   9.133 -0.2208  0.0207 -0.6693
  700MOL0     C94384   3.392   4.265   9.040 -0.2117 -0.2581  0.6613
  700MOL0     C94385   3.271   4.240   8.952  0.9033 -0.1032  0.1587
  700MOL0     C94386   3.136   4.269   9.028 -0.8148 -1.0048  0.1938
  700MOL0     C94387   3.021   4.184   8.960  0.7486 -0.9550 -0.1355
  700MOL0     C94388   2.879   4.257   8.967 -0.5224 -0.2864  0.4236
  700MOL0     O94389   2.841   4.283   9.099 -1.0485  0.3599 -0.2055
  700MOL0     C94390   2.730   4.351   9.142  0.1560  0.3956  0.1726
  700MOL0     C94391   2.645   4.420   9.052  0.2619  0.1801 -0.0729
  700MOL0     C94392   2.531   4.492   9.105 -0.0893 -0.1313  0.5777
  700MOL0     C94393   2.461   4.574   9.000 -0.1795 -0.1620  0.0902
  700MOL0     C94394   2.503   4.497   9.242  0.0720  0.4983 -0.1031
  700MOL0     C94395   2.379   4.561   9.299  0.0156 -0.5657 -0.7395
  700MOL0     O94396   2.290   4.614   9.216 -0.4348  1.0166 -0.4083
  700MOL0     C94397   2.177   4.675   9.247  0.0595  0.1762  0.1200
  700MOL0     C94398   2.134   4.769   9.156 -0.9168  0.4304 -0.3459
  700MOL0     C94399   2.018   4.828   9.193 -0.5640 -0.0459  1.0808
  700MOL0     C94400   1.941   4.789   9.308 -0.2939 -0.0789  0.0730
  700MOL0     O94401   1.819   4.837   9.341 -0.1099  0.0739  0.7432
  700MOL0     C94402   1.741   4.888   9.233 -0.3454 -0.0791 -0.6719
  700MOL0     C94403   1.593   4.908   9.271 -0.6079  0.4394  0.5146
  700MOL0     C94404   1.522   5.021   9.193 -0.6636 -0.3500  0.6740
  700MOL0     C94405   1.359   5.033   9.230 -0.8353 -0.1940  0.0840
  700MOL0     C94406   1.314   5.165   9.157  0.0556 -0.2930  0.2344
  700MOL0     C94407   1.163   5.174   9.170 -0.7571 -0.2164  0.8133
  700MOL0     C94408   1.104   5.286   9.073 -0.6905  0.5304  0.3668
  700MOL0     C94409   0.954   5.303   9.078 -0.0622  0.0632  0.8225
  700MOL0    Cl94410   0.876   5.147   9.042 -0.5581  0.1505  0.5039
  700MOL0     C94411   1.988   4.688   9.386 -0.0040  0.9575  0.0149
  700MOL0     C94412   2.108   4.635   9.359  0.4279  0.2723 -0.0383
  700MOL0     O94413   2.380   4.574   9.422  0.0027  0.2833 -0.3789
  700MOL0     C94414   2.583   4.425   9.323 -0.3104  1.3348 -1.2918
  700MOL0     C94415   2.701   4.357   9.279  0.1170  0.5011  1.0836
  700MOL0     N94416   3.487   4.158   9.050 -0.4542  0.8960 -0.8556
  700MOL0     N94417   3.573   4.188   9.132  0.0074 -0.1074  0.2938
  700MOL0     C94418   4.561   4.583   9.632  0.2939  0.6107  0.3147
  700MOL0     C94419   4.690   4.560   9.689  0.7056 -0.3076 -0.6465
  700MOL0     C94420   5.022   4.406  10.006  1.0178  0.2826  0.4313
  700MOL0     C94421   5.108   4.509  10.000 -0.9972  0.1478 -0.0691
  700MOL0     C94422   5.238   4.501  10.050 -1.0343 -0.6046 -0.0873
  700MOL0     C94423   5.278   4.381  10.109  0.2205  0.1649 -1.1509
  700MOL0     O94424   5.402   4.371  10.161 -0.4231 -0.0709 -0.6621
  700MOL0     C94425   5.515   4.443  10.107 -0.1954  0.5502  0.6948
  700MOL0     C94426   5.649   4.367  10.146 -0.1256  0.0741  0.8471
  700MOL0     C94427   5.655   4.238  10.059 -0.9687  0.8672  0.3255
  700MOL0     C94428   5.791   4.173  10.080 -0.3811  0.0659 -0.0870
  700MOL0     C94429   5.898   4.257  10.046 -0.2135  0.1455  0.2292
  700MOL0     C94430   5.987   4.330  10.022  0.4699 -0.8148  0.0448
  700MOL0     C94431   5.184   4.276  10.122  0.0904 -0.3192 -0.1257
  700MOL0     C94432   5.048   4.292  10.072 -0.3227 -0.0241 -0.3928
  700MOL0     H94433   4.618   4.552  10.009  1.6062 -1.1981  0.4151
  700MOL0     H94434   4.382   4.576   9.908 -1.7982 -1.5318 -2.4878
  700MOL0     H94435   4.386   4.768   9.548  2.7562 -1.7370  2.6207
  700MOL0     H94436   4.349   4.626   9.446  0.6052 -0.5735  0.9178
  700MOL0     H94437   4.122   4.749   9.605  1.9083  1.2432 -0.7615
  700MOL0     H94438   4.163   4.821   9.453 -3.6960  1.6795  0.9099
  700MOL0     H94439   4.141   4.586   9.358  0.6198  1.6966  0.0761
  700MOL0     H94440   4.072   4.526   9.510 -3.6817  0.5247  0.6440
  700MOL0     H94441   3.892   4.656   9.503 -0.4036  1.3392  0.5502
  700MOL0     H94442   3.951   4.775   9.380  1.6270  0.6713  1.1931
  700MOL0     H94443   3.931   4.650   9.205 -1.7658  3.2077  1.6712
  700MOL0     H94444   3.912   4.495   9.286  2.1273  0.6375  1.4696
  700MOL0     H94445   3.690   4.619   9.384  1.3156 -5.0200  0.2861
  700MOL0     H94446   3.705   4.714   9.237 -2.4319 -1.7150 -0.4814
  700MOL0     H94447   3.567   4.553   9.178  2.5623  3.4881 -3.0726
  700MOL0     H94448   3.720   4.478   9.119 -1.5939  1.4876 -0.8412
  700MOL0     H94449   3.576   4.410   9.383  2.7126 -1.8048  2.9522
  700MOL0     H94450   3.713   4.320   9.307 -0.8866 -1.4497  0.0738
  700MOL0     H94451   3.362   4.446   9.155  0.0014 -0.0612  0.3214
  700MOL0     H94452   3.271   4.293   8.857 -0.4556 -0.4637 -0.0658
  700MOL0     H94453   3.278   4.135   8.922 -2.9979 -1.2517  2.4515
  700MOL0     H94454   3.119   4.377   9.018  0.9368 -0.4025  2.6809
  700MOL0     H94455   3.143   4.235   9.132 -0.1830  4.1356  2.1419
  700MOL0     H94456   3.020   4.091   9.018 -1.9912  0.5403  2.5180
  700MOL0     H94457   3.052   4.160   8.858  0.3710 -3.2677  0.2351
  700MOL0     H94458   2.800   4.206   8.910 -1.9167  1.1119  1.0247
  700MOL0     H94459   2.886   4.357   8.925  2.4682 -0.8440 -0.6331
  700MOL0     H94460   2.662   4.421   8.945 -4.1726 -1.7019 -1.0164
  700MOL0     H94461   2.366   4.528   8.971 -0.9588  2.0535 -1.1459
  700MOL0     H94462   2.455   4.675   9.039  0.8167  0.3782 -1.0759
  700MOL0     H94463   2.524   4.587   8.911  1.5783 -1.0220  1.1575
  700MOL0     H94464   2.199   4.797   9.074  0.3861 -3.0108 -0.6783
  700MOL0     H94465   1.974   4.902   9.127 -1.9544 -2.1587 -0.5435
  700MOL0     H94466   1.783   4.987   9.219 -1.1635  0.1729 -1.4488
  700MOL0     H94467   1.752   4.842   9.134  1.2618  0.8715 -0.9636
  700MOL0     H94468   1.549   4.809   9.253  3.3595 -1.9411  2.5255
  700MOL0     H94469   1.584   4.918   9.380  0.1997 -0.9978  0.7343
  700MOL0     H94470   1.538   5.019   9.085  1.7492 -1.3388  0.9936
  700MOL0     H94471   1.574   5.114   9.218  0.5358 -1.5772  3.0627
  700MOL0     H94472   1.319   4.935   9.200  2.2320 -2.1620  1.8348
  700MOL0     H94473   1.341   5.049   9.337 -4.2885  0.0967 -0.4451
  700MOL0     H94474   1.336   5.154   9.051 -0.4876  1.4057 -0.0702
  700MOL0     H94475   1.359   5.250   9.208 -2.3094 -0.4443  2.7721
  700MOL0     H94476   1.119   5.077   9.145 -0.4416 -0.4700  1.2350
  700MOL0     H94477   1.137   5.196   9.274  2.9178  2.2651  1.4095
  700MOL0     H94478   1.138   5.259   8.972  0.3332  3.6386 -0.2415
  700MOL0     H94479   1.146   5.382   9.106 -1.7939  0.0943  3.2743
  700MOL0     H94480   0.926   5.379   9.005  0.1051  0.9864  1.6999
  700MOL0     H94481   0.911   5.322   9.177 -0.0818  2.7668  0.3633
  700MOL0     H94482   1.923   4.656   9.466 -1.7673  0.4670 -1.5448
  700MOL0     H94483   2.135   4.552   9.422  0.8719  0.5844  0.1884
  700MOL0     H94484   2.557   4.412   9.428  0.7350 -0.2535 -1.1944
  700MOL0     H94485   2.747   4.298   9.357 -3.0117 -2.8594  0.6362
  700MOL0     H94486   4.567   4.595   9.525 -1.1009 -1.1468 -0.0061
  700MOL0     H94487   4.782   4.558   9.632  0.9806 -0.9795 -0.1957
  700MOL0     H94488   5.075   4.602   9.955 -1.1281 -0.2922 -0.9088
  700MOL0     H94489   5.299   4.590  10.036 -1.4302 -0.6761 -2.7282
  700MOL0     H94490   5.500   4.447   9.999 -2.2371 -1.2252  0.8464
  700MOL0     H94491   5.515   4.548  10.135 -1.9252  0.5747  0.7078
  700MOL0     H94492   5.637   4.334  10.249  3.0434  1.1497  1.6834
  700MOL0     H94493   5.740   4.428  10.145  1.2871 -1.8445  2.9233
  700MOL0     H94494   5.641   4.247   9.951  1.9357  3.9887  0.0382
  700MOL0     H94495   5.582   4.171  10.104  0.6695  0.2444  2.2085
  700MOL0     H94496   5.788   4.086  10.013  1.0703  0.5384 -0.8032
  700MOL0     H94497   5.806   4.125  10.176  5.5490 -1.0224 -1.1665
  700MOL0     H94498   6.054   4.410   9.998 -1.6333  0.7845 -0.8062
  700MOL0     H94499   5.208   4.187  10.179  0.0030 -0.1957  0.1045
  700MOL0     H94500   4.986   4.208  10.101  1.7977 -2.0056 -1.3175
  701MOL0     O94501   0.856   4.048   8.902 -0.3003  0.4620 -0.1913
  701MOL0     C94502   0.793   4.031   8.797  0.8492 -0.0696  0.5190
  701MOL0     O94503   0.841   4.042   8.675  0.4718  0.0473  0.8955
  701MOL0     C94504   0.962   4.071   8.640  0.1717 -0.7899  0.5595
  701MOL0     C94505   1.072   4.034   8.721 -0.7088 -0.1390 -0.6294
  701MOL0     C94506   1.198   4.065   8.676 -0.0944 -0.6211  0.3562
  701MOL0     C94507   1.231   4.115   8.553  0.1661  0.4313 -0.2074
  701MOL0     O94508   1.347   4.159   8.509 -1.0521 -0.3916  0.3373
  701MOL0     C94509   1.461   4.090   8.571  0.0880  0.1765  0.5065
  701MOL0     C94510   1.581   4.145   8.497 -0.3896  0.1258 -0.2530
  701MOL0     C94511   1.712   4.135   8.570 -1.2304  0.4529 -0.3519
  701MOL0     C94512   1.809   4.248   8.547  0.2526  0.3446 -0.0464
  701MOL0     C94513   1.901   4.222   8.425 -0.1622 -0.5830 -0.0047
  701MOL0     C94514   1.959   4.353   8.380  0.4231  1.1029  0.7979
  701MOL0     C94515   2.078   4.321   8.277  0.0116 -0.4975 -0.5768
  701MOL0     C94516   2.181   4.431   8.259 -0.5905 -0.0559 -0.3672
  701MOL0     N94517   2.119   4.543   8.182  0.6321 -0.3817  0.0464
  701MOL0     C94518   2.056   4.649   8.238  0.3688 -0.7231 -0.0453
  701MOL0     C94519   1.997   4.704   8.129 -0.9284  0.0304 -0.8997
  701MOL0     C94520   1.878   4.799   8.129 -0.5564  0.6859 -0.6031
  701MOL0     C94521   1.756   4.746   8.197 -0.5554  0.2571 -0.4062
  701MOL0     C94522   1.645   4.846   8.235 -0.0178  0.4676 -0.4099
  701MOL0     C94523   1.557   4.874   8.105 -0.5921 -0.3756  0.2967
  701MOL0     O94524   1.420   4.892   8.137  0.5177 -0.0582  0.0422
  701MOL0     C94525   1.335   4.798   8.179  0.7780  0.5937 -0.3609
  701MOL0     C94526   1.365   4.670   8.217 -0.7798 -0.2546 -0.3024
  701MOL0     C94527   1.274   4.579   8.270  0.7064 -0.6044 -0.5570
  701MOL0     C94528   1.324   4.448   8.314 -0.1671 -0.2088  0.2737
  701MOL0     C94529   1.137   4.609   8.272 -0.3830  0.5167 -0.4667
  701MOL0     C94530   1.029   4.524   8.313  0.3387  0.4289  0.2088
  701MOL0     O94531   0.917   4.582   8.354 -0.3027  0.2247 -0.1435
  701MOL0     C94532   0.821   4.501   8.423 -0.5144  0.3570  0.4724
  701MOL0     C94533   0.836   4.466   8.556  0.0341  0.3777  0.6120
  701MOL0     C94534   0.735   4.396   8.626  1.1747  0.1664  0.0729
  701MOL0     C94535   0.617   4.363   8.563 -0.0229 -0.3413 -0.1987
  701MOL0     O94536   0.510   4.313   8.640 -0.0203 -0.5099  0.8863
  701MOL0     C94537   0.492   4.372   8.764  0.1642 -0.4998  0.3839
  701MOL0     C94538   0.355   4.318   8.820  0.4896 -0.7326 -0.4794
  701MOL0     C94539   0.235   4.343   8.719  0.0605 -0.3003 -0.5343
  701MOL0     C94540   0.103   4.350   8.803  0.3936 -0.4175 -0.0061
  701MOL0     C94541   0.091   4.470   8.898  1.0174 -0.1471  0.4460
  701MOL0     C94542  -0.050   4.482   8.968  0.3725 -0.0634  0.3082
  701MOL0     C94543  -0.170   4.475   8.882 -0.3030 -0.1104  0.3813
  701MOL0     C94544  -0.291   4.512   8.968  0.6350  0.0972  0.1748
  701MOL0    Cl94545  -0.452   4.500   8.872  0.5974  0.1508  0.0330
  701MOL0     C94546   0.606   4.384   8.426  0.8209  0.7454 -0.5080
  701MOL0     C94547   0.711   4.444   8.353  0.4510  0.6635  0.0924
  701MOL0     O94548   1.042   4.406   8.304 -0.3243  0.0417 -0.1184
  701MOL0     C94549   1.092   4.741   8.229  0.7652  0.6130 -0.4402
  701MOL0     C94550   1.193   4.825   8.183 -0.6281  1.1378  0.0933
  701MOL0     N94551   2.039   4.631   8.018 -0.2974  0.2986 -0.2714
  701MOL0     N94552   2.106   4.529   8.050 -0.3290 -0.2904 -0.1524
  701MOL0     C94553   1.117   4.155   8.480 -0.8302  0.1485  0.0349
  701MOL0     C94554   0.990   4.134   8.521  0.3649 -0.0545  0.3022
  701MOL0     C94555   0.652   3.999   8.802  0.1623 -0.0420 -0.0124
  701MOL0     C94556   0.596   3.952   8.918  0.3997 -0.3089  0.2874
  701MOL0     C94557   0.452   3.932   8.930  0.6290  1.0535 -0.6923
  701MOL0     C94558   0.367   3.955   8.815  0.3581  0.2917 -0.1358
  701MOL0     O94559   0.234   3.943   8.810  0.0236  0.1350  0.0259
  701MOL0     C94560   0.172   3.887   8.920  0.0690  0.0845  0.1971
  701MOL0     C94561   0.023   3.851   8.887  0.1275 -0.8526 -0.3657
  701MOL0     C94562  -0.079   3.971   8.866 -0.1014 -0.4525  0.6520
  701MOL0     C94563  -0.133   4.050   8.989  0.5130 -0.3289 -1.3937
  701MOL0     C94564  -0.237   3.974   9.061  0.1743 -0.3419  0.0275
  701MOL0     C94565  -0.320   3.910   9.129 -0.1564 -0.4828  0.1861
  701MOL0     C94566   0.437   3.987   8.701  0.2980 -0.2742 -0.0342
  701MOL0     C94567   0.571   4.003   8.683 -0.2637 -0.1134  0.4437
  701MOL0     H94568   1.059   3.998   8.823  0.4355 -1.5954 -0.9621
  701MOL0     H94569   1.283   4.033   8.735 -1.0085  1.3820  3.0017
  701MOL0     H94570   1.457   4.121   8.676  0.7867 -2.0132  1.2275
  701MOL0     H94571   1.449   3.982   8.557 -1.7582  0.6803 -3.5970
  701MOL0     H94572   1.589   4.084   8.406 -0.0792  1.9686 -1.5098
  701MOL0     H94573   1.542   4.242   8.464 -0.8736 -0.0128 -0.0881
  701MOL0     H94574   1.705   4.099   8.673 -0.2291  0.8938 -0.1152
  701MOL0     H94575   1.765   4.048   8.529 -0.7768 -0.0440  1.2085
  701MOL0     H94576   1.749   4.338   8.529 -0.9097 -0.6469 -1.3910
  701MOL0     H94577   1.860   4.272   8.640  0.3740 -0.0538 -0.0094
  701MOL0     H94578   1.985   4.159   8.456  2.3360  2.0997 -0.8178
  701MOL0     H94579   1.857   4.175   8.337 -0.4247 -1.3762  0.5396
  701MOL0     H94580   1.883   4.399   8.317  0.1965 -1.6838 -1.1786
  701MOL0     H94581   1.993   4.416   8.463 -0.8806 -1.6698  3.6676
  701MOL0     H94582   2.134   4.237   8.319 -1.0452 -0.1118  1.7951
  701MOL0     H94583   2.028   4.279   8.189  0.0902  0.1380 -0.9306
  701MOL0     H94584   2.260   4.398   8.191 -1.5778  1.1094 -2.1599
  701MOL0     H94585   2.223   4.466   8.354  0.3835  3.6769 -1.9581
  701MOL0     H94586   2.039   4.654   8.345 -0.4135 -0.3164 -0.1824
  701MOL0     H94587   1.910   4.896   8.168 -1.1124  0.7898 -0.4053
  701MOL0     H94588   1.859   4.794   8.022 -1.1256 -3.1963 -0.4736
  701MOL0     H94589   1.784   4.691   8.288  2.1889 -1.3020 -2.0749
  701MOL0     H94590   1.718   4.658   8.144  0.0682  0.3796 -1.0555
  701MOL0     H94591   1.683   4.941   8.274 -0.4811 -0.3601  2.2970
  701MOL0     H94592   1.587   4.796   8.313 -0.2715 -0.7446 -1.3359
  701MOL0     H94593   1.563   4.789   8.037 -2.2399 -0.2155 -0.0839
  701MOL0     H94594   1.591   4.970   8.064 -2.8788  0.8737  1.1491
  701MOL0     H94595   1.470   4.645   8.223 -0.5301  1.0055  1.1732
  701MOL0     H94596   1.277   4.407   8.404  2.0545 -1.3363  0.9754
  701MOL0     H94597   1.305   4.382   8.229 -2.0546 -0.0076  0.4967
  701MOL0     H94598   1.431   4.453   8.335  0.5931  2.3758 -3.2588
  701MOL0     H94599   0.933   4.493   8.596  0.8873 -0.1301 -1.0186
  701MOL0     H94600   0.763   4.370   8.728 -0.0144 -0.2770  0.3036
  701MOL0     H94601   0.576   4.348   8.829 -0.2898  0.6444  1.4196
  701MOL0     H94602   0.485   4.480   8.749 -1.6951 -0.5843  0.3876
  701MOL0     H94603   0.365   4.211   8.839  4.3086 -0.4071  0.0329
  701MOL0     H94604   0.333   4.358   8.919 -5.7164 -4.3795  0.1383
  701MOL0     H94605   0.210   4.259   8.653 -2.4536 -0.9561  1.1042
  701MOL0     H94606   0.264   4.431   8.661  0.7673 -0.2340 -0.0928
  701MOL0     H94607   0.019   4.356   8.733  0.8943 -0.9139 -0.6594
  701MOL0     H94608   0.091   4.258   8.860 -1.3396  1.2277  2.5094
  701MOL0     H94609   0.117   4.564   8.847 -1.8768 -0.2050 -1.3506
  701MOL0     H94610   0.152   4.477   8.988 -2.6919 -0.7389  3.2402
  701MOL0     H94611  -0.046   4.393   9.030  2.3993  1.0888  1.9707
  701MOL0     H94612  -0.044   4.576   9.024  0.6357 -1.7218  3.1873
  701MOL0     H94613  -0.178   4.384   8.822  0.4163 -0.2054  0.4194
  701MOL0     H94614  -0.153   4.556   8.810  0.1074  0.7567  1.4395
  701MOL0     H94615  -0.266   4.607   9.016 -0.2983  1.6050 -2.1139
  701MOL0     H94616  -0.298   4.447   9.056  3.4285  0.6961  0.9406
  701MOL0     H94617   0.517   4.347   8.376  0.4521  2.6399 -1.3287
  701MOL0     H94618   0.694   4.464   8.248 -2.2556  0.2442  0.3776
  701MOL0     H94619   0.990   4.778   8.230  0.2636 -0.3098 -3.8505
  701MOL0     H94620   1.147   4.909   8.133  2.0123  2.0964 -0.9281
  701MOL0     H94621   1.146   4.213   8.393 -1.7099  0.3432 -0.1293
  701MOL0     H94622   0.912   4.175   8.458 -1.2668  1.1566  2.9755
  701MOL0     H94623   0.654   3.941   9.009  0.1715  2.0989  0.7805
  701MOL0     H94624   0.419   3.895   9.027  1.1240  2.2560 -0.0457
  701MOL0     H94625   0.211   3.789   8.948 -3.0613 -0.8794  1.6884
  701MOL0     H94626   0.179   3.949   9.011 -2.2702  0.1583  0.4048
  701MOL0     H94627  -0.017   3.802   8.975 -1.1432 -1.8959 -1.4841
  701MOL0     H94628   0.026   3.787   8.799 -0.3806  0.6371 -1.5210
  701MOL0     H94629  -0.171   3.931   8.821 -0.7292  2.7254 -1.2106
  701MOL0     H94630  -0.038   4.048   8.801 -2.5055 -0.7730 -1.4068
  701MOL0     H94631  -0.181   4.147   8.970  0.1320  0.1945  1.8041
  701MOL0     H94632  -0.049   4.072   9.055 -0.3971 -1.1171  0.0643
  701MOL0     H94633  -0.407   3.868   9.175 -2.7364  2.9450 -1.1959
  701MOL0     H94634   0.377   4.017   8.616  2.0906  3.5758 -0.1428
  701MOL0     H94635   0.610   4.033   8.586  1.6391  1.0247  1.5145
  702MOL0     O94636   5.707   6.285   2.424  0.8605  0.7746  0.0111
  702MOL0     C94637   5.694   6.288   2.546  0.8194 -0.6065  0.4508
  702MOL0     O94638   5.580   6.313   2.607  0.1696 -0.3984 -0.4596
  702MOL0     C94639   5.470   6.350   2.531 -0.2549 -0.2810  0.4090
  702MOL0     C94640   5.408   6.474   2.513 -0.7400  0.1947 -0.8506
  702MOL0     C94641   5.294   6.488   2.436  0.3648  0.3492 -0.7128
  702MOL0     C94642   5.234   6.382   2.368 -0.3999  0.7480  0.0269
  702MOL0     O94643   5.109   6.396   2.311 -0.7285 -0.0550 -0.3900
  702MOL0     C94644   5.060   6.307   2.210  0.7375 -0.7992 -0.0662
  702MOL0     C94645   4.919   6.367   2.158 -0.9285  0.1860  0.4680
  702MOL0     C94646   4.840   6.266   2.068 -0.3285  0.2417  0.0400
  702MOL0     C94647   4.919   6.236   1.944 -0.3463  0.3308  0.5854
  702MOL0     C94648   4.872   6.105   1.879  0.1426  0.8444  0.3731
  702MOL0     C94649   4.739   6.103   1.808  0.0510  0.8825  0.4649
  702MOL0     C94650   4.726   6.205   1.693 -0.3744 -0.5842  0.5764
  702MOL0     C94651   4.596   6.204   1.610  0.6116 -0.1962 -0.5641
  702MOL0     N94652   4.486   6.221   1.708 -0.6304  1.0362  0.6785
  702MOL0     C94653   4.407   6.118   1.753 -0.0241  0.6191  0.2789
  702MOL0     C94654   4.321   6.173   1.844  0.3588  0.4077 -0.2497
  702MOL0     C94655   4.205   6.123   1.913  1.1237 -0.5673  0.0419
  702MOL0     C94656   4.080   6.158   1.818 -0.4023  0.3098  0.1752
  702MOL0     C94657   3.944   6.122   1.876 -0.5556  0.4576 -0.5026
  702MOL0     C94658   3.820   6.149   1.779  0.5473 -0.8219 -0.1551
  702MOL0     O94659   3.837   6.252   1.686 -0.6003  0.2392 -0.2762
  702MOL0     C94660   3.724   6.297   1.623  0.9195  0.8853  0.1525
  702MOL0     C94661   3.625   6.225   1.567 -0.6514 -0.0421 -0.6329
  702MOL0     C94662   3.507   6.280   1.508 -1.2256 -0.8733 -0.7589
  702MOL0     C94663   3.403   6.182   1.463 -0.3259 -0.0367 -0.3483
  702MOL0     C94664   3.506   6.422   1.508  0.1047 -0.0588 -0.2726
  702MOL0     C94665   3.381   6.494   1.467  0.8865 -0.0967  0.0123
  702MOL0     O94666   3.410   6.621   1.413 -0.0077 -0.1361  0.1813
  702MOL0     C94667   3.317   6.720   1.381 -0.6619 -0.5121  0.7404
  702MOL0     C94668   3.192   6.721   1.439 -0.2847 -0.3234 -0.6517
  702MOL0     C94669   3.105   6.827   1.409 -0.4458  0.1823  0.3133
  702MOL0     C94670   3.142   6.921   1.304 -0.1934  0.1383 -0.3368
  702MOL0     O94671   3.064   7.027   1.263 -0.6177  0.2803 -0.8096
  702MOL0     C94672   2.922   7.009   1.267 -0.1473 -0.4375 -0.0150
  702MOL0     C94673   2.859   7.155   1.264  1.1398  0.1240  0.0752
  702MOL0     C94674   2.912   7.236   1.388  0.6278 -0.6781 -0.0125
  702MOL0     C94675   2.834   7.189   1.512  0.1624 -0.3738  0.7292
  702MOL0     C94676   2.882   7.292   1.619  0.8281  0.4502  0.4590
  702MOL0     C94677   2.823   7.435   1.610  0.0710  0.1148  1.0982
  702MOL0     C94678   2.860   7.518   1.735 -0.1214  0.1492  0.3973
  702MOL0     C94679   2.870   7.662   1.708 -0.6916 -0.1735 -0.0677
  702MOL0    Cl94680   2.726   7.707   1.619  0.1223 -0.6486  0.1239
  702MOL0     C94681   3.269   6.912   1.246 -0.2620  0.2933  0.3274
  702MOL0     C94682   3.361   6.820   1.285  0.0076 -0.0744 -0.3707
  702MOL0     O94683   3.273   6.434   1.462 -0.0561 -0.7380 -0.8235
  702MOL0     C94684   3.618   6.497   1.549 -0.5375 -0.8173  0.1644
  702MOL0     C94685   3.722   6.435   1.604 -0.0742 -0.4867 -0.5184
  702MOL0     N94686   4.370   6.304   1.863  0.2665 -0.1807  0.2534
  702MOL0     N94687   4.455   6.335   1.773  0.1479  1.5844 -0.1895
  702MOL0     C94688   5.301   6.254   2.380 -0.1495 -0.3015 -0.9859
  702MOL0     C94689   5.419   6.243   2.457 -0.0097 -0.1866  0.1044
  702MOL0     C94690   5.817   6.286   2.623 -0.2035 -0.8267 -0.5658
  702MOL0     C94691   5.926   6.211   2.583  0.1989  0.6841  0.6908
  702MOL0     C94692   6.040   6.195   2.663 -0.2432 -0.2964  0.8970
  702MOL0     C94693   6.049   6.247   2.794  0.0075  0.0503 -0.4740
  702MOL0     O94694   6.147   6.234   2.892  0.2001 -0.4555  0.2481
  702MOL0     C94695   6.269   6.165   2.859 -0.2229 -0.2019 -0.1287
  702MOL0     C94696   6.340   6.112   2.990 -0.0902 -1.1704  0.0960
  702MOL0     C94697   6.367   6.225   3.089 -0.4242 -0.6774  0.6240
  702MOL0     C94698   6.447   6.179   3.218 -0.0582  0.0798 -0.3863
  702MOL0     C94699   6.591   6.160   3.207  0.2876 -0.2186  0.7932
  702MOL0     C94700   6.712   6.148   3.179  0.4991  0.7956 -0.2569
  702MOL0     C94701   5.937   6.317   2.827 -0.1068 -0.0621 -0.3801
  702MOL0     C94702   5.829   6.337   2.746 -0.2537 -0.6227 -0.1471
  702MOL0     H94703   5.441   6.565   2.562 -1.7985 -0.2770  0.8317
  702MOL0     H94704   5.242   6.580   2.412  0.7874  0.8996  0.3985
  702MOL0     H94705   5.131   6.308   2.127  1.1515  1.3993  0.2271
  702MOL0     H94706   5.042   6.204   2.241 -1.1015 -0.5555 -0.2404
  702MOL0     H94707   4.852   6.394   2.240  0.1298  0.8786  1.1346
  702MOL0     H94708   4.934   6.462   2.105 -1.8208  0.8742  1.4026
  702MOL0     H94709   4.828   6.169   2.118  2.1147 -0.8210 -1.2996
  702MOL0     H94710   4.740   6.308   2.052 -1.7372 -2.6820  0.4332
  702MOL0     H94711   4.913   6.315   1.868 -0.2183  1.0184  1.2724
  702MOL0     H94712   5.022   6.215   1.971 -0.3791 -1.3268 -0.4747
  702MOL0     H94713   4.952   6.079   1.809  2.6103 -0.8828  3.5386
  702MOL0     H94714   4.868   6.019   1.947  1.1107  0.6477  0.1994
  702MOL0     H94715   4.725   6.000   1.773  0.1706  1.0346 -0.0405
  702MOL0     H94716   4.657   6.123   1.878 -0.1698  3.4031 -0.4199
  702MOL0     H94717   4.733   6.306   1.734 -2.5167 -0.3098  0.3516
  702MOL0     H94718   4.811   6.182   1.628  0.7956 -2.3414  2.5839
  702MOL0     H94719   4.604   6.111   1.553 -2.6283 -0.5693 -0.5834
  702MOL0     H94720   4.590   6.285   1.537 -0.0960 -2.2500 -2.9039
  702MOL0     H94721   4.412   6.027   1.694  2.5100  1.0264 -0.2463
  702MOL0     H94722   4.213   6.017   1.938  1.7016 -0.3216  0.9086
  702MOL0     H94723   4.185   6.185   2.000 -1.2799  0.2528 -0.9962
  702MOL0     H94724   4.085   6.091   1.732 -1.6038 -1.9440  1.7615
  702MOL0     H94725   4.090   6.263   1.789  1.0735  0.1492 -0.0050
  702MOL0     H94726   3.938   6.191   1.962 -1.1667 -0.5931  0.3186
  702MOL0     H94727   3.948   6.021   1.918 -0.5439  0.6919  0.0700
  702MOL0     H94728   3.740   6.170   1.852  1.9387  0.4967  1.0646
  702MOL0     H94729   3.785   6.054   1.738  0.2938 -0.0141 -1.8794
  702MOL0     H94730   3.644   6.118   1.560 -1.9266 -0.4218  0.9858
  702MOL0     H94731   3.369   6.183   1.359 -1.3692  0.9900 -0.0190
  702MOL0     H94732   3.434   6.078   1.471 -1.5186 -0.4965 -1.2907
  702MOL0     H94733   3.319   6.183   1.532  1.0875  0.9297  1.4526
  702MOL0     H94734   3.161   6.650   1.515 -1.5125  1.5954  0.7254
  702MOL0     H94735   3.005   6.837   1.450 -1.8530  2.2332 -3.1183
  702MOL0     H94736   2.893   6.956   1.175  0.2231 -0.2416 -0.2474
  702MOL0     H94737   2.885   6.952   1.352  3.6077 -2.5848  0.4234
  702MOL0     H94738   2.891   7.206   1.172 -0.3003  3.2606  1.1632
  702MOL0     H94739   2.750   7.159   1.257  1.0681 -1.4696 -0.0338
  702MOL0     H94740   2.893   7.342   1.369  1.4241 -0.7336 -1.2029
  702MOL0     H94741   3.021   7.221   1.388  0.5646 -1.2181 -0.6983
  702MOL0     H94742   2.726   7.197   1.499  0.0336  0.0130  1.9524
  702MOL0     H94743   2.862   7.087   1.539 -0.1458 -0.7655 -0.3522
  702MOL0     H94744   2.991   7.280   1.610  0.6141 -1.0110 -0.6293
  702MOL0     H94745   2.863   7.251   1.718  2.6867 -2.0980 -0.1321
  702MOL0     H94746   2.864   7.476   1.517  1.4646 -3.0814  0.1776
  702MOL0     H94747   2.715   7.448   1.599 -0.3622 -1.4652  3.0440
  702MOL0     H94748   2.960   7.484   1.762 -0.0265  0.3204  0.2599
  702MOL0     H94749   2.794   7.495   1.819 -0.3439  0.4778  0.3134
  702MOL0     H94750   2.959   7.680   1.647 -0.7369  2.3143  0.4996
  702MOL0     H94751   2.885   7.710   1.805  3.8788 -0.3211 -0.4763
  702MOL0     H94752   3.290   6.968   1.156 -0.9823 -0.8986 -0.6220
  702MOL0     H94753   3.460   6.809   1.242  0.4511 -1.2241  0.8716
  702MOL0     H94754   3.624   6.605   1.543 -2.7691 -0.4245  3.0456
  702MOL0     H94755   3.806   6.494   1.640 -0.3460  0.4076 -1.3173
  702MOL0     H94756   5.261   6.156   2.356 -0.3862 -0.9526  1.7034
  702MOL0     H94757   5.457   6.141   2.461 -1.1137 -0.5661  1.3796
  702MOL0     H94758   5.917   6.164   2.485 -0.5940 -1.3507  1.6936
  702MOL0     H94759   6.112   6.114   2.648  1.0220  0.6717  1.5733
  702MOL0     H94760   6.257   6.076   2.796 -1.3325 -0.4800  0.4505
  702MOL0     H94761   6.339   6.237   2.817  1.1665  0.7023  3.3755
  702MOL0     H94762   6.436   6.063   2.969  1.3845  0.7641  1.8213
  702MOL0     H94763   6.263   6.049   3.035 -2.7227  1.4463 -0.4557
  702MOL0     H94764   6.278   6.283   3.115  0.9280  0.4293  3.1515
  702MOL0     H94765   6.436   6.294   3.039 -1.1175 -0.3136  0.1607
  702MOL0     H94766   6.403   6.080   3.223  0.7898 -0.3856 -1.5734
  702MOL0     H94767   6.425   6.230   3.313 -0.5943 -0.4926 -0.1942
  702MOL0     H94768   6.815   6.143   3.151 -0.2575 -0.0625 -3.3126
  702MOL0     H94769   5.929   6.381   2.914 -0.3282  1.6422 -1.5919
  702MOL0     H94770   5.747   6.399   2.781  2.8005  3.1936  0.8837
  703MOL0     O94771   1.488   8.627   1.105 -0.4947 -0.0586 -0.0853
  703MOL0     C94772   1.471   8.630   1.227 -0.6042 -0.1551  0.5543
  703MOL0     O94773   1.358   8.681   1.287  0.5786  0.2810 -0.3349
  703MOL0     C94774   1.235   8.688   1.223  0.5271 -0.2993  0.3783
  703MOL0     C94775   1.195   8.601   1.115 -0.4762 -0.1660 -0.8558
  703MOL0     C94776   1.069   8.604   1.073  0.4520 -0.1118  0.3150
  703MOL0     C94777   0.970   8.698   1.121  0.3327  0.3723 -0.5196
  703MOL0     O94778   0.841   8.692   1.078  0.2723 -0.0212  0.5398
  703MOL0     C94779   0.741   8.751   1.155  0.1389 -0.5564  0.4460
  703MOL0     C94780   0.613   8.669   1.130  0.1634 -0.1636 -0.1074
  703MOL0     C94781   0.604   8.521   1.163 -0.6209  0.2883  0.5165
  703MOL0     C94782   0.465   8.455   1.152  0.4762  0.1128 -1.0137
  703MOL0     C94783   0.400   8.467   1.009  0.3836 -0.4136  0.0297
  703MOL0     C94784   0.285   8.368   0.993 -0.3586  1.0601 -0.4709
  703MOL0     C94785   0.146   8.415   1.051  0.7968  0.0431 -0.5701
  703MOL0     C94786   0.102   8.553   0.998 -0.4418  0.3687 -0.0849
  703MOL0     N94787   0.076   8.555   0.853  0.1528  0.2320  0.2763
  703MOL0     C94788   0.015   8.461   0.767 -0.4111  0.3337  0.5701
  703MOL0     C94789   0.027   8.503   0.641 -0.3808 -0.2428  0.1505
  703MOL0     C94790  -0.022   8.442   0.520 -0.2881  1.1380 -0.0786
  703MOL0     C94791  -0.174   8.421   0.495  0.2074 -0.6594  0.0927
  703MOL0     C94792  -0.198   8.435   0.344  0.2999  0.5422  0.2284
  703MOL0     C94793  -0.338   8.394   0.310  0.6686 -0.6829 -0.4466
  703MOL0     O94794  -0.352   8.385   0.164  0.5390  0.0649 -0.1750
  703MOL0     C94795  -0.482   8.363   0.116 -0.5907  0.6499 -0.6286
  703MOL0     C94796  -0.497   8.300  -0.001  0.7787 -0.2039  0.8489
  703MOL0     C94797  -0.632   8.276  -0.055  0.2466 -0.3952 -0.5086
  703MOL0     C94798  -0.626   8.224  -0.196 -0.2877 -0.0869  0.6618
  703MOL0     C94799  -0.751   8.315   0.020  0.4793 -0.4371 -0.5121
  703MOL0     C94800  -0.885   8.314  -0.043 -0.9496 -0.1752  0.0989
  703MOL0     O94801  -0.913   8.220  -0.144  0.6513  0.5080  0.3933
  703MOL0     C94802  -1.033   8.218  -0.207 -0.4687  0.2066 -0.0881
  703MOL0     C94803  -1.041   8.231  -0.343 -0.5087  0.2672 -0.1455
  703MOL0     C94804  -1.164   8.239  -0.399  0.6902 -0.2632 -0.1752
  703MOL0     C94805  -1.285   8.233  -0.325 -0.1800  0.1639  0.6616
  703MOL0     O94806  -1.417   8.244  -0.374  0.1305 -0.1013 -0.0843
  703MOL0     C94807  -1.431   8.275  -0.512  1.3815  1.1089  0.3824
  703MOL0     C94808  -1.587   8.283  -0.520 -0.7612  0.0932 -0.3197
  703MOL0     C94809  -1.669   8.150  -0.503 -0.0917  0.1126 -0.0643
  703MOL0     C94810  -1.827   8.155  -0.521 -0.9728 -0.9711 -0.0488
  703MOL0     C94811  -1.879   8.024  -0.479 -0.1194  0.1714 -0.5376
  703MOL0     C94812  -2.034   8.030  -0.464 -0.1263  0.8438 -0.4504
  703MOL0     C94813  -2.090   7.885  -0.439 -0.2412  0.5555  0.4738
  703MOL0     C94814  -2.230   7.869  -0.484  0.6900  0.8620 -0.1701
  703MOL0    Cl94815  -2.287   7.699  -0.475  0.3389  0.2135 -0.0982
  703MOL0     C94816  -1.277   8.219  -0.194 -0.1768 -0.2844 -0.1751
  703MOL0     C94817  -1.153   8.222  -0.131 -0.1025 -0.3732  0.1877
  703MOL0     O94818  -0.962   8.405  -0.008 -0.5822  0.1884  0.4318
  703MOL0     C94819  -0.728   8.374   0.150  0.1233  0.7542  0.4990
  703MOL0     C94820  -0.593   8.391   0.195 -0.5032 -0.4337  0.1796
  703MOL0     N94821   0.112   8.619   0.638  0.3651  0.0860  0.1600
  703MOL0     N94822   0.137   8.642   0.767  0.1258  0.4221  0.0590
  703MOL0     C94823   1.019   8.791   1.212 -0.1557 -0.2165  0.4853
  703MOL0     C94824   1.141   8.777   1.268 -0.4199  0.5206  0.5823
  703MOL0     C94825   1.596   8.593   1.318  0.3678  0.4489 -0.7027
  703MOL0     C94826   1.599   8.624   1.458  0.0831 -0.1242  0.5020
  703MOL0     C94827   1.683   8.562   1.540 -0.3794  0.6167 -1.0563
  703MOL0     C94828   1.784   8.478   1.493 -0.5732  1.0634  0.4428
  703MOL0     O94829   1.884   8.408   1.559  0.2676  0.4142  0.1372
  703MOL0     C94830   1.912   8.445   1.699 -0.3447  0.1145  0.4880
  703MOL0     C94831   2.044   8.393   1.756 -0.3942 -0.7270 -0.4513
  703MOL0     C94832   2.159   8.456   1.679  0.4128  0.0439 -0.0444
  703MOL0     C94833   2.185   8.597   1.724 -0.1276  0.1892  0.2746
  703MOL0     C94834   2.293   8.654   1.641  0.5640 -0.4063 -0.1446
  703MOL0     C94835   2.384   8.696   1.578  0.0156  0.3233  0.0398
  703MOL0     C94836   1.787   8.455   1.356  0.3638  0.5844  0.4159
  703MOL0     C94837   1.693   8.517   1.270  1.0407  0.2403 -0.3196
  703MOL0     H94838   1.256   8.519   1.076  0.7228 -1.0247  2.4489
  703MOL0     H94839   1.035   8.525   1.006  2.5112 -3.0552  2.4689
  703MOL0     H94840   0.761   8.745   1.263 -1.2352  0.0765  0.7637
  703MOL0     H94841   0.709   8.853   1.134 -0.2910 -0.5135  1.2450
  703MOL0     H94842   0.537   8.716   1.193 -0.2119 -1.2935  0.3149
  703MOL0     H94843   0.583   8.684   1.026 -0.9173 -0.3347  0.1637
  703MOL0     H94844   0.667   8.481   1.083  0.5563 -3.6929  3.1557
  703MOL0     H94845   0.650   8.499   1.259 -1.9681  0.4417  1.2149
  703MOL0     H94846   0.462   8.352   1.188  0.7580  1.3527  3.0741
  703MOL0     H94847   0.404   8.514   1.222  0.2966 -2.5556  1.2264
  703MOL0     H94848   0.362   8.568   0.992 -0.0020  0.1605  3.6428
  703MOL0     H94849   0.472   8.432   0.934 -0.2269 -0.9185 -0.3365
  703MOL0     H94850   0.253   8.354   0.890 -0.7987 -0.8359 -0.1173
  703MOL0     H94851   0.318   8.276   1.041 -0.5622  2.6743  3.1517
  703MOL0     H94852   0.061   8.348   1.035 -0.7343  1.8954 -0.4822
  703MOL0     H94853   0.151   8.408   1.160 -2.4518 -0.8387 -0.3590
  703MOL0     H94854   0.162   8.635   1.038  1.6763 -0.2491 -1.7949
  703MOL0     H94855   0.003   8.564   1.044 -1.0660 -4.5012  0.2744
  703MOL0     H94856  -0.026   8.367   0.802  1.2959 -0.2940  0.9958
  703MOL0     H94857   0.001   8.518   0.446 -1.4433  1.4942 -0.1016
  703MOL0     H94858   0.033   8.352   0.491 -1.0576  0.1950  1.2129
  703MOL0     H94859  -0.222   8.509   0.540 -2.4633 -1.6898 -0.5641
  703MOL0     H94860  -0.218   8.335   0.546  0.2997 -0.7004  0.1026
  703MOL0     H94861  -0.135   8.382   0.273 -2.3827  0.2817 -2.1855
  703MOL0     H94862  -0.180   8.538   0.310 -1.2750  0.5488 -0.6935
  703MOL0     H94863  -0.408   8.454   0.369  1.2180 -2.3404  2.0890
  703MOL0     H94864  -0.354   8.298   0.360  1.4938 -0.6769 -0.1512
  703MOL0     H94865  -0.406   8.293  -0.058  1.9324  2.8781  2.1252
  703MOL0     H94866  -0.676   8.127  -0.203  1.0838 -0.6913 -1.9684
  703MOL0     H94867  -0.679   8.293  -0.262  0.4872  2.2755  2.3419
  703MOL0     H94868  -0.524   8.208  -0.233 -0.4560  0.2942  0.0312
  703MOL0     H94869  -0.949   8.234  -0.401 -0.3546 -0.8532  0.0176
  703MOL0     H94870  -1.165   8.237  -0.507  1.3884 -1.8761 -0.1789
  703MOL0     H94871  -1.382   8.371  -0.532  2.9017  0.2830 -0.0523
  703MOL0     H94872  -1.387   8.199  -0.578  1.0009 -0.3748  1.7879
  703MOL0     H94873  -1.619   8.351  -0.441  3.5358  1.6213  0.3600
  703MOL0     H94874  -1.615   8.326  -0.617 -0.5808  0.0881 -0.3746
  703MOL0     H94875  -1.634   8.111  -0.407 -0.0573  0.8827  0.2463
  703MOL0     H94876  -1.623   8.083  -0.577 -1.8813  0.6936 -1.7861
  703MOL0     H94877  -1.851   8.240  -0.457 -0.0340 -0.9808  0.3320
  703MOL0     H94878  -1.855   8.168  -0.626  1.3719  2.4159 -0.3997
  703MOL0     H94879  -1.840   8.004  -0.379  2.0032 -0.8799 -1.5072
  703MOL0     H94880  -1.851   7.942  -0.546  3.0930  0.0554  0.7531
  703MOL0     H94881  -2.074   8.107  -0.396  0.1095  0.4336  0.1646
  703MOL0     H94882  -2.070   8.049  -0.565  0.9740 -3.7911 -1.9363
  703MOL0     H94883  -2.080   7.851  -0.336 -2.3020  2.8859  1.5303
  703MOL0     H94884  -2.024   7.817  -0.495 -0.0144  2.0198 -1.1430
  703MOL0     H94885  -2.254   7.907  -0.583  1.2926 -0.6311 -0.9157
  703MOL0     H94886  -2.282   7.927  -0.407 -0.4327 -1.6087  1.0475
  703MOL0     H94887  -1.371   8.208  -0.142  0.5699  1.0813  1.5970
  703MOL0     H94888  -1.147   8.222  -0.023  3.0301 -0.1348  0.1095
  703MOL0     H94889  -0.813   8.401   0.211  0.6032 -0.0279  1.5433
  703MOL0     H94890  -0.592   8.441   0.292  1.4810  1.2756 -0.6541
  703MOL0     H94891   0.967   8.883   1.235  1.4235  0.6383  0.7894
  703MOL0     H94892   1.180   8.851   1.336 -1.9930 -0.0133  2.1380
  703MOL0     H94893   1.517   8.683   1.498  0.1263 -0.2811  0.8237
  703MOL0     H94894   1.691   8.583   1.646 -1.7599  0.9860 -1.0051
  703MOL0     H94895   1.916   8.554   1.709  1.5071 -0.0237  1.7182
  703MOL0     H94896   1.836   8.403   1.766 -3.7626 -0.1704 -3.1736
  703MOL0     H94897   2.056   8.287   1.732 -1.4089 -0.3025 -3.1329
  703MOL0     H94898   2.051   8.413   1.864 -0.9786  2.1401 -0.8682
  703MOL0     H94899   2.136   8.445   1.573 -0.5874 -3.1891  0.3961
  703MOL0     H94900   2.251   8.403   1.703 -0.0111  1.1597  5.3497
  703MOL0     H94901   2.219   8.597   1.829  1.3808  0.2519 -0.1901
  703MOL0     H94902   2.093   8.656   1.714 -2.6189 -3.2790  0.6548
  703MOL0     H94903   2.467   8.732   1.522  0.4170 -1.7365 -0.7862
  703MOL0     H94904   1.853   8.377   1.320  0.4081  0.3886  0.9235
  703MOL0     H94905   1.704   8.500   1.163  1.7112  0.5282 -0.3015
  704MOL0     O94906   6.125   9.827   5.606  0.1492 -0.6322 -0.3437
  704MOL0     C94907   6.142   9.828   5.482  0.9478 -0.5559  0.8594
  704MOL0     O94908   6.046   9.866   5.391 -0.3867 -0.1083 -0.0859
  704MOL0     C94909   5.915   9.849   5.446  0.0296 -0.2937 -0.6586
  704MOL0     C94910   5.864   9.728   5.496  0.1257  0.6382  0.9970
  704MOL0     C94911   5.735   9.708   5.542  0.9256 -0.9254 -0.6102
  704MOL0     C94912   5.644   9.816   5.508  0.8090 -0.3308  0.2159
  704MOL0     O94913   5.514   9.828   5.530 -0.1001  0.7256 -0.0376
  704MOL0     C94914   5.454   9.734   5.624 -0.5155 -0.1853 -0.3283
  704MOL0     C94915   5.308   9.786   5.653 -1.0091  1.3130 -0.1012
  704MOL0     C94916   5.219   9.772   5.526 -0.3344 -0.0164 -0.0191
  704MOL0     C94917   5.067   9.770   5.557 -0.2731 -0.9996  0.1071
  704MOL0     C94918   5.021   9.889   5.652  0.5984  0.1566  0.0697
  704MOL0     C94919   4.867   9.899   5.651 -0.2990  1.4102 -0.1470
  704MOL0     C94920   4.818   9.985   5.767  0.0960  0.1997  0.5974
  704MOL0     C94921   4.877  10.128   5.765  0.0973 -0.2348 -0.4467
  704MOL0     N94922   4.859  10.201   5.635 -0.2377  0.8179  0.1568
  704MOL0     C94923   4.744  10.250   5.601  0.3469 -0.6129  0.2095
  704MOL0     C94924   4.764  10.316   5.486  0.3300 -0.5843  0.4562
  704MOL0     C94925   4.673  10.393   5.393  0.0733  0.7441  0.1732
  704MOL0     C94926   4.533  10.333   5.386  0.4976 -0.7674  0.8237
  704MOL0     C94927   4.465  10.418   5.294  0.1325  0.5025  0.3930
  704MOL0     C94928   4.331  10.368   5.250 -0.6514 -0.6571  0.6341
  704MOL0     O94929   4.345  10.284   5.139  0.0423  0.4024  0.6988
  704MOL0     C94930   4.238  10.203   5.107 -0.4913  0.9171 -0.2687
  704MOL0     C94931   4.109  10.211   5.162  0.1153  0.3495  0.1731
  704MOL0     C94932   4.003  10.128   5.111 -0.0270 -0.2829  0.4944
  704MOL0     C94933   3.871  10.139   5.181  0.2538  0.6096 -0.3516
  704MOL0     C94934   4.030  10.030   5.011  0.1572 -0.5015  0.1284
  704MOL0     C94935   3.927   9.933   4.964  0.5479 -0.2756  0.4624
  704MOL0     O94936   3.811   9.990   4.928 -0.0816  0.0606  0.0804
  704MOL0     C94937   3.703   9.907   4.905  0.7501 -0.4128  0.0579
  704MOL0     C94938   3.625   9.851   5.000 -0.0804  0.1115  0.1278
  704MOL0     C94939   3.499   9.782   4.978 -0.0977 -0.2230  0.0489
  704MOL0     C94940   3.447   9.779   4.844  0.1538  0.2835 -0.1844
  704MOL0     O94941   3.328   9.719   4.819 -0.2016 -0.1351 -0.2263
  704MOL0     C94942   3.296   9.700   4.679  0.0234  0.7643  0.9728
  704MOL0     C94943   3.169   9.602   4.679  0.0949 -0.4210  0.5435
  704MOL0     C94944   3.213   9.456   4.696 -0.7922  0.1071 -0.6270
  704MOL0     C94945   3.100   9.361   4.669  0.2864 -0.4551 -0.5519
  704MOL0     C94946   3.002   9.357   4.786 -0.2797  0.0177 -0.4979
  704MOL0     C94947   2.872   9.276   4.758 -0.6381 -0.8252 -0.2496
  704MOL0     C94948   2.789   9.263   4.892 -0.3380 -0.6988  0.1535
  704MOL0     C94949   2.660   9.189   4.867 -0.9839 -0.6769 -0.2054
  704MOL0    Cl94950   2.553   9.185   5.011 -0.1976  0.3127  0.1765
  704MOL0     C94951   3.527   9.838   4.745  0.4936  0.3673  0.1784
  704MOL0     C94952   3.649   9.905   4.784 -0.3996 -0.3553  0.5217
  704MOL0     O94953   3.964   9.819   4.938 -0.0224  0.7065  1.1207
  704MOL0     C94954   4.157  10.026   4.950 -0.0454 -0.7907 -0.4680
  704MOL0     C94955   4.260  10.109   5.006  0.2086  0.2936 -0.3756
  704MOL0     N94956   4.901  10.303   5.454  0.4679 -0.3631 -1.4796
  704MOL0     N94957   4.953  10.226   5.539 -1.0343 -0.8947  0.2247
  704MOL0     C94958   5.686   9.931   5.445 -0.5976  0.0391 -0.5013
  704MOL0     C94959   5.825   9.947   5.406  0.4220  0.4213 -0.4170
  704MOL0     C94960   6.276   9.807   5.428 -0.0161  0.1336  0.5875
  704MOL0     C94961   6.297   9.739   5.304 -0.6119  0.7825 -0.0325
  704MOL0     C94962   6.431   9.718   5.273  0.5227 -0.8937  0.5664
  704MOL0     C94963   6.543   9.770   5.348 -1.2344  0.7340  0.2593
  704MOL0     O94964   6.682   9.743   5.336  0.0108  0.5543 -0.1694
  704MOL0     C94965   6.717   9.660   5.220  0.1956  0.8340  0.3286
  704MOL0     C94966   6.871   9.640   5.212  0.0967 -0.4244  0.1894
  704MOL0     C94967   6.922   9.571   5.338 -0.0377 -0.0291 -0.0980
  704MOL0     C94968   7.068   9.612   5.384  1.1002 -1.3570  0.9742
  704MOL0     C94969   7.066   9.736   5.461 -0.5079 -0.1279  0.7886
  704MOL0     C94970   7.076   9.833   5.522 -0.0285  0.3565 -1.2528
  704MOL0     C94971   6.515   9.837   5.466  0.9201  0.2507 -0.8180
  704MOL0     C94972   6.382   9.858   5.501  0.3499 -0.7757  0.5601
  704MOL0     H94973   5.925   9.638   5.503  0.9467  0.9226 -1.5318
  704MOL0     H94974   5.715   9.611   5.585 -0.6677 -1.4989 -2.4788
  704MOL0     H94975   5.448   9.634   5.581  0.8033 -0.5569  0.3025
  704MOL0     H94976   5.511   9.726   5.718 -2.1479  0.7420  0.7748
  704MOL0     H94977   5.274   9.714   5.729 -2.5566  1.8950 -0.1997
  704MOL0     H94978   5.317   9.886   5.696 -2.1541  1.6894 -0.6977
  704MOL0     H94979   5.251   9.851   5.458 -0.3850  1.1327  1.2530
  704MOL0     H94980   5.236   9.671   5.488 -0.0812 -0.8468  2.1650
  704MOL0     H94981   5.015   9.770   5.460  3.4010  0.1494 -2.0884
  704MOL0     H94982   5.058   9.676   5.611 -0.8711 -0.2907  1.2767
  704MOL0     H94983   5.068   9.863   5.747  0.8725 -0.7828 -0.3107
  704MOL0     H94984   5.064   9.983   5.615 -1.2233  1.1792  0.3995
  704MOL0     H94985   4.833   9.945   5.557  0.6378  0.6599 -0.8830
  704MOL0     H94986   4.827   9.797   5.655 -0.5494  1.4374 -1.4729
  704MOL0     H94987   4.708   9.988   5.766 -0.1171 -3.2301 -1.2838
  704MOL0     H94988   4.835   9.924   5.856 -2.3854 -0.3198  0.7899
  704MOL0     H94989   4.984  10.127   5.790  0.2223  0.3142 -0.9614
  704MOL0     H94990   4.833  10.180   5.851  0.9224 -0.0572 -0.1218
  704MOL0     H94991   4.651  10.244   5.658  0.7807 -1.6959  0.8411
  704MOL0     H94992   4.676  10.497   5.425  0.6721  0.0193  2.6630
  704MOL0     H94993   4.725  10.384   5.297 -0.7849 -1.6336 -0.1539
  704MOL0     H94994   4.499  10.335   5.490  2.8205 -0.6253  1.6580
  704MOL0     H94995   4.539  10.232   5.346  2.0882 -0.1229 -0.7200
  704MOL0     H94996   4.524  10.434   5.203 -0.2849  1.4729  0.2828
  704MOL0     H94997   4.453  10.513   5.347  2.7650  1.1196  0.0159
  704MOL0     H94998   4.259  10.446   5.225  1.7670  0.4440 -4.0793
  704MOL0     H94999   4.294  10.304   5.330  1.5792 -2.7785  0.0958
  704MOL0     H95000   4.088  10.287   5.236 -0.4145 -1.3594  1.8786
  704MOL0     H95001   3.888  10.183   5.280  0.7109 -0.0468 -0.1339
  704MOL0     H95002   3.790  10.200   5.141 -0.8419  1.7261  3.1739
  704MOL0     H95003   3.839  10.036   5.193  1.5030  0.2599  0.2403
  704MOL0     H95004   3.650   9.867   5.105 -1.0800 -3.0148  0.9459
  704MOL0     H95005   3.457   9.729   5.063 -1.6741  1.3425  0.2910
  704MOL0     H95006   3.260   9.789   4.627  0.0569  0.5844  0.6371
  704MOL0     H95007   3.376   9.663   4.615 -1.3974  2.6999 -2.1428
  704MOL0     H95008   3.089   9.637   4.746  0.1559  0.3379  0.2329
  704MOL0     H95009   3.116   9.616   4.585 -1.1521  0.0215  1.2778
  704MOL0     H95010   3.243   9.439   4.800  3.0447 -1.0426 -1.7429
  704MOL0     H95011   3.298   9.432   4.631  0.9489 -1.8316  2.1362
  704MOL0     H95012   3.043   9.392   4.581 -1.9620  1.7061  1.5002
  704MOL0     H95013   3.127   9.256   4.654 -0.4616 -0.5078 -1.6233
  704MOL0     H95014   2.972   9.459   4.812  2.1308  0.6982 -0.1503
  704MOL0     H95015   3.045   9.313   4.876  2.3465  1.6570 -0.8715
  704MOL0     H95016   2.824   9.334   4.680  0.3183  0.7926  0.3086
  704MOL0     H95017   2.898   9.175   4.725  0.9295 -0.4084 -0.3737
  704MOL0     H95018   2.766   9.360   4.936  0.7073 -0.8482  1.0724
  704MOL0     H95019   2.846   9.210   4.968 -2.0442 -3.6454 -0.4746
  704MOL0     H95020   2.689   9.087   4.838  0.1041 -0.3843 -0.1998
  704MOL0     H95021   2.607   9.247   4.791 -3.4277 -0.6911  1.3793
  704MOL0     H95022   3.490   9.847   4.643 -3.5919  1.1399  1.5275
  704MOL0     H95023   3.701   9.940   4.695 -2.1625  0.1539 -0.3535
  704MOL0     H95024   4.169   9.960   4.865 -2.2186  0.1195 -1.5584
  704MOL0     H95025   4.361  10.093   4.970  0.1571 -0.4424 -0.1993
  704MOL0     H95026   5.626  10.021   5.431  1.5505  1.3167 -2.1249
  704MOL0     H95027   5.868  10.029   5.349 -0.1606  0.2950 -1.0506
  704MOL0     H95028   6.219   9.702   5.239 -0.4208  1.8483 -0.8992
  704MOL0     H95029   6.466   9.664   5.186  2.5603  1.4115 -0.1510
  704MOL0     H95030   6.675   9.559   5.226 -1.3242  1.2310 -2.2573
  704MOL0     H95031   6.677   9.705   5.129  0.1474  1.7179  0.7763
  704MOL0     H95032   6.911   9.736   5.179 -3.4270  0.6373 -1.5049
  704MOL0     H95033   6.880   9.588   5.116 -0.6573  2.3117 -1.4911
  704MOL0     H95034   6.938   9.465   5.316  0.9967 -0.2695  1.6278
  704MOL0     H95035   6.864   9.601   5.426  0.2422  1.7465 -0.4632
  704MOL0     H95036   7.131   9.631   5.297  0.6498 -0.3759  0.8501
  704MOL0     H95037   7.123   9.539   5.445  2.0331  0.5761  2.5603
  704MOL0     H95038   7.092   9.909   5.597  0.3136 -0.4732 -0.4671
  704MOL0     H95039   6.597   9.866   5.531  2.6178 -3.0846 -1.2909
  704MOL0     H95040   6.367   9.913   5.593 -0.3297  1.7292 -0.9625
  705MOL0     O95041   8.343  11.118   0.294  0.0013  0.3764 -0.0727
  705MOL0     C95042   8.347  11.016   0.222  1.4295  0.2442 -0.5580
  705MOL0     O95043   8.423  10.914   0.239  0.0078 -0.2240 -0.1973
  705MOL0     C95044   8.542  10.921   0.301 -0.6004  0.4988 -0.1094
  705MOL0     C95045   8.619  11.044   0.308 -0.4209 -0.3143 -0.3080
  705MOL0     C95046   8.745  11.043   0.381  0.0001 -0.8065 -0.2988
  705MOL0     C95047   8.794  10.930   0.439  0.3172 -0.2469  0.2463
  705MOL0     O95048   8.905  10.922   0.513 -0.8909 -0.4745 -0.2022
  705MOL0     C95049   8.928  11.033   0.608  0.5571  0.9956  0.3095
  705MOL0     C95050   9.073  11.017   0.666 -0.0514 -0.9108  1.0436
  705MOL0     C95051   9.098  10.886   0.739 -0.1388 -0.3784  0.2519
  705MOL0     C95052   9.150  10.915   0.877  0.0282  0.1707  0.9673
  705MOL0     C95053   9.174  10.792   0.962 -0.0933  0.8820 -0.7519
  705MOL0     C95054   9.153  10.820   1.111  0.4199 -1.2163  0.4258
  705MOL0     C95055   8.998  10.795   1.157 -0.8147 -0.6444  0.5009
  705MOL0     C95056   8.957  10.872   1.284  0.0445  0.0475 -0.0879
  705MOL0     N95057   9.016  10.816   1.402 -0.4936 -0.0982  0.3105
  705MOL0     C95058   9.024  10.690   1.442 -0.4897  0.4676  0.5190
  705MOL0     C95059   9.047  10.685   1.577 -0.1086  0.2034  0.0380
  705MOL0     C95060   9.054  10.564   1.666 -0.6332  0.0939  0.4245
  705MOL0     C95061   8.917  10.544   1.742  0.1721  0.6312 -0.1928
  705MOL0     C95062   8.831  10.661   1.780  0.1136 -0.2444  0.7888
  705MOL0     C95063   8.713  10.640   1.865 -0.2749 -0.1149 -0.4413
  705MOL0     O95064   8.617  10.567   1.785  0.5650  0.5821  0.3830
  705MOL0     C95065   8.494  10.541   1.837  1.1715  0.1723  0.3768
  705MOL0     C95066   8.444  10.586   1.954  0.7875  0.6049  0.5632
  705MOL0     C95067   8.310  10.555   2.004 -0.8353  0.7234  0.2944
  705MOL0     C95068   8.252  10.610   2.129 -0.4463 -0.2113 -0.4431
  705MOL0     C95069   8.239  10.464   1.920 -0.2340  0.9723  0.8327
  705MOL0     C95070   8.112  10.398   1.959  0.1032 -0.2337  0.2198
  705MOL0     O95071   8.044  10.336   1.854 -0.2953  0.5625 -0.0229
  705MOL0     C95072   7.910  10.334   1.869  0.3202 -0.3573  0.6529
  705MOL0     C95073   7.843  10.209   1.879  1.2131  0.2746 -0.9098
  705MOL0     C95074   7.698  10.198   1.894 -0.9424 -0.1746  0.3639
  705MOL0     C95075   7.619  10.310   1.858  0.3209 -0.1552 -0.5018
  705MOL0     O95076   7.478  10.309   1.857 -0.7256 -0.0009 -0.2475
  705MOL0     C95077   7.402  10.243   1.963 -0.1019 -0.0967 -0.6168
  705MOL0     C95078   7.252  10.261   1.934  0.3478  0.4705 -0.4648
  705MOL0     C95079   7.160  10.273   2.055  0.0003  0.2703 -0.2810
  705MOL0     C95080   7.012  10.291   2.022 -0.5523 -0.9081  0.1892
  705MOL0     C95081   6.940  10.287   2.160  0.0663  0.6998  0.8365
  705MOL0     C95082   6.790  10.309   2.161  0.6182 -0.0779 -0.1393
  705MOL0     C95083   6.754  10.458   2.118 -0.4955  0.5549  0.2170
  705MOL0     C95084   6.598  10.479   2.108 -0.5209  0.6801  0.6741
  705MOL0    Cl95085   6.501  10.455   2.262  0.4370  0.2092  0.1464
  705MOL0     C95086   7.686  10.430   1.837 -0.4156 -0.5366 -0.5140
  705MOL0     C95087   7.826  10.438   1.836  0.9727 -0.6421  0.3311
  705MOL0     O95088   8.072  10.395   2.075  0.0831 -0.1429  0.1550
  705MOL0     C95089   8.289  10.418   1.788 -0.3071  0.4480 -0.4348
  705MOL0     C95090   8.416  10.462   1.750 -0.0720 -0.3117  0.3930
  705MOL0     N95091   9.064  10.816   1.615  0.1193  1.1224  0.1130
  705MOL0     N95092   9.048  10.891   1.514 -0.1693 -0.2356 -0.1167
  705MOL0     C95093   8.725  10.803   0.425 -0.3295 -0.7293  0.2967
  705MOL0     C95094   8.596  10.803   0.359  0.0432 -0.2227 -0.1349
  705MOL0     C95095   8.256  11.013   0.105 -0.2782  0.9803  0.4259
  705MOL0     C95096   8.185  11.128   0.066 -0.2557  0.0861 -1.0872
  705MOL0     C95097   8.116  11.141  -0.057 -0.4264  0.2655  0.2250
  705MOL0     C95098   8.096  11.023  -0.127  0.5542 -0.2363  0.6105
  705MOL0     O95099   8.013  11.033  -0.241 -0.2116 -0.7401 -0.3310
  705MOL0     C95100   7.870  11.022  -0.211 -0.2637 -0.6810  0.8837
  705MOL0     C95101   7.807  10.921  -0.302  0.5520 -0.6462  0.2681
  705MOL0     C95102   7.849  10.782  -0.252  0.5482  0.4879  0.2842
  705MOL0     C95103   7.781  10.676  -0.338  1.1601  0.9572 -0.1493
  705MOL0     C95104   7.787  10.547  -0.272 -0.2172  0.0160 -0.8397
  705MOL0     C95105   7.783  10.446  -0.207 -0.2091  0.0644 -0.6156
  705MOL0     C95106   8.151  10.901  -0.090  0.1294 -0.4895  0.1734
  705MOL0     C95107   8.226  10.898   0.027  0.3311 -1.0918  0.1608
  705MOL0     H95108   8.585  11.139   0.268 -1.3852  0.1038  1.3879
  705MOL0     H95109   8.791  11.141   0.389 -0.2999 -0.8134  2.5776
  705MOL0     H95110   8.934  11.129   0.555  2.0949 -0.2642 -1.9859
  705MOL0     H95111   8.862  11.020   0.694  1.3399 -3.1993  0.5062
  705MOL0     H95112   9.149  11.028   0.588  0.4896  0.2952  1.7082
  705MOL0     H95113   9.088  11.101   0.735 -2.6759 -0.3332  1.0102
  705MOL0     H95114   9.011  10.820   0.738 -1.1497  0.8413  1.9496
  705MOL0     H95115   9.174  10.838   0.677 -0.1190 -1.1727  0.8863
  705MOL0     H95116   9.235  10.985   0.878 -1.4518  2.1128  3.4712
  705MOL0     H95117   9.079  10.979   0.930 -0.8985 -0.5387  0.5978
  705MOL0     H95118   9.114  10.708   0.927 -2.1149  1.7254  0.5108
  705MOL0     H95119   9.275  10.750   0.959 -0.2619  0.3250  0.8015
  705MOL0     H95120   9.216  10.764   1.181  0.7674  0.2824  1.3551
  705MOL0     H95121   9.180  10.925   1.124  0.6724 -1.4126  1.5214
  705MOL0     H95122   8.940  10.829   1.070 -1.3447 -3.3399 -0.2968
  705MOL0     H95123   8.981  10.689   1.177  0.0015 -0.4000  2.8484
  705MOL0     H95124   8.849  10.861   1.295  0.1861 -1.2101  0.0848
  705MOL0     H95125   8.979  10.979   1.271 -2.5093  0.6710  0.2056
  705MOL0     H95126   8.998  10.606   1.378 -2.9702  0.7284  1.0678
  705MOL0     H95127   9.071  10.479   1.600  2.8511  0.9028  0.1015
  705MOL0     H95128   9.144  10.556   1.728  2.6559 -0.5168 -3.9653
  705MOL0     H95129   8.946  10.486   1.830 -0.9631 -1.6084 -1.2245
  705MOL0     H95130   8.854  10.483   1.676 -0.3225  0.9929 -0.0613
  705MOL0     H95131   8.790  10.716   1.695  0.0061 -1.7399 -0.1649
  705MOL0     H95132   8.895  10.728   1.839 -1.3125  2.4686 -0.5891
  705MOL0     H95133   8.668  10.740   1.872 -1.8988 -0.8638  0.3828
  705MOL0     H95134   8.731  10.596   1.963 -0.9556 -2.1131 -1.1775
  705MOL0     H95135   8.500  10.656   2.016 -2.3405  0.6340  3.6734
  705MOL0     H95136   8.265  10.540   2.212  0.0786  1.7798  1.2347
  705MOL0     H95137   8.305  10.704   2.147 -0.3234  0.1385 -2.3445
  705MOL0     H95138   8.151  10.645   2.104 -1.6056 -4.1699 -2.1003
  705MOL0     H95139   7.908  10.122   1.886 -2.0163 -2.2287  1.1741
  705MOL0     H95140   7.657  10.104   1.928 -0.1200 -0.9831 -0.8038
  705MOL0     H95141   7.424  10.137   1.981  0.5405 -0.2949 -2.3969
  705MOL0     H95142   7.422  10.291   2.059 -0.8254 -1.6395  0.3567
  705MOL0     H95143   7.240  10.349   1.870  1.5514  0.6942 -0.4066
  705MOL0     H95144   7.236  10.170   1.876  1.2413 -2.1780  3.1162
  705MOL0     H95145   7.198  10.357   2.115 -1.9650 -0.6841  2.4581
  705MOL0     H95146   7.165  10.185   2.119  0.4034  1.1189  0.8946
  705MOL0     H95147   6.998  10.383   1.965 -0.9507 -2.0697 -1.6923
  705MOL0     H95148   6.974  10.217   1.951 -3.6074  0.6645  0.0372
  705MOL0     H95149   6.985  10.373   2.211  1.1677  1.0859 -0.7044
  705MOL0     H95150   6.959  10.192   2.211 -3.2554  0.5639  2.0632
  705MOL0     H95151   6.746  10.233   2.097  3.6842 -1.2142 -1.0982
  705MOL0     H95152   6.760  10.310   2.267  1.8028  1.5480  0.2209
  705MOL0     H95153   6.800  10.483   2.022  2.2707 -2.1664  0.6762
  705MOL0     H95154   6.800  10.518   2.197  1.7422 -0.8631  0.0717
  705MOL0     H95155   6.561  10.413   2.030  1.5379 -0.8791  0.9406
  705MOL0     H95156   6.577  10.578   2.065 -0.6878 -0.2703 -1.5802
  705MOL0     H95157   7.627  10.517   1.810  1.4583  0.2471 -2.3577
  705MOL0     H95158   7.868  10.533   1.802  1.7178 -1.3302 -0.7293
  705MOL0     H95159   8.238  10.362   1.711  0.7420  0.8580 -1.4462
  705MOL0     H95160   8.452  10.418   1.658  0.1896  0.0948  0.2986
  705MOL0     H95161   8.769  10.714   0.470 -1.0087  0.5232  3.7240
  705MOL0     H95162   8.549  10.706   0.348  2.0983 -1.2838  0.0580
  705MOL0     H95163   8.199  11.214   0.131 -0.9070 -1.2963  0.9797
  705MOL0     H95164   8.058  11.230  -0.077  0.3541  1.1149  1.5953
  705MOL0     H95165   7.847  11.007  -0.105  2.4152  1.7408  1.9604
  705MOL0     H95166   7.831  11.121  -0.237  0.8558 -0.4798 -0.1097
  705MOL0     H95167   7.833  10.955  -0.403  0.0427  2.0926  0.9807
  705MOL0     H95168   7.699  10.935  -0.296  1.0091  4.2292  0.6569
  705MOL0     H95169   7.825  10.781  -0.145 -0.6964  1.9879  0.0619
  705MOL0     H95170   7.956  10.763  -0.252 -0.0391 -3.7039 -0.6106
  705MOL0     H95171   7.829  10.670  -0.436  2.3081  0.3760  0.4273
  705MOL0     H95172   7.672  10.686  -0.348  0.7693 -1.5319  0.8694
  705MOL0     H95173   7.782  10.349  -0.162 -1.2939 -1.2679 -3.2705
  705MOL0     H95174   8.131  10.811  -0.147  0.9083 -1.5719  1.5310
  705MOL0     H95175   8.266  10.803   0.059  1.3108 -1.0265 -0.7977
  706MOL0     O95176   6.588   8.396   0.659 -0.2919  0.3725 -0.3331
  706MOL0     C95177   6.676   8.310   0.678 -0.0335  0.0543 -0.2366
  706MOL0     O95178   6.664   8.201   0.756  0.4322 -0.4503 -0.6727
  706MOL0     C95179   6.558   8.182   0.840 -0.7720 -0.0923 -0.7746
  706MOL0     C95180   6.427   8.232   0.826 -0.7234 -0.0140  0.7801
  706MOL0     C95181   6.327   8.206   0.927 -0.3726  1.1075  1.0670
  706MOL0     C95182   6.351   8.116   1.031  0.2874  0.2364  0.2354
  706MOL0     O95183   6.246   8.100   1.125 -0.4622  0.2625 -0.0166
  706MOL0     C95184   6.291   8.093   1.258  0.2905 -0.8603 -0.2928
  706MOL0     C95185   6.307   7.954   1.320 -0.0487 -0.2956 -0.0521
  706MOL0     C95186   6.174   7.875   1.326  0.9925  0.0480 -0.6819
  706MOL0     C95187   6.125   7.879   1.476  0.5585 -0.0197 -0.0392
  706MOL0     C95188   5.996   7.799   1.491 -0.3484  0.4064 -0.4661
  706MOL0     C95189   5.916   7.844   1.615  0.0579  0.6930 -0.4640
  706MOL0     C95190   5.855   7.984   1.618 -0.0062  0.2947  0.1363
  706MOL0     C95191   5.756   7.988   1.741 -0.2709 -0.6801 -0.3584
  706MOL0     N95192   5.710   8.127   1.762 -0.2188  0.9133 -0.1992
  706MOL0     C95193   5.576   8.167   1.770  0.2548 -0.2643  0.2788
  706MOL0     C95194   5.582   8.291   1.812 -0.3009  1.4768 -0.2698
  706MOL0     C95195   5.469   8.380   1.858 -0.4270  0.1110  0.6778
  706MOL0     C95196   5.331   8.321   1.840 -0.6021 -0.3532  0.6310
  706MOL0     C95197   5.228   8.421   1.899 -0.6467  0.3751  0.0478
  706MOL0     C95198   5.084   8.366   1.909 -0.9865  0.0032  0.4867
  706MOL0     O95199   5.012   8.419   1.798  0.9204 -0.1026  0.4197
  706MOL0     C95200   4.880   8.388   1.781 -0.7825  0.7749  0.6518
  706MOL0     C95201   4.790   8.344   1.876 -0.2179 -0.4919  0.4568
  706MOL0     C95202   4.649   8.327   1.846 -0.0133  0.4502  0.3178
  706MOL0     C95203   4.576   8.273   1.968  0.2289  0.1420  0.0579
  706MOL0     C95204   4.598   8.363   1.719 -0.3645  0.4232 -0.4416
  706MOL0     C95205   4.455   8.363   1.683 -0.8299 -0.0277 -0.1263
  706MOL0     O95206   4.422   8.423   1.564  0.0211  0.2417  0.4159
  706MOL0     C95207   4.291   8.473   1.539 -0.4572  0.1766 -1.3368
  706MOL0     C95208   4.224   8.440   1.420 -0.2547 -0.6294  0.5157
  706MOL0     C95209   4.095   8.501   1.402 -0.3540 -0.6074 -0.1076
  706MOL0     C95210   4.030   8.574   1.500 -0.2683 -0.4195  0.1228
  706MOL0     O95211   3.916   8.644   1.474 -0.2783 -0.2723 -0.1198
  706MOL0     C95212   3.932   8.713   1.348 -0.2593 -0.0822 -0.4035
  706MOL0     C95213   3.859   8.851   1.339 -0.1409 -0.7607 -0.3434
  706MOL0     C95214   3.865   8.908   1.192 -0.5200 -0.1297  0.3837
  706MOL0     C95215   3.992   8.989   1.172  0.0301 -0.4579  0.0835
  706MOL0     C95216   3.967   9.141   1.179  0.0954 -0.5533  0.4753
  706MOL0     C95217   3.909   9.191   1.314  0.1161 -0.2756  0.4939
  706MOL0     C95218   3.852   9.338   1.304  0.3737  0.4442 -0.3922
  706MOL0     C95219   3.952   9.439   1.352 -0.2140  0.1379  0.2054
  706MOL0    Cl95220   4.092   9.447   1.248  0.5357 -0.4174 -0.0478
  706MOL0     C95221   4.096   8.583   1.625  0.2991 -0.7163  0.0608
  706MOL0     C95222   4.219   8.525   1.648 -0.1367  0.2538 -0.6798
  706MOL0     O95223   4.376   8.316   1.764 -0.5180 -0.2869 -0.1048
  706MOL0     C95224   4.690   8.394   1.621 -0.2574 -0.6118  1.8755
  706MOL0     C95225   4.828   8.409   1.653  0.1060 -0.0321  0.5074
  706MOL0     N95226   5.715   8.325   1.813  0.6415 -0.5640  0.3810
  706MOL0     N95227   5.788   8.227   1.791 -0.6784 -0.6982 -0.1365
  706MOL0     C95228   6.477   8.069   1.041 -0.1270 -0.0751 -0.2051
  706MOL0     C95229   6.574   8.095   0.947 -0.1680  0.7557 -0.0588
  706MOL0     C95230   6.803   8.359   0.625  0.1936 -1.3026 -0.0797
  706MOL0     C95231   6.806   8.456   0.529 -0.9855 -0.0093  1.1635
  706MOL0     C95232   6.932   8.506   0.480 -0.0177 -0.4202  0.0232
  706MOL0     C95233   7.051   8.449   0.518 -0.6950 -0.3601 -0.2262
  706MOL0     O95234   7.171   8.468   0.449  0.0098 -0.0470  0.4840
  706MOL0     C95235   7.239   8.587   0.463 -0.0211 -0.5221  0.1532
  706MOL0     C95236   7.302   8.586   0.603 -0.4030  0.5100 -0.7306
  706MOL0     C95237   7.392   8.706   0.617  0.0377  0.6715  0.2353
  706MOL0     C95238   7.494   8.676   0.734 -0.3419 -0.3538 -0.0553
  706MOL0     C95239   7.587   8.785   0.770  0.4581 -0.2523 -0.1787
  706MOL0     C95240   7.661   8.879   0.777 -0.6520 -0.4463  0.3577
  706MOL0     C95241   7.042   8.343   0.607 -0.0402 -0.4115 -0.0815
  706MOL0     C95242   6.922   8.299   0.662  0.6295 -0.5817 -0.0046
  706MOL0     H95243   6.383   8.282   0.741 -0.0658 -1.7325 -0.6215
  706MOL0     H95244   6.224   8.238   0.911 -0.6851 -0.3599 -0.1497
  706MOL0     H95245   6.388   8.143   1.263  0.7627 -1.7745 -0.0321
  706MOL0     H95246   6.232   8.151   1.329  2.6868  0.6147  0.6392
  706MOL0     H95247   6.385   7.906   1.260 -1.5683  0.6947 -3.0837
  706MOL0     H95248   6.343   7.967   1.422 -3.4347  0.7920  1.1247
  706MOL0     H95249   6.094   7.924   1.269  0.2935  1.7524  1.6430
  706MOL0     H95250   6.182   7.770   1.297 -1.0639  0.0947 -1.6076
  706MOL0     H95251   6.202   7.840   1.544  1.9322  0.1491 -1.4502
  706MOL0     H95252   6.109   7.983   1.508 -0.4981 -0.5110  1.1329
  706MOL0     H95253   5.937   7.814   1.400 -0.8127  2.1430  0.0867
  706MOL0     H95254   6.027   7.696   1.511  1.3513  1.1041  0.7545
  706MOL0     H95255   5.839   7.768   1.629  2.4071 -1.5786  0.9981
  706MOL0     H95256   5.984   7.826   1.698  0.5935  2.2608 -0.5281
  706MOL0     H95257   5.930   8.063   1.629  3.6950 -3.0471  1.1577
  706MOL0     H95258   5.800   7.995   1.524  1.8065 -1.4680 -1.2220
  706MOL0     H95259   5.804   7.940   1.827 -0.8783 -3.1881 -1.3124
  706MOL0     H95260   5.667   7.929   1.715 -1.1420  0.7038 -0.6126
  706MOL0     H95261   5.495   8.095   1.764  1.6156 -1.9393  0.9413
  706MOL0     H95262   5.495   8.397   1.963  0.0421  1.2920  0.3827
  706MOL0     H95263   5.481   8.466   1.792  1.5635 -1.7025 -1.4767
  706MOL0     H95264   5.327   8.220   1.882 -0.0819 -1.4212 -1.7228
  706MOL0     H95265   5.314   8.314   1.732 -3.5369  4.5124  0.4811
  706MOL0     H95266   5.226   8.511   1.836  0.6889  2.2841  2.5034
  706MOL0     H95267   5.275   8.436   1.997 -1.1794 -1.5865  0.6466
  706MOL0     H95268   5.046   8.415   1.999 -0.5743 -1.4607  1.5085
  706MOL0     H95269   5.079   8.258   1.926  1.6553 -0.0947  1.1508
  706MOL0     H95270   4.829   8.316   1.973 -1.3295  0.7237  1.2846
  706MOL0     H95271   4.505   8.196   1.936  1.0461 -0.4955 -0.2590
  706MOL0     H95272   4.649   8.224   2.033 -1.2647  1.3938  2.8487
  706MOL0     H95273   4.529   8.351   2.028  0.6419  1.3688 -1.1490
  706MOL0     H95274   4.268   8.384   1.338 -1.1892  0.7895 -1.0312
  706MOL0     H95275   4.063   8.498   1.298  0.5580 -0.5906 -0.3973
  706MOL0     H95276   4.032   8.734   1.309 -0.2854 -0.3407 -0.6194
  706MOL0     H95277   3.880   8.656   1.270 -2.4530  5.4457 -3.6168
  706MOL0     H95278   3.759   8.819   1.368  0.0147 -0.6201  0.3514
  706MOL0     H95279   3.905   8.913   1.417 -0.7538 -1.6745  0.7620
  706MOL0     H95280   3.772   8.963   1.178  0.7141  2.2062  0.9487
  706MOL0     H95281   3.878   8.826   1.120  2.4671  1.3883 -0.9720
  706MOL0     H95282   4.067   8.963   1.247 -1.5295  1.6149  2.5016
  706MOL0     H95283   4.033   8.976   1.071  3.0915  4.4053  0.4054
  706MOL0     H95284   3.902   9.173   1.097  1.1015 -0.4949 -0.3215
  706MOL0     H95285   4.054   9.203   1.157 -2.5741  3.2501 -0.3585
  706MOL0     H95286   3.823   9.126   1.337  0.1904  0.6933  4.0693
  706MOL0     H95287   3.973   9.177   1.402  0.8362 -1.6848 -0.2004
  706MOL0     H95288   3.765   9.362   1.365 -0.0431  2.4152 -1.6823
  706MOL0     H95289   3.838   9.366   1.199  0.8403  2.8665  0.1454
  706MOL0     H95290   3.987   9.404   1.449 -0.8685 -0.2242  0.3198
  706MOL0     H95291   3.895   9.532   1.350  1.1998  1.0896 -2.8764
  706MOL0     H95292   4.057   8.636   1.711 -0.5097  2.2707 -2.0146
  706MOL0     H95293   4.256   8.551   1.746 -1.4072  0.0996 -0.1454
  706MOL0     H95294   4.657   8.401   1.518  1.6435  0.8749  1.3211
  706MOL0     H95295   4.900   8.433   1.576  1.1707  0.7360  1.7109
  706MOL0     H95296   6.518   7.997   1.112  1.1200 -0.1360 -0.9521
  706MOL0     H95297   6.665   8.036   0.957 -0.2669  0.3491 -1.4410
  706MOL0     H95298   6.716   8.500   0.487  0.1475 -0.2192 -1.7629
  706MOL0     H95299   6.931   8.593   0.416  0.5311 -0.4841 -0.0765
  706MOL0     H95300   7.316   8.586   0.385  0.1104  1.1686  0.2226
  706MOL0     H95301   7.180   8.677   0.444  1.2616  0.4186  0.4862
  706MOL0     H95302   7.366   8.498   0.610 -0.8999  0.0489 -1.8606
  706MOL0     H95303   7.234   8.587   0.689  0.2529 -1.5328 -0.1456
  706MOL0     H95304   7.345   8.803   0.636 -0.1349  0.9147 -1.3080
  706MOL0     H95305   7.443   8.719   0.521  1.3929 -0.2833  0.7899
  706MOL0     H95306   7.546   8.586   0.700 -1.1627 -1.0036  0.3570
  706MOL0     H95307   7.451   8.649   0.831  0.5485 -3.4973 -0.4131
  706MOL0     H95308   7.737   8.954   0.776 -0.3289 -0.7727  0.2887
  706MOL0     H95309   7.128   8.298   0.655  1.3176  2.3910  0.2840
  706MOL0     H95310   6.911   8.218   0.734 -0.7457 -1.0632 -0.7335
  707MOL0     O95311   0.030   8.074   3.704 -0.5148  0.4848  0.2910
  707MOL0     C95312   0.043   7.962   3.769 -0.3002 -0.0412  0.4288
  707MOL0     O95313  -0.057   7.874   3.813 -0.4939 -0.8762  1.2090
  707MOL0     C95314  -0.188   7.903   3.770  0.0288 -0.1124  0.4954
  707MOL0     C95315  -0.292   7.853   3.847 -0.2691  0.6431  0.5555
  707MOL0     C95316  -0.423   7.863   3.810  0.0096  0.4109  0.5136
  707MOL0     C95317  -0.461   7.920   3.691  0.0762 -0.3931  0.2448
  707MOL0     O95318  -0.584   7.955   3.650 -0.4301 -0.4004 -0.5637
  707MOL0     C95319  -0.698   7.911   3.718  0.1982  0.2532 -0.7432
  707MOL0     C95320  -0.805   8.018   3.694  0.4525  0.0151  0.7184
  707MOL0     C95321  -0.931   7.969   3.767  0.2641  0.6026 -0.5009
  707MOL0     C95322  -1.050   8.056   3.724 -0.5633 -0.1730 -0.0256
  707MOL0     C95323  -1.189   8.032   3.792  0.4209 -0.0041 -0.1318
  707MOL0     C95324  -1.286   8.146   3.746 -0.0470 -0.4750 -0.0556
  707MOL0     C95325  -1.430   8.107   3.763 -0.5522  0.1304  0.3429
  707MOL0     C95326  -1.473   8.024   3.642 -0.3914 -0.7793 -0.3114
  707MOL0     N95327  -1.617   8.007   3.653  1.2875 -0.1497  0.6233
  707MOL0     C95328  -1.711   8.099   3.655  0.6061 -0.2622  0.5158
  707MOL0     C95329  -1.837   8.043   3.664 -1.0051  0.0094 -0.3961
  707MOL0     C95330  -1.966   8.117   3.678  1.1910 -0.0250  0.3762
  707MOL0     C95331  -2.018   8.130   3.532  0.8514  0.0849 -0.2409
  707MOL0     C95332  -2.172   8.124   3.517 -0.6480 -0.2818  0.4262
  707MOL0     C95333  -2.213   8.110   3.365 -0.1838  0.8726  0.3148
  707MOL0     O95334  -2.341   8.163   3.353 -0.3047 -0.0801  0.7632
  707MOL0     C95335  -2.442   8.109   3.418 -0.8109 -0.3257 -0.5828
  707MOL0     C95336  -2.453   7.979   3.481 -0.4217  0.5825  0.1132
  707MOL0     C95337  -2.564   7.941   3.554  0.3218  0.0058  0.3017
  707MOL0     C95338  -2.566   7.796   3.611  1.0271 -0.1256  0.4907
  707MOL0     C95339  -2.684   8.029   3.558 -0.9139  0.4140 -0.2359
  707MOL0     C95340  -2.809   7.977   3.617  0.1274  0.8200 -0.1892
  707MOL0     O95341  -2.905   8.073   3.658 -0.6958 -0.0113 -0.3828
  707MOL0     C95342  -3.031   8.048   3.701 -0.3102  0.8796  0.4251
  707MOL0     C95343  -3.107   8.157   3.733  0.2210 -0.3288  0.4601
  707MOL0     C95344  -3.238   8.153   3.775 -0.1861 -0.5997  0.0325
  707MOL0     C95345  -3.303   8.027   3.791  0.4581  0.4813 -0.2938
  707MOL0     O95346  -3.430   8.008   3.834 -0.0455  0.1805 -0.0933
  707MOL0     C95347  -3.487   8.128   3.888  0.2475  0.2901  0.2874
  707MOL0     C95348  -3.634   8.097   3.947 -0.7052 -0.5885  0.1541
  707MOL0     C95349  -3.692   8.237   3.987  0.4874 -0.7777 -0.4340
  707MOL0     C95350  -3.636   8.283   4.126 -0.2317 -0.2319 -0.0456
  707MOL0     C95351  -3.709   8.402   4.176  0.7435  0.0120  0.1572
  707MOL0     C95352  -3.717   8.513   4.072 -0.2357  0.3208 -0.6497
  707MOL0     C95353  -3.655   8.647   4.122  0.1918  1.1136  0.6697
  707MOL0     C95354  -3.654   8.779   4.048  0.4480  0.3765  0.1926
  707MOL0    Cl95355  -3.623   8.778   3.879  0.0029 -0.3616 -0.2619
  707MOL0     C95356  -3.228   7.912   3.757  1.2254 -0.0474  0.2109
  707MOL0     C95357  -3.093   7.921   3.715  0.4871  0.4426 -1.1613
  707MOL0     O95358  -2.841   7.864   3.600  0.0558  0.5373  0.4679
  707MOL0     C95359  -2.675   8.157   3.496 -0.3871 -0.0252 -0.1214
  707MOL0     C95360  -2.551   8.195   3.436 -0.7488 -0.1469  0.3646
  707MOL0     N95361  -1.810   7.903   3.678  0.0375  0.0065  0.2001
  707MOL0     N95362  -1.682   7.890   3.657  0.7581  0.8267  0.4204
  707MOL0     C95363  -0.366   7.974   3.612  0.5517 -0.0286  0.0873
  707MOL0     C95364  -0.229   7.961   3.645  0.7595  1.1674 -0.6528
  707MOL0     C95365   0.181   7.935   3.803 -0.2709 -0.3946  0.3512
  707MOL0     C95366   0.209   7.830   3.892 -0.8633  0.7825  0.6625
  707MOL0     C95367   0.344   7.810   3.931  0.4488  0.5172 -0.2646
  707MOL0     C95368   0.443   7.894   3.903 -1.2492 -0.5056 -0.6403
  707MOL0     O95369   0.566   7.855   3.959  0.3190  0.2422  0.1572
  707MOL0     C95370   0.675   7.875   3.869 -0.5731 -0.3181 -0.4726
  707MOL0     C95371   0.816   7.864   3.949  0.9104 -0.0510 -0.4257
  707MOL0     C95372   0.938   7.914   3.863  0.4097 -0.1904  0.4648
  707MOL0     C95373   1.065   7.920   3.944  0.4949  0.2548 -0.1511
  707MOL0     C95374   1.178   7.965   3.866 -0.1114  0.5930  0.8779
  707MOL0     C95375   1.255   8.006   3.777 -0.5909 -0.3954 -0.5368
  707MOL0     C95376   0.415   7.996   3.814 -0.3140  0.4352 -0.0063
  707MOL0     C95377   0.287   8.024   3.775 -1.2999  0.3830 -0.1977
  707MOL0     H95378  -0.263   7.800   3.937  2.0050 -0.8885 -0.9779
  707MOL0     H95379  -0.490   7.827   3.888  1.2525  0.8668  1.8500
  707MOL0     H95380  -0.725   7.817   3.669  3.4612 -0.9381 -0.5094
  707MOL0     H95381  -0.692   7.901   3.827 -2.4786 -0.7853 -0.6221
  707MOL0     H95382  -0.765   8.115   3.726  1.7273 -1.0799  2.6903
  707MOL0     H95383  -0.833   8.024   3.589  1.1118  0.4266  0.5576
  707MOL0     H95384  -0.945   7.866   3.733  0.6542  0.5800 -0.5961
  707MOL0     H95385  -0.915   7.956   3.874  1.5389 -1.1098 -0.8523
  707MOL0     H95386  -1.013   8.159   3.722  0.4644 -0.4911  1.0367
  707MOL0     H95387  -1.062   8.036   3.617 -0.9864 -0.0185 -0.0081
  707MOL0     H95388  -1.221   7.931   3.765 -1.9032  1.0832 -1.7756
  707MOL0     H95389  -1.175   8.046   3.899  1.0155 -0.9772 -0.0760
  707MOL0     H95390  -1.259   8.237   3.800 -3.3073  1.4309 -1.3089
  707MOL0     H95391  -1.270   8.156   3.638 -0.2318  0.0852 -0.0369
  707MOL0     H95392  -1.444   8.049   3.855 -3.5286  0.6824  0.3422
  707MOL0     H95393  -1.489   8.198   3.776  0.0263  0.2684  2.1946
  707MOL0     H95394  -1.417   7.930   3.643  1.6170  0.3583 -0.4870
  707MOL0     H95395  -1.460   8.075   3.547 -1.0643 -0.9833 -0.5174
  707MOL0     H95396  -1.695   8.206   3.662  3.3180 -0.6692  2.1794
  707MOL0     H95397  -2.035   8.055   3.735  1.4968 -2.3788 -1.6258
  707MOL0     H95398  -1.949   8.218   3.714  1.8360 -0.0144  0.0649
  707MOL0     H95399  -1.998   8.034   3.482 -4.3188 -2.9159  2.6320
  707MOL0     H95400  -1.968   8.217   3.486 -0.4771  1.8608  1.5209
  707MOL0     H95401  -2.215   8.214   3.561  1.8465  0.5915  1.2692
  707MOL0     H95402  -2.209   8.034   3.567 -1.8873  0.0121  0.0634
  707MOL0     H95403  -2.215   8.005   3.335  1.1973  0.5906  1.1413
  707MOL0     H95404  -2.144   8.165   3.300 -1.1725  2.8060  0.8204
  707MOL0     H95405  -2.374   7.906   3.469 -1.7334 -1.1338  1.3407
  707MOL0     H95406  -2.618   7.731   3.540  1.5485 -0.1711  0.1449
  707MOL0     H95407  -2.469   7.752   3.638  2.3728  0.9096 -2.2457
  707MOL0     H95408  -2.630   7.784   3.699 -0.8125 -1.1684 -0.9048
  707MOL0     H95409  -3.072   8.259   3.728  0.4301 -0.3690  0.9544
  707MOL0     H95410  -3.278   8.251   3.798  2.4593  0.2582  1.5114
  707MOL0     H95411  -3.424   8.162   3.971 -0.4592 -1.7202  1.7356
  707MOL0     H95412  -3.486   8.209   3.815 -2.6096  1.1101  1.0271
  707MOL0     H95413  -3.708   8.053   3.880 -2.0704  1.4751  0.2218
  707MOL0     H95414  -3.611   8.034   4.033 -1.4028 -2.5019 -0.9927
  707MOL0     H95415  -3.800   8.232   4.004  0.6689 -0.3695  0.9592
  707MOL0     H95416  -3.687   8.313   3.909  0.6445  1.6387  1.8089
  707MOL0     H95417  -3.631   8.201   4.198  0.3181 -0.0081  0.1726
  707MOL0     H95418  -3.537   8.324   4.104 -0.6251  1.8884  1.6660
  707MOL0     H95419  -3.660   8.429   4.270  2.7889  0.4948 -0.9656
  707MOL0     H95420  -3.808   8.363   4.199  0.2486  0.2372 -1.4811
  707MOL0     H95421  -3.657   8.478   3.987  0.1801 -2.2677  0.6132
  707MOL0     H95422  -3.820   8.519   4.037 -1.7395 -1.2224  3.0450
  707MOL0     H95423  -3.551   8.624   4.146 -0.3060 -0.3021  1.5903
  707MOL0     H95424  -3.702   8.669   4.218  0.9383  4.7395  0.3142
  707MOL0     H95425  -3.583   8.847   4.095 -1.1585  1.7161  0.7952
  707MOL0     H95426  -3.758   8.812   4.053 -1.0575 -3.4088 -2.1746
  707MOL0     H95427  -3.284   7.820   3.750 -1.8821  1.5421  2.0061
  707MOL0     H95428  -3.054   7.825   3.683 -2.6162 -0.9588 -1.0850
  707MOL0     H95429  -2.752   8.230   3.474 -0.1959 -0.3148 -1.9478
  707MOL0     H95430  -2.531   8.294   3.397  2.9159  0.2285  2.7587
  707MOL0     H95431  -0.393   8.036   3.527  0.7234  1.5178  1.1066
  707MOL0     H95432  -0.152   7.976   3.571  0.2289  0.8937 -1.2721
  707MOL0     H95433   0.132   7.766   3.933  0.4253 -0.3330  1.4229
  707MOL0     H95434   0.358   7.741   4.013 -1.2197  2.4500  1.7621
  707MOL0     H95435   0.657   7.803   3.789 -0.2922  2.6190 -3.3845
  707MOL0     H95436   0.676   7.974   3.822 -1.2251 -0.7041 -1.3158
  707MOL0     H95437   0.841   7.762   3.979  1.5388  0.0313 -0.6515
  707MOL0     H95438   0.800   7.923   4.040 -2.2376 -3.3427  1.4249
  707MOL0     H95439   0.933   8.013   3.817 -1.3574 -0.0238  0.9256
  707MOL0     H95440   0.961   7.853   3.775 -0.0106 -1.5683  1.2754
  707MOL0     H95441   1.084   7.821   3.986  0.1292  0.7303  1.1876
  707MOL0     H95442   1.042   7.986   4.029 -1.4164 -0.5720  0.0146
  707MOL0     H95443   1.322   8.051   3.706  0.8661 -2.1412 -0.3333
  707MOL0     H95444   0.487   8.076   3.800  0.2225 -0.2310 -1.2265
  707MOL0     H95445   0.281   8.115   3.716  2.1257  2.6368  2.4881
  708MOL0     O95446   7.809   3.621   9.571 -0.1447  0.1277  0.1759
  708MOL0     C95447   7.816   3.736   9.538  0.3453  0.1552 -0.7516
  708MOL0     O95448   7.705   3.825   9.551 -0.6618 -0.3158  0.0787
  708MOL0     C95449   7.588   3.768   9.589 -0.9740  0.3442 -1.3994
  708MOL0     C95450   7.583   3.699   9.715 -0.1851 -0.0023  0.4904
  708MOL0     C95451   7.483   3.607   9.741  0.1399 -0.5279 -0.2006
  708MOL0     C95452   7.383   3.581   9.653  0.2754  0.7434 -0.1793
  708MOL0     O95453   7.287   3.491   9.707 -0.2910 -0.4671 -0.2567
  708MOL0     C95454   7.181   3.437   9.627 -0.2794 -0.1627 -0.5524
  708MOL0     C95455   7.106   3.354   9.726 -0.3632  0.7889  1.0020
  708MOL0     C95456   7.043   3.427   9.841  0.5121 -0.0558 -0.0455
  708MOL0     C95457   7.021   3.336   9.967  0.1219  0.5413  0.5234
  708MOL0     C95458   6.936   3.214   9.936  0.6787  0.9095 -0.9038
  708MOL0     C95459   6.798   3.260   9.925  0.2547 -0.4668  0.2494
  708MOL0     C95460   6.703   3.139   9.909  0.0948  0.6728 -0.2570
  708MOL0     C95461   6.568   3.182   9.930  0.5362  0.3168  0.0401
  708MOL0     N95462   6.470   3.072   9.959 -0.8824  0.8364  0.6214
  708MOL0     C95463   6.385   3.024   9.864 -0.4681  0.0932  1.0336
  708MOL0     C95464   6.293   2.945   9.928 -0.3048  0.0175  0.1429
  708MOL0     C95465   6.198   2.847   9.871  0.3227  0.1850 -0.6341
  708MOL0     C95466   6.064   2.911   9.839 -0.0015  0.6177 -1.1894
  708MOL0     C95467   5.973   2.922   9.969  0.1845  0.0679  0.4875
  708MOL0     C95468   5.829   2.950   9.938  0.1364 -0.0490  0.0358
  708MOL0     O95469   5.763   2.835   9.909  0.1264  0.6541  0.0635
  708MOL0     C95470   5.645   2.847   9.842 -0.4106 -0.5700 -0.2283
  708MOL0     C95471   5.588   2.739   9.779  0.5919 -0.2143 -1.2027
  708MOL0     C95472   5.458   2.746   9.728  0.8830  0.0964 -0.9299
  708MOL0     C95473   5.396   2.628   9.687  0.4179  0.0477  0.2445
  708MOL0     C95474   5.388   2.874   9.730 -0.3638  0.0428  0.9936
  708MOL0     C95475   5.260   2.901   9.650 -0.2972 -1.0632  0.3596
  708MOL0     O95476   5.163   2.805   9.648  0.2043 -0.6924 -0.2290
  708MOL0     C95477   5.030   2.824   9.601  0.6302  0.3896 -0.0192
  708MOL0     C95478   4.951   2.706   9.597 -0.5036 -0.9919 -0.4434
  708MOL0     C95479   4.816   2.709   9.549 -0.3193  0.0576  0.1227
  708MOL0     C95480   4.753   2.830   9.506 -0.5141 -0.2381 -0.0889
  708MOL0     O95481   4.629   2.841   9.446  0.2685 -0.4594  0.3880
  708MOL0     C95482   4.557   2.718   9.421  0.4246  0.0872 -0.2581
  708MOL0     C95483   4.425   2.756   9.360  0.5142  0.4038 -0.1601
  708MOL0     C95484   4.431   2.843   9.234 -0.2261 -0.5756  0.8699
  708MOL0     C95485   4.295   2.856   9.174  1.0533  0.3357 -0.9848
  708MOL0     C95486   4.294   2.914   9.038  0.2876  0.0354 -0.1951
  708MOL0     C95487   4.141   2.904   8.995 -0.6677  0.0628 -0.4081
  708MOL0     C95488   4.111   2.984   8.862 -0.7360 -0.3910  0.4459
  708MOL0     C95489   3.965   2.969   8.803  0.4005 -0.6881 -0.3539
  708MOL0    Cl95490   3.938   3.065   8.655  0.3249 -0.2182  0.2142
  708MOL0     C95491   4.829   2.951   9.534  0.0442  0.1622  0.0921
  708MOL0     C95492   4.958   2.941   9.576  0.2959 -0.1609 -0.3619
  708MOL0     O95493   5.234   3.011   9.597 -0.2070  0.2130 -0.4036
  708MOL0     C95494   5.450   2.981   9.785  0.0130  0.0242 -0.0770
  708MOL0     C95495   5.576   2.968   9.834  0.3459 -0.8798  0.1570
  708MOL0     N95496   6.322   2.965  10.065 -0.0074 -0.3969  0.5406
  708MOL0     N95497   6.426   3.051  10.080 -0.5272  0.0535  0.0062
  708MOL0     C95498   7.383   3.647   9.524 -0.1715 -0.2740 -0.6239
  708MOL0     C95499   7.489   3.746   9.499  1.0272  0.8424  0.5773
  708MOL0     C95500   7.950   3.783   9.494 -0.0777  0.3978 -0.2010
  708MOL0     C95501   7.969   3.913   9.430  0.0261  0.9438  0.1656
  708MOL0     C95502   8.087   3.946   9.357  0.3657  0.0043 -0.1399
  708MOL0     C95503   8.194   3.855   9.364 -0.1202  1.0224 -0.3938
  708MOL0     O95504   8.306   3.875   9.288  0.1912  0.2978  0.1342
  708MOL0     C95505   8.343   4.005   9.256 -1.1513 -0.7760  0.2147
  708MOL0     C95506   8.484   3.999   9.191  0.3170  0.4113 -0.8166
  708MOL0     C95507   8.527   4.133   9.142  0.0494  0.5067 -0.2818
  708MOL0     C95508   8.679   4.147   9.111 -0.8559  0.1992  0.9280
  708MOL0     C95509   8.761   4.143   9.232 -0.8838 -0.8544  0.0739
  708MOL0     C95510   8.805   4.152   9.346 -1.0647  0.2718 -0.0016
  708MOL0     C95511   8.177   3.732   9.435 -0.6405  0.9883  0.0577
  708MOL0     C95512   8.059   3.697   9.496 -0.0840 -0.7716  0.4771
  708MOL0     H95513   7.655   3.724   9.792  0.1594 -0.3677  0.2824
  708MOL0     H95514   7.481   3.559   9.838 -2.3407  0.6406  0.4291
  708MOL0     H95515   7.121   3.523   9.597  2.3741  1.7961 -0.5487
  708MOL0     H95516   7.214   3.377   9.542  0.0915 -0.9862  0.1584
  708MOL0     H95517   7.023   3.309   9.670  1.3615 -2.4259  0.7676
  708MOL0     H95518   7.174   3.274   9.756 -2.2777 -1.8717 -1.1780
  708MOL0     H95519   7.107   3.512   9.866  0.0568 -0.0758  1.2645
  708MOL0     H95520   6.949   3.469   9.805 -0.1005 -0.9358  0.4903
  708MOL0     H95521   7.119   3.302  10.003  0.7817  1.8388  0.0225
  708MOL0     H95522   6.980   3.391  10.052 -2.5337 -1.9119  0.9871
  708MOL0     H95523   6.977   3.164   9.848  1.8385  1.0713 -0.4651
  708MOL0     H95524   6.943   3.147  10.022 -0.6711 -0.6199 -1.9355
  708MOL0     H95525   6.774   3.319  10.014 -0.2887  0.3383 -0.4159
  708MOL0     H95526   6.804   3.328   9.839  3.8455  1.0476  1.4801
  708MOL0     H95527   6.718   3.107   9.805 -3.9696 -0.0253 -0.7664
  708MOL0     H95528   6.728   3.063   9.983  1.1619  1.7729  0.5647
  708MOL0     H95529   6.534   3.248   9.849  0.7609 -0.4215 -0.6622
  708MOL0     H95530   6.567   3.244  10.020 -1.5006 -0.7748  0.8274
  708MOL0     H95531   6.372   3.021   9.756 -1.7145 -2.2414  1.2099
  708MOL0     H95532   6.238   2.805   9.779  1.3095 -0.2615 -0.0137
  708MOL0     H95533   6.182   2.770   9.947  0.3294  1.1590  0.3980
  708MOL0     H95534   6.010   2.852   9.764 -2.9513  1.9338 -0.2579
  708MOL0     H95535   6.087   3.008   9.795 -2.2922  2.4954  1.4039
  708MOL0     H95536   6.013   2.988  10.047  0.6548 -2.6932  2.7574
  708MOL0     H95537   5.962   2.832  10.031  2.0037  0.6579  1.7672
  708MOL0     H95538   5.829   3.017   9.851 -1.7180 -1.3772 -1.0738
  708MOL0     H95539   5.774   3.002  10.016  1.9168  1.7083  0.1877
  708MOL0     H95540   5.642   2.646   9.791 -1.9365 -1.7527 -1.1415
  708MOL0     H95541   5.457   2.540   9.711  0.7895 -0.0718 -1.0603
  708MOL0     H95542   5.303   2.613   9.742  1.0640 -0.3477  1.2624
  708MOL0     H95543   5.377   2.637   9.579  3.4822 -2.4786 -0.6811
  708MOL0     H95544   4.997   2.610   9.615  3.0853  0.6487  0.0908
  708MOL0     H95545   4.769   2.613   9.533 -0.8629  0.5286 -1.2515
  708MOL0     H95546   4.629   2.657   9.366  1.9730  0.4079  1.3166
  708MOL0     H95547   4.523   2.668   9.513  0.2425  1.0899  0.2271
  708MOL0     H95548   4.378   2.660   9.337  1.1851 -0.4068  1.6148
  708MOL0     H95549   4.380   2.813   9.442 -0.5579 -0.6133 -0.0255
  708MOL0     H95550   4.503   2.805   9.162  0.5364  2.2347 -0.0010
  708MOL0     H95551   4.472   2.940   9.264  1.4709 -1.3684  1.2214
  708MOL0     H95552   4.259   2.753   9.183  1.2859  0.4618  2.6671
  708MOL0     H95553   4.231   2.925   9.230  0.6517 -0.1071 -0.8902
  708MOL0     H95554   4.357   2.856   8.970  0.9430  1.6734 -1.0426
  708MOL0     H95555   4.322   3.020   9.035 -0.0080  0.1033 -1.8609
  708MOL0     H95556   4.128   2.795   8.997  1.4197 -0.4207  5.5104
  708MOL0     H95557   4.079   2.944   9.075 -0.2039 -0.6421  0.3108
  708MOL0     H95558   4.183   2.956   8.785 -2.7500  0.1677 -1.7435
  708MOL0     H95559   4.133   3.090   8.879 -1.0284  0.0435 -1.6508
  708MOL0     H95560   3.897   3.006   8.881 -0.2172 -0.1806 -1.1221
  708MOL0     H95561   3.950   2.861   8.794  5.2214 -1.8129  1.9784
  708MOL0     H95562   4.785   3.047   9.510 -1.7980 -0.3570  1.1909
  708MOL0     H95563   5.012   3.031   9.606  0.8775 -0.7759  0.4954
  708MOL0     H95564   5.401   3.078   9.782  2.0239  1.1141  0.5687
  708MOL0     H95565   5.627   3.055   9.873  1.8375 -2.3533  1.6115
  708MOL0     H95566   7.310   3.623   9.449 -0.1029 -1.5791 -0.2956
  708MOL0     H95567   7.489   3.804   9.408 -0.7819  1.6877  1.0719
  708MOL0     H95568   7.889   3.986   9.422 -2.2454 -1.5277 -1.1851
  708MOL0     H95569   8.088   4.042   9.307 -0.9182  1.8779  3.1335
  708MOL0     H95570   8.278   4.052   9.182  0.2547 -0.2101 -0.6856
  708MOL0     H95571   8.356   4.060   9.350  1.8448 -2.8966  1.1942
  708MOL0     H95572   8.475   3.936   9.103  1.0223 -0.1268 -0.5096
  708MOL0     H95573   8.550   3.948   9.262 -1.0497 -3.8965 -2.3203
  708MOL0     H95574   8.515   4.211   9.218 -2.5684 -2.8936  3.1427
  708MOL0     H95575   8.462   4.155   9.057 -0.6143  0.2384  0.1521
  708MOL0     H95576   8.700   4.241   9.058 -2.3918 -0.7056 -1.4689
  708MOL0     H95577   8.710   4.075   9.035  0.2945 -0.2864  1.8397
  708MOL0     H95578   8.844   4.168   9.444 -0.5649  1.3462 -0.3548
  708MOL0     H95579   8.257   3.659   9.430  1.2127  3.0082 -2.6076
  708MOL0     H95580   8.053   3.595   9.534  3.0111 -0.7039  1.4561
  709MOL0     O95581   7.029   4.061  10.817 -0.1106  0.0350 -0.6724
  709MOL0     C95582   7.069   3.961  10.762 -0.8566 -0.0440 -0.0462
  709MOL0     O95583   6.986   3.870  10.686 -0.4220 -0.4910 -0.7429
  709MOL0     C95584   6.845   3.891  10.702 -0.0832  1.0450 -0.1899
  709MOL0     C95585   6.785   3.834  10.821 -0.0369  0.4750  0.0599
  709MOL0     C95586   6.650   3.858  10.853 -0.5441  0.7349 -0.0818
  709MOL0     C95587   6.573   3.939  10.771 -0.4440 -0.8155  0.0023
  709MOL0     O95588   6.446   3.982  10.804 -0.1081  0.0245 -0.4514
  709MOL0     C95589   6.359   3.994  10.691 -0.4430 -0.0452  0.0719
  709MOL0     C95590   6.331   4.147  10.705  0.6408  0.4170  0.4948
  709MOL0     C95591   6.238   4.187  10.593 -0.1073  0.9669 -0.5724
  709MOL0     C95592   6.177   4.320  10.618 -0.0923  0.0162 -0.2417
  709MOL0     C95593   6.083   4.359  10.501 -0.0996 -0.3453  0.2675
  709MOL0     C95594   6.029   4.511  10.512 -0.1000  0.3539  0.3822
  709MOL0     C95595   5.929   4.527  10.388 -0.0242 -0.0503  1.1054
  709MOL0     C95596   5.834   4.648  10.419 -0.6272  0.1873  0.4006
  709MOL0     N95597   5.731   4.618  10.517 -0.2009 -0.2156 -0.2791
  709MOL0     C95598   5.636   4.719  10.552 -0.9645  0.3381  0.2175
  709MOL0     C95599   5.578   4.667  10.661 -0.7886 -0.2006  0.4082
  709MOL0     C95600   5.485   4.737  10.755 -0.9707  0.0223  0.4765
  709MOL0     C95601   5.349   4.775  10.700  0.4730  0.0089  1.0803
  709MOL0     C95602   5.274   4.644  10.664  0.6207 -0.1676 -0.8994
  709MOL0     C95603   5.133   4.687  10.615  0.3838  0.1046  0.0759
  709MOL0     O95604   5.135   4.710  10.472  0.2818 -0.1781 -0.4466
  709MOL0     C95605   5.014   4.760  10.414 -0.8469  1.1538  0.8408
  709MOL0     C95606   4.954   4.877  10.466 -0.1472  0.1677 -1.0623
  709MOL0     C95607   4.845   4.938  10.395 -0.2204 -0.2666  0.2007
  709MOL0     C95608   4.791   5.067  10.454 -0.1781 -0.1588  0.7014
  709MOL0     C95609   4.800   4.883  10.275 -0.2546  0.1485  0.2687
  709MOL0     C95610   4.700   4.947  10.202  0.1375 -0.5821 -0.0396
  709MOL0     O95611   4.699   4.916  10.072 -0.1467  0.9420 -0.4980
  709MOL0     C95612   4.600   4.969   9.993 -0.0922  0.1938  0.4800
  709MOL0     C95613   4.500   4.881   9.955 -0.9569  0.5985  0.2236
  709MOL0     C95614   4.419   4.913   9.849  0.1251 -0.1823 -0.4790
  709MOL0     C95615   4.414   5.041   9.794 -0.0323 -0.9019 -0.3182
  709MOL0     O95616   4.329   5.076   9.688  0.6189 -0.5328 -0.9818
  709MOL0     C95617   4.286   5.217   9.692 -0.1421  0.3482 -0.8045
  709MOL0     C95618   4.131   5.236   9.654  0.4763 -0.7467 -0.1319
  709MOL0     C95619   4.044   5.168   9.762  0.2357  0.3626  0.5774
  709MOL0     C95620   3.934   5.076   9.694 -0.3647  0.4919  0.6119
  709MOL0     C95621   3.856   5.140   9.579  0.5276  0.6491  0.4237
  709MOL0     C95622   3.790   5.041   9.496  0.3227  0.5809 -0.0648
  709MOL0     C95623   3.695   5.107   9.389 -0.7313 -0.4293 -0.5631
  709MOL0     C95624   3.606   5.012   9.317 -0.8412 -0.6337 -0.1746
  709MOL0    Cl95625   3.464   4.970   9.413 -0.7058  0.0786  0.3609
  709MOL0     C95626   4.514   5.134   9.834  0.4655  0.5880  0.9905
  709MOL0     C95627   4.608   5.097   9.926 -0.4575 -0.0875  0.0568
  709MOL0     O95628   4.611   5.012  10.258 -0.2130  0.6304 -0.3080
  709MOL0     C95629   4.869   4.761  10.226  0.0209  0.3047 -0.3211
  709MOL0     C95630   4.973   4.701  10.300 -0.1710  0.5688  0.6073
  709MOL0     N95631   5.622   4.534  10.677 -0.0527 -0.7203 -0.2466
  709MOL0     N95632   5.719   4.502  10.596 -0.1393 -0.6542  0.3615
  709MOL0     C95633   6.634   3.998  10.656 -0.3703 -0.0372  0.1137
  709MOL0     C95634   6.770   3.961  10.619 -0.5601 -0.5529  0.4973
  709MOL0     C95635   7.204   3.911  10.792 -0.0841  0.1586 -0.5770
  709MOL0     C95636   7.237   3.772  10.801 -1.2053  0.2523 -0.0883
  709MOL0     C95637   7.374   3.739  10.820  0.6517  1.1112 -0.5302
  709MOL0     C95638   7.472   3.827  10.855  0.1883  0.4525  0.6328
  709MOL0     O95639   7.596   3.761  10.859 -0.2647 -0.8660  0.1946
  709MOL0     C95640   7.700   3.852  10.882  0.3951  1.1711  0.4980
  709MOL0     C95641   7.827   3.771  10.873 -0.1536 -0.6736 -0.2348
  709MOL0     C95642   7.960   3.852  10.907 -0.3096  0.1913  0.7490
  709MOL0     C95643   7.968   3.864  11.063  0.6996 -0.6052  0.8838
  709MOL0     C95644   8.101   3.909  11.111  0.8298  0.6634 -0.8757
  709MOL0     C95645   8.211   3.945  11.157  0.0372  0.0031  0.3430
  709MOL0     C95646   7.437   3.958  10.859 -0.7505 -0.2384  0.3710
  709MOL0     C95647   7.313   4.000  10.816 -0.5266  0.3629  0.5578
  709MOL0     H95648   6.851   3.772  10.882 -1.1597 -0.6892  0.1541
  709MOL0     H95649   6.609   3.816  10.944  1.0328 -0.1319  0.2811
  709MOL0     H95650   6.404   3.974  10.593  0.6136 -0.3475  0.6080
  709MOL0     H95651   6.272   3.932  10.717 -0.1798  0.7853  3.4540
  709MOL0     H95652   6.275   4.169  10.797 -2.4344 -1.3493 -0.8045
  709MOL0     H95653   6.429   4.194  10.700  0.2547  1.3939  1.6459
  709MOL0     H95654   6.290   4.171  10.498 -0.9274 -1.5227 -0.6676
  709MOL0     H95655   6.154   4.117  10.594 -0.1498  1.0182  0.4718
  709MOL0     H95656   6.110   4.321  10.704 -0.4320  0.4194 -0.5072
  709MOL0     H95657   6.252   4.396  10.641 -1.6499  1.4896  0.2208
  709MOL0     H95658   6.142   4.357  10.409  1.5007  0.6233  1.2122
  709MOL0     H95659   6.007   4.280  10.497  0.8131 -1.4217  2.4681
  709MOL0     H95660   5.972   4.516  10.606 -2.1628  0.1240 -0.8040
  709MOL0     H95661   6.107   4.587  10.503 -0.6006  0.7106 -1.2311
  709MOL0     H95662   5.977   4.566  10.298 -3.2034  1.0615 -0.2669
  709MOL0     H95663   5.890   4.428  10.360 -0.2731  0.1748  0.6474
  709MOL0     H95664   5.784   4.673  10.325  2.4049  2.8524 -0.6714
  709MOL0     H95665   5.888   4.735  10.455  0.8356 -0.6710  0.3424
  709MOL0     H95666   5.645   4.825  10.529  0.2745  0.4202  0.9752
  709MOL0     H95667   5.465   4.679  10.845  0.9821 -2.1765 -0.4162
  709MOL0     H95668   5.545   4.826  10.777  1.6150 -2.1587  2.9919
  709MOL0     H95669   5.360   4.826  10.604 -0.0147 -1.3190  0.2983
  709MOL0     H95670   5.291   4.834  10.771 -1.3917 -0.2467 -0.1461
  709MOL0     H95671   5.275   4.579  10.752  0.9252 -0.5429 -1.1757
  709MOL0     H95672   5.320   4.589  10.582  1.8912  0.0598 -0.3806
  709MOL0     H95673   5.110   4.776  10.674  2.1715 -0.3080  1.4917
  709MOL0     H95674   5.066   4.602  10.635  1.6954 -0.6969  1.2831
  709MOL0     H95675   4.997   4.921  10.555 -0.1361  0.2766 -1.1229
  709MOL0     H95676   4.696   5.050  10.505 -1.1545 -1.1978 -1.3430
  709MOL0     H95677   4.878   5.092  10.516  2.8557  0.3669 -3.3493
  709MOL0     H95678   4.788   5.148  10.381 -1.6166 -0.3645  0.5090
  709MOL0     H95679   4.484   4.780   9.992 -1.3365  0.5627 -0.0339
  709MOL0     H95680   4.362   4.829   9.812 -0.6855 -0.0095  0.3518
  709MOL0     H95681   4.297   5.259   9.792  0.9679 -0.3463 -0.6215
  709MOL0     H95682   4.348   5.287   9.634 -1.8050  1.9753 -0.7321
  709MOL0     H95683   4.111   5.343   9.657 -1.2873 -1.0629  2.0582
  709MOL0     H95684   4.119   5.199   9.552 -2.7887  2.2279 -1.0093
  709MOL0     H95685   3.983   5.248   9.804 -0.1876  1.6349 -2.2532
  709MOL0     H95686   4.090   5.109   9.842 -0.7280 -1.6945 -0.3213
  709MOL0     H95687   3.982   4.990   9.646 -3.2159 -0.5381 -0.6069
  709MOL0     H95688   3.878   5.033   9.778 -0.4726 -2.1999 -0.7225
  709MOL0     H95689   3.930   5.195   9.521  0.3973  1.5190  1.0576
  709MOL0     H95690   3.784   5.209   9.624 -2.1448 -1.2642 -0.6635
  709MOL0     H95691   3.872   4.983   9.451  0.4778  0.8913 -0.1828
  709MOL0     H95692   3.738   4.973   9.564  0.0666 -1.2638 -1.9799
  709MOL0     H95693   3.763   5.144   9.311 -2.1363 -1.8034 -2.5169
  709MOL0     H95694   3.632   5.188   9.427  0.1812 -0.7569  1.8311
  709MOL0     H95695   3.660   4.920   9.293  1.2453  0.5491 -0.2307
  709MOL0     H95696   3.565   5.052   9.224 -3.0119  1.0124  1.4055
  709MOL0     H95697   4.526   5.237   9.801 -0.5471  0.4853  0.2545
  709MOL0     H95698   4.683   5.172   9.951  0.0075 -0.6711  0.4392
  709MOL0     H95699   4.832   4.710  10.138 -0.2122  2.0147 -1.2567
  709MOL0     H95700   5.018   4.607  10.268  0.2307  1.2195 -0.8501
  709MOL0     H95701   6.586   4.068  10.588 -0.6941 -1.0296 -0.7152
  709MOL0     H95702   6.821   4.019  10.543  0.0878 -0.5590  0.9148
  709MOL0     H95703   7.164   3.695  10.780 -1.3956  0.7198 -1.1900
  709MOL0     H95704   7.394   3.633  10.829 -1.3228  0.8433  1.6179
  709MOL0     H95705   7.692   3.928  10.804  0.0293  0.4663 -0.1595
  709MOL0     H95706   7.697   3.896  10.982  0.7824  0.8302  0.6610
  709MOL0     H95707   7.823   3.740  10.768 -1.6558 -0.7480 -0.1734
  709MOL0     H95708   7.804   3.688  10.940  0.6823 -0.6105  0.1343
  709MOL0     H95709   7.969   3.950  10.860 -0.9036  1.0227  2.3048
  709MOL0     H95710   8.047   3.793  10.880 -0.1009  0.2977  1.1784
  709MOL0     H95711   7.927   3.772  11.108 -1.8715  0.8149  1.6399
  709MOL0     H95712   7.897   3.945  11.083  0.5668 -0.3071 -0.7124
  709MOL0     H95713   8.303   3.981  11.198 -0.1392  2.0161 -0.8804
  709MOL0     H95714   7.500   4.035  10.902 -0.4362 -0.3068  0.0307
  709MOL0     H95715   7.304   4.108  10.807  1.9523  0.6468  0.8801
  710MOL0     O95716   6.897   2.694   1.110  0.3323  0.2909 -0.3441
  710MOL0     C95717   6.986   2.679   1.193  0.7561  0.1957 -0.5732
  710MOL0     O95718   7.003   2.562   1.259  0.3187  0.5557 -0.6163
  710MOL0     C95719   6.908   2.467   1.279  0.3079  0.1395 -0.0598
  710MOL0     C95720   6.848   2.434   1.401 -0.0347 -0.5418  0.4174
  710MOL0     C95721   6.751   2.340   1.415  0.5070  0.0506 -0.0476
  710MOL0     C95722   6.705   2.265   1.303 -0.9117 -0.4632  1.2235
  710MOL0     O95723   6.616   2.161   1.302 -0.0606 -0.2245  1.0660
  710MOL0     C95724   6.544   2.139   1.425  0.1122  0.3843 -0.7254
  710MOL0     C95725   6.436   2.031   1.409  0.0173  0.2275 -0.3315
  710MOL0     C95726   6.337   2.036   1.531  0.8903 -0.5561 -0.4464
  710MOL0     C95727   6.255   1.903   1.542  0.8520 -0.1610 -0.3291
  710MOL0     C95728   6.183   1.869   1.411 -0.0117 -0.2187  0.1127
  710MOL0     C95729   6.055   1.963   1.390 -0.7240 -0.4772  0.1282
  710MOL0     C95730   5.968   1.917   1.272  0.1132 -0.3222 -0.3063
  710MOL0     C95731   6.043   1.921   1.129 -0.2728 -0.2924 -0.3233
  710MOL0     N95732   5.957   1.893   1.011  0.1714  0.4203 -0.8520
  710MOL0     C95733   5.899   1.970   0.916  0.8151 -0.1718  0.1226
  710MOL0     C95734   5.824   1.888   0.840 -0.6271 -0.3416  0.3798
  710MOL0     C95735   5.769   1.932   0.707  0.3059  0.0975 -0.1976
  710MOL0     C95736   5.652   1.853   0.638  1.0033  0.0046  0.2705
  710MOL0     C95737   5.701   1.721   0.568 -0.5543 -0.0185 -0.1605
  710MOL0     C95738   5.588   1.626   0.537 -0.4088  0.2290  0.0170
  710MOL0     O95739   5.645   1.495   0.516  0.6960  1.0577 -0.5781
  710MOL0     C95740   5.552   1.414   0.471  0.3793 -0.3389  0.5620
  710MOL0     C95741   5.523   1.303   0.543  0.0074 -0.7798 -0.2475
  710MOL0     C95742   5.432   1.208   0.496 -0.0661  0.6265 -0.3773
  710MOL0     C95743   5.407   1.095   0.588 -0.1419 -0.4689  0.1486
  710MOL0     C95744   5.376   1.226   0.370  0.5166 -0.2605 -1.0539
  710MOL0     C95745   5.284   1.133   0.307 -0.1244  0.2488  0.3204
  710MOL0     O95746   5.184   1.182   0.238  0.0659 -0.3424 -0.5792
  710MOL0     C95747   5.109   1.090   0.162 -0.8178  0.1008  0.2262
  710MOL0     C95748   5.018   1.018   0.238  0.1840  0.0140  0.0215
  710MOL0     C95749   4.918   0.951   0.163 -0.9202 -0.2696  0.3140
  710MOL0     C95750   4.918   0.949   0.024  0.3305  0.5263  0.2218
  710MOL0     O95751   4.819   0.870  -0.046  0.4687 -0.6819  0.2895
  710MOL0     C95752   4.730   0.946  -0.138 -0.1215  0.3555 -0.4026
  710MOL0     C95753   4.598   0.885  -0.162 -0.2065  0.2865 -0.1503
  710MOL0     C95754   4.515   0.879  -0.030  0.1650  0.0243  0.0352
  710MOL0     C95755   4.549   0.766   0.067  0.2999 -0.7102 -0.8744
  710MOL0     C95756   4.469   0.765   0.207 -0.2561  0.5871 -0.6947
  710MOL0     C95757   4.329   0.702   0.194  0.3246  0.4627 -0.3392
  710MOL0     C95758   4.247   0.708   0.321 -0.1254  0.0970 -0.1467
  710MOL0     C95759   4.101   0.681   0.287  0.3196  0.4407  1.3817
  710MOL0    Cl95760   4.085   0.512   0.264 -0.4072  0.0872 -0.2573
  710MOL0     C95761   5.018   1.008  -0.047  0.2001  0.2080  0.1325
  710MOL0     C95762   5.113   1.084   0.022 -0.4466 -0.0194  1.7590
  710MOL0     O95763   5.316   1.016   0.324  0.1055 -0.4550 -0.0858
  710MOL0     C95764   5.410   1.333   0.294  0.4561 -0.5283  0.7239
  710MOL0     C95765   5.488   1.434   0.348  0.3570  0.4763 -0.1374
  710MOL0     N95766   5.847   1.755   0.882 -0.2916  0.4499  0.1823
  710MOL0     N95767   5.934   1.767   0.977  0.1884  0.2255 -0.4810
  710MOL0     C95768   6.767   2.291   1.173 -0.3622 -0.5415  0.1061
  710MOL0     C95769   6.856   2.405   1.163  0.0935  0.0826  0.1772
  710MOL0     C95770   7.076   2.789   1.237  0.8141 -1.2644  0.6542
  710MOL0     C95771   7.075   2.911   1.172  0.5034 -0.0418 -0.4866
  710MOL0     C95772   7.176   3.005   1.192  0.1667  1.0595  0.4145
  710MOL0     C95773   7.275   2.990   1.282 -0.4047 -1.1177 -1.0088
  710MOL0     O95774   7.365   3.098   1.295 -0.1111  0.1223 -0.4797
  710MOL0     C95775   7.489   3.063   1.360  0.2968 -0.5540  0.8649
  710MOL0     C95776   7.574   2.975   1.276 -0.2772 -0.8071  0.6901
  710MOL0     C95777   7.635   3.033   1.153  0.4290 -0.7577 -0.4695
  710MOL0     C95778   7.744   3.132   1.197 -0.0425 -0.4720  0.2454
  710MOL0     C95779   7.813   3.183   1.079  0.3322 -0.1204 -0.1159
  710MOL0     C95780   7.873   3.233   0.985 -0.6690  0.3311 -0.5850
  710MOL0     C95781   7.268   2.873   1.364  0.4693 -0.5573  0.7405
  710MOL0     C95782   7.169   2.769   1.340 -0.6496 -0.4618  0.1965
  710MOL0     H95783   6.879   2.498   1.483 -2.0392  2.3158 -0.8888
  710MOL0     H95784   6.705   2.331   1.512  0.6702 -1.1200 -0.0574
  710MOL0     H95785   6.619   2.121   1.503 -0.0424  1.7195 -0.2412
  710MOL0     H95786   6.488   2.232   1.441 -0.9380  0.1646 -2.8937
  710MOL0     H95787   6.388   2.055   1.313  1.2812 -1.4748 -1.4427
  710MOL0     H95788   6.481   1.931   1.409 -0.2388  0.0987  1.3386
  710MOL0     H95789   6.395   2.044   1.623 -1.3083 -4.8412  1.5600
  710MOL0     H95790   6.267   2.119   1.516  1.8097  0.2841 -0.2488
  710MOL0     H95791   6.326   1.822   1.557 -0.0309 -1.2566 -1.7336
  710MOL0     H95792   6.187   1.910   1.628 -0.1757 -0.0681 -1.1211
  710MOL0     H95793   6.246   1.868   1.321  1.2208  1.4038  0.9014
  710MOL0     H95794   6.134   1.771   1.417  0.5410 -1.0249 -4.3895
  710MOL0     H95795   6.002   1.963   1.486 -2.0590  1.0583 -0.5604
  710MOL0     H95796   6.096   2.063   1.372  0.2613 -0.8348  0.3358
  710MOL0     H95797   5.926   1.817   1.291 -1.7695  0.4300 -0.3093
  710MOL0     H95798   5.881   1.983   1.268  0.8287  0.5801 -1.6947
  710MOL0     H95799   6.131   1.856   1.128  2.1646  2.7372 -1.0613
  710MOL0     H95800   6.085   2.022   1.122  0.9051 -0.5475  2.1150
  710MOL0     H95801   5.915   2.076   0.904  4.1858 -0.2076  2.6576
  710MOL0     H95802   5.743   2.037   0.723  1.4539  0.1163  2.0680
  710MOL0     H95803   5.850   1.923   0.634 -2.0628 -2.5152 -2.7606
  710MOL0     H95804   5.586   1.908   0.571 -0.7088 -1.9350  0.2387
  710MOL0     H95805   5.588   1.821   0.721  4.6799 -3.3938  2.1928
  710MOL0     H95806   5.772   1.665   0.629 -0.3853 -2.4430 -2.4060
  710MOL0     H95807   5.754   1.748   0.476 -0.3847  0.1333 -0.0202
  710MOL0     H95808   5.519   1.654   0.456 -2.7746 -2.4040  0.9545
  710MOL0     H95809   5.520   1.630   0.623 -0.9731 -0.4000 -0.3933
  710MOL0     H95810   5.557   1.289   0.645 -1.9211  0.1347  0.5659
  710MOL0     H95811   5.495   1.031   0.600  0.2983 -0.2420 -1.5063
  710MOL0     H95812   5.376   1.128   0.687  0.0075 -1.6907  0.6115
  710MOL0     H95813   5.319   1.035   0.563 -0.8046  0.2894  0.6059
  710MOL0     H95814   5.016   1.036   0.345  0.1287  2.0691 -0.2851
  710MOL0     H95815   4.855   0.886   0.223 -0.1986 -0.4324  0.9054
  710MOL0     H95816   4.726   1.051  -0.109  2.0381  0.6688 -1.0696
  710MOL0     H95817   4.780   0.941  -0.235  0.7828 -0.0924  0.0742
  710MOL0     H95818   4.544   0.948  -0.233  2.0821  0.3431 -1.9403
  710MOL0     H95819   4.595   0.783  -0.200  1.4320  0.6602 -1.3845
  710MOL0     H95820   4.415   0.839  -0.045  1.4166 -2.7525 -1.8673
  710MOL0     H95821   4.519   0.975   0.023  0.3730 -0.1240  0.2916
  710MOL0     H95822   4.537   0.663   0.033  1.9544 -2.6109  3.6517
  710MOL0     H95823   4.657   0.774   0.083 -0.0452  2.7695  0.6700
  710MOL0     H95824   4.463   0.866   0.248 -1.0190  1.1183 -2.0579
  710MOL0     H95825   4.512   0.700   0.285 -1.5766  1.3453  0.7134
  710MOL0     H95826   4.267   0.742   0.114  1.4707  0.1954 -1.3804
  710MOL0     H95827   4.341   0.595   0.173  0.2363  0.7328 -1.8145
  710MOL0     H95828   4.251   0.797   0.385  1.5817  0.2822 -0.4697
  710MOL0     H95829   4.287   0.626   0.382  0.7248 -1.0274 -2.1470
  710MOL0     H95830   4.055   0.738   0.206 -0.4479 -1.3278  0.5056
  710MOL0     H95831   4.032   0.701   0.369 -3.0754 -0.7742 -0.9536
  710MOL0     H95832   5.024   0.996  -0.154  2.3069  0.1206  0.2105
  710MOL0     H95833   5.184   1.139  -0.039 -1.0742  0.6985  1.6647
  710MOL0     H95834   5.352   1.352   0.204 -1.5394 -1.5801  1.7231
  710MOL0     H95835   5.496   1.528   0.295 -3.0602  2.1627  2.0395
  710MOL0     H95836   6.739   2.239   1.081  0.8876  2.1466 -1.9158
  710MOL0     H95837   6.910   2.436   1.074  2.6311  4.7423  2.9571
  710MOL0     H95838   7.013   2.935   1.086 -1.2893  0.4637  0.8931
  710MOL0     H95839   7.166   3.099   1.140 -1.0485  0.7576  0.0492
  710MOL0     H95840   7.545   3.150   1.395 -0.3228  0.4676 -0.5796
  710MOL0     H95841   7.469   3.016   1.457  1.3434 -0.4067  1.1589
  710MOL0     H95842   7.505   2.903   1.231 -0.6371 -2.4638  3.6467
  710MOL0     H95843   7.646   2.922   1.338  1.7435  0.9215 -0.0540
  710MOL0     H95844   7.567   3.088   1.088  1.4286  0.4918 -0.5086
  710MOL0     H95845   7.671   2.952   1.089 -2.1700 -0.5390 -2.3982
  710MOL0     H95846   7.816   3.079   1.260  0.0965 -2.5058 -1.5274
  710MOL0     H95847   7.704   3.212   1.260 -0.1907  0.1054 -0.5726
  710MOL0     H95848   7.929   3.275   0.903  2.0684  1.5606  1.7365
  710MOL0     H95849   7.347   2.863   1.438  0.2535 -1.6780  0.8303
  710MOL0     H95850   7.171   2.676   1.396 -1.9967 -0.5373  0.1490
  711MOL0     O95851   5.221   1.154   4.436  0.4421  0.4621 -0.2994
  711MOL0     C95852   5.296   1.086   4.370 -1.2242  1.1710  0.1844
  711MOL0     O95853   5.271   1.022   4.257  0.1213 -0.2364  0.9432
  711MOL0     C95854   5.144   1.026   4.202 -0.0932  0.2755 -0.0387
  711MOL0     C95855   5.116   1.072   4.073 -0.4670 -0.5364 -0.4240
  711MOL0     C95856   4.989   1.077   4.025 -0.6612  0.3423  0.7675
  711MOL0     C95857   4.882   1.015   4.094 -0.7874  0.0713 -0.0095
  711MOL0     O95858   4.757   1.014   4.052 -0.2613 -0.4206 -0.4318
  711MOL0     C95859   4.745   0.929   3.930  0.1837  0.4674  0.3094
  711MOL0     C95860   4.701   0.787   3.980 -0.0600  0.1115 -0.3629
  711MOL0     C95861   4.554   0.757   4.005 -0.7885  0.2504  0.1258
  711MOL0     C95862   4.498   0.856   4.103 -0.2155 -0.4537 -0.6341
  711MOL0     C95863   4.348   0.869   4.106  0.2350 -0.4240  0.4028
  711MOL0     C95864   4.298   0.928   3.974  0.1055  0.5344  0.4772
  711MOL0     C95865   4.155   0.983   3.966  0.5856  0.2935 -1.6480
  711MOL0     C95866   4.066   0.864   3.954  0.2362 -0.2003 -0.8358
  711MOL0     N95867   3.940   0.912   3.998 -0.2977  0.2643 -0.9355
  711MOL0     C95868   3.894   0.917   4.131 -0.6208  0.1583  0.6359
  711MOL0     C95869   3.768   0.971   4.131 -0.5926 -0.1403 -1.0263
  711MOL0     C95870   3.684   1.022   4.250 -0.6425 -1.3061  0.3861
  711MOL0     C95871   3.569   0.935   4.291  0.7470  0.3235 -0.8760
  711MOL0     C95872   3.449   0.936   4.187 -0.0668  0.0602  0.1698
  711MOL0     C95873   3.352   0.817   4.228 -0.3175 -0.8274 -0.8127
  711MOL0     O95874   3.290   0.828   4.353  0.1034  0.3529  0.0417
  711MOL0     C95875   3.180   0.749   4.390 -0.4846 -1.7052 -0.4598
  711MOL0     C95876   3.121   0.778   4.513 -0.8865 -0.1215 -0.0984
  711MOL0     C95877   3.016   0.706   4.570 -0.6389  0.5836 -0.6449
  711MOL0     C95878   2.974   0.749   4.707 -0.2943 -0.2290 -0.0277
  711MOL0     C95879   2.953   0.604   4.493  0.4290 -0.0289 -0.0633
  711MOL0     C95880   2.826   0.538   4.538  0.1698  0.0915 -0.4187
  711MOL0     O95881   2.800   0.418   4.470 -0.9059  0.5469  0.3642
  711MOL0     C95882   2.676   0.355   4.489  0.6783  1.0058  1.3285
  711MOL0     C95883   2.565   0.362   4.397 -0.4923 -0.3291 -0.7820
  711MOL0     C95884   2.449   0.293   4.420  0.1388  1.2940 -0.8785
  711MOL0     C95885   2.436   0.212   4.529 -1.0394 -0.1915  0.5122
  711MOL0     O95886   2.328   0.133   4.539  0.1673  0.2715 -0.4200
  711MOL0     C95887   2.225   0.182   4.622 -0.8057 -0.2427  0.3283
  711MOL0     C95888   2.106   0.227   4.541  0.3259  0.6522 -0.5676
  711MOL0     C95889   1.995   0.285   4.622 -0.8279 -0.5019 -0.0762
  711MOL0     C95890   1.945   0.423   4.564 -0.2168 -0.5991  0.1308
  711MOL0     C95891   1.856   0.487   4.679 -0.2903  0.4504  0.6681
  711MOL0     C95892   1.756   0.591   4.638 -0.0217  0.2633  0.4097
  711MOL0     C95893   1.656   0.628   4.743  0.3953  0.3562  1.0122
  711MOL0     C95894   1.522   0.640   4.680 -0.3303 -0.8710  0.1503
  711MOL0    Cl95895   1.432   0.488   4.648  0.0150  0.1243 -0.0511
  711MOL0     C95896   2.539   0.198   4.627 -0.6536 -0.8622 -0.8394
  711MOL0     C95897   2.659   0.269   4.602  0.1560  0.5861  0.0769
  711MOL0     O95898   2.748   0.594   4.619 -0.4565 -0.0736  0.2626
  711MOL0     C95899   3.014   0.566   4.369  0.3735 -0.1463 -0.3852
  711MOL0     C95900   3.125   0.637   4.323 -0.6695 -0.3393  0.5064
  711MOL0     N95901   3.735   0.990   3.995 -0.3546 -0.0427  0.2323
  711MOL0     N95902   3.839   0.952   3.920  0.0690 -1.3279 -0.2948
  711MOL0     C95903   4.913   0.953   4.213 -0.0645  0.3839 -0.1439
  711MOL0     C95904   5.044   0.963   4.269  0.1189 -0.2986 -0.1639
  711MOL0     C95905   5.438   1.065   4.428 -0.0225 -0.1566  0.3673
  711MOL0     C95906   5.472   1.118   4.551  0.4554 -0.0011 -0.2154
  711MOL0     C95907   5.603   1.107   4.606 -0.0800 -0.2928 -0.1863
  711MOL0     C95908   5.705   1.038   4.534  0.5938  0.3251 -0.6252
  711MOL0     O95909   5.837   1.024   4.569  0.2901  0.1442  0.0923
  711MOL0     C95910   5.881   1.113   4.677  0.7965  0.2592  0.6996
  711MOL0     C95911   6.027   1.080   4.699 -0.2255 -0.1680 -0.2076
  711MOL0     C95912   6.131   1.167   4.615  0.4300 -0.2105 -0.2938
  711MOL0     C95913   6.277   1.153   4.668 -0.6025 -0.0888  0.1668
  711MOL0     C95914   6.339   1.028   4.644  0.8157 -0.0600 -0.1712
  711MOL0     C95915   6.385   0.913   4.641  0.5494 -0.1284  0.0844
  711MOL0     C95916   5.658   0.981   4.410  0.5584 -0.1165 -0.2347
  711MOL0     C95917   5.538   0.997   4.362  0.4367  0.3978 -0.0257
  711MOL0     H95918   5.199   1.121   4.023 -1.0088 -2.4217 -3.4459
  711MOL0     H95919   4.988   1.132   3.931 -5.0085  1.2563  1.1525
  711MOL0     H95920   4.662   0.969   3.870  0.5161 -1.1794 -1.3203
  711MOL0     H95921   4.825   0.915   3.857 -1.8624 -2.1858 -1.6272
  711MOL0     H95922   4.735   0.737   3.889  1.8611  3.3658 -1.6313
  711MOL0     H95923   4.757   0.756   4.069 -0.6628 -0.1244 -0.0594
  711MOL0     H95924   4.498   0.759   3.911 -0.8685  0.5629  0.1811
  711MOL0     H95925   4.537   0.657   4.047  0.4420 -0.6057 -1.2924
  711MOL0     H95926   4.534   0.821   4.200  2.6998 -2.9435 -2.4251
  711MOL0     H95927   4.538   0.956   4.086  3.0401 -1.5091  0.1590
  711MOL0     H95928   4.292   0.775   4.110 -0.9935  0.0548 -2.7582
  711MOL0     H95929   4.332   0.928   4.197  0.3110 -1.7144  1.2783
  711MOL0     H95930   4.368   1.002   3.934 -0.2310 -0.9461 -3.2763
  711MOL0     H95931   4.304   0.847   3.900  0.8715  0.6627  0.3806
  711MOL0     H95932   4.146   1.041   4.058  0.2100 -0.3449 -1.2805
  711MOL0     H95933   4.134   1.047   3.880  2.7385 -0.2360 -2.6526
  711MOL0     H95934   4.101   0.784   4.020  0.0937  1.0423  0.8248
  711MOL0     H95935   4.059   0.838   3.848  1.9769  0.9901 -1.2940
  711MOL0     H95936   3.934   0.887   4.227 -1.0443  3.4700  1.9834
  711MOL0     H95937   3.753   1.044   4.332 -3.9709  5.1717  2.0997
  711MOL0     H95938   3.659   1.123   4.217  2.1491 -1.5915 -3.3016
  711MOL0     H95939   3.536   0.963   4.392 -0.1088  1.3264 -1.4137
  711MOL0     H95940   3.608   0.833   4.295 -1.5147 -0.5565  0.1244
  711MOL0     H95941   3.480   0.918   4.084  1.3304  2.3507  0.1308
  711MOL0     H95942   3.393   1.030   4.185  0.4393  0.4043  1.2700
  711MOL0     H95943   3.414   0.727   4.221 -0.8342 -1.1465 -1.3768
  711MOL0     H95944   3.265   0.822   4.162 -1.7750  2.7542  1.0975
  711MOL0     H95945   3.175   0.854   4.568 -0.9166 -1.1162  1.3556
  711MOL0     H95946   2.891   0.819   4.711  0.6388  1.0215 -1.5728
  711MOL0     H95947   2.951   0.653   4.755 -1.7582 -1.2175 -2.5015
  711MOL0     H95948   3.055   0.803   4.756 -1.4638  1.5414  0.0084
  711MOL0     H95949   2.589   0.410   4.302  2.5278  0.5369  0.2816
  711MOL0     H95950   2.364   0.310   4.355 -1.9374 -0.2799  1.2587
  711MOL0     H95951   2.201   0.099   4.689  0.5815 -0.5745  0.4339
  711MOL0     H95952   2.261   0.264   4.685  0.0601 -1.7093  1.8469
  711MOL0     H95953   2.136   0.305   4.470  1.1861 -0.3302 -1.3078
  711MOL0     H95954   2.069   0.137   4.491  0.6236  0.2755 -0.1099
  711MOL0     H95955   2.035   0.301   4.722  2.1389  0.1588 -1.2483
  711MOL0     H95956   1.907   0.221   4.627 -2.8007  2.1623  3.0478
  711MOL0     H95957   2.028   0.490   4.538 -1.3618  1.1740  0.8563
  711MOL0     H95958   1.887   0.405   4.473  2.7192 -0.9898 -1.8160
  711MOL0     H95959   1.919   0.518   4.764  0.4737 -0.6274  0.5215
  711MOL0     H95960   1.791   0.414   4.729 -1.1243  2.0871  2.1027
  711MOL0     H95961   1.816   0.681   4.618  1.2549  0.1398  3.1433
  711MOL0     H95962   1.704   0.558   4.548 -2.0341  4.1865 -0.0692
  711MOL0     H95963   1.692   0.711   4.804  1.5467 -1.4269  2.8906
  711MOL0     H95964   1.657   0.553   4.823 -1.3930  1.6957  2.3659
  711MOL0     H95965   1.528   0.704   4.591  0.3861  1.7062  1.9239
  711MOL0     H95966   1.466   0.692   4.758 -0.2503 -1.4002  0.5635
  711MOL0     H95967   2.519   0.153   4.723  1.8327  1.7810  1.0908
  711MOL0     H95968   2.731   0.249   4.682  0.0831 -2.2682 -0.4528
  711MOL0     H95969   2.973   0.483   4.312  1.4223 -2.0757  1.5069
  711MOL0     H95970   3.173   0.614   4.229  0.3789 -1.5932  1.3101
  711MOL0     H95971   4.844   0.898   4.275  0.2557 -1.4472 -1.3429
  711MOL0     H95972   5.057   0.922   4.369  0.5127 -0.3999 -0.2544
  711MOL0     H95973   5.391   1.160   4.609 -1.0591 -3.1699  0.1808
  711MOL0     H95974   5.612   1.156   4.702  0.0234  0.6938 -0.6847
  711MOL0     H95975   5.863   1.217   4.650  2.6425  0.8417  1.5843
  711MOL0     H95976   5.819   1.080   4.762  1.4770 -3.9986 -0.2201
  711MOL0     H95977   6.050   0.974   4.693  1.9301  0.0194  2.3685
  711MOL0     H95978   6.046   1.110   4.803 -0.4465 -1.9165  0.3678
  711MOL0     H95979   6.100   1.272   4.621  2.3595  0.4311 -0.7706
  711MOL0     H95980   6.128   1.130   4.512 -2.6492 -1.7480  0.2454
  711MOL0     H95981   6.284   1.168   4.776 -1.6985 -0.2265  0.2667
  711MOL0     H95982   6.340   1.235   4.629 -1.4214 -0.2292 -1.5308
  711MOL0     H95983   6.427   0.814   4.640 -1.0818 -0.8461 -1.0378
  711MOL0     H95984   5.725   0.915   4.355  1.4354  1.4283 -1.0815
  711MOL0     H95985   5.523   0.956   4.263 -2.5837  1.7777 -0.2330
  712MOL0     O95986   8.873   8.468   1.964 -0.3298 -0.5584  0.1013
  712MOL0     C95987   8.932   8.392   2.038  0.3158 -0.2208  0.2144
  712MOL0     O95988   8.876   8.315   2.132  0.3481 -0.5993  0.0228
  712MOL0     C95989   8.749   8.337   2.186 -0.1311 -0.7367  1.1771
  712MOL0     C95990   8.668   8.231   2.211  0.2908 -0.0948  0.2321
  712MOL0     C95991   8.544   8.243   2.269  0.2775  0.1138 -0.4963
  712MOL0     C95992   8.492   8.367   2.293  0.4712  0.4786 -0.2844
  712MOL0     O95993   8.368   8.372   2.345 -0.2780 -0.4331 -1.3421
  712MOL0     C95994   8.344   8.494   2.427 -0.3785 -0.0476  0.1950
  712MOL0     C95995   8.226   8.456   2.516 -0.7139  0.3207 -0.0281
  712MOL0     C95996   8.099   8.441   2.424 -0.0305 -0.4674 -0.6135
  712MOL0     C95997   7.988   8.392   2.513 -0.1871  0.2302  0.0332
  712MOL0     C95998   7.845   8.400   2.463 -0.7559 -0.3092 -0.3792
  712MOL0     C95999   7.744   8.306   2.542  0.4885 -0.3974  0.7964
  712MOL0     C96000   7.594   8.338   2.507 -0.1565 -1.0331 -0.2323
  712MOL0     C96001   7.494   8.246   2.565 -0.3735  0.3315 -0.3122
  712MOL0     N96002   7.357   8.289   2.536 -0.8991 -0.5833  0.2716
  712MOL0     C96003   7.274   8.356   2.618 -0.4361 -0.2703  0.4089
  712MOL0     C96004   7.162   8.392   2.546 -0.3050  0.3198 -0.2765
  712MOL0     C96005   7.039   8.454   2.614  0.5013  0.2743  0.2327
  712MOL0     C96006   6.986   8.354   2.713  0.6262  0.2199  0.0604
  712MOL0     C96007   6.864   8.407   2.793  0.0975 -0.4828  1.0270
  712MOL0     C96008   6.752   8.462   2.703 -0.4381  0.4723  0.2300
  712MOL0     O96009   6.642   8.481   2.786  0.4560  0.1001 -0.3861
  712MOL0     C96010   6.525   8.544   2.742 -0.4240 -0.3785 -0.2476
  712MOL0     C96011   6.431   8.575   2.839 -0.2571  0.0527  0.1584
  712MOL0     C96012   6.305   8.630   2.807 -1.0686  0.1583 -0.5538
  712MOL0     C96013   6.231   8.689   2.928 -0.1820 -0.2127  0.4555
  712MOL0     C96014   6.261   8.626   2.671 -0.0167  0.4753 -0.7173
  712MOL0     C96015   6.117   8.649   2.633 -1.3717 -0.8258  0.4042
  712MOL0     O96016   6.091   8.618   2.498 -0.6728  0.2727 -0.5282
  712MOL0     C96017   5.957   8.629   2.465  0.0423  0.5940  0.2137
  712MOL0     C96018   5.911   8.732   2.384 -0.6270  0.7470 -0.1056
  712MOL0     C96019   5.776   8.754   2.354 -0.5616  0.3982 -0.4061
  712MOL0     C96020   5.684   8.651   2.390  0.7540  1.1621 -0.0507
  712MOL0     O96021   5.552   8.647   2.347 -0.7056  0.4473  0.1062
  712MOL0     C96022   5.482   8.763   2.359  0.5977  0.3501 -0.1397
  712MOL0     C96023   5.381   8.744   2.248 -0.3050  0.5485  0.4557
  712MOL0     C96024   5.277   8.855   2.222  0.0568 -0.3730 -0.4191
  712MOL0     C96025   5.169   8.808   2.126  0.1320 -0.3529 -0.5678
  712MOL0     C96026   5.130   8.936   2.038  0.1646  0.4001  0.4383
  712MOL0     C96027   5.000   8.906   1.964  0.1187  0.7659 -0.3002
  712MOL0     C96028   5.006   8.794   1.853 -0.1148 -0.6927  0.4303
  712MOL0     C96029   4.876   8.751   1.797  0.0139  0.1030  0.2221
  712MOL0    Cl96030   4.762   8.676   1.905  0.8530 -0.1394  0.0892
  712MOL0     C96031   5.732   8.540   2.460  0.0960  1.9054  0.2698
  712MOL0     C96032   5.862   8.538   2.507  0.8003  0.2302 -0.4709
  712MOL0     O96033   6.040   8.700   2.706  1.0996  0.6895  0.5792
  712MOL0     C96034   6.357   8.584   2.574 -0.0243 -0.5556 -1.4223
  712MOL0     C96035   6.486   8.553   2.609  0.0919 -0.0763  0.0402
  712MOL0     N96036   7.178   8.336   2.419 -0.3275 -0.5336  0.2572
  712MOL0     N96037   7.291   8.276   2.411  0.1204 -0.0859 -0.4204
  712MOL0     C96038   8.577   8.479   2.268 -0.4121 -0.1684  0.2936
  712MOL0     C96039   8.697   8.463   2.207 -0.0734 -0.1580 -0.8218
  712MOL0     C96040   9.071   8.373   1.996  0.1715 -0.1179  0.5472
  712MOL0     C96041   9.148   8.265   2.047  0.2423  0.0252 -0.7984
  712MOL0     C96042   9.278   8.232   2.008 -0.3325  0.8682 -0.6734
  712MOL0     C96043   9.342   8.315   1.919 -0.2010 -0.3379 -0.0243
  712MOL0     O96044   9.477   8.297   1.876  0.2224  0.4004 -0.1115
  712MOL0     C96045   9.564   8.348   1.974 -0.4595 -0.1558  1.1853
  712MOL0     C96046   9.711   8.359   1.924 -0.1023 -0.1955 -0.0743
  712MOL0     C96047   9.784   8.231   1.898 -0.2671 -0.0754 -0.3224
  712MOL0     C96048   9.866   8.223   1.769  0.2229 -0.5809  0.1708
  712MOL0     C96049   9.976   8.317   1.763 -0.5709  0.3670  0.2430
  712MOL0     C96050  10.065   8.403   1.766  1.0604 -0.0787  0.4063
  712MOL0     C96051   9.269   8.417   1.854 -0.8201 -0.3221 -0.6217
  712MOL0     C96052   9.132   8.450   1.891 -0.3352  0.3868 -0.2228
  712MOL0     H96053   8.709   8.134   2.184  1.8750  0.1681  1.5258
  712MOL0     H96054   8.480   8.162   2.301 -1.2290  0.6871 -1.9385
  712MOL0     H96055   8.432   8.506   2.490 -1.1941 -1.1203  1.5849
  712MOL0     H96056   8.320   8.576   2.359 -0.0132 -0.6879 -0.7250
  712MOL0     H96057   8.244   8.362   2.569 -2.3621 -0.3919 -0.6587
  712MOL0     H96058   8.200   8.541   2.579 -0.9448  0.0106  0.2962
  712MOL0     H96059   8.069   8.538   2.383 -1.5660 -1.8211 -2.8970
  712MOL0     H96060   8.108   8.364   2.347  0.3442 -0.7823 -0.2604
  712MOL0     H96061   8.026   8.290   2.529 -1.0591  0.2504  2.6048
  712MOL0     H96062   7.986   8.443   2.609  0.7316  2.9572 -1.3035
  712MOL0     H96063   7.819   8.506   2.471  1.4729  0.3102 -0.4500
  712MOL0     H96064   7.844   8.352   2.364  0.6044 -2.6037  0.6343
  712MOL0     H96065   7.772   8.201   2.529  0.6077 -0.2621 -0.1070
  712MOL0     H96066   7.761   8.330   2.648 -3.3828  1.0593  1.2590
  712MOL0     H96067   7.569   8.438   2.544  0.5329 -0.7622 -0.4790
  712MOL0     H96068   7.573   8.326   2.400 -0.9047 -2.9998  0.1013
  712MOL0     H96069   7.521   8.242   2.671  1.1635 -0.0808 -0.6815
  712MOL0     H96070   7.514   8.140   2.543 -3.3499 -0.6493  1.2452
  712MOL0     H96071   7.285   8.376   2.724  1.1095 -0.1088  0.2397
  712MOL0     H96072   7.069   8.551   2.654  1.2544  0.8260 -1.5517
  712MOL0     H96073   6.979   8.481   2.526  0.5993  0.8689  0.3460
  712MOL0     H96074   7.061   8.326   2.789 -0.4082 -0.2941  0.9149
  712MOL0     H96075   6.971   8.262   2.657  2.0534  0.7376 -1.2648
  712MOL0     H96076   6.893   8.489   2.859 -1.0513 -1.4141  2.7897
  712MOL0     H96077   6.830   8.324   2.856  2.6687 -2.2488  0.2639
  712MOL0     H96078   6.734   8.394   2.620  0.0778  1.9435 -1.1465
  712MOL0     H96079   6.793   8.552   2.656  3.3028 -0.8757  0.6280
  712MOL0     H96080   6.447   8.562   2.945 -1.0232 -2.3882  0.0298
  712MOL0     H96081   6.262   8.794   2.936 -0.0768 -0.0375 -1.7423
  712MOL0     H96082   6.123   8.680   2.915  0.2251 -3.2646 -1.7890
  712MOL0     H96083   6.253   8.636   3.021 -1.1119 -0.5386  0.5035
  712MOL0     H96084   5.981   8.810   2.358  1.2895 -1.2795 -1.3824
  712MOL0     H96085   5.757   8.830   2.278  1.2309 -0.8299 -2.1791
  712MOL0     H96086   5.440   8.764   2.460  2.6095 -0.0781  0.7585
  712MOL0     H96087   5.537   8.855   2.338 -0.6692  1.1338 -0.1380
  712MOL0     H96088   5.447   8.728   2.162  0.7454  1.3116  1.0872
  712MOL0     H96089   5.328   8.650   2.259 -1.9695  1.3710 -0.1668
  712MOL0     H96090   5.329   8.939   2.176  0.7762 -0.9450 -0.6700
  712MOL0     H96091   5.227   8.890   2.312  0.2165 -2.1287  0.4082
  712MOL0     H96092   5.206   8.729   2.059 -0.3994 -2.5211  1.5594
  712MOL0     H96093   5.087   8.767   2.185  1.1187  0.8607  1.7399
  712MOL0     H96094   5.209   8.966   1.969 -0.8741  2.5581  0.0908
  712MOL0     H96095   5.115   9.029   2.093 -1.8622  0.7452 -0.5912
  712MOL0     H96096   4.935   8.866   2.043  0.2994  0.5447 -0.2628
  712MOL0     H96097   4.949   8.993   1.922 -0.9662 -0.0813 -0.8079
  712MOL0     H96098   5.061   8.701   1.871 -0.0225 -1.0365 -1.3890
  712MOL0     H96099   5.057   8.849   1.773 -0.9359 -0.1102  0.3086
  712MOL0     H96100   4.890   8.676   1.719  3.8160  0.8612 -0.0307
  712MOL0     H96101   4.832   8.840   1.751 -0.7626  0.5628  1.7833
  712MOL0     H96102   5.664   8.458   2.479  2.2041 -0.8888 -2.9804
  712MOL0     H96103   5.900   8.462   2.574  2.2671  1.0019 -0.3976
  712MOL0     H96104   6.329   8.602   2.471  3.3314 -0.9216 -2.5297
  712MOL0     H96105   6.554   8.508   2.538 -0.6637  0.5448 -1.1033
  712MOL0     H96106   8.544   8.582   2.276  0.4709  0.2080 -0.6203
  712MOL0     H96107   8.756   8.552   2.187  0.4006 -0.1802  0.3776
  712MOL0     H96108   9.100   8.189   2.108 -2.5173  0.3373 -2.3923
  712MOL0     H96109   9.322   8.144   2.054 -1.0031  0.1960 -1.2666
  712MOL0     H96110   9.537   8.450   2.004 -0.2422  0.4691 -0.5990
  712MOL0     H96111   9.570   8.292   2.067  3.3355  0.1938  1.3224
  712MOL0     H96112   9.767   8.433   1.982 -2.3618  2.7578 -1.4351
  712MOL0     H96113   9.698   8.401   1.824  1.1857  1.3327  0.3596
  712MOL0     H96114   9.717   8.144   1.895  1.5063 -1.5065 -0.4898
  712MOL0     H96115   9.852   8.224   1.983 -1.4491  1.1549  0.7687
  712MOL0     H96116   9.810   8.260   1.683  1.6345  1.2105 -0.0427
  712MOL0     H96117   9.902   8.121   1.752  0.4109 -0.5517  0.3751
  712MOL0     H96118  10.131   8.486   1.776  2.3795 -1.2756  2.5371
  712MOL0     H96119   9.322   8.481   1.784 -0.5908 -1.3438 -1.4026
  712MOL0     H96120   9.076   8.529   1.843  0.2608  1.5110  0.8895
  713MOL0     O96121   1.126  10.780   0.662  0.1977  0.1319  0.3820
  713MOL0     C96122   1.104  10.833   0.767  1.0993 -0.2804 -0.7922
  713MOL0     O96123   0.980  10.862   0.813  0.8662  0.2807  0.1115
  713MOL0     C96124   0.883  10.844   0.718  0.0458 -0.6734  0.2912
  713MOL0     C96125   0.859  10.931   0.610 -0.3085  0.6685  0.4297
  713MOL0     C96126   0.746  10.919   0.523  0.5677  0.6179  0.4340
  713MOL0     C96127   0.656  10.809   0.555  0.0234  0.2395 -0.2739
  713MOL0     O96128   0.543  10.795   0.477 -0.2501  0.2345  0.6444
  713MOL0     C96129   0.412  10.764   0.523  0.3777 -0.1051 -0.4961
  713MOL0     C96130   0.342  10.692   0.411  0.8041  0.2248  0.1013
  713MOL0     C96131   0.312  10.789   0.295 -0.0857 -0.0940 -0.2281
  713MOL0     C96132   0.251  10.701   0.181  0.7238 -1.3853 -0.0113
  713MOL0     C96133   0.228  10.790   0.052  0.8638  0.0079 -0.3816
  713MOL0     C96134   0.159  10.712  -0.069  0.1085 -0.2680  0.1727
  713MOL0     C96135   0.165  10.792  -0.195 -0.2116 -0.6378 -0.1485
  713MOL0     C96136   0.046  10.900  -0.199 -1.0365 -0.1277 -0.1494
  713MOL0     N96137  -0.077  10.842  -0.229  0.0176 -0.3480  0.5678
  713MOL0     C96138  -0.188  10.892  -0.178  0.8641  0.0869  0.4589
  713MOL0     C96139  -0.282  10.819  -0.237 -0.8703 -0.1133  0.3468
  713MOL0     C96140  -0.432  10.819  -0.203  0.0544 -0.2069 -1.0326
  713MOL0     C96141  -0.465  10.816  -0.056  0.0522  0.4469  0.0722
  713MOL0     C96142  -0.516  10.941   0.018  0.9098  0.5804 -0.3542
  713MOL0     C96143  -0.530  10.902   0.164 -1.2997  0.0948 -0.3376
  713MOL0     O96144  -0.617  10.787   0.186 -0.1748  1.0092 -0.4382
  713MOL0     C96145  -0.752  10.801   0.191  0.2121 -0.5243 -0.1947
  713MOL0     C96146  -0.825  10.922   0.218 -0.7584  0.2269  0.1665
  713MOL0     C96147  -0.962  10.935   0.238 -0.5616  0.3770  1.2338
  713MOL0     C96148  -1.012  11.070   0.276  0.3881  0.9016 -0.4568
  713MOL0     C96149  -1.035  10.815   0.233  0.1867  0.5481  0.7584
  713MOL0     C96150  -1.187  10.806   0.233 -0.0111  0.1269 -0.3686
  713MOL0     O96151  -1.250  10.926   0.224 -0.1506  0.5150 -0.2303
  713MOL0     C96152  -1.387  10.930   0.220  0.3052 -0.2412  0.1722
  713MOL0     C96153  -1.467  10.835   0.157 -0.2619 -0.7632 -0.0940
  713MOL0     C96154  -1.606  10.855   0.150 -0.3206 -0.2530 -0.0359
  713MOL0     C96155  -1.663  10.969   0.209  0.4776  0.1746 -0.3575
  713MOL0     O96156  -1.798  10.980   0.228 -0.0218  0.1211 -0.2117
  713MOL0     C96157  -1.870  11.025   0.121 -0.1647  0.2514 -0.3678
  713MOL0     C96158  -1.941  11.160   0.148 -1.0222 -0.2846  0.1713
  713MOL0     C96159  -1.871  11.283   0.194  0.0192 -0.4764  0.0278
  713MOL0     C96160  -1.747  11.309   0.121 -0.9496 -0.3456  1.3347
  713MOL0     C96161  -1.642  11.411   0.176  0.8209  0.9380 -0.0780
  713MOL0     C96162  -1.688  11.558   0.168  0.6911 -0.0030 -0.1044
  713MOL0     C96163  -1.689  11.627   0.034 -0.1696 -0.2678 -0.1988
  713MOL0     C96164  -1.721  11.784   0.047  0.1916  1.4054 -0.7201
  713MOL0    Cl96165  -1.740  11.858  -0.114  0.1589 -0.3351  0.3106
  713MOL0     C96166  -1.586  11.063   0.282  0.5396 -0.0031  0.8003
  713MOL0     C96167  -1.449  11.042   0.278 -0.2217 -0.3964  0.5649
  713MOL0     O96168  -1.245  10.698   0.234 -0.6072  0.0812 -0.0384
  713MOL0     C96169  -0.965  10.696   0.205  0.2106 -0.0160 -0.0079
  713MOL0     C96170  -0.824  10.683   0.182  0.9494  0.7138  0.1290
  713MOL0     N96171  -0.234  10.718  -0.314 -0.9451 -0.1771 -0.8985
  713MOL0     N96172  -0.105  10.724  -0.304  1.1523  0.8801 -0.3837
  713MOL0     C96173   0.687  10.720   0.665 -0.6117 -0.9766 -0.1324
  713MOL0     C96174   0.799  10.744   0.745  0.2561  0.5292 -0.4432
  713MOL0     C96175   1.210  10.878   0.853 -0.4507  0.3576  0.5780
  713MOL0     C96176   1.198  10.895   0.992  0.2042  0.1492  0.2547
  713MOL0     C96177   1.311  10.918   1.072 -0.6673  0.0729  0.2605
  713MOL0     C96178   1.432  10.936   1.016 -0.2233  0.1742 -0.5858
  713MOL0     O96179   1.528  10.984   1.106  0.0584 -0.2547  0.1087
  713MOL0     C96180   1.670  10.994   1.067 -0.0913 -1.0831  0.3359
  713MOL0     C96181   1.733  10.857   1.071 -0.7290  0.3518 -0.0237
  713MOL0     C96182   1.870  10.874   1.012 -0.2541  0.7883  0.8119
  713MOL0     C96183   1.963  10.758   1.015  0.3788  0.6714 -0.3302
  713MOL0     C96184   2.025  10.744   1.146 -0.5458 -0.4400 -0.1086
  713MOL0     C96185   2.065  10.740   1.261 -0.8651  0.6406  0.4858
  713MOL0     C96186   1.453  10.919   0.876  0.0795  0.3325 -0.2632
  713MOL0     C96187   1.346  10.872   0.795  0.2652  0.0845 -0.5137
  713MOL0     H96188   0.935  11.007   0.601  1.0985 -0.3924  2.5030
  713MOL0     H96189   0.712  10.982   0.442  2.1914 -0.5687 -1.2333
  713MOL0     H96190   0.395  10.700   0.610 -1.8782 -0.4417 -1.1231
  713MOL0     H96191   0.368  10.861   0.550  2.4659  0.5732  0.6894
  713MOL0     H96192   0.389  10.600   0.375  0.9888  0.5766 -0.5793
  713MOL0     H96193   0.241  10.675   0.450 -0.6634  4.0783 -1.5139
  713MOL0     H96194   0.244  10.867   0.333  2.7733  1.9786  1.0201
  713MOL0     H96195   0.400  10.840   0.254 -0.4818  1.1038  0.3465
  713MOL0     H96196   0.311  10.616   0.147  2.0661 -0.1253 -0.9684
  713MOL0     H96197   0.150  10.671   0.207  0.6177 -2.3913 -1.4459
  713MOL0     H96198   0.165  10.873   0.085  2.9106  2.5260 -2.3922
  713MOL0     H96199   0.322  10.833   0.018  2.1157 -2.6216 -0.4202
  713MOL0     H96200   0.197  10.610  -0.071  0.1901 -0.3828  3.0312
  713MOL0     H96201   0.058  10.702  -0.029 -0.3130 -1.1141 -1.0633
  713MOL0     H96202   0.265  10.836  -0.192 -0.2766 -0.5381  1.0824
  713MOL0     H96203   0.158  10.729  -0.284 -2.3584  0.8372 -1.1129
  713MOL0     H96204   0.076  10.963  -0.283 -1.5626 -0.5501 -0.6550
  713MOL0     H96205   0.046  10.968  -0.113  3.0498 -2.7219  2.2425
  713MOL0     H96206  -0.205  10.957  -0.094  0.6571 -2.3499  2.4234
  713MOL0     H96207  -0.472  10.911  -0.247 -2.7760 -1.7766 -2.0425
  713MOL0     H96208  -0.479  10.732  -0.250 -0.0913 -0.0954 -1.0941
  713MOL0     H96209  -0.382  10.779   0.005 -1.1693  3.5553  4.0625
  713MOL0     H96210  -0.542  10.740  -0.041 -0.6539  1.0181 -0.6056
  713MOL0     H96211  -0.613  10.974  -0.020  1.0103  0.3602 -0.8073
  713MOL0     H96212  -0.453  11.028   0.001  0.1815  0.9724 -1.0987
  713MOL0     H96213  -0.560  10.989   0.223 -2.2994 -1.1805  1.1241
  713MOL0     H96214  -0.434  10.886   0.214 -1.3267 -0.4543 -0.4610
  713MOL0     H96215  -0.758  11.008   0.214  0.9331 -0.9778  1.3783
  713MOL0     H96216  -0.942  11.118   0.345 -0.3914 -1.1858  1.9616
  713MOL0     H96217  -1.038  11.135   0.192 -3.3332 -0.7217 -0.7786
  713MOL0     H96218  -1.103  11.054   0.336 -0.4831  2.1294 -1.3817
  713MOL0     H96219  -1.435  10.737   0.122  0.4513 -0.4123 -0.4233
  713MOL0     H96220  -1.659  10.788   0.082  2.5578 -0.3565 -2.3963
  713MOL0     H96221  -1.822  11.029   0.023 -0.3750  0.3356 -0.4677
  713MOL0     H96222  -1.951  10.953   0.100  0.1280 -0.0842 -0.3576
  713MOL0     H96223  -1.987  11.189   0.053  0.8569 -0.5947 -0.8704
  713MOL0     H96224  -2.019  11.133   0.219 -0.7079  1.4062  1.2193
  713MOL0     H96225  -1.845  11.261   0.298 -3.6761 -1.7434  0.8163
  713MOL0     H96226  -1.938  11.369   0.189  0.5452 -0.1134 -1.1528
  713MOL0     H96227  -1.688  11.217   0.116 -0.6575 -0.1965  1.9783
  713MOL0     H96228  -1.771  11.339   0.018  2.2804  0.0858  0.6077
  713MOL0     H96229  -1.554  11.394   0.113  0.9168 -1.6558  0.6382
  713MOL0     H96230  -1.622  11.380   0.279 -2.0190  1.2024  0.6533
  713MOL0     H96231  -1.784  11.564   0.218  1.4801  1.8971  1.2614
  713MOL0     H96232  -1.611  11.609   0.226  1.4240 -0.4675 -0.6469
  713MOL0     H96233  -1.771  11.592  -0.031 -1.1785  2.1839 -0.3643
  713MOL0     H96234  -1.591  11.621  -0.013  0.1860 -0.4356  0.5670
  713MOL0     H96235  -1.662  11.851   0.110 -2.4298  2.3157  0.9298
  713MOL0     H96236  -1.821  11.784   0.091  0.0842  3.0580 -0.8911
  713MOL0     H96237  -1.630  11.149   0.331  0.7038  0.6822 -0.2160
  713MOL0     H96238  -1.395  11.120   0.330 -0.2736  1.1027 -1.4887
  713MOL0     H96239  -1.017  10.601   0.208  0.8828 -0.4155 -0.6741
  713MOL0     H96240  -0.773  10.588   0.169 -1.1489 -0.2648 -1.6707
  713MOL0     H96241   0.622  10.637   0.689  0.7681 -1.4651  2.2462
  713MOL0     H96242   0.799  10.691   0.840 -4.5764 -0.5857 -0.8360
  713MOL0     H96243   1.100  10.897   1.038  0.9211  0.1404  1.8499
  713MOL0     H96244   1.295  10.943   1.176 -1.6488  0.8222 -0.0475
  713MOL0     H96245   1.681  11.032   0.966  1.3129  2.7166  1.7555
  713MOL0     H96246   1.731  11.062   1.127  2.2229 -0.3772 -2.5798
  713MOL0     H96247   1.664  10.790   1.019 -0.2192 -1.2812  1.3029
  713MOL0     H96248   1.735  10.822   1.174 -0.8833 -1.2518 -0.5385
  713MOL0     H96249   1.916  10.967   1.047 -3.0594  2.3534  0.6517
  713MOL0     H96250   1.846  10.895   0.907 -0.1435 -0.3199  0.5530
  713MOL0     H96251   2.043  10.772   0.941 -0.5762 -0.2985 -1.5723
  713MOL0     H96252   1.913  10.667   0.982  1.9412 -1.3650  2.4671
  713MOL0     H96253   2.102  10.737   1.362  1.7393 -1.5811 -0.4158
  713MOL0     H96254   1.549  10.919   0.826  1.0069 -1.3922  1.3663
  713MOL0     H96255   1.373  10.857   0.691  1.1508  1.7520 -0.5692
  714MOL0     O96256   4.539  10.066   3.124  0.6476  0.4011 -0.1282
  714MOL0     C96257   4.583  10.084   3.014 -0.1901  0.9313  0.2350
  714MOL0     O96258   4.532  10.033   2.897  0.0316  0.5075  0.3156
  714MOL0     C96259   4.414   9.975   2.879 -0.5856 -0.5418  0.4773
  714MOL0     C96260   4.310   9.998   2.970  0.0265  0.8382  0.1743
  714MOL0     C96261   4.184   9.946   2.937  0.7043 -0.2124 -0.0687
  714MOL0     C96262   4.168   9.886   2.810 -0.3287  0.0739 -0.1768
  714MOL0     O96263   4.043   9.844   2.758 -0.5540 -0.1129  0.2208
  714MOL0     C96264   3.908   9.907   2.790 -1.9662  1.0619  0.3184
  714MOL0     C96265   3.800   9.798   2.823  0.0893 -0.0934  0.9179
  714MOL0     C96266   3.658   9.858   2.828 -0.2151  0.3615 -0.0433
  714MOL0     C96267   3.561   9.743   2.822 -0.0340 -0.3800  0.7960
  714MOL0     C96268   3.420   9.796   2.783 -0.3762  0.6797 -0.4244
  714MOL0     C96269   3.367   9.893   2.884 -0.3191 -0.4581 -1.2163
  714MOL0     C96270   3.225   9.960   2.858 -0.3495 -0.7567  0.1494
  714MOL0     C96271   3.199  10.065   2.958  0.1670 -1.5147 -0.1023
  714MOL0     N96272   3.062  10.120   2.948  0.3979 -0.4536 -1.1778
  714MOL0     C96273   3.042  10.231   2.872  0.4819  0.2155  0.6199
  714MOL0     C96274   2.911  10.265   2.898  0.1718  1.0085 -0.9285
  714MOL0     C96275   2.834  10.373   2.834  0.3501  0.8348  0.5765
  714MOL0     C96276   2.816  10.480   2.941  0.0223 -0.0542 -0.0913
  714MOL0     C96277   2.758  10.598   2.868  1.1116 -0.5115 -0.3238
  714MOL0     C96278   2.712  10.705   2.968 -0.7035 -0.4553 -0.3266
  714MOL0     O96279   2.797  10.816   2.981 -0.4497 -0.0047  0.2896
  714MOL0     C96280   2.803  10.911   2.885  0.2861 -0.3731  1.0417
  714MOL0     C96281   2.911  10.990   2.877 -0.4238 -0.2899  0.3061
  714MOL0     C96282   2.925  11.086   2.769  0.4063  0.5455  0.5579
  714MOL0     C96283   3.050  11.180   2.775 -0.1594  0.0126 -0.1294
  714MOL0     C96284   2.810  11.110   2.687 -0.1327 -0.5090  0.5870
  714MOL0     C96285   2.796  11.205   2.577 -0.1549 -0.3927 -0.2814
  714MOL0     O96286   2.672  11.224   2.526 -0.0159  0.0850  0.2907
  714MOL0     C96287   2.639  11.301   2.417  0.7446 -0.5375  0.3275
  714MOL0     C96288   2.690  11.422   2.380 -0.1271  0.6644  0.4419
  714MOL0     C96289   2.621  11.515   2.298  0.2477  0.4494 -0.1306
  714MOL0     C96290   2.511  11.471   2.223  0.8095  0.0030  0.3874
  714MOL0     O96291   2.442  11.541   2.128 -0.6669  1.0774 -0.1941
  714MOL0     C96292   2.460  11.682   2.146 -0.0238 -0.4135 -0.6965
  714MOL0     C96293   2.417  11.742   2.009  0.1815 -0.4000 -0.2381
  714MOL0     C96294   2.270  11.720   1.976 -0.1035 -0.3350 -0.2669
  714MOL0     C96295   2.173  11.790   2.081  0.1218 -0.0559  0.3368
  714MOL0     C96296   2.028  11.789   2.024  0.3861 -0.2107  0.3044
  714MOL0     C96297   1.937  11.865   2.120  0.1757  0.0806 -0.3729
  714MOL0     C96298   1.930  12.018   2.078 -0.2244  0.5823  0.2502
  714MOL0     C96299   1.871  12.045   1.944  0.1663 -0.3723  0.5056
  714MOL0    Cl96300   1.822  12.217   1.953  0.7225 -0.1237 -0.5901
  714MOL0     C96301   2.464  11.336   2.244 -0.7914 -0.9793  0.4733
  714MOL0     C96302   2.525  11.255   2.337  0.1361  0.0518 -0.5161
  714MOL0     O96303   2.894  11.276   2.547  0.2288  0.0176  0.0075
  714MOL0     C96304   2.692  11.043   2.707 -0.7835  1.1266 -0.2573
  714MOL0     C96305   2.687  10.940   2.801 -0.3331  0.0371 -0.5249
  714MOL0     N96306   2.863  10.166   2.990 -0.0307 -0.1957 -0.2208
  714MOL0     N96307   2.959  10.081   3.020  0.0431 -0.5414  0.2363
  714MOL0     C96308   4.270   9.855   2.723 -0.0028  0.0370  0.2929
  714MOL0     C96309   4.396   9.901   2.759 -0.3423 -0.2711 -0.3086
  714MOL0     C96310   4.712  10.169   3.002 -0.1265 -0.6740  0.6581
  714MOL0     C96311   4.760  10.210   2.877 -0.2561  0.3034 -0.2122
  714MOL0     C96312   4.874  10.292   2.874  0.6842  0.9730 -0.0040
  714MOL0     C96313   4.944  10.327   2.986  0.4654 -0.2430  0.3017
  714MOL0     O96314   5.054  10.395   2.958  0.1819 -0.3774  0.3181
  714MOL0     C96315   5.110  10.468   3.078  0.0017 -0.4172 -0.2357
  714MOL0     C96316   5.236  10.548   3.046 -0.3282 -0.0764 -0.2638
  714MOL0     C96317   5.347  10.444   2.998 -0.2321 -0.1330  0.3472
  714MOL0     C96318   5.396  10.341   3.102  0.0916 -0.0348 -0.2701
  714MOL0     C96319   5.404  10.393   3.235 -0.0585  0.1293 -0.6758
  714MOL0     C96320   5.434  10.439   3.348  0.1371  0.4269  1.6342
  714MOL0     C96321   4.897  10.276   3.111  1.0080  0.1152  0.6145
  714MOL0     C96322   4.782  10.195   3.119  0.0066 -0.3809  0.3211
  714MOL0     H96323   4.316  10.038   3.070  3.1741  0.6492  0.1703
  714MOL0     H96324   4.092   9.950   2.994 -1.1122 -1.5783 -2.7360
  714MOL0     H96325   3.912   9.964   2.883 -0.6253  1.9217 -0.2398
  714MOL0     H96326   3.870   9.966   2.705 -0.7618 -2.7109 -3.1851
  714MOL0     H96327   3.811   9.724   2.743 -0.2461  3.3477 -2.6271
  714MOL0     H96328   3.816   9.747   2.918  1.5077 -2.5812 -0.5287
  714MOL0     H96329   3.645   9.902   2.928 -0.2090  0.1475  0.0521
  714MOL0     H96330   3.646   9.939   2.756  2.1038  2.1449  1.4147
  714MOL0     H96331   3.595   9.681   2.739 -3.8007 -0.5881 -0.7766
  714MOL0     H96332   3.559   9.679   2.910  1.8762 -2.8452 -0.8365
  714MOL0     H96333   3.420   9.848   2.688 -0.2126 -1.1278 -1.4683
  714MOL0     H96334   3.348   9.715   2.766  1.8526 -0.6689 -5.2933
  714MOL0     H96335   3.366   9.840   2.980  2.3254  0.9913 -0.2625
  714MOL0     H96336   3.428   9.983   2.894 -2.3019  0.9736 -1.5185
  714MOL0     H96337   3.225  10.004   2.758  1.8657  0.9199  0.8198
  714MOL0     H96338   3.152   9.879   2.864 -0.5287 -0.5576  0.8564
  714MOL0     H96339   3.270  10.145   2.935 -0.6480 -0.1056  1.9698
  714MOL0     H96340   3.226  10.037   3.060  1.1525  0.3956  0.1997
  714MOL0     H96341   3.105  10.277   2.797 -2.4335  1.3895 -1.2965
  714MOL0     H96342   2.888  10.411   2.747 -0.0346  0.1578  0.0309
  714MOL0     H96343   2.739  10.330   2.801  1.8379 -1.1027 -1.4777
  714MOL0     H96344   2.908  10.507   2.993 -0.2766 -0.8696  0.8866
  714MOL0     H96345   2.753  10.434   3.017  0.2674  0.0862  0.1960
  714MOL0     H96346   2.679  10.577   2.795 -0.5201  1.6260  0.7091
  714MOL0     H96347   2.841  10.645   2.814  1.9598 -3.7577 -2.1277
  714MOL0     H96348   2.720  10.658   3.067 -1.0601  0.5311  0.1806
  714MOL0     H96349   2.606  10.731   2.958 -1.0955 -1.9105 -0.2520
  714MOL0     H96350   2.985  10.970   2.955  2.0021  0.5680 -1.6582
  714MOL0     H96351   3.136  11.138   2.723  0.0693  0.2978  0.0224
  714MOL0     H96352   3.025  11.277   2.732 -2.4517  0.9482  2.9622
  714MOL0     H96353   3.073  11.199   2.880 -0.5024 -0.3195  0.0099
  714MOL0     H96354   2.775  11.466   2.431 -0.5784  0.9840  0.9245
  714MOL0     H96355   2.658  11.614   2.273 -1.7723  0.9511 -1.4282
  714MOL0     H96356   2.400  11.720   2.229  2.0203  0.1638  0.6078
  714MOL0     H96357   2.561  11.723   2.158  0.2837 -0.5993 -2.3285
  714MOL0     H96358   2.441  11.849   2.002 -2.7619  0.3554  0.1023
  714MOL0     H96359   2.482  11.692   1.937 -0.2500 -2.1314  0.5253
  714MOL0     H96360   2.252  11.613   1.987  0.0678 -0.1867  1.9898
  714MOL0     H96361   2.244  11.762   1.878 -0.8834 -1.3226 -0.4972
  714MOL0     H96362   2.164  11.738   2.177 -3.6990 -0.3213 -0.0203
  714MOL0     H96363   2.209  11.892   2.097  0.2368 -0.1603  0.7657
  714MOL0     H96364   1.991  11.686   2.022 -0.7228  0.1702  0.3202
  714MOL0     H96365   2.024  11.832   1.923  1.2568  0.9079  0.7150
  714MOL0     H96366   1.836  11.823   2.112 -0.1357  0.7280  0.1168
  714MOL0     H96367   1.964  11.857   2.226  1.3781 -1.1112 -0.7358
  714MOL0     H96368   2.032  12.059   2.076 -0.3871  1.5043  3.7276
  714MOL0     H96369   1.865  12.069   2.150 -1.4402 -0.4530 -0.0900
  714MOL0     H96370   1.784  11.979   1.940  1.3046 -1.8639 -1.8743
  714MOL0     H96371   1.931  12.028   1.854 -3.1455 -0.6759 -1.8276
  714MOL0     H96372   2.384  11.298   2.181  0.6678 -0.9167 -1.5326
  714MOL0     H96373   2.477  11.158   2.342 -2.4000  1.2440  0.0499
  714MOL0     H96374   2.601  11.061   2.650 -0.1056  0.6221 -1.5506
  714MOL0     H96375   2.590  10.891   2.812 -1.3076  1.8433 -0.5723
  714MOL0     H96376   4.250   9.802   2.630  0.7793  0.0984  0.0829
  714MOL0     H96377   4.474   9.903   2.683  1.5463 -0.5153  1.5168
  714MOL0     H96378   4.706  10.191   2.784 -0.1383  1.8534 -0.6135
  714MOL0     H96379   4.899  10.332   2.777 -2.2315  0.3311 -1.1350
  714MOL0     H96380   5.028  10.525   3.120 -1.6631 -2.6045 -0.3115
  714MOL0     H96381   5.138  10.401   3.160  4.1487  0.0736 -1.0229
  714MOL0     H96382   5.273  10.610   3.128  0.9608  2.1870 -2.4239
  714MOL0     H96383   5.224  10.640   2.988  0.6591  2.0464  2.6453
  714MOL0     H96384   5.438  10.492   2.962  0.8592  0.0595  3.1189
  714MOL0     H96385   5.308  10.380   2.917  1.1047 -0.0872 -0.3564
  714MOL0     H96386   5.493  10.303   3.070  0.5911  0.1088  1.0019
  714MOL0     H96387   5.328  10.256   3.092  0.5079 -0.6093  1.5187
  714MOL0     H96388   5.441  10.465   3.452 -2.2088  0.6940  1.7841
  714MOL0     H96389   4.930  10.302   3.211 -1.2441 -0.9805  1.7298
  714MOL0     H96390   4.758  10.153   3.216  2.0949  1.1106  1.5574
  715MOL0     O96391   5.943   0.874   7.077 -0.0832  0.0159 -0.2633
  715MOL0     C96392   6.011   0.974   7.069  0.7587  0.4471  1.2392
  715MOL0     O96393   5.968   1.093   7.021 -0.1787  0.5402  0.3791
  715MOL0     C96394   5.839   1.098   6.977  0.2343  0.2235 -0.4169
  715MOL0     C96395   5.805   1.063   6.857  0.4365  0.4822  0.3234
  715MOL0     C96396   5.667   1.070   6.824  0.1550  0.8863 -0.0000
  715MOL0     C96397   5.568   1.124   6.910 -0.1666 -0.3563  0.9161
  715MOL0     O96398   5.443   1.127   6.867  0.1112 -0.3483 -0.4955
  715MOL0     C96399   5.367   1.024   6.932 -0.4479  0.4011 -0.0584
  715MOL0     C96400   5.269   0.965   6.821  0.0406 -0.6663  0.1055
  715MOL0     C96401   5.178   0.857   6.881 -0.1587 -0.7799  0.8679
  715MOL0     C96402   5.037   0.878   6.844 -0.1966 -0.0906 -0.1783
  715MOL0     C96403   4.935   0.785   6.906 -0.8105  0.5810  0.1161
  715MOL0     C96404   4.794   0.834   6.875  0.6310  0.1861 -0.1594
  715MOL0     C96405   4.698   0.738   6.936 -0.1706  0.0474 -0.4210
  715MOL0     C96406   4.553   0.767   6.897  0.3845  0.1503  0.2199
  715MOL0     N96407   4.456   0.669   6.941 -0.6786 -0.6470  0.4358
  715MOL0     C96408   4.409   0.564   6.870 -0.2272  0.1048  0.0687
  715MOL0     C96409   4.338   0.488   6.963  0.0188  0.7604  0.3836
  715MOL0     C96410   4.281   0.359   6.928  0.5146 -0.2447 -0.4616
  715MOL0     C96411   4.142   0.370   6.865 -0.1014 -0.7543  0.2419
  715MOL0     C96412   4.045   0.454   6.952  0.1698  0.5003 -1.2036
  715MOL0     C96413   3.906   0.459   6.892 -0.3197 -0.5624  0.2019
  715MOL0     O96414   3.820   0.360   6.961  0.2686 -0.2087  0.4763
  715MOL0     C96415   3.686   0.365   6.910  0.1813  0.5874  0.9389
  715MOL0     C96416   3.668   0.352   6.774  0.1185  0.7072 -0.8361
  715MOL0     C96417   3.542   0.324   6.727 -0.1012  0.0823  0.3264
  715MOL0     C96418   3.537   0.299   6.575  0.0898 -1.0798  0.0207
  715MOL0     C96419   3.429   0.339   6.814  0.7285 -0.6329 -0.0778
  715MOL0     C96420   3.289   0.342   6.758  0.4240 -0.3847 -0.0273
  715MOL0     O96421   3.195   0.288   6.837 -0.2928  0.0862  0.6564
  715MOL0     C96422   3.076   0.267   6.777  0.2954 -0.1524  0.3349
  715MOL0     C96423   3.040   0.145   6.716  0.3374  0.7105  0.6609
  715MOL0     C96424   2.916   0.122   6.662  0.9078 -0.1362 -0.0590
  715MOL0     C96425   2.812   0.217   6.688 -1.3332 -0.7237 -0.7209
  715MOL0     O96426   2.674   0.198   6.658 -0.2225 -0.4342  0.2996
  715MOL0     C96427   2.638   0.077   6.588  0.0842 -0.0354  0.1242
  715MOL0     C96428   2.504   0.100   6.539  0.4746  0.2936  0.3157
  715MOL0     C96429   2.484   0.210   6.427  0.1923  0.1165 -0.1731
  715MOL0     C96430   2.339   0.241   6.395 -0.7400 -0.2567  0.1401
  715MOL0     C96431   2.264   0.319   6.508 -0.9699  0.5639  0.7865
  715MOL0     C96432   2.118   0.360   6.476  0.3518 -0.4955  0.3640
  715MOL0     C96433   2.060   0.409   6.610 -0.6876 -0.3367  0.0132
  715MOL0     C96434   1.910   0.404   6.624  0.2667 -0.0070  0.2319
  715MOL0    Cl96435   1.859   0.229   6.651  0.1472  0.0060 -0.5132
  715MOL0     C96436   2.842   0.334   6.764  0.3949 -0.2532  1.2286
  715MOL0     C96437   2.974   0.355   6.802  0.2330 -0.3379 -0.1145
  715MOL0     O96438   3.270   0.387   6.648  0.2547 -0.7679 -0.4891
  715MOL0     C96439   3.453   0.339   6.952 -0.9552  0.2420 -0.7712
  715MOL0     C96440   3.584   0.357   7.006 -0.9543 -0.3870  0.5272
  715MOL0     N96441   4.342   0.544   7.083 -0.0670 -0.6673  0.2901
  715MOL0     N96442   4.404   0.656   7.066  0.8771  0.1022 -0.2403
  715MOL0     C96443   5.603   1.155   7.036 -0.4364  0.4560 -0.5902
  715MOL0     C96444   5.738   1.152   7.068 -0.0386  0.1803  0.6011
  715MOL0     C96445   6.155   0.962   7.107  0.5516  0.7255 -0.1370
  715MOL0     C96446   6.218   0.839   7.142 -0.8384 -0.1004  1.1323
  715MOL0     C96447   6.348   0.837   7.183  0.0761  0.4315  0.8988
  715MOL0     C96448   6.420   0.959   7.211 -0.2888 -0.1144  0.4542
  715MOL0     O96449   6.555   0.959   7.243  0.4401 -0.6659 -0.0462
  715MOL0     C96450   6.655   0.999   7.151 -0.5291  0.1598  0.5435
  715MOL0     C96451   6.778   0.939   7.200 -0.3178  0.4414  0.2406
  715MOL0     C96452   6.757   0.774   7.196 -0.8355 -0.2105 -0.0097
  715MOL0     C96453   6.870   0.705   7.273 -0.2126 -0.7652 -0.1316
  715MOL0     C96454   6.885   0.567   7.245  0.2053  0.0247  0.4611
  715MOL0     C96455   6.913   0.455   7.218 -0.2375 -0.5749  0.2857
  715MOL0     C96456   6.356   1.075   7.189  0.2853 -0.4914 -0.2328
  715MOL0     C96457   6.233   1.081   7.126  0.3845  0.3110 -0.1303
  715MOL0     H96458   5.868   1.019   6.780 -1.9472  0.5860 -1.8300
  715MOL0     H96459   5.628   1.024   6.734 -0.7114  0.5776  0.5199
  715MOL0     H96460   5.430   0.944   6.974 -1.1699 -0.1679 -0.0417
  715MOL0     H96461   5.312   1.074   7.012  0.7848 -0.2703  1.2568
  715MOL0     H96462   5.221   1.051   6.773 -0.9289 -0.5641  1.2052
  715MOL0     H96463   5.329   0.914   6.745  2.2395  2.0885 -0.1469
  715MOL0     H96464   5.189   0.753   6.849  0.5947 -0.6260  0.6035
  715MOL0     H96465   5.195   0.861   6.989 -0.6233  0.5118  0.9188
  715MOL0     H96466   5.011   0.979   6.877  3.2163  1.4655 -1.6849
  715MOL0     H96467   5.022   0.873   6.735 -1.4661 -0.8264  0.0117
  715MOL0     H96468   4.939   0.685   6.860  1.2245  0.5849  0.1950
  715MOL0     H96469   4.948   0.770   7.013 -0.4067  0.5662  0.0660
  715MOL0     H96470   4.770   0.934   6.913 -5.8677 -0.8365 -0.5581
  715MOL0     H96471   4.777   0.841   6.767 -1.1281  1.3819  0.1567
  715MOL0     H96472   4.706   0.634   6.904  0.2070  0.2402 -0.9613
  715MOL0     H96473   4.701   0.738   7.046  0.3899  0.4492 -0.4348
  715MOL0     H96474   4.557   0.779   6.788  3.6178 -2.0996 -0.0413
  715MOL0     H96475   4.522   0.861   6.943  1.4285  0.2981  0.6580
  715MOL0     H96476   4.441   0.548   6.768  0.7493  1.2096  0.1699
  715MOL0     H96477   4.353   0.299   6.871 -0.4162  1.9200 -4.2014
  715MOL0     H96478   4.270   0.295   7.017  4.9126 -0.8889 -0.1447
  715MOL0     H96479   4.099   0.272   6.842  0.6863 -0.8597 -0.8704
  715MOL0     H96480   4.163   0.412   6.766  1.5582  0.5619  1.1031
  715MOL0     H96481   4.089   0.553   6.967  3.8058 -1.2695  1.7674
  715MOL0     H96482   4.038   0.414   7.054 -0.1824  1.8943 -0.6519
  715MOL0     H96483   3.923   0.428   6.789 -0.8204 -2.8554  0.7714
  715MOL0     H96484   3.871   0.562   6.905 -0.3119 -0.7748  2.3048
  715MOL0     H96485   3.756   0.350   6.710  0.2610  0.8923 -0.6502
  715MOL0     H96486   3.618   0.241   6.531  0.5146  0.5622 -1.4806
  715MOL0     H96487   3.449   0.241   6.546  1.3338 -3.4387  0.6900
  715MOL0     H96488   3.539   0.401   6.536 -3.6448  0.1658  2.4669
  715MOL0     H96489   3.117   0.069   6.704 -1.7368 -2.0177  3.1416
  715MOL0     H96490   2.890   0.029   6.612 -2.7551 -0.0183  1.2866
  715MOL0     H96491   2.708   0.038   6.514 -0.5928 -3.2187  1.0176
  715MOL0     H96492   2.636  -0.007   6.658 -0.5541 -1.0797 -1.1122
  715MOL0     H96493   2.474   0.007   6.490 -1.4858  1.6806 -1.2938
  715MOL0     H96494   2.445   0.131   6.625 -2.8766  4.5429 -3.0382
  715MOL0     H96495   2.532   0.158   6.343  1.1449 -3.9289  2.5682
  715MOL0     H96496   2.553   0.291   6.451  0.9959 -0.7645  0.6115
  715MOL0     H96497   2.354   0.306   6.308  0.1102  2.7337  2.3224
  715MOL0     H96498   2.294   0.145   6.371  1.6678 -1.1728 -1.0846
  715MOL0     H96499   2.324   0.407   6.534  2.1964 -1.2870  0.3501
  715MOL0     H96500   2.242   0.247   6.587 -1.8251 -0.2780 -0.1830
  715MOL0     H96501   2.127   0.443   6.405 -2.6501 -1.0788 -0.8793
  715MOL0     H96502   2.066   0.274   6.433  0.6856 -0.4522 -0.1307
  715MOL0     H96503   2.087   0.513   6.629  1.0920 -0.9726  1.2082
  715MOL0     H96504   2.109   0.354   6.691  0.1235  0.8490  0.3529
  715MOL0     H96505   1.863   0.438   6.531  2.3746  0.9038 -0.5591
  715MOL0     H96506   1.865   0.466   6.702 -2.1732 -0.4213 -0.7540
  715MOL0     H96507   2.759   0.400   6.785  1.0442  1.1953 -0.5195
  715MOL0     H96508   2.985   0.442   6.866  0.9226 -0.7775  0.3779
  715MOL0     H96509   3.374   0.327   7.025  0.2726 -0.2738  0.5280
  715MOL0     H96510   3.594   0.370   7.113 -0.0727 -1.4881  0.5981
  715MOL0     H96511   5.530   1.198   7.103 -0.6244  0.2461 -0.6579
  715MOL0     H96512   5.764   1.180   7.170  2.0538 -2.3568  0.8649
  715MOL0     H96513   6.178   0.743   7.113  0.6220  0.6632 -4.6022
  715MOL0     H96514   6.407   0.746   7.181  1.3220  1.1844 -1.8959
  715MOL0     H96515   6.634   0.955   7.053 -2.1246 -2.0711  1.7910
  715MOL0     H96516   6.658   1.108   7.151  0.2960  0.1486  1.1114
  715MOL0     H96517   6.803   0.969   7.302 -0.1047  1.7019 -0.1657
  715MOL0     H96518   6.869   0.948   7.140  1.4889 -2.0682  2.3603
  715MOL0     H96519   6.748   0.744   7.091 -1.9766 -0.2544  0.0917
  715MOL0     H96520   6.665   0.754   7.252 -0.3549  0.0297  0.8789
  715MOL0     H96521   6.848   0.713   7.379 -1.7251  1.6681 -0.5473
  715MOL0     H96522   6.964   0.756   7.252 -0.3137  0.5364  2.3103
  715MOL0     H96523   6.953   0.364   7.180 -0.3776 -0.5558  0.0846
  715MOL0     H96524   6.414   1.166   7.196  2.3725 -1.6672 -1.3245
  715MOL0     H96525   6.184   1.178   7.116 -0.0422 -0.1293 -2.8547
  716MOL0     O96526   0.049   7.209   3.213  0.2138  0.5587 -0.0339
  716MOL0     C96527   0.126   7.258   3.130 -0.8856  0.0622  0.0527
  716MOL0     O96528   0.096   7.305   3.008  0.7812  0.3048 -1.1004
  716MOL0     C96529  -0.039   7.312   2.960 -0.6552 -0.8091  0.1945
  716MOL0     C96530  -0.156   7.331   3.036 -0.2708  0.5892  0.1731
  716MOL0     C96531  -0.286   7.321   2.974 -0.8414 -0.2136  0.4170
  716MOL0     C96532  -0.282   7.280   2.833  0.2201  0.1750 -0.6321
  716MOL0     O96533  -0.405   7.270   2.762 -0.4451  0.3048  0.0892
  716MOL0     C96534  -0.516   7.211   2.824  0.7466 -0.3927 -1.0873
  716MOL0     C96535  -0.608   7.318   2.884  0.0045 -0.0944 -0.0597
  716MOL0     C96536  -0.711   7.259   2.984 -0.5912 -0.0824  0.4926
  716MOL0     C96537  -0.785   7.381   3.025 -0.4098  0.8300  0.1070
  716MOL0     C96538  -0.897   7.341   3.129  0.1095 -0.7760  0.3750
  716MOL0     C96539  -0.966   7.480   3.153 -0.9173 -0.1244  0.0253
  716MOL0     C96540  -1.097   7.477   3.243  0.5053 -0.5834  0.2182
  716MOL0     C96541  -1.214   7.386   3.189 -0.2656  0.1959  0.1720
  716MOL0     N96542  -1.270   7.436   3.058 -0.6468 -0.1890  0.0972
  716MOL0     C96543  -1.379   7.518   3.047  0.9396 -0.5711  0.2751
  716MOL0     C96544  -1.403   7.533   2.913  0.2186 -0.9000 -0.2240
  716MOL0     C96545  -1.516   7.597   2.842  0.5251  1.1427 -0.2456
  716MOL0     C96546  -1.643   7.525   2.879  0.2670  1.0122  0.5863
  716MOL0     C96547  -1.776   7.581   2.816 -0.8508 -0.2745 -0.2098
  716MOL0     C96548  -1.893   7.502   2.869  0.4146 -0.4463 -1.1439
  716MOL0     O96549  -2.010   7.557   2.803  0.5414  0.2351 -0.3077
  716MOL0     C96550  -2.140   7.517   2.841  0.0964  0.3573  0.3290
  716MOL0     C96551  -2.239   7.616   2.825  0.6025  0.1009 -0.0753
  716MOL0     C96552  -2.376   7.592   2.851  0.0650  0.3456  0.3036
  716MOL0     C96553  -2.479   7.678   2.787 -0.1543  0.2025  0.1163
  716MOL0     C96554  -2.409   7.477   2.927  0.4960 -0.5005 -0.1437
  716MOL0     C96555  -2.558   7.465   2.970  0.0872  0.0085  0.4819
  716MOL0     O96556  -2.656   7.452   2.875 -0.4709 -0.8486 -0.7257
  716MOL0     C96557  -2.790   7.437   2.913 -0.3672 -1.3898  0.6570
  716MOL0     C96558  -2.845   7.483   3.037  1.1852  0.3330 -0.2267
  716MOL0     C96559  -2.983   7.455   3.062 -0.3048  0.5309  0.1112
  716MOL0     C96560  -3.065   7.393   2.965 -0.6444  0.9550 -0.0374
  716MOL0     O96561  -3.200   7.392   3.007 -0.6747  0.5877 -0.5858
  716MOL0     C96562  -3.285   7.300   2.937 -0.2094 -0.2266 -0.3643
  716MOL0     C96563  -3.428   7.326   2.972 -0.0380 -0.5553 -0.0443
  716MOL0     C96564  -3.451   7.372   3.115  0.6377  0.0003 -0.1642
  716MOL0     C96565  -3.600   7.382   3.145  0.0331 -0.2191 -0.9324
  716MOL0     C96566  -3.629   7.392   3.299  1.0915 -0.1053  1.2243
  716MOL0     C96567  -3.612   7.254   3.362  0.4120  0.2216  0.5522
  716MOL0     C96568  -3.678   7.249   3.504 -0.3959  0.1104 -0.2202
  716MOL0     C96569  -3.672   7.105   3.572 -0.2704 -0.1457  0.5107
  716MOL0    Cl96570  -3.740   6.972   3.465 -0.2553 -0.0369 -0.3341
  716MOL0     C96571  -3.018   7.363   2.838 -0.4766 -0.0963  0.9758
  716MOL0     C96572  -2.877   7.373   2.825  0.0927 -0.0390  0.4701
  716MOL0     O96573  -2.572   7.419   3.087  0.4681  0.5416  0.3862
  716MOL0     C96574  -2.306   7.381   2.967  0.6280 -0.8433  0.0908
  716MOL0     C96575  -2.173   7.400   2.912  0.3067  0.2118 -0.3264
  716MOL0     N96576  -1.296   7.476   2.854 -0.0276 -0.5955  0.3936
  716MOL0     N96577  -1.219   7.423   2.941  0.3236  0.6698  0.5181
  716MOL0     C96578  -0.166   7.252   2.770 -0.2527  0.2532  0.2402
  716MOL0     C96579  -0.047   7.269   2.834 -0.2559 -0.1756 -0.3602
  716MOL0     C96580   0.264   7.275   3.177  0.1136  0.2388  0.4831
  716MOL0     C96581   0.295   7.294   3.314  0.3285 -0.8864 -0.2649
  716MOL0     C96582   0.426   7.313   3.360 -1.1979 -0.3582 -0.3668
  716MOL0     C96583   0.530   7.330   3.270 -0.4717  0.8889  0.5262
  716MOL0     O96584   0.654   7.360   3.333  0.3598  0.4294  0.2378
  716MOL0     C96585   0.767   7.376   3.247 -0.4098 -0.3815 -0.2359
  716MOL0     C96586   0.903   7.372   3.311  0.3534 -0.2324  0.1688
  716MOL0     C96587   0.924   7.231   3.373  0.7952  0.1460  0.3467
  716MOL0     C96588   1.065   7.224   3.422 -0.0451  0.5952  0.4271
  716MOL0     C96589   1.107   7.091   3.454 -0.8551  0.0134  1.0067
  716MOL0     C96590   1.173   6.985   3.462 -0.4902 -0.6784 -0.0822
  716MOL0     C96591   0.498   7.314   3.132  0.4785  0.0660 -0.1552
  716MOL0     C96592   0.365   7.286   3.085  0.4601  0.0016  0.5541
  716MOL0     H96593  -0.140   7.344   3.142  0.4154 -1.8250  0.4085
  716MOL0     H96594  -0.372   7.323   3.041 -0.7304 -3.1905  0.7850
  716MOL0     H96595  -0.562   7.137   2.759  0.6073 -1.3008  0.0110
  716MOL0     H96596  -0.472   7.151   2.904  0.1827  4.8143  3.7758
  716MOL0     H96597  -0.557   7.402   2.931  0.8439  0.7826 -2.4085
  716MOL0     H96598  -0.648   7.358   2.791  2.8543 -1.9657 -2.2544
  716MOL0     H96599  -0.773   7.181   2.939 -0.5065  1.5877 -2.8594
  716MOL0     H96600  -0.660   7.213   3.068  0.4033  0.7646  0.3668
  716MOL0     H96601  -0.721   7.463   3.060 -0.1208  0.3725  0.6642
  716MOL0     H96602  -0.834   7.420   2.935 -0.1146 -0.2335 -0.5384
  716MOL0     H96603  -0.961   7.267   3.081  0.4141 -0.3243 -0.7596
  716MOL0     H96604  -0.859   7.305   3.225  3.1360  2.1737  0.4726
  716MOL0     H96605  -0.886   7.543   3.193 -0.6324  1.2889 -2.5725
  716MOL0     H96606  -0.987   7.527   3.057  1.3055  0.1487 -0.3796
  716MOL0     H96607  -1.063   7.442   3.341  1.4562 -1.9951 -0.5913
  716MOL0     H96608  -1.119   7.584   3.252  1.4341 -0.3559 -0.1154
  716MOL0     H96609  -1.298   7.373   3.259 -1.5657 -1.5446 -1.6004
  716MOL0     H96610  -1.172   7.286   3.178  3.3181  1.6923 -1.2489
  716MOL0     H96611  -1.453   7.554   3.119  0.5146  1.5220 -1.1246
  716MOL0     H96612  -1.523   7.705   2.859 -1.3561  1.1634 -0.8922
  716MOL0     H96613  -1.496   7.591   2.735 -1.5944 -0.8544 -0.6117
  716MOL0     H96614  -1.660   7.518   2.987  2.2661 -0.7615  0.8450
  716MOL0     H96615  -1.629   7.424   2.838  5.3013  1.0490  1.6105
  716MOL0     H96616  -1.762   7.555   2.711  1.2848 -1.5942  0.3383
  716MOL0     H96617  -1.794   7.688   2.829 -3.0740 -0.4845 -1.0624
  716MOL0     H96618  -1.893   7.511   2.978 -0.3409 -0.7732 -1.1093
  716MOL0     H96619  -1.876   7.397   2.845  1.2722 -0.5680 -0.1032
  716MOL0     H96620  -2.229   7.712   2.774  1.0653 -0.7962 -1.7427
  716MOL0     H96621  -2.548   7.617   2.728 -0.3616  2.3217 -1.9855
  716MOL0     H96622  -2.537   7.717   2.872 -0.5960 -3.2601  1.5448
  716MOL0     H96623  -2.443   7.762   2.726  2.0157  0.1367  1.2159
  716MOL0     H96624  -2.785   7.534   3.112 -0.4071  1.5528  0.2705
  716MOL0     H96625  -3.029   7.477   3.158 -1.0945 -1.0812  0.1401
  716MOL0     H96626  -3.281   7.312   2.828  0.4926  3.8261 -0.0404
  716MOL0     H96627  -3.245   7.201   2.961  0.4698  0.1918  0.2770
  716MOL0     H96628  -3.444   7.415   2.910  1.4470 -1.6255 -2.0651
  716MOL0     H96629  -3.503   7.254   2.937 -0.0256 -0.4456 -0.2995
  716MOL0     H96630  -3.410   7.473   3.125 -2.3050  1.3819 -0.9114
  716MOL0     H96631  -3.407   7.306   3.190  0.1236 -0.7974 -0.5437
  716MOL0     H96632  -3.644   7.467   3.094  1.8137  2.7855  2.1112
  716MOL0     H96633  -3.643   7.291   3.103 -2.6736  1.5136 -2.1545
  716MOL0     H96634  -3.726   7.435   3.324 -0.3270 -0.7390 -2.5829
  716MOL0     H96635  -3.553   7.456   3.345  0.8151  1.4411 -0.3479
  716MOL0     H96636  -3.661   7.179   3.299 -3.3743  3.2097 -0.3655
  716MOL0     H96637  -3.504   7.237   3.367  0.3036 -0.1680  2.3332
  716MOL0     H96638  -3.781   7.269   3.477 -0.6400  0.1340  0.6772
  716MOL0     H96639  -3.633   7.325   3.568  2.5463  0.3716 -2.3556
  716MOL0     H96640  -3.738   7.107   3.659 -0.6800 -2.8001  0.3539
  716MOL0     H96641  -3.570   7.089   3.611 -0.9072 -1.3962  1.7675
  716MOL0     H96642  -3.066   7.310   2.757  1.4597 -2.3501  1.1922
  716MOL0     H96643  -2.831   7.331   2.736 -0.3388  1.3261 -0.4521
  716MOL0     H96644  -2.337   7.298   3.030  0.0128  0.9770  2.3296
  716MOL0     H96645  -2.089   7.331   2.914  0.3858  0.1077 -3.1134
  716MOL0     H96646  -0.168   7.221   2.666  0.5067 -0.6751  0.4957
  716MOL0     H96647   0.043   7.226   2.790 -0.7566 -0.7994 -0.7953
  716MOL0     H96648   0.213   7.275   3.384  1.3941 -2.5896  0.5766
  716MOL0     H96649   0.447   7.329   3.465 -1.2946 -0.3307 -0.3514
  716MOL0     H96650   0.771   7.309   3.161  1.5932  1.1211 -1.3936
  716MOL0     H96651   0.752   7.476   3.206  3.3003  1.3549  2.1140
  716MOL0     H96652   0.902   7.442   3.395  0.0745  0.4726 -0.4109
  716MOL0     H96653   0.986   7.393   3.244 -1.1448 -1.3068 -2.1289
  716MOL0     H96654   0.907   7.155   3.296  0.4442  1.4006 -0.8408
  716MOL0     H96655   0.855   7.225   3.458 -0.5796 -0.0607 -0.7414
  716MOL0     H96656   1.070   7.296   3.504  1.5834  1.3506 -0.2849
  716MOL0     H96657   1.146   7.263   3.360 -0.5171  0.7813 -0.0839
  716MOL0     H96658   1.210   6.885   3.471  1.7048  0.1831  1.2248
  716MOL0     H96659   0.578   7.309   3.058 -0.4955  1.5482 -1.3604
  716MOL0     H96660   0.358   7.272   2.978 -1.9496 -1.0105  0.7785
  717MOL0     O96661   8.886   1.024   6.722 -0.0330  0.3084 -0.2924
  717MOL0     C96662   8.935   1.088   6.634 -0.8942  0.0707  0.0946
  717MOL0     O96663   8.884   1.202   6.581  0.6315  0.7849 -0.4632
  717MOL0     C96664   8.761   1.244   6.628 -0.4284  0.4385  0.0977
  717MOL0     C96665   8.648   1.171   6.590  0.1511 -0.3297 -0.1615
  717MOL0     C96666   8.518   1.223   6.627 -0.7071 -0.0187 -0.5668
  717MOL0     C96667   8.510   1.320   6.726 -0.4107 -1.1188 -0.5212
  717MOL0     O96668   8.388   1.352   6.787 -0.6641 -0.2893  0.6916
  717MOL0     C96669   8.358   1.252   6.877 -0.0939 -0.8467  0.3573
  717MOL0     C96670   8.201   1.243   6.894 -1.0623  0.2779  0.1627
  717MOL0     C96671   8.129   1.219   6.756 -0.0300 -0.5372 -0.3379
  717MOL0     C96672   8.083   1.074   6.744  0.4277  1.4822  0.4661
  717MOL0     C96673   8.034   1.041   6.609 -0.8688  0.6291 -0.2986
  717MOL0     C96674   8.009   0.891   6.586  0.3898 -0.3499 -0.6025
  717MOL0     C96675   7.906   0.876   6.477  0.1443 -0.8452 -0.3200
  717MOL0     C96676   7.957   0.904   6.336  0.2592 -0.4816 -0.0257
  717MOL0     N96677   8.041   0.792   6.286 -0.3267 -0.2064 -0.9625
  717MOL0     C96678   8.024   0.748   6.158  0.5843 -0.5030  0.1315
  717MOL0     C96679   8.138   0.669   6.139  0.2391  0.9188 -0.2464
  717MOL0     C96680   8.176   0.597   6.005  0.6980  0.0898 -0.1949
  717MOL0     C96681   8.299   0.676   5.950  0.2676  0.5032  0.1414
  717MOL0     C96682   8.270   0.822   5.921 -0.4031  0.1456  0.2484
  717MOL0     C96683   8.182   0.844   5.793 -0.5961 -0.3717 -0.0216
  717MOL0     O96684   8.052   0.792   5.820  0.2292  0.2257  0.0378
  717MOL0     C96685   7.960   0.799   5.720 -0.8329 -0.9099 -1.3405
  717MOL0     C96686   7.984   0.859   5.590  0.0555  0.6809  0.2628
  717MOL0     C96687   7.881   0.861   5.488 -0.8654  0.2615 -0.3667
  717MOL0     C96688   7.906   0.917   5.357 -1.1572  0.2560 -0.7594
  717MOL0     C96689   7.753   0.811   5.525 -0.3671  0.2598 -0.9487
  717MOL0     C96690   7.636   0.791   5.437 -0.0042 -0.1393  0.2932
  717MOL0     O96691   7.667   0.760   5.305  0.1795 -0.0983 -0.1041
  717MOL0     C96692   7.557   0.768   5.220 -0.1935  0.1191 -1.0214
  717MOL0     C96693   7.476   0.655   5.189  0.4364  0.2217 -0.0059
  717MOL0     C96694   7.375   0.667   5.098  0.3978  0.5089 -0.3492
  717MOL0     C96695   7.342   0.797   5.043 -0.0826  1.4069  0.4167
  717MOL0     O96696   7.242   0.821   4.955 -0.4107  0.0678 -0.9534
  717MOL0     C96697   7.153   0.713   4.911  0.4433  0.2328 -0.3850
  717MOL0     C96698   7.047   0.785   4.816  0.4581 -0.2017 -0.5917
  717MOL0     C96699   6.970   0.889   4.895  0.0004 -0.9845 -0.4255
  717MOL0     C96700   6.877   0.956   4.804  0.1678 -0.6047 -0.4517
  717MOL0     C96701   6.798   1.054   4.878 -0.5926 -1.5977 -0.0366
  717MOL0     C96702   6.703   1.142   4.798 -0.2006  0.3833 -0.1172
  717MOL0     C96703   6.761   1.218   4.678  0.0470 -0.2819  0.7896
  717MOL0     C96704   6.658   1.304   4.622 -0.8557 -0.6722  0.6967
  717MOL0    Cl96705   6.714   1.354   4.468  0.0788  0.4609  0.0526
  717MOL0     C96706   7.429   0.901   5.070 -0.3678  0.2741  0.1307
  717MOL0     C96707   7.529   0.890   5.164  0.2372  0.0697 -0.2721
  717MOL0     O96708   7.521   0.818   5.481 -0.1212 -0.0962 -0.3439
  717MOL0     C96709   7.729   0.761   5.664 -0.3889  0.7315 -0.2936
  717MOL0     C96710   7.837   0.746   5.749 -0.5731  0.0343  0.0873
  717MOL0     N96711   8.225   0.677   6.239  0.4011 -0.2049  0.7975
  717MOL0     N96712   8.170   0.759   6.329  0.6089 -0.6058 -0.4313
  717MOL0     C96713   8.631   1.382   6.765 -0.2784 -0.0230 -0.2350
  717MOL0     C96714   8.756   1.344   6.720  0.3862 -0.6211  0.2848
  717MOL0     C96715   9.061   1.042   6.575 -0.8854 -0.0703 -0.0034
  717MOL0     C96716   9.125   0.922   6.603  0.7647 -0.7588 -0.2405
  717MOL0     C96717   9.252   0.891   6.553 -0.3830  0.0297  0.2304
  717MOL0     C96718   9.325   0.980   6.470  0.4405  0.3843  0.3214
  717MOL0     O96719   9.453   0.971   6.429 -0.1747  0.4297  0.4945
  717MOL0     C96720   9.483   0.918   6.300 -0.0773  0.1921 -0.4394
  717MOL0     C96721   9.483   0.771   6.300  0.6777  0.1690 -0.1235
  717MOL0     C96722   9.588   0.714   6.390 -0.3223 -0.1588 -0.1578
  717MOL0     C96723   9.725   0.712   6.315  0.3502 -0.4086  0.7658
  717MOL0     C96724   9.821   0.677   6.412 -0.0935 -0.0128  0.5922
  717MOL0     C96725   9.909   0.670   6.496 -0.4725  0.0737  0.0391
  717MOL0     C96726   9.262   1.099   6.442 -0.4029 -0.8439  0.5622
  717MOL0     C96727   9.136   1.134   6.491 -0.7598 -0.3975 -1.2183
  717MOL0     H96728   8.648   1.091   6.518 -1.5694 -0.9549  0.4952
  717MOL0     H96729   8.433   1.168   6.587  0.3888 -1.6402 -0.7906
  717MOL0     H96730   8.386   1.153   6.840  1.1203 -0.9772  1.5423
  717MOL0     H96731   8.408   1.292   6.966  2.0402  1.0350 -1.5373
  717MOL0     H96732   8.174   1.161   6.961 -1.2939 -2.5617 -3.1386
  717MOL0     H96733   8.161   1.335   6.938 -0.5482 -0.9246  3.3700
  717MOL0     H96734   8.042   1.285   6.751  0.9234  0.7460 -0.5912
  717MOL0     H96735   8.181   1.257   6.667 -2.3625 -0.7128 -1.8678
  717MOL0     H96736   8.167   1.005   6.761  0.5396  1.6089  0.4245
  717MOL0     H96737   8.007   1.051   6.819  0.9770  0.0672  0.6242
  717MOL0     H96738   7.940   1.094   6.589 -2.3365 -1.3485  1.0453
  717MOL0     H96739   8.118   1.069   6.544  0.3277 -0.6851  0.6255
  717MOL0     H96740   8.104   0.843   6.564 -0.3200 -1.0376 -2.2956
  717MOL0     H96741   7.972   0.846   6.679  0.5595 -0.3330 -0.5264
  717MOL0     H96742   7.876   0.771   6.482 -0.6789 -0.6349 -0.6136
  717MOL0     H96743   7.819   0.936   6.505  1.3630 -0.7821  3.9958
  717MOL0     H96744   8.005   1.003   6.336 -1.8098  0.6439  2.8057
  717MOL0     H96745   7.871   0.925   6.273  0.4103  0.9091  0.1964
  717MOL0     H96746   7.939   0.747   6.091  0.6239 -2.0611  0.0539
  717MOL0     H96747   8.197   0.491   6.018  1.8288  0.2948 -0.2420
  717MOL0     H96748   8.082   0.599   5.948 -1.3263  1.1267  2.8767
  717MOL0     H96749   8.331   0.620   5.862 -0.6844 -2.3180  1.4355
  717MOL0     H96750   8.380   0.670   6.023 -1.6470  0.7552  2.4071
  717MOL0     H96751   8.367   0.872   5.913  0.4546 -1.7694 -3.0080
  717MOL0     H96752   8.234   0.869   6.013 -0.0152  0.2212  0.3650
  717MOL0     H96753   8.223   0.780   5.715 -2.3105 -0.5870 -0.7877
  717MOL0     H96754   8.184   0.951   5.769  0.5484  0.3357  2.7970
  717MOL0     H96755   8.077   0.903   5.557 -1.1325  2.2506 -1.1340
  717MOL0     H96756   7.935   0.844   5.281 -0.7347  1.0414 -1.3710
  717MOL0     H96757   7.826   0.984   5.324  1.2300  3.0021 -1.4071
  717MOL0     H96758   7.992   0.985   5.361 -0.8325 -0.1965  0.4836
  717MOL0     H96759   7.492   0.560   5.240 -1.5088  0.8266  1.9008
  717MOL0     H96760   7.309   0.581   5.095  0.8234  0.1213  0.7529
  717MOL0     H96761   7.205   0.641   4.847 -1.4903 -0.6999 -0.9884
  717MOL0     H96762   7.110   0.660   4.996 -2.3010  1.2886 -1.0136
  717MOL0     H96763   7.097   0.837   4.734 -1.0934 -1.2757 -2.2963
  717MOL0     H96764   6.969   0.724   4.770 -0.7272  1.3713 -0.7608
  717MOL0     H96765   7.027   0.965   4.949 -5.2844  0.5382  3.8763
  717MOL0     H96766   6.912   0.850   4.979  0.0088  0.0173  0.0685
  717MOL0     H96767   6.930   1.011   4.726 -0.2760 -0.6981 -0.8321
  717MOL0     H96768   6.810   0.886   4.752 -1.1491  1.1388 -1.2019
  717MOL0     H96769   6.859   1.122   4.938 -3.5238  0.1771  1.1897
  717MOL0     H96770   6.742   1.009   4.961  0.3755  2.5384  3.2322
  717MOL0     H96771   6.617   1.088   4.758  2.0064 -1.8609 -2.2397
  717MOL0     H96772   6.668   1.214   4.873 -1.2096 -0.9925  0.7839
  717MOL0     H96773   6.802   1.160   4.594  1.4853  0.3644  1.0121
  717MOL0     H96774   6.838   1.287   4.714 -1.4276  0.7823  2.0410
  717MOL0     H96775   6.655   1.387   4.693  1.5917  1.6649 -1.6851
  717MOL0     H96776   6.557   1.262   4.620 -1.3978  0.5676 -1.3651
  717MOL0     H96777   7.410   0.990   5.010 -0.2241  0.2209  0.0055
  717MOL0     H96778   7.577   0.985   5.182  3.1773 -1.4165  0.3389
  717MOL0     H96779   7.637   0.714   5.696 -1.0750  1.3166 -1.3529
  717MOL0     H96780   7.819   0.693   5.842 -1.2886  0.4315  0.1796
  717MOL0     H96781   8.628   1.464   6.837 -1.5987  0.8585 -1.2437
  717MOL0     H96782   8.845   1.390   6.760  1.2861 -1.8393 -0.2485
  717MOL0     H96783   9.081   0.847   6.668 -3.8088 -1.2593 -3.4595
  717MOL0     H96784   9.296   0.795   6.579 -4.9571 -2.2421  0.6593
  717MOL0     H96785   9.420   0.947   6.215  0.3053 -1.7844 -1.4758
  717MOL0     H96786   9.580   0.962   6.275 -0.5219  3.2328  2.5283
  717MOL0     H96787   9.494   0.740   6.196  2.0326  1.1778 -0.3127
  717MOL0     H96788   9.383   0.745   6.335  0.7535  0.9032  0.6687
  717MOL0     H96789   9.563   0.610   6.415 -2.1568  0.9597  3.1395
  717MOL0     H96790   9.593   0.767   6.485  0.5091 -0.9271  0.2447
  717MOL0     H96791   9.746   0.810   6.271 -1.2762 -0.3560  0.0206
  717MOL0     H96792   9.719   0.637   6.235  1.8831  0.1314  0.1187
  717MOL0     H96793   9.979   0.670   6.577  2.3249 -2.1567 -2.1621
  717MOL0     H96794   9.307   1.180   6.386 -2.5807  0.3138  0.3846
  717MOL0     H96795   9.090   1.228   6.464 -1.0080  1.3114  4.1073
  718MOL0     O96796   1.879   2.606   1.349 -0.5657 -0.2396 -0.5426
  718MOL0     C96797   1.907   2.588   1.231  0.5023  0.3629 -0.3373
  718MOL0     O96798   1.833   2.533   1.140  0.8199 -0.1297 -0.2439
  718MOL0     C96799   1.693   2.517   1.164 -0.5482  0.2988 -0.6999
  718MOL0     C96800   1.637   2.391   1.197  0.1125 -0.2581  0.2902
  718MOL0     C96801   1.507   2.378   1.229  0.6666  0.1952  0.4037
  718MOL0     C96802   1.415   2.486   1.214  0.0684 -0.8173  0.8960
  718MOL0     O96803   1.279   2.476   1.230 -0.0150  0.4573  0.0559
  718MOL0     C96804   1.227   2.350   1.195  0.5696 -0.4053 -0.2024
  718MOL0     C96805   1.073   2.354   1.174 -0.2960 -0.3409 -0.4200
  718MOL0     C96806   1.016   2.221   1.130  0.8402 -0.8519  0.1782
  718MOL0     C96807   0.873   2.233   1.069  0.3028  0.2117  0.0028
  718MOL0     C96808   0.810   2.095   1.052  0.0414 -0.2507 -0.2030
  718MOL0     C96809   0.680   2.121   0.972  0.1329  0.1689 -0.5335
  718MOL0     C96810   0.595   1.995   0.936  0.2959 -0.3796  0.3732
  718MOL0     C96811   0.497   1.967   1.048 -0.1025  0.4936  0.3956
  718MOL0     N96812   0.374   2.045   1.042 -0.1863  0.2885 -0.5691
  718MOL0     C96813   0.270   2.044   0.956 -1.8450 -0.2206  0.4330
  718MOL0     C96814   0.184   2.125   1.009 -0.1977  0.3064  0.4385
  718MOL0     C96815   0.049   2.154   0.950 -0.1822 -0.0136 -0.8060
  718MOL0     C96816  -0.056   2.080   1.036  0.1314 -0.2318 -0.5100
  718MOL0     C96817  -0.163   2.002   0.954  0.8532  0.6510 -0.9592
  718MOL0     C96818  -0.254   2.093   0.885  0.1049 -0.0341  0.6387
  718MOL0     O96819  -0.346   2.000   0.817 -1.0489 -0.1286 -0.2497
  718MOL0     C96820  -0.468   2.047   0.783  0.1891 -0.0204 -0.5387
  718MOL0     C96821  -0.570   1.962   0.759  0.5398  0.1750 -0.0170
  718MOL0     C96822  -0.703   2.007   0.718 -0.5955 -0.0222  0.1355
  718MOL0     C96823  -0.807   1.901   0.701 -0.0722 -0.2603  0.1903
  718MOL0     C96824  -0.721   2.146   0.689 -0.7632  0.0107 -0.5499
  718MOL0     C96825  -0.851   2.196   0.642 -0.0232 -0.5205  0.5607
  718MOL0     O96826  -0.969   2.130   0.667  0.5376 -0.0779  0.3182
  718MOL0     C96827  -1.088   2.149   0.608 -0.4105 -0.2278 -0.9310
  718MOL0     C96828  -1.102   2.208   0.475  0.1409  0.6273  0.7614
  718MOL0     C96829  -1.228   2.226   0.423 -0.3485  0.0817 -0.2569
  718MOL0     C96830  -1.333   2.160   0.482 -0.0067  0.2350  1.3006
  718MOL0     O96831  -1.454   2.143   0.415  0.1261 -0.3825 -0.8193
  718MOL0     C96832  -1.491   2.250   0.337  0.8993  0.0597  0.0645
  718MOL0     C96833  -1.637   2.234   0.291 -1.0835 -0.7500  0.5843
  718MOL0     C96834  -1.735   2.292   0.394 -0.7434  0.0488 -0.5830
  718MOL0     C96835  -1.868   2.297   0.320  0.0506  0.1577 -0.2187
  718MOL0     C96836  -1.994   2.329   0.395 -0.5514 -0.8430  0.7161
  718MOL0     C96837  -2.126   2.290   0.312 -0.2715  0.5931  0.2688
  718MOL0     C96838  -2.249   2.317   0.400 -0.5520  0.4187 -0.0842
  718MOL0     C96839  -2.381   2.246   0.358 -0.7087  0.8795 -0.1379
  718MOL0    Cl96840  -2.513   2.324   0.445 -0.3122  0.1134 -0.1728
  718MOL0     C96841  -1.319   2.105   0.607 -0.0543 -0.5933 -0.0734
  718MOL0     C96842  -1.199   2.100   0.673 -0.0728  0.0628  0.3033
  718MOL0     O96843  -0.846   2.309   0.591 -0.1256 -0.2785 -0.1801
  718MOL0     C96844  -0.611   2.225   0.710  0.5352  0.1013  0.5499
  718MOL0     C96845  -0.490   2.181   0.752  0.0337  0.9560  0.3516
  718MOL0     N96846   0.235   2.168   1.145  0.1950 -0.0711 -0.0534
  718MOL0     N96847   0.350   2.122   1.144 -0.4385  0.7803 -0.7381
  718MOL0     C96848   1.469   2.612   1.177 -1.4945  0.5519 -0.5217
  718MOL0     C96849   1.609   2.625   1.158  0.1580  0.2671 -0.2860
  718MOL0     C96850   2.032   2.657   1.179  0.0041  0.1991 -0.4718
  718MOL0     C96851   2.092   2.761   1.255 -0.0896 -0.2875 -0.5790
  718MOL0     C96852   2.210   2.823   1.214  0.0201  0.2319 -0.9085
  718MOL0     C96853   2.259   2.784   1.086 -0.9262 -0.4108 -0.8582
  718MOL0     O96854   2.379   2.836   1.045 -0.0921 -0.5113 -0.3456
  718MOL0     C96855   2.362   2.972   0.993 -0.4726  0.1405 -1.0281
  718MOL0     C96856   2.488   3.002   0.911 -0.3818  1.0306  0.6826
  718MOL0     C96857   2.511   2.903   0.798  0.2309  0.1910  0.3368
  718MOL0     C96858   2.642   2.942   0.729  0.7881 -0.2831 -0.5219
  718MOL0     C96859   2.631   3.068   0.655  0.5360 -0.7832  0.1074
  718MOL0     C96860   2.619   3.178   0.603  0.5141  0.6617 -0.6098
  718MOL0     C96861   2.206   2.686   1.008 -0.1143  0.0660 -0.5319
  718MOL0     C96862   2.085   2.624   1.054 -0.4843 -0.2158  0.1900
  718MOL0     H96863   1.695   2.300   1.206  2.6442  1.4437  2.7060
  718MOL0     H96864   1.459   2.281   1.239  1.3042 -0.9103 -4.5417
  718MOL0     H96865   1.261   2.326   1.094  1.6584  0.4124 -0.0488
  718MOL0     H96866   1.245   2.269   1.266  1.5172  1.2563  1.5350
  718MOL0     H96867   1.020   2.376   1.267 -1.6074  3.5587 -1.8618
  718MOL0     H96868   1.048   2.434   1.104 -1.5672 -1.5057 -1.3490
  718MOL0     H96869   1.076   2.176   1.051 -3.0690 -1.5929 -2.7047
  718MOL0     H96870   1.013   2.163   1.223 -1.0739 -1.0854  0.0187
  718MOL0     H96871   0.817   2.299   1.136  1.9138  3.2604 -1.4769
  718MOL0     H96872   0.884   2.290   0.976  1.1510 -2.5652 -1.7189
  718MOL0     H96873   0.882   2.032   0.999 -2.0519 -0.4754 -3.0197
  718MOL0     H96874   0.793   2.061   1.154  0.4592  2.1461  0.7203
  718MOL0     H96875   0.619   2.191   1.029  0.3130 -1.9838  2.5332
  718MOL0     H96876   0.717   2.159   0.876  3.4253 -2.3362 -0.4171
  718MOL0     H96877   0.545   2.020   0.843  1.0634 -2.0684 -0.5325
  718MOL0     H96878   0.674   1.920   0.925  0.4748 -0.4571  1.9281
  718MOL0     H96879   0.546   1.973   1.146  1.0681 -0.4060 -0.0983
  718MOL0     H96880   0.473   1.861   1.031 -2.9961  1.4715 -2.5641
  718MOL0     H96881   0.253   1.986   0.865 -3.0379  0.6105  0.0965
  718MOL0     H96882   0.039   2.262   0.953 -0.4457  0.1303  5.3557
  718MOL0     H96883   0.037   2.112   0.850 -0.3296 -1.5383 -0.1802
  718MOL0     H96884  -0.101   2.166   1.086  1.1978  0.5614 -0.8602
  718MOL0     H96885  -0.011   2.021   1.116  0.4224 -0.9002 -1.1561
  718MOL0     H96886  -0.228   1.947   1.023  1.1867 -0.5956 -1.6113
  718MOL0     H96887  -0.109   1.925   0.899  1.0721 -0.5068  0.7692
  718MOL0     H96888  -0.197   2.156   0.816 -2.4855 -0.6455 -2.3014
  718MOL0     H96889  -0.299   2.157   0.962  1.2172  3.6634 -1.5315
  718MOL0     H96890  -0.548   1.857   0.775  2.0026  0.5926  0.9244
  718MOL0     H96891  -0.760   1.803   0.709 -0.4641 -0.6079 -1.4759
  718MOL0     H96892  -0.878   1.904   0.784  3.0393 -1.3294  3.1226
  718MOL0     H96893  -0.858   1.915   0.606  2.0941  0.8032 -0.8862
  718MOL0     H96894  -1.017   2.240   0.416 -1.0228 -0.4385 -1.6152
  718MOL0     H96895  -1.232   2.285   0.332 -0.2786  1.2650  0.4865
  718MOL0     H96896  -1.487   2.343   0.396 -1.1428 -0.3775  1.0125
  718MOL0     H96897  -1.430   2.258   0.247  2.3784  1.8129  1.1378
  718MOL0     H96898  -1.642   2.275   0.190  0.6765 -0.2555  0.6632
  718MOL0     H96899  -1.663   2.128   0.279 -1.0743 -0.8505  1.4262
  718MOL0     H96900  -1.698   2.392   0.419 -0.0319  0.0565 -1.5948
  718MOL0     H96901  -1.731   2.233   0.486  0.0204  1.1748  0.1405
  718MOL0     H96902  -1.869   2.365   0.234 -2.8215 -0.0522 -0.4431
  718MOL0     H96903  -1.878   2.200   0.269  1.4476 -0.7350  1.0841
  718MOL0     H96904  -1.991   2.425   0.447  3.0706 -0.8015  0.6734
  718MOL0     H96905  -1.996   2.253   0.474 -1.5094 -1.4636  0.1206
  718MOL0     H96906  -2.129   2.343   0.216 -0.7499 -2.0823 -1.2937
  718MOL0     H96907  -2.129   2.182   0.293  3.0318  0.5781 -0.7247
  718MOL0     H96908  -2.267   2.425   0.399 -1.6237  0.2646 -1.9656
  718MOL0     H96909  -2.225   2.292   0.504  0.9297 -2.2458 -0.9765
  718MOL0     H96910  -2.383   2.139   0.383 -3.1745  0.8038 -0.3352
  718MOL0     H96911  -2.398   2.240   0.250  0.7971  1.3275 -0.4182
  718MOL0     H96912  -1.400   2.062   0.666  0.1921  1.6428  2.0517
  718MOL0     H96913  -1.190   2.060   0.773  1.8249  2.1037  1.0266
  718MOL0     H96914  -0.623   2.333   0.708  0.0232  0.0410 -0.1189
  718MOL0     H96915  -0.417   2.258   0.773  1.6829  0.3748 -2.6639
  718MOL0     H96916   1.401   2.697   1.179  0.2555  2.0278 -1.3770
  718MOL0     H96917   1.658   2.720   1.143 -0.9579  1.7458  4.0001
  718MOL0     H96918   2.047   2.798   1.347  2.2737  2.1023 -0.2575
  718MOL0     H96919   2.262   2.896   1.275 -1.8653  0.8245  0.0440
  718MOL0     H96920   2.272   2.983   0.931 -0.9392  4.1558  0.0747
  718MOL0     H96921   2.346   3.049   1.069  0.6648  1.8489 -2.4211
  718MOL0     H96922   2.573   2.997   0.979 -0.8672  0.5883  1.2636
  718MOL0     H96923   2.470   3.101   0.868 -0.0305  0.6213 -0.4393
  718MOL0     H96924   2.435   2.887   0.720  0.3949 -0.2254  0.2604
  718MOL0     H96925   2.522   2.804   0.841  0.3006 -1.2626 -2.7887
  718MOL0     H96926   2.647   2.868   0.649  2.7371  0.3282 -1.0259
  718MOL0     H96927   2.729   2.932   0.794  0.2709  1.9439  0.6164
  718MOL0     H96928   2.621   3.280   0.571  2.3797 -0.2882 -3.9561
  718MOL0     H96929   2.245   2.655   0.911  0.5120 -2.1389  0.3647
  718MOL0     H96930   2.036   2.545   0.999  0.0016 -1.6234  1.7185
  719MOL0     O96931   1.956   4.198   1.860 -0.5432 -0.0215  0.2335
  719MOL0     C96932   1.964   4.091   1.800  0.4464  0.3392 -0.6057
  719MOL0     O96933   1.868   4.001   1.795  0.0125  0.0828  0.4457
  719MOL0     C96934   1.754   4.029   1.856  0.2628 -0.0673  0.9115
  719MOL0     C96935   1.726   3.989   1.983 -0.0559  0.3733 -0.1447
  719MOL0     C96936   1.603   4.018   2.035 -0.8187  0.3899  0.3780
  719MOL0     C96937   1.507   4.098   1.971  0.6006  0.4499  0.3257
  719MOL0     O96938   1.386   4.149   2.026 -0.3263  0.1525  0.0089
  719MOL0     C96939   1.370   4.118   2.164 -0.2863  0.1780 -0.4176
  719MOL0     C96940   1.227   4.168   2.202  0.4261 -0.4140 -0.3543
  719MOL0     C96941   1.106   4.090   2.152 -0.0711  1.1469 -0.4465
  719MOL0     C96942   0.982   4.135   2.229  0.2211  0.3850 -0.2763
  719MOL0     C96943   0.870   4.069   2.153  0.9376  0.7817 -0.2242
  719MOL0     C96944   0.738   4.126   2.200  0.3356 -0.8372 -0.3741
  719MOL0     C96945   0.672   4.064   2.327 -1.2720  0.2086  0.4159
  719MOL0     C96946   0.552   4.137   2.375 -0.1269  0.0748  0.1013
  719MOL0     N96947   0.491   4.093   2.502 -0.8336  0.4805 -0.2591
  719MOL0     C96948   0.411   3.981   2.498 -0.1149 -0.1144  0.0732
  719MOL0     C96949   0.393   3.957   2.625  0.1683  0.2719  0.0727
  719MOL0     C96950   0.329   3.822   2.663 -0.4210  0.5455  0.2840
  719MOL0     C96951   0.235   3.840   2.782 -0.3322  0.2573 -0.3636
  719MOL0     C96952   0.132   3.950   2.750 -0.1334  0.4155 -0.3606
  719MOL0     C96953   0.025   3.931   2.849 -0.6231  0.4404  0.0722
  719MOL0     O96954  -0.064   4.043   2.855 -0.6886 -0.1148  0.0743
  719MOL0     C96955  -0.022   4.165   2.903  1.1614  0.0550  0.1032
  719MOL0     C96956  -0.093   4.278   2.873 -0.2361 -0.3495  0.0696
  719MOL0     C96957  -0.057   4.400   2.925 -1.0239  0.1587  0.2738
  719MOL0     C96958  -0.136   4.522   2.880  0.2762 -0.6645  0.3391
  719MOL0     C96959   0.053   4.399   3.017  0.1800  0.7014  0.2490
  719MOL0     C96960   0.115   4.527   3.070  0.5724 -0.2691 -0.0951
  719MOL0     O96961   0.238   4.519   3.111  0.1560 -0.0797 -0.3308
  719MOL0     C96962   0.329   4.620   3.130 -0.1829  0.0449  0.4501
  719MOL0     C96963   0.432   4.617   3.221 -0.9562  0.0676 -0.1183
  719MOL0     C96964   0.537   4.703   3.207 -0.7208  0.1610  0.6560
  719MOL0     C96965   0.548   4.801   3.114  0.0304 -0.2679 -0.6362
  719MOL0     O96966   0.657   4.880   3.095 -0.0396 -0.3002 -0.5920
  719MOL0     C96967   0.648   4.996   3.015  0.7370  0.3716 -0.2059
  719MOL0     C96968   0.748   5.110   3.057 -0.1655 -0.2359 -0.2656
  719MOL0     C96969   0.900   5.067   3.058  0.2928  0.6157  0.4854
  719MOL0     C96970   0.987   5.189   3.068 -0.3536  0.6057  0.7184
  719MOL0     C96971   1.136   5.159   3.025  0.7225  0.6940 -0.3668
  719MOL0     C96972   1.172   5.219   2.890 -0.1142  0.8605 -0.8088
  719MOL0     C96973   1.088   5.174   2.779 -0.3001 -0.0216  0.6694
  719MOL0     C96974   1.130   5.256   2.660  0.2071  0.2546  0.3211
  719MOL0    Cl96975   1.023   5.188   2.529 -0.2653 -0.1204  0.3984
  719MOL0     C96976   0.441   4.804   3.020 -1.1020  0.5133  0.0905
  719MOL0     C96977   0.335   4.715   3.028  0.5285  0.4324  0.3261
  719MOL0     O96978   0.041   4.620   3.083 -0.1910 -0.3314  0.6433
  719MOL0     C96979   0.114   4.279   3.050  0.1078 -0.1358 -1.0515
  719MOL0     C96980   0.068   4.166   3.001  0.2003 -0.4949  0.8707
  719MOL0     N96981   0.442   4.052   2.712 -0.1735  0.3627  0.4207
  719MOL0     N96982   0.512   4.129   2.637 -0.0100 -0.5800 -0.4281
  719MOL0     C96983   1.534   4.147   1.839 -0.1831  1.0880  0.0268
  719MOL0     C96984   1.655   4.104   1.777 -0.6393 -0.2583 -0.2061
  719MOL0     C96985   2.075   4.088   1.708  0.4769  0.1097 -0.3157
  719MOL0     C96986   2.060   3.997   1.601  0.8999  0.2437 -0.0040
  719MOL0     C96987   2.174   3.959   1.527 -0.1704  0.1886  0.3971
  719MOL0     C96988   2.302   4.009   1.558  0.2202 -0.6696  0.3080
  719MOL0     O96989   2.415   3.954   1.510 -0.9396 -0.1035  0.2046
  719MOL0     C96990   2.399   3.828   1.436 -0.0599 -0.1996  0.6712
  719MOL0     C96991   2.530   3.744   1.421  0.0202 -0.4450  0.5249
  719MOL0     C96992   2.578   3.664   1.544 -0.7741 -0.5736  0.2494
  719MOL0     C96993   2.465   3.555   1.582 -0.0504 -0.8943 -0.3603
  719MOL0     C96994   2.514   3.463   1.680  0.4390  0.4684 -1.0706
  719MOL0     C96995   2.556   3.391   1.768 -0.0949 -0.6005 -0.3980
  719MOL0     C96996   2.316   4.115   1.655  0.3956  0.4153  0.2909
  719MOL0     C96997   2.203   4.154   1.733 -0.1752  0.8164  0.0405
  719MOL0     H96998   1.796   3.933   2.044  1.7045  1.4429 -1.0856
  719MOL0     H96999   1.593   3.981   2.137  0.1291  1.2082  0.7860
  719MOL0     H97000   1.374   4.011   2.186  0.6397  0.6350  1.8872
  719MOL0     H97001   1.451   4.170   2.215 -1.4961 -0.4926  2.3497
  719MOL0     H97002   1.222   4.182   2.311 -1.2249  1.8302 -0.6434
  719MOL0     H97003   1.215   4.268   2.159 -0.7449  1.1359  3.1830
  719MOL0     H97004   1.088   4.102   2.045  1.2492 -2.0269 -1.1661
  719MOL0     H97005   1.142   3.989   2.177 -0.0655  1.1490 -0.4473
  719MOL0     H97006   0.976   4.086   2.327 -0.2721 -0.0465 -0.5171
  719MOL0     H97007   0.967   4.242   2.239  0.4955  0.2318  2.8599
  719MOL0     H97008   0.883   4.098   2.048 -0.7369 -0.4292 -0.8131
  719MOL0     H97009   0.864   3.960   2.160 -1.5185  0.9592  1.5960
  719MOL0     H97010   0.737   4.234   2.213 -0.0106 -0.9611  0.7696
  719MOL0     H97011   0.668   4.104   2.119  0.2448 -2.7728  0.1772
  719MOL0     H97012   0.654   3.957   2.312  0.5668 -0.1677  0.5657
  719MOL0     H97013   0.762   4.061   2.389 -0.3001 -2.1472 -0.9488
  719MOL0     H97014   0.466   4.141   2.308  0.7662 -1.7775 -1.2611
  719MOL0     H97015   0.599   4.235   2.385  2.5454 -1.2417  1.5986
  719MOL0     H97016   0.397   3.908   2.418  3.3352 -1.3057  0.3863
  719MOL0     H97017   0.262   3.812   2.577  2.1621 -0.2105 -1.7445
  719MOL0     H97018   0.402   3.742   2.677  1.3202  2.2893  1.8973
  719MOL0     H97019   0.298   3.866   2.868 -4.7797  0.8123  3.0853
  719MOL0     H97020   0.184   3.747   2.810 -2.7675  1.8100  0.6747
  719MOL0     H97021   0.087   3.927   2.652  1.3108 -3.3747 -0.3260
  719MOL0     H97022   0.182   4.047   2.756  0.5772  0.1287 -1.3198
  719MOL0     H97023   0.062   3.904   2.949 -1.0404  0.1882  0.1603
  719MOL0     H97024  -0.027   3.841   2.815 -0.8258  0.8771 -0.7971
  719MOL0     H97025  -0.171   4.271   2.798 -1.9191 -0.6700  1.7762
  719MOL0     H97026  -0.067   4.597   2.839  0.8943 -3.1635 -3.6574
  719MOL0     H97027  -0.202   4.510   2.794  3.3848 -0.4666 -2.2395
  719MOL0     H97028  -0.190   4.563   2.966 -2.6794 -1.5995 -0.9432
  719MOL0     H97029   0.450   4.525   3.275  0.3002  0.1001 -0.4498
  719MOL0     H97030   0.630   4.681   3.258  0.6670 -0.0741 -1.7955
  719MOL0     H97031   0.656   4.959   2.913 -1.4750  1.2154 -0.7357
  719MOL0     H97032   0.549   5.042   3.017  1.0879  1.1208  0.3338
  719MOL0     H97033   0.736   5.185   2.978  3.0200 -0.8912 -1.5287
  719MOL0     H97034   0.728   5.153   3.156 -0.5233 -1.8812  0.3969
  719MOL0     H97035   0.920   5.017   2.962  0.2099 -2.2640  1.8842
  719MOL0     H97036   0.926   4.997   3.137  1.8017  1.7252  1.0217
  719MOL0     H97037   0.946   5.268   3.004 -0.1686 -1.2923 -1.9364
  719MOL0     H97038   0.999   5.227   3.170  0.7334  2.0993  0.0708
  719MOL0     H97039   1.164   5.054   3.036 -0.4248  0.3412 -0.6772
  719MOL0     H97040   1.197   5.202   3.106  1.1997 -0.2471 -0.2124
  719MOL0     H97041   1.174   5.327   2.909 -0.4517  0.6516  0.5391
  719MOL0     H97042   1.275   5.194   2.865 -1.3030 -1.9798 -3.4433
  719MOL0     H97043   0.983   5.197   2.804  0.0333  1.5498  0.7510
  719MOL0     H97044   1.085   5.066   2.763  0.7494 -0.8522  4.8735
  719MOL0     H97045   1.235   5.235   2.643 -0.0552 -1.1328  0.3226
  719MOL0     H97046   1.120   5.365   2.664  0.6446  0.7210 -4.6238
  719MOL0     H97047   0.449   4.863   2.929  0.5621  1.2582  0.6689
  719MOL0     H97048   0.266   4.709   2.945  1.1665  1.0919 -0.2697
  719MOL0     H97049   0.190   4.282   3.128  0.1148 -0.7460 -1.0255
  719MOL0     H97050   0.105   4.072   3.039  0.7409 -0.6973 -0.1495
  719MOL0     H97051   1.462   4.200   1.777  1.6528  3.5383 -0.1840
  719MOL0     H97052   1.675   4.148   1.680 -0.6154  1.1261  0.4042
  719MOL0     H97053   1.967   3.954   1.566  2.4426 -1.9343 -1.7452
  719MOL0     H97054   2.164   3.907   1.433  1.0389 -0.5489  0.6525
  719MOL0     H97055   2.326   3.768   1.490  1.4373 -1.1255  1.7370
  719MOL0     H97056   2.352   3.844   1.338 -2.3767  0.8941  1.8857
  719MOL0     H97057   2.611   3.799   1.371  0.3028 -0.9728  0.3956
  719MOL0     H97058   2.514   3.665   1.347 -3.2159 -1.0127  1.6727
  719MOL0     H97059   2.597   3.725   1.633 -0.6978  1.2604 -0.9851
  719MOL0     H97060   2.668   3.608   1.516 -1.5434 -1.8246  0.2050
  719MOL0     H97061   2.433   3.507   1.489  1.8147 -1.6201 -0.6858
  719MOL0     H97062   2.389   3.616   1.630  1.3575  2.1374 -1.7424
  719MOL0     H97063   2.593   3.335   1.851 -0.1927 -1.1287 -0.7026
  719MOL0     H97064   2.412   4.164   1.667  0.6706 -0.2826  1.0596
  719MOL0     H97065   2.211   4.229   1.811  2.9316  1.3495 -0.6596
  720MOL0     O97066   2.746   3.004  10.482 -0.2963 -0.3827 -0.7446
  720MOL0     C97067   2.714   3.069  10.581 -0.0827  0.3606 -0.5122
  720MOL0     O97068   2.583   3.118  10.609  0.3137  0.7357  0.1588
  720MOL0     C97069   2.474   3.061  10.543 -0.8706  0.3479  0.7043
  720MOL0     C97070   2.359   3.145  10.520  0.3145 -0.0198  0.9755
  720MOL0     C97071   2.238   3.095  10.470  0.2680  0.4125  0.1758
  720MOL0     C97072   2.235   2.964  10.437 -0.5829  0.0395  0.3993
  720MOL0     O97073   2.115   2.920  10.386 -0.1552 -1.1548 -0.0228
  720MOL0     C97074   2.075   2.792  10.419  0.0340  0.1495  0.1252
  720MOL0     C97075   1.922   2.795  10.446 -0.0982 -0.1401  0.2600
  720MOL0     C97076   1.842   2.786  10.314 -0.8967 -0.1006 -0.0067
  720MOL0     C97077   1.795   2.917  10.262  0.3703 -0.5290  0.2313
  720MOL0     C97078   1.715   2.921  10.134 -0.2445  0.4391 -0.5347
  720MOL0     C97079   1.676   3.058  10.094 -0.9792  0.5040 -0.4971
  720MOL0     C97080   1.535   3.100  10.142 -0.3708  0.5413 -0.2294
  720MOL0     C97081   1.410   3.017  10.100 -0.5747  0.1120 -0.6985
  720MOL0     N97082   1.397   3.007   9.953 -0.5690  0.2617 -0.2538
  720MOL0     C97083   1.328   2.914   9.889  1.0975  0.3230  0.2484
  720MOL0     C97084   1.310   2.957   9.762  0.4381 -1.2352  0.3116
  720MOL0     C97085   1.250   2.889   9.650  0.0092 -0.1690  0.4169
  720MOL0     C97086   1.099   2.923   9.642  0.6829 -0.4129  0.5290
  720MOL0     C97087   1.032   2.845   9.522  0.4068  0.6850 -0.4983
  720MOL0     C97088   0.881   2.884   9.529  1.4956 -0.1240 -0.0656
  720MOL0     O97089   0.816   2.841   9.401  0.3490 -0.7051 -0.5288
  720MOL0     C97090   0.804   2.702   9.391  0.2969 -0.2758 -0.7623
  720MOL0     C97091   0.744   2.608   9.470  1.0674  0.1423 -0.4200
  720MOL0     C97092   0.748   2.476   9.434  0.5160 -0.1062  0.8756
  720MOL0     C97093   0.692   2.380   9.538  0.8181 -0.7310 -0.5755
  720MOL0     C97094   0.803   2.432   9.311  0.5117  0.1926  0.0104
  720MOL0     C97095   0.786   2.293   9.262 -0.3122 -0.3882 -0.7613
  720MOL0     O97096   0.889   2.209   9.292 -0.4228  0.4670  0.4015
  720MOL0     C97097   0.864   2.074   9.300 -0.3512  0.7026 -0.2334
  720MOL0     C97098   0.910   1.989   9.194  0.1556  0.5343  0.8902
  720MOL0     C97099   0.893   1.852   9.200  0.5258  0.2259 -0.2695
  720MOL0     C97100   0.840   1.790   9.315 -0.0532  0.1535  0.8806
  720MOL0     O97101   0.799   1.658   9.318  0.2577 -0.2601 -0.6978
  720MOL0     C97102   0.826   1.572   9.210  0.6258 -0.1272  0.3323
  720MOL0     C97103   0.971   1.515   9.204 -0.3721 -0.0275  0.8554
  720MOL0     C97104   0.991   1.397   9.104  0.2930  0.7083  0.0439
  720MOL0     C97105   0.880   1.291   9.121 -0.2198  0.1221  0.1715
  720MOL0     C97106   0.884   1.174   9.020  0.2448  0.0020  0.2342
  720MOL0     C97107   1.020   1.120   8.992 -0.0501  0.4936 -0.7788
  720MOL0     C97108   1.006   1.001   8.896  0.0757 -0.2548  0.3174
  720MOL0     C97109   1.134   0.968   8.810  0.2254  0.1048  0.1417
  720MOL0    Cl97110   1.255   0.961   8.927  0.1903 -0.1383 -0.0300
  720MOL0     C97111   0.796   1.878   9.421  0.1522  0.9174  0.4596
  720MOL0     C97112   0.821   2.009   9.421  0.3242 -0.4509  0.2539
  720MOL0     O97113   0.673   2.264   9.223 -0.5982  0.0772  0.2004
  720MOL0     C97114   0.861   2.528   9.235 -0.2853  0.2104 -0.2714
  720MOL0     C97115   0.863   2.655   9.277  0.2383  0.3268  0.4546
  720MOL0     N97116   1.364   3.090   9.757 -0.4189  0.3716 -0.0600
  720MOL0     N97117   1.416   3.119   9.869 -0.4193  0.6463 -0.1725
  720MOL0     C97118   2.352   2.889  10.439  0.2007  0.0708  0.3303
  720MOL0     C97119   2.472   2.927  10.505 -0.8396 -0.6906  0.6233
  720MOL0     C97120   2.809   3.117  10.675 -0.3069 -0.8737 -0.0542
  720MOL0     C97121   2.934   3.074  10.670  0.0488  0.4349 -0.2173
  720MOL0     C97122   3.034   3.111  10.768  0.1595  0.6303 -0.2034
  720MOL0     C97123   3.002   3.202  10.871 -0.8463  0.2768 -0.2632
  720MOL0     O97124   3.099   3.238  10.952 -0.9125 -0.5019  0.6607
  720MOL0     C97125   3.080   3.337  11.056 -0.2272  0.4915  0.5465
  720MOL0     C97126   3.205   3.417  11.074  0.1167  0.1998  0.7743
  720MOL0     C97127   3.330   3.346  11.031  0.1153 -0.4180 -0.3397
  720MOL0     C97128   3.446   3.454  11.057  0.9146 -0.3366 -0.4380
  720MOL0     C97129   3.576   3.390  11.067 -0.1457  0.3326 -0.1335
  720MOL0     C97130   3.695   3.355  11.075  0.4849  0.3541 -0.5042
  720MOL0     C97131   2.866   3.252  10.872  0.0732  0.4054  0.9106
  720MOL0     C97132   2.779   3.207  10.777  0.0121  0.1751 -0.0024
  720MOL0     H97133   2.353   3.252  10.538 -0.7023  0.0565  0.2273
  720MOL0     H97134   2.150   3.158  10.462 -0.2963 -0.2001  1.4196
  720MOL0     H97135   2.101   2.731  10.332 -1.0362 -2.2584  1.4084
  720MOL0     H97136   2.127   2.757  10.509  0.0794  2.3802  1.0262
  720MOL0     H97137   1.893   2.713  10.512  0.4440  1.2230  2.2777
  720MOL0     H97138   1.897   2.892  10.489 -2.0272  0.2559 -1.5867
  720MOL0     H97139   1.892   2.715  10.247 -2.2987 -1.0938 -0.0558
  720MOL0     H97140   1.749   2.736  10.343 -0.0645  0.0828  3.4115
  720MOL0     H97141   1.745   2.960  10.349  0.2226  0.1774 -0.1963
  720MOL0     H97142   1.892   2.966  10.247  1.4552 -2.9540 -1.4246
  720MOL0     H97143   1.769   2.870  10.054  0.5220  0.7812 -0.2447
  720MOL0     H97144   1.621   2.867  10.147 -1.2933  2.4413  0.7889
  720MOL0     H97145   1.758   3.119  10.132 -0.8865  0.4901 -0.6754
  720MOL0     H97146   1.681   3.054   9.985 -5.3410 -1.3667 -0.8404
  720MOL0     H97147   1.537   3.109  10.251 -1.1891 -1.6430  0.0183
  720MOL0     H97148   1.510   3.198  10.101 -0.6049  0.3030 -0.6602
  720MOL0     H97149   1.328   3.074  10.146  0.7336  0.1150  1.7916
  720MOL0     H97150   1.405   2.924  10.158  1.7027  2.0798  3.0149
  720MOL0     H97151   1.299   2.815   9.922  2.7174 -0.6982 -1.2055
  720MOL0     H97152   1.287   2.925   9.554 -0.7496  0.3829  0.3238
  720MOL0     H97153   1.268   2.781   9.648 -0.0809 -0.1713 -0.8530
  720MOL0     H97154   1.094   3.032   9.637  3.1347 -0.2492  0.1011
  720MOL0     H97155   1.052   2.899   9.738  1.6038  1.0202  1.3773
  720MOL0     H97156   1.048   2.738   9.534 -0.1627  0.3626 -2.2236
  720MOL0     H97157   1.087   2.869   9.431  0.4939 -0.3350 -0.7271
  720MOL0     H97158   0.868   2.991   9.541 -1.2739 -0.6205  2.6702
  720MOL0     H97159   0.830   2.847   9.619  0.1290  1.6734 -0.0608
  720MOL0     H97160   0.692   2.637   9.560  4.2923 -0.4970  1.8167
  720MOL0     H97161   0.674   2.435   9.631  1.6609  0.0469 -0.8622
  720MOL0     H97162   0.600   2.330   9.505  0.1896  0.9290 -1.4792
  720MOL0     H97163   0.762   2.302   9.568  0.3296 -0.4679  1.3784
  720MOL0     H97164   0.945   2.042   9.106  0.2572  1.8263  1.6845
  720MOL0     H97165   0.903   1.804   9.103 -1.0733  2.1386 -1.4725
  720MOL0     H97166   0.745   1.498   9.208 -1.9543  2.5023  0.4299
  720MOL0     H97167   0.804   1.619   9.114 -0.8467 -2.1356 -0.3811
  720MOL0     H97168   1.048   1.592   9.192 -0.2176 -0.3250 -0.1701
  720MOL0     H97169   1.003   1.467   9.297  1.0499  0.0496  0.4333
  720MOL0     H97170   1.091   1.354   9.101  2.2011  4.7093 -0.1254
  720MOL0     H97171   0.962   1.442   9.008 -0.0773 -1.1935 -0.7817
  720MOL0     H97172   0.885   1.246   9.220  0.4949  0.3865  0.2612
  720MOL0     H97173   0.778   1.330   9.114 -0.9581 -1.7532 -0.0848
  720MOL0     H97174   0.835   1.206   8.928  1.5038  1.0428 -0.1007
  720MOL0     H97175   0.819   1.095   9.058 -1.5606 -0.7739 -3.9432
  720MOL0     H97176   1.082   1.196   8.943  1.0404  1.1193  1.4430
  720MOL0     H97177   1.061   1.090   9.090 -0.5724 -1.3433 -1.0738
  720MOL0     H97178   0.931   1.030   8.822 -2.4177 -2.4233  1.8292
  720MOL0     H97179   0.975   0.906   8.941  0.5687 -1.5257 -1.8533
  720MOL0     H97180   1.147   1.050   8.740 -2.2664  3.1941  2.9707
  720MOL0     H97181   1.130   0.871   8.760  1.4409 -0.4646  1.0997
  720MOL0     H97182   0.757   1.832   9.511 -1.4908 -0.8721 -1.0615
  720MOL0     H97183   0.804   2.070   9.509 -0.3623  1.5176 -1.1936
  720MOL0     H97184   0.910   2.530   9.138  0.8975  0.4779  0.3156
  720MOL0     H97185   0.908   2.726   9.207  0.4045 -0.5564 -0.3562
  720MOL0     H97186   2.359   2.789  10.397 -1.5016  0.0325  0.0546
  720MOL0     H97187   2.560   2.864  10.509  0.2968  0.9107  2.5824
  720MOL0     H97188   2.964   2.992  10.607 -0.9657 -0.9701  1.0668
  720MOL0     H97189   3.135   3.074  10.769  1.1512  3.0949  1.3976
  720MOL0     H97190   3.006   3.415  11.035  0.4037  0.6474 -1.3047
  720MOL0     H97191   3.059   3.283  11.148  5.5880 -0.7733  1.5441
  720MOL0     H97192   3.211   3.444  11.180 -0.3478 -0.5768  1.0076
  720MOL0     H97193   3.195   3.506  11.011  0.9369  0.5346  1.1018
  720MOL0     H97194   3.330   3.286  10.939  0.5183 -2.3831  0.8907
  720MOL0     H97195   3.343   3.266  11.104  1.0693  1.4321  1.6226
  720MOL0     H97196   3.444   3.499  11.156  3.1171 -1.8623  0.3707
  720MOL0     H97197   3.434   3.528  10.978 -0.9502  1.3606  1.3126
  720MOL0     H97198   3.794   3.316  11.076  0.1814 -0.5553  2.4265
  720MOL0     H97199   2.837   3.331  10.940  0.1536  1.8151 -0.6286
  720MOL0     H97200   2.679   3.249  10.784  0.2968  0.9933 -0.6770
  721MOL0     O97201   0.227   6.439   7.298 -0.4155 -0.0680 -0.4394
  721MOL0     C97202   0.214   6.347   7.219  0.2578  0.3511 -0.3906
  721MOL0     O97203   0.116   6.346   7.125  0.2284  0.0170  0.0343
  721MOL0     C97204   0.045   6.453   7.093  0.3747 -0.2115 -0.0283
  721MOL0     C97205  -0.088   6.447   7.068  0.3011  0.0383  0.7521
  721MOL0     C97206  -0.162   6.553   7.014  0.3459 -0.0907  1.0514
  721MOL0     C97207  -0.101   6.671   6.979 -0.2857  0.0089 -0.3385
  721MOL0     O97208  -0.161   6.778   6.916  0.5751 -0.2095 -0.2593
  721MOL0     C97209  -0.298   6.763   6.873  0.7158 -0.4249 -0.0089
  721MOL0     C97210  -0.358   6.868   6.782 -0.9156 -0.6924 -0.0767
  721MOL0     C97211  -0.497   6.844   6.728 -0.3471 -0.6629  0.1366
  721MOL0     C97212  -0.605   6.811   6.829 -1.3834 -0.3654  0.3217
  721MOL0     C97213  -0.745   6.799   6.774  0.7670 -0.3242 -0.1419
  721MOL0     C97214  -0.796   6.944   6.733 -0.2343  0.7008 -0.0671
  721MOL0     C97215  -0.934   6.944   6.653  0.7150  0.7536 -0.2090
  721MOL0     C97216  -1.054   6.895   6.743 -0.2792 -0.3012 -0.7285
  721MOL0     N97217  -1.183   6.904   6.682 -0.1657 -0.1783  0.6540
  721MOL0     C97218  -1.245   6.801   6.608  0.7928 -0.6100  0.4566
  721MOL0     C97219  -1.371   6.844   6.595  0.7355 -0.6590 -0.2507
  721MOL0     C97220  -1.476   6.790   6.513  0.0630  0.0619  0.3531
  721MOL0     C97221  -1.610   6.795   6.586 -0.0977  0.6067  0.5150
  721MOL0     C97222  -1.708   6.707   6.509  0.7325 -0.5387 -0.0766
  721MOL0     C97223  -1.841   6.734   6.561  0.3225  0.4528 -0.6213
  721MOL0     O97224  -1.943   6.668   6.480  0.3775 -0.1014  0.1609
  721MOL0     C97225  -2.075   6.696   6.488 -0.0781 -0.1265  0.2800
  721MOL0     C97226  -2.140   6.788   6.564 -0.8241  0.3811  1.1284
  721MOL0     C97227  -2.274   6.804   6.577 -0.0883  0.2242  0.0780
  721MOL0     C97228  -2.313   6.912   6.658 -0.2204 -0.4468  0.0889
  721MOL0     C97229  -2.364   6.723   6.504 -0.4548 -0.9635  0.4695
  721MOL0     C97230  -2.510   6.718   6.503 -0.7813  0.4726 -0.0115
  721MOL0     O97231  -2.563   6.623   6.418 -0.3457 -0.2192  0.3011
  721MOL0     C97232  -2.695   6.619   6.382 -0.0792  0.5765 -0.8182
  721MOL0     C97233  -2.742   6.706   6.279 -0.4390  0.9399 -0.1144
  721MOL0     C97234  -2.878   6.713   6.245 -0.3385  1.1319  0.3785
  721MOL0     C97235  -2.969   6.615   6.301 -0.7292  0.2519 -0.4547
  721MOL0     O97236  -3.093   6.592   6.253 -0.0803 -0.1724  0.3296
  721MOL0     C97237  -3.160   6.692   6.169  0.4803 -0.0995 -0.2857
  721MOL0     C97238  -3.312   6.698   6.202  0.5981 -0.5058  0.0055
  721MOL0     C97239  -3.339   6.738   6.349  0.1870  0.4655  0.0677
  721MOL0     C97240  -3.308   6.882   6.373 -0.2383 -1.1641  0.0924
  721MOL0     C97241  -3.314   6.917   6.522 -0.3540  0.0358 -0.5533
  721MOL0     C97242  -3.457   6.918   6.586  0.2065 -1.2076  0.0009
  721MOL0     C97243  -3.530   7.045   6.548 -0.1933 -0.5416 -0.7925
  721MOL0     C97244  -3.677   7.054   6.599 -0.0549 -0.5410 -0.5932
  721MOL0    Cl97245  -3.732   7.230   6.553  0.7216 -0.3202  0.6756
  721MOL0     C97246  -2.915   6.519   6.394  0.1745 -0.1109 -1.0828
  721MOL0     C97247  -2.782   6.522   6.437 -1.2662 -0.0217 -0.0343
  721MOL0     O97248  -2.571   6.790   6.575  0.3053 -0.7819 -0.0686
  721MOL0     C97249  -2.296   6.625   6.417  0.2383 -0.2766 -0.1217
  721MOL0     C97250  -2.157   6.623   6.401  1.1386 -0.4235 -0.1968
  721MOL0     N97251  -1.390   6.960   6.669  0.6558  0.3171 -0.0053
  721MOL0     N97252  -1.277   6.992   6.717  0.2815  0.5610 -0.6051
  721MOL0     C97253   0.035   6.686   7.016 -0.7008  0.1315 -0.0102
  721MOL0     C97254   0.112   6.580   7.079  0.2397 -0.4460  0.6716
  721MOL0     C97255   0.272   6.216   7.264  0.3278  0.0370 -0.7620
  721MOL0     C97256   0.331   6.201   7.389  0.4554  0.1823 -0.4185
  721MOL0     C97257   0.389   6.085   7.437 -1.0008 -0.6340 -0.4420
  721MOL0     C97258   0.366   5.967   7.361 -0.3068 -0.2243 -0.0894
  721MOL0     O97259   0.398   5.839   7.406 -0.2660  0.9265 -0.4377
  721MOL0     C97260   0.498   5.840   7.509  0.4382 -0.2269 -0.6763
  721MOL0     C97261   0.554   5.694   7.525  0.0956 -0.5448  0.8267
  721MOL0     C97262   0.674   5.695   7.622  0.1208  0.1941 -0.2939
  721MOL0     C97263   0.716   5.543   7.640 -0.1507  0.4387 -0.2389
  721MOL0     C97264   0.613   5.473   7.717 -0.0958 -0.4414 -0.4953
  721MOL0     C97265   0.538   5.414   7.790 -0.2673 -0.3661  0.5860
  721MOL0     C97266   0.303   5.975   7.236 -1.0024 -0.1267  0.0581
  721MOL0     C97267   0.267   6.102   7.183 -0.2624  0.3048 -0.4026
  721MOL0     H97268  -0.132   6.350   7.089  1.3235 -0.5690  0.1371
  721MOL0     H97269  -0.269   6.535   7.002 -0.0401  0.5608  3.0765
  721MOL0     H97270  -0.316   6.673   6.813  2.5698 -1.0947  0.3881
  721MOL0     H97271  -0.371   6.770   6.954 -1.3895 -0.9028 -1.7677
  721MOL0     H97272  -0.360   6.952   6.852 -3.0656 -0.5171 -0.2795
  721MOL0     H97273  -0.290   6.895   6.702 -1.4365 -2.2112 -1.0853
  721MOL0     H97274  -0.528   6.940   6.683  1.0793 -0.7788 -1.1601
  721MOL0     H97275  -0.505   6.767   6.651 -0.2739  0.2686 -0.8217
  721MOL0     H97276  -0.573   6.712   6.861 -0.5853 -0.3923 -0.5061
  721MOL0     H97277  -0.604   6.887   6.907  1.5062  1.7619 -1.5784
  721MOL0     H97278  -0.744   6.732   6.687  0.5107 -1.1998  0.5227
  721MOL0     H97279  -0.809   6.754   6.850  1.6921  0.5694  1.1953
  721MOL0     H97280  -0.801   7.003   6.825  0.9376  0.0837  0.4111
  721MOL0     H97281  -0.727   6.995   6.666 -0.6035 -0.2164 -1.1710
  721MOL0     H97282  -0.954   7.044   6.615 -0.7467 -0.2624 -2.3378
  721MOL0     H97283  -0.921   6.886   6.561 -2.3067 -0.3199 -0.0953
  721MOL0     H97284  -1.058   6.966   6.826 -1.8647 -0.1156 -0.9298
  721MOL0     H97285  -1.031   6.794   6.779 -1.8856  0.0093  1.3556
  721MOL0     H97286  -1.221   6.698   6.586  1.2539 -0.1148 -1.5743
  721MOL0     H97287  -1.490   6.859   6.429 -2.3138  3.6326  3.3268
  721MOL0     H97288  -1.457   6.687   6.481  0.4779  0.4180 -0.6068
  721MOL0     H97289  -1.644   6.898   6.576  0.5822  0.8605  0.8015
  721MOL0     H97290  -1.600   6.777   6.694 -3.0649 -2.7032  0.4295
  721MOL0     H97291  -1.696   6.599   6.518  0.4452 -0.5456  0.2348
  721MOL0     H97292  -1.695   6.734   6.404 -2.0194 -1.2186 -0.6570
  721MOL0     H97293  -1.860   6.842   6.558 -0.9045  0.4683  3.1527
  721MOL0     H97294  -1.848   6.704   6.666  1.9011 -0.9000 -0.8592
  721MOL0     H97295  -2.082   6.859   6.622  0.1633  1.7448 -1.3390
  721MOL0     H97296  -2.369   6.877   6.745 -2.0401  1.6681 -0.1448
  721MOL0     H97297  -2.232   6.978   6.691 -0.8329  1.1681 -1.4332
  721MOL0     H97298  -2.382   6.972   6.597 -1.6694 -0.9477  1.2018
  721MOL0     H97299  -2.677   6.780   6.235 -1.8061  1.6428 -1.0095
  721MOL0     H97300  -2.897   6.792   6.174  0.8237  0.2238 -1.0217
  721MOL0     H97301  -3.123   6.795   6.170  0.6501 -0.1521 -0.7834
  721MOL0     H97302  -3.155   6.660   6.065  1.1792 -0.5466 -0.1304
  721MOL0     H97303  -3.360   6.779   6.146  1.1825  3.0886  4.1453
  721MOL0     H97304  -3.349   6.599   6.177 -1.5126  0.6603 -1.8378
  721MOL0     H97305  -3.279   6.672   6.412  0.8194  3.3816  2.7285
  721MOL0     H97306  -3.441   6.708   6.377  0.0058  1.1254  0.1279
  721MOL0     H97307  -3.208   6.905   6.334 -0.7849 -1.5925 -1.6331
  721MOL0     H97308  -3.368   6.953   6.315 -0.1840  1.1907  2.7156
  721MOL0     H97309  -3.262   7.013   6.530 -1.7340  0.8693 -1.1671
  721MOL0     H97310  -3.240   6.850   6.565  3.1993  3.4755 -0.7460
  721MOL0     H97311  -3.511   6.831   6.548  1.9983 -1.3323 -2.5104
  721MOL0     H97312  -3.452   6.906   6.694 -1.7086 -1.1132  0.1244
  721MOL0     H97313  -3.542   7.065   6.441 -1.4414 -0.6255 -0.6863
  721MOL0     H97314  -3.468   7.125   6.589 -1.5351 -0.9668  2.4019
  721MOL0     H97315  -3.690   7.038   6.706  0.9215  0.3054 -0.3187
  721MOL0     H97316  -3.728   6.978   6.539  0.4690 -1.2406 -0.1665
  721MOL0     H97317  -2.990   6.446   6.422 -0.4211  1.2833  1.2534
  721MOL0     H97318  -2.746   6.460   6.519 -1.2124  0.2442  0.1466
  721MOL0     H97319  -2.355   6.560   6.354 -0.7769  0.3307  0.1897
  721MOL0     H97320  -2.124   6.543   6.336  2.4938 -1.4950  1.6859
  721MOL0     H97321   0.086   6.782   7.014 -0.6207  0.3066  3.5279
  721MOL0     H97322   0.215   6.597   7.107 -0.3344  4.1064  0.6518
  721MOL0     H97323   0.338   6.289   7.452  2.9472 -1.4004  1.7033
  721MOL0     H97324   0.432   6.083   7.537  0.7747  0.6416 -1.1355
  721MOL0     H97325   0.585   5.904   7.488  0.7466  0.3248  1.9272
  721MOL0     H97326   0.457   5.862   7.608  1.7679 -1.3917  0.1860
  721MOL0     H97327   0.584   5.647   7.430 -2.2407  2.6270 -1.6917
  721MOL0     H97328   0.477   5.639   7.580 -0.4329 -2.5274 -1.6922
  721MOL0     H97329   0.649   5.754   7.710  1.7568 -0.4944  0.6665
  721MOL0     H97330   0.751   5.762   7.582 -1.8078  4.2158  2.0369
  721MOL0     H97331   0.806   5.537   7.704 -0.3937  1.8888  0.2764
  721MOL0     H97332   0.728   5.494   7.543 -0.1364 -1.0514  0.4853
  721MOL0     H97333   0.476   5.350   7.849  0.8929 -2.1623 -0.0547
  721MOL0     H97334   0.304   5.882   7.180 -2.1407 -0.0315 -0.1626
  721MOL0     H97335   0.234   6.124   7.082 -0.9129  0.6285 -0.1302
  722MOL0     O97336   4.753   9.377   9.684  0.2603 -0.4179 -0.3157
  722MOL0     C97337   4.844   9.363   9.763  0.4392  0.4039 -0.1133
  722MOL0     O97338   4.831   9.366   9.900 -0.0632 -0.6383  0.1935
  722MOL0     C97339   4.706   9.365   9.951  0.6747 -0.0423  0.7734
  722MOL0     C97340   4.660   9.473  10.026 -0.2828 -0.4165 -0.3034
  722MOL0     C97341   4.529   9.477  10.081  0.2997 -1.2399  0.9415
  722MOL0     C97342   4.446   9.365  10.058  0.3063  0.1454 -0.2403
  722MOL0     O97343   4.309   9.359  10.107  0.5791  0.4616  0.4720
  722MOL0     C97344   4.250   9.477  10.181  0.2177 -0.0405  0.9417
  722MOL0     C97345   4.166   9.567  10.088 -1.1160  0.0268 -0.4140
  722MOL0     C97346   4.132   9.701  10.157  0.2274 -0.0570 -0.1153
  722MOL0     C97347   4.051   9.795  10.064  0.0253 -0.1496 -0.0304
  722MOL0     C97348   4.051   9.938  10.118  0.5498  0.8385  0.6625
  722MOL0     C97349   4.181  10.003  10.144  0.6452 -0.2850 -0.3712
  722MOL0     C97350   4.291  10.026  10.037 -0.6907  0.1336 -0.5407
  722MOL0     C97351   4.390  10.121  10.103 -0.5274  0.1820  1.2213
  722MOL0     N97352   4.469  10.060  10.212  0.2129  0.3608 -0.3975
  722MOL0     C97353   4.437  10.056  10.347  0.0370  0.4136  0.6310
  722MOL0     C97354   4.524   9.969  10.391 -0.8906 -0.1403 -0.3291
  722MOL0     C97355   4.545   9.913  10.534 -0.2291  0.5052  0.4700
  722MOL0     C97356   4.489   9.773  10.552  0.7880  0.1927 -0.1861
  722MOL0     C97357   4.338   9.776  10.511 -0.1719 -1.0257  0.1565
  722MOL0     C97358   4.299   9.643  10.556  0.6291  0.4865 -0.5238
  722MOL0     O97359   4.158   9.607  10.525  1.1517 -0.0843 -0.1272
  722MOL0     C97360   4.091   9.509  10.600  0.0333  1.2737  0.0038
  722MOL0     C97361   4.151   9.415  10.690 -0.3936 -0.6696 -0.3005
  722MOL0     C97362   4.075   9.327  10.767  0.0311 -0.5320 -0.1243
  722MOL0     C97363   4.154   9.224  10.843 -0.1287 -0.2981 -0.1934
  722MOL0     C97364   3.937   9.313  10.753 -0.2668 -0.2310  0.1852
  722MOL0     C97365   3.855   9.226  10.840 -0.5808  0.2850  0.0492
  722MOL0     O97366   3.748   9.292  10.884  0.2189  0.4135  0.3892
  722MOL0     C97367   3.658   9.232  10.974 -0.0437  0.6022  0.1833
  722MOL0     C97368   3.703   9.171  11.093  0.9854 -0.4262 -0.1252
  722MOL0     C97369   3.608   9.102  11.177 -0.2607  0.3582  0.0920
  722MOL0     C97370   3.469   9.102  11.146 -0.3294  0.0898 -0.0549
  722MOL0     O97371   3.367   9.045  11.218  0.1580 -0.7585 -0.6606
  722MOL0     C97372   3.413   8.948  11.319 -0.7692 -0.3558 -0.8496
  722MOL0     C97373   3.283   8.887  11.364  0.5120 -0.5023 -0.9971
  722MOL0     C97374   3.307   8.761  11.445 -0.1436  0.9140 -0.9043
  722MOL0     C97375   3.300   8.633  11.355 -0.4516 -0.8197 -0.2048
  722MOL0     C97376   3.413   8.537  11.388  0.2455  0.0918 -0.1873
  722MOL0     C97377   3.394   8.439  11.499  0.5174  0.0535  0.0810
  722MOL0     C97378   3.506   8.337  11.501  0.1256 -0.0122 -0.1938
  722MOL0     C97379   3.634   8.395  11.543 -0.8327 -0.0793  0.6074
  722MOL0    Cl97380   3.770   8.279  11.556  0.0517  0.1925 -0.2046
  722MOL0     C97381   3.427   9.163  11.029 -0.1632 -0.9854 -0.7302
  722MOL0     C97382   3.522   9.230  10.948 -0.3203  0.2851 -0.6694
  722MOL0     O97383   3.880   9.100  10.849  0.3548  0.0603 -0.6016
  722MOL0     C97384   3.882   9.401  10.659  0.8680  0.5744  0.6808
  722MOL0     C97385   3.958   9.490  10.581  0.4226 -0.4554  0.1624
  722MOL0     N97386   4.601   9.904  10.292 -0.5483  0.4949  0.3344
  722MOL0     N97387   4.565   9.962  10.182 -0.0538 -0.3007 -0.1417
  722MOL0     C97388   4.497   9.259   9.990 -0.1674  0.1182  0.8021
  722MOL0     C97389   4.626   9.252   9.946  0.4794  0.0041  0.6339
  722MOL0     C97390   4.980   9.330   9.710 -0.3074  0.2297  1.7145
  722MOL0     C97391   5.083   9.288   9.796 -0.1707  0.4054  0.3939
  722MOL0     C97392   5.217   9.286   9.758 -0.0129 -0.1670 -0.0597
  722MOL0     C97393   5.255   9.327   9.630  0.9528 -0.6545 -0.0000
  722MOL0     O97394   5.386   9.336   9.586 -0.8866  0.3061 -0.7050
  722MOL0     C97395   5.481   9.407   9.666  0.1785 -0.5348  0.9813
  722MOL0     C97396   5.447   9.558   9.654 -0.0220  0.5438 -1.2799
  722MOL0     C97397   5.482   9.621   9.522 -0.7856 -0.0615 -0.1247
  722MOL0     C97398   5.371   9.627   9.428 -0.0245  0.3042 -0.4414
  722MOL0     C97399   5.407   9.609   9.291 -0.0014 -0.1950  0.4807
  722MOL0     C97400   5.440   9.586   9.171  0.4133 -0.0106 -0.2705
  722MOL0     C97401   5.148   9.358   9.540  0.2124 -0.0892 -0.2572
  722MOL0     C97402   5.013   9.363   9.575  0.0511  0.5300  0.4723
  722MOL0     H97403   4.727   9.552  10.059 -0.8036 -0.5993  1.3060
  722MOL0     H97404   4.500   9.563  10.140 -0.8782  0.1473 -1.4887
  722MOL0     H97405   4.193   9.440  10.266  1.4877 -1.6323  1.1391
  722MOL0     H97406   4.321   9.544  10.229  0.8166  1.4539 -1.7952
  722MOL0     H97407   4.237   9.583  10.006 -0.3504 -1.9552 -0.1975
  722MOL0     H97408   4.080   9.523  10.038 -1.6953 -0.9394  1.3374
  722MOL0     H97409   4.071   9.682  10.246 -0.1303  0.2157 -0.3007
  722MOL0     H97410   4.227   9.748  10.184 -0.0870  0.0380  0.9031
  722MOL0     H97411   4.084   9.801   9.960 -0.3900  0.9772 -0.1082
  722MOL0     H97412   3.947   9.765  10.046 -0.5692  1.8084 -0.0989
  722MOL0     H97413   3.996   9.995  10.043  0.7243  1.3829  0.9428
  722MOL0     H97414   4.000   9.937  10.215  1.0423 -1.0686  0.9348
  722MOL0     H97415   4.153  10.106  10.168  1.1343 -0.1773 -0.2585
  722MOL0     H97416   4.221   9.951  10.231 -2.3573  0.7549  1.8380
  722MOL0     H97417   4.336   9.931  10.009  0.0292 -1.2565  4.3925
  722MOL0     H97418   4.233  10.062   9.951 -4.2637 -2.0245  0.7533
  722MOL0     H97419   4.347  10.215  10.141  1.5058  1.3813  0.6920
  722MOL0     H97420   4.461  10.138  10.022 -1.5171 -1.4029 -0.0371
  722MOL0     H97421   4.367  10.121  10.398 -0.3347  0.5141  0.0043
  722MOL0     H97422   4.652   9.896  10.547 -0.2818  1.5670  2.6730
  722MOL0     H97423   4.506   9.972  10.617  1.6406  1.2707  0.8327
  722MOL0     H97424   4.514   9.747  10.655 -1.8855  0.1332  0.5010
  722MOL0     H97425   4.544   9.696  10.496  1.7298  0.0461  0.8981
  722MOL0     H97426   4.323   9.792  10.404 -0.5450 -1.1309  0.1945
  722MOL0     H97427   4.297   9.860  10.569  3.9716  1.3960  0.0042
  722MOL0     H97428   4.309   9.638  10.665  1.3355  2.1665 -0.4750
  722MOL0     H97429   4.368   9.567  10.517  2.4588  1.5604  0.4381
  722MOL0     H97430   4.257   9.433  10.705 -0.6025  2.2410 -1.6834
  722MOL0     H97431   4.252   9.253  10.883 -0.6711  1.3972 -0.0370
  722MOL0     H97432   4.102   9.208  10.938 -1.7742 -1.3027 -1.2216
  722MOL0     H97433   4.174   9.128  10.795  2.1723 -1.0309  1.9753
  722MOL0     H97434   3.808   9.173  11.121  0.2817  0.1077  2.8195
  722MOL0     H97435   3.637   9.035  11.257 -0.4569 -0.9425 -0.8922
  722MOL0     H97436   3.479   8.869  11.282 -0.4585 -0.6494  0.2887
  722MOL0     H97437   3.459   9.001  11.402  1.1090 -2.5601 -0.3744
  722MOL0     H97438   3.231   8.958  11.429 -0.8629 -1.0233 -1.5024
  722MOL0     H97439   3.211   8.870  11.284 -1.9294 -0.0895  0.9769
  722MOL0     H97440   3.231   8.750  11.522  0.4808  1.2883 -0.2234
  722MOL0     H97441   3.402   8.780  11.496 -0.9565  1.5238  0.4265
  722MOL0     H97442   3.203   8.584  11.361 -1.4646  1.1266  0.0504
  722MOL0     H97443   3.307   8.671  11.252  1.0198  1.7143  0.7405
  722MOL0     H97444   3.505   8.595  11.400  0.0994  0.4618 -0.8413
  722MOL0     H97445   3.429   8.474  11.300 -1.7888 -0.3830 -0.2653
  722MOL0     H97446   3.385   8.496  11.592  3.3091  3.5182 -1.4996
  722MOL0     H97447   3.299   8.387  11.489  0.0999  0.4519  1.6752
  722MOL0     H97448   3.503   8.291  11.402 -0.1166  0.6681 -0.5068
  722MOL0     H97449   3.481   8.259  11.574  0.2513  1.3670  1.4015
  722MOL0     H97450   3.618   8.440  11.642 -0.6043  1.9414 -0.2188
  722MOL0     H97451   3.667   8.476  11.476  0.9776 -2.7645 -1.9829
  722MOL0     H97452   3.321   9.171  11.005 -0.2587  1.2465  0.1656
  722MOL0     H97453   3.493   9.275  10.853  0.7362  0.0220 -1.1291
  722MOL0     H97454   3.774   9.403  10.648  0.9206  0.1079  0.0724
  722MOL0     H97455   3.910   9.559  10.514  0.8825  0.3535  0.6487
  722MOL0     H97456   4.435   9.172   9.974  0.0049 -0.3185  2.3217
  722MOL0     H97457   4.664   9.169   9.886 -2.6483  0.6947 -2.6349
  722MOL0     H97458   5.046   9.276   9.898 -1.3370  0.9269  0.0531
  722MOL0     H97459   5.287   9.255   9.834  2.7057 -2.5213 -3.1977
  722MOL0     H97460   5.482   9.381   9.772  1.1301  1.9904  1.6710
  722MOL0     H97461   5.583   9.403   9.627  0.2344  1.6001  0.7771
  722MOL0     H97462   5.517   9.604   9.724 -1.6127  1.6375 -0.3349
  722MOL0     H97463   5.346   9.580   9.692 -0.4808 -3.8912  0.6808
  722MOL0     H97464   5.569   9.569   9.481 -0.4022  0.9601 -0.6157
  722MOL0     H97465   5.516   9.724   9.522 -0.0253 -0.3083 -0.5362
  722MOL0     H97466   5.323   9.724   9.441  1.5089  0.9255  0.8794
  722MOL0     H97467   5.296   9.555   9.462  2.5963 -1.3624  2.2196
  722MOL0     H97468   5.448   9.591   9.065  0.3981 -1.5934 -0.3785
  722MOL0     H97469   5.171   9.401   9.442  1.7650  0.4279  0.2987
  722MOL0     H97470   4.937   9.410   9.514 -0.9298 -0.4862  0.8669
  723MOL0     O97471   5.972   5.628  10.083 -0.1351  0.0052  0.8627
  723MOL0     C97472   5.976   5.704  10.178 -0.5930  1.0273 -0.3238
  723MOL0     O97473   5.886   5.795  10.205 -0.5803 -0.0121 -0.9316
  723MOL0     C97474   5.809   5.838  10.103 -0.0828 -0.2217 -0.7321
  723MOL0     C97475   5.664   5.823  10.106 -1.1885 -0.0285 -0.4992
  723MOL0     C97476   5.596   5.875   9.995 -0.5553 -0.4581 -0.4780
  723MOL0     C97477   5.656   5.941   9.887 -0.4421  0.4711  0.0418
  723MOL0     O97478   5.581   5.983   9.783  0.6238 -0.0924  0.0016
  723MOL0     C97479   5.443   5.941   9.770  0.4618  0.4302 -0.4007
  723MOL0     C97480   5.384   5.969   9.632  0.7830  0.5336  0.7974
  723MOL0     C97481   5.229   5.944   9.626  0.9193 -0.8079 -0.2966
  723MOL0     C97482   5.158   5.968   9.501  0.3468 -0.0789  0.1627
  723MOL0     C97483   5.007   5.942   9.507  0.0389  0.2102  0.6867
  723MOL0     C97484   4.954   5.931   9.361 -0.1445  0.0916 -0.2727
  723MOL0     C97485   4.973   6.060   9.277 -0.1792  0.6158  0.7780
  723MOL0     C97486   4.922   6.195   9.332 -0.6591  0.6572  0.2346
  723MOL0     N97487   4.773   6.197   9.347 -0.1528  0.2524 -0.4673
  723MOL0     C97488   4.683   6.211   9.240 -0.5903  0.3660 -0.6533
  723MOL0     C97489   4.561   6.211   9.309  0.2296  0.1482  0.1206
  723MOL0     C97490   4.420   6.235   9.255 -0.8508 -0.3464  0.6384
  723MOL0     C97491   4.420   6.312   9.122  0.0345 -1.4437  0.0954
  723MOL0     C97492   4.283   6.368   9.084  0.4843  1.0152 -0.9561
  723MOL0     C97493   4.238   6.490   9.171  0.5296 -0.2171 -1.0834
  723MOL0     O97494   4.184   6.433   9.294 -0.4018  0.0175  0.6269
  723MOL0     C97495   4.080   6.499   9.349 -0.1464  0.6689  0.0575
  723MOL0     C97496   4.094   6.622   9.395 -0.3344  0.5172  0.0221
  723MOL0     C97497   3.985   6.690   9.455  0.1467 -0.0827 -0.3366
  723MOL0     C97498   4.026   6.815   9.527  0.8110  0.1252 -0.1745
  723MOL0     C97499   3.860   6.631   9.447  0.5952 -0.0882 -0.7617
  723MOL0     C97500   3.736   6.697   9.493 -0.4010  0.5960 -0.3173
  723MOL0     O97501   3.618   6.619   9.480 -0.8394 -0.0666 -0.1008
  723MOL0     C97502   3.506   6.679   9.529 -0.6319 -0.2219  0.1598
  723MOL0     C97503   3.457   6.659   9.659  0.8773  0.3465  0.2798
  723MOL0     C97504   3.328   6.704   9.690 -0.2398 -0.4872  0.3804
  723MOL0     C97505   3.265   6.798   9.601 -0.0323  0.5348 -0.9052
  723MOL0     O97506   3.141   6.844   9.652  0.0262  0.3875 -0.4014
  723MOL0     C97507   3.047   6.908   9.561 -0.0185 -0.2496  0.3522
  723MOL0     C97508   2.963   7.003   9.649 -0.0773 -0.3552 -1.4737
  723MOL0     C97509   2.853   6.925   9.726 -1.2811  0.2080  0.5058
  723MOL0     C97510   2.776   7.027   9.818  0.5291  0.3873 -0.5968
  723MOL0     C97511   2.663   6.941   9.894 -0.5979 -0.7934  0.2181
  723MOL0     C97512   2.572   6.877   9.779  0.7510  0.6664  0.1180
  723MOL0     C97513   2.432   6.829   9.812  0.3741  0.2434  0.2690
  723MOL0     C97514   2.423   6.702   9.891  0.4941 -0.1611  0.4360
  723MOL0    Cl97515   2.258   6.646   9.895  0.0893 -0.1149  0.1471
  723MOL0     C97516   3.322   6.831   9.478  0.3109 -0.2179 -0.3857
  723MOL0     C97517   3.445   6.777   9.449  0.0750  0.0474 -0.5027
  723MOL0     O97518   3.734   6.805   9.545 -0.8598 -0.0682  0.1711
  723MOL0     C97519   3.843   6.502   9.396 -0.4128  0.2240  0.7545
  723MOL0     C97520   3.956   6.434   9.345  0.4132  0.0698  0.3310
  723MOL0     N97521   4.593   6.166   9.437  0.4256  0.0197  0.6525
  723MOL0     N97522   4.720   6.155   9.460  0.4706 -0.2567  0.1602
  723MOL0     C97523   5.793   5.969   9.895 -0.7965 -0.8011  0.2426
  723MOL0     C97524   5.862   5.904   9.999  0.8016 -0.0093  0.1621
  723MOL0     C97525   6.078   5.676  10.285 -0.1620 -0.7148 -0.5453
  723MOL0     C97526   6.091   5.762  10.389  0.5649 -0.9062  0.9523
  723MOL0     C97527   6.185   5.734  10.493  0.2364 -1.2303 -0.7312
  723MOL0     C97528   6.267   5.619  10.485 -0.0373 -0.3403 -0.8464
  723MOL0     O97529   6.354   5.583  10.591  0.0245 -0.2056 -0.4891
  723MOL0     C97530   6.315   5.626  10.723 -0.4351  0.1402  0.1582
  723MOL0     C97531   6.405   5.569  10.835  0.0205 -0.9033 -0.5988
  723MOL0     C97532   6.323   5.557  10.968 -0.7873 -0.6719  0.4358
  723MOL0     C97533   6.401   5.589  11.098  0.5740  1.3478  0.1103
  723MOL0     C97534   6.471   5.464  11.137  0.1806  0.3230  0.5868
  723MOL0     C97535   6.538   5.362  11.145  0.3407 -0.9095  0.0618
  723MOL0     C97536   6.254   5.536  10.376 -0.4566 -0.3047 -0.8076
  723MOL0     C97537   6.158   5.564  10.277 -0.6497  0.3188  0.1777
  723MOL0     H97538   5.615   5.770  10.187  1.5512 -1.5254  0.3092
  723MOL0     H97539   5.490   5.865  10.015 -0.4939  1.4452  1.0868
  723MOL0     H97540   5.449   5.833   9.786  2.8394  0.5336 -0.1916
  723MOL0     H97541   5.398   5.998   9.851 -0.6165 -0.7071 -0.1557
  723MOL0     H97542   5.407   6.073   9.606  0.4545  1.3393  3.4813
  723MOL0     H97543   5.416   5.900   9.553  0.3328  3.2123 -1.9119
  723MOL0     H97544   5.219   5.843   9.666 -0.0630 -1.7424 -2.7282
  723MOL0     H97545   5.177   6.013   9.693  0.3855  0.4911 -1.9809
  723MOL0     H97546   5.161   6.075   9.475  0.6004  0.9800  3.9203
  723MOL0     H97547   5.203   5.911   9.419  2.0391  0.2754  0.7942
  723MOL0     H97548   4.987   5.846   9.556 -0.0880  0.3090  0.8305
  723MOL0     H97549   4.952   6.020   9.561 -2.1497  0.4932 -1.7360
  723MOL0     H97550   4.985   5.839   9.311 -1.4454 -1.1563  1.0735
  723MOL0     H97551   4.845   5.914   9.363 -0.3298  0.9785 -1.8930
  723MOL0     H97552   5.080   6.062   9.254 -0.4912 -2.1858 -1.4884
  723MOL0     H97553   4.913   6.048   9.186  0.4783  2.5939  0.0136
  723MOL0     H97554   4.964   6.274   9.269  0.5840 -0.1365  0.0285
  723MOL0     H97555   4.975   6.215   9.426  0.0744  1.0544 -0.2606
  723MOL0     H97556   4.707   6.237   9.138  1.4049  0.1243 -0.2735
  723MOL0     H97557   4.363   6.144   9.235 -0.0394 -0.8174  0.4361
  723MOL0     H97558   4.366   6.295   9.330  0.6916  2.6373 -0.4668
  723MOL0     H97559   4.446   6.238   9.046 -0.3386 -1.5443  0.0675
  723MOL0     H97560   4.496   6.391   9.118 -1.8246  0.4922  1.3365
  723MOL0     H97561   4.211   6.286   9.077  1.6461 -0.5258  2.6893
  723MOL0     H97562   4.285   6.417   8.987  2.0281 -0.8785 -1.9577
  723MOL0     H97563   4.158   6.537   9.114 -0.4977  0.6058  0.9502
  723MOL0     H97564   4.314   6.568   9.182 -0.4729  0.9025 -1.8889
  723MOL0     H97565   4.188   6.676   9.383 -1.3484  3.2315  2.7147
  723MOL0     H97566   4.128   6.849   9.503  1.3266  0.0345  1.7471
  723MOL0     H97567   3.971   6.907   9.501  2.9245  1.3001 -0.7663
  723MOL0     H97568   4.010   6.795   9.633  1.4048  2.2401  0.3672
  723MOL0     H97569   3.504   6.582   9.720 -0.8967 -0.3669  0.7907
  723MOL0     H97570   3.292   6.687   9.791  0.8660  0.7840  1.0153
  723MOL0     H97571   3.100   6.974   9.492 -1.3246  0.7872  0.3132
  723MOL0     H97572   2.976   6.846   9.506  1.0163 -1.5881  0.4672
  723MOL0     H97573   3.036   7.057   9.709  1.3611 -1.9138 -1.7587
  723MOL0     H97574   2.920   7.080   9.585 -1.4224  1.4517  1.3844
  723MOL0     H97575   2.897   6.845   9.785  0.2779  2.4496  2.5924
  723MOL0     H97576   2.796   6.874   9.648 -1.1724 -0.9194  1.1497
  723MOL0     H97577   2.855   7.059   9.886  1.1862 -0.8573 -0.7380
  723MOL0     H97578   2.738   7.109   9.757 -0.5438  0.6190  0.3607
  723MOL0     H97579   2.608   7.011   9.958  0.1871  0.6786 -0.6741
  723MOL0     H97580   2.711   6.877   9.968 -2.0160 -0.0897  1.8026
  723MOL0     H97581   2.554   6.957   9.706  0.6490 -2.4993 -3.6237
  723MOL0     H97582   2.613   6.798   9.716 -2.3854 -0.0850 -1.1428
  723MOL0     H97583   2.374   6.816   9.720  0.5550 -1.7381  0.4026
  723MOL0     H97584   2.376   6.909   9.862 -1.9195 -1.1012  0.0049
  723MOL0     H97585   2.458   6.721   9.993  1.3808  0.9227 -0.0601
  723MOL0     H97586   2.479   6.618   9.848 -0.6526 -0.1998 -1.0417
  723MOL0     H97587   3.275   6.898   9.407 -1.4201 -2.8494 -1.8779
  723MOL0     H97588   3.480   6.796   9.348 -0.8092 -1.8771 -1.2264
  723MOL0     H97589   3.744   6.458   9.392 -0.5578  0.5787  0.4153
  723MOL0     H97590   3.954   6.329   9.316  1.4064 -0.0075  0.5043
  723MOL0     H97591   5.850   6.002   9.809  1.2613 -0.7929  1.5518
  723MOL0     H97592   5.971   5.904   9.998  0.8420 -0.9835  1.4191
  723MOL0     H97593   6.043   5.859  10.394 -1.1797 -1.7104  0.5995
  723MOL0     H97594   6.182   5.797  10.581 -0.8830 -0.8773 -1.0095
  723MOL0     H97595   6.331   5.734  10.723  0.3841  0.0221 -0.0591
  723MOL0     H97596   6.212   5.590  10.725 -0.1516 -1.1158 -2.6915
  723MOL0     H97597   6.482   5.646  10.844  0.2594 -0.8712 -2.6043
  723MOL0     H97598   6.440   5.468  10.810 -3.0790 -2.2500  0.0870
  723MOL0     H97599   6.292   5.452  10.966  0.2419 -1.0824  2.6328
  723MOL0     H97600   6.239   5.627  10.973  1.1608  1.7799  0.3007
  723MOL0     H97601   6.333   5.621  11.177  1.8288  2.5726  0.7149
  723MOL0     H97602   6.475   5.670  11.092 -0.9419  2.7121 -1.5851
  723MOL0     H97603   6.593   5.271  11.158  2.0218 -0.0667 -0.8290
  723MOL0     H97604   6.320   5.450  10.373 -0.3516 -0.2175 -0.9690
  723MOL0     H97605   6.157   5.504  10.187  1.5795 -0.2566  0.4894
  724MOL0     O97606   8.045   2.264  10.888  1.2374 -0.3295 -0.2335
  724MOL0     C97607   8.051   2.377  10.835 -0.2703  0.2573 -1.2385
  724MOL0     O97608   7.952   2.476  10.837  0.1742 -0.0310 -0.7583
  724MOL0     C97609   7.846   2.461  10.926  0.8138 -0.1478  1.3545
  724MOL0     C97610   7.876   2.440  11.060 -0.0354 -0.5016  0.1751
  724MOL0     C97611   7.770   2.425  11.151 -0.8304 -0.0153 -0.1339
  724MOL0     C97612   7.638   2.432  11.112 -0.4383 -0.9821  0.0017
  724MOL0     O97613   7.545   2.419  11.211 -0.2763  0.4921 -0.1651
  724MOL0     C97614   7.414   2.355  11.177  0.3174 -0.6512  0.1476
  724MOL0     C97615   7.342   2.287  11.293 -0.0791 -0.2790 -0.6539
  724MOL0     C97616   7.245   2.391  11.362  0.8006  0.6412  0.6716
  724MOL0     C97617   7.122   2.408  11.284 -0.4698 -0.1279  0.6037
  724MOL0     C97618   6.999   2.469  11.356 -0.3571  0.4881  0.3132
  724MOL0     C97619   6.867   2.420  11.295 -0.2017  0.7509  0.8714
  724MOL0     C97620   6.745   2.489  11.356 -0.2319  0.3403  0.1279
  724MOL0     C97621   6.619   2.459  11.279 -0.1110 -0.2676 -0.3662
  724MOL0     N97622   6.510   2.541  11.337  0.2495 -0.1954 -0.4779
  724MOL0     C97623   6.386   2.543  11.271 -0.3809  0.8214 -0.0040
  724MOL0     C97624   6.324   2.652  11.316  0.0361 -0.7392 -0.6093
  724MOL0     C97625   6.186   2.694  11.284  0.2461  0.4286 -0.4009
  724MOL0     C97626   6.090   2.677  11.399  0.3143 -0.1554  0.1674
  724MOL0     C97627   6.094   2.808  11.481 -0.0648 -0.2410 -0.1068
  724MOL0     C97628   6.065   2.787  11.623 -0.2277 -0.3357 -0.4420
  724MOL0     O97629   5.934   2.717  11.634 -0.1104 -0.6330  0.7182
  724MOL0     C97630   5.821   2.797  11.646 -0.5154  0.2676  1.8243
  724MOL0     C97631   5.807   2.930  11.609 -0.2448 -1.6320  0.1984
  724MOL0     C97632   5.700   3.008  11.639  0.0815  0.2164  0.3008
  724MOL0     C97633   5.703   3.155  11.597  0.7034 -0.7567  0.2238
  724MOL0     C97634   5.587   2.947  11.693 -0.1463 -0.2453 -0.1608
  724MOL0     C97635   5.454   3.019  11.710 -0.1860  0.2368 -0.4155
  724MOL0     O97636   5.353   2.955  11.650  0.3129  0.3668 -0.1983
  724MOL0     C97637   5.228   3.003  11.677  0.8253  0.1924 -0.0031
  724MOL0     C97638   5.158   2.941  11.782  0.9176 -0.4233  0.3564
  724MOL0     C97639   5.034   3.000  11.825 -0.7264  0.6824 -0.3131
  724MOL0     C97640   4.982   3.119  11.767 -0.0113  0.3441  0.2785
  724MOL0     O97641   4.856   3.174  11.803  0.5435 -0.1450 -0.8629
  724MOL0     C97642   4.770   3.076  11.875  0.8709 -0.3984  0.5223
  724MOL0     C97643   4.638   3.155  11.909  0.1059  0.0803 -0.9823
  724MOL0     C97644   4.533   3.156  11.788 -0.0818 -0.3955 -0.9006
  724MOL0     C97645   4.408   3.221  11.858 -0.3366  0.3908 -0.6558
  724MOL0     C97646   4.307   3.279  11.769  0.2819 -0.1461  0.0250
  724MOL0     C97647   4.170   3.333  11.833 -1.1175 -0.2189 -0.1860
  724MOL0     C97648   4.067   3.218  11.890 -0.4480 -0.4875 -0.3537
  724MOL0     C97649   3.944   3.220  11.798 -0.7365 -0.1811  0.6013
  724MOL0    Cl97650   3.848   3.087  11.856 -0.8223 -0.1012 -0.2623
  724MOL0     C97651   5.064   3.177  11.663 -0.2216 -0.5086 -0.5020
  724MOL0     C97652   5.172   3.112  11.613 -0.5133 -0.5007  0.0596
  724MOL0     O97653   5.444   3.120  11.775 -0.1170 -0.0985 -0.3214
  724MOL0     C97654   5.596   2.815  11.730 -0.7432  0.9213 -0.2016
  724MOL0     C97655   5.712   2.737  11.699 -0.9556  0.1635  0.4026
  724MOL0     N97656   6.404   2.717  11.401  0.0276 -1.6073 -0.0054
  724MOL0     N97657   6.511   2.654  11.410 -1.0195 -0.0178  0.5919
  724MOL0     C97658   7.612   2.463  10.977  0.2951 -0.6975  0.1937
  724MOL0     C97659   7.718   2.485  10.885  0.7753 -0.3524  0.1612
  724MOL0     C97660   8.160   2.399  10.744 -0.1637 -0.5293  0.1419
  724MOL0     C97661   8.204   2.527  10.697 -0.0539  0.5023  0.0677
  724MOL0     C97662   8.317   2.533  10.615  0.4887 -0.0218 -0.6070
  724MOL0     C97663   8.389   2.423  10.574 -0.4053  0.1639 -0.2515
  724MOL0     O97664   8.496   2.447  10.492 -0.1231  0.4368  0.5001
  724MOL0     C97665   8.544   2.331  10.415  0.3807 -0.3189 -0.4554
  724MOL0     C97666   8.646   2.389  10.316  0.0948 -0.8097  0.0827
  724MOL0     C97667   8.761   2.296  10.274 -0.2023 -0.9488 -0.4653
  724MOL0     C97668   8.846   2.255  10.394 -0.3084 -0.2589  0.0015
  724MOL0     C97669   8.977   2.206  10.349  0.8354  0.8239 -0.0277
  724MOL0     C97670   9.087   2.187  10.304 -0.0901 -0.1677  0.0093
  724MOL0     C97671   8.345   2.298  10.617 -0.4920  0.7036 -0.1564
  724MOL0     C97672   8.236   2.291  10.699  0.0991  1.0147 -1.1891
  724MOL0     H97673   7.981   2.434  11.085  0.8471 -2.0367 -3.2797
  724MOL0     H97674   7.786   2.395  11.254 -1.6327 -1.3874 -0.3968
  724MOL0     H97675   7.343   2.430  11.143  1.1454 -0.5614 -1.4681
  724MOL0     H97676   7.440   2.278  11.104  4.8071  0.7196  0.0132
  724MOL0     H97677   7.283   2.205  11.252  0.2688  0.8680 -3.7190
  724MOL0     H97678   7.413   2.260  11.372  0.4222  2.4740 -0.0363
  724MOL0     H97679   7.226   2.351  11.462  2.3697  0.8471  1.0707
  724MOL0     H97680   7.296   2.486  11.378  1.3326  0.8352 -1.7914
  724MOL0     H97681   7.139   2.492  11.215 -2.0767  0.4496  0.8642
  724MOL0     H97682   7.084   2.317  11.238 -2.1688  2.1337 -2.9806
  724MOL0     H97683   7.003   2.448  11.463  3.0732  0.8268  0.3702
  724MOL0     H97684   6.999   2.578  11.345  0.3308  0.3373 -1.6758
  724MOL0     H97685   6.858   2.430  11.187 -3.2336  0.1291  0.9575
  724MOL0     H97686   6.863   2.313  11.316 -0.5362  0.8554  1.3710
  724MOL0     H97687   6.729   2.445  11.455 -0.7472  0.6361  0.1785
  724MOL0     H97688   6.769   2.596  11.357  1.8902 -0.0607  2.4146
  724MOL0     H97689   6.602   2.351  11.275 -2.2972 -0.0969  2.1075
  724MOL0     H97690   6.626   2.507  11.181  3.0014  0.5589  0.1387
  724MOL0     H97691   6.352   2.465  11.203 -1.3382 -0.3630  1.7599
  724MOL0     H97692   6.193   2.796  11.245  0.5759 -0.4625 -2.8486
  724MOL0     H97693   6.142   2.622  11.215  1.3840 -0.8875  0.1982
  724MOL0     H97694   6.128   2.599  11.465  3.4363  2.7744  2.1918
  724MOL0     H97695   5.995   2.649  11.352 -0.3019 -0.6379  1.6202
  724MOL0     H97696   6.022   2.880  11.442 -2.5154 -1.2527  2.2404
  724MOL0     H97697   6.198   2.840  11.472 -0.1926  0.4473  0.7999
  724MOL0     H97698   6.064   2.884  11.672  1.3609 -1.2432  1.4914
  724MOL0     H97699   6.148   2.732  11.669  0.4563 -1.3718 -2.7460
  724MOL0     H97700   5.897   2.977  11.572  0.7241 -4.5003 -1.4040
  724MOL0     H97701   5.689   3.159  11.489 -1.5597  4.8918  0.3637
  724MOL0     H97702   5.622   3.216  11.638 -0.8184 -0.8333 -2.4048
  724MOL0     H97703   5.787   3.221  11.622 -1.4718  1.5280  2.0271
  724MOL0     H97704   5.196   2.848  11.821 -0.8548 -2.2889 -2.0839
  724MOL0     H97705   4.998   2.956  11.917  0.7957  0.5503  0.2470
  724MOL0     H97706   4.732   2.987  11.823 -3.7494  0.5747  1.7604
  724MOL0     H97707   4.823   3.042  11.965 -1.2692 -0.7629  1.7090
  724MOL0     H97708   4.598   3.110  11.999 -1.5274  1.4001 -1.0026
  724MOL0     H97709   4.660   3.260  11.931 -0.0110 -0.6598  3.5912
  724MOL0     H97710   4.511   3.056  11.750  0.4401  0.5067 -3.8704
  724MOL0     H97711   4.578   3.209  11.704  0.6121  0.7028  0.1437
  724MOL0     H97712   4.377   3.126  11.903 -0.7391  0.7261 -0.2242
  724MOL0     H97713   4.448   3.289  11.934 -1.1655 -1.1662  1.2621
  724MOL0     H97714   4.295   3.202  11.692  2.1811 -0.4331 -0.0431
  724MOL0     H97715   4.353   3.371  11.731  1.5905  0.1881  2.2297
  724MOL0     H97716   4.197   3.400  11.915 -0.2816 -0.6324 -0.1125
  724MOL0     H97717   4.135   3.399  11.753  0.4616 -2.1278 -2.5701
  724MOL0     H97718   4.031   3.228  11.993  1.2296  0.1265  0.2224
  724MOL0     H97719   4.128   3.127  11.882  0.5450  0.3036 -3.1587
  724MOL0     H97720   3.967   3.215  11.691 -0.3642 -1.7871  0.7341
  724MOL0     H97721   3.890   3.313  11.818 -1.2545 -0.5938  1.1489
  724MOL0     H97722   5.034   3.269  11.614  0.6914 -0.4652 -0.9988
  724MOL0     H97723   5.234   3.156  11.536  1.4057  0.0648  1.8366
  724MOL0     H97724   5.525   2.753  11.782 -1.1210 -1.4069 -3.1982
  724MOL0     H97725   5.727   2.633  11.728  2.7473  0.4357  0.0306
  724MOL0     H97726   7.506   2.476  10.958 -0.3438 -1.6355  2.7239
  724MOL0     H97727   7.690   2.495  10.781  0.3156  0.8734  0.3845
  724MOL0     H97728   8.164   2.621  10.734  0.0513  0.4031  0.4354
  724MOL0     H97729   8.358   2.630  10.588  1.7975 -0.2643  0.3653
  724MOL0     H97730   8.600   2.258  10.474  0.8440  0.0976 -0.3663
  724MOL0     H97731   8.464   2.274  10.367  1.1161  0.2586 -2.4775
  724MOL0     H97732   8.681   2.483  10.358  2.3683 -1.6170  0.1411
  724MOL0     H97733   8.594   2.415  10.223  0.8861  0.2157 -0.0983
  724MOL0     H97734   8.829   2.352  10.210 -1.6379  2.9875  1.1078
  724MOL0     H97735   8.731   2.213  10.210  3.0287  0.3118 -3.9940
  724MOL0     H97736   8.796   2.171  10.442  1.2757 -1.4985 -0.4495
  724MOL0     H97737   8.864   2.343  10.456 -2.1835  0.1278  0.0615
  724MOL0     H97738   9.187   2.186  10.264 -1.1985  1.2817 -3.2005
  724MOL0     H97739   8.400   2.206  10.597  0.1441  0.4473  2.3988
  724MOL0     H97740   8.194   2.193  10.721  1.9287  0.3771 -0.3715
  725MOL0     O97741   2.552  11.122   5.612  0.3038  0.8705 -0.1415
  725MOL0     C97742   2.637  11.102   5.524 -0.6061 -0.6444 -0.0293
  725MOL0     O97743   2.617  11.048   5.402 -0.6164 -0.3404 -0.4050
  725MOL0     C97744   2.491  10.999   5.395  0.0306  0.4498 -0.3324
  725MOL0     C97745   2.372  11.073   5.392  1.0656  0.6082  0.4137
  725MOL0     C97746   2.249  11.003   5.376 -0.9417  0.2387  0.1616
  725MOL0     C97747   2.247  10.865   5.371 -0.4118 -0.0064  0.0721
  725MOL0     O97748   2.131  10.799   5.336 -0.0662  0.6498  0.5000
  725MOL0     C97749   2.081  10.701   5.436  0.0817 -0.0436 -0.2593
  725MOL0     C97750   1.942  10.653   5.405 -0.1659 -0.6745 -0.0957
  725MOL0     C97751   1.927  10.583   5.267 -0.5347  0.1996 -0.2817
  725MOL0     C97752   1.779  10.554   5.236 -0.2688 -0.2032  0.6005
  725MOL0     C97753   1.763  10.521   5.093 -0.6664  0.2589  0.2500
  725MOL0     C97754   1.880  10.440   5.023  0.5943 -0.2356  0.7742
  725MOL0     C97755   1.843  10.413   4.876  0.0422 -0.4689 -0.1349
  725MOL0     C97756   1.937  10.314   4.811 -0.4896  0.0219 -0.1066
  725MOL0     N97757   2.081  10.357   4.817 -0.5971  0.0691  0.2583
  725MOL0     C97758   2.146  10.468   4.762  0.1338  0.1279 -0.4726
  725MOL0     C97759   2.263  10.474   4.829 -1.1243  0.1076  0.1256
  725MOL0     C97760   2.377  10.573   4.803  0.2643  0.5033 -0.3765
  725MOL0     C97761   2.479  10.575   4.924 -0.3411  1.1968  0.8959
  725MOL0     C97762   2.595  10.671   4.887 -0.1907 -0.3671  0.4939
  725MOL0     C97763   2.693  10.689   5.003  0.1749  0.2327 -0.1756
  725MOL0     O97764   2.787  10.794   4.970 -1.2022  0.0633 -0.0835
  725MOL0     C97765   2.901  10.809   5.048 -0.0683 -0.3280 -0.1593
  725MOL0     C97766   2.922  10.749   5.171  0.4580  0.0665 -0.9005
  725MOL0     C97767   3.042  10.762   5.243 -0.3665 -0.3755 -0.2565
  725MOL0     C97768   3.037  10.683   5.370  0.1378  0.2642  0.4364
  725MOL0     C97769   3.144  10.851   5.193  0.2082  0.8728  0.6800
  725MOL0     C97770   3.271  10.873   5.257  0.0875  0.6852 -1.1061
  725MOL0     O97771   3.266  10.861   5.390 -0.1702 -0.5940  0.0758
  725MOL0     C97772   3.392  10.853   5.453 -0.4952 -0.4214  1.0708
  725MOL0     C97773   3.431  10.954   5.531 -0.3621 -0.4972  0.1427
  725MOL0     C97774   3.559  10.956   5.587 -0.4476 -0.5865  0.4144
  725MOL0     C97775   3.643  10.843   5.575 -0.3660  0.6134  0.0246
  725MOL0     O97776   3.764  10.843   5.640 -1.2214 -0.8529 -0.2638
  725MOL0     C97777   3.876  10.868   5.552  0.4244 -0.3364 -0.0394
  725MOL0     C97778   3.961  10.975   5.610 -0.7566 -0.1066  0.6567
  725MOL0     C97779   3.925  11.106   5.692  0.1124 -0.4963  0.5790
  725MOL0     C97780   4.043  11.193   5.709  0.3930  0.2684 -0.2116
  725MOL0     C97781   4.091  11.179   5.861 -0.1615 -0.6161  0.8528
  725MOL0     C97782   4.198  11.282   5.914 -0.0684 -0.0503 -0.7335
  725MOL0     C97783   4.211  11.287   6.066  0.8359 -0.9284  0.4863
  725MOL0     C97784   4.258  11.162   6.128 -0.5235  1.2872 -0.2450
  725MOL0    Cl97785   4.121  11.043   6.128  0.1215  0.1455  0.1967
  725MOL0     C97786   3.605  10.740   5.488  0.3892  0.6141 -0.7426
  725MOL0     C97787   3.481  10.741   5.422 -0.0053 -0.4730  0.3375
  725MOL0     O97788   3.372  10.894   5.182  0.0707 -0.4894 -1.1183
  725MOL0     C97789   3.128  10.913   5.060 -0.0377 -0.1029 -0.3306
  725MOL0     C97790   3.005  10.879   4.993 -0.2597 -0.5232 -0.3176
  725MOL0     N97791   2.269  10.357   4.907 -0.3439 -0.0680 -0.6035
  725MOL0     N97792   2.160  10.300   4.904 -0.6195 -0.0541  0.1699
  725MOL0     C97793   2.370  10.795   5.388 -0.0070  0.4345 -1.2339
  725MOL0     C97794   2.494  10.859   5.393  1.2398  1.0822 -0.3579
  725MOL0     C97795   2.780  11.130   5.564 -0.4556 -0.5663 -0.0012
  725MOL0     C97796   2.815  11.219   5.675  0.2233 -1.1127  0.1763
  725MOL0     C97797   2.946  11.264   5.702 -0.0570  0.7289 -0.2973
  725MOL0     C97798   3.058  11.198   5.640  0.9131 -0.7656 -1.2279
  725MOL0     O97799   3.188  11.215   5.671 -0.0349  0.2794  1.0706
  725MOL0     C97800   3.231  11.324   5.752  1.2611 -0.0269 -0.4579
  725MOL0     C97801   3.384  11.322   5.744  0.1945  0.0883 -0.2995
  725MOL0     C97802   3.444  11.231   5.855  0.4652 -0.2131  1.0684
  725MOL0     C97803   3.597  11.229   5.869 -0.3646  0.2581 -0.3647
  725MOL0     C97804   3.652  11.149   5.975  0.3972  1.5061 -0.2113
  725MOL0     C97805   3.707  11.086   6.063  0.3982  0.3681 -0.0617
  725MOL0     C97806   3.024  11.108   5.542 -0.3084 -0.2591  0.8733
  725MOL0     C97807   2.890  11.079   5.496 -0.6694  0.9995 -0.9650
  725MOL0     H97808   2.369  11.180   5.406  1.6026  0.6432  0.2953
  725MOL0     H97809   2.158  11.063   5.375 -0.6452  0.7021  0.5400
  725MOL0     H97810   2.143  10.611   5.439 -0.0494 -0.1421 -0.4672
  725MOL0     H97811   2.102  10.741   5.536  1.0854 -1.7407  0.2379
  725MOL0     H97812   1.926  10.584   5.489  2.3326 -2.3882 -0.8965
  725MOL0     H97813   1.871  10.733   5.430  1.7488  1.2845 -0.6146
  725MOL0     H97814   1.975  10.649   5.195  0.1100 -0.5019 -0.4966
  725MOL0     H97815   1.988  10.495   5.286 -1.2896  0.3065  3.4975
  725MOL0     H97816   1.748  10.464   5.291 -0.6255 -0.7939 -0.5160
  725MOL0     H97817   1.721  10.638   5.273  1.4483  0.7295  1.2577
  725MOL0     H97818   1.666  10.470   5.096 -0.0759 -0.8527  0.7805
  725MOL0     H97819   1.749  10.608   5.029  1.3523 -0.1831 -0.8649
  725MOL0     H97820   1.974  10.495   5.031 -0.6610  2.0277  0.8961
  725MOL0     H97821   1.892  10.349   5.082 -0.4968  1.2538  3.4648
  725MOL0     H97822   1.745  10.366   4.885 -0.2251  0.0666 -0.2455
  725MOL0     H97823   1.845  10.511   4.828  1.6644 -1.1253 -1.5516
  725MOL0     H97824   1.912  10.294   4.707  0.3709 -2.1891  0.0506
  725MOL0     H97825   1.925  10.216   4.858 -1.6634  0.2443  0.0812
  725MOL0     H97826   2.098  10.542   4.699 -4.8364 -1.0315  1.5018
  725MOL0     H97827   2.407  10.545   4.701 -4.3020 -0.2060 -1.7387
  725MOL0     H97828   2.326  10.669   4.795 -3.3849 -1.4579 -3.4863
  725MOL0     H97829   2.506  10.475   4.957 -1.9644 -0.4285 -2.2742
  725MOL0     H97830   2.429  10.614   5.013 -0.5147  0.8479  0.9505
  725MOL0     H97831   2.557  10.762   4.840  0.0485 -1.5870 -2.2309
  725MOL0     H97832   2.643  10.619   4.804  2.7944  0.3848  1.6260
  725MOL0     H97833   2.752  10.599   5.022 -1.4109 -1.4003 -2.5062
  725MOL0     H97834   2.635  10.716   5.092  1.8108 -2.9744  2.0934
  725MOL0     H97835   2.828  10.712   5.211 -0.7753  2.5841 -1.2875
  725MOL0     H97836   2.955  10.611   5.370 -1.0557  1.5031 -1.9268
  725MOL0     H97837   3.133  10.633   5.391  0.8253  1.3477 -0.0316
  725MOL0     H97838   3.025  10.749   5.456  0.3559  1.1441 -0.1884
  725MOL0     H97839   3.355  11.030   5.548  0.2151  0.3969 -1.1386
  725MOL0     H97840   3.597  11.041   5.642  4.4990 -1.8330 -0.6467
  725MOL0     H97841   3.949  10.788   5.543  0.2256 -0.5455  0.1910
  725MOL0     H97842   3.850  10.908   5.454  0.9031  1.4040  0.5130
  725MOL0     H97843   4.053  10.929   5.648  0.9189  0.5127 -2.2568
  725MOL0     H97844   4.002  11.022   5.519  0.5180  0.8213  1.6598
  725MOL0     H97845   3.874  11.086   5.786 -2.0840 -0.1688 -0.4656
  725MOL0     H97846   3.850  11.158   5.631 -1.1341 -1.5157  1.1947
  725MOL0     H97847   4.118  11.171   5.633 -1.8451  1.8884 -3.0787
  725MOL0     H97848   4.010  11.297   5.700  1.2000  0.5337 -0.1325
  725MOL0     H97849   4.119  11.073   5.868 -1.4043 -0.9520  1.1418
  725MOL0     H97850   3.999  11.194   5.918 -0.8323 -0.3471 -0.2719
  725MOL0     H97851   4.299  11.270   5.874  0.9386  1.4541  1.2067
  725MOL0     H97852   4.165  11.383   5.887  1.8543  1.1134  1.0039
  725MOL0     H97853   4.112  11.315   6.104  0.7118  1.0888 -1.1448
  725MOL0     H97854   4.275  11.372   6.091 -1.7784  1.0019  1.1473
  725MOL0     H97855   4.273  11.177   6.235 -0.8117  0.2817 -0.0531
  725MOL0     H97856   4.350  11.121   6.084 -1.7363 -0.3612 -1.3990
  725MOL0     H97857   3.666  10.650   5.476 -0.6503 -0.1822 -0.2040
  725MOL0     H97858   3.448  10.659   5.359  0.4772  0.7488 -1.6084
  725MOL0     H97859   3.195  10.985   5.015  0.3658 -0.2961 -0.0378
  725MOL0     H97860   2.999  10.933   4.899 -0.1957 -2.3462 -1.4292
  725MOL0     H97861   2.370  10.686   5.388  0.1873  0.4340 -1.3954
  725MOL0     H97862   2.585  10.799   5.392  0.5993 -0.0187  1.7415
  725MOL0     H97863   2.738  11.253   5.743  0.4996 -0.1308  0.0099
  725MOL0     H97864   2.961  11.341   5.777  2.2341  0.9161 -0.8803
  725MOL0     H97865   3.193  11.417   5.709  2.0734  0.5974  0.1596
  725MOL0     H97866   3.188  11.321   5.852  1.5250 -0.3298 -0.3545
  725MOL0     H97867   3.431  11.421   5.739  0.1955  0.2318  1.6921
  725MOL0     H97868   3.414  11.272   5.651 -1.2664  2.1336 -1.9622
  725MOL0     H97869   3.404  11.130   5.842 -0.0195  0.0372  0.6163
  725MOL0     H97870   3.415  11.266   5.955  1.4419  0.1428  1.2376
  725MOL0     H97871   3.604  11.336   5.892 -2.5629  0.2643  0.5890
  725MOL0     H97872   3.655  11.212   5.778  0.9440  3.1630 -0.2031
  725MOL0     H97873   3.762  11.047   6.146  3.0024  2.0691 -0.8780
  725MOL0     H97874   3.110  11.060   5.497 -0.0121 -0.2154  1.3853
  725MOL0     H97875   2.873  11.016   5.410 -0.5337 -0.3694 -0.0339
  726MOL0     O97876  10.561   3.099   3.104  0.3631 -0.3746 -0.7039
  726MOL0     C97877  10.583   3.193   3.041 -0.3483 -0.3477  0.6419
  726MOL0     O97878  10.547   3.321   3.069 -0.5228 -0.2862  0.6768
  726MOL0     C97879  10.470   3.356   3.182  0.1974 -0.3665  0.4698
  726MOL0     C97880  10.347   3.290   3.214 -0.9114  0.0567  0.3535
  726MOL0     C97881  10.264   3.357   3.300 -0.0508  0.2266 -0.0328
  726MOL0     C97882  10.288   3.492   3.344  0.5069  0.5662 -0.0870
  726MOL0     O97883  10.201   3.565   3.413  0.3594 -0.5963 -0.0565
  726MOL0     C97884  10.070   3.533   3.419  0.0116  0.6376 -0.1838
  726MOL0     C97885   9.989   3.649   3.485 -0.1035 -0.3933 -0.4597
  726MOL0     C97886   9.840   3.650   3.448  0.3188 -0.2011  0.0744
  726MOL0     C97887   9.760   3.715   3.554  0.6281  0.4419  0.5915
  726MOL0     C97888   9.608   3.709   3.522  0.1026  0.4746  0.3733
  726MOL0     C97889   9.534   3.781   3.637 -0.2756 -0.1982  0.1395
  726MOL0     C97890   9.395   3.834   3.596 -0.1910 -0.2810  0.0141
  726MOL0     C97891   9.293   3.722   3.581  0.7212 -0.1567 -0.5765
  726MOL0     N97892   9.185   3.777   3.495 -0.1563  0.8263  0.8904
  726MOL0     C97893   9.090   3.871   3.538 -0.1795  0.5935 -0.1753
  726MOL0     C97894   9.003   3.876   3.442 -0.3666 -1.0508 -0.2618
  726MOL0     C97895   8.885   3.963   3.449 -0.0674  0.1825 -0.2043
  726MOL0     C97896   8.780   3.933   3.341  0.5520  0.1759  0.4802
  726MOL0     C97897   8.662   4.031   3.349 -0.0302  0.0662 -0.2902
  726MOL0     C97898   8.554   3.977   3.447  0.6373 -0.1180 -0.2934
  726MOL0     O97899   8.456   4.078   3.479  0.3842  0.4849  0.3281
  726MOL0     C97900   8.339   4.025   3.519 -0.2426 -0.5391 -0.2730
  726MOL0     C97901   8.317   3.902   3.570  0.6763  0.6218 -0.0257
  726MOL0     C97902   8.189   3.855   3.608 -0.0585 -0.2460 -0.2961
  726MOL0     C97903   8.179   3.717   3.672 -0.3332 -1.3183 -0.1800
  726MOL0     C97904   8.075   3.938   3.606 -0.2662 -0.6906  0.4899
  726MOL0     C97905   7.938   3.894   3.643  0.3574  0.3153 -0.3130
  726MOL0     O97906   7.852   3.994   3.664 -0.8528  0.0730  0.6454
  726MOL0     C97907   7.719   3.986   3.691 -0.2230 -0.8417 -0.0395
  726MOL0     C97908   7.673   4.064   3.799  0.0057 -0.2846 -0.2604
  726MOL0     C97909   7.537   4.061   3.827  0.2353 -0.0175 -0.1339
  726MOL0     C97910   7.446   3.964   3.772 -0.3355 -0.1319 -0.1391
  726MOL0     O97911   7.322   3.932   3.815  0.2193 -0.5765 -0.2025
  726MOL0     C97912   7.261   4.021   3.910 -0.6845 -0.4634  0.0626
  726MOL0     C97913   7.195   4.153   3.859 -0.7690  1.1672  0.0800
  726MOL0     C97914   7.078   4.120   3.759 -0.0355 -0.4083  1.0221
  726MOL0     C97915   7.001   4.246   3.723 -1.0057  1.2814 -1.5929
  726MOL0     C97916   7.093   4.355   3.676 -0.4320 -1.0808  0.2342
  726MOL0     C97917   7.168   4.342   3.546 -0.2217  0.3510 -0.7741
  726MOL0     C97918   7.285   4.453   3.552  0.7106  0.4595 -0.5846
  726MOL0     C97919   7.351   4.479   3.423 -0.0277  0.5751 -1.1337
  726MOL0    Cl97920   7.243   4.537   3.295  0.1766  0.1258  0.0660
  726MOL0     C97921   7.498   3.885   3.674 -0.1359 -0.1715 -0.5106
  726MOL0     C97922   7.627   3.904   3.628 -0.8961  1.2879 -0.5919
  726MOL0     O97923   7.901   3.777   3.624 -0.6989 -0.2143 -0.1630
  726MOL0     C97924   8.099   4.072   3.565 -0.1954 -0.8649 -0.0553
  726MOL0     C97925   8.227   4.110   3.510  0.6110 -1.0812  0.1864
  726MOL0     N97926   9.051   3.798   3.339  0.0787 -0.6840 -0.7346
  726MOL0     N97927   9.157   3.735   3.368  0.2049 -0.7629 -0.1011
  726MOL0     C97928  10.412   3.537   3.325  0.4137  0.4734 -0.2339
  726MOL0     C97929  10.503   3.479   3.237  0.2150  0.0426  1.0771
  726MOL0     C97930  10.670   3.168   2.925  0.9087 -0.6426 -0.5799
  726MOL0     C97931  10.670   3.257   2.822 -0.1357  0.6966 -0.5927
  726MOL0     C97932  10.745   3.233   2.706  0.0355 -0.0975  1.0330
  726MOL0     C97933  10.833   3.131   2.697  0.0705  0.3727  0.1585
  726MOL0     O97934  10.913   3.129   2.586  0.6220  0.0332 -0.2121
  726MOL0     C97935  11.041   3.057   2.584  0.6020 -0.0934  0.2268
  726MOL0     C97936  11.152   3.132   2.504  0.0435 -1.1240  0.0810
  726MOL0     C97937  11.224   3.247   2.574  0.4150 -0.2846  0.4468
  726MOL0     C97938  11.344   3.303   2.487 -0.0840  0.5741 -1.4527
  726MOL0     C97939  11.451   3.370   2.568  0.1234  0.3912  0.9530
  726MOL0     C97940  11.528   3.441   2.631 -0.7086  1.0134 -0.2550
  726MOL0     C97941  10.826   3.034   2.798  0.5592  0.4783 -0.1786
  726MOL0     C97942  10.747   3.054   2.912  0.1674 -0.4195  0.5024
  726MOL0     H97943  10.313   3.196   3.171 -2.4784  0.3303  0.9102
  726MOL0     H97944  10.173   3.307   3.331  0.6837 -0.4894  1.0454
  726MOL0     H97945  10.037   3.521   3.316  0.4764  2.3871 -0.5657
  726MOL0     H97946  10.050   3.439   3.472 -1.5551  0.7441 -0.5206
  726MOL0     H97947  10.011   3.644   3.592 -0.7407  2.0696 -0.1634
  726MOL0     H97948  10.041   3.735   3.442 -1.5586 -0.0435 -1.6179
  726MOL0     H97949   9.833   3.700   3.351  2.3731  2.1841  1.0132
  726MOL0     H97950   9.797   3.550   3.448  2.6160 -1.2634  1.8160
  726MOL0     H97951   9.785   3.680   3.654  2.7952  0.4983  0.1235
  726MOL0     H97952   9.789   3.820   3.546  2.5041 -0.0008  1.2852
  726MOL0     H97953   9.593   3.756   3.424  0.5179 -1.3612 -0.6239
  726MOL0     H97954   9.576   3.606   3.505  1.7983  0.1629 -1.3017
  726MOL0     H97955   9.533   3.713   3.723  2.1525  0.6382  0.8962
  726MOL0     H97956   9.592   3.865   3.674  1.0353 -0.6366 -0.8443
  726MOL0     H97957   9.358   3.899   3.676 -0.7379  0.7080 -1.0249
  726MOL0     H97958   9.404   3.897   3.508 -1.4791  1.9984  1.4258
  726MOL0     H97959   9.246   3.692   3.674 -0.8630  1.8051 -0.6798
  726MOL0     H97960   9.332   3.632   3.532  0.0208 -0.2087 -1.0397
  726MOL0     H97961   9.094   3.925   3.632  1.8901  2.7820 -1.4242
  726MOL0     H97962   8.832   3.962   3.545 -2.9604  2.9757 -1.5614
  726MOL0     H97963   8.913   4.067   3.434  3.3999 -0.5954  0.1539
  726MOL0     H97964   8.749   3.828   3.337 -1.0162  0.5829  1.2845
  726MOL0     H97965   8.821   3.952   3.241 -0.3030 -0.4660 -0.0093
  726MOL0     H97966   8.622   4.042   3.248 -0.1127 -1.9153 -0.5091
  726MOL0     H97967   8.700   4.125   3.391  1.7821 -0.6471 -0.2379
  726MOL0     H97968   8.597   3.936   3.539  3.4276 -2.3167 -2.4054
  726MOL0     H97969   8.514   3.892   3.391 -1.0146 -1.3549  2.5671
  726MOL0     H97970   8.392   3.826   3.589  0.3260  0.2909  0.0408
  726MOL0     H97971   8.272   3.661   3.674 -0.6095 -1.8637 -1.5048
  726MOL0     H97972   8.146   3.718   3.777  2.8219 -3.7648  0.9806
  726MOL0     H97973   8.099   3.666   3.617 -1.5179 -0.6942  0.8827
  726MOL0     H97974   7.741   4.139   3.836 -2.7184  2.5028 -0.4670
  726MOL0     H97975   7.502   4.130   3.904  0.6997  1.8628 -1.5501
  726MOL0     H97976   7.180   3.970   3.962  0.1912 -1.5211  0.4229
  726MOL0     H97977   7.339   4.055   3.979  0.4397  0.9740 -1.8084
  726MOL0     H97978   7.154   4.201   3.948 -3.6817 -0.5769 -0.2064
  726MOL0     H97979   7.271   4.210   3.804 -1.9245  1.3245 -1.4425
  726MOL0     H97980   7.009   4.050   3.807 -0.7375 -1.3731 -1.2354
  726MOL0     H97981   7.121   4.073   3.670 -0.5240  0.0622  0.5365
  726MOL0     H97982   6.923   4.223   3.649 -1.5341 -2.3326 -0.1614
  726MOL0     H97983   6.949   4.286   3.810  0.1681 -0.5308  0.0103
  726MOL0     H97984   7.162   4.386   3.755 -1.2873 -0.9558  0.9574
  726MOL0     H97985   7.026   4.442   3.673  0.1734 -0.3539  3.6125
  726MOL0     H97986   7.203   4.239   3.537 -0.2644  0.3776 -1.2554
  726MOL0     H97987   7.096   4.347   3.464  0.9957 -1.2464 -2.0115
  726MOL0     H97988   7.366   4.410   3.611  0.4459 -1.0126 -1.2530
  726MOL0     H97989   7.255   4.545   3.603  2.5537  0.6855  0.1838
  726MOL0     H97990   7.393   4.381   3.398 -0.2123 -0.0251  0.7505
  726MOL0     H97991   7.439   4.542   3.433  1.2877 -1.2051 -0.9818
  726MOL0     H97992   7.434   3.805   3.639  0.7011 -0.8127 -0.5982
  726MOL0     H97993   7.662   3.835   3.552 -0.1023  1.0147  0.0132
  726MOL0     H97994   8.013   4.137   3.565  1.2864  1.2006  0.5089
  726MOL0     H97995   8.236   4.207   3.462 -0.3760 -2.3487 -2.8241
  726MOL0     H97996  10.449   3.620   3.384 -0.1120 -0.5878  1.6568
  726MOL0     H97997  10.605   3.511   3.221  1.1431 -2.3280  1.7789
  726MOL0     H97998  10.620   3.353   2.819  1.2382  1.4106 -2.1544
  726MOL0     H97999  10.744   3.305   2.625  0.3433 -2.6016 -1.3211
  726MOL0     H98000  11.071   3.038   2.688 -0.9944  0.0366  0.7349
  726MOL0     H98001  11.021   2.956   2.548 -0.7194  0.9162 -2.1413
  726MOL0     H98002  11.106   3.173   2.413 -1.0323  0.9760  1.4691
  726MOL0     H98003  11.234   3.068   2.471 -1.0722 -1.8232 -1.4641
  726MOL0     H98004  11.270   3.207   2.665  1.9361 -1.4952 -0.8042
  726MOL0     H98005  11.154   3.329   2.591 -0.7035 -0.8320 -1.2857
  726MOL0     H98006  11.295   3.376   2.422 -1.6283  0.5385 -0.3863
  726MOL0     H98007  11.387   3.232   2.416 -0.7850 -0.4412 -0.8773
  726MOL0     H98008  11.596   3.483   2.701 -0.9702  0.7516  0.1591
  726MOL0     H98009  10.889   2.946   2.800 -1.7696 -1.3229 -0.9551
  726MOL0     H98010  10.739   2.978   2.988 -3.9375 -1.9629 -1.1943
  727MOL0     O98011   1.968   2.295   5.324  0.2915  0.0415  0.4020
  727MOL0     C98012   1.971   2.356   5.433  0.7150 -0.8063  0.5060
  727MOL0     O98013   1.913   2.479   5.456  0.2113  0.0518 -0.3653
  727MOL0     C98014   1.801   2.507   5.383 -0.0041 -0.1314 -0.5727
  727MOL0     C98015   1.779   2.634   5.331  0.1363 -0.8984 -0.7805
  727MOL0     C98016   1.673   2.659   5.248 -0.9322 -0.3340  0.5001
  727MOL0     C98017   1.582   2.555   5.220 -0.3522 -0.1610  1.2544
  727MOL0     O98018   1.475   2.570   5.133  0.0770  0.4612  0.2479
  727MOL0     C98019   1.456   2.702   5.077 -0.4619 -0.3475 -0.2826
  727MOL0     C98020   1.325   2.720   4.988 -0.3246 -0.5569  0.4729
  727MOL0     C98021   1.316   2.620   4.867  0.6041 -0.3950  0.3046
  727MOL0     C98022   1.187   2.665   4.789 -0.4360 -0.0948  0.1158
  727MOL0     C98023   1.128   2.563   4.695  0.5822 -0.4432  0.6195
  727MOL0     C98024   1.007   2.632   4.625  0.0132  0.4684 -0.2762
  727MOL0     C98025   0.945   2.532   4.532  0.3878  0.5154 -0.2052
  727MOL0     C98026   0.812   2.592   4.476 -0.4562  0.3738 -0.0126
  727MOL0     N98027   0.744   2.498   4.386 -0.1951 -0.1262  0.4831
  727MOL0     C98028   0.648   2.530   4.296 -0.8019 -0.4866  0.4689
  727MOL0     C98029   0.633   2.419   4.213 -0.0761  0.2181 -0.4528
  727MOL0     C98030   0.534   2.412   4.103 -1.0573 -0.2806 -0.0428
  727MOL0     C98031   0.599   2.381   3.957  0.5697 -0.1702  0.0012
  727MOL0     C98032   0.682   2.250   3.955 -0.9482  0.4820 -0.0391
  727MOL0     C98033   0.758   2.236   3.820  0.6679 -0.1400  0.4078
  727MOL0     O98034   0.660   2.187   3.730  0.2799 -0.8165  0.1495
  727MOL0     C98035   0.636   2.052   3.732  0.7130  0.4211  0.2538
  727MOL0     C98036   0.528   1.995   3.789  0.7930 -0.8685  0.4250
  727MOL0     C98037   0.506   1.859   3.774  0.0769 -0.2695  0.2532
  727MOL0     C98038   0.388   1.797   3.847  0.3360  0.5223  0.3522
  727MOL0     C98039   0.602   1.776   3.696  0.1054  0.3306 -0.0527
  727MOL0     C98040   0.575   1.637   3.649 -0.2766 -0.1132 -0.2883
  727MOL0     O98041   0.495   1.561   3.727 -0.1371 -0.2959  0.2917
  727MOL0     C98042   0.452   1.446   3.665 -0.7092  0.3277 -0.0932
  727MOL0     C98043   0.427   1.346   3.752 -0.4662 -0.2211 -0.2627
  727MOL0     C98044   0.365   1.229   3.710  0.2654 -1.2665  0.1476
  727MOL0     C98045   0.327   1.207   3.575  0.4628  0.5029  0.4944
  727MOL0     O98046   0.267   1.092   3.541  0.6594 -0.4745  0.0130
  727MOL0     C98047   0.144   1.047   3.604 -0.2414 -0.5451 -0.3661
  727MOL0     C98048   0.017   1.080   3.532 -0.1774 -0.1525  0.1044
  727MOL0     C98049  -0.016   0.964   3.438  0.1493 -0.6818  0.2931
  727MOL0     C98050  -0.134   1.003   3.348  0.0413 -0.4473  0.0063
  727MOL0     C98051  -0.209   0.890   3.274  0.2689  0.0233  0.6128
  727MOL0     C98052  -0.226   0.761   3.346 -0.8520 -0.8953  0.3552
  727MOL0     C98053  -0.317   0.664   3.270 -0.3418 -0.3486 -0.9494
  727MOL0     C98054  -0.370   0.576   3.376  0.5633 -0.0557 -0.5844
  727MOL0    Cl98055  -0.491   0.468   3.292  0.0305  0.1135  0.1899
  727MOL0     C98056   0.354   1.306   3.483  0.0853  0.5661  0.1648
  727MOL0     C98057   0.417   1.428   3.528  0.6092  1.0095  0.1452
  727MOL0     O98058   0.639   1.597   3.548  0.3136  0.1927 -0.2706
  727MOL0     C98059   0.711   1.839   3.640  0.1940  0.5685 -0.1575
  727MOL0     C98060   0.726   1.970   3.662  0.7640 -1.1072  1.0889
  727MOL0     N98061   0.724   2.326   4.264 -0.1062 -0.9147  0.4069
  727MOL0     N98062   0.794   2.368   4.358 -0.7469  0.0243 -0.3513
  727MOL0     C98063   1.593   2.432   5.280 -0.6654  0.5722  0.0000
  727MOL0     C98064   1.708   2.409   5.351  0.1854 -0.4420  0.0801
  727MOL0     C98065   2.052   2.301   5.535  0.2970  0.9228 -0.8877
  727MOL0     C98066   2.118   2.179   5.512  0.2591  0.0163 -0.0624
  727MOL0     C98067   2.210   2.134   5.614  0.7053  0.1124 -0.1793
  727MOL0     C98068   2.232   2.200   5.733  0.9187 -0.4686  0.9452
  727MOL0     O98069   2.319   2.155   5.830 -0.4149 -0.6080 -0.6045
  727MOL0     C98070   2.450   2.097   5.803  0.4681  0.3349 -0.1329
  727MOL0     C98071   2.448   1.949   5.824 -0.3173 -0.2402 -0.0629
  727MOL0     C98072   2.542   1.907   5.941  0.0277  0.0939  0.4877
  727MOL0     C98073   2.476   1.928   6.075 -0.4849  0.1532  0.0493
  727MOL0     C98074   2.572   1.882   6.180  0.2078 -0.3320 -0.0871
  727MOL0     C98075   2.657   1.845   6.259  0.3705  0.2441  0.0579
  727MOL0     C98076   2.149   2.307   5.757 -0.3521  0.0133 -0.6474
  727MOL0     C98077   2.061   2.363   5.663 -0.0086  0.4820 -0.3671
  727MOL0     H98078   1.852   2.702   5.373 -2.6522  1.4718  0.5157
  727MOL0     H98079   1.663   2.760   5.208 -1.6456 -0.5693  0.0574
  727MOL0     H98080   1.452   2.779   5.155  3.2637  2.2976 -2.3744
  727MOL0     H98081   1.540   2.725   5.012  0.0491 -0.4226  0.3431
  727MOL0     H98082   1.241   2.714   5.057 -0.9961  0.4406 -0.2301
  727MOL0     H98083   1.335   2.822   4.949  1.1735 -1.5669 -2.0456
  727MOL0     H98084   1.405   2.630   4.803  0.2908  1.8041  0.1547
  727MOL0     H98085   1.306   2.517   4.904  3.1979 -1.0506 -0.5758
  727MOL0     H98086   1.121   2.703   4.867  3.0777  1.7804  2.4717
  727MOL0     H98087   1.221   2.754   4.735 -0.0566 -0.8775 -0.9715
  727MOL0     H98088   1.195   2.529   4.615 -3.9713 -0.1872 -3.8446
  727MOL0     H98089   1.097   2.473   4.749  2.7607 -1.1685  0.7732
  727MOL0     H98090   0.933   2.659   4.702 -0.3228 -1.7302  0.2182
  727MOL0     H98091   1.047   2.713   4.564  0.1392  0.5382 -0.1034
  727MOL0     H98092   1.010   2.512   4.446 -0.0171 -3.7968  0.2597
  727MOL0     H98093   0.924   2.437   4.583 -0.4164 -0.2050 -1.7898
  727MOL0     H98094   0.829   2.690   4.430  1.4283  0.0675 -0.0289
  727MOL0     H98095   0.744   2.619   4.557  0.6941 -0.9182  1.4303
  727MOL0     H98096   0.609   2.631   4.294  3.2686  1.3111  0.7945
  727MOL0     H98097   0.466   2.327   4.119 -0.8121 -0.4539  0.0781
  727MOL0     H98098   0.464   2.496   4.102  0.7686  1.3418  1.3164
  727MOL0     H98099   0.657   2.462   3.912 -0.2603  0.7834  0.5989
  727MOL0     H98100   0.514   2.368   3.889 -2.8304  1.3448  3.5502
  727MOL0     H98101   0.605   2.174   3.973  1.8055 -2.3854  0.6437
  727MOL0     H98102   0.750   2.246   4.040  1.8413 -0.1612 -2.1671
  727MOL0     H98103   0.844   2.172   3.838  0.5366  0.2063  2.4565
  727MOL0     H98104   0.805   2.328   3.783 -0.6528  1.4124  2.3672
  727MOL0     H98105   0.464   2.055   3.853  1.5682 -0.2572  0.6366
  727MOL0     H98106   0.327   1.870   3.901  1.7708 -0.0446  2.9402
  727MOL0     H98107   0.326   1.750   3.771 -0.8834  0.3565  1.4137
  727MOL0     H98108   0.418   1.719   3.918 -2.4015 -0.4639  0.5202
  727MOL0     H98109   0.457   1.359   3.855  2.0307 -0.0026 -0.9543
  727MOL0     H98110   0.347   1.150   3.781  0.5021 -2.0464 -0.6426
  727MOL0     H98111   0.136   0.938   3.608 -1.0400 -0.5716 -1.9376
  727MOL0     H98112   0.144   1.086   3.707  0.7817 -2.3519  0.3568
  727MOL0     H98113  -0.059   1.069   3.610  0.6422 -1.9832  0.7035
  727MOL0     H98114   0.023   1.183   3.494  3.0633 -0.9423 -1.9568
  727MOL0     H98115  -0.045   0.874   3.493 -2.2876 -1.4997 -2.0836
  727MOL0     H98116   0.066   0.930   3.374  0.4488  1.5335 -0.5914
  727MOL0     H98117  -0.202   1.056   3.416  1.2536 -2.1101  2.7066
  727MOL0     H98118  -0.099   1.066   3.266 -0.4856  1.9036  1.4786
  727MOL0     H98119  -0.148   0.868   3.186  0.3641  2.8132 -0.1150
  727MOL0     H98120  -0.305   0.933   3.244 -0.0338 -1.0602 -0.0256
  727MOL0     H98121  -0.130   0.711   3.356 -1.1274 -1.2353  1.4426
  727MOL0     H98122  -0.262   0.795   3.444 -0.9423 -0.9182  0.3309
  727MOL0     H98123  -0.257   0.604   3.200 -0.7842 -2.5131  0.4336
  727MOL0     H98124  -0.391   0.723   3.216 -0.2308  1.4210  0.7555
  727MOL0     H98125  -0.413   0.641   3.454  6.1364  2.6339  0.7269
  727MOL0     H98126  -0.282   0.520   3.408  1.8944  1.5550 -1.2530
  727MOL0     H98127   0.347   1.296   3.375 -1.1496  1.3737  0.1526
  727MOL0     H98128   0.434   1.506   3.455 -2.1954  1.2940 -0.3180
  727MOL0     H98129   0.768   1.790   3.562  0.5330 -1.0005  1.0127
  727MOL0     H98130   0.800   2.026   3.606 -0.3130 -1.4299 -0.7356
  727MOL0     H98131   1.532   2.346   5.259 -0.4945 -0.1760  2.3249
  727MOL0     H98132   1.717   2.312   5.399 -1.9900 -0.8935 -0.3121
  727MOL0     H98133   2.103   2.126   5.419 -2.9549 -0.8502  0.8238
  727MOL0     H98134   2.260   2.039   5.598 -2.1861 -1.2015 -2.2053
  727MOL0     H98135   2.471   2.117   5.697 -0.2117  0.1029 -0.3162
  727MOL0     H98136   2.527   2.151   5.860  1.1493 -2.1363  1.3985
  727MOL0     H98137   2.453   1.903   5.725  0.4649  0.2313 -0.2617
  727MOL0     H98138   2.349   1.917   5.854 -0.8639  0.4910 -1.0090
  727MOL0     H98139   2.636   1.962   5.939  0.3702 -0.4436  1.2169
  727MOL0     H98140   2.565   1.801   5.926 -0.8859 -0.1468  0.7372
  727MOL0     H98141   2.388   1.866   6.094  0.2819 -0.6322  1.1559
  727MOL0     H98142   2.450   2.034   6.070 -1.0107 -0.0266 -2.5118
  727MOL0     H98143   2.721   1.828   6.344  2.2904 -0.0052 -1.3787
  727MOL0     H98144   2.172   2.373   5.840  0.2523 -0.1752 -0.6595
  727MOL0     H98145   2.007   2.451   5.696  0.9735 -0.5505  4.9175
  728MOL0     O98146   7.496   3.596   9.235  0.4032 -0.0937  0.0688
  728MOL0     C98147   7.558   3.512   9.176 -0.4655  0.7197  0.2483
  728MOL0     O98148   7.505   3.396   9.120 -0.1860  0.0088  0.4697
  728MOL0     C98149   7.374   3.368   9.144 -1.4964  0.7032  0.0897
  728MOL0     C98150   7.310   3.367   9.266 -0.4730  0.6066  0.0294
  728MOL0     C98151   7.169   3.345   9.273  0.7638  0.7162 -0.5449
  728MOL0     C98152   7.084   3.331   9.161 -0.8298  0.0626 -0.5563
  728MOL0     O98153   6.944   3.327   9.167 -0.1468 -0.3870 -0.4279
  728MOL0     C98154   6.878   3.273   9.046  1.2104 -0.3196  0.1641
  728MOL0     C98155   6.729   3.231   9.059  0.2173  0.0983 -0.0853
  728MOL0     C98156   6.700   3.094   9.118  0.3008 -0.9353  0.1778
  728MOL0     C98157   6.554   3.075   9.078 -0.2578  0.3222 -0.4722
  728MOL0     C98158   6.481   2.970   9.157  0.1728  0.2766  0.7091
  728MOL0     C98159   6.331   2.963   9.110  0.8661  0.3161 -1.0865
  728MOL0     C98160   6.244   2.928   9.227 -0.6044  0.4848 -0.6145
  728MOL0     C98161   6.227   2.775   9.253  0.1695  0.6791  0.0066
  728MOL0     N98162   6.124   2.755   9.356 -0.7979  0.8201  0.0231
  728MOL0     C98163   6.035   2.661   9.340  0.3591  0.8065 -0.9430
  728MOL0     C98164   5.952   2.678   9.445 -0.1225 -0.7113  0.1282
  728MOL0     C98165   5.833   2.599   9.470  0.1757  0.0633 -0.9044
  728MOL0     C98166   5.716   2.668   9.402  0.0412  0.2049 -0.3670
  728MOL0     C98167   5.687   2.804   9.447 -0.9764  0.2197 -0.1880
  728MOL0     C98168   5.554   2.856   9.402 -0.4662  0.0214  0.1604
  728MOL0     O98169   5.567   2.881   9.258  0.2235  0.3765 -0.7420
  728MOL0     C98170   5.458   2.933   9.195  0.2408  0.7708 -0.1962
  728MOL0     C98171   5.348   2.999   9.254  0.4058  0.5776  0.2595
  728MOL0     C98172   5.229   3.035   9.185  0.4800  0.0431 -0.5718
  728MOL0     C98173   5.112   3.095   9.271  0.0843 -0.4970 -0.3127
  728MOL0     C98174   5.235   3.020   9.043  0.3031  0.5019 -0.3636
  728MOL0     C98175   5.133   3.091   8.958 -0.0940 -1.3330 -0.4201
  728MOL0     O98176   5.103   3.220   8.972 -1.0534 -0.3747 -0.8596
  728MOL0     C98177   5.029   3.286   8.875 -0.3446 -0.2923  0.7372
  728MOL0     C98178   5.033   3.249   8.737 -0.7517 -0.4502  0.5610
  728MOL0     C98179   4.960   3.327   8.646 -0.2015 -0.6527  0.1106
  728MOL0     C98180   4.889   3.442   8.685 -0.3622 -0.2053 -0.0857
  728MOL0     O98181   4.826   3.512   8.588 -0.9512 -0.1661 -0.5697
  728MOL0     C98182   4.678   3.508   8.588  0.2478 -0.1842 -0.1199
  728MOL0     C98183   4.636   3.612   8.482  0.3284  0.5283 -0.0734
  728MOL0     C98184   4.670   3.750   8.539  1.0183  0.7586  0.3990
  728MOL0     C98185   4.605   3.862   8.463  0.1822 -0.3002 -0.1435
  728MOL0     C98186   4.460   3.892   8.503  0.7460  0.8150 -0.8231
  728MOL0     C98187   4.399   3.952   8.376  0.4047 -0.0694  0.3432
  728MOL0     C98188   4.258   3.996   8.410  0.5818 -0.1530  0.1537
  728MOL0     C98189   4.212   4.064   8.277  0.5983  0.3197  0.1334
  728MOL0    Cl98190   4.268   4.237   8.266  0.1183 -0.1691  0.6450
  728MOL0     C98191   4.890   3.481   8.815  0.6935 -0.0118  0.2807
  728MOL0     C98192   4.961   3.409   8.912 -0.2549  0.7195 -0.0372
  728MOL0     O98193   5.079   3.007   8.877  0.3391  0.1500  0.0083
  728MOL0     C98194   5.339   2.942   8.979  0.3405 -0.4742  0.7518
  728MOL0     C98195   5.454   2.913   9.057  0.3982 -1.2998  1.2394
  728MOL0     N98196   6.011   2.773   9.531  0.2474  0.2847 -0.4244
  728MOL0     N98197   6.120   2.817   9.477  0.5130  0.7578  0.6280
  728MOL0     C98198   7.154   3.327   9.043 -0.6332  0.0384 -0.5325
  728MOL0     C98199   7.298   3.340   9.031 -0.5441  0.1279  0.0689
  728MOL0     C98200   7.705   3.531   9.132 -0.3127 -1.0410 -0.6542
  728MOL0     C98201   7.782   3.640   9.194 -0.4575  0.5241  0.4236
  728MOL0     C98202   7.913   3.661   9.151 -0.0638 -0.1608 -0.7063
  728MOL0     C98203   7.975   3.574   9.056  0.0280  0.9735 -0.7118
  728MOL0     O98204   8.106   3.572   9.024 -0.3492 -0.5511 -0.5701
  728MOL0     C98205   8.178   3.696   9.024 -0.1830  0.4672  0.7644
  728MOL0     C98206   8.114   3.779   8.908 -0.1083  0.0714 -0.5184
  728MOL0     C98207   8.160   3.922   8.907 -0.7590 -0.5507 -0.4136
  728MOL0     C98208   8.236   3.974   8.788 -0.0496 -0.3057 -0.2436
  728MOL0     C98209   8.379   3.947   8.808 -0.0003 -0.6843 -0.2480
  728MOL0     C98210   8.499   3.946   8.826 -0.1142  0.6836 -0.7079
  728MOL0     C98211   7.892   3.473   9.001 -0.0699  0.3522 -0.5500
  728MOL0     C98212   7.763   3.450   9.036  0.1546 -0.4121 -0.1209
  728MOL0     H98213   7.370   3.383   9.355 -1.3201 -0.9376  0.9230
  728MOL0     H98214   7.104   3.344   9.360  1.1262  1.8794 -0.2325
  728MOL0     H98215   6.873   3.346   8.964  0.5071 -1.9142 -1.2831
  728MOL0     H98216   6.934   3.188   9.006  0.8454 -0.9564  0.9850
  728MOL0     H98217   6.685   3.317   9.110  0.7345  0.2200  0.1586
  728MOL0     H98218   6.684   3.245   8.960  0.9017  1.3489 -0.2348
  728MOL0     H98219   6.771   3.021   9.079  1.4088 -2.2218  4.1300
  728MOL0     H98220   6.709   3.085   9.227 -1.5408 -0.0098  0.4417
  728MOL0     H98221   6.495   3.163   9.105 -1.1462 -0.3331 -0.2646
  728MOL0     H98222   6.544   3.044   8.974  2.5658 -4.1998  0.3188
  728MOL0     H98223   6.524   2.876   9.123 -2.1268 -0.0270 -1.7418
  728MOL0     H98224   6.500   2.978   9.264  1.8875 -1.8091  0.6066
  728MOL0     H98225   6.296   3.061   9.077  2.4529  1.2344 -0.1920
  728MOL0     H98226   6.318   2.895   9.025 -1.9472  3.0280 -3.0187
  728MOL0     H98227   6.290   2.975   9.315 -0.7853  1.2518 -0.9159
  728MOL0     H98228   6.143   2.970   9.221 -0.4867  0.9699  0.5566
  728MOL0     H98229   6.319   2.729   9.291 -0.5100 -2.2300 -1.5735
  728MOL0     H98230   6.190   2.716   9.169  2.4588  1.9862 -2.0527
  728MOL0     H98231   6.016   2.586   9.264  1.2971  1.0964 -1.4761
  728MOL0     H98232   5.845   2.493   9.445 -1.6720 -0.8702  1.8094
  728MOL0     H98233   5.812   2.599   9.577  0.0713 -0.4703 -0.9231
  728MOL0     H98234   5.629   2.604   9.414  0.6631 -0.2661  2.4465
  728MOL0     H98235   5.737   2.674   9.295 -2.0060  2.8833 -0.7218
  728MOL0     H98236   5.771   2.869   9.421 -1.5672  2.4463  2.9286
  728MOL0     H98237   5.678   2.798   9.556 -1.3149  0.0248 -0.2245
  728MOL0     H98238   5.533   2.951   9.451  0.3866  0.7568 -0.8504
  728MOL0     H98239   5.478   2.781   9.426 -0.1477  0.0580  1.3112
  728MOL0     H98240   5.348   3.026   9.359 -2.2559 -0.5744  0.6470
  728MOL0     H98241   5.149   3.145   9.361  0.1510  1.2647 -1.2654
  728MOL0     H98242   5.073   3.172   9.203  0.4291 -3.3432 -4.0807
  728MOL0     H98243   5.042   3.021   9.308  0.9992 -1.5123 -0.5518
  728MOL0     H98244   5.096   3.173   8.692 -0.2390  1.4241 -2.0908
  728MOL0     H98245   4.961   3.307   8.539  1.9330  0.3204 -0.0970
  728MOL0     H98246   4.636   3.409   8.571  1.8461 -0.8484 -0.3343
  728MOL0     H98247   4.632   3.554   8.676  1.1755 -1.9124  1.3177
  728MOL0     H98248   4.684   3.608   8.384  0.0883  3.0690 -0.3445
  728MOL0     H98249   4.529   3.605   8.461 -0.1968  1.7833  1.9439
  728MOL0     H98250   4.779   3.755   8.540  1.0669 -0.2278  1.1402
  728MOL0     H98251   4.635   3.763   8.642  3.0556  2.1363  0.9788
  728MOL0     H98252   4.664   3.954   8.471  0.2091 -0.4362  1.5980
  728MOL0     H98253   4.607   3.823   8.361 -4.2588 -2.8920  0.4765
  728MOL0     H98254   4.454   3.967   8.583 -0.1841 -0.0507 -0.0594
  728MOL0     H98255   4.409   3.804   8.542 -0.9280  2.6223  1.3562
  728MOL0     H98256   4.451   4.044   8.347 -0.4592  0.9753  1.9301
  728MOL0     H98257   4.399   3.875   8.298 -1.8940 -0.0718  0.2903
  728MOL0     H98258   4.244   4.070   8.489 -1.1252 -0.4893  0.2017
  728MOL0     H98259   4.206   3.904   8.440  0.6047  0.1556  1.1891
  728MOL0     H98260   4.103   4.063   8.285  0.5142  1.5584 -0.6854
  728MOL0     H98261   4.245   4.004   8.192  0.3068 -1.0245  0.9348
  728MOL0     H98262   4.823   3.565   8.830 -1.9083 -1.8035 -0.4931
  728MOL0     H98263   4.956   3.451   9.012 -1.0517  1.7535 -0.4884
  728MOL0     H98264   5.345   2.938   8.870 -1.0719  2.1542  0.5012
  728MOL0     H98265   5.527   2.856   9.001 -1.7903 -2.0732 -1.0286
  728MOL0     H98266   7.104   3.305   8.949  1.2040 -3.9354 -0.7690
  728MOL0     H98267   7.352   3.329   8.938 -0.2163 -0.9827  0.3664
  728MOL0     H98268   7.745   3.698   9.278  0.0172  0.9335  0.3582
  728MOL0     H98269   7.977   3.740   9.190  1.0474 -0.5246 -1.7370
  728MOL0     H98270   8.160   3.752   9.117  0.4906  1.5704  0.2473
  728MOL0     H98271   8.283   3.678   9.001 -0.9673 -3.6450 -0.2785
  728MOL0     H98272   8.005   3.778   8.906 -0.1026 -0.7745 -1.7610
  728MOL0     H98273   8.143   3.723   8.818  3.3369  1.7705 -0.6177
  728MOL0     H98274   8.214   3.956   8.997 -2.0039  1.6070 -0.3974
  728MOL0     H98275   8.067   3.981   8.904 -0.0619  0.7666  1.5508
  728MOL0     H98276   8.238   4.082   8.770  0.7190 -0.4141 -0.8966
  728MOL0     H98277   8.197   3.924   8.698  1.7892  2.1200 -2.5827
  728MOL0     H98278   8.606   3.953   8.829 -0.0742  1.4539 -2.4597
  728MOL0     H98279   7.946   3.414   8.928  0.1393 -0.3363  0.1339
  728MOL0     H98280   7.716   3.360   8.999 -0.0824 -0.8266  1.1416
  729MOL0     O98281   5.844   3.296  11.109 -0.2151 -0.6101 -0.4241
  729MOL0     C98282   5.892   3.185  11.146  0.3311  0.2199 -0.0259
  729MOL0     O98283   5.823   3.074  11.180  0.3478  0.1151 -0.4278
  729MOL0     C98284   5.678   3.077  11.183 -0.6975  0.9828  0.1434
  729MOL0     C98285   5.622   3.007  11.293 -0.7657 -0.5618  0.2020
  729MOL0     C98286   5.489   3.001  11.309  0.2606 -0.4800 -0.7989
  729MOL0     C98287   5.397   3.068  11.226 -0.1387 -0.1723  0.2859
  729MOL0     O98288   5.270   3.072  11.270  0.0744  0.8922 -0.3151
  729MOL0     C98289   5.206   2.936  11.278 -0.9351 -0.2536  0.2348
  729MOL0     C98290   5.203   2.855  11.153 -0.4072  0.6177  0.3086
  729MOL0     C98291   5.167   2.706  11.175 -0.1386  0.1612 -0.9548
  729MOL0     C98292   5.170   2.615  11.057  0.3608 -0.3307  0.6804
  729MOL0     C98293   5.096   2.478  11.103 -1.3660 -0.4167 -1.1433
  729MOL0     C98294   5.163   2.372  11.002 -0.0811  0.5477 -0.0830
  729MOL0     C98295   5.134   2.397  10.857 -0.0742 -0.1419 -0.1798
  729MOL0     C98296   4.982   2.371  10.813 -0.5592  0.4180 -0.0540
  729MOL0     N98297   4.871   2.459  10.844  0.0711 -0.0219 -0.9700
  729MOL0     C98298   4.883   2.593  10.825 -0.1067 -0.0616 -0.4639
  729MOL0     C98299   4.769   2.634  10.895 -0.2300 -0.7377  0.5973
  729MOL0     C98300   4.727   2.778  10.886  0.9093  0.5030  0.2731
  729MOL0     C98301   4.754   2.863  11.012 -0.0977 -0.1826 -0.4065
  729MOL0     C98302   4.734   3.018  11.004 -0.3072  0.1648 -0.1110
  729MOL0     C98303   4.601   3.057  10.947 -0.2495 -0.4751  0.4392
  729MOL0     O98304   4.575   3.195  10.965  0.3788  0.3115  0.8338
  729MOL0     C98305   4.455   3.240  10.936  1.2123 -0.5167  0.3498
  729MOL0     C98306   4.349   3.157  10.873 -0.2631 -0.2633 -1.2107
  729MOL0     C98307   4.221   3.214  10.855 -0.0859  0.6666  0.6634
  729MOL0     C98308   4.108   3.108  10.820 -0.2470 -0.6686  0.3432
  729MOL0     C98309   4.203   3.344  10.880  0.4053 -0.3592  0.6006
  729MOL0     C98310   4.076   3.421  10.858  0.6649 -0.3780  0.2168
  729MOL0     O98311   4.082   3.545  10.798  0.4364  0.4326 -0.5643
  729MOL0     C98312   3.956   3.575  10.741 -0.4415 -0.1117 -0.1668
  729MOL0     C98313   3.927   3.543  10.599  0.1231 -0.0910 -0.3714
  729MOL0     C98314   3.797   3.576  10.543  0.1960  0.2041 -0.1665
  729MOL0     C98315   3.712   3.663  10.621 -0.7167 -0.9678 -0.9517
  729MOL0     O98316   3.592   3.707  10.573  0.0272 -0.1066  0.8371
  729MOL0     C98317   3.584   3.735  10.434 -0.2986 -0.1360 -0.1789
  729MOL0     C98318   3.471   3.832  10.417 -0.7688 -0.7075 -0.0007
  729MOL0     C98319   3.428   3.852  10.271  0.6107 -0.6039  0.5745
  729MOL0     C98320   3.303   3.941  10.263  0.2068 -0.8729 -0.2374
  729MOL0     C98321   3.256   3.962  10.121  0.4727 -0.6056  0.0941
  729MOL0     C98322   3.258   4.118  10.078  0.4650 -0.6724 -0.9861
  729MOL0     C98323   3.170   4.156   9.954 -0.5571  0.1392 -0.2065
  729MOL0     C98324   3.184   4.304   9.923  0.3448  0.3366 -0.0135
  729MOL0    Cl98325   3.027   4.361   9.836 -0.0619 -0.1569  0.3603
  729MOL0     C98326   3.742   3.689  10.751  0.0032 -0.1123 -0.1151
  729MOL0     C98327   3.865   3.656  10.808  0.3678  0.0812 -0.8685
  729MOL0     O98328   3.984   3.382  10.927  0.2653  0.3597  0.1453
  729MOL0     C98329   4.312   3.424  10.928 -0.4978  0.1808 -0.5687
  729MOL0     C98330   4.430   3.367  10.963 -0.1420 -0.6467 -0.1963
  729MOL0     N98331   4.702   2.536  10.967  0.4098 -0.8463  0.2333
  729MOL0     N98332   4.765   2.427  10.927  0.3476 -0.6224  0.6938
  729MOL0     C98333   5.454   3.140  11.123 -0.7302  0.3118 -0.2076
  729MOL0     C98334   5.598   3.150  11.100 -0.0241  1.0380 -0.2232
  729MOL0     C98335   6.047   3.206  11.166  0.2134 -0.4265  0.2263
  729MOL0     C98336   6.117   3.305  11.094  1.0238  0.2734  0.1055
  729MOL0     C98337   6.239   3.348  11.130  0.3753  0.1176  0.7122
  729MOL0     C98338   6.306   3.295  11.243 -0.0767 -0.2303 -0.8127
  729MOL0     O98339   6.430   3.328  11.283  0.0583 -0.5151 -0.7670
  729MOL0     C98340   6.523   3.394  11.193 -0.2646 -1.0326  0.3430
  729MOL0     C98341   6.647   3.454  11.270 -0.3729 -0.5795 -0.4643
  729MOL0     C98342   6.618   3.585  11.337 -0.1402 -0.7369 -0.1434
  729MOL0     C98343   6.571   3.559  11.478 -0.2376  0.0726  0.3286
  729MOL0     C98344   6.564   3.680  11.561 -0.4012 -0.0777 -0.1186
  729MOL0     C98345   6.555   3.783  11.626 -0.5627 -0.8248 -0.3319
  729MOL0     C98346   6.247   3.199  11.313 -0.3159 -0.0597 -0.6342
  729MOL0     C98347   6.118   3.146  11.279 -0.4588 -0.3104 -0.1812
  729MOL0     H98348   5.690   2.955  11.360  0.5262  0.7167 -0.0716
  729MOL0     H98349   5.452   2.956  11.400  1.7517  1.2153  0.7283
  729MOL0     H98350   5.255   2.866  11.347  0.6029 -1.0925 -1.6286
  729MOL0     H98351   5.102   2.954  11.307 -0.0836 -0.4389  4.0414
  729MOL0     H98352   5.141   2.907  11.080  1.9798  0.5955 -1.8945
  729MOL0     H98353   5.296   2.851  11.094 -1.6433 -0.5593 -1.6941
  729MOL0     H98354   5.228   2.660  11.253  0.2249 -0.4830 -1.6093
  729MOL0     H98355   5.062   2.715  11.205 -0.2524  3.0352 -1.8698
  729MOL0     H98356   5.108   2.651  10.975  3.1645 -0.2818 -1.5828
  729MOL0     H98357   5.273   2.601  11.023 -0.2109 -2.3977 -0.3697
  729MOL0     H98358   5.126   2.446  11.203 -0.7691  0.1002 -1.1458
  729MOL0     H98359   4.987   2.485  11.098 -1.2932  2.1016 -0.4690
  729MOL0     H98360   5.271   2.360  11.017  0.2969  2.3423 -1.1117
  729MOL0     H98361   5.119   2.273  11.018 -0.2509  0.3383 -1.6816
  729MOL0     H98362   5.178   2.493  10.828  0.6542 -1.0292 -2.2598
  729MOL0     H98363   5.202   2.337  10.795 -0.4485 -1.2790  0.4717
  729MOL0     H98364   4.957   2.268  10.843  1.1839  0.5179  1.9827
  729MOL0     H98365   4.995   2.369  10.705  1.0934  2.0721  0.0700
  729MOL0     H98366   4.959   2.656  10.782  2.0074 -1.5003  0.9305
  729MOL0     H98367   4.778   2.839  10.811 -0.4135  1.9510  0.4977
  729MOL0     H98368   4.619   2.769  10.876  0.6523  1.6767  1.5658
  729MOL0     H98369   4.860   2.848  11.036  0.1520  1.5071 -0.3240
  729MOL0     H98370   4.695   2.835  11.100 -1.6348  2.9649 -0.2913
  729MOL0     H98371   4.816   3.056  10.942 -0.0610 -1.9029 -1.1366
  729MOL0     H98372   4.754   3.067  11.100 -0.6487 -0.2742  0.1865
  729MOL0     H98373   4.525   3.000  11.002  0.7905 -1.0329  1.3297
  729MOL0     H98374   4.601   3.031  10.840  3.0706 -2.4414  0.7856
  729MOL0     H98375   4.374   3.052  10.858  0.3211 -0.3145 -0.0211
  729MOL0     H98376   4.084   3.114  10.713  0.4682  1.3215  0.2639
  729MOL0     H98377   4.145   3.009  10.847  0.7850  0.3395  2.8893
  729MOL0     H98378   4.008   3.123  10.862 -0.4993  1.8270 -0.9486
  729MOL0     H98379   4.002   3.477  10.557  0.4117 -0.3865  0.5643
  729MOL0     H98380   3.759   3.535  10.450 -2.0650  1.0062  0.3443
  729MOL0     H98381   3.675   3.778  10.389 -2.1253  1.3653 -2.7147
  729MOL0     H98382   3.565   3.638  10.388  0.6802 -1.6955  2.4871
  729MOL0     H98383   3.380   3.804  10.472 -1.5112  2.7438  0.7926
  729MOL0     H98384   3.504   3.923  10.468 -0.2847  0.1313 -1.7607
  729MOL0     H98385   3.402   3.759  10.219  0.5077  0.2167 -0.8783
  729MOL0     H98386   3.513   3.897  10.219  0.6791 -0.4834  0.7901
  729MOL0     H98387   3.220   3.891  10.314 -1.3079  1.4424 -0.2844
  729MOL0     H98388   3.323   4.037  10.313  1.9608 -0.8686 -0.8694
  729MOL0     H98389   3.153   3.925  10.124  0.1710  0.1638 -0.4236
  729MOL0     H98390   3.309   3.906  10.044  0.5395  1.6463 -1.6045
  729MOL0     H98391   3.207   4.179  10.154  1.8330  0.4182 -0.8932
  729MOL0     H98392   3.360   4.157  10.065 -1.2179  4.8991  0.0032
  729MOL0     H98393   3.065   4.129   9.972 -0.9962  0.0601 -2.5142
  729MOL0     H98394   3.199   4.098   9.866  1.3277  3.9507 -2.3172
  729MOL0     H98395   3.278   4.309   9.868  0.2832 -0.9137 -0.2655
  729MOL0     H98396   3.192   4.371  10.009  1.9309  1.3179 -0.8767
  729MOL0     H98397   3.677   3.751  10.813  0.0724 -0.0805 -0.0747
  729MOL0     H98398   3.890   3.697  10.905  0.9469  3.2397 -2.2216
  729MOL0     H98399   4.296   3.531  10.934  1.2770  0.4680 -0.3977
  729MOL0     H98400   4.513   3.428  10.996 -1.6752  1.2082  0.3928
  729MOL0     H98401   5.388   3.193  11.056  1.9212  0.4851 -2.9153
  729MOL0     H98402   5.630   3.227  11.030  1.2403  0.6615 -0.0961
  729MOL0     H98403   6.072   3.357  11.011  1.0068  1.9648  1.1265
  729MOL0     H98404   6.299   3.421  11.076  4.5605 -2.5235  1.3023
  729MOL0     H98405   6.550   3.331  11.107 -3.1237  2.3277 -3.3890
  729MOL0     H98406   6.477   3.481  11.146 -1.2196 -1.1083  1.1107
  729MOL0     H98407   6.739   3.477  11.216 -1.4648  1.6270 -1.5694
  729MOL0     H98408   6.673   3.373  11.338 -3.0108 -3.0739 -2.1435
  729MOL0     H98409   6.546   3.647  11.282  0.2828 -1.9780 -2.1728
  729MOL0     H98410   6.711   3.637  11.364 -0.0246 -1.7773  1.6645
  729MOL0     H98411   6.636   3.486  11.526  1.9733  0.7189 -1.4969
  729MOL0     H98412   6.473   3.510  11.472 -0.1816 -0.3361  2.1686
  729MOL0     H98413   6.580   3.869  11.684  1.9981 -0.7469 -1.4474
  729MOL0     H98414   6.297   3.162  11.402 -2.5571  0.5295  0.9743
  729MOL0     H98415   6.075   3.064  11.336  1.3853 -2.1467 -1.3006
  730MOL0     O98416  10.412   4.824   0.124 -0.8399 -0.2805 -0.0698
  730MOL0     C98417  10.472   4.736   0.196 -0.5326  0.8916 -0.1092
  730MOL0     O98418  10.414   4.679   0.306  0.3004  1.2468 -0.8426
  730MOL0     C98419  10.301   4.737   0.365  1.0867 -0.0055  0.3498
  730MOL0     C98420  10.310   4.818   0.487 -0.1044  0.6272  0.1062
  730MOL0     C98421  10.191   4.855   0.552 -0.0038  0.3429  1.2041
  730MOL0     C98422  10.067   4.830   0.501  0.6112 -0.0791  0.0601
  730MOL0     O98423   9.960   4.875   0.580  0.2861  0.1063  0.0337
  730MOL0     C98424   9.822   4.888   0.532  0.2992 -0.1749 -0.5313
  730MOL0     C98425   9.745   4.988   0.618 -0.2683 -0.5531 -0.3040
  730MOL0     C98426   9.607   5.042   0.567 -1.5171 -0.2357 -0.1749
  730MOL0     C98427   9.505   4.933   0.563 -0.6715 -0.2892 -0.1821
  730MOL0     C98428   9.366   4.973   0.539 -0.4821 -0.1510  0.4646
  730MOL0     C98429   9.345   5.033   0.398 -0.6225  0.2223 -0.0135
  730MOL0     C98430   9.188   5.045   0.378 -0.0360  0.4393  0.5734
  730MOL0     C98431   9.172   5.162   0.280 -0.0939 -0.3246 -0.0504
  730MOL0     N98432   9.066   5.118   0.186 -0.2386  0.4424  0.0983
  730MOL0     C98433   8.930   5.134   0.212 -0.0502  0.4916 -0.3052
  730MOL0     C98434   8.876   5.101   0.093  0.7194 -0.8678 -0.6235
  730MOL0     C98435   8.731   5.100   0.058  0.8382 -0.8324 -0.3034
  730MOL0     C98436   8.709   5.173  -0.074  0.1661  0.4796  0.4906
  730MOL0     C98437   8.552   5.162  -0.083  0.2441  0.8392 -0.6362
  730MOL0     C98438   8.508   5.230  -0.209  0.3855  0.0474 -0.2317
  730MOL0     O98439   8.514   5.369  -0.198 -0.5330  0.0327  0.4174
  730MOL0     C98440   8.394   5.441  -0.182  0.0052  0.1289  0.1033
  730MOL0     C98441   8.403   5.578  -0.201  0.5819 -1.1362 -0.1785
  730MOL0     C98442   8.290   5.654  -0.191 -0.3932 -0.3259 -0.0522
  730MOL0     C98443   8.319   5.798  -0.214  0.1829  0.4011 -0.8861
  730MOL0     C98444   8.171   5.601  -0.151  0.1006 -0.2905  0.1255
  730MOL0     C98445   8.049   5.693  -0.131 -0.5943 -0.0743 -0.3786
  730MOL0     O98446   7.937   5.652  -0.184 -0.1515  0.4983  0.8666
  730MOL0     C98447   7.831   5.734  -0.203 -0.0009  0.3559  0.3158
  730MOL0     C98448   7.841   5.871  -0.221  0.4311 -0.0463  0.1765
  730MOL0     C98449   7.730   5.946  -0.246  0.5360 -0.1495 -0.1324
  730MOL0     C98450   7.602   5.890  -0.258  0.6288 -0.2869 -1.8019
  730MOL0     O98451   7.492   5.971  -0.273 -0.2295 -1.0079 -0.7058
  730MOL0     C98452   7.498   6.117  -0.277  0.1153  0.0812 -0.1436
  730MOL0     C98453   7.353   6.162  -0.312 -0.5480 -0.0816  0.5069
  730MOL0     C98454   7.344   6.296  -0.381  0.3656 -0.2008 -0.7381
  730MOL0     C98455   7.192   6.315  -0.407 -0.5853  0.6025 -0.0596
  730MOL0     C98456   7.156   6.453  -0.450 -0.6182 -0.1376  0.0689
  730MOL0     C98457   7.187   6.465  -0.602 -0.0285 -1.3895 -0.2159
  730MOL0     C98458   7.129   6.604  -0.639 -0.2591  0.8726  0.3248
  730MOL0     C98459   7.108   6.613  -0.794 -0.0225  0.4083  0.4332
  730MOL0    Cl98460   7.001   6.485  -0.849 -0.4210 -0.3073 -0.3489
  730MOL0     C98461   7.591   5.753  -0.264  0.5374 -0.0639 -0.5102
  730MOL0     C98462   7.706   5.669  -0.230  0.2141  0.1375 -0.1209
  730MOL0     O98463   8.070   5.801  -0.083  0.0173 -0.3733  0.0431
  730MOL0     C98464   8.161   5.463  -0.113  0.1709  0.0915  0.6895
  730MOL0     C98465   8.282   5.384  -0.122 -0.3682  1.5843 -0.0598
  730MOL0     N98466   8.972   5.081   0.002  0.4752 -0.4103  0.5641
  730MOL0     N98467   9.084   5.088   0.056 -1.6949 -0.2412 -0.0813
  730MOL0     C98468  10.056   4.769   0.369 -0.7978  0.1360  0.1426
  730MOL0     C98469  10.178   4.713   0.314  0.0636 -0.2912  0.6682
  730MOL0     C98470  10.602   4.682   0.142  0.3981  0.2220  0.0930
  730MOL0     C98471  10.666   4.574   0.201 -0.0069  0.0462 -0.1486
  730MOL0     C98472  10.789   4.544   0.157  0.0607  1.0179 -0.0237
  730MOL0     C98473  10.851   4.605   0.049  0.1036  0.5622 -0.0679
  730MOL0     O98474  10.966   4.534   0.019  0.3918 -0.3311 -0.2403
  730MOL0     C98475  11.047   4.580  -0.091 -0.2973  0.3406  0.7498
  730MOL0     C98476  11.180   4.507  -0.123  0.1865 -0.1231 -0.2949
  730MOL0     C98477  11.177   4.360  -0.103 -0.2002 -0.1655 -0.3934
  730MOL0     C98478  11.292   4.279  -0.170 -0.5448  0.1898 -0.7456
  730MOL0     C98479  11.430   4.330  -0.145  0.9394  0.5077 -0.1288
  730MOL0     C98480  11.543   4.371  -0.135 -0.7762 -0.0139 -0.6525
  730MOL0     C98481  10.785   4.705  -0.023  0.2167  0.3409 -0.1366
  730MOL0     C98482  10.659   4.742   0.029  1.7861  0.4357  0.2200
  730MOL0     H98483  10.408   4.827   0.533  0.8969 -0.3117 -1.7296
  730MOL0     H98484  10.200   4.887   0.655  0.4169 -1.0626  1.6357
  730MOL0     H98485   9.819   4.925   0.429 -1.9004 -1.0650 -0.8453
  730MOL0     H98486   9.776   4.789   0.538  1.1056 -0.4554  1.9302
  730MOL0     H98487   9.742   4.954   0.721 -2.9894  2.6862  0.8871
  730MOL0     H98488   9.813   5.072   0.632 -1.2317  0.4272 -1.2200
  730MOL0     H98489   9.569   5.126   0.625  1.6452  1.4248 -0.3078
  730MOL0     H98490   9.625   5.075   0.465 -2.1369  0.4437 -0.0728
  730MOL0     H98491   9.528   4.868   0.478 -1.5005 -1.5187  0.5062
  730MOL0     H98492   9.507   4.894   0.665  2.2470  0.6565  0.2054
  730MOL0     H98493   9.305   4.884   0.557  3.1776 -3.2122 -1.0451
  730MOL0     H98494   9.333   5.051   0.608 -0.6031  0.5721 -0.3868
  730MOL0     H98495   9.399   5.127   0.385 -0.6494  0.1695 -0.5346
  730MOL0     H98496   9.380   4.966   0.318 -1.7778 -0.0368 -0.3147
  730MOL0     H98497   9.159   4.955   0.324 -1.5228  0.7214  0.8515
  730MOL0     H98498   9.128   5.061   0.468  0.0625 -1.1386  0.9403
  730MOL0     H98499   9.266   5.191   0.233  0.9137  0.4138  2.2467
  730MOL0     H98500   9.147   5.247   0.344  1.3956 -1.3352  1.9906
  730MOL0     H98501   8.886   5.170   0.304 -0.8790 -1.6256  0.1851
  730MOL0     H98502   8.682   5.006   0.086 -0.8757  0.5278  1.6678
  730MOL0     H98503   8.692   5.168   0.135  3.0104  1.1709 -0.8738
  730MOL0     H98504   8.755   5.130  -0.164  0.1406  2.2611 -0.4175
  730MOL0     H98505   8.740   5.277  -0.064  2.9939  0.1463 -2.9005
  730MOL0     H98506   8.498   5.200   0.004 -2.7364  1.5580 -2.6681
  730MOL0     H98507   8.512   5.061  -0.096  1.1446  0.4436 -0.3953
  730MOL0     H98508   8.403   5.206  -0.226  0.1951  0.1165  0.7628
  730MOL0     H98509   8.570   5.199  -0.294  0.2275 -1.0781  0.0528
  730MOL0     H98510   8.497   5.619  -0.236 -0.9706  3.4092  0.3885
  730MOL0     H98511   8.242   5.841  -0.279  0.4511  2.3943  0.0197
  730MOL0     H98512   8.311   5.855  -0.121  0.3726 -0.8889 -0.0477
  730MOL0     H98513   8.410   5.826  -0.266 -0.5436  0.6284 -2.0793
  730MOL0     H98514   7.940   5.915  -0.229  1.2913 -1.6718  1.1772
  730MOL0     H98515   7.750   6.052  -0.259 -2.0968  0.2535 -1.5195
  730MOL0     H98516   7.515   6.160  -0.178 -1.1970 -2.3707  1.2374
  730MOL0     H98517   7.568   6.159  -0.351  1.8317 -2.3860 -0.0710
  730MOL0     H98518   7.306   6.088  -0.377 -0.8877  1.0167 -0.5356
  730MOL0     H98519   7.289   6.173  -0.224 -2.3447  2.2655 -0.9850
  730MOL0     H98520   7.398   6.299  -0.476  0.8222 -0.0369 -0.4786
  730MOL0     H98521   7.389   6.373  -0.317  0.2650  0.5102 -1.4980
  730MOL0     H98522   7.168   6.235  -0.478  2.2081 -0.1444 -0.3145
  730MOL0     H98523   7.137   6.287  -0.316 -0.8529 -0.4163 -0.5190
  730MOL0     H98524   7.224   6.509  -0.385  0.3588 -0.2990 -0.7885
  730MOL0     H98525   7.052   6.479  -0.426 -0.7225 -0.6619  0.1839
  730MOL0     H98526   7.291   6.472  -0.635 -0.1804  4.5035 -0.4773
  730MOL0     H98527   7.125   6.391  -0.654 -2.9428  0.9741 -0.4243
  730MOL0     H98528   7.195   6.683  -0.604  0.6067  0.4432 -0.2968
  730MOL0     H98529   7.028   6.619  -0.601 -1.1430  0.0585 -1.5462
  730MOL0     H98530   7.210   6.593  -0.826  1.2256  1.4891  3.3595
  730MOL0     H98531   7.082   6.713  -0.828 -0.1884 -0.2026 -1.3170
  730MOL0     H98532   7.499   5.706  -0.296  0.9529 -1.8776  0.8008
  730MOL0     H98533   7.703   5.561  -0.239 -1.8072  0.1718 -0.3236
  730MOL0     H98534   8.070   5.417  -0.076  1.9939 -3.3331  1.3503
  730MOL0     H98535   8.280   5.284  -0.080 -0.5918  0.5641 -2.3530
  730MOL0     H98536   9.962   4.747   0.320 -0.6214  0.3617 -0.3051
  730MOL0     H98537  10.172   4.675   0.213 -1.5845  1.0146  0.2249
  730MOL0     H98538  10.616   4.534   0.289  1.8549  3.4427  2.7118
  730MOL0     H98539  10.844   4.468   0.212 -0.5077 -0.6827 -1.6951
  730MOL0     H98540  10.990   4.590  -0.183 -0.8616  0.3194  1.0921
  730MOL0     H98541  11.075   4.685  -0.077  0.6137  0.6296 -2.5021
  730MOL0     H98542  11.264   4.550  -0.067  0.0062 -0.7008  0.4424
  730MOL0     H98543  11.198   4.525  -0.229  0.0145  1.5764 -0.0528
  730MOL0     H98544  11.085   4.320  -0.147 -0.7403 -0.4566  0.9386
  730MOL0     H98545  11.174   4.344   0.005  1.7930  2.4475  0.1319
  730MOL0     H98546  11.290   4.286  -0.279 -0.9478 -2.8834 -1.0141
  730MOL0     H98547  11.277   4.174  -0.147 -0.3049  0.0095 -1.3970
  730MOL0     H98548  11.647   4.395  -0.119 -1.3843  2.6592 -0.1923
  730MOL0     H98549  10.839   4.747  -0.107  1.1535 -0.1587  0.1986
  730MOL0     H98550  10.587   4.806  -0.020  0.9164  0.0395  0.9515
  731MOL0     O98551  10.356   3.292   0.393  0.1446  0.3442  0.0369
  731MOL0     C98552  10.342   3.245   0.507 -0.4442  0.3868  0.4414
  731MOL0     O98553  10.223   3.206   0.564 -0.6449  0.3523  1.2049
  731MOL0     C98554  10.106   3.246   0.506 -0.8638 -0.3607  1.5545
  731MOL0     C98555   9.999   3.161   0.525  0.2704  0.5325  0.4427
  731MOL0     C98556   9.866   3.201   0.487  0.3696  0.3662 -0.2798
  731MOL0     C98557   9.838   3.329   0.434  0.3295  0.5015  0.2027
  731MOL0     O98558   9.721   3.375   0.379 -0.3095  0.3409  0.7630
  731MOL0     C98559   9.603   3.316   0.438  0.6815 -0.3077  0.0019
  731MOL0     C98560   9.470   3.384   0.394 -0.3519 -0.0195 -0.8357
  731MOL0     C98561   9.353   3.302   0.452 -0.1036 -0.3021 -0.3474
  731MOL0     C98562   9.298   3.199   0.349  0.0973 -0.3728  0.3663
  731MOL0     C98563   9.211   3.093   0.423  0.0617 -0.5882  0.1352
  731MOL0     C98564   9.071   3.137   0.445 -0.9869 -0.1318  0.6512
  731MOL0     C98565   8.989   3.033   0.531  0.2907 -0.2305  0.5642
  731MOL0     C98566   8.847   3.090   0.522 -0.7289 -0.2191 -0.2159
  731MOL0     N98567   8.747   2.990   0.589  0.1581 -0.3210 -0.4860
  731MOL0     C98568   8.703   2.988   0.721  0.1797  0.4910 -0.0506
  731MOL0     C98569   8.603   2.898   0.713 -0.3140 -0.1602  0.1468
  731MOL0     C98570   8.503   2.866   0.823 -0.3067 -0.3597 -1.7313
  731MOL0     C98571   8.429   2.992   0.871 -0.3468  0.6402 -1.6376
  731MOL0     C98572   8.341   2.954   0.995  0.3783  1.3315  0.0557
  731MOL0     C98573   8.253   3.070   1.043 -0.4602  0.4637  1.2855
  731MOL0     O98574   8.200   3.060   1.175 -0.1745 -0.0830  0.0247
  731MOL0     C98575   8.122   2.950   1.208  0.5648 -0.0780  0.2306
  731MOL0     C98576   8.139   2.897   1.330 -0.3546 -0.1537  0.4539
  731MOL0     C98577   8.078   2.780   1.373  0.0489  0.1504 -0.2933
  731MOL0     C98578   8.123   2.741   1.518  0.3036  0.0050 -0.1048
  731MOL0     C98579   7.987   2.721   1.289  0.0885 -0.4067 -0.1090
  731MOL0     C98580   7.896   2.617   1.321 -0.4729 -0.5371 -0.1756
  731MOL0     O98581   7.817   2.558   1.227  0.0671  0.4526 -0.1477
  731MOL0     C98582   7.716   2.491   1.282  0.0017  0.1782 -0.0165
  731MOL0     C98583   7.730   2.355   1.308  0.1188  0.1472  0.3005
  731MOL0     C98584   7.623   2.274   1.330  0.2849  0.3786 -0.6743
  731MOL0     C98585   7.496   2.333   1.351 -1.1856  0.0404 -0.8899
  731MOL0     O98586   7.388   2.262   1.378  0.6343 -0.0616  0.1999
  731MOL0     C98587   7.289   2.329   1.462  1.1123  0.6406 -0.2847
  731MOL0     C98588   7.193   2.227   1.515  0.2253 -0.7425  0.2636
  731MOL0     C98589   7.123   2.158   1.398  0.9630 -0.3109  0.4547
  731MOL0     C98590   7.026   2.062   1.451  0.1558 -0.6978 -0.3936
  731MOL0     C98591   6.956   1.971   1.348  0.0289  0.6587  0.6868
  731MOL0     C98592   6.869   1.855   1.416 -0.0842 -0.0876  0.2080
  731MOL0     C98593   6.951   1.765   1.512  0.5062  0.3151  0.1873
  731MOL0     C98594   6.855   1.652   1.563  0.3788 -0.2141  0.0667
  731MOL0    Cl98595   6.700   1.696   1.637 -0.2480  0.4091 -0.0197
  731MOL0     C98596   7.488   2.469   1.335  0.5147  0.4863 -0.4901
  731MOL0     C98597   7.591   2.552   1.291 -0.7647 -0.6171 -0.2007
  731MOL0     O98598   7.901   2.585   1.441  0.5361 -0.2942  0.5004
  731MOL0     C98599   7.960   2.782   1.158  0.0661 -0.0349 -0.1941
  731MOL0     C98600   8.034   2.890   1.117  0.2404 -1.1693 -0.4888
  731MOL0     N98601   8.579   2.859   0.581  0.0730 -0.5233  0.9113
  731MOL0     N98602   8.673   2.916   0.506  0.2591 -0.7473 -0.3115
  731MOL0     C98603   9.952   3.421   0.420  0.8367  0.7229 -0.0750
  731MOL0     C98604  10.082   3.371   0.443 -0.1254 -0.2694 -0.3634
  731MOL0     C98605  10.467   3.223   0.583  0.4068  0.4398 -0.3730
  731MOL0     C98606  10.482   3.105   0.661  0.5104 -0.1101  0.0245
  731MOL0     C98607  10.595   3.086   0.741 -0.7099  0.3050 -0.0024
  731MOL0     C98608  10.706   3.171   0.729 -0.1152  0.1618  0.5911
  731MOL0     O98609  10.825   3.149   0.797  0.2564 -0.3560 -0.2333
  731MOL0     C98610  10.938   3.234   0.817 -0.4152 -0.0378  0.1932
  731MOL0     C98611  11.041   3.174   0.716 -0.9208 -1.1633 -0.9086
  731MOL0     C98612  11.180   3.236   0.748 -0.4060  0.1670 -0.1763
  731MOL0     C98613  11.304   3.144   0.727 -0.0686  0.1316 -0.0454
  731MOL0     C98614  11.424   3.198   0.783  0.3319 -0.6185 -0.3335
  731MOL0     C98615  11.510   3.243   0.861  0.2628  0.2805  0.0318
  731MOL0     C98616  10.691   3.286   0.657  0.0392  0.1090 -0.2329
  731MOL0     C98617  10.575   3.316   0.580 -1.2174 -0.3613  1.0020
  731MOL0     H98618  10.021   3.069   0.579  0.8299  1.4119  1.7657
  731MOL0     H98619   9.792   3.123   0.498  1.0389 -0.2564 -0.0962
  731MOL0     H98620   9.605   3.207   0.428 -0.6900 -0.2620 -0.8614
  731MOL0     H98621   9.604   3.321   0.548  1.3327 -2.1407  0.1313
  731MOL0     H98622   9.462   3.480   0.446 -0.8055  0.6957 -2.1957
  731MOL0     H98623   9.464   3.389   0.285  0.7524 -0.5615 -0.9363
  731MOL0     H98624   9.384   3.250   0.543 -0.9406 -2.3525 -1.1718
  731MOL0     H98625   9.271   3.364   0.489  2.5821  3.9404 -0.8530
  731MOL0     H98626   9.243   3.254   0.272  1.4547 -1.2006 -1.2627
  731MOL0     H98627   9.375   3.144   0.295  2.0339  0.0709  2.5178
  731MOL0     H98628   9.196   3.004   0.361 -1.4317  0.0975 -0.5265
  731MOL0     H98629   9.246   3.063   0.522  0.6732  2.9161  1.1189
  731MOL0     H98630   9.077   3.235   0.493  0.1258  1.5424 -2.5958
  731MOL0     H98631   9.022   3.148   0.348 -1.5365  0.5500  1.0018
  731MOL0     H98632   8.992   2.933   0.486  0.9095 -0.9644  2.1796
  731MOL0     H98633   9.035   3.029   0.630  2.3275  0.4328 -0.3085
  731MOL0     H98634   8.820   3.114   0.419  1.2260  1.8286 -0.3332
  731MOL0     H98635   8.839   3.181   0.582 -1.5387 -1.0076  0.9190
  731MOL0     H98636   8.738   3.034   0.812 -1.3017  0.3552  0.6163
  731MOL0     H98637   8.427   2.797   0.784 -2.2597 -0.4064  1.8154
  731MOL0     H98638   8.548   2.812   0.907 -0.9724  2.3800  0.4976
  731MOL0     H98639   8.366   3.024   0.788 -3.2414 -1.6318 -0.4941
  731MOL0     H98640   8.500   3.073   0.892 -0.3127  0.7330 -2.1077
  731MOL0     H98641   8.398   2.905   1.075 -3.6962  2.9477  4.4266
  731MOL0     H98642   8.276   2.874   0.958  2.0137  0.4056 -0.9982
  731MOL0     H98643   8.177   3.089   0.967  1.5765  1.6054 -0.6058
  731MOL0     H98644   8.306   3.166   1.052 -0.2396  0.7182 -1.5817
  731MOL0     H98645   8.212   2.937   1.400 -1.7891  2.9718  0.3234
  731MOL0     H98646   8.175   2.822   1.571 -1.1880 -0.1679  1.7238
  731MOL0     H98647   8.040   2.715   1.584 -0.3750  3.1616  0.4357
  731MOL0     H98648   8.188   2.654   1.523 -1.2380 -1.2100 -0.4660
  731MOL0     H98649   7.820   2.295   1.295 -2.8301 -4.2221 -2.7189
  731MOL0     H98650   7.646   2.169   1.348 -0.7882  0.1862 -0.3627
  731MOL0     H98651   7.334   2.391   1.540  0.3335 -0.2721  0.9379
  731MOL0     H98652   7.232   2.398   1.399  1.5805  0.2328 -1.1730
  731MOL0     H98653   7.242   2.145   1.568 -0.0944  0.1495  1.9839
  731MOL0     H98654   7.119   2.276   1.578  0.1910  1.1692 -1.1820
  731MOL0     H98655   7.193   2.093   1.344 -1.8214 -1.3735 -2.1464
  731MOL0     H98656   7.071   2.232   1.338  0.9980  0.0581  0.8756
  731MOL0     H98657   7.078   1.992   1.518  0.2263  0.0603  0.3614
  731MOL0     H98658   6.950   2.114   1.509  0.6182 -1.0673  0.5787
  731MOL0     H98659   7.040   1.935   1.288  0.7302  1.9994  0.8282
  731MOL0     H98660   6.892   2.023   1.276  3.0787  1.7839 -1.3875
  731MOL0     H98661   6.777   1.900   1.454  0.7903  2.3721 -0.4210
  731MOL0     H98662   6.844   1.793   1.329 -1.9318 -1.8626  1.8958
  731MOL0     H98663   6.983   1.832   1.592  1.2619  2.9688 -2.1541
  731MOL0     H98664   7.035   1.707   1.473 -1.4936 -1.9969 -0.9544
  731MOL0     H98665   6.903   1.591   1.640 -0.5220 -1.6688 -0.4901
  731MOL0     H98666   6.824   1.583   1.485 -0.5422 -1.9145  1.8549
  731MOL0     H98667   7.400   2.531   1.348  1.2371  0.9721  3.1696
  731MOL0     H98668   7.588   2.656   1.258  1.3231 -1.0701 -2.0493
  731MOL0     H98669   7.898   2.740   1.080  0.1143  0.3033 -0.4154
  731MOL0     H98670   8.021   2.937   1.020 -0.7442 -0.7861 -0.1900
  731MOL0     H98671   9.933   3.522   0.386 -0.5372  0.6233  0.3367
  731MOL0     H98672  10.157   3.449   0.434 -0.7211  0.5373  1.1893
  731MOL0     H98673  10.394   3.043   0.666  0.7264 -0.3608  1.3014
  731MOL0     H98674  10.588   3.004   0.813 -1.7398  0.6889  0.3551
  731MOL0     H98675  10.926   3.339   0.792 -1.1240 -0.1576  0.0125
  731MOL0     H98676  10.978   3.230   0.919 -0.2029  0.7389  0.1455
  731MOL0     H98677  11.019   3.210   0.615 -1.7074  0.1638 -0.2812
  731MOL0     H98678  11.050   3.065   0.724  0.1337 -0.9587  2.3280
  731MOL0     H98679  11.187   3.250   0.857  2.1500 -0.1068 -0.2602
  731MOL0     H98680  11.184   3.336   0.703  0.1346 -0.0320 -0.5670
  731MOL0     H98681  11.316   3.108   0.625 -0.4832  1.9079 -0.7627
  731MOL0     H98682  11.274   3.059   0.789 -0.8051 -0.6178 -1.3792
  731MOL0     H98683  11.575   3.281   0.937 -0.1148  1.9756 -0.4475
  731MOL0     H98684  10.767   3.362   0.649  1.6395 -1.1770  1.7365
  731MOL0     H98685  10.562   3.399   0.511  0.4856 -0.3936  0.5944
  732MOL0     O98686   5.794   3.318   9.829 -0.0562 -0.5597 -0.9683
  732MOL0     C98687   5.825   3.320   9.710  0.0313  0.2724  0.3023
  732MOL0     O98688   5.733   3.312   9.605 -0.2458 -0.5296 -0.3369
  732MOL0     C98689   5.603   3.365   9.634 -0.0548  0.5325 -0.0839
  732MOL0     C98690   5.567   3.497   9.675 -0.1907 -0.4492 -1.1960
  732MOL0     C98691   5.435   3.528   9.701 -0.5680 -0.3576  1.0099
  732MOL0     C98692   5.331   3.435   9.664  0.4597  0.7507  0.4938
  732MOL0     O98693   5.206   3.486   9.686  0.6720  0.2881  0.8520
  732MOL0     C98694   5.145   3.432   9.803  0.6301  0.0615 -0.9979
  732MOL0     C98695   5.019   3.498   9.856 -0.2929  0.9987 -0.5207
  732MOL0     C98696   4.928   3.561   9.755  0.4061 -0.1593  1.0962
  732MOL0     C98697   4.821   3.644   9.814  0.1962 -0.3602  0.3907
  732MOL0     C98698   4.740   3.723   9.712  0.9905  1.1021 -0.0404
  732MOL0     C98699   4.649   3.637   9.632 -0.3503 -0.3322 -0.5026
  732MOL0     C98700   4.604   3.692   9.499 -0.2601  0.0465  0.7484
  732MOL0     C98701   4.537   3.822   9.520  0.1282 -0.5646  0.4403
  732MOL0     N98702   4.491   3.880   9.391  0.0578  0.6167 -0.4444
  732MOL0     C98703   4.543   3.860   9.266 -0.3460  0.2590 -1.1262
  732MOL0     C98704   4.458   3.914   9.179  0.4322 -0.6047  0.3431
  732MOL0     C98705   4.496   3.930   9.037 -0.8090 -0.7701 -0.7388
  732MOL0     C98706   4.378   3.944   8.942 -0.2953 -0.2762  0.3248
  732MOL0     C98707   4.306   3.799   8.927 -0.6653  0.1373 -1.3128
  732MOL0     C98708   4.192   3.791   8.826  0.2893 -0.1791  0.1682
  732MOL0     O98709   4.083   3.867   8.877 -0.2979  0.5823  0.2633
  732MOL0     C98710   3.986   3.919   8.792  0.4751 -0.0899 -0.7026
  732MOL0     C98711   3.973   3.899   8.651 -0.1418  0.4399  0.0618
  732MOL0     C98712   3.862   3.934   8.578 -0.7215  0.8194 -0.5046
  732MOL0     C98713   3.859   3.903   8.428  0.0931  0.2078  0.3211
  732MOL0     C98714   3.751   3.998   8.642 -0.1092  0.5967  0.2832
  732MOL0     C98715   3.617   4.028   8.573 -0.2254 -0.3429 -0.6188
  732MOL0     O98716   3.538   4.121   8.623 -0.1011 -0.3067  0.5929
  732MOL0     C98717   3.402   4.114   8.617  0.4318  0.3829 -0.6021
  732MOL0     C98718   3.334   4.020   8.686  0.3923 -0.3159 -0.2922
  732MOL0     C98719   3.192   3.999   8.674 -0.6907  0.3234 -0.3731
  732MOL0     C98720   3.119   4.082   8.585 -0.2666 -0.1304  0.0554
  732MOL0     O98721   2.980   4.082   8.570 -0.6070  0.4768  0.3915
  732MOL0     C98722   2.900   3.985   8.639 -0.0261  0.9414 -0.0269
  732MOL0     C98723   2.845   3.881   8.544  0.1931  0.7770  0.0134
  732MOL0     C98724   2.723   3.799   8.576  0.2515  0.1230  0.0942
  732MOL0     C98725   2.735   3.739   8.716 -0.0933 -0.3875 -0.1176
  732MOL0     C98726   2.586   3.711   8.755 -0.1749 -0.1042 -0.5432
  732MOL0     C98727   2.521   3.621   8.650 -0.2047  0.1776  0.6687
  732MOL0     C98728   2.385   3.560   8.694  0.1474 -0.0966  0.8258
  732MOL0     C98729   2.311   3.504   8.566  0.2744 -0.8437  0.1608
  732MOL0    Cl98730   2.175   3.404   8.619 -0.2932 -0.5886  0.2484
  732MOL0     C98731   3.192   4.178   8.510 -0.3681 -0.0164  0.3830
  732MOL0     C98732   3.332   4.194   8.531  0.1708 -0.1279  0.1424
  732MOL0     O98733   3.590   3.961   8.477  0.3879  0.0469  0.3808
  732MOL0     C98734   3.766   4.025   8.780 -0.3561 -0.3838 -0.3100
  732MOL0     C98735   3.887   4.000   8.844  0.7014 -0.1595  0.4258
  732MOL0     N98736   4.340   3.943   9.242  0.0331 -0.0172 -0.7026
  732MOL0     N98737   4.370   3.940   9.372 -0.0904 -0.8485  0.0119
  732MOL0     C98738   5.367   3.307   9.609  0.9661 -0.1933 -0.1508
  732MOL0     C98739   5.499   3.278   9.604 -0.9840  0.7956 -0.8347
  732MOL0     C98740   5.972   3.311   9.682 -0.1980 -0.3081  0.3506
  732MOL0     C98741   6.067   3.340   9.784 -0.7015  0.0154  0.0228
  732MOL0     C98742   6.207   3.329   9.756  0.8939  0.5912  0.1875
  732MOL0     C98743   6.249   3.273   9.629  0.4706  0.5501  0.3580
  732MOL0     O98744   6.386   3.255   9.621  0.1788 -0.3169  0.3968
  732MOL0     C98745   6.429   3.183   9.499 -0.4100  0.2455 -0.6481
  732MOL0     C98746   6.581   3.181   9.484 -0.2712 -0.3416  0.2902
  732MOL0     C98747   6.634   3.316   9.431  0.7988  0.8537  0.0308
  732MOL0     C98748   6.781   3.331   9.453  0.3020  0.4413 -0.2027
  732MOL0     C98749   6.816   3.464   9.419 -0.4232 -0.1004  0.0879
  732MOL0     C98750   6.853   3.570   9.374 -0.3328 -0.6206 -0.0419
  732MOL0     C98751   6.155   3.239   9.527 -0.7878 -0.0584 -0.4003
  732MOL0     C98752   6.022   3.269   9.551  0.6258  0.6850 -0.3120
  732MOL0     H98753   5.645   3.570   9.690 -0.9224  0.2630 -0.7856
  732MOL0     H98754   5.415   3.629   9.735  0.2272  1.0398 -2.2803
  732MOL0     H98755   5.115   3.335   9.761  1.9324 -1.5984  1.6708
  732MOL0     H98756   5.220   3.430   9.882 -0.3584  0.8603 -0.0047
  732MOL0     H98757   4.959   3.427   9.914  1.0015 -1.9459 -2.5043
  732MOL0     H98758   5.056   3.565   9.934  2.1875 -2.0456  1.1821
  732MOL0     H98759   4.996   3.630   9.704 -1.4696  0.7664 -0.2652
  732MOL0     H98760   4.886   3.492   9.681  1.9528  0.2499 -0.2259
  732MOL0     H98761   4.758   3.575   9.871  0.4323 -0.9857 -0.0949
  732MOL0     H98762   4.863   3.712   9.889  3.1456  1.4639 -2.6259
  732MOL0     H98763   4.678   3.793   9.770  0.8188  2.9225 -2.2875
  732MOL0     H98764   4.808   3.781   9.650  2.6322  0.1514  0.8104
  732MOL0     H98765   4.688   3.537   9.610  1.6484  1.0824 -4.2092
  732MOL0     H98766   4.560   3.620   9.694  0.4706 -0.1917  0.7676
  732MOL0     H98767   4.691   3.704   9.435 -1.3161  1.3220 -0.5112
  732MOL0     H98768   4.532   3.620   9.458 -2.4430  0.8654  2.8913
  732MOL0     H98769   4.611   3.897   9.550 -1.2746  1.1252 -0.2318
  732MOL0     H98770   4.454   3.825   9.591 -1.7194 -0.8227 -1.6012
  732MOL0     H98771   4.645   3.826   9.251 -0.2531  0.7884 -1.7843
  732MOL0     H98772   4.566   4.014   9.034 -0.3654 -1.1679 -2.6322
  732MOL0     H98773   4.564   3.853   9.002 -0.8787  0.2669 -3.3348
  732MOL0     H98774   4.410   3.977   8.843 -2.0786 -2.8420 -1.2165
  732MOL0     H98775   4.315   4.029   8.969  1.3493  1.5426 -1.2721
  732MOL0     H98776   4.263   3.777   9.025  3.0880 -1.7388  0.0807
  732MOL0     H98777   4.377   3.718   8.911  0.4139  1.0042 -1.0368
  732MOL0     H98778   4.148   3.691   8.825  0.6854 -0.3705  1.2024
  732MOL0     H98779   4.222   3.824   8.726 -3.3142 -2.2175 -1.7776
  732MOL0     H98780   4.058   3.854   8.602  0.4006  0.2066  1.1701
  732MOL0     H98781   3.874   3.998   8.376  1.8386 -1.0548 -1.6071
  732MOL0     H98782   3.943   3.842   8.394 -2.0579 -1.5883 -2.2148
  732MOL0     H98783   3.775   3.839   8.400  0.9419 -2.1073  2.6099
  732MOL0     H98784   3.390   3.951   8.749 -0.2266  0.1837  0.8215
  732MOL0     H98785   3.144   3.936   8.748  2.0126 -1.3663  0.1116
  732MOL0     H98786   2.953   3.941   8.724  0.0753  0.0126 -0.5536
  732MOL0     H98787   2.804   4.020   8.678 -1.8200 -2.6967 -0.7034
  732MOL0     H98788   2.821   3.925   8.447 -0.1953 -2.0420 -1.2757
  732MOL0     H98789   2.932   3.818   8.523 -0.4267  0.6416 -2.5337
  732MOL0     H98790   2.724   3.719   8.501 -1.0209 -1.7544  1.9572
  732MOL0     H98791   2.647   3.877   8.563  2.2925  2.3991  1.0245
  732MOL0     H98792   2.805   3.655   8.724 -0.9046 -0.9042  2.8715
  732MOL0     H98793   2.774   3.822   8.775  0.0648 -0.1311 -0.5831
  732MOL0     H98794   2.530   3.804   8.767  3.2540  1.8373  3.2184
  732MOL0     H98795   2.582   3.673   8.858 -1.3447  2.4759  0.4673
  732MOL0     H98796   2.509   3.679   8.558 -0.5931 -1.9127 -0.6631
  732MOL0     H98797   2.592   3.541   8.625 -0.7342 -0.2514  0.5152
  732MOL0     H98798   2.317   3.632   8.741 -4.8177 -3.9748  0.3338
  732MOL0     H98799   2.406   3.480   8.765 -2.1672  0.8230  2.6613
  732MOL0     H98800   2.376   3.441   8.505  0.2891  1.3973 -2.3087
  732MOL0     H98801   2.282   3.586   8.500 -0.6030  1.1177  2.7996
  732MOL0     H98802   3.145   4.256   8.450  0.6561 -0.7829 -1.4967
  732MOL0     H98803   3.386   4.260   8.465 -3.9202  1.6944 -1.7829
  732MOL0     H98804   3.699   4.085   8.841  1.5939  2.5675 -0.8198
  732MOL0     H98805   3.886   4.019   8.951 -1.3952  1.3760  0.1968
  732MOL0     H98806   5.290   3.237   9.579 -0.7462  0.7077  1.8694
  732MOL0     H98807   5.523   3.176   9.578 -0.2741  0.2213  1.7338
  732MOL0     H98808   6.026   3.376   9.877  0.2031  2.2099 -0.3639
  732MOL0     H98809   6.279   3.350   9.834  1.3885 -1.5450  0.3754
  732MOL0     H98810   6.406   3.078   9.517 -0.9123  0.5853  0.8204
  732MOL0     H98811   6.387   3.215   9.403 -1.4729 -0.1790 -0.3399
  732MOL0     H98812   6.600   3.113   9.400  0.1438 -0.5718  0.5646
  732MOL0     H98813   6.642   3.154   9.570  2.3237  0.7656 -1.0735
  732MOL0     H98814   6.565   3.389   9.474 -0.0362  0.4690 -0.6063
  732MOL0     H98815   6.604   3.313   9.325  2.0311 -1.8234 -0.3395
  732MOL0     H98816   6.826   3.254   9.390  0.4393 -1.0478  1.6262
  732MOL0     H98817   6.794   3.313   9.560  1.9569 -1.0140 -0.6048
  732MOL0     H98818   6.867   3.665   9.327 -3.9699 -0.9444 -2.2408
  732MOL0     H98819   6.182   3.189   9.434  0.8418 -1.1878  0.6371
  732MOL0     H98820   5.950   3.254   9.472  1.0177  0.5175 -0.6406
  733MOL0     O98821   6.344   3.077   6.265 -0.4195 -0.0196 -0.3681
  733MOL0     C98822   6.369   2.985   6.332 -0.7182  0.2033  0.0677
  733MOL0     O98823   6.326   2.961   6.457 -0.2873  0.4139 -0.6397
  733MOL0     C98824   6.253   3.049   6.518  0.0860  0.0677  0.8720
  733MOL0     C98825   6.140   2.998   6.586  0.2919  0.0625  0.1228
  733MOL0     C98826   6.039   3.079   6.643  0.1516 -0.1471  0.2900
  733MOL0     C98827   6.052   3.224   6.647  0.0477  0.6218  0.2017
  733MOL0     O98828   5.956   3.296   6.709  0.3188 -0.5639 -0.4305
  733MOL0     C98829   5.998   3.403   6.794 -0.7465 -0.6439  0.9337
  733MOL0     C98830   5.917   3.398   6.927  0.4747 -0.2156 -0.4154
  733MOL0     C98831   5.943   3.269   7.007  1.3429  0.5856  0.1372
  733MOL0     C98832   5.871   3.268   7.146  0.4243 -0.5533  0.7442
  733MOL0     C98833   5.951   3.314   7.273 -0.8551 -0.0193  0.4372
  733MOL0     C98834   5.879   3.329   7.406  0.6382  0.6053 -1.3974
  733MOL0     C98835   5.755   3.420   7.414 -0.5371 -0.4132 -0.4624
  733MOL0     C98836   5.789   3.555   7.338 -0.0349  0.5367  0.3669
  733MOL0     N98837   5.676   3.649   7.341 -0.4398 -0.3106 -0.1810
  733MOL0     C98838   5.571   3.638   7.253  0.3741  0.0662  0.1067
  733MOL0     C98839   5.494   3.744   7.293  0.0113  0.8814  0.4635
  733MOL0     C98840   5.357   3.780   7.254  0.6212  0.9359  0.5564
  733MOL0     C98841   5.257   3.671   7.287 -0.2599 -0.1055  1.0742
  733MOL0     C98842   5.128   3.695   7.213 -0.1042  0.1280 -0.4860
  733MOL0     C98843   5.015   3.598   7.250 -0.4610 -0.2219 -0.1655
  733MOL0     O98844   4.894   3.634   7.187 -1.2878 -0.0260 -0.6064
  733MOL0     C98845   4.794   3.543   7.201  0.3165  0.7959 -0.6417
  733MOL0     C98846   4.805   3.406   7.241  0.4086 -0.8009 -0.1352
  733MOL0     C98847   4.690   3.318   7.241 -0.3051 -0.0548  0.5503
  733MOL0     C98848   4.727   3.182   7.285  0.4751 -0.0227 -0.2570
  733MOL0     C98849   4.571   3.359   7.193  0.2032  0.0951  0.0527
  733MOL0     C98850   4.458   3.267   7.154 -0.0705  0.5004 -0.4868
  733MOL0     O98851   4.338   3.334   7.143 -1.1538  0.4990  0.3756
  733MOL0     C98852   4.227   3.260   7.135 -0.3684  0.4283  0.5741
  733MOL0     C98853   4.170   3.225   7.007 -0.8009 -0.1280 -0.5882
  733MOL0     C98854   4.046   3.165   7.001  0.2479 -0.5569  0.9716
  733MOL0     C98855   3.966   3.146   7.112  0.2006 -0.3618 -0.3130
  733MOL0     O98856   3.830   3.106   7.107 -0.2549  0.4751  0.0417
  733MOL0     C98857   3.758   3.105   6.979 -0.1407  0.4810 -1.3296
  733MOL0     C98858   3.617   3.044   6.979 -0.4346 -0.3612 -0.2554
  733MOL0     C98859   3.565   3.048   6.837  0.5413  0.7372  0.0927
  733MOL0     C98860   3.418   2.985   6.823 -0.2415 -0.6007  0.6368
  733MOL0     C98861   3.355   3.019   6.693  0.2405  0.6609  0.2035
  733MOL0     C98862   3.218   2.962   6.668  0.0191  0.0922  0.0238
  733MOL0     C98863   3.122   3.043   6.767  0.1076  0.1105  0.0426
  733MOL0     C98864   2.970   3.031   6.738 -0.4680  0.6549 -0.0306
  733MOL0    Cl98865   2.956   3.066   6.564  0.7281  0.4542  0.2733
  733MOL0     C98866   4.024   3.191   7.236  0.6802 -0.3912  0.8028
  733MOL0     C98867   4.145   3.246   7.248 -0.3156 -0.1521 -0.2866
  733MOL0     O98868   4.469   3.144   7.146 -0.1829  0.3459  0.1377
  733MOL0     C98869   4.559   3.495   7.171  0.3128 -0.1769  0.2133
  733MOL0     C98870   4.669   3.583   7.173  1.1308  0.3617 -0.5018
  733MOL0     N98871   5.563   3.816   7.392 -0.0648  0.2948  1.1690
  733MOL0     N98872   5.668   3.763   7.421  0.2501  0.1320 -1.2900
  733MOL0     C98873   6.173   3.271   6.590 -0.8028 -0.1563 -0.6142
  733MOL0     C98874   6.267   3.189   6.518  0.0424 -0.1618 -0.4863
  733MOL0     C98875   6.477   2.894   6.277  0.1805  1.4157  0.9048
  733MOL0     C98876   6.496   2.759   6.315 -1.4282 -0.7872  0.4508
  733MOL0     C98877   6.604   2.680   6.263 -0.0599 -0.7375 -0.1451
  733MOL0     C98878   6.703   2.748   6.192 -0.1477 -0.5544  0.4333
  733MOL0     O98879   6.801   2.661   6.145  0.0484 -0.9011  0.0555
  733MOL0     C98880   6.926   2.703   6.090  0.4453 -0.0296  0.4932
  733MOL0     C98881   6.994   2.563   6.073  0.5621  0.7366  0.4663
  733MOL0     C98882   6.931   2.475   5.964  0.2364 -0.2550  0.0178
  733MOL0     C98883   7.008   2.342   5.933  0.4095  0.2778 -0.3280
  733MOL0     C98884   7.151   2.345   5.918 -0.4856 -0.4329 -0.5463
  733MOL0     C98885   7.267   2.356   5.896 -1.0102  0.4535 -0.4366
  733MOL0     C98886   6.686   2.879   6.141  0.4602 -0.7343 -0.3428
  733MOL0     C98887   6.568   2.946   6.174 -0.6580 -0.3146 -0.2380
  733MOL0     H98888   6.142   2.891   6.602  1.0466 -0.2750 -1.9334
  733MOL0     H98889   5.945   3.045   6.683 -0.8405  0.9737 -0.9630
  733MOL0     H98890   6.106   3.395   6.813  0.2618  2.0653 -2.4473
  733MOL0     H98891   5.984   3.499   6.743 -2.5902 -1.9954 -1.3149
  733MOL0     H98892   5.948   3.487   6.983  0.3007 -0.2854 -0.2062
  733MOL0     H98893   5.812   3.396   6.897  1.3470 -0.0851 -3.9162
  733MOL0     H98894   5.910   3.186   6.944  1.8673  0.3471  0.1746
  733MOL0     H98895   6.051   3.253   7.011  1.4889  1.4884  0.1799
  733MOL0     H98896   5.783   3.333   7.131 -0.0613 -1.5537 -0.9987
  733MOL0     H98897   5.833   3.167   7.163 -0.2735 -0.7957 -1.8131
  733MOL0     H98898   6.042   3.252   7.280  0.9729  1.8222 -3.4451
  733MOL0     H98899   5.998   3.409   7.247  2.7676 -1.4983  0.9134
  733MOL0     H98900   5.867   3.229   7.450 -3.7636  1.1716 -0.8305
  733MOL0     H98901   5.944   3.374   7.481 -2.4871  0.4377  1.7006
  733MOL0     H98902   5.669   3.369   7.370  0.2370 -0.2364 -2.2811
  733MOL0     H98903   5.725   3.449   7.515 -1.7487 -0.6318 -0.7493
  733MOL0     H98904   5.820   3.533   7.235  0.4627  0.0114  0.6233
  733MOL0     H98905   5.873   3.599   7.392 -0.4138  0.2278  1.2178
  733MOL0     H98906   5.562   3.553   7.185  1.2659  0.2631 -0.2642
  733MOL0     H98907   5.330   3.871   7.309 -0.1655  1.1095 -0.0882
  733MOL0     H98908   5.355   3.796   7.146  1.0565 -0.6705  0.2923
  733MOL0     H98909   5.224   3.669   7.392 -0.9047 -0.7123  0.8698
  733MOL0     H98910   5.295   3.574   7.255  1.1156  1.0271 -0.9098
  733MOL0     H98911   5.152   3.681   7.107 -1.9308  1.1375 -1.0902
  733MOL0     H98912   5.091   3.798   7.218 -0.5678 -0.0629  0.1400
  733MOL0     H98913   5.002   3.573   7.356  2.7522  0.3734  0.4808
  733MOL0     H98914   5.055   3.503   7.213  2.9233  0.2443  1.8374
  733MOL0     H98915   4.898   3.367   7.280  0.3616 -0.2396  0.5516
  733MOL0     H98916   4.638   3.145   7.338 -0.8077  1.4385 -1.2958
  733MOL0     H98917   4.727   3.112   7.201  0.2458  0.4723 -0.6798
  733MOL0     H98918   4.819   3.173   7.343 -1.3924 -2.1685  2.6276
  733MOL0     H98919   4.224   3.257   6.919 -1.6267 -0.1177 -1.1054
  733MOL0     H98920   4.007   3.133   6.904  0.6874 -0.7512  0.8533
  733MOL0     H98921   3.760   3.206   6.937  1.4679 -0.0182 -2.5306
  733MOL0     H98922   3.802   3.040   6.903 -0.3672  0.5688 -1.5417
  733MOL0     H98923   3.629   2.939   7.008 -1.4856 -0.8674 -1.5385
  733MOL0     H98924   3.552   3.093   7.052  0.6697  1.1013 -0.1983
  733MOL0     H98925   3.633   2.998   6.767 -2.9311 -2.6939 -1.1916
  733MOL0     H98926   3.558   3.154   6.813  0.2857  0.9366  1.0220
  733MOL0     H98927   3.423   2.878   6.843 -2.1456 -0.1204  4.6110
  733MOL0     H98928   3.351   3.023   6.900  0.7734 -0.2806  1.3897
  733MOL0     H98929   3.419   2.979   6.614  0.3249  2.0283 -0.4598
  733MOL0     H98930   3.359   3.128   6.682  1.0148  0.6483  0.3068
  733MOL0     H98931   3.195   2.975   6.562  4.0603 -0.4983 -1.0996
  733MOL0     H98932   3.222   2.853   6.683 -2.5608  0.0246  0.7802
  733MOL0     H98933   3.137   3.151   6.766 -2.7940  0.7147  3.0001
  733MOL0     H98934   3.134   3.010   6.871 -3.8668 -1.4022  0.1954
  733MOL0     H98935   2.916   3.106   6.796  0.8910  1.8732 -0.2672
  733MOL0     H98936   2.933   2.930   6.756 -2.1278  1.3931  0.9561
  733MOL0     H98937   3.968   3.159   7.323  0.3107  0.6626  0.9604
  733MOL0     H98938   4.189   3.271   7.344 -0.9006 -1.9370  0.4953
  733MOL0     H98939   4.466   3.547   7.149 -0.6956 -1.6504  0.8126
  733MOL0     H98940   4.646   3.684   7.142  0.9589  0.3067 -0.5572
  733MOL0     H98941   6.193   3.377   6.581  0.5246 -0.4470 -1.4710
  733MOL0     H98942   6.346   3.240   6.463 -0.8986 -0.6104 -2.3455
  733MOL0     H98943   6.432   2.705   6.384  0.5137 -1.6838  1.6538
  733MOL0     H98944   6.610   2.574   6.281 -3.8440 -1.5849 -2.7321
  733MOL0     H98945   6.910   2.736   5.987  1.0141 -2.4869 -0.4670
  733MOL0     H98946   6.970   2.785   6.148  1.1864  0.6977 -1.0389
  733MOL0     H98947   6.975   2.514   6.168 -4.6422  0.1812 -0.5366
  733MOL0     H98948   7.098   2.582   6.046  0.8092 -0.0997  0.8025
  733MOL0     H98949   6.929   2.533   5.871 -1.2819  3.8070  2.3665
  733MOL0     H98950   6.829   2.442   5.982  0.2162 -0.7719 -0.9719
  733MOL0     H98951   6.968   2.290   5.845  1.1239  1.1048 -1.1617
  733MOL0     H98952   6.981   2.263   6.004  0.4294  1.3636  0.9355
  733MOL0     H98953   7.373   2.369   5.885 -1.0785  0.1939 -1.4843
  733MOL0     H98954   6.760   2.917   6.072 -1.2750  0.1193 -1.8226
  733MOL0     H98955   6.560   3.050   6.144  0.4124 -0.6335 -1.7905
  734MOL0     O98956   1.440   5.017   3.046  0.0900  0.2025 -0.6516
  734MOL0     C98957   1.541   4.983   3.117  0.7326 -1.1871  0.3387
  734MOL0     O98958   1.536   4.881   3.208  0.6733 -0.3598 -0.3499
  734MOL0     C98959   1.416   4.814   3.225 -0.6249 -0.0003 -0.3051
  734MOL0     C98960   1.434   4.678   3.205  0.1713  0.4345  0.5055
  734MOL0     C98961   1.327   4.586   3.225 -0.1643  0.2688  0.1751
  734MOL0     C98962   1.204   4.638   3.274  0.6742 -0.2405 -0.7914
  734MOL0     O98963   1.094   4.559   3.288 -0.1502  0.6224  0.1027
  734MOL0     C98964   1.107   4.414   3.312 -0.9732 -1.0133  0.5684
  734MOL0     C98965   0.973   4.348   3.338  0.2455 -0.0458 -0.6913
  734MOL0     C98966   0.893   4.423   3.458 -0.3400  0.9661 -0.1760
  734MOL0     C98967   0.758   4.349   3.483  0.3224 -0.7669  0.9193
  734MOL0     C98968   0.706   4.400   3.625  0.8355  0.1591  0.9085
  734MOL0     C98969   0.574   4.324   3.660 -0.4886 -0.7386  1.2797
  734MOL0     C98970   0.466   4.314   3.549 -0.5915  0.4858 -0.0245
  734MOL0     C98971   0.326   4.238   3.584 -0.5557  0.3737  0.2232
  734MOL0     N98972   0.201   4.271   3.500 -1.1140  0.1164 -0.3525
  734MOL0     C98973   0.130   4.394   3.496 -0.4167  0.4309 -0.2810
  734MOL0     C98974   0.013   4.369   3.430 -0.1908  0.5818  0.2253
  734MOL0     C98975  -0.096   4.461   3.386  0.9213  0.9960 -0.0679
  734MOL0     C98976  -0.090   4.598   3.443 -0.5257 -0.3564  0.2475
  734MOL0     C98977  -0.198   4.694   3.400  0.3494  1.1692 -0.2932
  734MOL0     C98978  -0.193   4.826   3.469  0.0447 -0.1857 -0.0853
  734MOL0     O98979  -0.097   4.921   3.435  0.6441  0.0892 -0.0331
  734MOL0     C98980   0.026   4.877   3.481 -0.1443 -0.1418  0.2039
  734MOL0     C98981   0.052   4.862   3.620  0.2408  0.2868 -0.2982
  734MOL0     C98982   0.170   4.817   3.680 -0.0217 -0.8008  0.6549
  734MOL0     C98983   0.165   4.805   3.829  1.0824  0.2458  0.8140
  734MOL0     C98984   0.281   4.798   3.596  0.8799  0.1454  0.1976
  734MOL0     C98985   0.406   4.760   3.654  0.3011 -0.0925 -0.4978
  734MOL0     O98986   0.511   4.777   3.573  0.1980 -0.5608 -0.6344
  734MOL0     C98987   0.641   4.797   3.605 -0.6816 -0.4011  0.1078
  734MOL0     C98988   0.701   4.770   3.726 -0.8562  0.3776  0.0616
  734MOL0     C98989   0.845   4.786   3.742  0.3297  0.4440  0.8604
  734MOL0     C98990   0.924   4.820   3.629 -0.3312  0.3564  0.2830
  734MOL0     O98991   1.064   4.819   3.632 -0.1471 -0.0489  0.3055
  734MOL0     C98992   1.134   4.743   3.735  0.2925 -0.2003 -0.6448
  734MOL0     C98993   1.279   4.714   3.697 -0.2656  0.4800  0.1966
  734MOL0     C98994   1.353   4.846   3.671 -1.0170 -0.2961 -0.1051
  734MOL0     C98995   1.507   4.808   3.664  0.3141  0.1006 -0.3051
  734MOL0     C98996   1.598   4.926   3.619  0.1921  0.3626  0.4511
  734MOL0     C98997   1.736   4.905   3.662 -0.4412 -0.3754  1.0721
  734MOL0     C98998   1.788   4.766   3.623 -0.2260  0.3474 -0.2188
  734MOL0     C98999   1.819   4.745   3.477  0.2335 -0.1579  0.6032
  734MOL0    Cl99000   1.953   4.853   3.434 -0.3172 -0.2539 -0.5258
  734MOL0     C99001   0.866   4.839   3.507  0.3132 -0.6269  0.5465
  734MOL0     C99002   0.724   4.824   3.495 -0.2022  0.2786  0.0777
  734MOL0     O99003   0.415   4.712   3.768 -0.4881 -0.6528 -0.5944
  734MOL0     C99004   0.264   4.838   3.455  0.0441 -0.1993 -0.7086
  734MOL0     C99005   0.137   4.876   3.398  0.1932 -0.2986  0.0832
  734MOL0     N99006   0.020   4.230   3.390  0.0121  0.4209  0.2559
  734MOL0     N99007   0.129   4.172   3.439 -0.1510  0.0338  0.0014
  734MOL0     C99008   1.189   4.775   3.303 -0.4107 -0.9226  1.0747
  734MOL0     C99009   1.298   4.859   3.278  0.1408  0.0032  0.3324
  734MOL0     C99010   1.647   5.093   3.125 -1.0393  0.3163  0.4770
  734MOL0     C99011   1.745   5.084   3.228  0.0802 -0.3222 -0.0715
  734MOL0     C99012   1.839   5.184   3.255 -0.3516  0.4174  0.4621
  734MOL0     C99013   1.848   5.287   3.165  0.3782  0.8548  0.2314
  734MOL0     O99014   1.952   5.375   3.181  1.0026  0.1508  0.7287
  734MOL0     C99015   1.922   5.507   3.121  1.0528  0.2527 -0.4139
  734MOL0     C99016   2.003   5.624   3.168 -0.1752 -0.6061 -0.1475
  734MOL0     C99017   2.157   5.596   3.138 -0.8084 -0.0523 -0.5807
  734MOL0     C99018   2.241   5.723   3.167  0.3564 -0.5521 -0.7612
  734MOL0     C99019   2.219   5.842   3.073 -0.0091 -0.3936  0.4176
  734MOL0     C99020   2.205   5.939   3.001  0.1251  0.3211 -0.8827
  734MOL0     C99021   1.750   5.298   3.060 -0.1614  0.0582  0.6136
  734MOL0     C99022   1.645   5.208   3.041 -0.7099 -0.5818 -0.0241
  734MOL0     H99023   1.526   4.630   3.175  0.0047 -0.9524  2.0946
  734MOL0     H99024   1.349   4.480   3.219  2.4160  0.7686 -0.6661
  734MOL0     H99025   1.157   4.367   3.227 -2.1017  0.7915 -1.1873
  734MOL0     H99026   1.172   4.409   3.399  1.9092 -0.1537 -1.4049
  734MOL0     H99027   0.924   4.348   3.240 -1.1133 -0.7570 -0.0431
  734MOL0     H99028   0.982   4.243   3.365 -1.3872 -0.0743 -0.1764
  734MOL0     H99029   0.955   4.416   3.548  0.8026  2.1406 -0.8262
  734MOL0     H99030   0.868   4.527   3.436 -0.4030  1.3149  1.4239
  734MOL0     H99031   0.698   4.373   3.395 -0.3622 -2.1036  1.0030
  734MOL0     H99032   0.761   4.240   3.480 -1.5790 -0.8310 -1.7731
  734MOL0     H99033   0.779   4.386   3.706  0.1681 -0.0839  1.4770
  734MOL0     H99034   0.681   4.507   3.631  0.1312 -0.0318  1.5427
  734MOL0     H99035   0.609   4.225   3.689  0.8219 -0.7111 -0.0788
  734MOL0     H99036   0.522   4.370   3.745  0.5937  1.3212  0.8873
  734MOL0     H99037   0.433   4.414   3.517  0.2711  0.6462 -0.4231
  734MOL0     H99038   0.511   4.263   3.464  0.6793  0.3372  0.7132
  734MOL0     H99039   0.305   4.260   3.689  3.3657 -1.1961  1.5436
  734MOL0     H99040   0.341   4.130   3.580 -1.0193  0.2675  1.0908
  734MOL0     H99041   0.163   4.486   3.543  0.4533 -0.2576  0.4924
  734MOL0     H99042  -0.098   4.477   3.278 -3.0429 -2.7466 -0.8360
  734MOL0     H99043  -0.191   4.410   3.407 -1.2137  3.4662 -2.8881
  734MOL0     H99044   0.004   4.640   3.406  0.7039 -2.4534  0.8351
  734MOL0     H99045  -0.088   4.587   3.551 -1.1675 -1.6228  0.1510
  734MOL0     H99046  -0.300   4.658   3.416  1.3417 -0.4494  3.4835
  734MOL0     H99047  -0.181   4.702   3.292 -1.9714 -0.7865 -0.8749
  734MOL0     H99048  -0.193   4.801   3.576 -2.5076 -0.3379 -0.0706
  734MOL0     H99049  -0.288   4.877   3.452 -3.7849 -5.4522  2.5105
  734MOL0     H99050  -0.034   4.877   3.684  0.4529 -1.8471  0.5798
  734MOL0     H99051   0.177   4.701   3.862  3.4551  0.9269  2.3071
  734MOL0     H99052   0.243   4.865   3.875  1.3834  0.5695 -0.0941
  734MOL0     H99053   0.075   4.845   3.876  1.0430  1.1935 -0.0310
  734MOL0     H99054   0.637   4.759   3.813  0.4684  0.4273  1.0644
  734MOL0     H99055   0.885   4.748   3.835 -0.0462  1.5030  1.4729
  734MOL0     H99056   1.142   4.786   3.835  1.2713  0.9673 -1.1952
  734MOL0     H99057   1.075   4.652   3.749 -3.4528  1.5936 -3.0672
  734MOL0     H99058   1.325   4.659   3.780 -0.3573  1.2874  0.7919
  734MOL0     H99059   1.287   4.651   3.608 -0.0694 -0.6308  0.9697
  734MOL0     H99060   1.331   4.919   3.750  2.2000  1.0236 -0.2501
  734MOL0     H99061   1.309   4.906   3.591 -0.0607  0.0955 -0.3566
  734MOL0     H99062   1.540   4.766   3.760  0.4563  1.7133  0.3778
  734MOL0     H99063   1.516   4.736   3.582  1.9725  0.3327 -0.3434
  734MOL0     H99064   1.561   5.020   3.662  1.7678  0.2654  2.0990
  734MOL0     H99065   1.594   4.942   3.510 -0.0383  2.2335  0.7040
  734MOL0     H99066   1.809   4.974   3.620 -0.8396 -1.0089 -0.7109
  734MOL0     H99067   1.742   4.910   3.772  1.5311 -3.6912  1.2387
  734MOL0     H99068   1.724   4.685   3.661 -1.2947  1.5161  0.5258
  734MOL0     H99069   1.888   4.750   3.663  1.5383  0.8943 -3.9194
  734MOL0     H99070   1.731   4.758   3.413  1.4867  0.1138 -1.1047
  734MOL0     H99071   1.846   4.641   3.456  0.4885  0.1363 -0.5770
  734MOL0     H99072   0.938   4.859   3.428 -0.0908  0.4511  0.4335
  734MOL0     H99073   0.676   4.841   3.399  1.1269 -2.1733 -1.1105
  734MOL0     H99074   0.353   4.823   3.396  2.6238 -1.1133  3.0676
  734MOL0     H99075   0.145   4.905   3.294 -1.3498 -0.4684 -0.1149
  734MOL0     H99076   1.090   4.803   3.336 -0.8368  0.4286 -1.1401
  734MOL0     H99077   1.293   4.965   3.302 -0.2391 -0.3674  1.9837
  734MOL0     H99078   1.742   5.005   3.303 -1.2280 -0.8974 -0.7044
  734MOL0     H99079   1.907   5.166   3.337 -2.0102 -0.4982  1.7068
  734MOL0     H99080   1.932   5.507   3.012  0.6010  0.9246 -0.4628
  734MOL0     H99081   1.818   5.533   3.142  0.4773 -2.2303  0.0850
  734MOL0     H99082   1.991   5.622   3.276 -0.3121 -2.4686 -0.1625
  734MOL0     H99083   1.967   5.723   3.141  3.4733  1.1317  0.6957
  734MOL0     H99084   2.166   5.578   3.030  2.4663  0.9392 -0.5898
  734MOL0     H99085   2.196   5.509   3.191 -0.3453 -0.1787 -1.1087
  734MOL0     H99086   2.347   5.696   3.158  0.0382 -1.4087 -2.2513
  734MOL0     H99087   2.242   5.762   3.270  4.2079 -0.1882 -0.7664
  734MOL0     H99088   2.194   6.015   2.927  0.5051 -1.1819 -2.5288
  734MOL0     H99089   1.769   5.373   2.984 -0.9323  1.0080  1.3339
  734MOL0     H99090   1.582   5.216   2.952  0.2648 -1.2491 -0.7978
  735MOL0     O99091   9.762   4.191   7.403  0.6355  1.3965 -0.1059
  735MOL0     C99092   9.888   4.193   7.402  1.2019 -0.4156  0.3611
  735MOL0     O99093   9.968   4.106   7.461 -0.3360 -0.0917 -0.4187
  735MOL0     C99094   9.910   4.018   7.552 -1.1916 -0.3578  0.4765
  735MOL0     C99095   9.900   4.050   7.690 -0.0694  0.3258 -0.9074
  735MOL0     C99096   9.841   3.968   7.781 -0.7625  0.5934  0.9933
  735MOL0     C99097   9.791   3.847   7.741  0.6139  0.4187 -0.4778
  735MOL0     O99098   9.741   3.746   7.817  0.3960  0.3047 -0.8666
  735MOL0     C99099   9.721   3.779   7.964  1.0384  0.3831  0.4708
  735MOL0     C99100   9.665   3.646   8.029 -0.3852 -0.3523 -0.4158
  735MOL0     C99101   9.522   3.632   8.066 -0.1458 -0.6450  0.1422
  735MOL0     C99102   9.510   3.497   8.136  0.0841  0.0232 -0.3693
  735MOL0     C99103   9.363   3.455   8.146 -0.4917 -0.1034  0.2896
  735MOL0     C99104   9.350   3.351   8.257 -0.2540  0.6249 -0.4102
  735MOL0     C99105   9.201   3.319   8.275  1.1093 -0.0159 -0.1095
  735MOL0     C99106   9.175   3.200   8.360 -0.6758  0.6362  1.6423
  735MOL0     N99107   9.029   3.182   8.370 -1.1050  0.2206 -0.2743
  735MOL0     C99108   8.952   3.253   8.464  0.1779  0.5468 -0.2940
  735MOL0     C99109   8.831   3.232   8.420 -0.7228  0.3734  0.3982
  735MOL0     C99110   8.709   3.271   8.490 -0.0779 -0.1211 -0.0352
  735MOL0     C99111   8.656   3.162   8.585 -0.7962  0.1033 -0.1609
  735MOL0     C99112   8.530   3.208   8.666 -0.4927 -0.0146 -0.5301
  735MOL0     C99113   8.410   3.242   8.575  0.1448 -0.2121  0.2300
  735MOL0     O99114   8.306   3.309   8.650 -0.8325  0.2550  0.2658
  735MOL0     C99115   8.188   3.243   8.661  0.1072 -0.4685  0.3976
  735MOL0     C99116   8.101   3.216   8.551  0.1116  0.5975 -0.0369
  735MOL0     C99117   7.977   3.154   8.573 -0.1170  0.0994 -0.6964
  735MOL0     C99118   7.909   3.110   8.446 -0.1177  0.0061 -0.0686
  735MOL0     C99119   7.940   3.115   8.710 -0.1857 -0.0101  0.3955
  735MOL0     C99120   7.811   3.058   8.757 -0.4150  0.0037 -0.2890
  735MOL0     O99121   7.703   3.090   8.686  0.2790  0.4015  1.3311
  735MOL0     C99122   7.571   3.062   8.730 -0.0539 -0.0136 -0.1753
  735MOL0     C99123   7.524   3.077   8.860  0.7394 -0.6470 -1.2812
  735MOL0     C99124   7.385   3.044   8.877  0.0516 -0.5619 -0.3012
  735MOL0     C99125   7.296   2.997   8.783 -0.6312  0.2055  0.8068
  735MOL0     O99126   7.165   2.964   8.812  0.4091 -0.5853 -0.2289
  735MOL0     C99127   7.079   2.983   8.697 -1.1110  0.2035  0.0043
  735MOL0     C99128   6.932   2.970   8.740  0.4019  0.5543 -0.2153
  735MOL0     C99129   6.844   2.983   8.628  0.3682 -0.1727 -0.0961
  735MOL0     C99130   6.690   2.974   8.656 -0.1798 -0.3951 -0.4439
  735MOL0     C99131   6.617   3.014   8.528 -0.5474 -0.9152 -0.1561
  735MOL0     C99132   6.466   2.987   8.551  0.5706 -0.7757 -0.1491
  735MOL0     C99133   6.368   3.099   8.500 -0.7658 -0.0702  0.2711
  735MOL0     C99134   6.213   3.075   8.533  0.4814 -0.6497 -0.6862
  735MOL0    Cl99135   6.101   3.170   8.437  0.0273  0.0914 -0.1486
  735MOL0     C99136   7.359   2.970   8.661  0.4555 -0.3558 -0.0113
  735MOL0     C99137   7.491   3.008   8.632  0.1141 -0.2822  0.5336
  735MOL0     O99138   7.811   2.996   8.868 -0.0219 -0.2112  0.4546
  735MOL0     C99139   8.035   3.140   8.817  0.0700  0.0924  0.6226
  735MOL0     C99140   8.142   3.228   8.789 -0.7684  1.3028 -0.7582
  735MOL0     N99141   8.830   3.164   8.306 -0.2940  0.3979 -0.1708
  735MOL0     N99142   8.952   3.128   8.278  0.4385  0.4364  0.3364
  735MOL0     C99143   9.804   3.801   7.613  0.4616 -0.5560 -0.0469
  735MOL0     C99144   9.861   3.889   7.512  0.2919 -0.1970 -0.0279
  735MOL0     C99145   9.947   4.287   7.305 -0.7926 -0.1653  0.3480
  735MOL0     C99146   9.871   4.371   7.218  0.7515 -0.5440 -0.4457
  735MOL0     C99147   9.927   4.458   7.121 -0.4697 -0.6248  0.5225
  735MOL0     C99148  10.067   4.479   7.132 -0.6810 -0.3643  0.1651
  735MOL0     O99149  10.120   4.579   7.057 -0.4410 -0.8580  0.7630
  735MOL0     C99150  10.248   4.632   7.097  0.3132  0.8889  0.0471
  735MOL0     C99151  10.278   4.744   7.001  0.4202 -0.4565  0.2150
  735MOL0     C99152  10.381   4.839   7.058  0.4881  0.5646  0.1252
  735MOL0     C99153  10.426   4.927   6.938 -0.2839 -0.2750 -0.8626
  735MOL0     C99154  10.328   5.036   6.915  0.2293 -0.5976 -0.3429
  735MOL0     C99155  10.249   5.121   6.877  0.5467 -0.3259  0.0026
  735MOL0     C99156  10.139   4.405   7.222  0.0065 -0.5661  0.7603
  735MOL0     C99157  10.082   4.305   7.302  0.2978  0.2275  0.3204
  735MOL0     H99158   9.952   4.141   7.720 -2.1103  1.8875 -1.8318
  735MOL0     H99159   9.819   4.018   7.875  0.8082  1.5155  0.9115
  735MOL0     H99160   9.801   3.821   8.026 -0.7388  1.2779  2.3109
  735MOL0     H99161   9.656   3.867   7.962 -0.6814 -0.8291 -2.6771
  735MOL0     H99162   9.692   3.564   7.960  2.3490 -0.4438  0.6250
  735MOL0     H99163   9.728   3.639   8.118  0.0730  0.7503 -0.6367
  735MOL0     H99164   9.496   3.715   8.133 -2.9785 -0.6800 -0.7778
  735MOL0     H99165   9.459   3.647   7.978  1.5310 -1.3231 -1.2055
  735MOL0     H99166   9.563   3.416   8.085  0.7189 -0.2328  0.6757
  735MOL0     H99167   9.547   3.515   8.237  0.1598  0.1904 -0.4266
  735MOL0     H99168   9.299   3.541   8.167 -1.1019  0.4572 -3.2760
  735MOL0     H99169   9.334   3.416   8.049 -1.0724 -0.9602  0.7962
  735MOL0     H99170   9.406   3.262   8.227 -0.7038  0.6353 -1.3303
  735MOL0     H99171   9.395   3.396   8.346  1.8437 -1.1810 -0.4672
  735MOL0     H99172   9.155   3.410   8.316 -1.7609 -0.3784 -2.1945
  735MOL0     H99173   9.152   3.300   8.179  0.9365  2.6101 -0.6294
  735MOL0     H99174   9.212   3.210   8.463 -0.3324  2.0235  1.4071
  735MOL0     H99175   9.211   3.109   8.310 -1.0712  0.4122  1.7644
  735MOL0     H99176   8.984   3.321   8.543 -0.1369  1.2475 -0.7624
  735MOL0     H99177   8.726   3.358   8.555  2.3789 -0.9933  0.6001
  735MOL0     H99178   8.637   3.296   8.411  2.1910 -0.8738 -2.4850
  735MOL0     H99179   8.738   3.147   8.655 -2.4351  0.1125  1.8622
  735MOL0     H99180   8.636   3.066   8.538  0.5491  0.6046 -1.8663
  735MOL0     H99181   8.561   3.293   8.727  2.5337 -0.3748 -1.4220
  735MOL0     H99182   8.496   3.128   8.734 -4.4546  0.1578 -2.0368
  735MOL0     H99183   8.372   3.152   8.527 -0.7320  1.3380 -2.1693
  735MOL0     H99184   8.437   3.297   8.484 -0.8889 -0.5636 -0.3001
  735MOL0     H99185   8.140   3.219   8.450  0.0245 -0.4275 -0.1059
  735MOL0     H99186   7.976   3.143   8.367  2.0784 -1.0542  1.2503
  735MOL0     H99187   7.882   3.004   8.455  0.4083 -0.0739  0.6938
  735MOL0     H99188   7.816   3.168   8.439  0.0760  0.4974  1.1631
  735MOL0     H99189   7.591   3.100   8.942 -3.2275  4.2603  1.1288
  735MOL0     H99190   7.348   3.058   8.978 -0.1067 -2.4172 -0.0702
  735MOL0     H99191   7.099   3.087   8.669 -0.9760 -0.0194 -0.7413
  735MOL0     H99192   7.097   2.920   8.610 -0.3365 -0.1780  0.4266
  735MOL0     H99193   6.913   2.874   8.789  0.6862  1.4797  1.8292
  735MOL0     H99194   6.909   3.047   8.815  0.2768 -0.1605  0.4920
  735MOL0     H99195   6.869   2.909   8.551 -3.3473 -0.1688 -1.5418
  735MOL0     H99196   6.876   3.082   8.594  2.6060  0.1858  2.6895
  735MOL0     H99197   6.668   2.870   8.680 -1.2053 -0.0456  0.2021
  735MOL0     H99198   6.651   3.024   8.745 -2.5480 -0.7992 -1.1872
  735MOL0     H99199   6.669   2.988   8.435  1.4342  0.0099  0.6359
  735MOL0     H99200   6.630   3.123   8.523 -0.0125 -1.0236 -3.5515
  735MOL0     H99201   6.434   2.890   8.512  2.3403 -2.5895  2.5466
  735MOL0     H99202   6.447   2.973   8.658 -1.2462 -1.0601 -0.4852
  735MOL0     H99203   6.381   3.101   8.392 -2.0110 -0.9361  0.0834
  735MOL0     H99204   6.398   3.193   8.545  0.6443 -1.5851  2.7218
  735MOL0     H99205   6.191   3.091   8.639 -1.4703  3.0179 -1.4775
  735MOL0     H99206   6.190   2.968   8.527 -0.9050 -0.4394  0.1543
  735MOL0     H99207   7.301   2.941   8.574 -2.1251  0.7670  1.2491
  735MOL0     H99208   7.528   2.995   8.530  2.6604 -1.0505  1.4836
  735MOL0     H99209   7.999   3.126   8.918 -2.1565 -0.0204 -0.1285
  735MOL0     H99210   8.200   3.266   8.872 -2.7821  0.9037  0.9034
  735MOL0     H99211   9.766   3.701   7.592 -0.0970 -0.8553  2.1379
  735MOL0     H99212   9.850   3.864   7.407 -0.3861 -0.4631  0.0970
  735MOL0     H99213   9.763   4.372   7.229  0.5540  0.7946 -2.1772
  735MOL0     H99214   9.855   4.512   7.060  0.2086  0.6535  0.8030
  735MOL0     H99215  10.245   4.664   7.201  3.7625 -0.1007  0.5611
  735MOL0     H99216  10.328   4.557   7.092 -2.1609 -1.9073 -0.7266
  735MOL0     H99217  10.188   4.801   6.974  0.2982 -0.8074 -0.1136
  735MOL0     H99218  10.326   4.698   6.914 -0.8501  1.6777 -1.7240
  735MOL0     H99219  10.467   4.793   7.107  1.2308  0.5690 -1.1524
  735MOL0     H99220  10.325   4.896   7.134  1.4403 -1.3348  2.3730
  735MOL0     H99221  10.441   4.867   6.848  1.9468 -1.1728  0.0261
  735MOL0     H99222  10.521   4.974   6.964  0.2301 -1.3549 -0.7354
  735MOL0     H99223  10.171   5.187   6.845 -1.0128 -1.5543  1.1326
  735MOL0     H99224  10.247   4.401   7.234 -0.0014 -2.1162  0.5546
  735MOL0     H99225  10.146   4.249   7.369  0.4695 -0.6248 -0.5355
  736MOL0     O99226   3.500   8.101   6.468 -0.0335 -0.0536  0.2542
  736MOL0     C99227   3.514   7.988   6.500 -0.3717 -0.1779 -0.1588
  736MOL0     O99228   3.463   7.933   6.618 -0.4924 -0.1346  0.3365
  736MOL0     C99229   3.393   8.004   6.709 -0.0101  0.4438  0.0237
  736MOL0     C99230   3.440   8.120   6.760  0.0802 -0.5142  0.3443
  736MOL0     C99231   3.364   8.182   6.859  0.0630  0.1028 -0.4785
  736MOL0     C99232   3.241   8.119   6.909 -0.1930 -0.0742  0.7887
  736MOL0     O99233   3.162   8.184   6.997 -0.6423 -0.2669  0.4732
  736MOL0     C99234   3.116   8.105   7.111 -0.9392  0.4277  0.6202
  736MOL0     C99235   3.039   8.208   7.194 -1.1259 -0.7373 -0.5711
  736MOL0     C99236   2.967   8.158   7.326 -0.4185  0.3663  0.1178
  736MOL0     C99237   2.827   8.107   7.291 -0.3750  0.6198  0.2179
  736MOL0     C99238   2.738   8.071   7.416  0.1459  0.5633 -0.5703
  736MOL0     C99239   2.609   7.995   7.369 -0.6435 -0.5351  0.9059
  736MOL0     C99240   2.525   7.945   7.483  0.1022 -0.3704  0.0277
  736MOL0     C99241   2.397   7.889   7.429 -0.2513  0.0024  0.7132
  736MOL0     N99242   2.388   7.752   7.383  1.1393 -0.3037  0.0543
  736MOL0     C99243   2.314   7.652   7.444  0.0832 -0.5064  0.5698
  736MOL0     C99244   2.319   7.549   7.356 -0.1392 -0.5539 -0.8544
  736MOL0     C99245   2.256   7.420   7.388  0.0836  0.3233  0.3778
  736MOL0     C99246   2.116   7.419   7.333  0.3768 -0.4493 -0.1105
  736MOL0     C99247   2.116   7.410   7.178  0.2273  0.0515 -0.8984
  736MOL0     C99248   1.989   7.353   7.128 -0.3994 -0.1658  0.4326
  736MOL0     O99249   1.892   7.443   7.143 -0.2379 -0.4293  0.5492
  736MOL0     C99250   1.781   7.432   7.065  0.3731 -0.6044  0.0285
  736MOL0     C99251   1.749   7.326   6.979  0.6962 -1.6130 -0.3257
  736MOL0     C99252   1.637   7.343   6.888  0.2014  0.2345 -0.4811
  736MOL0     C99253   1.607   7.226   6.794  1.0382 -0.3920 -0.2825
  736MOL0     C99254   1.561   7.460   6.892  0.2756  0.4565  1.4000
  736MOL0     C99255   1.438   7.488   6.811  0.1144  0.4648  0.2517
  736MOL0     O99256   1.431   7.448   6.675 -1.1111  0.1788  0.1349
  736MOL0     C99257   1.327   7.492   6.598  0.5985 -0.7156  0.9318
  736MOL0     C99258   1.343   7.464   6.466 -0.1344  0.3879 -0.3138
  736MOL0     C99259   1.258   7.520   6.368 -0.3747  0.0332 -0.1630
  736MOL0     C99260   1.140   7.589   6.403  0.2027  0.2493  0.1454
  736MOL0     O99261   1.040   7.608   6.309  0.2604 -0.4498 -1.0545
  736MOL0     C99262   0.908   7.645   6.353  0.0661 -0.1599 -0.5664
  736MOL0     C99263   0.806   7.641   6.242 -0.3223  0.2371 -0.5517
  736MOL0     C99264   0.750   7.502   6.212 -0.3333  0.5980  0.4441
  736MOL0     C99265   0.650   7.445   6.325 -0.3125 -0.6496 -0.0484
  736MOL0     C99266   0.613   7.296   6.286 -0.2363 -0.1422 -0.4048
  736MOL0     C99267   0.480   7.267   6.221 -0.3894  0.4926  0.2519
  736MOL0     C99268   0.497   7.139   6.142 -0.4645  0.3765 -0.3670
  736MOL0     C99269   0.367   7.099   6.083 -0.2530 -0.5383  1.2523
  736MOL0    Cl99270   0.256   7.045   6.209 -0.2745 -0.2752 -0.5184
  736MOL0     C99271   1.128   7.615   6.542  0.3387 -0.3787 -0.0363
  736MOL0     C99272   1.220   7.576   6.634 -0.2958 -0.0264  0.4527
  736MOL0     O99273   1.342   7.517   6.875  0.7536  0.1772 -0.3541
  736MOL0     C99274   1.591   7.561   6.984  0.2472  0.2835 -0.0695
  736MOL0     C99275   1.697   7.543   7.073  0.1437  0.0232  0.3542
  736MOL0     N99276   2.385   7.589   7.240 -0.2768 -0.3341 -0.1640
  736MOL0     N99277   2.434   7.710   7.264 -0.0857  0.1376  0.6319
  736MOL0     C99278   3.193   8.005   6.848  0.1218  0.0235  0.1217
  736MOL0     C99279   3.269   7.950   6.744 -0.7729 -0.3487 -0.3669
  736MOL0     C99280   3.576   7.888   6.409  0.0985  0.1255 -0.0487
  736MOL0     C99281   3.599   7.919   6.278  0.8667  0.1826  0.1382
  736MOL0     C99282   3.653   7.828   6.189  0.6956 -0.7276  0.2670
  736MOL0     C99283   3.697   7.704   6.229 -0.2140  0.5216 -0.5842
  736MOL0     O99284   3.757   7.628   6.127 -0.3963  0.1284 -0.2166
  736MOL0     C99285   3.811   7.498   6.163 -0.4132  0.2142 -0.2824
  736MOL0     C99286   3.848   7.430   6.039 -0.8521 -0.3511  0.1546
  736MOL0     C99287   3.923   7.291   6.074  0.0316  0.5782 -1.2548
  736MOL0     C99288   3.930   7.193   5.947 -0.3349 -0.2383 -0.5390
  736MOL0     C99289   4.014   7.079   5.983 -1.0726  0.1752  0.4762
  736MOL0     C99290   4.071   6.973   5.997  0.5173  1.1627 -0.1429
  736MOL0     C99291   3.665   7.661   6.367 -1.1853 -0.1386 -1.2979
  736MOL0     C99292   3.598   7.756   6.449 -0.9388  1.1883 -0.2483
  736MOL0     H99293   3.532   8.163   6.721 -0.3683  0.1757  0.0163
  736MOL0     H99294   3.395   8.275   6.906  0.9072 -0.3109 -0.1962
  736MOL0     H99295   3.053   8.024   7.074  0.0696  1.1457 -3.1343
  736MOL0     H99296   3.203   8.060   7.160  0.7892  0.9772 -1.7360
  736MOL0     H99297   3.106   8.289   7.224 -1.8621  0.0193 -0.9575
  736MOL0     H99298   2.966   8.254   7.128 -0.5952  1.4253  0.2620
  736MOL0     H99299   3.021   8.075   7.373 -1.3716  0.0380  0.6591
  736MOL0     H99300   2.953   8.237   7.400  1.2933  0.2459  0.6301
  736MOL0     H99301   2.777   8.185   7.234 -1.5908  0.4188  0.9477
  736MOL0     H99302   2.832   8.023   7.221 -0.6907 -0.0425  0.9745
  736MOL0     H99303   2.785   8.004   7.489 -1.1618  0.2343 -0.0148
  736MOL0     H99304   2.705   8.165   7.462 -0.2301  1.5601 -2.7465
  736MOL0     H99305   2.548   8.069   7.317  2.9430 -0.9750 -4.7162
  736MOL0     H99306   2.638   7.916   7.299 -4.5740 -1.5277  0.1735
  736MOL0     H99307   2.568   7.865   7.543 -3.9982 -1.7595  1.4417
  736MOL0     H99308   2.502   8.030   7.547  1.0960  1.0595 -1.4297
  736MOL0     H99309   2.355   7.944   7.345  1.7310  2.0326  0.9502
  736MOL0     H99310   2.323   7.914   7.506 -0.1697  0.1530  0.7437
  736MOL0     H99311   2.264   7.653   7.540 -0.0708  0.9977  0.4933
  736MOL0     H99312   2.313   7.332   7.356 -1.2704 -0.9034  1.2011
  736MOL0     H99313   2.248   7.411   7.497  1.7503 -2.4594  0.3631
  736MOL0     H99314   2.062   7.510   7.361 -1.8566 -2.3786  2.3692
  736MOL0     H99315   2.071   7.341   7.396 -0.7744  1.0393  0.9823
  736MOL0     H99316   2.202   7.352   7.142 -0.8819 -1.3886 -1.3492
  736MOL0     H99317   2.139   7.506   7.130 -1.7997  0.5451 -0.9803
  736MOL0     H99318   1.963   7.258   7.175 -0.8561 -1.1846 -1.7836
  736MOL0     H99319   2.013   7.325   7.026  1.5282 -0.7636  0.9979
  736MOL0     H99320   1.806   7.234   6.971  2.6290 -0.5862  1.0133
  736MOL0     H99321   1.528   7.247   6.721 -2.1329 -2.9980  2.0737
  736MOL0     H99322   1.695   7.182   6.745  0.8985 -1.3074  0.2665
  736MOL0     H99323   1.575   7.142   6.856 -1.0571 -0.8106 -1.8031
  736MOL0     H99324   1.417   7.388   6.443 -0.0783  1.0501 -2.5402
  736MOL0     H99325   1.279   7.495   6.264  2.4127 -1.4794  0.6826
  736MOL0     H99326   0.871   7.583   6.435 -1.6348  1.5433  0.0433
  736MOL0     H99327   0.919   7.745   6.397 -0.3725  0.7755 -2.4752
  736MOL0     H99328   0.730   7.715   6.268 -0.1136  0.1849  0.2217
  736MOL0     H99329   0.848   7.677   6.147 -0.2882  0.9072 -0.2857
  736MOL0     H99330   0.833   7.430   6.210 -0.4760  0.4133 -1.9682
  736MOL0     H99331   0.698   7.507   6.116  3.0511  0.8877 -1.5131
  736MOL0     H99332   0.697   7.452   6.423 -2.9043  0.9318  1.2022
  736MOL0     H99333   0.555   7.499   6.332 -0.4122 -0.9266  0.8055
  736MOL0     H99334   0.620   7.227   6.371 -0.9500  0.7830  0.4422
  736MOL0     H99335   0.699   7.259   6.230  1.3893  1.3092  1.0002
  736MOL0     H99336   0.405   7.256   6.299  1.2962 -3.5572  1.6159
  736MOL0     H99337   0.457   7.351   6.155 -0.9908  0.2715  0.1763
  736MOL0     H99338   0.541   7.068   6.213  0.2309  2.6060  1.5721
  736MOL0     H99339   0.573   7.152   6.064  1.1314 -0.2668  1.0223
  736MOL0     H99340   0.387   7.011   6.021  0.4992 -1.3464  2.5890
  736MOL0     H99341   0.318   7.178   6.025 -1.2468 -1.4631  0.8000
  736MOL0     H99342   1.044   7.673   6.578  1.4015 -1.1809  4.4926
  736MOL0     H99343   1.202   7.597   6.739  2.0668  0.8635  0.7249
  736MOL0     H99344   1.537   7.654   6.998 -1.9506 -1.1400  1.6198
  736MOL0     H99345   1.727   7.621   7.142  1.0012  1.5138 -1.5751
  736MOL0     H99346   3.093   7.973   6.875  0.3265  0.8998  2.0597
  736MOL0     H99347   3.236   7.864   6.686  0.0087  0.7486 -2.5683
  736MOL0     H99348   3.589   8.021   6.242  1.6945  0.4924  0.7564
  736MOL0     H99349   3.655   7.852   6.084 -3.4304 -2.0788 -0.2828
  736MOL0     H99350   3.907   7.516   6.212  0.1038  0.7532 -1.4748
  736MOL0     H99351   3.740   7.436   6.220  1.0515  0.0480  1.4628
  736MOL0     H99352   3.920   7.496   5.989  1.5858 -2.6704  0.3621
  736MOL0     H99353   3.759   7.417   5.977 -2.0496  0.3616  1.6577
  736MOL0     H99354   3.871   7.240   6.156  2.1539  1.5044  0.8072
  736MOL0     H99355   4.024   7.316   6.110 -0.3402  2.2634 -1.3318
  736MOL0     H99356   3.965   7.246   5.858  3.0707 -0.9175  0.2742
  736MOL0     H99357   3.828   7.169   5.914 -0.2594  0.7146 -1.5187
  736MOL0     H99358   4.112   6.874   6.004 -2.5505 -0.1920  0.3065
  736MOL0     H99359   3.696   7.563   6.403  2.5417  0.0400 -3.4877
  736MOL0     H99360   3.555   7.729   6.545 -2.0022 -0.5599 -1.1674
  737MOL0     O99361   7.669   8.183  10.333 -0.4103 -0.3975  0.7134
  737MOL0     C99362   7.652   8.091  10.411 -0.2004 -0.6435  0.6163
  737MOL0     O99363   7.755   8.032  10.472  0.4164  0.7145 -0.1047
  737MOL0     C99364   7.886   8.079  10.463 -0.5581  0.3752 -0.1088
  737MOL0     C99365   7.989   7.985  10.485  0.9133 -1.0202  1.1077
  737MOL0     C99366   8.126   8.015  10.486 -0.3065  0.0074  0.3338
  737MOL0     C99367   8.159   8.152  10.460  0.0515 -0.2351 -0.1333
  737MOL0     O99368   8.295   8.187  10.439 -0.1364  0.1416  0.5848
  737MOL0     C99369   8.342   8.292  10.347  0.1374  0.5748 -0.0587
  737MOL0     C99370   8.493   8.252  10.337 -0.5740 -0.7179  0.4198
  737MOL0     C99371   8.558   8.325  10.220 -0.0017 -0.0094 -0.6696
  737MOL0     C99372   8.705   8.314  10.208 -0.7940 -0.3997  0.6927
  737MOL0     C99373   8.777   8.386  10.087  0.6386 -0.0461 -0.2205
  737MOL0     C99374   8.931   8.365  10.098  0.0713 -0.4481 -0.0893
  737MOL0     C99375   9.029   8.459  10.013 -0.5727  1.0236 -0.8067
  737MOL0     C99376   9.007   8.606  10.040 -0.1839  0.3559 -0.2745
  737MOL0     N99377   9.106   8.675   9.955 -0.3910  0.5051  0.2912
  737MOL0     C99378   9.081   8.753   9.845  0.7923 -0.1984  0.6946
  737MOL0     C99379   9.193   8.820   9.811  0.2271 -0.2897 -0.0435
  737MOL0     C99380   9.212   8.901   9.686  0.2430  0.0769  0.8314
  737MOL0     C99381   9.345   8.972   9.676 -0.2986 -0.6614  0.2645
  737MOL0     C99382   9.369   9.044   9.536 -0.3490 -0.6210  0.4693
  737MOL0     C99383   9.419   8.950   9.425  0.2878  0.7357 -0.3831
  737MOL0     O99384   9.559   8.934   9.426 -0.2693  0.4537 -0.2848
  737MOL0     C99385   9.611   8.820   9.361 -0.0303 -0.2793 -0.2704
  737MOL0     C99386   9.744   8.828   9.329 -0.3241 -0.1359  0.4114
  737MOL0     C99387   9.798   8.732   9.246 -0.1461 -1.0940  0.7015
  737MOL0     C99388   9.940   8.754   9.223 -0.7081 -0.3540  0.2173
  737MOL0     C99389   9.730   8.617   9.210  0.1011 -0.2383 -0.4040
  737MOL0     C99390   9.787   8.505   9.139 -1.1914  0.4023  1.3920
  737MOL0     O99391   9.721   8.390   9.152  0.3561  0.4635  0.3539
  737MOL0     C99392   9.791   8.274   9.113 -0.0252  0.4685  0.3814
  737MOL0     C99393   9.896   8.224   9.186  0.0387  0.6443  0.1071
  737MOL0     C99394   9.955   8.105   9.141  0.5265 -0.0319 -0.0325
  737MOL0     C99395   9.919   8.044   9.017  0.1801  0.1010 -0.2823
  737MOL0     O99396   9.990   7.937   8.969  0.5106 -0.0063 -0.2425
  737MOL0     C99397  10.132   7.966   8.964  0.8765  0.1263 -1.1453
  737MOL0     C99398  10.201   7.898   8.845  0.6605  0.4833 -0.2729
  737MOL0     C99399  10.352   7.872   8.853 -0.3243  0.3941  0.4185
  737MOL0     C99400  10.428   8.006   8.876 -0.5534 -0.2511  0.0595
  737MOL0     C99401  10.579   7.986   8.858  0.0597  0.0059  0.0931
  737MOL0     C99402  10.653   7.923   8.972 -0.0502  0.0995  0.5270
  737MOL0     C99403  10.772   7.834   8.928 -0.4601 -0.6583  0.4504
  737MOL0     C99404  10.887   7.896   8.852 -0.0890 -1.1391 -0.1353
  737MOL0    Cl99405  11.009   7.768   8.852  0.5871  0.3677 -0.0343
  737MOL0     C99406   9.807   8.093   8.960 -0.7582 -0.2675 -0.0958
  737MOL0     C99407   9.741   8.199   9.007  0.1971 -0.3432 -0.1324
  737MOL0     O99408   9.893   8.521   9.069  1.0436 -0.1772  0.0607
  737MOL0     C99409   9.599   8.593   9.250  0.2722 -0.2545  0.6967
  737MOL0     C99410   9.542   8.699   9.330 -0.1613  0.0476  0.0917
  737MOL0     N99411   9.297   8.772   9.890  0.1992 -0.4542 -0.2704
  737MOL0     N99412   9.242   8.693   9.981  0.3099  0.5696 -0.4112
  737MOL0     C99413   8.062   8.250  10.451 -0.2405 -0.1744  0.0089
  737MOL0     C99414   7.926   8.216  10.460  0.0102 -0.0193 -0.5915
  737MOL0     C99415   7.512   8.046  10.423  1.0461  0.5960 -0.0958
  737MOL0     C99416   7.473   7.924  10.487 -1.8067 -0.5327  0.3746
  737MOL0     C99417   7.345   7.877  10.499 -0.7751  0.6186  0.1663
  737MOL0     C99418   7.240   7.959  10.458  0.5131 -0.7027 -0.3360
  737MOL0     O99419   7.105   7.944  10.487  0.0470 -0.0571 -0.5333
  737MOL0     C99420   7.077   7.879  10.619  0.5141 -0.2436  0.6479
  737MOL0     C99421   6.933   7.874  10.676 -0.5282  0.1811  0.7074
  737MOL0     C99422   6.860   8.002  10.688 -0.2592 -0.3113  0.3708
  737MOL0     C99423   6.721   7.976  10.747  1.1774  0.0068  0.1047
  737MOL0     C99424   6.618   7.925  10.663 -0.5231  0.3623 -0.1120
  737MOL0     C99425   6.535   7.860  10.605  0.0092 -0.2855  0.9508
  737MOL0     C99426   7.276   8.073  10.390  0.2644 -0.3180  0.5528
  737MOL0     C99427   7.405   8.120  10.376  0.2314 -0.0550 -0.0208
  737MOL0     H99428   7.966   7.880  10.502 -2.5001 -0.1492  2.8886
  737MOL0     H99429   8.213   7.952  10.498  0.8278  1.4137 -0.2979
  737MOL0     H99430   8.286   8.289  10.254 -1.0850  1.1334  0.6323
  737MOL0     H99431   8.345   8.391  10.393 -0.7417  0.2049  0.8404
  737MOL0     H99432   8.534   8.288  10.431  1.8529  0.6037 -1.0242
  737MOL0     H99433   8.520   8.147  10.320  1.5511  0.2164 -2.9770
  737MOL0     H99434   8.522   8.286  10.124  4.2305  3.4672 -4.1134
  737MOL0     H99435   8.532   8.431  10.226  0.6545  0.1679 -0.8326
  737MOL0     H99436   8.754   8.353  10.298 -0.2495  0.3582  0.0838
  737MOL0     H99437   8.744   8.211  10.211  2.7040  0.8016  2.2271
  737MOL0     H99438   8.746   8.351   9.988  0.4907  0.8364 -0.4900
  737MOL0     H99439   8.746   8.489  10.069 -2.2119 -1.2513 -3.6215
  737MOL0     H99440   8.968   8.372  10.200 -1.7847  1.5503  0.5232
  737MOL0     H99441   8.943   8.260  10.068 -2.0454 -1.3755  1.9636
  737MOL0     H99442   9.132   8.423  10.022 -0.4255  1.5627 -0.2323
  737MOL0     H99443   9.012   8.441   9.907 -2.4170 -0.3373 -0.3201
  737MOL0     H99444   9.026   8.622  10.147 -3.1352  0.6399  0.2888
  737MOL0     H99445   8.903   8.635  10.022 -0.1882  0.1693 -0.5628
  737MOL0     H99446   8.982   8.783   9.813  1.1428  0.5115  0.2507
  737MOL0     H99447   9.196   8.842   9.595 -3.3802  3.7672 -1.2594
  737MOL0     H99448   9.133   8.976   9.679 -0.0323 -0.2635  0.1845
  737MOL0     H99449   9.425   8.901   9.700  0.0546 -0.1241  0.7148
  737MOL0     H99450   9.352   9.048   9.754  0.1004  0.0136 -0.4193
  737MOL0     H99451   9.451   9.114   9.557  2.5388 -3.5941  0.0292
  737MOL0     H99452   9.283   9.098   9.497 -0.5342  0.1734  1.9136
  737MOL0     H99453   9.378   8.996   9.336 -1.8861 -0.7546 -0.2175
  737MOL0     H99454   9.369   8.853   9.423  1.4719  0.0807  0.1988
  737MOL0     H99455   9.809   8.911   9.356 -2.1058  1.6771 -0.5856
  737MOL0     H99456   9.979   8.855   9.231 -2.1333  0.6249 -3.4903
  737MOL0     H99457   9.990   8.679   9.286 -1.9255 -2.0826 -0.7666
  737MOL0     H99458   9.972   8.733   9.121  0.5802 -3.7721  1.1516
  737MOL0     H99459   9.923   8.283   9.273  2.5816  2.2991 -1.6432
  737MOL0     H99460  10.037   8.065   9.200 -0.3318 -1.1176  0.4483
  737MOL0     H99461  10.162   8.071   8.973 -1.7486  0.7926  1.5207
  737MOL0     H99462  10.182   7.923   9.051  0.5971  2.4997  0.2602
  737MOL0     H99463  10.154   7.799   8.839  0.0757  0.8294 -2.6642
  737MOL0     H99464  10.162   7.942   8.752  1.6440  1.0246 -0.4523
  737MOL0     H99465  10.365   7.819   8.758  2.0869 -1.5255  1.7222
  737MOL0     H99466  10.378   7.794   8.925  2.3718  0.0442 -0.7935
  737MOL0     H99467  10.393   8.076   8.799  1.5366  0.4352 -0.3289
  737MOL0     H99468  10.397   8.050   8.972 -1.0860  0.9614 -0.6421
  737MOL0     H99469  10.632   8.080   8.837  2.0466 -0.6961  1.6773
  737MOL0     H99470  10.586   7.922   8.770 -0.7394  0.5410 -0.3748
  737MOL0     H99471  10.703   7.993   9.039  2.9076 -1.4711  0.1129
  737MOL0     H99472  10.583   7.855   9.022 -0.7893 -1.1028 -1.9986
  737MOL0     H99473  10.732   7.752   8.867 -2.8665  0.3395  0.5890
  737MOL0     H99474  10.816   7.781   9.013 -0.6847 -1.2733  0.1891
  737MOL0     H99475  10.919   7.984   8.908 -2.0742  0.6197 -1.5980
  737MOL0     H99476  10.866   7.934   8.751 -2.7635 -1.4196  0.2408
  737MOL0     H99477   9.772   8.039   8.873  0.0408 -2.3127  0.7819
  737MOL0     H99478   9.649   8.223   8.953  2.0858 -1.2914 -4.1426
  737MOL0     H99479   9.537   8.509   9.219 -1.9483  1.0426  1.4494
  737MOL0     H99480   9.440   8.677   9.358 -0.4025  2.5839  1.5546
  737MOL0     H99481   8.093   8.354  10.443 -1.6993  0.2591 -0.4633
  737MOL0     H99482   7.859   8.300  10.444 -0.4492 -0.4674 -1.0663
  737MOL0     H99483   7.555   7.866  10.527 -1.6603 -1.7792 -1.5853
  737MOL0     H99484   7.315   7.781  10.541  2.2307 -1.7490 -2.5860
  737MOL0     H99485   7.114   7.776  10.619 -0.4459 -0.6677  3.5538
  737MOL0     H99486   7.120   7.927  10.708  1.1275 -2.1550  1.4214
  737MOL0     H99487   6.930   7.823  10.773 -2.0304 -0.0776  0.5489
  737MOL0     H99488   6.872   7.810  10.612 -0.8462  0.5079  0.6825
  737MOL0     H99489   6.859   8.060  10.596  0.1337 -0.9638 -0.0555
  737MOL0     H99490   6.927   8.058  10.754 -1.9766  0.5184  1.4820
  737MOL0     H99491   6.678   8.071  10.780 -0.6607 -0.5302 -0.6270
  737MOL0     H99492   6.733   7.911  10.834  0.9207 -1.0169 -0.6050
  737MOL0     H99493   6.467   7.801  10.548 -0.2870  1.8460 -1.0242
  737MOL0     H99494   7.194   8.139  10.366  0.7713  0.8930  2.0051
  737MOL0     H99495   7.416   8.222  10.340 -3.3281 -0.5969 -3.3285
  738MOL0     O99496   1.178   0.276   2.333 -0.2694  0.3673  0.5373
  738MOL0     C99497   1.186   0.235   2.218  0.6188  0.1657  0.0167
  738MOL0     O99498   1.084   0.172   2.148 -0.4299 -0.3865 -0.6285
  738MOL0     C99499   0.959   0.139   2.190  0.1825  0.6386 -0.6162
  738MOL0     C99500   0.923   0.122   2.319  1.4156 -0.0657  0.0374
  738MOL0     C99501   0.789   0.097   2.354  1.0431  1.1513 -0.2694
  738MOL0     C99502   0.687   0.080   2.261 -0.3441  0.2082 -0.1003
  738MOL0     O99503   0.555   0.058   2.305 -0.0104 -0.0300 -0.2401
  738MOL0     C99504   0.453   0.117   2.223 -0.0726  0.3436 -0.5080
  738MOL0     C99505   0.314   0.061   2.257  0.2657 -0.4788 -0.2218
  738MOL0     C99506   0.297  -0.094   2.253  1.1867 -0.3248 -0.1309
  738MOL0     C99507   0.156  -0.144   2.296  0.3511 -0.6061  0.0934
  738MOL0     C99508   0.043  -0.077   2.208  0.2390 -0.3562 -0.7942
  738MOL0     C99509  -0.100  -0.126   2.251  0.0423 -0.0318  0.7165
  738MOL0     C99510  -0.214  -0.064   2.155  0.4235  0.7758 -0.9295
  738MOL0     C99511  -0.330  -0.152   2.130  0.2242 -0.9582  0.5789
  738MOL0     N99512  -0.388  -0.212   2.248  0.5594 -0.0639 -0.3539
  738MOL0     C99513  -0.407  -0.342   2.281  0.5799  0.5316 -0.2024
  738MOL0     C99514  -0.461  -0.347   2.401 -0.4318  0.2623 -0.1521
  738MOL0     C99515  -0.496  -0.465   2.476  0.7235 -0.2434  0.8854
  738MOL0     C99516  -0.649  -0.480   2.488  0.2576 -1.2157  0.1745
  738MOL0     C99517  -0.695  -0.535   2.620 -0.1826 -0.0409 -0.7703
  738MOL0     C99518  -0.827  -0.607   2.618  0.7351 -0.6610 -0.6169
  738MOL0     O99519  -0.920  -0.505   2.577  0.4264  0.0375  0.3373
  738MOL0     C99520  -1.031  -0.576   2.541 -0.0287  0.0661 -0.4538
  738MOL0     C99521  -1.039  -0.625   2.420 -0.7500 -0.0023 -0.1612
  738MOL0     C99522  -1.157  -0.681   2.370  0.7933  0.6228  0.4318
  738MOL0     C99523  -1.161  -0.721   2.218 -0.3323  0.1829 -0.5132
  738MOL0     C99524  -1.275  -0.698   2.459 -0.6903 -0.5486 -0.0830
  738MOL0     C99525  -1.400  -0.760   2.430  0.2408  0.0616 -0.2244
  738MOL0     O99526  -1.491  -0.782   2.537 -0.6775 -0.9105 -0.0009
  738MOL0     C99527  -1.600  -0.862   2.531 -0.3678  0.6012  0.0411
  738MOL0     C99528  -1.595  -0.991   2.478  0.4008  0.4883  0.2694
  738MOL0     C99529  -1.714  -1.065   2.478  0.2378  0.6903  0.2460
  738MOL0     C99530  -1.833  -1.013   2.539  0.3295 -0.0148 -0.0209
  738MOL0     O99531  -1.948  -1.087   2.540 -0.3357 -0.2138  0.0244
  738MOL0     C99532  -1.938  -1.225   2.512 -0.2286 -0.1990 -0.6980
  738MOL0     C99533  -2.064  -1.303   2.541  0.1443  0.7318  0.1078
  738MOL0     C99534  -2.160  -1.305   2.423  0.2137 -0.1343  0.2084
  738MOL0     C99535  -2.247  -1.428   2.419  0.3854 -0.2112  0.5580
  738MOL0     C99536  -2.372  -1.418   2.507 -0.4387 -0.2572  0.9038
  738MOL0     C99537  -2.468  -1.303   2.467 -0.1921  0.0764 -0.8424
  738MOL0     C99538  -2.609  -1.318   2.524  0.0384  0.3741  0.2913
  738MOL0     C99539  -2.685  -1.176   2.525 -0.2067 -0.1967  0.6026
  738MOL0    Cl99540  -2.849  -1.207   2.611 -0.0135  0.4824  0.0266
  738MOL0     C99541  -1.834  -0.884   2.596 -0.0742  0.7393 -0.9176
  738MOL0     C99542  -1.717  -0.813   2.601  0.1036 -0.3108  0.3837
  738MOL0     O99543  -1.424  -0.805   2.321  0.0787 -0.3720  0.1180
  738MOL0     C99544  -1.262  -0.641   2.589 -0.9857  0.1188 -0.5915
  738MOL0     C99545  -1.135  -0.585   2.630  0.5572 -1.5162  0.2621
  738MOL0     N99546  -0.485  -0.221   2.447  0.0201 -0.1487  0.2383
  738MOL0     N99547  -0.444  -0.143   2.351 -0.5505 -0.6432 -0.9136
  738MOL0     C99548   0.729   0.068   2.129  1.4864  0.0778  0.0587
  738MOL0     C99549   0.857   0.116   2.097  0.7167  0.7417 -0.2183
  738MOL0     C99550   1.306   0.278   2.143 -0.2056 -0.4738  0.4599
  738MOL0     C99551   1.416   0.350   2.195  0.1706 -0.4188  0.1970
  738MOL0     C99552   1.520   0.384   2.110  0.1708 -0.2286  0.1372
  738MOL0     C99553   1.545   0.318   1.989 -0.2303  0.4424 -0.4269
  738MOL0     O99554   1.663   0.342   1.921  0.0411  0.2493 -0.2188
  738MOL0     C99555   1.720   0.241   1.839 -0.3386 -0.4081 -0.8633
  738MOL0     C99556   1.761   0.111   1.907 -0.2139 -0.3407 -0.0945
  738MOL0     C99557   1.873   0.026   1.836  0.1199 -0.2213 -1.0166
  738MOL0     C99558   1.911  -0.104   1.916 -0.2414  0.1612 -0.4484
  738MOL0     C99559   2.024  -0.088   2.010  0.2055  0.5552 -0.2487
  738MOL0     C99560   2.110  -0.061   2.080  0.0702 -0.2603  0.4043
  738MOL0     C99561   1.432   0.249   1.940 -0.1901 -0.9562 -0.1240
  738MOL0     C99562   1.310   0.228   2.010 -0.5436  0.1375  0.8290
  738MOL0     H99563   0.993   0.140   2.400  3.6700 -1.1123 -1.5691
  738MOL0     H99564   0.757   0.098   2.457  1.3911 -1.5014 -0.0760
  738MOL0     H99565   0.454   0.226   2.222  0.6811  0.3530 -0.0578
  738MOL0     H99566   0.466   0.092   2.117 -1.2437  0.0215 -0.5922
  738MOL0     H99567   0.298   0.086   2.362  2.4009 -1.2657  0.3398
  738MOL0     H99568   0.246   0.109   2.186 -1.2637 -2.4703 -0.1809
  738MOL0     H99569   0.325  -0.117   2.150  2.2967  2.4627 -0.5526
  738MOL0     H99570   0.367  -0.148   2.317 -0.7349 -0.8539  1.6513
  738MOL0     H99571   0.148  -0.253   2.288 -2.1259 -0.6520  1.9491
  738MOL0     H99572   0.135  -0.109   2.397  0.1941  2.8409 -1.0200
  738MOL0     H99573   0.050   0.031   2.223  1.0596 -0.4890 -0.0978
  738MOL0     H99574   0.053  -0.114   2.106  0.4477 -1.0553 -0.5251
  738MOL0     H99575  -0.093  -0.235   2.239  1.2012  0.1973 -1.0326
  738MOL0     H99576  -0.121  -0.114   2.357 -0.2436 -0.0102  0.6596
  738MOL0     H99577  -0.251   0.023   2.210 -3.3036 -2.1193  1.6699
  738MOL0     H99578  -0.163  -0.045   2.060  0.6313  0.5322 -0.8677
  738MOL0     H99579  -0.296  -0.230   2.060  1.9901 -1.2229  1.6704
  738MOL0     H99580  -0.398  -0.086   2.075  1.9589 -1.0960 -1.8911
  738MOL0     H99581  -0.390  -0.423   2.210 -0.8680  0.1803 -0.1871
  738MOL0     H99582  -0.451  -0.556   2.435  1.1686  0.3363  0.0507
  738MOL0     H99583  -0.457  -0.446   2.576 -0.4135  1.1656  1.1034
  738MOL0     H99584  -0.683  -0.533   2.399  1.1616 -1.6543  0.0739
  738MOL0     H99585  -0.689  -0.378   2.484  0.4203 -1.0821  1.4592
  738MOL0     H99586  -0.700  -0.458   2.697  2.9047  0.2308 -0.7155
  738MOL0     H99587  -0.624  -0.600   2.671  0.5500  1.2286 -0.1090
  738MOL0     H99588  -0.866  -0.653   2.710 -3.1933 -0.8551 -2.2014
  738MOL0     H99589  -0.822  -0.691   2.547 -0.9535 -1.0253 -0.3503
  738MOL0     H99590  -0.954  -0.608   2.355 -1.2681 -0.4786 -0.9866
  738MOL0     H99591  -1.062  -0.708   2.174 -0.5598 -4.0987 -2.8170
  738MOL0     H99592  -1.193  -0.826   2.213 -0.2654  0.2288 -2.2086
  738MOL0     H99593  -1.232  -0.664   2.158 -0.1781  2.1853  1.0852
  738MOL0     H99594  -1.505  -1.020   2.425 -0.1289 -0.4415 -0.1478
  738MOL0     H99595  -1.704  -1.163   2.434 -1.4574  1.3659 -1.8209
  738MOL0     H99596  -1.920  -1.233   2.405 -0.9400 -0.8104 -0.7830
  738MOL0     H99597  -1.860  -1.261   2.580 -1.2314  1.2798  1.3497
  738MOL0     H99598  -2.039  -1.402   2.580 -0.7600 -0.4004 -2.0279
  738MOL0     H99599  -2.125  -1.249   2.614 -1.3671 -0.5971 -0.1220
  738MOL0     H99600  -2.102  -1.298   2.331 -1.1298  0.2533 -0.6370
  738MOL0     H99601  -2.229  -1.222   2.409 -0.0035 -0.8140 -4.0958
  738MOL0     H99602  -2.281  -1.448   2.317 -0.2671  0.3693  0.6549
  738MOL0     H99603  -2.192  -1.518   2.447 -2.3964 -2.8634 -1.7707
  738MOL0     H99604  -2.337  -1.411   2.611 -1.1502  2.7087  1.0443
  738MOL0     H99605  -2.430  -1.508   2.485 -2.1981  1.2988 -1.3134
  738MOL0     H99606  -2.431  -1.207   2.504 -0.6179 -0.6064  1.4748
  738MOL0     H99607  -2.474  -1.300   2.357 -0.4909  0.8103 -0.8145
  738MOL0     H99608  -2.600  -1.357   2.626  0.6487 -0.4849 -0.0751
  738MOL0     H99609  -2.660  -1.395   2.466 -1.0633  0.5708  0.9633
  738MOL0     H99610  -2.712  -1.138   2.426  1.5187  1.3432  0.6605
  738MOL0     H99611  -2.630  -1.093   2.573 -0.3006  1.1858 -1.5298
  738MOL0     H99612  -1.927  -0.845   2.635 -0.7814  0.4020 -2.2043
  738MOL0     H99613  -1.711  -0.710   2.635 -0.3452 -0.1401 -0.0315
  738MOL0     H99614  -1.343  -0.642   2.662 -0.5990 -1.5428 -0.1580
  738MOL0     H99615  -1.119  -0.556   2.734 -2.1982 -1.1652  0.6736
  738MOL0     H99616   0.661   0.041   2.049  0.4914  1.3949  0.4229
  738MOL0     H99617   0.877   0.145   1.995  0.4675  0.5932 -0.3092
  738MOL0     H99618   1.412   0.385   2.298 -1.2534  1.8516 -0.5469
  738MOL0     H99619   1.602   0.448   2.141  0.8614 -0.0974 -1.8077
  738MOL0     H99620   1.666   0.212   1.749  0.4907  2.0410 -2.2395
  738MOL0     H99621   1.805   0.295   1.796 -2.4286  2.3672 -1.8735
  738MOL0     H99622   1.676   0.042   1.911  1.5746 -2.6017  0.1949
  738MOL0     H99623   1.792   0.133   2.010  0.4043  2.2828 -0.7532
  738MOL0     H99624   1.963   0.085   1.819 -0.9066  2.1013  1.0277
  738MOL0     H99625   1.841  -0.000   1.734  2.6294 -1.7925 -1.4703
  738MOL0     H99626   1.952  -0.175   1.843 -2.6042 -0.9741 -0.7908
  738MOL0     H99627   1.830  -0.152   1.973 -0.1038  3.1676  2.5770
  738MOL0     H99628   2.184  -0.022   2.147  0.9746  3.1061 -2.2467
  738MOL0     H99629   1.442   0.210   1.839 -0.2531 -2.9674  0.5833
  738MOL0     H99630   1.224   0.186   1.959  1.3334 -2.7198 -0.2288
  739MOL0     O99631   7.259   6.945   9.216  1.1716 -0.4823  0.2349
  739MOL0     C99632   7.273   6.982   9.097 -0.0932  0.5607 -0.0299
  739MOL0     O99633   7.166   7.003   9.013 -0.0730  0.0914  0.1482
  739MOL0     C99634   7.042   6.962   9.056 -0.0712  0.9363  0.4880
  739MOL0     C99635   7.021   6.834   9.116  0.4697 -0.0709  0.4396
  739MOL0     C99636   6.891   6.792   9.162  0.1031  0.3360 -0.3886
  739MOL0     C99637   6.783   6.869   9.149  0.1693  0.3926 -0.8743
  739MOL0     O99638   6.660   6.857   9.209  0.5640 -0.3480  0.8384
  739MOL0     C99639   6.633   6.740   9.286  0.7272  0.3138  0.2482
  739MOL0     C99640   6.493   6.758   9.328  0.3719 -0.3583  0.3227
  739MOL0     C99641   6.441   6.660   9.426 -0.4762 -0.0735  0.3205
  739MOL0     C99642   6.318   6.707   9.504 -0.3247  0.3198  0.1558
  739MOL0     C99643   6.192   6.698   9.418 -0.1484 -0.2565 -0.3787
  739MOL0     C99644   6.064   6.700   9.499 -0.7313 -0.2620 -0.2474
  739MOL0     C99645   5.939   6.735   9.415  0.1254 -0.3841  0.2896
  739MOL0     C99646   5.811   6.727   9.497 -1.2099  0.6937 -0.0710
  739MOL0     N99647   5.695   6.764   9.414 -0.1345 -0.6351 -0.4629
  739MOL0     C99648   5.620   6.878   9.435 -1.0466  0.3227  0.3652
  739MOL0     C99649   5.509   6.867   9.355 -1.0748 -0.0045  0.0331
  739MOL0     C99650   5.411   6.975   9.319 -0.7358  0.1253  0.4329
  739MOL0     C99651   5.349   6.955   9.189  0.9479  0.4944 -0.6497
  739MOL0     C99652   5.251   6.829   9.200 -0.0468  0.2765  0.0636
  739MOL0     C99653   5.266   6.722   9.086  0.1287 -0.0914 -0.0626
  739MOL0     O99654   5.186   6.605   9.107 -0.6396 -0.2535 -0.5700
  739MOL0     C99655   5.052   6.609   9.076  0.2844 -0.6674 -0.1363
  739MOL0     C99656   5.011   6.534   8.970 -0.2938 -0.0992  0.4397
  739MOL0     C99657   4.879   6.533   8.923 -0.2398  0.6392 -0.9435
  739MOL0     C99658   4.848   6.451   8.800 -0.3359  0.0537 -0.4865
  739MOL0     C99659   4.777   6.608   8.993 -0.7983  0.0124 -0.4660
  739MOL0     C99660   4.643   6.630   8.936  0.2053 -0.0178 -0.7317
  739MOL0     O99661   4.611   6.600   8.806  0.2878  0.1008 -1.0305
  739MOL0     C99662   4.495   6.658   8.762 -0.2774 -0.2290 -0.3123
  739MOL0     C99663   4.494   6.785   8.711  0.8271 -0.1452  0.0338
  739MOL0     C99664   4.373   6.839   8.654 -0.4185  0.2935  0.0318
  739MOL0     C99665   4.255   6.762   8.660 -0.0435 -0.9774  0.9352
  739MOL0     O99666   4.135   6.824   8.631 -0.2671  0.1035 -0.6429
  739MOL0     C99667   4.122   6.897   8.511 -0.1488 -0.2587  0.0057
  739MOL0     C99668   4.065   7.039   8.515 -0.7307  0.5210  0.2774
  739MOL0     C99669   4.087   7.121   8.391 -0.0791  0.2096  0.2123
  739MOL0     C99670   3.977   7.088   8.286  0.3913  0.5550 -0.0630
  739MOL0     C99671   3.980   7.192   8.174  0.5866 -0.4175 -0.2743
  739MOL0     C99672   3.892   7.137   8.053 -0.1416 -0.5237 -0.2571
  739MOL0     C99673   3.952   7.161   7.917  0.1858  0.2219 -0.0572
  739MOL0     C99674   3.889   7.063   7.815  0.1183  0.0555  0.0598
  739MOL0    Cl99675   3.703   7.101   7.813  0.4245  0.1033 -0.1383
  739MOL0     C99676   4.255   6.632   8.710  0.2286  1.6216 -0.1416
  739MOL0     C99677   4.376   6.583   8.760  0.2203  0.4696 -0.2454
  739MOL0     O99678   4.564   6.693   9.009  0.0371 -0.5682  0.2964
  739MOL0     C99679   4.824   6.679   9.104 -0.0025  0.4755 -1.7128
  739MOL0     C99680   4.956   6.680   9.149 -0.2939  0.6705 -1.0543
  739MOL0     N99681   5.532   6.753   9.279 -0.9981 -0.3039  0.0454
  739MOL0     N99682   5.640   6.690   9.322 -0.4700 -0.4053 -0.0122
  739MOL0     C99683   6.797   6.992   9.071 -0.1196  0.7534 -0.0598
  739MOL0     C99684   6.926   7.036   9.038 -0.1133 -0.2413 -0.2611
  739MOL0     C99685   7.416   6.998   9.054 -0.6445 -1.2570 -0.1689
  739MOL0     C99686   7.524   6.975   9.136  0.4498 -0.1320  0.7635
  739MOL0     C99687   7.655   6.999   9.085 -0.3967  0.2461 -1.2697
  739MOL0     C99688   7.669   7.026   8.951  0.2545 -0.3597  0.6063
  739MOL0     O99689   7.789   7.036   8.887  0.1806 -0.1742  0.1699
  739MOL0     C99690   7.840   7.167   8.874  0.1228  0.9084 -0.4140
  739MOL0     C99691   7.984   7.159   8.823 -0.4523 -0.2546 -0.0984
  739MOL0     C99692   8.088   7.089   8.917 -0.5621 -0.8081  0.3746
  739MOL0     C99693   8.231   7.100   8.860  0.0917 -0.5459 -0.4313
  739MOL0     C99694   8.250   7.029   8.739  0.4538 -0.0371 -0.0740
  739MOL0     C99695   8.252   6.962   8.638  0.0182 -0.0519 -0.2818
  739MOL0     C99696   7.555   7.029   8.868  0.3261  0.9217 -0.2196
  739MOL0     C99697   7.431   7.025   8.917 -0.4643 -0.0135 -0.5697
  739MOL0     H99698   7.107   6.769   9.129  0.9227  0.9867  3.9110
  739MOL0     H99699   6.885   6.696   9.210  0.3612  0.5678  0.1083
  739MOL0     H99700   6.641   6.649   9.226 -2.4906  1.2996 -1.9818
  739MOL0     H99701   6.693   6.722   9.376 -1.7493  0.1083  1.9740
  739MOL0     H99702   6.470   6.860   9.362 -1.1200 -0.6344  0.2450
  739MOL0     H99703   6.436   6.753   9.234 -1.0320  0.9780  1.0510
  739MOL0     H99704   6.409   6.569   9.374 -1.5599  0.3190  0.2797
  739MOL0     H99705   6.523   6.626   9.491  0.0347 -0.5974 -0.5744
  739MOL0     H99706   6.308   6.640   9.591  0.7526 -1.1704 -0.8171
  739MOL0     H99707   6.320   6.809   9.544 -2.1317  0.7189 -0.6699
  739MOL0     H99708   6.187   6.779   9.344  0.6002  1.2283  1.1207
  739MOL0     H99709   6.193   6.603   9.364 -0.6120 -0.5752  0.1657
  739MOL0     H99710   6.054   6.603   9.549 -2.1782 -0.8110 -1.5114
  739MOL0     H99711   6.072   6.777   9.576 -1.0111 -1.7037  1.2672
  739MOL0     H99712   5.961   6.835   9.378  2.2199  0.4856  3.4360
  739MOL0     H99713   5.932   6.660   9.336 -0.3189 -1.5143  1.3524
  739MOL0     H99714   5.806   6.790   9.587 -2.5617 -1.6933  1.6211
  739MOL0     H99715   5.798   6.628   9.540 -0.7003 -0.1975 -1.8855
  739MOL0     H99716   5.658   6.961   9.492  1.8906 -0.7790  0.1825
  739MOL0     H99717   5.343   6.977   9.406 -0.0440 -0.3754  1.0007
  739MOL0     H99718   5.469   7.067   9.321 -0.7162  0.1477 -0.6000
  739MOL0     H99719   5.425   6.933   9.113 -0.1814  1.7751 -2.2331
  739MOL0     H99720   5.291   7.043   9.160 -1.1963 -2.0892 -5.2339
  739MOL0     H99721   5.151   6.871   9.188  0.4954  1.7375  0.4365
  739MOL0     H99722   5.259   6.771   9.293 -0.7665  0.0358 -0.0206
  739MOL0     H99723   5.370   6.689   9.079  0.8777  2.0504  0.5165
  739MOL0     H99724   5.242   6.769   8.990  0.3646  3.7937  1.6354
  739MOL0     H99725   5.087   6.484   8.910 -3.1578  1.4507 -5.1827
  739MOL0     H99726   4.911   6.362   8.793  1.4176  1.2994 -1.4299
  739MOL0     H99727   4.746   6.413   8.808  0.0701 -0.6141  3.6003
  739MOL0     H99728   4.871   6.500   8.705  1.2796  0.8833  0.2869
  739MOL0     H99729   4.580   6.850   8.705 -1.0849  2.5841  0.1425
  739MOL0     H99730   4.371   6.942   8.620  0.9697  0.8553  1.5306
  739MOL0     H99731   4.218   6.909   8.459 -0.5195  4.5703  0.0345
  739MOL0     H99732   4.057   6.841   8.443 -0.6444 -3.0769  2.5685
  739MOL0     H99733   3.960   7.021   8.538 -0.6740  0.6487  0.6403
  739MOL0     H99734   4.110   7.086   8.603 -0.4077  2.4625 -0.8780
  739MOL0     H99735   4.183   7.105   8.342  0.4702  1.3862  0.8758
  739MOL0     H99736   4.079   7.225   8.423 -1.9773  0.1406  0.1162
  739MOL0     H99737   3.991   6.987   8.246 -2.6918 -0.0577  0.0987
  739MOL0     H99738   3.881   7.088   8.339  1.1671  0.8007  1.4091
  739MOL0     H99739   4.084   7.209   8.145  0.5180  0.7359  0.1096
  739MOL0     H99740   3.939   7.287   8.210 -1.2524 -1.0759 -0.5282
  739MOL0     H99741   3.878   7.030   8.070 -2.8834 -0.1135  0.5280
  739MOL0     H99742   3.787   7.167   8.057 -0.0311 -0.1729  0.1162
  739MOL0     H99743   4.057   7.132   7.919 -0.2957 -1.5922  1.0278
  739MOL0     H99744   3.944   7.263   7.878 -1.1438  0.3937  0.5973
  739MOL0     H99745   3.905   6.959   7.846 -1.2733 -0.4522 -0.8175
  739MOL0     H99746   3.927   7.056   7.713  1.1644 -4.6027  0.5407
  739MOL0     H99747   4.164   6.573   8.721  0.0177  1.2898 -2.9363
  739MOL0     H99748   4.385   6.480   8.792  0.6684 -0.0061 -1.8128
  739MOL0     H99749   4.761   6.740   9.168 -0.8277 -1.0574 -0.9928
  739MOL0     H99750   4.979   6.735   9.240  0.2731  1.0467 -1.4186
  739MOL0     H99751   6.704   7.048   9.062 -0.2440  0.9148  1.7864
  739MOL0     H99752   6.928   7.129   8.982 -0.1650 -0.3176 -0.3914
  739MOL0     H99753   7.509   6.949   9.241  2.8943 -0.4312  1.0950
  739MOL0     H99754   7.735   6.969   9.152 -2.6180 -2.5124  0.3763
  739MOL0     H99755   7.788   7.221   8.794 -1.1024 -0.3216 -0.4931
  739MOL0     H99756   7.832   7.208   8.976 -1.9549  1.1714 -0.6495
  739MOL0     H99757   8.029   7.256   8.803  1.5071 -1.5318 -2.3862
  739MOL0     H99758   7.986   7.096   8.734 -0.0307 -1.8161  0.9544
  739MOL0     H99759   8.063   6.985   8.942 -0.5598 -1.4787 -2.1610
  739MOL0     H99760   8.083   7.140   9.014  2.1405 -0.0644  0.2039
  739MOL0     H99761   8.290   7.054   8.939 -0.4377 -1.2457 -0.4369
  739MOL0     H99762   8.257   7.204   8.838  2.6407 -1.4379 -2.2087
  739MOL0     H99763   8.260   6.908   8.546 -2.8463 -0.0613 -0.6059
  739MOL0     H99764   7.561   7.042   8.760 -2.7703 -1.4512 -0.8296
  739MOL0     H99765   7.343   7.029   8.854 -1.1910 -0.7423  0.3733
  740MOL0     O99766   3.159   5.219   2.245 -0.4641 -0.2801 -0.0501
  740MOL0     C99767   3.257   5.153   2.207 -0.2247  0.1636 -0.2864
  740MOL0     O99768   3.258   5.062   2.103 -0.4636 -0.6772 -0.7320
  740MOL0     C99769   3.136   5.014   2.070 -1.2038 -0.1438  0.1963
  740MOL0     C99770   3.090   4.890   2.115  0.1781 -0.9116  0.0618
  740MOL0     C99771   2.959   4.849   2.078  0.0640 -0.1315  0.0639
  740MOL0     C99772   2.867   4.933   2.013 -1.3225  0.3337 -0.0830
  740MOL0     O99773   2.738   4.892   1.989  0.3365 -0.1061 -0.3919
  740MOL0     C99774   2.655   4.989   1.924 -0.0550 -0.1976 -0.1627
  740MOL0     C99775   2.510   4.947   1.931 -1.1017  0.3867  0.5163
  740MOL0     C99776   2.486   4.819   1.857 -0.5797  0.6894 -0.0146
  740MOL0     C99777   2.346   4.798   1.823 -0.2488 -0.2698  0.4929
  740MOL0     C99778   2.311   4.663   1.755  0.8444  0.6579  0.3656
  740MOL0     C99779   2.155   4.682   1.726  0.0233 -0.2704 -0.5175
  740MOL0     C99780   2.101   4.557   1.669  0.7887 -0.9738  0.2048
  740MOL0     C99781   1.956   4.533   1.674  0.7499  0.0473 -0.4525
  740MOL0     N99782   1.886   4.651   1.612  0.0627 -0.5714  0.0253
  740MOL0     C99783   1.869   4.662   1.471  2.0174 -0.0357 -0.0441
  740MOL0     C99784   1.764   4.751   1.469 -0.3990 -0.4408  0.7426
  740MOL0     C99785   1.682   4.806   1.362  0.6978 -0.5944 -0.8247
  740MOL0     C99786   1.708   4.716   1.236  0.3148 -0.2271 -0.2062
  740MOL0     C99787   1.623   4.753   1.118  0.6744 -0.3263  0.3031
  740MOL0     C99788   1.667   4.675   1.000 -0.8280  0.8215 -0.0939
  740MOL0     O99789   1.632   4.533   1.004  0.0129  0.6358 -0.9410
  740MOL0     C99790   1.506   4.496   1.013  0.4404  0.1135  0.4091
  740MOL0     C99791   1.488   4.368   1.054 -0.0724  0.5775  0.3689
  740MOL0     C99792   1.354   4.311   1.055 -0.4112 -0.3340  0.3261
  740MOL0     C99793   1.350   4.164   1.093 -0.5690 -0.2689 -0.1592
  740MOL0     C99794   1.244   4.397   1.026 -0.0588  0.1190 -0.1474
  740MOL0     C99795   1.107   4.347   1.019 -0.7615 -0.0855 -0.0186
  740MOL0     O99796   1.084   4.230   1.092  0.0874 -0.0253 -0.5971
  740MOL0     C99797   0.951   4.189   1.104  0.6354  0.0375  0.6306
  740MOL0     C99798   0.834   4.269   1.096  0.1922 -0.1319  0.4561
  740MOL0     C99799   0.701   4.213   1.107 -0.4489 -0.3969 -0.7296
  740MOL0     C99800   0.677   4.078   1.146  0.1906 -0.2735  0.7200
  740MOL0     O99801   0.543   4.032   1.136  0.0316  0.6868 -0.0247
  740MOL0     C99802   0.524   3.892   1.175 -1.1622 -0.1701  0.6192
  740MOL0     C99803   0.368   3.868   1.221  0.3861  0.2776  0.1501
  740MOL0     C99804   0.260   3.916   1.133  1.0513  0.3505  0.1817
  740MOL0     C99805   0.121   3.932   1.193 -0.0555  0.2007 -0.7206
  740MOL0     C99806   0.033   4.038   1.106 -0.6653 -0.1126  1.1106
  740MOL0     C99807  -0.094   4.082   1.183  0.1112 -0.0151 -0.1625
  740MOL0     C99808  -0.183   3.958   1.221 -0.1677 -0.5499 -0.7965
  740MOL0     C99809  -0.329   3.997   1.232  0.1326 -0.1236 -0.0913
  740MOL0    Cl99810  -0.430   3.856   1.255  0.1807 -0.4661 -0.1489
  740MOL0     C99811   0.791   4.000   1.152 -0.0848  0.3406 -0.4842
  740MOL0     C99812   0.924   4.048   1.126 -0.5884 -0.6195  0.1594
  740MOL0     O99813   1.034   4.406   0.944 -0.1093  0.0782 -0.2968
  740MOL0     C99814   1.265   4.533   1.003 -0.3869 -0.1073  0.0238
  740MOL0     C99815   1.397   4.575   0.994 -0.0066  0.5037 -0.2608
  740MOL0     N99816   1.729   4.785   1.590 -0.0993  0.0089 -0.2053
  740MOL0     N99817   1.789   4.718   1.679 -0.0710  0.2718 -0.8109
  740MOL0     C99818   2.930   5.053   1.958  1.2355 -0.1251  0.3685
  740MOL0     C99819   3.056   5.090   1.981  0.2712 -0.4997  0.3221
  740MOL0     C99820   3.391   5.171   2.278  0.1781  0.9910  0.5740
  740MOL0     C99821   3.407   5.283   2.365  0.0053  0.9467  0.1930
  740MOL0     C99822   3.527   5.301   2.416 -0.5246 -0.8790  0.4589
  740MOL0     C99823   3.636   5.223   2.386  0.8395 -0.0272  1.0114
  740MOL0     O99824   3.756   5.256   2.445  0.7953 -0.5482 -0.0563
  740MOL0     C99825   3.879   5.218   2.387 -0.0968 -0.1973  0.3853
  740MOL0     C99826   3.998   5.268   2.465 -0.2355  0.0190  0.9515
  740MOL0     C99827   4.013   5.420   2.459 -0.3790 -0.3822 -0.0135
  740MOL0     C99828   4.143   5.465   2.532 -0.4055 -0.2467 -0.2054
  740MOL0     C99829   4.268   5.486   2.456  0.2436 -1.1013  0.1538
  740MOL0     C99830   4.373   5.491   2.394  0.0197  0.5512  0.6728
  740MOL0     C99831   3.622   5.108   2.302  0.7251 -0.1003  0.1983
  740MOL0     C99832   3.493   5.086   2.260  0.3791 -0.4441 -0.0916
  740MOL0     H99833   3.152   4.830   2.181 -1.7181  0.4458  3.3130
  740MOL0     H99834   2.924   4.750   2.105 -0.5063  0.1378  0.3237
  740MOL0     H99835   2.678   5.083   1.974 -1.1774 -1.3149  2.6790
  740MOL0     H99836   2.685   5.009   1.821 -0.9250 -0.0511 -0.3885
  740MOL0     H99837   2.490   4.949   2.039  0.3667  3.8466  0.8648
  740MOL0     H99838   2.449   5.023   1.883 -1.8161  0.6435  1.7881
  740MOL0     H99839   2.552   4.792   1.774 -2.5626 -4.1879 -0.3410
  740MOL0     H99840   2.515   4.744   1.931  3.1749  0.2855 -1.6641
  740MOL0     H99841   2.299   4.790   1.922 -0.1370 -4.2095  0.4089
  740MOL0     H99842   2.312   4.886   1.768 -1.9234 -0.8684  0.5154
  740MOL0     H99843   2.355   4.653   1.655 -1.2403 -2.2165 -0.4133
  740MOL0     H99844   2.325   4.569   1.810 -1.4058 -1.3039 -2.1514
  740MOL0     H99845   2.100   4.685   1.821 -2.4724 -0.8713 -1.8690
  740MOL0     H99846   2.130   4.775   1.675  1.0053  0.6433  0.6104
  740MOL0     H99847   2.148   4.551   1.570  2.6415  2.6852  0.7025
  740MOL0     H99848   2.142   4.470   1.722 -1.4131 -3.9287 -2.5098
  740MOL0     H99849   1.934   4.521   1.781  2.3358 -1.0171 -0.1940
  740MOL0     H99850   1.934   4.436   1.628 -2.2910 -0.5692  1.9575
  740MOL0     H99851   1.922   4.608   1.392  1.8604 -0.4616  0.1417
  740MOL0     H99852   1.577   4.795   1.390  0.7380  0.2826 -0.2850
  740MOL0     H99853   1.701   4.913   1.355 -0.0119 -0.2504  1.5761
  740MOL0     H99854   1.712   4.608   1.253  5.1282 -0.8905 -3.5092
  740MOL0     H99855   1.811   4.730   1.201  0.7071 -2.8325 -0.2723
  740MOL0     H99856   1.637   4.860   1.099  1.7756 -0.3465  0.8971
  740MOL0     H99857   1.517   4.748   1.143  0.2757  4.8531  0.6872
  740MOL0     H99858   1.775   4.689   0.994 -0.6059 -0.7450 -0.2113
  740MOL0     H99859   1.627   4.717   0.908 -0.8122 -2.5619 -1.8112
  740MOL0     H99860   1.568   4.297   1.071 -3.0101 -3.1191  0.2261
  740MOL0     H99861   1.316   4.140   1.194 -0.6256 -1.3054 -0.4143
  740MOL0     H99862   1.290   4.111   1.018  1.9656 -1.9652 -1.1162
  740MOL0     H99863   1.452   4.124   1.091 -0.6022 -0.3310 -2.0983
  740MOL0     H99864   0.841   4.377   1.101 -1.0892 -0.1000  4.4940
  740MOL0     H99865   0.617   4.278   1.086 -1.7579 -2.0788 -0.9492
  740MOL0     H99866   0.555   3.830   1.090  0.6483  1.6544 -0.1277
  740MOL0     H99867   0.595   3.869   1.254  1.1064  2.7630 -0.3602
  740MOL0     H99868   0.351   3.764   1.247  0.4336  0.7808  2.4403
  740MOL0     H99869   0.363   3.923   1.316  1.4810 -1.3664  1.2181
  740MOL0     H99870   0.266   3.857   1.042  2.9784 -0.8648  1.0373
  740MOL0     H99871   0.289   4.019   1.109  1.1528  0.4499  0.7028
  740MOL0     H99872   0.068   3.837   1.187  1.1483 -0.6629  1.2703
  740MOL0     H99873   0.123   3.954   1.301 -3.8873 -1.3760 -0.1671
  740MOL0     H99874   0.012   3.998   1.006  1.1998  2.3953 -0.3851
  740MOL0     H99875   0.098   4.125   1.090  0.1453 -0.7617  0.7963
  740MOL0     H99876  -0.069   4.134   1.276 -3.3985 -1.9807  2.1256
  740MOL0     H99877  -0.154   4.153   1.126 -1.2026  0.3793  1.6272
  740MOL0     H99878  -0.154   3.915   1.317 -0.6264 -2.2013 -1.3529
  740MOL0     H99879  -0.175   3.886   1.138  0.1956  1.1342 -2.2848
  740MOL0     H99880  -0.364   4.055   1.146  0.1931  0.2942  0.1630
  740MOL0     H99881  -0.342   4.070   1.312 -0.8228  1.3712 -1.5408
  740MOL0     H99882   0.793   3.894   1.174 -0.7655  0.3051 -0.5444
  740MOL0     H99883   1.001   3.973   1.139 -2.2805 -2.0804  2.3638
  740MOL0     H99884   1.183   4.601   0.982 -0.9007 -0.6418  0.2716
  740MOL0     H99885   1.409   4.682   0.987  3.3124  0.2059 -0.5398
  740MOL0     H99886   2.872   5.122   1.897  0.4871  0.0824  1.2961
  740MOL0     H99887   3.090   5.185   1.940 -2.9721  0.9863  0.7139
  740MOL0     H99888   3.321   5.346   2.386 -1.2196 -1.4122  2.9640
  740MOL0     H99889   3.550   5.391   2.472 -3.5984  0.1538  0.2440
  740MOL0     H99890   3.872   5.109   2.392 -2.0991 -0.0732  1.3031
  740MOL0     H99891   3.888   5.262   2.287  2.3261 -1.3648  0.0092
  740MOL0     H99892   4.083   5.220   2.416 -1.4954 -1.0518 -0.2845
  740MOL0     H99893   3.986   5.226   2.565  2.4843 -0.4127  1.1811
  740MOL0     H99894   3.929   5.468   2.509 -0.2645  0.1402 -0.3217
  740MOL0     H99895   4.017   5.455   2.356  0.7217 -0.7641 -0.1146
  740MOL0     H99896   4.157   5.395   2.616 -2.0178 -2.2871 -1.5188
  740MOL0     H99897   4.133   5.561   2.582  0.5504 -1.0092  1.5346
  740MOL0     H99898   4.471   5.499   2.352  0.1450 -0.7648  0.6869
  740MOL0     H99899   3.694   5.030   2.281 -0.8160 -1.6459  0.3868
  740MOL0     H99900   3.481   5.009   2.184  0.1059 -3.3927  2.7519
  741MOL0     O99901   0.181  11.154   4.373  0.0609  0.2016  1.0100
  741MOL0     C99902   0.087  11.092   4.428  0.2567 -0.6519 -0.3054
  741MOL0     O99903   0.097  10.961   4.475 -0.0128 -0.2634  0.2570
  741MOL0     C99904   0.219  10.906   4.448 -0.1065 -0.4552  1.0410
  741MOL0     C99905   0.220  10.846   4.324  0.2090  0.2503  0.0763
  741MOL0     C99906   0.333  10.792   4.273 -0.4114 -0.4121 -0.0205
  741MOL0     C99907   0.453  10.783   4.342 -0.0079  0.1741 -0.7252
  741MOL0     O99908   0.572  10.711   4.311 -0.3119  0.3629  0.2519
  741MOL0     C99909   0.618  10.743   4.177  0.2912 -0.5484 -0.2785
  741MOL0     C99910   0.756  10.679   4.153  0.3321  0.3657 -0.7748
  741MOL0     C99911   0.872  10.731   4.235  0.2425  0.2652  0.1185
  741MOL0     C99912   0.886  10.880   4.204 -0.2640 -0.5701 -0.0600
  741MOL0     C99913   0.831  10.970   4.307  0.0866 -0.0175  0.4697
  741MOL0     C99914   0.863  11.117   4.268  1.0915 -0.6042  0.2229
  741MOL0     C99915   0.810  11.204   4.385 -0.0526  0.8668  0.4454
  741MOL0     C99916   0.806  11.353   4.353 -0.2044 -0.3360  0.4584
  741MOL0     N99917   0.695  11.397   4.261  0.4236 -0.6050  0.6271
  741MOL0     C99918   0.564  11.420   4.298  0.7302  0.3675 -0.2448
  741MOL0     C99919   0.509  11.442   4.179  0.3547 -0.4968 -0.3783
  741MOL0     C99920   0.367  11.485   4.158  0.6316  0.4075 -0.1052
  741MOL0     C99921   0.342  11.571   4.039 -0.3279 -0.4795  0.2384
  741MOL0     C99922   0.200  11.631   4.048 -0.0823 -0.9230  0.4628
  741MOL0     C99923   0.078  11.533   4.039  0.5906  0.5902  0.2989
  741MOL0     O99924  -0.042  11.609   4.014 -0.1518  0.6251  0.6385
  741MOL0     C99925  -0.163  11.539   3.974 -0.0017  0.1914  0.4789
  741MOL0     C99926  -0.182  11.408   4.001  0.2863 -0.5943  0.9613
  741MOL0     C99927  -0.300  11.348   3.983 -0.3413 -0.6810  0.0810
  741MOL0     C99928  -0.310  11.201   4.001 -0.2032  0.5329 -1.0011
  741MOL0     C99929  -0.410  11.428   3.935 -0.7642  0.6672  0.5054
  741MOL0     C99930  -0.549  11.367   3.923 -0.1333  0.1936 -0.7250
  741MOL0     O99931  -0.581  11.275   4.014 -0.1373 -0.1677 -0.6373
  741MOL0     C99932  -0.713  11.240   4.019  1.0486 -0.7807  0.5813
  741MOL0     C99933  -0.771  11.151   3.926 -0.4328 -1.0802 -0.0651
  741MOL0     C99934  -0.895  11.114   3.951  0.3574  0.1424  0.1343
  741MOL0     C99935  -0.989  11.163   4.046  0.0201 -0.5989  0.0795
  741MOL0     O99936  -1.110  11.106   4.082 -0.5538  0.6835 -0.2918
  741MOL0     C99937  -1.133  10.969   4.053 -0.7546  0.2525  0.1591
  741MOL0     C99938  -1.256  10.929   4.140 -0.1160  0.7281 -0.2207
  741MOL0     C99939  -1.382  11.020   4.130 -0.9051  0.5827 -0.6684
  741MOL0     C99940  -1.497  10.961   4.219  0.3740  0.3586  0.0041
  741MOL0     C99941  -1.645  11.014   4.186 -0.2719 -1.0434  0.7550
  741MOL0     C99942  -1.751  10.995   4.295  0.7173 -0.0923  0.0824
  741MOL0     C99943  -1.895  11.007   4.247 -0.4143 -0.2225 -0.0777
  741MOL0     C99944  -1.982  11.060   4.365  0.2490 -0.3338 -0.1919
  741MOL0    Cl99945  -2.014  10.927   4.480  0.0647  0.4817 -0.7400
  741MOL0     C99946  -0.935  11.264   4.128 -0.0956  0.0971  0.4995
  741MOL0     C99947  -0.797  11.290   4.113  0.6375  0.2546  0.7789
  741MOL0     O99948  -0.631  11.414   3.846 -0.0630  0.0603 -0.1553
  741MOL0     C99949  -0.387  11.556   3.892  0.7061 -0.5576 -0.0170
  741MOL0     C99950  -0.265  11.615   3.921 -0.4475 -0.2337  0.0861
  741MOL0     N99951   0.596  11.428   4.079 -0.0763  0.4006 -0.4595
  741MOL0     N99952   0.710  11.410   4.127  0.7077 -0.7097 -0.1559
  741MOL0     C99953   0.444  10.832   4.471 -0.8268 -0.8923 -1.4005
  741MOL0     C99954   0.332  10.898   4.524  0.4160  0.3475 -0.7828
  741MOL0     C99955  -0.044  11.157   4.415  0.3797 -0.4548  0.0155
  741MOL0     C99956  -0.071  11.279   4.354  0.5704  0.9059  0.3522
  741MOL0     C99957  -0.200  11.325   4.326  0.1689  0.0505 -0.3500
  741MOL0     C99958  -0.311  11.248   4.371 -0.1120 -1.1966  0.3273
  741MOL0     O99959  -0.435  11.287   4.329 -0.2559 -0.0871 -0.6699
  741MOL0     C99960  -0.546  11.260   4.408 -0.0689 -0.4567  0.5941
  741MOL0     C99961  -0.535  11.327   4.541  0.2181 -0.4052 -0.2655
  741MOL0     C99962  -0.665  11.311   4.613  0.4547  0.4949 -0.0849
  741MOL0     C99963  -0.661  11.373   4.745  0.3641  0.3890  0.6399
  741MOL0     C99964  -0.799  11.367   4.806 -0.6103  0.2143 -0.5080
  741MOL0     C99965  -0.904  11.353   4.863 -0.4867 -0.8927  0.1114
  741MOL0     C99966  -0.286  11.135   4.434 -0.3125  0.3526 -1.2115
  741MOL0     C99967  -0.160  11.089   4.461 -0.4487 -0.3544 -0.2329
  741MOL0     H99968   0.131  10.834   4.263 -0.8018  0.3022  1.4819
  741MOL0     H99969   0.328  10.753   4.172  2.8482  2.0099 -1.3198
  741MOL0     H99970   0.542  10.717   4.102 -0.3835  2.1981 -0.6618
  741MOL0     H99971   0.628  10.850   4.159  0.8289 -0.6403 -0.5615
  741MOL0     H99972   0.752  10.570   4.160  0.2500  0.4133 -0.1003
  741MOL0     H99973   0.779  10.697   4.047 -1.8084  0.6140 -1.2348
  741MOL0     H99974   0.865  10.711   4.342 -0.0074  0.5064  0.1466
  741MOL0     H99975   0.969  10.687   4.208  0.4831  0.0373  1.3121
  741MOL0     H99976   0.992  10.906   4.205 -0.7226  1.7110  3.0278
  741MOL0     H99977   0.850  10.900   4.102  2.9419  1.9511 -0.8709
  741MOL0     H99978   0.724  10.949   4.315  0.2308 -0.5896  0.9866
  741MOL0     H99979   0.882  10.946   4.401  0.2420  0.3507  0.4816
  741MOL0     H99980   0.964  11.138   4.233  0.1694  1.8041 -1.2423
  741MOL0     H99981   0.796  11.145   4.186  1.3540 -0.7610 -0.0484
  741MOL0     H99982   0.711  11.164   4.405 -0.2439  1.3426  0.4735
  741MOL0     H99983   0.873  11.188   4.473 -1.9865 -1.6055  1.5033
  741MOL0     H99984   0.904  11.382   4.315  0.4344 -1.2034  1.3827
  741MOL0     H99985   0.795  11.411   4.445 -0.4791  2.5118 -1.2573
  741MOL0     H99986   0.522  11.406   4.398  2.4755 -0.0990  0.4600
  741MOL0     H99987   0.294  11.404   4.144 -1.1917  2.3652 -3.1113
  741MOL0     H99988   0.346  11.534   4.253  2.7892  0.4919  0.3654
  741MOL0     H99989   0.345  11.512   3.947 -0.2496  1.4782 -1.0785
  741MOL0     H99990   0.418  11.644   4.009  1.1892 -1.5591  1.2689
  741MOL0     H99991   0.188  11.690   3.957  0.0939  0.0281  1.0425
  741MOL0     H99992   0.180  11.706   4.125 -0.6971  0.6089 -1.1340
  741MOL0     H99993   0.072  11.465   4.124 -1.4240 -0.1211 -0.3586
  741MOL0     H99994   0.087  11.468   3.952 -2.4325  0.3239  0.0826
  741MOL0     H99995  -0.109  11.344   4.050 -0.2170 -1.6440  0.3569
  741MOL0     H99996  -0.388  11.147   3.946 -1.2685  1.4999 -0.4879
  741MOL0     H99997  -0.217  11.145   3.992 -0.2569 -0.4279  2.8751
  741MOL0     H99998  -0.354  11.182   4.099  3.3638 -1.1810  0.4210
  741MOL0     H99999  -0.713  11.114   3.842 -0.0449  2.6008 -1.5960
  741MOL0     H    0  -0.942  11.036   3.892 -0.9665  0.5335  0.6278
  741MOL0     H    1  -1.153  10.951   3.947 -1.5989  0.1429  0.3292
  741MOL0     H    2  -1.046  10.906   4.076  0.0136  1.2163 -0.0292
  741MOL0     H    3  -1.282  10.828   4.109  0.9994  0.4308 -0.2523
  741MOL0     H    4  -1.225  10.933   4.245 -1.5810 -0.2391  0.2803
  741MOL0     H    5  -1.412  11.031   4.025  0.2163  1.8279 -0.8885
  741MOL0     H    6  -1.365  11.112   4.187 -2.3351 -0.9894  2.5359
  741MOL0     H    7  -1.496  10.852   4.228  0.9916  0.3815  0.2982
  741MOL0     H    8  -1.465  10.997   4.317  3.2162 -0.4670 -0.5361
  741MOL0     H    9  -1.678  10.962   4.096 -0.5786 -0.9696  0.8230
  741MOL0     H   10  -1.643  11.119   4.153  1.3026 -1.0168  0.8684
  741MOL0     H   11  -1.736  10.898   4.344 -0.4267 -0.8349 -0.9931
  741MOL0     H   12  -1.713  11.072   4.363  0.2965  1.3329 -1.2314
  741MOL0     H   13  -1.935  10.917   4.201  0.7873  0.0741 -1.8202
  741MOL0     H   14  -1.890  11.079   4.164 -1.2478 -1.6406 -1.4004
  741MOL0     H   15  -2.075  11.101   4.326  1.8242  3.0376 -0.7596
  741MOL0     H   16  -1.929  11.138   4.421 -0.9710 -0.9989  1.9985
  741MOL0     H   17  -0.981  11.313   4.214 -1.9768 -1.1031  0.2331
  741MOL0     H   18  -0.753  11.368   4.174  0.8000  4.2726 -3.8807
  741MOL0     H   19  -0.458  11.628   3.852  1.8587  1.6359  1.6610
  741MOL0     H   20  -0.231  11.717   3.909  1.9993 -1.0699 -0.6167
  741MOL0     H   21   0.533  10.823   4.533 -2.0225 -3.9955  0.0652
  741MOL0     H   22   0.327  10.943   4.622  1.4788  0.0650 -0.5847
  741MOL0     H   23   0.007  11.345   4.319  1.9521  0.4013  2.3053
  741MOL0     H   24  -0.216  11.420   4.276 -1.9068 -0.2634 -0.3624
  741MOL0     H   25  -0.634  11.297   4.355  1.8381 -0.7391 -3.0382
  741MOL0     H   26  -0.556  11.152   4.421 -1.6092 -0.6197 -1.4478
  741MOL0     H   27  -0.524  11.433   4.519  0.4998 -0.5058 -0.6275
  741MOL0     H   28  -0.456  11.294   4.609  1.2870  2.1339 -0.1765
  741MOL0     H   29  -0.695  11.208   4.631  0.4290  0.9361  2.7233
  741MOL0     H   30  -0.745  11.359   4.555  2.1710  1.1511 -2.0578
  741MOL0     H   31  -0.628  11.477   4.738  0.3104  0.3766  0.1850
  741MOL0     H   32  -0.603  11.297   4.799 -3.2105 -2.2426  1.1186
  741MOL0     H   33  -0.997  11.336   4.914  0.6361 -0.6275  2.3607
  741MOL0     H   34  -0.362  11.067   4.470  1.4331  0.5031  3.3908
  741MOL0     H   35  -0.152  10.985   4.491 -0.1354 -1.2595 -3.0908
  742MOL0     O   36  10.942   9.764   1.622 -0.8107 -0.2073 -0.1426
  742MOL0     C   37  10.948   9.892   1.611 -1.1238 -0.2288  0.3977
  742MOL0     O   38  11.058   9.969   1.630 -0.1140 -0.5931 -0.6054
  742MOL0     C   39  11.182   9.921   1.647  0.2989 -0.1506 -0.6175
  742MOL0     C   40  11.288   9.950   1.563 -0.4040 -0.4517  0.5154
  742MOL0     C   41  11.413   9.888   1.567 -0.4009  0.0721 -0.5313
  742MOL0     C   42  11.442   9.799   1.665  0.7532 -0.7859  0.3109
  742MOL0     O   43  11.566   9.757   1.696  0.7826  0.0329 -0.0635
  742MOL0     C   44  11.642   9.706   1.585  0.1627  0.2164 -0.3589
  742MOL0     C   45  11.762   9.619   1.633  1.1983 -1.1945  0.0163
  742MOL0     C   46  11.867   9.701   1.696  0.5637  0.0260  0.0328
  742MOL0     C   47  11.986   9.622   1.729 -0.5391 -0.5875 -0.2957
  742MOL0     C   48  12.103   9.717   1.773  0.9729 -0.1324  0.6146
  742MOL0     C   49  12.222   9.657   1.855  0.7902  0.1483 -0.1303
  742MOL0     C   50  12.339   9.764   1.874  0.3341  0.3171 -1.2748
  742MOL0     C   51  12.477   9.703   1.911  0.3888 -0.4355 -0.5359
  742MOL0     N   52  12.554   9.649   1.791  1.3967 -1.2140  0.1905
  742MOL0     C   53  12.554   9.522   1.745 -0.1836  0.7865  0.0902
  742MOL0     C   54  12.592   9.533   1.621  0.0872 -0.7033  1.5401
  742MOL0     C   55  12.607   9.418   1.536  0.4487  0.8537 -0.1893
  742MOL0     C   56  12.682   9.430   1.398  0.3852 -0.1133 -0.6922
  742MOL0     C   57  12.646   9.322   1.291  0.1914  0.6760  0.0160
  742MOL0     C   58  12.624   9.173   1.333 -0.1879  1.0220 -0.2372
  742MOL0     O   59  12.500   9.129   1.397 -0.4911 -0.1516  0.3123
  742MOL0     C   60  12.383   9.164   1.330  0.5573 -0.3555 -0.0724
  742MOL0     C   61  12.268   9.150   1.414  0.0559  0.0668  0.1151
  742MOL0     C   62  12.140   9.160   1.365  0.5937  0.2128 -0.5576
  742MOL0     C   63  12.041   9.141   1.480  0.1370  0.3993  0.3805
  742MOL0     C   64  12.126   9.181   1.226  0.2193  0.1822 -0.8164
  742MOL0     C   65  11.983   9.180   1.176 -0.0897 -0.0376 -0.1676
  742MOL0     O   66  11.910   9.069   1.195  0.1555 -0.0252  1.0123
  742MOL0     C   67  11.784   9.053   1.144  1.1467 -0.0853 -0.1946
  742MOL0     C   68  11.704   8.959   1.211  0.1772 -1.3032 -0.1010
  742MOL0     C   69  11.580   8.917   1.159 -0.7811  0.3284  0.0216
  742MOL0     C   70  11.525   8.974   1.048  0.2481  0.3146  0.1209
  742MOL0     O   71  11.401   8.919   1.009  0.0327  0.4034  0.2345
  742MOL0     C   72  11.327   8.979   0.904 -0.7608  0.3803  0.2253
  742MOL0     C   73  11.281   9.119   0.945  0.3020 -0.2219  0.3930
  742MOL0     C   74  11.186   9.114   1.072 -0.1548 -0.9255 -0.0662
  742MOL0     C   75  11.115   9.249   1.100  0.0500  0.0621 -1.1292
  742MOL0     C   76  11.024   9.225   1.220 -0.0795 -0.1311 -0.0148
  742MOL0     C   77  11.098   9.203   1.348  0.3576  0.0873  0.4566
  742MOL0     C   78  11.191   9.319   1.390 -0.7424 -0.0421 -0.3210
  742MOL0     C   79  11.221   9.298   1.537 -0.2884  0.6334  0.0787
  742MOL0    Cl   80  11.358   9.398   1.597 -0.3746  0.4005  0.0990
  742MOL0     C   81  11.614   9.062   0.972  0.6100 -0.4037  0.3925
  742MOL0     C   82  11.730   9.109   1.028  0.1280 -0.2818  0.8323
  742MOL0     O   83  11.945   9.284   1.118  0.5317 -0.0921  0.1563
  742MOL0     C   84  12.234   9.197   1.144 -1.0672  0.8610  0.4362
  742MOL0     C   85  12.362   9.186   1.189  0.3201  0.4814  0.1128
  742MOL0     N   86  12.617   9.662   1.587 -0.3724 -0.2789  0.3864
  742MOL0     N   87  12.595   9.733   1.694 -0.0094  0.1378  1.3238
  742MOL0     C   88  11.344   9.774   1.759 -0.3514  0.0311 -0.5196
  742MOL0     C   89  11.217   9.839   1.754  1.0044  0.2995  0.1234
  742MOL0     C   90  10.821   9.963   1.582  0.1528  0.4997  0.7200
  742MOL0     C   91  10.695   9.896   1.565 -0.7903 -0.3130 -0.0096
  742MOL0     C   92  10.588   9.975   1.540 -0.5271 -0.7432  0.2121
  742MOL0     C   93  10.584  10.111   1.515 -1.3796 -0.6935 -0.0966
  742MOL0     O   94  10.473  10.184   1.496  0.8899 -0.4105  0.5273
  742MOL0     C   95  10.472  10.325   1.463 -0.8733  0.4479  0.2808
  742MOL0     C   96  10.335  10.378   1.442  0.3828 -0.1364 -0.1767
  742MOL0     C   97  10.235  10.285   1.366  0.3926  0.4544  0.5036
  742MOL0     C   98  10.087  10.335   1.380  0.1482  0.3565  0.0269
  742MOL0     C   99  10.043  10.456   1.308 -0.6229 -0.2247  0.7312
  742MOL0     C  100  10.015  10.561   1.250 -0.9764  0.0415 -0.1287
  742MOL0     C  101  10.709  10.172   1.536 -0.0180 -0.0333  0.4630
  742MOL0     C  102  10.822  10.099   1.567 -0.2850 -0.2254  0.4527
  742MOL0     H  103  11.259  10.008   1.476  0.3359 -0.5928  0.1670
  742MOL0     H  104  11.477   9.908   1.482 -1.2889 -1.2148 -1.5390
  742MOL0     H  105  11.584   9.644   1.516  2.6286 -1.3002 -1.2085
  742MOL0     H  106  11.684   9.790   1.529  3.0822 -1.2285 -0.5556
  742MOL0     H  107  11.738   9.547   1.712  0.3711 -0.0860  0.7990
  742MOL0     H  108  11.796   9.554   1.551  2.8053 -0.1812 -0.1797
  742MOL0     H  109  11.902   9.780   1.629  0.7597  0.1872  0.3240
  742MOL0     H  110  11.821   9.749   1.783 -1.3296 -1.4954 -0.0573
  742MOL0     H  111  11.957   9.544   1.800 -0.1290 -1.0282 -0.6022
  742MOL0     H  112  12.020   9.573   1.637  1.4290  1.6520 -0.8674
  742MOL0     H  113  12.143   9.780   1.693 -0.3572  0.1758  0.1702
  742MOL0     H  114  12.073   9.804   1.831 -1.6485  1.5494 -2.8681
  742MOL0     H  115  12.185   9.628   1.954  0.0262  0.3529 -0.3535
  742MOL0     H  116  12.258   9.574   1.792 -1.9724 -0.8873 -0.4784
  742MOL0     H  117  12.346   9.838   1.794 -1.5046 -0.0618 -1.8274
  742MOL0     H  118  12.292   9.824   1.953 -0.9325 -0.2518 -1.5776
  742MOL0     H  119  12.465   9.620   1.980 -0.8975  0.7770  0.7732
  742MOL0     H  120  12.542   9.774   1.963  0.1521  1.2146 -2.3579
  742MOL0     H  121  12.542   9.427   1.795  0.2551  1.9871  2.6403
  742MOL0     H  122  12.666   9.353   1.601 -0.6986  0.8215  0.8699
  742MOL0     H  123  12.506   9.380   1.519  0.9466 -0.6395  0.0196
  742MOL0     H  124  12.791   9.433   1.412  0.3457  0.7864 -0.4942
  742MOL0     H  125  12.659   9.528   1.355  2.1535 -0.2207 -2.0193
  742MOL0     H  126  12.715   9.323   1.206  1.8658 -1.4513  1.2537
  742MOL0     H  127  12.559   9.357   1.236  0.3232 -0.0644 -0.6871
  742MOL0     H  128  12.709   9.134   1.389  0.3180 -1.8457 -2.7133
  742MOL0     H  129  12.636   9.115   1.241  2.5867  1.1713 -0.0416
  742MOL0     H  130  12.267   9.142   1.522 -1.4104  1.8608  0.2828
  742MOL0     H  131  12.038   9.232   1.539 -1.3197  1.4602 -1.2398
  742MOL0     H  132  11.942   9.115   1.442  0.0373 -0.7511  1.3443
  742MOL0     H  133  12.081   9.066   1.549  1.3762 -0.7140 -1.4595
  742MOL0     H  134  11.756   8.910   1.293  0.4380  1.7225  1.6982
  742MOL0     H  135  11.521   8.846   1.215  0.2095 -0.6308 -0.1021
  742MOL0     H  136  11.379   8.996   0.810  0.2944 -3.7496 -0.1203
  742MOL0     H  137  11.249   8.909   0.873 -1.1590  0.6915  0.4944
  742MOL0     H  138  11.369   9.182   0.957  1.4383 -1.8510  0.8382
  742MOL0     H  139  11.222   9.159   0.862  0.1962  3.4174  2.0459
  742MOL0     H  140  11.243   9.076   1.157  1.6577 -1.2306 -1.3507
  742MOL0     H  141  11.097   9.051   1.057 -1.6949  1.4941 -1.9061
  742MOL0     H  142  11.186   9.331   1.115 -2.3379  1.7681  2.3417
  742MOL0     H  143  11.042   9.278   1.025 -4.9150  0.7539  3.3432
  742MOL0     H  144  10.962   9.135   1.211  0.9084 -0.7849 -0.4469
  742MOL0     H  145  10.960   9.313   1.212  1.7547  1.0887 -2.6181
  742MOL0     H  146  11.012   9.199   1.415 -1.8427  1.7826 -2.0567
  742MOL0     H  147  11.143   9.104   1.357 -3.3448 -1.6099  2.3591
  742MOL0     H  148  11.159   9.423   1.376 -1.4844 -0.4883 -2.2400
  742MOL0     H  149  11.288   9.313   1.340  0.0852  0.9444  1.0936
  742MOL0     H  150  11.240   9.194   1.567  1.5499  0.2999 -2.0205
  742MOL0     H  151  11.125   9.330   1.579 -0.5515  1.3669 -1.0397
  742MOL0     H  152  11.576   9.098   0.877 -0.3886  0.5504  1.1230
  742MOL0     H  153  11.785   9.181   0.967  3.2279 -2.0494  1.3489
  742MOL0     H  154  12.211   9.227   1.042  2.2272  3.7880  0.3858
  742MOL0     H  155  12.433   9.191   1.107 -0.6012 -0.3628 -0.7743
  742MOL0     H  156  11.361   9.712   1.846 -0.5479  3.7432  2.4327
  742MOL0     H  157  11.150   9.810   1.834  0.8170  0.2321 -0.0555
  742MOL0     H  158  10.678   9.789   1.571  2.1629 -0.9144 -0.6985
  742MOL0     H  159  10.493   9.924   1.525 -0.1225 -1.4999  0.1802
  742MOL0     H  160  10.523  10.373   1.547 -0.0392 -0.6469  0.4171
  742MOL0     H  161  10.529  10.339   1.371  1.3490  2.5434  1.8460
  742MOL0     H  162  10.340  10.479   1.399 -0.2026 -0.5957 -1.3596
  742MOL0     H  163  10.299  10.395   1.544  0.5192 -0.8667 -0.0044
  742MOL0     H  164  10.237  10.180   1.397 -1.6404 -0.1373 -1.1304
  742MOL0     H  165  10.262  10.288   1.260  2.7856  0.5373  1.0418
  742MOL0     H  166  10.070  10.341   1.488 -1.1190  1.5285 -0.2147
  742MOL0     H  167  10.023  10.259   1.335  0.6787 -0.6451  0.9045
  742MOL0     H  168  10.013  10.656   1.200 -1.7017  0.4027  0.5645
  742MOL0     H  169  10.726  10.279   1.533 -0.7738  0.1507  2.0011
  742MOL0     H  170  10.907  10.166   1.576 -0.5811  0.2442 -0.1846
  743MOL0     O  171   6.444   7.180   3.786  0.2731  0.6152 -0.5876
  743MOL0     C  172   6.432   7.303   3.772 -0.4115 -0.1909  0.1747
  743MOL0     O  173   6.337   7.374   3.842  0.9085 -0.1797  0.5083
  743MOL0     C  174   6.229   7.312   3.892  1.1073  0.6946 -0.1937
  743MOL0     C  175   6.231   7.252   4.023 -0.2851  0.1016 -1.6927
  743MOL0     C  176   6.108   7.202   4.075 -1.0204  0.7735 -0.5218
  743MOL0     C  177   5.980   7.205   4.000 -1.0851  0.1978 -0.8472
  743MOL0     O  178   5.867   7.177   4.081  0.4069 -0.4335  0.1703
  743MOL0     C  179   5.732   7.190   4.026  0.4465  0.6699 -0.3567
  743MOL0     C  180   5.629   7.200   4.134  0.4616  0.3733 -0.2696
  743MOL0     C  181   5.491   7.148   4.097 -0.8007 -0.7760 -0.9426
  743MOL0     C  182   5.396   7.156   4.217  0.4350 -0.1491  0.1769
  743MOL0     C  183   5.266   7.078   4.181 -0.1619  0.5888 -0.5988
  743MOL0     C  184   5.179   7.084   4.307  0.3102  0.0900 -0.0771
  743MOL0     C  185   5.063   6.990   4.304 -0.4327  0.8275  0.2536
  743MOL0     C  186   4.960   7.044   4.212  0.3759 -0.4551  0.4051
  743MOL0     N  187   4.835   6.964   4.212 -0.4922  0.2669 -0.1401
  743MOL0     C  188   4.749   6.972   4.317 -1.1090 -0.2310 -0.8551
  743MOL0     C  189   4.670   6.863   4.305 -0.0952  0.7426 -0.4264
  743MOL0     C  190   4.569   6.807   4.402  0.1762  0.1564 -1.0016
  743MOL0     C  191   4.423   6.825   4.357  0.3045 -0.1268 -0.0227
  743MOL0     C  192   4.387   6.739   4.241  0.1452  0.3781  0.8313
  743MOL0     C  193   4.246   6.772   4.191 -0.7928  0.9805 -0.0325
  743MOL0     O  194   4.142   6.707   4.266 -0.5303  0.2820  0.0886
  743MOL0     C  195   4.030   6.662   4.203  0.4314  0.2552 -0.1224
  743MOL0     C  196   3.981   6.715   4.083 -0.2517 -1.2398 -0.3899
  743MOL0     C  197   3.876   6.658   4.016  0.1061 -0.1649  0.4436
  743MOL0     C  198   3.851   6.720   3.888  0.9323 -0.2151  0.4933
  743MOL0     C  199   3.801   6.558   4.075 -0.5846 -0.4419 -0.1542
  743MOL0     C  200   3.679   6.500   4.004 -0.0800  0.8624 -1.4267
  743MOL0     O  201   3.606   6.415   4.083 -0.5252 -0.2694  0.1300
  743MOL0     C  202   3.493   6.352   4.038  0.1369 -0.4620  0.2773
  743MOL0     C  203   3.476   6.219   4.065  0.0161 -0.2551 -0.7745
  743MOL0     C  204   3.367   6.143   4.027 -0.0540  0.7450  0.3766
  743MOL0     C  205   3.264   6.208   3.955  0.4011 -0.0596  0.1669
  743MOL0     O  206   3.132   6.156   3.936 -0.3737 -0.4586 -0.0453
  743MOL0     C  207   3.109   6.025   3.988 -0.0234  0.5246  0.3132
  743MOL0     C  208   2.984   5.969   3.914  0.0660 -0.3650  1.0627
  743MOL0     C  209   2.981   6.010   3.770  0.1665 -0.3246 -0.2953
  743MOL0     C  210   2.846   5.976   3.717  0.0362 -0.4348  0.0147
  743MOL0     C  211   2.837   6.026   3.580 -0.3980  0.8431 -0.1588
  743MOL0     C  212   2.740   5.934   3.497  0.1408 -0.4430  0.5096
  743MOL0     C  213   2.759   5.973   3.346  0.0749  0.7091  0.3423
  743MOL0     C  214   2.677   5.876   3.265  0.1630  0.7428 -0.3866
  743MOL0    Cl  215   2.501   5.881   3.305 -0.1123 -0.1043 -0.5450
  743MOL0     C  216   3.284   6.345   3.927  0.9581 -0.1655 -0.5032
  743MOL0     C  217   3.394   6.418   3.963  0.3156  0.0227 -1.0797
  743MOL0     O  218   3.657   6.534   3.886 -0.9899 -0.5045  0.3198
  743MOL0     C  219   3.846   6.506   4.193 -0.2410  0.0087  0.1977
  743MOL0     C  220   3.952   6.560   4.256 -1.0225 -0.1066 -0.0697
  743MOL0     N  221   4.710   6.797   4.190  0.3357  0.0417 -0.7899
  743MOL0     N  222   4.814   6.850   4.149 -0.8420  1.2210  0.9345
  743MOL0     C  223   5.985   7.258   3.872  0.5050 -1.0187  0.2682
  743MOL0     C  224   6.104   7.310   3.817 -0.2692  0.2062 -0.6709
  743MOL0     C  225   6.540   7.370   3.694 -0.2436  0.4001 -1.1740
  743MOL0     C  226   6.623   7.283   3.613 -0.5118 -0.1624 -0.3365
  743MOL0     C  227   6.725   7.336   3.547 -0.9226  0.3957  0.2548
  743MOL0     C  228   6.752   7.470   3.548 -0.0314 -0.4982  0.5184
  743MOL0     O  229   6.854   7.510   3.463  0.7255 -0.5159 -0.6664
  743MOL0     C  230   6.877   7.654   3.461 -0.3307 -0.4967  0.0263
  743MOL0     C  231   6.977   7.673   3.352 -0.0779  0.4290 -0.2651
  743MOL0     C  232   7.115   7.657   3.408 -0.0027  0.1679  0.2664
  743MOL0     C  233   7.211   7.680   3.296  0.0846 -0.8474  0.0308
  743MOL0     C  234   7.348   7.655   3.350  0.1601 -0.1181 -0.1286
  743MOL0     C  235   7.456   7.639   3.390 -0.4262 -0.0785  0.5187
  743MOL0     C  236   6.676   7.553   3.629  0.3357 -0.2839 -0.2066
  743MOL0     C  237   6.564   7.503   3.701  0.6353 -0.4140  0.2030
  743MOL0     H  238   6.317   7.240   4.087 -0.5900  0.2175 -1.2594
  743MOL0     H  239   6.103   7.165   4.177 -0.4323  1.4706 -0.2280
  743MOL0     H  240   5.719   7.274   3.957  0.4860 -1.0404 -2.6000
  743MOL0     H  241   5.716   7.095   3.973 -0.0914  0.3296  0.4100
  743MOL0     H  242   5.654   7.139   4.222 -1.3248 -0.7658 -0.4944
  743MOL0     H  243   5.628   7.298   4.183 -0.4639 -1.6796  4.3991
  743MOL0     H  244   5.464   7.202   4.006 -2.2365 -2.5355 -1.6291
  743MOL0     H  245   5.494   7.044   4.063 -1.7020 -1.6982  1.6261
  743MOL0     H  246   5.447   7.109   4.302  1.9445 -0.3359 -0.8029
  743MOL0     H  247   5.383   7.262   4.241 -3.8571 -0.6942  1.1220
  743MOL0     H  248   5.224   7.133   4.097 -0.1210 -1.1135 -1.7643
  743MOL0     H  249   5.281   6.975   4.148 -2.2597  0.7732 -2.3219
  743MOL0     H  250   5.238   7.049   4.392  1.7020  2.3273 -0.0393
  743MOL0     H  251   5.150   7.185   4.335 -0.0395 -0.8470  3.3748
  743MOL0     H  252   5.095   6.889   4.278  0.6886  1.1963  0.1523
  743MOL0     H  253   5.017   6.971   4.402 -1.0615  1.0033 -0.0016
  743MOL0     H  254   4.998   7.058   4.110 -1.0935 -4.3631 -0.8684
  743MOL0     H  255   4.934   7.138   4.261 -1.2753 -1.8932  2.4418
  743MOL0     H  256   4.750   7.047   4.396 -0.4783 -1.9168  0.7956
  743MOL0     H  257   4.583   6.701   4.425 -0.9304 -0.2303 -2.0647
  743MOL0     H  258   4.564   6.880   4.484 -2.9534 -1.0024 -0.0462
  743MOL0     H  259   4.413   6.929   4.325  0.9587 -0.9707 -3.4099
  743MOL0     H  260   4.353   6.812   4.440 -0.3477  0.4343 -0.4784
  743MOL0     H  261   4.387   6.632   4.263 -1.6141 -0.4299 -2.4124
  743MOL0     H  262   4.457   6.757   4.159  1.0594  1.1705  1.7555
  743MOL0     H  263   4.241   6.730   4.090 -2.0056 -1.7497  1.0861
  743MOL0     H  264   4.221   6.879   4.194 -2.5385  0.6053 -0.2378
  743MOL0     H  265   4.036   6.802   4.046  0.0278 -1.0630  0.4218
  743MOL0     H  266   3.753   6.768   3.883  1.2527  0.3221 -2.2756
  743MOL0     H  267   3.914   6.807   3.869  1.6447 -0.7985  0.1382
  743MOL0     H  268   3.860   6.656   3.800  1.2204 -1.5424  1.4441
  743MOL0     H  269   3.543   6.161   4.128  0.7508  1.4670  0.0736
  743MOL0     H  270   3.358   6.040   4.059 -0.0867  1.1877  1.8605
  743MOL0     H  271   3.192   5.954   3.987 -0.8094 -0.4104  0.5139
  743MOL0     H  272   3.085   6.049   4.092  1.0211 -1.2306  0.9958
  743MOL0     H  273   2.998   5.861   3.924  0.2360 -0.2678  2.0850
  743MOL0     H  274   2.884   5.986   3.956 -1.1911  0.3103 -1.9362
  743MOL0     H  275   3.059   5.957   3.715 -1.4077 -0.4689 -2.5047
  743MOL0     H  276   3.003   6.116   3.755 -1.0380  0.1257  0.8981
  743MOL0     H  277   2.834   5.868   3.704 -0.2896 -0.2590 -1.3125
  743MOL0     H  278   2.762   6.013   3.776 -1.8430 -0.5230 -2.4352
  743MOL0     H  279   2.937   6.023   3.536 -0.1693 -0.1208  0.3927
  743MOL0     H  280   2.815   6.133   3.574  1.5416  1.2020 -2.8283
  743MOL0     H  281   2.759   5.827   3.513  0.1901 -0.2902  1.5186
  743MOL0     H  282   2.636   5.958   3.523 -0.2442 -0.1126 -1.2272
  743MOL0     H  283   2.866   5.969   3.326  0.1415  0.8329  0.6667
  743MOL0     H  284   2.718   6.073   3.335 -2.3862 -0.1186  1.2146
  743MOL0     H  285   2.698   5.773   3.297  0.2742  0.2176 -2.0411
  743MOL0     H  286   2.694   5.880   3.157  0.7036 -0.7768 -0.3908
  743MOL0     H  287   3.209   6.398   3.869  3.5656  0.4215 -3.6271
  743MOL0     H  288   3.396   6.525   3.946 -0.5906  0.5174  1.4465
  743MOL0     H  289   3.792   6.431   4.250  0.3562 -0.1052  0.6131
  743MOL0     H  290   3.980   6.510   4.348  1.4356  0.6192 -0.3546
  743MOL0     H  291   5.894   7.267   3.814 -0.1164 -0.8534  1.2582
  743MOL0     H  292   6.101   7.352   3.717  2.8895 -0.6117 -1.2411
  743MOL0     H  293   6.595   7.178   3.605  2.4470 -0.9074 -3.0112
  743MOL0     H  294   6.794   7.277   3.488 -1.3119  0.8206 -0.6458
  743MOL0     H  295   6.782   7.704   3.440 -1.1383 -2.2037 -0.5600
  743MOL0     H  296   6.918   7.696   3.553 -3.6471 -0.4469  1.6249
  743MOL0     H  297   6.955   7.776   3.321  0.1093  0.5421 -0.0191
  743MOL0     H  298   6.958   7.605   3.268 -0.0457 -0.1646  0.2009
  743MOL0     H  299   7.120   7.558   3.456  3.4813  0.3282  0.4809
  743MOL0     H  300   7.142   7.729   3.486  1.7224 -0.8010  0.6184
  743MOL0     H  301   7.206   7.786   3.271 -0.7769 -1.2095 -1.4570
  743MOL0     H  302   7.188   7.620   3.207 -1.5553  0.6221 -0.5979
  743MOL0     H  303   7.555   7.625   3.428  0.7028  0.3421 -2.0461
  743MOL0     H  304   6.704   7.657   3.646  1.6666 -0.4343 -1.3151
  743MOL0     H  305   6.506   7.560   3.773 -1.4426  1.1183 -2.4685
  744MOL0     O  306   8.349  10.589  11.307  1.0796  0.3578 -0.0768
  744MOL0     C  307   8.429  10.492  11.312 -0.8274  0.4204  0.3318
  744MOL0     O  308   8.409  10.361  11.266 -0.3567 -0.6291 -0.1216
  744MOL0     C  309   8.301  10.327  11.188 -0.6768  0.1653  0.1863
  744MOL0     C  310   8.304  10.187  11.158  0.6122  0.5214  0.1229
  744MOL0     C  311   8.218  10.131  11.054  0.0665  0.0423 -0.0997
  744MOL0     C  312   8.126  10.209  10.985 -0.0733  0.7517  0.0130
  744MOL0     O  313   8.046  10.150  10.890  0.3304 -0.1229 -0.3505
  744MOL0     C  314   7.903  10.157  10.909  0.2399  0.2757 -0.8415
  744MOL0     C  315   7.850  10.099  11.044 -0.9622 -0.5529 -0.0943
  744MOL0     C  316   7.906   9.958  11.077  0.4661 -1.0777  0.1413
  744MOL0     C  317   7.910   9.861  10.966  0.1402  1.2514 -0.1786
  744MOL0     C  318   7.931   9.727  11.029 -0.5673  1.2036  0.3897
  744MOL0     C  319   8.007   9.630  10.932  0.1162  0.3427  0.4997
  744MOL0     C  320   8.039   9.504  11.008 -0.5824 -0.1143  0.0881
  744MOL0     C  321   8.098   9.404  10.926  0.4067 -0.6762 -0.5409
  744MOL0     N  322   8.030   9.341  10.813  0.4774  0.5049  0.0506
  744MOL0     C  323   7.889   9.354  10.787 -0.0777  1.2736 -0.4038
  744MOL0     C  324   7.876   9.300  10.668 -0.2941  0.8222  0.4170
  744MOL0     C  325   7.751   9.284  10.575 -0.1573  0.0928  0.4804
  744MOL0     C  326   7.660   9.171  10.604  0.4524 -0.2705 -0.7987
  744MOL0     C  327   7.594   9.178  10.734  0.2772 -0.4648 -0.2098
  744MOL0     C  328   7.485   9.072  10.750  0.1735 -0.3446 -0.0892
  744MOL0     O  329   7.366   9.105  10.684 -0.4029 -0.2618  0.1957
  744MOL0     C  330   7.256   9.024  10.696  0.3234 -0.0508 -0.0139
  744MOL0     C  331   7.145   9.076  10.632  0.7505  0.3605  0.5413
  744MOL0     C  332   7.018   9.011  10.643  0.5094 -0.4964  0.0346
  744MOL0     C  333   6.899   9.078  10.589 -0.6363  0.6440  0.2019
  744MOL0     C  334   7.005   8.895  10.725  0.2807 -0.2847  0.9718
  744MOL0     C  335   6.880   8.816  10.754  0.0504 -0.7159  0.0461
  744MOL0     O  336   6.774   8.819  10.670  0.0187 -0.0140  0.6301
  744MOL0     C  337   6.666   8.760  10.724  0.3732 -0.1534  0.6191
  744MOL0     C  338   6.648   8.625  10.707  0.3075  1.1970  0.2066
  744MOL0     C  339   6.540   8.560  10.766  0.3226  0.5639 -0.9106
  744MOL0     C  340   6.450   8.627  10.849  0.9117 -0.3960 -0.2876
  744MOL0     O  341   6.346   8.557  10.906  0.3623 -0.0550  0.8486
  744MOL0     C  342   6.219   8.608  10.910  0.7359 -0.3039 -0.9154
  744MOL0     C  343   6.108   8.509  10.917  0.5323 -0.1911  0.4076
  744MOL0     C  344   6.130   8.397  10.804 -0.4557 -0.2392 -0.2701
  744MOL0     C  345   6.091   8.443  10.666  0.1410 -0.2495  0.5127
  744MOL0     C  346   6.130   8.345  10.552 -0.1964  0.4805 -0.1122
  744MOL0     C  347   6.279   8.308  10.590 -0.2257  0.2121  0.0710
  744MOL0     C  348   6.344   8.258  10.457  0.4207  0.5015 -0.2727
  744MOL0     C  349   6.488   8.319  10.443  0.2042  0.6164  0.4802
  744MOL0    Cl  350   6.608   8.268  10.567  0.1513  0.0475 -0.0942
  744MOL0     C  351   6.469   8.762  10.865  0.1847  0.4929  0.2828
  744MOL0     C  352   6.574   8.830  10.803  0.1607  0.1456  1.0966
  744MOL0     O  353   6.877   8.781  10.870 -0.2289 -0.1390  0.3535
  744MOL0     C  354   7.124   8.849  10.792  0.7581  0.3061 -0.4138
  744MOL0     C  355   7.245   8.917  10.779 -1.2129  0.1287  0.7542
  744MOL0     N  356   7.992   9.232  10.649 -0.7517  0.7175  0.1272
  744MOL0     N  357   8.088   9.257  10.736  0.8647 -0.8316  0.6327
  744MOL0     C  358   8.116  10.343  11.026  0.4275 -0.1051 -0.0024
  744MOL0     C  359   8.201  10.404  11.125  0.3131 -0.1538  0.4801
  744MOL0     C  360   8.570  10.513  11.364  0.0626 -1.1902  0.4084
  744MOL0     C  361   8.673  10.417  11.369 -0.0422  0.6988  0.0116
  744MOL0     C  362   8.797  10.448  11.416 -1.0380  0.3106 -0.9805
  744MOL0     C  363   8.824  10.567  11.481  0.8889  0.5140  1.1455
  744MOL0     O  364   8.940  10.585  11.538  0.0222  0.2185 -0.5962
  744MOL0     C  365   9.043  10.634  11.443 -0.1669  0.4879  0.9429
  744MOL0     C  366   9.125  10.750  11.491  0.0127 -0.3811  0.6134
  744MOL0     C  367   9.061  10.820  11.619 -0.0911  0.2772  0.7251
  744MOL0     C  368   9.159  10.917  11.681 -0.4845  0.5466 -1.2018
  744MOL0     C  369   9.273  10.855  11.748  0.1517  0.9435  0.5672
  744MOL0     C  370   9.378  10.823  11.799 -0.1341  0.1370  0.0676
  744MOL0     C  371   8.724  10.671  11.470 -0.5850 -0.1740  0.4721
  744MOL0     C  372   8.596  10.641  11.417 -0.0821 -0.8297 -0.2382
  744MOL0     H  373   8.373  10.117  11.203 -0.7329 -1.1207 -0.3028
  744MOL0     H  374   8.235  10.026  11.031  0.6429  0.3172 -1.0075
  744MOL0     H  375   7.874  10.263  10.909  0.2824  0.2906 -0.2798
  744MOL0     H  376   7.851  10.103  10.829  0.5307  0.0307 -0.8647
  744MOL0     H  377   7.870  10.162  11.131  2.7377 -1.1622 -0.3705
  744MOL0     H  378   7.743  10.083  11.027 -0.7446  0.5318 -3.1740
  744MOL0     H  379   8.002   9.961  11.129  0.3027  0.5189  0.4124
  744MOL0     H  380   7.841   9.916  11.154 -1.5880  3.0957  1.0225
  744MOL0     H  381   7.828   9.857  10.894  1.5062  0.4938 -1.7662
  744MOL0     H  382   8.003   9.882  10.912  0.9713 -0.9087  0.2807
  744MOL0     H  383   7.996   9.745  11.116 -3.2688  1.9940  2.3862
  744MOL0     H  384   7.834   9.685  11.057 -0.8719  2.1501  0.7846
  744MOL0     H  385   7.948   9.616  10.841 -2.9531  0.2996  2.3194
  744MOL0     H  386   8.095   9.675  10.887  0.1637 -0.9846 -0.7758
  744MOL0     H  387   8.107   9.520  11.093 -0.3885 -0.0272 -0.0824
  744MOL0     H  388   7.948   9.465  11.055  0.3269 -0.9809  1.1938
  744MOL0     H  389   8.118   9.321  10.995  1.9041 -0.4111 -0.6230
  744MOL0     H  390   8.199   9.437  10.899  0.7019  1.7893  2.9363
  744MOL0     H  391   7.814   9.404  10.847 -1.4156  0.0263 -0.9788
  744MOL0     H  392   7.691   9.376  10.571 -0.1789  0.0367 -1.1012
  744MOL0     H  393   7.793   9.261  10.477  1.0990  1.2508  0.7099
  744MOL0     H  394   7.713   9.076  10.595 -2.1406 -2.1208  1.6653
  744MOL0     H  395   7.592   9.183  10.519 -1.3158  2.4041  0.8545
  744MOL0     H  396   7.551   9.279  10.745  2.3157  0.1738  3.1188
  744MOL0     H  397   7.669   9.169  10.812 -1.3825  0.3041  1.5664
  744MOL0     H  398   7.462   9.080  10.857  1.7070 -2.2091  0.4309
  744MOL0     H  399   7.516   8.972  10.720 -1.1778  0.0319 -3.0865
  744MOL0     H  400   7.154   9.165  10.570 -2.4963  0.2485 -0.2654
  744MOL0     H  401   6.824   9.109  10.663 -1.2940 -3.8886  1.7363
  744MOL0     H  402   6.932   9.164  10.529  0.2546 -0.6413 -1.2043
  744MOL0     H  403   6.832   9.012  10.532  0.5870 -0.3226 -0.1651
  744MOL0     H  404   6.719   8.567  10.649  0.1327 -0.4326  1.5494
  744MOL0     H  405   6.523   8.457  10.734 -0.0636 -0.3482  1.9724
  744MOL0     H  406   6.213   8.668  11.001  1.0732  1.3723 -1.9605
  744MOL0     H  407   6.201   8.667  10.820  2.2209 -1.7304 -2.2215
  744MOL0     H  408   6.099   8.452  11.010  0.7507 -1.6070 -0.4089
  744MOL0     H  409   6.011   8.555  10.895  0.1498  0.5344  3.1175
  744MOL0     H  410   6.056   8.318  10.822 -1.5756  0.2029 -2.5351
  744MOL0     H  411   6.234   8.364  10.809 -0.7130 -1.5187 -2.2119
  744MOL0     H  412   5.982   8.443  10.658  0.0205 -2.5158  1.3251
  744MOL0     H  413   6.127   8.538  10.627  0.2850 -0.8184 -0.8227
  744MOL0     H  414   6.133   8.398  10.457 -0.4657  2.3967  0.9024
  744MOL0     H  415   6.062   8.259  10.560 -0.8266  1.0856  1.6681
  744MOL0     H  416   6.324   8.402  10.622 -0.3307 -0.1552  1.3774
  744MOL0     H  417   6.290   8.236  10.672  0.0710  0.1596 -0.0126
  744MOL0     H  418   6.289   8.286  10.367 -0.2832  1.0033  0.2927
  744MOL0     H  419   6.343   8.149  10.453 -0.0423  0.5464 -2.6918
  744MOL0     H  420   6.474   8.428  10.435 -1.8174  0.4680  1.3664
  744MOL0     H  421   6.520   8.290  10.342 -3.0425  2.1315 -1.1759
  744MOL0     H  422   6.401   8.817  10.929  1.6183  1.3892  1.1017
  744MOL0     H  423   6.614   8.930  10.810 -0.8909  0.5959  0.8202
  744MOL0     H  424   7.127   8.754  10.845  1.4779  0.4619 -0.1740
  744MOL0     H  425   7.335   8.873  10.821  0.3462  3.2251  0.9081
  744MOL0     H  426   8.074  10.421  10.963 -2.1492 -1.4359 -0.0425
  744MOL0     H  427   8.205  10.511  11.143 -0.2267 -0.0884  0.2186
  744MOL0     H  428   8.658  10.317  11.331 -0.0138  0.7264 -0.0727
  744MOL0     H  429   8.872  10.369  11.417 -1.1139  0.2212  0.6876
  744MOL0     H  430   9.111  10.555  11.409 -2.4654 -1.7797  1.3528
  744MOL0     H  431   9.005  10.682  11.352 -1.3339 -0.1480  1.0872
  744MOL0     H  432   9.141  10.826  11.413 -1.3466 -1.4077 -0.7149
  744MOL0     H  433   9.224  10.717  11.522  0.7493 -0.0220 -1.2369
  744MOL0     H  434   9.010  10.752  11.688  0.6842 -3.3294 -1.9909
  744MOL0     H  435   8.988  10.882  11.566 -0.4294 -1.6411 -1.1578
  744MOL0     H  436   9.099  10.980  11.748 -2.5148  0.9136 -3.2404
  744MOL0     H  437   9.195  10.980  11.599  0.6347 -0.6261 -1.6447
  744MOL0     H  438   9.475  10.796  11.837  1.5911  1.5331 -2.9737
  744MOL0     H  439   8.754  10.770  11.504  0.0101  0.9519 -2.8738
  744MOL0     H  440   8.526  10.724  11.422  2.6712  1.9206 -2.6153
  745MOL0     O  441   6.256   3.951   6.721 -0.8041 -0.3651  0.2747
  745MOL0     C  442   6.279   3.830   6.727 -0.0846 -0.4578 -0.0877
  745MOL0     O  443   6.179   3.729   6.730 -0.3871 -0.7914  0.7567
  745MOL0     C  444   6.059   3.782   6.764 -0.5323 -0.6755  1.4059
  745MOL0     C  445   6.018   3.812   6.893 -0.0299  0.5274 -1.1344
  745MOL0     C  446   5.899   3.859   6.932  0.7044 -0.3932  0.1842
  745MOL0     C  447   5.806   3.877   6.834  0.0262  0.8067  0.2613
  745MOL0     O  448   5.678   3.921   6.870 -0.0347  0.1392 -0.3543
  745MOL0     C  449   5.562   3.855   6.818 -0.1993 -0.4504 -0.0378
  745MOL0     C  450   5.442   3.936   6.873 -0.1679 -0.3540 -0.6371
  745MOL0     C  451   5.295   3.881   6.836  0.1961 -0.4307  0.1623
  745MOL0     C  452   5.179   3.977   6.885 -0.2469 -1.8218  0.6828
  745MOL0     C  453   5.039   3.920   6.904 -0.3743  0.2023  0.3530
  745MOL0     C  454   4.962   4.016   6.999  1.1201  0.5850  0.6380
  745MOL0     C  455   4.832   3.952   7.050  0.5285 -0.4383  0.1804
  745MOL0     C  456   4.778   4.039   7.163 -0.0273 -0.1690  0.6460
  745MOL0     N  457   4.656   3.969   7.207 -0.1927  0.5210  0.0003
  745MOL0     C  458   4.626   3.924   7.337  0.2389 -0.2892  0.4395
  745MOL0     C  459   4.495   3.900   7.330  0.0085 -0.6607  0.0865
  745MOL0     C  460   4.387   3.863   7.433 -0.0734  0.7931 -0.1015
  745MOL0     C  461   4.380   3.972   7.542 -0.9801 -0.0275 -0.0351
  745MOL0     C  462   4.256   4.062   7.518 -0.1003  0.0974 -0.2400
  745MOL0     C  463   4.137   4.030   7.610 -0.7029  0.2071  0.2728
  745MOL0     O  464   4.075   3.908   7.559 -0.7206  0.4750  0.0266
  745MOL0     C  465   3.938   3.901   7.543 -0.5073 -0.4975 -0.2960
  745MOL0     C  466   3.842   3.985   7.605 -0.3766  0.4720  0.2589
  745MOL0     C  467   3.699   3.964   7.595 -0.1937  0.3766 -0.3641
  745MOL0     C  468   3.612   4.077   7.660 -0.0089  0.5071 -0.8960
  745MOL0     C  469   3.651   3.851   7.531  0.2887 -0.4198 -0.2931
  745MOL0     C  470   3.505   3.814   7.498 -0.5191 -1.0099  0.0419
  745MOL0     O  471   3.485   3.715   7.408 -1.1732 -0.1033 -0.7969
  745MOL0     C  472   3.360   3.658   7.397  0.3656 -0.3794  0.2843
  745MOL0     C  473   3.345   3.529   7.457  0.1991  0.2010  0.3259
  745MOL0     C  474   3.216   3.462   7.456  0.0369  0.5302 -0.5717
  745MOL0     C  475   3.108   3.544   7.418 -0.3301  0.1845  0.7178
  745MOL0     O  476   2.982   3.505   7.433  0.3029  1.0470  0.7182
  745MOL0     C  477   2.935   3.387   7.492  0.6616  0.4825 -0.2446
  745MOL0     C  478   2.788   3.401   7.515 -0.4307 -0.3851  0.2122
  745MOL0     C  479   2.730   3.302   7.624  0.2039 -0.1536 -0.3721
  745MOL0     C  480   2.576   3.277   7.608 -0.1147 -0.3796  0.1460
  745MOL0     C  481   2.523   3.170   7.695  0.5630  0.4846  0.3075
  745MOL0     C  482   2.375   3.123   7.658 -0.5317  0.3294 -0.7184
  745MOL0     C  483   2.338   3.010   7.759  0.6823  0.3905 -1.2346
  745MOL0     C  484   2.193   3.008   7.821 -0.3252  0.2827 -0.2810
  745MOL0    Cl  485   2.149   2.913   7.962  0.0640 -0.1391  0.2252
  745MOL0     C  486   3.128   3.676   7.372  0.3278 -0.1465 -0.0801
  745MOL0     C  487   3.256   3.732   7.348 -0.1275 -0.1538  1.3752
  745MOL0     O  488   3.410   3.879   7.537  0.1662  0.5462  0.3503
  745MOL0     C  489   3.751   3.763   7.484  0.3839 -0.2243 -0.5007
  745MOL0     C  490   3.887   3.784   7.491  0.5508  0.2761 -0.3722
  745MOL0     N  491   4.452   3.921   7.200 -0.2251  0.4375  0.5860
  745MOL0     N  492   4.552   3.953   7.122  0.2108 -0.6563  0.3283
  745MOL0     C  493   5.841   3.860   6.702  0.5914  0.2344  0.5832
  745MOL0     C  494   5.961   3.810   6.666 -0.1360 -1.1300 -0.8570
  745MOL0     C  495   6.425   3.791   6.710  0.2136  0.3748 -0.7297
  745MOL0     C  496   6.525   3.890   6.689 -0.2845 -0.0346  0.0031
  745MOL0     C  497   6.663   3.857   6.691  0.0156 -0.4748  0.4562
  745MOL0     C  498   6.705   3.722   6.700  0.0612 -0.2982  0.0547
  745MOL0     O  499   6.841   3.709   6.712  0.1558  0.4135  1.6156
  745MOL0     C  500   6.897   3.675   6.587  0.1253 -0.7814  0.5376
  745MOL0     C  501   7.044   3.640   6.580 -0.5654  0.0979  0.1384
  745MOL0     C  502   7.082   3.546   6.698  0.2760 -0.2221  0.4475
  745MOL0     C  503   7.211   3.467   6.680 -0.0705  0.8635 -0.3300
  745MOL0     C  504   7.259   3.412   6.806 -0.5032  0.1919  0.8818
  745MOL0     C  505   7.292   3.361   6.915  0.0710 -0.1163 -0.1746
  745MOL0     C  506   6.603   3.620   6.721  0.3518  0.3949 -0.2552
  745MOL0     C  507   6.463   3.653   6.715 -0.4591 -0.5330 -0.6334
  745MOL0     H  508   6.078   3.783   6.980 -1.0011 -4.3637 -1.8058
  745MOL0     H  509   5.873   3.872   7.037  0.5612 -0.8504  0.2063
  745MOL0     H  510   5.561   3.851   6.709 -1.4652  2.1506 -0.2171
  745MOL0     H  511   5.555   3.751   6.850 -1.1299 -0.0933  1.0121
  745MOL0     H  512   5.459   3.931   6.981  1.5613 -0.8596 -0.8959
  745MOL0     H  513   5.450   4.041   6.843  0.3217 -1.3127 -4.3794
  745MOL0     H  514   5.284   3.873   6.727 -2.0255  2.4628  0.0441
  745MOL0     H  515   5.281   3.776   6.864  0.8344 -0.4178  0.5431
  745MOL0     H  516   5.207   4.035   6.973  1.4017  2.1257 -2.1386
  745MOL0     H  517   5.157   4.059   6.816 -1.4549 -1.0444  1.9207
  745MOL0     H  518   4.980   3.906   6.813  2.5317 -2.7421 -1.2995
  745MOL0     H  519   5.035   3.823   6.954 -4.4873 -0.6730 -1.2443
  745MOL0     H  520   5.020   4.049   7.086  0.6707 -3.4776  2.7069
  745MOL0     H  521   4.910   4.090   6.938  0.4460  1.1552  1.8582
  745MOL0     H  522   4.758   3.941   6.970 -2.9661  0.2839  3.0515
  745MOL0     H  523   4.856   3.855   7.096  4.2382  1.1215  1.9244
  745MOL0     H  524   4.753   4.139   7.125 -3.1313 -1.6352 -1.7146
  745MOL0     H  525   4.857   4.034   7.238  0.8402  0.0637 -0.2284
  745MOL0     H  526   4.695   3.911   7.419  1.0166 -1.6955 -0.3883
  745MOL0     H  527   4.292   3.850   7.380  0.1894  1.4750 -0.7536
  745MOL0     H  528   4.419   3.769   7.480  3.5398  1.2407 -1.3328
  745MOL0     H  529   4.470   4.034   7.534 -1.6260  0.7291 -2.2986
  745MOL0     H  530   4.374   3.932   7.643  0.7546  1.4962  0.7405
  745MOL0     H  531   4.229   4.068   7.412 -2.1454  1.6854  0.3116
  745MOL0     H  532   4.281   4.166   7.544 -2.9002  1.1889 -1.5039
  745MOL0     H  533   4.076   4.121   7.608  1.0255  1.4061 -0.2940
  745MOL0     H  534   4.167   4.038   7.714 -0.2249  1.3838  0.0553
  745MOL0     H  535   3.864   4.077   7.657 -3.8974  1.0642  0.9515
  745MOL0     H  536   3.642   4.118   7.757 -2.0284 -2.2983  1.0537
  745MOL0     H  537   3.592   4.158   7.588 -2.1542  0.9550  0.1118
  745MOL0     H  538   3.512   4.038   7.681  0.4702  0.4415  1.5135
  745MOL0     H  539   3.441   3.491   7.493  0.0895 -1.1330 -0.7195
  745MOL0     H  540   3.197   3.376   7.520 -0.2422  1.0928  0.1186
  745MOL0     H  541   2.964   3.295   7.440  0.0866  0.6982 -0.9549
  745MOL0     H  542   2.990   3.380   7.587  1.5721 -0.3706 -0.8114
  745MOL0     H  543   2.777   3.505   7.547  0.1359 -1.3608  4.0202
  745MOL0     H  544   2.735   3.398   7.419  1.2120 -0.7345 -0.7271
  745MOL0     H  545   2.744   3.347   7.723 -0.3735 -1.6843  0.4252
  745MOL0     H  546   2.787   3.209   7.629 -0.5674 -0.5730  2.4287
  745MOL0     H  547   2.529   3.375   7.621  2.5897  0.7854  1.7698
  745MOL0     H  548   2.571   3.254   7.501  0.8972  2.4273 -0.5722
  745MOL0     H  549   2.528   3.207   7.798  1.5957  1.8098 -0.1963
  745MOL0     H  550   2.584   3.079   7.689 -0.8758 -0.4364 -1.3067
  745MOL0     H  551   2.312   3.211   7.670  1.0462  1.2264  2.1159
  745MOL0     H  552   2.367   3.093   7.554  0.5262  2.9490 -1.6355
  745MOL0     H  553   2.411   3.017   7.839 -1.5277  1.1361  0.8481
  745MOL0     H  554   2.353   2.912   7.713 -0.0962 -0.4630  0.2709
  745MOL0     H  555   2.114   2.984   7.748 -0.5400 -1.0835  0.3742
  745MOL0     H  556   2.184   3.114   7.847  0.7330  0.4499 -0.5398
  745MOL0     H  557   3.036   3.728   7.350 -0.2045 -1.7822 -2.0972
  745MOL0     H  558   3.269   3.827   7.296 -0.3436  1.1663  3.6005
  745MOL0     H  559   3.717   3.677   7.428  1.1239 -0.7046 -0.2292
  745MOL0     H  560   3.950   3.717   7.433  1.3068  0.2339  0.4842
  745MOL0     H  561   5.770   3.875   6.620 -0.4392 -0.2567  1.3664
  745MOL0     H  562   5.987   3.788   6.563 -0.8774  1.5671 -1.7009
  745MOL0     H  563   6.491   3.992   6.673 -0.0058 -0.1682 -1.6275
  745MOL0     H  564   6.739   3.932   6.667 -1.3357  0.0020 -2.7822
  745MOL0     H  565   6.842   3.594   6.538 -0.0540  0.0558 -0.6973
  745MOL0     H  566   6.879   3.763   6.524  2.1815  0.6674  1.8651
  745MOL0     H  567   7.108   3.726   6.597  0.5969 -0.8179  0.5339
  745MOL0     H  568   7.064   3.593   6.483 -3.4595 -0.9215 -0.0928
  745MOL0     H  569   7.006   3.468   6.701  1.7730 -1.7697 -0.5721
  745MOL0     H  570   7.085   3.603   6.791 -1.7788  2.0136 -0.7599
  745MOL0     H  571   7.284   3.525   6.623  3.0717 -2.8812 -0.5264
  745MOL0     H  572   7.189   3.386   6.610 -0.0811 -0.8839  1.6035
  745MOL0     H  573   7.324   3.335   7.013 -2.3352  1.4881  1.1533
  745MOL0     H  574   6.638   3.518   6.733 -2.6426 -0.8219 -0.9713
  745MOL0     H  575   6.391   3.576   6.738 -0.8350 -0.1111 -0.3899
  746MOL0     O  576   6.383   7.347   2.954  0.2282  0.1500  0.2133
  746MOL0     C  577   6.433   7.270   2.873 -0.8706  0.3642  0.3455
  746MOL0     O  578   6.400   7.137   2.865  0.4300 -0.5984 -1.3266
  746MOL0     C  579   6.291   7.080   2.932  0.2966  0.7917  0.1242
  746MOL0     C  580   6.314   7.035   3.061  0.0107 -0.5920  0.2929
  746MOL0     C  581   6.216   6.977   3.138 -0.6357 -0.1888 -0.5898
  746MOL0     C  582   6.082   6.976   3.093 -0.3379 -0.4807  0.3982
  746MOL0     O  583   5.986   6.920   3.173  0.4513  0.3194  0.0887
  746MOL0     C  584   5.849   6.904   3.124 -0.1445 -0.5977 -0.7684
  746MOL0     C  585   5.775   6.792   3.193 -0.4146  0.2603 -0.5591
  746MOL0     C  586   5.620   6.764   3.173  0.4152  0.1505  0.0122
  746MOL0     C  587   5.591   6.716   3.028  0.2182  0.2176 -0.1298
  746MOL0     C  588   5.455   6.633   3.015 -0.6278  0.6208  0.2431
  746MOL0     C  589   5.471   6.504   2.921 -0.0237 -0.3239  0.0444
  746MOL0     C  590   5.337   6.437   2.904 -0.1271  0.0142  0.1918
  746MOL0     C  591   5.214   6.524   2.852  0.1172 -0.1760 -0.3259
  746MOL0     N  592   5.100   6.436   2.821  0.2619 -0.4685 -1.0175
  746MOL0     C  593   5.073   6.374   2.691 -0.5980 -0.9858 -0.8110
  746MOL0     C  594   4.984   6.281   2.725  0.2579 -0.1164 -0.0389
  746MOL0     C  595   4.930   6.170   2.639  0.3778 -0.8468  0.3831
  746MOL0     C  596   4.816   6.224   2.560  0.6437  0.6121  0.3065
  746MOL0     C  597   4.769   6.113   2.465 -0.2222 -0.1906  0.0991
  746MOL0     C  598   4.628   6.143   2.410  0.0126 -0.1040  0.6683
  746MOL0     O  599   4.633   6.278   2.343  0.1618 -0.0936 -0.9790
  746MOL0     C  600   4.514   6.342   2.318  1.0821  0.4820  0.3330
  746MOL0     C  601   4.445   6.398   2.427  0.9696 -0.2902 -0.2878
  746MOL0     C  602   4.324   6.461   2.413  0.0591  0.2294 -0.6104
  746MOL0     C  603   4.252   6.500   2.549  0.4963  0.8283  0.3133
  746MOL0     C  604   4.258   6.468   2.288  0.5515 -0.2548  0.1165
  746MOL0     C  605   4.116   6.521   2.275 -0.5590 -0.0110  0.8610
  746MOL0     O  606   4.083   6.579   2.161  0.1141  0.6056  0.3698
  746MOL0     C  607   3.950   6.605   2.131  0.7419 -0.1503 -0.2507
  746MOL0     C  608   3.889   6.551   2.019  0.2754  1.0257 -0.6955
  746MOL0     C  609   3.764   6.594   1.972 -0.3956 -0.2736 -0.2957
  746MOL0     C  610   3.698   6.702   2.043 -0.0453  0.1306 -0.4632
  746MOL0     O  611   3.588   6.776   2.011  0.2450 -0.0920  0.7430
  746MOL0     C  612   3.503   6.726   1.907 -0.4847  0.4238  0.7714
  746MOL0     C  613   3.557   6.763   1.774 -0.5458 -0.0207 -0.8950
  746MOL0     C  614   3.547   6.918   1.733  0.1206 -0.5781 -0.1560
  746MOL0     C  615   3.559   6.936   1.583  0.6078 -0.8573  0.1685
  746MOL0     C  616   3.545   7.080   1.542 -0.3152 -0.5614  0.4997
  746MOL0     C  617   3.599   7.096   1.405 -0.1576  0.4458 -0.6577
  746MOL0     C  618   3.591   7.242   1.359 -0.0889  0.0385 -1.4875
  746MOL0     C  619   3.602   7.271   1.216 -0.8671 -0.1572  0.9703
  746MOL0    Cl  620   3.458   7.204   1.147 -0.3858 -0.5002  0.4759
  746MOL0     C  621   3.762   6.754   2.152  0.2733 -0.9456  0.2864
  746MOL0     C  622   3.882   6.711   2.194 -0.4129 -0.2703 -0.2917
  746MOL0     O  623   4.036   6.493   2.369  0.2179  0.3042  0.2350
  746MOL0     C  624   4.325   6.431   2.172  0.2548 -0.3832  0.8451
  746MOL0     C  625   4.456   6.375   2.189 -0.1624  1.3444 -0.2566
  746MOL0     N  626   4.957   6.293   2.869 -0.5151 -0.1078  0.1526
  746MOL0     N  627   5.032   6.379   2.926 -0.6440 -0.1762 -0.3108
  746MOL0     C  628   6.055   7.026   2.968 -0.5822  0.2684  0.1733
  746MOL0     C  629   6.164   7.079   2.888  0.1301 -0.0085 -1.0785
  746MOL0     C  630   6.521   7.327   2.761  0.2265  0.0372  1.0306
  746MOL0     C  631   6.522   7.466   2.727  0.0116 -0.1057 -0.2990
  746MOL0     C  632   6.602   7.506   2.618  0.7372 -0.8514 -1.1320
  746MOL0     C  633   6.683   7.417   2.549  0.3506 -0.2509  0.9622
  746MOL0     O  634   6.758   7.478   2.447 -0.6351  0.5530  0.2185
  746MOL0     C  635   6.869   7.407   2.391 -0.5847 -0.6686  0.5409
  746MOL0     C  636   6.991   7.435   2.479  0.4821  0.9663  0.5589
  746MOL0     C  637   7.125   7.401   2.400  0.2943  0.6893 -0.4065
  746MOL0     C  638   7.253   7.454   2.471  0.1684  0.3705 -0.5226
  746MOL0     C  639   7.376   7.428   2.401 -0.7918  0.0653  0.7414
  746MOL0     C  640   7.460   7.404   2.315  0.0092  0.0476 -1.1166
  746MOL0     C  641   6.680   7.281   2.585 -0.0631 -0.2936  0.1178
  746MOL0     C  642   6.596   7.240   2.685  0.2390 -0.6381 -0.1725
  746MOL0     H  643   6.413   7.051   3.104  0.8517 -2.3775 -0.8327
  746MOL0     H  644   6.250   6.938   3.233  1.0553  0.3542 -0.9281
  746MOL0     H  645   5.784   6.992   3.133 -3.2584 -2.8617  0.7976
  746MOL0     H  646   5.856   6.882   3.017  0.1741 -0.5618 -0.7563
  746MOL0     H  647   5.821   6.696   3.169 -1.1417  0.0597 -1.1981
  746MOL0     H  648   5.781   6.811   3.301  0.2527 -1.0423 -0.3547
  746MOL0     H  649   5.579   6.696   3.248  1.9427  0.3209  1.0506
  746MOL0     H  650   5.577   6.865   3.181 -2.3693 -1.0566  2.1807
  746MOL0     H  651   5.596   6.800   2.959  0.4242 -1.2522 -1.9691
  746MOL0     H  652   5.676   6.651   3.006  0.7736  0.2166  1.7885
  746MOL0     H  653   5.436   6.602   3.118 -0.6205  1.0231  0.3688
  746MOL0     H  654   5.367   6.695   2.993 -0.0225  0.8393 -1.6953
  746MOL0     H  655   5.507   6.540   2.824 -2.7913 -0.3673 -1.0965
  746MOL0     H  656   5.548   6.433   2.954  0.6254  0.4135  0.1485
  746MOL0     H  657   5.346   6.355   2.832  0.1336  0.2489 -0.0432
  746MOL0     H  658   5.307   6.397   3.002 -0.8235  1.2764  0.5082
  746MOL0     H  659   5.238   6.585   2.765  0.0010  0.0401 -0.2079
  746MOL0     H  660   5.186   6.604   2.922 -1.8693 -1.3089  0.2562
  746MOL0     H  661   5.116   6.399   2.595 -0.6773  0.1140 -0.5746
  746MOL0     H  662   5.001   6.137   2.562  0.5245 -3.3910  1.4895
  746MOL0     H  663   4.898   6.087   2.704 -2.1485  0.1979  0.5823
  746MOL0     H  664   4.852   6.303   2.493  1.4594 -1.1250 -1.4164
  746MOL0     H  665   4.730   6.263   2.614 -1.7268 -1.6997 -1.5306
  746MOL0     H  666   4.774   6.018   2.517  0.4227  0.1277  0.6249
  746MOL0     H  667   4.837   6.106   2.379  1.3302  0.8532  1.1872
  746MOL0     H  668   4.559   6.134   2.494  0.4415  0.5815  1.0924
  746MOL0     H  669   4.607   6.075   2.327  1.5592  0.0320  0.1333
  746MOL0     H  670   4.479   6.393   2.530 -0.7507 -1.4349  0.2740
  746MOL0     H  671   4.201   6.408   2.582  0.4597  0.3809 -0.9368
  746MOL0     H  672   4.321   6.528   2.629 -0.7102 -0.4444  1.8782
  746MOL0     H  673   4.175   6.577   2.540  0.9060  0.9930 -3.0084
  746MOL0     H  674   3.932   6.473   1.957 -4.8008 -1.9799 -1.0495
  746MOL0     H  675   3.741   6.547   1.877  0.1318 -0.2274 -0.4505
  746MOL0     H  676   3.483   6.619   1.918 -0.8821  0.2613 -1.1442
  746MOL0     H  677   3.401   6.766   1.917 -1.4821 -2.1529  1.8805
  746MOL0     H  678   3.664   6.737   1.773 -1.0176 -2.4635  0.9203
  746MOL0     H  679   3.508   6.702   1.699 -0.8408  0.0187 -0.7356
  746MOL0     H  680   3.618   6.972   1.796  0.2152 -0.5891 -0.2513
  746MOL0     H  681   3.450   6.961   1.759  1.5266  1.2069  2.5499
  746MOL0     H  682   3.653   6.894   1.544  2.1895  0.3957  2.3878
  746MOL0     H  683   3.482   6.881   1.529  1.6127  1.3352 -3.9307
  746MOL0     H  684   3.598   7.145   1.611  0.5755 -2.2534  1.4858
  746MOL0     H  685   3.438   7.104   1.540 -0.2512  0.6552 -4.8915
  746MOL0     H  686   3.702   7.057   1.406 -0.1989  0.2884  1.2445
  746MOL0     H  687   3.544   7.047   1.325 -0.2710  0.0158 -0.3175
  746MOL0     H  688   3.670   7.303   1.403 -0.6984  1.0190 -1.7429
  746MOL0     H  689   3.500   7.290   1.396 -0.0516  0.2847 -1.7157
  746MOL0     H  690   3.691   7.223   1.174 -2.2613 -1.2128 -0.8992
  746MOL0     H  691   3.625   7.376   1.197  0.6833 -0.8455 -1.3933
  746MOL0     H  692   3.721   6.847   2.190  1.8178  0.0423 -0.3552
  746MOL0     H  693   3.940   6.748   2.279  2.5034 -3.6478 -0.5959
  746MOL0     H  694   4.293   6.438   2.069  1.8116 -1.8391  0.1951
  746MOL0     H  695   4.514   6.340   2.105 -0.6360 -2.7013  0.8915
  746MOL0     H  696   5.955   7.031   2.927 -0.7101  0.8026  0.5405
  746MOL0     H  697   6.127   7.115   2.793 -0.4670  1.3418 -0.3667
  746MOL0     H  698   6.458   7.519   2.797  0.8721 -0.8326  1.0850
  746MOL0     H  699   6.590   7.609   2.587 -2.0325  0.0688  2.4285
  746MOL0     H  700   6.845   7.304   2.362 -1.3478 -0.4426  0.3275
  746MOL0     H  701   6.884   7.458   2.295  0.4058  1.9659  2.0048
  746MOL0     H  702   6.982   7.379   2.572 -4.5754  1.7537  0.8432
  746MOL0     H  703   6.986   7.542   2.501  0.5086  0.9998  0.4026
  746MOL0     H  704   7.120   7.446   2.301 -1.3423  0.7206 -0.3454
  746MOL0     H  705   7.119   7.292   2.387 -5.1377  0.8382 -1.4472
  746MOL0     H  706   7.242   7.410   2.570  1.7252 -2.7582 -1.5945
  746MOL0     H  707   7.250   7.562   2.489  1.0357  0.3553 -0.2301
  746MOL0     H  708   7.548   7.398   2.254  0.7262  1.7804 -0.3112
  746MOL0     H  709   6.757   7.214   2.546 -0.1637  0.7874 -2.1429
  746MOL0     H  710   6.600   7.132   2.700  1.7192 -0.6477 -0.4997
  747MOL0     O  711   3.854   9.717   0.309  0.4283  0.4688  0.1583
  747MOL0     C  712   3.926   9.752   0.400 -0.1772  0.7786  0.2955
  747MOL0     O  713   3.902   9.857   0.483 -0.3192 -0.2971 -0.6174
  747MOL0     C  714   3.798   9.940   0.456  0.3628 -0.2080 -0.4587
  747MOL0     C  715   3.669   9.891   0.447  0.1284 -0.1559 -0.4706
  747MOL0     C  716   3.559   9.975   0.433  0.0717  0.3586  0.4312
  747MOL0     C  717   3.587  10.116   0.420  1.1405 -0.3275 -0.5969
  747MOL0     O  718   3.488  10.215   0.414 -0.0096 -0.3473  0.7301
  747MOL0     C  719   3.375  10.174   0.335  0.1541 -0.4630 -0.2853
  747MOL0     C  720   3.246  10.147   0.419  0.7528  0.3066  0.0359
  747MOL0     C  721   3.127  10.088   0.340 -0.2678 -0.4241 -0.3180
  747MOL0     C  722   3.001  10.095   0.424  0.1783  0.8779  0.7155
  747MOL0     C  723   2.887  10.056   0.327  0.0237 -0.6954 -0.7082
  747MOL0     C  724   2.761  10.056   0.408 -0.1196  0.6136 -0.5696
  747MOL0     C  725   2.633  10.031   0.335 -0.1311 -1.2969 -0.0209
  747MOL0     C  726   2.626   9.901   0.253 -0.3712  0.7302  0.1507
  747MOL0     N  727   2.491   9.873   0.198 -0.1922 -0.2605 -0.0197
  747MOL0     C  728   2.380   9.836   0.274  0.4005 -0.2067  0.4303
  747MOL0     C  729   2.288   9.803   0.175 -0.2445  0.5116  0.0312
  747MOL0     C  730   2.151   9.742   0.176  0.3413  0.6825 -0.0867
  747MOL0     C  731   2.036   9.839   0.194 -0.0595 -0.3499 -0.5462
  747MOL0     C  732   1.898   9.774   0.223  0.2193  0.4936  0.3596
  747MOL0     C  733   1.848   9.656   0.141 -0.2627  0.2162  0.2364
  747MOL0     O  734   1.856   9.697   0.005  0.1826 -0.1620  0.1133
  747MOL0     C  735   1.773   9.629  -0.092 -0.3625  0.4786  0.0982
  747MOL0     C  736   1.715   9.498  -0.086  0.2454  0.1428  0.4929
  747MOL0     C  737   1.631   9.450  -0.187  0.1553 -0.8307  0.4726
  747MOL0     C  738   1.576   9.313  -0.168  0.6212  0.0218  0.6335
  747MOL0     C  739   1.595   9.539  -0.295 -0.1832  0.3290 -0.7750
  747MOL0     C  740   1.492   9.508  -0.397 -0.0954  0.6514 -0.3322
  747MOL0     O  741   1.438   9.390  -0.409  0.2682 -0.5982  0.2787
  747MOL0     C  742   1.328   9.385  -0.494 -0.0590  0.5722 -0.9824
  747MOL0     C  743   1.213   9.456  -0.476  0.2270  0.2333  0.0606
  747MOL0     C  744   1.107   9.452  -0.569 -0.5393 -0.1798 -1.0630
  747MOL0     C  745   1.118   9.379  -0.686  1.0515 -0.3416 -0.2252
  747MOL0     O  746   1.005   9.373  -0.761 -0.5898 -0.7773 -0.0365
  747MOL0     C  747   1.019   9.310  -0.890 -0.8653 -0.3507 -0.8523
  747MOL0     C  748   0.880   9.317  -0.950  0.5341  0.4571 -0.1985
  747MOL0     C  749   0.799   9.184  -0.914 -0.0111 -0.7930  0.0253
  747MOL0     C  750   0.677   9.170  -1.005 -0.3252  0.2991 -0.6400
  747MOL0     C  751   0.696   9.140  -1.150  0.7140 -0.2021 -0.1424
  747MOL0     C  752   0.610   9.021  -1.206  0.9326 -0.0006 -0.1286
  747MOL0     C  753   0.464   9.058  -1.184  0.0291  0.5222  0.1255
  747MOL0     C  754   0.393   8.930  -1.151 -0.5711  0.5288  0.2682
  747MOL0    Cl  755   0.403   8.829  -1.299  0.3320 -0.3950  0.3792
  747MOL0     C  756   1.230   9.295  -0.701 -0.3296  0.0772 -0.3614
  747MOL0     C  757   1.341   9.298  -0.609 -0.0210 -0.1786 -0.0831
  747MOL0     O  758   1.473   9.601  -0.480 -0.2633  0.2344  0.7440
  747MOL0     C  759   1.653   9.668  -0.292 -0.6433 -0.2077 -0.9042
  747MOL0     C  760   1.750   9.698  -0.198  0.1641 -0.5267  0.7849
  747MOL0     N  761   2.352   9.828   0.055 -0.0859  0.0337 -0.3615
  747MOL0     N  762   2.468   9.881   0.069 -0.2566 -0.1328  0.4392
  747MOL0     C  763   3.721  10.161   0.419 -0.1193  0.4150 -0.6671
  747MOL0     C  764   3.823  10.070   0.438  0.5056 -0.0572 -0.3104
  747MOL0     C  765   4.043   9.668   0.438  0.5501 -0.8005  0.2617
  747MOL0     C  766   4.087   9.563   0.347 -0.1265 -0.1463  0.4853
  747MOL0     C  767   4.198   9.485   0.373  0.1591  0.6313  0.1991
  747MOL0     C  768   4.270   9.505   0.492  0.5218 -0.0109  0.2290
  747MOL0     O  769   4.390   9.453   0.529  0.0288  0.0458 -0.8098
  747MOL0     C  770   4.425   9.318   0.494  1.3593  0.4819  0.2623
  747MOL0     C  771   4.577   9.308   0.474 -0.6692  0.5707  0.4307
  747MOL0     C  772   4.628   9.169   0.475 -0.8062  0.2532 -0.5987
  747MOL0     C  773   4.773   9.153   0.423  1.1390 -1.0822  0.1859
  747MOL0     C  774   4.805   9.017   0.453 -0.0306  0.5768 -0.3193
  747MOL0     C  775   4.844   8.901   0.465  0.3051  0.9888  0.1135
  747MOL0     C  776   4.217   9.605   0.588 -1.0101 -0.2674  0.3664
  747MOL0     C  777   4.111   9.687   0.555  1.0226 -0.3877 -0.3551
  747MOL0     H  778   3.640   9.787   0.456  0.7797 -0.6877 -3.3070
  747MOL0     H  779   3.458   9.935   0.439  0.7961 -2.3440 -2.5955
  747MOL0     H  780   3.368  10.260   0.267  4.2137 -0.3453 -0.8016
  747MOL0     H  781   3.391  10.087   0.271  0.5209  0.9281 -2.1855
  747MOL0     H  782   3.267  10.084   0.506 -1.0054 -1.3193 -0.6453
  747MOL0     H  783   3.213  10.241   0.463  2.2303  1.6855 -1.6319
  747MOL0     H  784   3.114  10.142   0.245 -0.4250 -2.0051 -1.2454
  747MOL0     H  785   3.149   9.985   0.310 -2.2478 -1.1747  0.6536
  747MOL0     H  786   3.000  10.030   0.513 -3.1742  2.7457  2.2470
  747MOL0     H  787   2.983  10.199   0.452  0.9612  1.9208 -2.3424
  747MOL0     H  788   2.871  10.123   0.241  0.8242 -0.7985 -0.9426
  747MOL0     H  789   2.919   9.961   0.283  1.1197 -1.2719  1.2166
  747MOL0     H  790   2.763   9.985   0.492  0.8358  1.4908  0.1648
  747MOL0     H  791   2.758  10.157   0.448 -1.0242 -0.1396  1.4207
  747MOL0     H  792   2.555  10.026   0.413 -0.6537 -0.6789 -0.4908
  747MOL0     H  793   2.619  10.119   0.271 -2.8441  0.8057  3.0890
  747MOL0     H  794   2.658   9.822   0.322  1.7840  1.6456  0.3003
  747MOL0     H  795   2.690   9.901   0.164  1.5719 -2.0164  1.3992
  747MOL0     H  796   2.362   9.832   0.381  0.1524  0.9361  0.4511
  747MOL0     H  797   2.146   9.684   0.083  0.9073  0.0122  0.2939
  747MOL0     H  798   2.155   9.673   0.261  2.9317  3.6174  2.3919
  747MOL0     H  799   2.034   9.894   0.100 -0.8923 -2.3887 -1.7939
  747MOL0     H  800   2.068   9.908   0.273  3.4928  1.9967 -3.6787
  747MOL0     H  801   1.825   9.852   0.198  1.9903  1.7131 -1.2667
  747MOL0     H  802   1.888   9.752   0.330 -1.2407  1.0463  0.3667
  747MOL0     H  803   1.741   9.646   0.156 -0.6257 -0.0852 -2.1192
  747MOL0     H  804   1.900   9.561   0.153 -1.1446 -0.1474  1.3378
  747MOL0     H  805   1.725   9.438   0.004  1.1813 -3.4312 -1.7682
  747MOL0     H  806   1.583   9.245  -0.254 -1.3076 -0.4095  0.7829
  747MOL0     H  807   1.628   9.257  -0.090  2.4471 -0.0813 -0.5872
  747MOL0     H  808   1.470   9.329  -0.148  0.2696 -1.5122  0.1223
  747MOL0     H  809   1.211   9.528  -0.394  1.7421  0.4632 -0.0736
  747MOL0     H  810   1.021   9.516  -0.551 -0.1870  1.1198 -3.4818
  747MOL0     H  811   1.088   9.362  -0.957 -0.6939  1.8966  0.9370
  747MOL0     H  812   1.047   9.204  -0.889 -0.8120 -0.5000  3.8401
  747MOL0     H  813   0.822   9.403  -0.915 -0.6478 -0.4161  0.0597
  747MOL0     H  814   0.893   9.323  -1.058  1.0006  0.6582 -0.1343
  747MOL0     H  815   0.753   9.205  -0.817 -2.1041  2.0260 -1.4519
  747MOL0     H  816   0.851   9.088  -0.914  0.7874 -0.3779  0.9634
  747MOL0     H  817   0.611   9.097  -0.957 -0.0916 -0.1243 -0.9619
  747MOL0     H  818   0.621   9.264  -0.998 -1.7622 -0.5218 -0.4942
  747MOL0     H  819   0.797   9.102  -1.172  0.4947 -0.9528  0.1107
  747MOL0     H  820   0.674   9.234  -1.201  3.0123  1.1620  1.1745
  747MOL0     H  821   0.635   9.015  -1.312  1.1063 -1.2734 -0.0272
  747MOL0     H  822   0.640   8.928  -1.157 -0.2717 -0.7685 -0.8198
  747MOL0     H  823   0.426   9.096  -1.280 -1.8443  0.6547  0.8661
  747MOL0     H  824   0.453   9.131  -1.104 -1.0447  0.4669  0.0520
  747MOL0     H  825   0.289   8.962  -1.140 -1.2306 -1.7324  1.0961
  747MOL0     H  826   0.427   8.882  -1.059 -0.3790  1.3642  0.6396
  747MOL0     H  827   1.262   9.232  -0.784  2.8890 -1.7645  2.0255
  747MOL0     H  828   1.424   9.231  -0.631 -1.5871 -1.9502 -0.9696
  747MOL0     H  829   1.624   9.745  -0.363  1.1617  1.2401 -0.1447
  747MOL0     H  830   1.792   9.798  -0.203  0.3828 -0.6736 -0.8321
  747MOL0     H  831   3.753  10.264   0.426 -2.8032  1.2040  1.4607
  747MOL0     H  832   3.928  10.092   0.449  0.7223 -0.8485 -0.7876
  747MOL0     H  833   4.029   9.547   0.256 -0.7434  1.5879  0.5244
  747MOL0     H  834   4.222   9.416   0.292  2.2100  2.7343 -1.1081
  747MOL0     H  835   4.400   9.263   0.586  0.6688  0.7195  0.2216
  747MOL0     H  836   4.356   9.293   0.412  0.2835  2.2163  0.5787
  747MOL0     H  837   4.626   9.381   0.538 -1.3145  0.3225  1.2177
  747MOL0     H  838   4.588   9.351   0.374  0.6663 -2.3733 -0.8225
  747MOL0     H  839   4.558   9.097   0.433 -1.0112 -0.2796  0.6124
  747MOL0     H  840   4.638   9.148   0.582  2.9105  1.6593 -0.5036
  747MOL0     H  841   4.832   9.228   0.477  0.1707 -0.5320  0.5196
  747MOL0     H  842   4.771   9.173   0.316 -1.4341  0.0529  0.3536
  747MOL0     H  843   4.884   8.803   0.481 -2.3951 -0.5175 -1.6398
  747MOL0     H  844   4.281   9.624   0.673  0.2100  2.1921 -1.0043
  747MOL0     H  845   4.098   9.757   0.638  0.2161  2.9110 -3.0532
  748MOL0     O  846   5.338   2.474   7.466  0.0538  0.6165 -0.0788
  748MOL0     C  847   5.284   2.362   7.448  0.1323  0.5190 -0.9928
  748MOL0     O  848   5.314   2.271   7.347  0.0671 -0.1470  0.3254
  748MOL0     C  849   5.400   2.311   7.241  0.9046  0.0240 -1.0280
  748MOL0     C  850   5.338   2.270   7.118 -0.1158 -0.1494 -0.1124
  748MOL0     C  851   5.410   2.301   6.997  0.5165 -0.0744 -0.8551
  748MOL0     C  852   5.536   2.362   7.006 -0.7252 -0.5606 -0.0426
  748MOL0     O  853   5.594   2.395   6.884 -0.3014  0.0250  0.2941
  748MOL0     C  854   5.661   2.517   6.879  0.1640  0.0038 -0.1923
  748MOL0     C  855   5.640   2.605   6.758  0.3092 -0.0621  0.1147
  748MOL0     C  856   5.697   2.750   6.770 -0.5509  0.8066  0.7237
  748MOL0     C  857   5.618   2.844   6.859 -0.0232 -0.0203  0.1493
  748MOL0     C  858   5.680   2.983   6.862  0.4188  0.0138  0.7872
  748MOL0     C  859   5.594   3.083   6.948 -0.0835 -0.4867 -0.7556
  748MOL0     C  860   5.444   3.083   6.913 -0.1686  0.5822 -0.0895
  748MOL0     C  861   5.376   3.170   7.028  0.4373  1.5660  0.6922
  748MOL0     N  862   5.230   3.159   7.037 -0.4745  0.2031 -0.1994
  748MOL0     C  863   5.155   3.085   6.954  0.4376 -0.3691 -0.4098
  748MOL0     C  864   5.036   3.075   7.032 -0.0588 -0.2663  0.0298
  748MOL0     C  865   4.914   3.007   6.997  0.5822  0.4118 -0.1042
  748MOL0     C  866   4.833   3.105   6.911  0.7828  0.0987 -0.5774
  748MOL0     C  867   4.718   3.028   6.844 -0.4763  0.1280  0.2862
  748MOL0     C  868   4.613   3.122   6.778 -0.4492  0.3779 -0.4932
  748MOL0     O  869   4.555   3.041   6.676  0.4947  0.2746  0.2815
  748MOL0     C  870   4.427   3.073   6.650 -0.1187  0.4522 -0.5039
  748MOL0     C  871   4.345   2.963   6.623  0.3118  0.5677 -0.9088
  748MOL0     C  872   4.212   2.975   6.577  0.0346  0.0215  0.7981
  748MOL0     C  873   4.119   2.856   6.569 -0.3403 -0.0993  0.5438
  748MOL0     C  874   4.165   3.107   6.554 -0.0741  0.4521  0.1660
  748MOL0     C  875   4.025   3.129   6.498 -0.6670 -0.3630 -0.1755
  748MOL0     O  876   3.923   3.154   6.578  0.4294 -1.0756 -0.7169
  748MOL0     C  877   3.805   3.206   6.526 -0.3147 -0.9351  0.7173
  748MOL0     C  878   3.788   3.341   6.500  0.5466 -0.6142  0.6284
  748MOL0     C  879   3.667   3.381   6.431 -0.2398  0.6385 -0.3587
  748MOL0     C  880   3.570   3.291   6.379 -0.6623  0.0183  0.5205
  748MOL0     O  881   3.467   3.352   6.307  0.1374 -0.4757  0.6583
  748MOL0     C  882   3.353   3.278   6.267 -0.2514  0.6224 -0.3848
  748MOL0     C  883   3.252   3.256   6.381  0.3591 -0.3698 -0.3027
  748MOL0     C  884   3.170   3.383   6.399  0.2745 -0.7138 -0.0856
  748MOL0     C  885   3.041   3.339   6.461  0.6222  0.7194 -0.2503
  748MOL0     C  886   2.947   3.461   6.499  0.0598 -0.0761 -0.0483
  748MOL0     C  887   2.828   3.403   6.567 -0.2499 -0.7358 -0.0114
  748MOL0     C  888   2.728   3.506   6.606  1.1745  0.1197 -0.2266
  748MOL0     C  889   2.590   3.449   6.658  0.3416  0.7313 -0.1266
  748MOL0    Cl  890   2.455   3.564   6.642 -0.1737  0.5850  0.3117
  748MOL0     C  891   3.595   3.152   6.406  0.0013  0.6705 -0.3865
  748MOL0     C  892   3.711   3.119   6.488 -0.0644  0.2049  0.3128
  748MOL0     O  893   4.018   3.141   6.379  0.8957  0.6780  0.1876
  748MOL0     C  894   4.244   3.216   6.576 -0.4700  0.2173  0.0056
  748MOL0     C  895   4.378   3.208   6.625 -0.0350  0.4358  0.4533
  748MOL0     N  896   5.047   3.145   7.149  0.5839  0.1678 -0.4870
  748MOL0     N  897   5.160   3.190   7.154 -0.1503  0.1642  0.0916
  748MOL0     C  898   5.598   2.398   7.133  0.4206 -0.3712  0.3929
  748MOL0     C  899   5.522   2.375   7.246 -0.9784  0.1908  0.0297
  748MOL0     C  900   5.204   2.310   7.557  0.5199 -0.0800 -0.6271
  748MOL0     C  901   5.116   2.197   7.549 -0.7246 -0.1169  1.3003
  748MOL0     C  902   5.043   2.163   7.657 -0.1772 -0.7487  0.0986
  748MOL0     C  903   5.056   2.232   7.778  0.0510 -0.0983  0.0798
  748MOL0     O  904   4.980   2.196   7.884  0.4293  0.4374 -0.0159
  748MOL0     C  905   4.851   2.134   7.877  0.0241 -0.3419 -0.4137
  748MOL0     C  906   4.740   2.216   7.802 -0.8082 -0.7725  0.2410
  748MOL0     C  907   4.708   2.351   7.862 -0.7429 -1.6084 -0.1310
  748MOL0     C  908   4.641   2.459   7.770 -0.7806  0.0206 -0.3619
  748MOL0     C  909   4.505   2.420   7.752  0.2591 -0.3478  0.7248
  748MOL0     C  910   4.391   2.385   7.740  0.6815 -0.6963 -0.4116
  748MOL0     C  911   5.146   2.331   7.800  0.0951 -0.0927  0.5332
  748MOL0     C  912   5.211   2.376   7.681  0.3439 -0.5344  0.0643
  748MOL0     H  913   5.245   2.216   7.112  0.8566 -1.6632 -3.5795
  748MOL0     H  914   5.358   2.293   6.902  0.5962  2.4047 -1.1842
  748MOL0     H  915   5.627   2.581   6.961 -0.9430 -3.9700  2.7669
  748MOL0     H  916   5.766   2.486   6.890  0.1575  0.4927  1.5613
  748MOL0     H  917   5.690   2.557   6.674  1.4550 -2.0310  1.8294
  748MOL0     H  918   5.533   2.604   6.735  0.3786 -0.3136 -0.2036
  748MOL0     H  919   5.798   2.737   6.809  0.3879  1.8027 -1.2192
  748MOL0     H  920   5.712   2.787   6.668  0.9859  2.5363  1.5379
  748MOL0     H  921   5.518   2.846   6.815 -0.2954 -3.9239  0.2723
  748MOL0     H  922   5.619   2.810   6.963  0.8124  1.4465  0.6527
  748MOL0     H  923   5.781   2.972   6.902  0.4914 -3.1726 -0.0164
  748MOL0     H  924   5.680   3.022   6.760 -1.0418 -0.7488  0.4609
  748MOL0     H  925   5.609   3.063   7.055 -0.6215  0.7054 -0.4340
  748MOL0     H  926   5.626   3.187   6.937 -1.5465  0.1851  0.8455
  748MOL0     H  927   5.432   3.134   6.817 -0.4884 -2.0468 -1.5362
  748MOL0     H  928   5.399   2.984   6.910  0.7407  0.1698 -1.9970
  748MOL0     H  929   5.387   3.275   7.001 -1.0868  1.5283 -0.2186
  748MOL0     H  930   5.413   3.158   7.130 -2.6452 -1.0281  1.7052
  748MOL0     H  931   5.182   3.045   6.857 -1.2730 -0.7729 -0.7470
  748MOL0     H  932   4.939   2.919   6.937  0.2563  1.0806 -1.2371
  748MOL0     H  933   4.862   2.979   7.090 -3.1792 -1.8881 -2.6396
  748MOL0     H  934   4.880   3.134   6.817  0.4746  1.9046 -0.1961
  748MOL0     H  935   4.807   3.200   6.958  0.7482  0.6237 -1.6275
  748MOL0     H  936   4.674   2.958   6.915  2.6196 -2.5973 -0.2342
  748MOL0     H  937   4.767   2.967   6.767  0.1288 -1.4683  1.8793
  748MOL0     H  938   4.669   3.204   6.732  0.8701  0.0082  0.4090
  748MOL0     H  939   4.540   3.165   6.848 -0.9565  1.6105 -1.7204
  748MOL0     H  940   4.392   2.866   6.635  1.5456  1.2672  0.2173
  748MOL0     H  941   4.155   2.772   6.630 -0.5552 -0.1068  0.6599
  748MOL0     H  942   4.025   2.893   6.612 -1.4098 -3.4417  1.3993
  748MOL0     H  943   4.103   2.831   6.464 -3.4092 -1.5051  1.2509
  748MOL0     H  944   3.861   3.421   6.510 -1.5672  2.2302 -3.5207
  748MOL0     H  945   3.649   3.483   6.398  0.8713  1.0143  0.1377
  748MOL0     H  946   3.309   3.328   6.181 -3.5020  1.5032  1.6472
  748MOL0     H  947   3.388   3.179   6.234  0.9637  1.7077 -2.6823
  748MOL0     H  948   3.190   3.168   6.360  1.5703 -1.3576  0.1509
  748MOL0     H  949   3.310   3.229   6.469  0.9321 -1.7530 -1.0624
  748MOL0     H  950   3.154   3.423   6.299  4.0036 -2.5032 -1.5996
  748MOL0     H  951   3.228   3.454   6.459  1.1645 -1.1015 -0.4699
  748MOL0     H  952   2.991   3.267   6.396  1.2722 -0.6751  0.7547
  748MOL0     H  953   3.066   3.282   6.551  1.3394 -0.3555 -1.1006
  748MOL0     H  954   2.914   3.516   6.410  2.3260 -1.1882 -1.7178
  748MOL0     H  955   3.006   3.533   6.556 -0.5082  2.2165 -2.2010
  748MOL0     H  956   2.780   3.327   6.505 -0.1993 -0.9988  0.2691
  748MOL0     H  957   2.860   3.347   6.655 -1.1925 -0.5614  0.4444
  748MOL0     H  958   2.707   3.564   6.516 -1.8939  1.1598  1.0114
  748MOL0     H  959   2.774   3.569   6.684  2.2699  2.0216 -2.3008
  748MOL0     H  960   2.587   3.414   6.762  1.2679 -0.5381 -0.5056
  748MOL0     H  961   2.569   3.358   6.601  2.2200  0.3210 -0.2367
  748MOL0     H  962   3.515   3.080   6.390 -0.1541  0.9496 -0.9103
  748MOL0     H  963   3.739   3.017   6.512 -0.6990  0.2704  1.3615
  748MOL0     H  964   4.200   3.313   6.558 -1.8697 -0.3304  0.3864
  748MOL0     H  965   4.445   3.293   6.627  1.0360 -0.3811  0.1098
  748MOL0     H  966   5.692   2.451   7.131  0.7757 -0.9827  0.5714
  748MOL0     H  967   5.561   2.396   7.345 -1.7286 -1.2556  0.6640
  748MOL0     H  968   5.094   2.140   7.460 -1.3934  1.9009  0.0918
  748MOL0     H  969   4.974   2.080   7.660 -0.3011 -0.7010  4.3781
  748MOL0     H  970   4.850   2.036   7.828 -2.1353  0.8875 -3.0555
  748MOL0     H  971   4.820   2.106   7.978 -2.2589 -3.2371 -1.7826
  748MOL0     H  972   4.657   2.145   7.791  0.5434 -2.3088 -0.5308
  748MOL0     H  973   4.776   2.235   7.701 -0.5597 -1.1278  0.2597
  748MOL0     H  974   4.803   2.397   7.888 -1.1148 -0.7183 -0.3038
  748MOL0     H  975   4.642   2.343   7.948 -1.6575 -1.1655 -0.7672
  748MOL0     H  976   4.688   2.463   7.671 -0.5042  1.0098 -0.2057
  748MOL0     H  977   4.654   2.562   7.803 -1.3930  0.6353 -1.9407
  748MOL0     H  978   4.290   2.357   7.717  0.6529 -0.1211 -1.0479
  748MOL0     H  979   5.178   2.375   7.894  0.6192  2.9213 -0.9445
  748MOL0     H  980   5.267   2.467   7.699 -0.3038 -0.8756  5.3064
  749MOL0     O  981   4.800   6.830   0.300 -0.2563 -0.2520  0.0586
  749MOL0     C  982   4.857   6.893   0.389  0.6375 -0.4215 -1.2291
  749MOL0     O  983   4.792   6.973   0.486 -0.4199  0.2601  0.1866
  749MOL0     C  984   4.655   7.002   0.466  0.8314 -0.2524  0.3007
  749MOL0     C  985   4.574   6.989   0.579 -0.3686  0.3592 -0.2250
  749MOL0     C  986   4.442   7.031   0.577  0.0206 -1.0306  0.5089
  749MOL0     C  987   4.391   7.084   0.454  0.0558  0.8891  0.3375
  749MOL0     O  988   4.265   7.121   0.436  0.1188  0.3367 -0.0641
  749MOL0     C  989   4.168   7.093   0.542  0.7877  0.5917  0.9047
  749MOL0     C  990   4.027   7.107   0.496  0.2528 -0.1167  0.1678
  749MOL0     C  991   3.927   7.049   0.596 -0.5325 -0.2196  0.6276
  749MOL0     C  992   3.906   7.139   0.718 -0.3033 -0.2087  0.0883
  749MOL0     C  993   3.800   7.082   0.812 -0.1081 -0.4925  0.5276
  749MOL0     C  994   3.737   7.193   0.895  0.6608 -0.6095  0.5202
  749MOL0     C  995   3.654   7.298   0.821  0.5319  0.4976  0.6651
  749MOL0     C  996   3.522   7.256   0.755 -1.0421 -0.2415 -0.0045
  749MOL0     N  997   3.459   7.365   0.667 -0.3127  0.2923  1.0172
  749MOL0     C  998   3.503   7.392   0.533  0.3438  0.3509  0.1227
  749MOL0     C  999   3.413   7.486   0.491 -0.2691 -0.5486  0.3980
  749MOL0     C 1000   3.405   7.573   0.371  0.2651 -0.1484  0.0268
  749MOL0     C 1001   3.311   7.496   0.268 -0.4029 -0.5375 -0.0208
  749MOL0     C 1002   3.289   7.586   0.142  0.5018 -0.2190 -0.5835
  749MOL0     C 1003   3.191   7.694   0.194 -0.7772 -0.3494  0.0280
  749MOL0     O 1004   3.178   7.800   0.087  0.4684  0.3009  0.3823
  749MOL0     C 1005   3.057   7.826   0.029  0.1588  0.1927 -0.9922
  749MOL0     C 1006   3.011   7.961  -0.005  0.3753 -0.3223  0.0875
  749MOL0     C 1007   2.886   7.987  -0.076  0.1903  0.9317  0.8722
  749MOL0     C 1008   2.843   8.131  -0.084  0.1194  0.4823  0.2228
  749MOL0     C 1009   2.806   7.874  -0.114 -0.3879 -0.0977 -0.4255
  749MOL0     C 1010   2.667   7.874  -0.175 -0.0305  0.1406  0.1008
  749MOL0     O 1011   2.602   7.993  -0.221 -0.6463  1.0530 -0.2782
  749MOL0     C 1012   2.466   7.982  -0.227 -0.9202 -0.7386  0.3147
  749MOL0     C 1013   2.406   8.026  -0.346  0.3634 -0.7856 -0.3227
  749MOL0     C 1014   2.268   8.039  -0.352 -1.0677  0.0924  0.0167
  749MOL0     C 1015   2.178   7.990  -0.248 -0.6280 -0.6254  0.2413
  749MOL0     O 1016   2.049   8.008  -0.280  0.8336 -0.3962  0.5988
  749MOL0     C 1017   1.949   7.970  -0.185  0.2525 -0.0666 -1.0014
  749MOL0     C 1018   1.811   7.952  -0.252  0.2940  0.0213  0.7593
  749MOL0     C 1019   1.761   8.084  -0.315  0.5841  0.3348  0.6442
  749MOL0     C 1020   1.622   8.068  -0.379 -0.3756  0.8001  0.0787
  749MOL0     C 1021   1.568   8.183  -0.454  0.3220 -0.9558  0.6756
  749MOL0     C 1022   1.646   8.211  -0.586 -0.3331  0.3148  0.1170
  749MOL0     C 1023   1.557   8.301  -0.679 -0.2443  0.3492 -0.7701
  749MOL0     C 1024   1.618   8.426  -0.738  0.2880  0.9075  0.2075
  749MOL0    Cl 1025   1.751   8.369  -0.841 -0.3647  0.0473  0.1349
  749MOL0     C 1026   2.246   7.956  -0.124 -0.8254  0.0890 -0.3004
  749MOL0     C 1027   2.387   7.941  -0.125  0.7507 -0.4900 -1.1422
  749MOL0     O 1028   2.606   7.764  -0.174 -0.2867  0.2894  0.3490
  749MOL0     C 1029   2.858   7.745  -0.090  0.8772  0.0704  0.5663
  749MOL0     C 1030   2.985   7.722  -0.027  1.3037  0.4616 -0.0739
  749MOL0     N 1031   3.322   7.503   0.594 -0.6232 -0.2396  0.2363
  749MOL0     N 1032   3.341   7.431   0.696 -0.1455  0.4320  0.0518
  749MOL0     C 1033   4.471   7.089   0.340  0.6036  0.0335  0.2717
  749MOL0     C 1034   4.602   7.053   0.348 -1.2400 -0.3971  0.3754
  749MOL0     C 1035   4.995   6.871   0.414 -0.7016  0.0819 -0.6547
  749MOL0     C 1036   5.077   6.807   0.315  1.0719  0.2104  0.3512
  749MOL0     C 1037   5.205   6.763   0.340 -0.5850 -0.2832  0.1542
  749MOL0     C 1038   5.264   6.789   0.465 -0.0104 -0.8641 -0.0010
  749MOL0     O 1039   5.386   6.729   0.487  0.2836 -0.2793  0.6803
  749MOL0     C 1040   5.462   6.759   0.603  0.5191  0.9467 -0.1552
  749MOL0     C 1041   5.589   6.676   0.606 -0.2348 -0.6475  0.5189
  749MOL0     C 1042   5.696   6.730   0.503  0.9805 -0.2905  0.6247
  749MOL0     C 1043   5.833   6.663   0.539 -0.8746 -0.9274 -0.8230
  749MOL0     C 1044   5.940   6.700   0.451  0.3734 -0.2367  0.7759
  749MOL0     C 1045   6.028   6.752   0.386  0.4888  0.7573 -0.8147
  749MOL0     C 1046   5.183   6.867   0.557 -0.3755  0.6809 -0.4185
  749MOL0     C 1047   5.054   6.913   0.531  0.6318 -0.1046  0.1742
  749MOL0     H 1048   4.628   6.941   0.661  1.5205 -0.8997 -2.1101
  749MOL0     H 1049   4.372   7.008   0.657 -0.5089  0.7418  0.6090
  749MOL0     H 1050   4.189   6.994   0.582 -1.0595 -0.2252 -0.0126
  749MOL0     H 1051   4.177   7.166   0.623  0.8000  1.8994 -0.2329
  749MOL0     H 1052   4.000   7.210   0.472  1.5354 -0.6750 -4.9018
  749MOL0     H 1053   4.008   7.052   0.403 -0.0842  0.0997  0.1096
  749MOL0     H 1054   3.825   7.050   0.556 -0.0897 -0.7987 -0.5499
  749MOL0     H 1055   3.957   6.947   0.621  1.7995 -0.6579 -3.0987
  749MOL0     H 1056   3.995   7.180   0.766 -0.2316 -0.0326 -0.1909
  749MOL0     H 1057   3.862   7.230   0.677  0.4453  0.7792  1.4257
  749MOL0     H 1058   3.712   7.030   0.774 -0.9226  0.3154  1.2584
  749MOL0     H 1059   3.843   7.012   0.884 -1.9628 -0.9803  1.1991
  749MOL0     H 1060   3.677   7.153   0.977 -0.2586 -1.8413 -0.6953
  749MOL0     H 1061   3.814   7.242   0.955 -0.5647  0.9752  0.8840
  749MOL0     H 1062   3.615   7.373   0.890 -1.7281  0.9246 -0.9951
  749MOL0     H 1063   3.713   7.349   0.745  1.0570 -0.8917  0.0972
  749MOL0     H 1064   3.453   7.223   0.833 -2.0149  3.0682  0.6670
  749MOL0     H 1065   3.546   7.170   0.691  1.2142 -0.1607  0.6455
  749MOL0     H 1066   3.594   7.357   0.486  0.6722 -2.4725  2.5913
  749MOL0     H 1067   3.371   7.671   0.404  2.6300  1.1959 -1.2315
  749MOL0     H 1068   3.499   7.603   0.325 -0.0500 -0.3737 -0.7791
  749MOL0     H 1069   3.211   7.475   0.308 -0.7544 -1.2677 -1.2320
  749MOL0     H 1070   3.352   7.396   0.252 -1.3214 -1.4972  2.9469
  749MOL0     H 1071   3.246   7.533   0.056  2.2697 -0.7939 -1.1473
  749MOL0     H 1072   3.389   7.624   0.122 -0.0582  3.0524  1.9471
  749MOL0     H 1073   3.219   7.729   0.294  0.4102 -0.9448 -0.0772
  749MOL0     H 1074   3.094   7.644   0.204 -0.4671 -1.3916 -1.7985
  749MOL0     H 1075   3.068   8.049   0.023 -1.0069 -0.4333  3.8461
  749MOL0     H 1076   2.894   8.206  -0.023  2.7455  0.4830 -1.7791
  749MOL0     H 1077   2.842   8.151  -0.192  1.1240  0.8758  0.2834
  749MOL0     H 1078   2.738   8.140  -0.054  0.3752 -0.5143  1.4775
  749MOL0     H 1079   2.477   8.074  -0.413  0.4532  0.0388  0.3536
  749MOL0     H 1080   2.219   8.086  -0.437 -0.0958  2.8808  0.9145
  749MOL0     H 1081   1.985   7.873  -0.149 -0.5498 -0.2081 -0.5387
  749MOL0     H 1082   1.944   8.046  -0.106  0.7641 -0.3774 -0.6655
  749MOL0     H 1083   1.803   7.871  -0.325 -1.7767  0.6803  0.1903
  749MOL0     H 1084   1.734   7.921  -0.181 -0.9775 -0.1105 -0.6211
  749MOL0     H 1085   1.831   8.127  -0.387  0.6794  0.3264  0.7311
  749MOL0     H 1086   1.758   8.160  -0.237 -0.4055  2.3966 -1.3273
  749MOL0     H 1087   1.632   7.983  -0.447 -3.0386 -0.2396  0.8998
  749MOL0     H 1088   1.551   8.035  -0.303 -1.6380 -0.9190 -1.7486
  749MOL0     H 1089   1.587   8.274  -0.396  3.6803 -0.2106 -1.2822
  749MOL0     H 1090   1.464   8.165  -0.479  0.3270 -0.3763  0.2074
  749MOL0     H 1091   1.741   8.259  -0.560 -0.3961  0.2089  0.5479
  749MOL0     H 1092   1.664   8.122  -0.646  3.0270  1.5860 -0.9718
  749MOL0     H 1093   1.464   8.329  -0.628 -0.9517 -4.1714  0.8378
  749MOL0     H 1094   1.522   8.242  -0.764 -2.1121 -1.8725  1.3606
  749MOL0     H 1095   1.655   8.496  -0.663 -2.6192  2.4902  0.2978
  749MOL0     H 1096   1.537   8.461  -0.802 -1.0277 -3.9938 -1.3003
  749MOL0     H 1097   2.190   7.929  -0.036 -2.1013 -0.7493 -1.3287
  749MOL0     H 1098   2.440   7.912  -0.035 -0.0069  2.0598  0.1954
  749MOL0     H 1099   2.802   7.659  -0.125  0.2843  1.1046 -1.1368
  749MOL0     H 1100   3.006   7.616  -0.022 -0.8104 -0.1259 -2.0194
  749MOL0     H 1101   4.432   7.127   0.246 -0.4063 -0.3088  0.5339
  749MOL0     H 1102   4.662   7.062   0.258 -1.3833 -1.7354  0.1237
  749MOL0     H 1103   5.038   6.792   0.215 -0.7150 -0.8718  1.1575
  749MOL0     H 1104   5.248   6.708   0.257  1.6529 -3.4914  3.1601
  749MOL0     H 1105   5.480   6.867   0.610 -3.2644  1.8324 -1.6410
  749MOL0     H 1106   5.400   6.743   0.692  4.1344 -1.1850  2.2381
  749MOL0     H 1107   5.567   6.574   0.574 -1.4596  0.0115 -0.8510
  749MOL0     H 1108   5.624   6.677   0.710 -1.5222  1.0232  0.9806
  749MOL0     H 1109   5.702   6.838   0.520 -0.2020  0.0657 -0.9433
  749MOL0     H 1110   5.672   6.715   0.398 -0.8888 -0.9080  1.0946
  749MOL0     H 1111   5.825   6.554   0.532  1.1469 -1.1154 -0.7730
  749MOL0     H 1112   5.863   6.671   0.644  0.3284 -2.4846 -0.9999
  749MOL0     H 1113   6.103   6.814   0.340  0.8303  0.0946 -1.1781
  749MOL0     H 1114   5.235   6.881   0.652 -0.8425 -2.2641  0.3897
  749MOL0     H 1115   5.005   6.983   0.598 -3.2440 -0.3438 -2.0859
  750MOL0     O 1116   7.683   1.280   5.158 -0.7806 -0.0864  0.3141
  750MOL0     C 1117   7.663   1.270   5.037  0.7245  0.7827 -0.4609
  750MOL0     O 1118   7.718   1.171   4.955 -0.1448 -0.2405  0.1206
  750MOL0     C 1119   7.824   1.107   4.990  0.2072  0.4444  0.8708
  750MOL0     C 1120   7.944   1.157   5.039 -0.4718  0.8510  1.0811
  750MOL0     C 1121   8.052   1.070   5.067  0.3069 -0.4299 -0.2514
  750MOL0     C 1122   8.055   0.936   5.029 -0.6709  0.5127  0.1774
  750MOL0     O 1123   8.162   0.856   5.052 -0.0465 -0.0719  0.2002
  750MOL0     C 1124   8.175   0.738   4.967  0.8036  0.0599 -0.3337
  750MOL0     C 1125   8.310   0.677   5.017  0.2351  0.5356 -0.8140
  750MOL0     C 1126   8.373   0.582   4.915 -0.1757  0.0959  0.2594
  750MOL0     C 1127   8.275   0.496   4.833  0.6062 -0.7200 -0.0885
  750MOL0     C 1128   8.335   0.394   4.732 -0.1829 -0.3350  0.3999
  750MOL0     C 1129   8.424   0.298   4.807  0.4565  0.0873 -0.8946
  750MOL0     C 1130   8.513   0.217   4.708  0.2066 -0.0444 -0.0133
  750MOL0     C 1131   8.432   0.115   4.629 -0.2582 -1.0289  0.2465
  750MOL0     N 1132   8.371   0.005   4.707 -0.0335 -0.1490 -0.1302
  750MOL0     C 1133   8.242   0.007   4.756  0.0320 -0.4215 -0.4595
  750MOL0     C 1134   8.238  -0.096   4.845 -0.7600 -0.7223 -0.1079
  750MOL0     C 1135   8.120  -0.126   4.933 -0.2991 -0.6809  0.0684
  750MOL0     C 1136   7.982  -0.057   4.889 -0.7447 -0.3239 -0.0372
  750MOL0     C 1137   7.868  -0.118   4.978 -0.6436 -0.1805  0.5219
  750MOL0     C 1138   7.730  -0.095   4.921 -0.3478 -0.2346  0.5726
  750MOL0     O 1139   7.702   0.042   4.899 -0.3781  0.2739 -0.6060
  750MOL0     C 1140   7.572   0.080   4.934  0.4462 -0.1823 -0.1669
  750MOL0     C 1141   7.540   0.200   4.879  0.2651 -0.2478 -0.2267
  750MOL0     C 1142   7.424   0.265   4.913  0.0493 -0.4321  0.4768
  750MOL0     C 1143   7.391   0.395   4.849  0.0544 -0.2228 -0.5124
  750MOL0     C 1144   7.330   0.200   4.999 -0.3004 -0.3307 -0.0082
  750MOL0     C 1145   7.195   0.253   5.051  0.1245  0.2409  0.3707
  750MOL0     O 1146   7.092   0.165   5.088  0.8249 -0.4910 -0.1045
  750MOL0     C 1147   6.963   0.202   5.062  0.5924 -0.6766 -0.6129
  750MOL0     C 1148   6.906   0.192   4.936  0.1712 -1.6374 -0.1329
  750MOL0     C 1149   6.777   0.233   4.903  0.3596 -0.1297 -0.8074
  750MOL0     C 1150   6.699   0.286   5.004  0.3348  0.7503  0.0679
  750MOL0     O 1151   6.573   0.327   4.961  0.0985  0.4261 -0.1449
  750MOL0     C 1152   6.463   0.280   5.051  0.0720 -0.1115 -0.7929
  750MOL0     C 1153   6.332   0.339   4.975 -0.7801 -0.5727 -0.5032
  750MOL0     C 1154   6.217   0.274   5.032  0.4930 -0.2097  0.0684
  750MOL0     C 1155   6.091   0.352   4.988 -0.5543  0.8719  1.0613
  750MOL0     C 1156   5.959   0.276   5.005  0.2562 -0.6371  0.6012
  750MOL0     C 1157   5.934   0.244   5.151 -0.0645  0.0316 -0.2088
  750MOL0     C 1158   5.991   0.113   5.199 -0.0129  0.7227  0.2732
  750MOL0     C 1159   5.925   0.062   5.326  0.0613 -0.4043  0.4394
  750MOL0    Cl 1160   5.976  -0.104   5.340  0.2939 -0.0783  0.0571
  750MOL0     C 1161   6.750   0.306   5.132  0.5030  0.0714 -1.3355
  750MOL0     C 1162   6.878   0.259   5.164 -0.0901  0.3892  0.1186
  750MOL0     O 1163   7.181   0.371   5.042  0.6382  0.2673  0.9461
  750MOL0     C 1164   7.354   0.071   5.048  0.2548  0.4742 -0.4390
  750MOL0     C 1165   7.474   0.008   5.015  0.2031 -0.0093  0.1802
  750MOL0     N 1166   8.353  -0.163   4.844  0.1886  0.1681  0.7984
  750MOL0     N 1167   8.438  -0.098   4.771 -0.3339  0.0374  0.3399
  750MOL0     C 1168   7.937   0.895   4.967  0.4182  0.2497  0.5391
  750MOL0     C 1169   7.822   0.976   4.939  0.1056  0.4260 -0.1278
  750MOL0     C 1170   7.555   1.359   4.974 -0.4741  1.5626 -0.9774
  750MOL0     C 1171   7.486   1.444   5.057 -0.0534  0.3865 -0.7149
  750MOL0     C 1172   7.381   1.525   5.019  0.0805  0.0760 -0.2792
  750MOL0     C 1173   7.354   1.524   4.888  0.0303  0.3462  0.5015
  750MOL0     O 1174   7.256   1.617   4.855  0.5035  0.0732  0.1201
  750MOL0     C 1175   7.280   1.759   4.850  1.3355 -1.1581  0.8132
  750MOL0     C 1176   7.141   1.840   4.827 -1.1349  0.0617  0.3521
  750MOL0     C 1177   7.060   1.837   4.956 -0.1089 -0.3722 -0.4138
  750MOL0     C 1178   7.101   1.956   5.056 -0.4938 -0.4203  0.4103
  750MOL0     C 1179   7.028   1.934   5.185  0.1349 -0.2399  0.2110
  750MOL0     C 1180   6.967   1.912   5.287  0.1175 -0.4036  0.3916
  750MOL0     C 1181   7.422   1.446   4.793  0.3215  0.3317 -0.4851
  750MOL0     C 1182   7.524   1.355   4.840 -0.1398 -0.5448 -0.3881
  750MOL0     H 1183   7.969   1.256   5.078 -0.8208  0.6798  1.7576
  750MOL0     H 1184   8.144   1.109   5.110  1.8805 -3.8456 -0.2065
  750MOL0     H 1185   8.088   0.673   4.982  1.1524 -0.0514  1.3948
  750MOL0     H 1186   8.174   0.769   4.862 -1.5715  0.4427 -0.2608
  750MOL0     H 1187   8.381   0.760   5.031 -0.3448  0.8202  0.6076
  750MOL0     H 1188   8.284   0.624   5.109  0.3140  2.0922  0.1474
  750MOL0     H 1189   8.448   0.636   4.858 -1.3662  0.9278 -0.5719
  750MOL0     H 1190   8.432   0.515   4.978  0.9305  2.0109  1.3631
  750MOL0     H 1191   8.208   0.441   4.901 -2.2188 -1.4232 -3.1737
  750MOL0     H 1192   8.198   0.564   4.794 -0.6839 -1.9444  0.2140
  750MOL0     H 1193   8.262   0.347   4.666  3.6798 -0.8563 -4.0396
  750MOL0     H 1194   8.399   0.453   4.666 -0.8464  0.1574  0.1824
  750MOL0     H 1195   8.486   0.354   4.877  1.7471  0.0525 -1.9540
  750MOL0     H 1196   8.359   0.236   4.870  1.7341  0.8436  1.2984
  750MOL0     H 1197   8.569   0.284   4.642 -1.1060  0.8256 -0.2952
  750MOL0     H 1198   8.581   0.154   4.767  2.7251  0.4040 -2.2586
  750MOL0     H 1199   8.515   0.073   4.571  1.0915 -1.2215  2.2276
  750MOL0     H 1200   8.365   0.158   4.554  3.5064  0.2683 -2.7233
  750MOL0     H 1201   8.164   0.076   4.725  0.9234  0.0977 -1.6218
  750MOL0     H 1202   8.107  -0.234   4.944  2.2827 -0.7797  3.9005
  750MOL0     H 1203   8.142  -0.085   5.032 -0.5955 -0.4064  0.0218
  750MOL0     H 1204   7.971  -0.058   4.780 -1.6470 -1.1533  0.0450
  750MOL0     H 1205   7.986   0.047   4.921  2.4606 -0.3226 -0.1375
  750MOL0     H 1206   7.858  -0.082   5.081 -2.7384 -5.0982  2.3761
  750MOL0     H 1207   7.884  -0.226   4.984 -2.6543 -0.5096  0.8640
  750MOL0     H 1208   7.666  -0.146   4.995 -0.4730  1.4278  1.6732
  750MOL0     H 1209   7.726  -0.149   4.826  2.2266  2.6589 -1.3428
  750MOL0     H 1210   7.612   0.232   4.805  1.2901 -0.5259  0.6179
  750MOL0     H 1211   7.382   0.473   4.925  0.8216 -0.0420 -0.6025
  750MOL0     H 1212   7.469   0.421   4.777 -0.7120 -2.1032 -2.1281
  750MOL0     H 1213   7.298   0.389   4.791  0.2034 -1.7452 -0.6444
  750MOL0     H 1214   6.974   0.159   4.859  1.0784  2.2150 -1.1892
  750MOL0     H 1215   6.746   0.228   4.799 -0.4460  0.0482 -0.5798
  750MOL0     H 1216   6.454   0.171   5.061 -0.4857  0.0739  1.0485
  750MOL0     H 1217   6.456   0.329   5.148 -0.1665 -1.2059 -0.2443
  750MOL0     H 1218   6.325   0.448   4.988 -1.0839 -0.8546  2.3850
  750MOL0     H 1219   6.325   0.295   4.875 -0.4814 -1.8619  0.0259
  750MOL0     H 1220   6.217   0.277   5.142  0.1417  0.8990  0.0502
  750MOL0     H 1221   6.206   0.176   4.985 -2.1028  0.3338 -0.6162
  750MOL0     H 1222   6.079   0.450   5.034 -0.9239  2.6158 -2.3849
  750MOL0     H 1223   6.091   0.374   4.881 -1.9753 -3.0485  0.0657
  750MOL0     H 1224   5.958   0.185   4.946  1.4385 -0.7512  0.7468
  750MOL0     H 1225   5.881   0.346   4.973  2.3432  0.6101 -2.1726
  750MOL0     H 1226   5.966   0.329   5.213  3.5791 -2.9884  2.6129
  750MOL0     H 1227   5.825   0.241   5.163 -0.1495  3.4106  0.8807
  750MOL0     H 1228   6.099   0.112   5.212  0.0916  0.6460 -0.5364
  750MOL0     H 1229   5.968   0.038   5.122  0.9329  0.9761 -0.2694
  750MOL0     H 1230   5.816   0.063   5.330 -0.0790 -0.7609 -2.0181
  750MOL0     H 1231   5.967   0.122   5.408 -0.3123  0.1962  0.2008
  750MOL0     H 1232   6.691   0.355   5.209  0.9427 -0.9974 -0.2869
  750MOL0     H 1233   6.907   0.256   5.269  0.8051 -1.0301 -0.1338
  750MOL0     H 1234   7.296   0.021   5.125 -3.3749  3.0383 -1.2530
  750MOL0     H 1235   7.490  -0.089   5.060  1.5874  0.3139  0.4402
  750MOL0     H 1236   7.931   0.791   4.937 -2.4362  0.0950  1.2726
  750MOL0     H 1237   7.729   0.939   4.898  0.6966 -0.6625 -0.5352
  750MOL0     H 1238   7.513   1.450   5.161  1.8950  0.7394 -1.1972
  750MOL0     H 1239   7.323   1.594   5.079  0.5218  0.1222  0.1003
  750MOL0     H 1240   7.317   1.794   4.947 -2.8644  1.0747  1.8587
  750MOL0     H 1241   7.356   1.773   4.773  0.5902 -2.5770 -0.2367
  750MOL0     H 1242   7.096   1.786   4.744 -0.1566 -1.0833  0.5437
  750MOL0     H 1243   7.161   1.944   4.797  3.0354 -1.1095 -1.6462
  750MOL0     H 1244   7.065   1.738   5.001 -1.2320 -0.9034 -1.3966
  750MOL0     H 1245   6.955   1.856   4.931  0.4713  1.0667 -1.9705
  750MOL0     H 1246   7.087   2.061   5.029  0.3037  0.2765  2.5077
  750MOL0     H 1247   7.210   1.951   5.060 -0.3795  1.8791  1.2916
  750MOL0     H 1248   6.893   1.877   5.356 -2.6658 -0.2039 -2.2695
  750MOL0     H 1249   7.391   1.467   4.690  1.6787  1.2001 -0.7411
  750MOL0     H 1250   7.570   1.285   4.770 -2.0550 -0.5941 -1.6665
  751MOL0     O 1251  10.575   2.231   6.824  0.4414 -0.1660 -0.8507
  751MOL0     C 1252  10.649   2.251   6.919 -0.0518 -0.4848  0.2154
  751MOL0     O 1253  10.602   2.250   7.048  0.0327  0.4997 -0.8531
  751MOL0     C 1254  10.467   2.264   7.064 -0.4639 -0.0685  0.9909
  751MOL0     C 1255  10.410   2.389   7.044  0.7723 -0.2871 -0.0111
  751MOL0     C 1256  10.268   2.407   7.072 -0.7131  0.0801  1.1879
  751MOL0     C 1257  10.189   2.309   7.125  0.2672 -0.6720  0.0464
  751MOL0     O 1258  10.061   2.333   7.157  0.3514 -0.3984 -0.4639
  751MOL0     C 1259   9.977   2.231   7.222  0.2959 -0.5953 -0.5760
  751MOL0     C 1260   9.984   2.209   7.365 -0.1158  0.0385 -0.3492
  751MOL0     C 1261  10.000   2.340   7.445  0.6378 -0.1582  0.1366
  751MOL0     C 1262   9.966   2.324   7.588  0.9029 -0.1989  0.1971
  751MOL0     C 1263   9.809   2.301   7.618 -0.0904 -0.0582 -0.4352
  751MOL0     C 1264   9.767   2.304   7.768 -0.2073 -0.8409 -0.3090
  751MOL0     C 1265   9.860   2.250   7.874  0.0999 -0.6739  0.1497
  751MOL0     C 1266   9.831   2.305   8.013 -0.5092  0.2720 -0.5370
  751MOL0     N 1267   9.692   2.296   8.060  0.5433  0.2965  0.3351
  751MOL0     C 1268   9.589   2.384   8.032  0.3682  0.2448 -0.6601
  751MOL0     C 1269   9.471   2.333   8.073 -0.5784 -0.8423 -0.3758
  751MOL0     C 1270   9.337   2.389   8.064  0.4011  0.3043 -0.0146
  751MOL0     C 1271   9.266   2.321   7.945 -0.6865  0.7103  0.5922
  751MOL0     C 1272   9.121   2.370   7.915 -0.7622  0.3901 -0.3071
  751MOL0     C 1273   9.130   2.511   7.859  0.3979 -0.3489  0.1458
  751MOL0     O 1274   9.148   2.627   7.942  0.1010  0.4683 -0.4186
  751MOL0     C 1275   9.068   2.656   8.055 -0.1053  0.7645 -0.2556
  751MOL0     C 1276   9.119   2.739   8.162  0.3623  0.0655 -0.4883
  751MOL0     C 1277   9.048   2.767   8.283 -0.3765  0.0530 -0.1673
  751MOL0     C 1278   9.127   2.832   8.393  0.3136 -0.1793  0.9157
  751MOL0     C 1279   8.905   2.722   8.284 -0.2341 -0.6874  0.0207
  751MOL0     C 1280   8.810   2.755   8.401  0.7469 -0.4765 -0.3747
  751MOL0     O 1281   8.682   2.708   8.401  0.7950  0.6902  0.2942
  751MOL0     C 1282   8.594   2.756   8.494  0.2417 -0.5319  0.0549
  751MOL0     C 1283   8.609   2.739   8.624 -0.1372 -1.0096 -0.0452
  751MOL0     C 1284   8.511   2.789   8.716  0.4205  0.1623 -0.3469
  751MOL0     C 1285   8.394   2.858   8.667 -0.2398  0.0104 -0.3950
  751MOL0     O 1286   8.293   2.890   8.747  0.2338  0.3523 -0.9641
  751MOL0     C 1287   8.181   2.804   8.729  0.4574  0.5636 -0.1019
  751MOL0     C 1288   8.109   2.774   8.862 -0.5180 -0.0298  0.7920
  751MOL0     C 1289   8.016   2.650   8.862  0.5777 -0.2856 -0.1081
  751MOL0     C 1290   7.917   2.641   8.741 -1.1216 -0.3417 -0.5734
  751MOL0     C 1291   7.830   2.518   8.733  0.5590 -0.7672 -0.1323
  751MOL0     C 1292   7.739   2.529   8.608  0.0181 -0.0872  0.4737
  751MOL0     C 1293   7.637   2.417   8.634  0.5151 -0.7603  0.1385
  751MOL0     C 1294   7.520   2.452   8.550  0.8452 -0.1564  0.8111
  751MOL0    Cl 1295   7.435   2.599   8.628  0.0768  0.1170  0.2519
  751MOL0     C 1296   8.395   2.889   8.534 -0.4285 -0.6695  0.7199
  751MOL0     C 1297   8.495   2.838   8.445 -0.2134  0.7638  0.1029
  751MOL0     O 1298   8.850   2.847   8.474 -0.5422  0.1115 -0.2735
  751MOL0     C 1299   8.851   2.649   8.177  0.0865 -0.8345 -0.9114
  751MOL0     C 1300   8.937   2.618   8.072 -0.2289  0.4999  0.4124
  751MOL0     N 1301   9.494   2.204   8.119 -0.2161 -0.0994 -0.1424
  751MOL0     N 1302   9.628   2.185   8.109  1.2773  1.1869 -0.4408
  751MOL0     C 1303  10.254   2.186   7.133  0.4601 -0.4452  0.2241
  751MOL0     C 1304  10.384   2.161   7.104 -0.3171  0.4676 -0.1138
  751MOL0     C 1305  10.800   2.277   6.894  0.6178  1.0821 -0.2780
  751MOL0     C 1306  10.893   2.272   6.994 -0.8773  0.1202  0.0473
  751MOL0     C 1307  11.029   2.291   6.978 -0.6880 -1.4201  0.3758
  751MOL0     C 1308  11.079   2.310   6.853  0.6751 -0.6166 -0.3250
  751MOL0     O 1309  11.207   2.352   6.850  0.3185  0.6943  0.3261
  751MOL0     C 1310  11.249   2.438   6.742 -0.4320  0.1013 -0.2164
  751MOL0     C 1311  11.382   2.504   6.753 -0.5903  0.2678  0.0559
  751MOL0     C 1312  11.427   2.589   6.630 -0.4551 -0.1482 -0.1442
  751MOL0     C 1313  11.336   2.715   6.603 -0.1418 -0.0074  0.2140
  751MOL0     C 1314  11.353   2.816   6.709  0.2108 -0.5205  0.1027
  751MOL0     C 1315  11.386   2.914   6.777 -0.2238 -0.7299  0.0048
  751MOL0     C 1316  10.990   2.291   6.738  0.0344  0.5349  0.2061
  751MOL0     C 1317  10.851   2.279   6.764 -0.2754 -1.0847  1.3143
  751MOL0     H 1318  10.465   2.472   6.999  0.0469 -0.3252 -0.9872
  751MOL0     H 1319  10.225   2.506   7.054  0.2827  0.2943 -0.1471
  751MOL0     H 1320   9.875   2.269   7.213  0.3823  0.1130  1.0715
  751MOL0     H 1321   9.977   2.131   7.176  1.5765 -0.3029 -1.2451
  751MOL0     H 1322   9.895   2.153   7.398 -0.6753  0.2216 -1.5081
  751MOL0     H 1323  10.078   2.155   7.380 -0.1462 -0.0544 -0.4927
  751MOL0     H 1324  10.101   2.382   7.442  1.5608 -2.2794 -0.8153
  751MOL0     H 1325   9.942   2.420   7.397  0.2621  0.7532  2.0098
  751MOL0     H 1326  10.029   2.249   7.638  3.4250  0.9926 -1.0027
  751MOL0     H 1327   9.986   2.423   7.631 -0.0257  1.1428 -2.2928
  751MOL0     H 1328   9.744   2.373   7.568  1.5115  1.3217 -0.6211
  751MOL0     H 1329   9.783   2.198   7.591 -3.9502 -0.2987  3.1995
  751MOL0     H 1330   9.760   2.407   7.802  2.5755 -1.4743  2.6853
  751MOL0     H 1331   9.670   2.253   7.769 -2.1571  2.3385 -3.5824
  751MOL0     H 1332   9.866   2.141   7.868 -1.1805 -0.7672 -6.2838
  751MOL0     H 1333   9.962   2.282   7.853 -0.4014 -0.6836 -2.5841
  751MOL0     H 1334   9.857   2.412   8.013  0.4623  0.0521  0.0214
  751MOL0     H 1335   9.892   2.249   8.085  2.9784 -0.3230 -3.6595
  751MOL0     H 1336   9.600   2.481   7.984 -0.5853  1.0058  0.5853
  751MOL0     H 1337   9.285   2.361   8.156 -1.9509 -1.3551 -1.7136
  751MOL0     H 1338   9.342   2.497   8.051 -1.0301  0.4748  0.6707
  751MOL0     H 1339   9.272   2.212   7.959 -1.1201  0.6437  0.2949
  751MOL0     H 1340   9.323   2.341   7.853  0.4529  0.4018  1.2134
  751MOL0     H 1341   9.052   2.365   8.000  0.3006  0.3569  0.5705
  751MOL0     H 1342   9.079   2.296   7.846  1.7255 -1.7952  0.3502
  751MOL0     H 1343   9.040   2.527   7.799  0.1371  2.1210  1.0480
  751MOL0     H 1344   9.214   2.520   7.790  0.8561 -0.9328  0.6103
  751MOL0     H 1345   9.213   2.792   8.154  0.2742 -0.0273 -2.6983
  751MOL0     H 1346   9.086   2.923   8.437  1.0487  0.2860  0.6646
  751MOL0     H 1347   9.149   2.757   8.469  1.5099  0.2372  0.9990
  751MOL0     H 1348   9.228   2.856   8.359  0.8023 -1.0188  1.7151
  751MOL0     H 1349   8.698   2.688   8.659 -0.5587 -1.6840  0.0576
  751MOL0     H 1350   8.515   2.776   8.824  0.1810  0.3880 -0.3119
  751MOL0     H 1351   8.113   2.846   8.654 -0.9091  0.1943  0.8855
  751MOL0     H 1352   8.200   2.714   8.671  0.5684 -0.3219  1.2637
  751MOL0     H 1353   8.186   2.769   8.940  0.6232  2.9330 -0.0353
  751MOL0     H 1354   8.046   2.859   8.889 -1.2031 -0.1209 -0.4681
  751MOL0     H 1355   7.968   2.653   8.960  2.9927 -0.7537  1.1612
  751MOL0     H 1356   8.073   2.557   8.874 -2.2908 -1.9014  2.6993
  751MOL0     H 1357   7.855   2.731   8.737  0.4261  0.6935 -2.7644
  751MOL0     H 1358   7.979   2.643   8.652  0.8902  1.1268  0.7647
  751MOL0     H 1359   7.776   2.518   8.828 -0.8215  1.2349 -0.8560
  751MOL0     H 1360   7.889   2.425   8.727  1.1216 -0.4125 -0.1900
  751MOL0     H 1361   7.690   2.626   8.590 -1.8348 -0.2715  3.8102
  751MOL0     H 1362   7.792   2.509   8.514 -0.9499 -0.0180 -0.1065
  751MOL0     H 1363   7.610   2.411   8.740  2.1550  1.5422  0.7777
  751MOL0     H 1364   7.673   2.319   8.603 -2.5749 -3.0514  2.9815
  751MOL0     H 1365   7.456   2.364   8.547 -2.0218  1.7996 -1.9580
  751MOL0     H 1366   7.536   2.479   8.445 -2.6633  0.5229  0.3035
  751MOL0     H 1367   8.310   2.945   8.498  0.3427  1.0609  1.4201
  751MOL0     H 1368   8.491   2.832   8.337  2.3670 -0.3498  0.0042
  751MOL0     H 1369   8.745   2.624   8.176 -0.0583 -0.2611 -0.0094
  751MOL0     H 1370   8.874   2.571   7.997  0.0758 -2.4391  1.8536
  751MOL0     H 1371  10.190   2.103   7.161  0.7311 -1.8966 -3.0532
  751MOL0     H 1372  10.430   2.062   7.106  2.5239  1.6816 -0.2390
  751MOL0     H 1373  10.855   2.270   7.096  1.4595  1.7642  1.0386
  751MOL0     H 1374  11.096   2.293   7.063  4.4595  2.0264 -3.2061
  751MOL0     H 1375  11.262   2.368   6.658  1.8289 -0.6125  0.6560
  751MOL0     H 1376  11.167   2.504   6.711 -2.7151 -1.4031  2.1538
  751MOL0     H 1377  11.463   2.433   6.766 -0.4024  0.5333  0.3344
  751MOL0     H 1378  11.386   2.564   6.844  2.8696  0.5553 -0.1531
  751MOL0     H 1379  11.424   2.524   6.542  3.8032 -0.1992 -0.4260
  751MOL0     H 1380  11.529   2.629   6.630 -0.4494  0.0219 -2.4879
  751MOL0     H 1381  11.229   2.695   6.598 -0.3954  1.5380 -1.8833
  751MOL0     H 1382  11.363   2.760   6.507 -0.0599  1.0551  0.7260
  751MOL0     H 1383  11.424   2.997   6.833  0.3469 -0.5205 -0.6897
  751MOL0     H 1384  11.038   2.295   6.641  1.9485  3.8836  1.1367
  751MOL0     H 1385  10.772   2.281   6.691 -0.4805  0.2695  1.5542
  752MOL0     O 1386   2.692  11.345   1.610  0.6023 -0.5822  0.7477
  752MOL0     C 1387   2.780  11.264   1.572 -0.8748  0.0066  0.0233
  752MOL0     O 1388   2.761  11.148   1.505 -0.5166  0.4150  0.5979
  752MOL0     C 1389   2.633  11.100   1.497 -0.8377 -0.7920  0.5724
  752MOL0     C 1390   2.616  10.965   1.537 -0.5152 -0.5500 -0.4137
  752MOL0     C 1391   2.494  10.905   1.536  0.4817  0.1211  0.3847
  752MOL0     C 1392   2.383  10.968   1.497 -0.0753 -0.8125  1.1355
  752MOL0     O 1393   2.262  10.914   1.506 -0.0650 -0.5710 -0.4501
  752MOL0     C 1394   2.237  10.873   1.648 -0.3217  0.3416 -0.6786
  752MOL0     C 1395   2.124  10.953   1.696  0.2257 -0.1185  0.8603
  752MOL0     C 1396   1.993  10.900   1.648  0.3012 -0.0537 -0.5580
  752MOL0     C 1397   1.867  10.988   1.686  0.3402 -0.6445 -0.2846
  752MOL0     C 1398   1.751  10.964   1.593 -0.0693  0.7210  0.1660
  752MOL0     C 1399   1.627  11.028   1.625  0.3915  0.1907  0.3610
  752MOL0     C 1400   1.516  10.979   1.523 -0.1908  0.6073  0.0032
  752MOL0     C 1401   1.382  11.016   1.591 -0.3579 -0.7785 -0.6658
  752MOL0     N 1402   1.285  10.950   1.504 -0.1685  0.0800 -0.8687
  752MOL0     C 1403   1.256  10.818   1.493  0.4777  1.2546 -0.6811
  752MOL0     C 1404   1.141  10.802   1.428  0.2782 -0.3885  0.2643
  752MOL0     C 1405   1.068  10.666   1.412  0.1715 -0.0584 -0.1037
  752MOL0     C 1406   0.931  10.677   1.356 -1.0696  0.9616 -0.0316
  752MOL0     C 1407   0.885  10.537   1.336 -0.2513  0.9644 -0.0131
  752MOL0     C 1408   0.732  10.524   1.318 -0.5336  0.3725 -0.0248
  752MOL0     O 1409   0.695  10.548   1.181  0.0780  0.1885  0.5495
  752MOL0     C 1410   0.567  10.556   1.145  0.4455 -0.5699 -0.2470
  752MOL0     C 1411   0.454  10.569   1.238  0.3171  0.8707  0.1415
  752MOL0     C 1412   0.328  10.624   1.201  0.4246 -0.3764  0.3464
  752MOL0     C 1413   0.220  10.638   1.311  0.0953 -0.5563 -0.7624
  752MOL0     C 1414   0.302  10.657   1.067 -1.2102 -0.8220 -0.0997
  752MOL0     C 1415   0.173  10.705   1.010  0.2509 -0.5689  0.2160
  752MOL0     O 1416   0.175  10.755   0.886 -0.0412 -0.1580 -0.0464
  752MOL0     C 1417   0.086  10.846   0.848  0.5485  0.2069 -0.4078
  752MOL0     C 1418  -0.032  10.801   0.802 -0.2731 -0.5323  0.0093
  752MOL0     C 1419  -0.124  10.897   0.753 -0.7591 -0.6956 -0.1636
  752MOL0     C 1420  -0.097  11.034   0.756  0.0043 -0.9534 -0.7966
  752MOL0     O 1421  -0.198  11.118   0.718  0.3392 -0.1694 -0.1787
  752MOL0     C 1422  -0.194  11.255   0.765  0.3555  0.4244  0.5674
  752MOL0     C 1423  -0.336  11.308   0.757  0.3285  0.0166  0.0286
  752MOL0     C 1424  -0.445  11.245   0.855  0.0116 -0.3960  0.7454
  752MOL0     C 1425  -0.565  11.334   0.885 -0.3883  0.8008  0.7445
  752MOL0     C 1426  -0.667  11.311   0.779  0.3714 -0.6613 -0.6378
  752MOL0     C 1427  -0.742  11.440   0.786 -0.7326  0.3451 -0.1242
  752MOL0     C 1428  -0.858  11.417   0.684 -0.0784 -0.7280  0.1988
  752MOL0     C 1429  -0.830  11.406   0.540 -0.3546 -0.2835 -0.4231
  752MOL0    Cl 1430  -0.791  11.563   0.461 -0.6971  0.7865  0.2573
  752MOL0     C 1431   0.032  11.079   0.793  0.6381 -0.9143  0.2245
  752MOL0     C 1432   0.121  10.982   0.835 -0.9302 -0.2355  0.1968
  752MOL0     O 1433   0.074  10.702   1.079  0.4451  0.0758  0.2736
  752MOL0     C 1434   0.415  10.651   0.977 -0.1235 -0.1637 -1.0394
  752MOL0     C 1435   0.538  10.599   1.017  0.3455  0.3199  0.8890
  752MOL0     N 1436   1.097  10.926   1.389  0.1865  0.1184  0.2934
  752MOL0     N 1437   1.179  11.018   1.444  0.4165  0.1213  0.3932
  752MOL0     C 1438   2.397  11.098   1.439 -0.7022  0.0115 -0.6273
  752MOL0     C 1439   2.518  11.159   1.429 -0.7032  0.6122  0.0584
  752MOL0     C 1440   2.920  11.300   1.601  0.3668  0.2535 -0.5854
  752MOL0     C 1441   3.024  11.210   1.579  0.5943 -0.7638  0.1554
  752MOL0     C 1442   3.159  11.226   1.628  0.1778  0.1889 -0.5689
  752MOL0     C 1443   3.180  11.331   1.711  0.6712  0.8934 -0.5503
  752MOL0     O 1444   3.304  11.353   1.762 -0.0197 -0.8452 -0.4426
  752MOL0     C 1445   3.414  11.337   1.681  0.1008  0.1731  0.4372
  752MOL0     C 1446   3.413  11.454   1.580  0.1723 -0.4278  0.3826
  752MOL0     C 1447   3.532  11.456   1.488 -0.3051 -0.2624 -1.0092
  752MOL0     C 1448   3.648  11.532   1.553  0.0185 -0.1270 -0.2879
  752MOL0     C 1449   3.772  11.500   1.491 -0.4923 -0.1948  0.7403
  752MOL0     C 1450   3.865  11.467   1.422 -0.2450 -0.7395  0.0514
  752MOL0     C 1451   3.084  11.432   1.729 -0.4638  0.6549  0.4747
  752MOL0     C 1452   2.959  11.423   1.666  0.7131  0.8980 -0.3782
  752MOL0     H 1453   2.707  10.920   1.577  0.7858  1.4891 -0.8875
  752MOL0     H 1454   2.484  10.803   1.572  1.0331 -1.0123 -2.4205
  752MOL0     H 1455   2.197  10.772   1.639 -1.0124  0.6721 -1.5428
  752MOL0     H 1456   2.325  10.877   1.713  0.3266  0.1344 -1.5358
  752MOL0     H 1457   2.116  10.949   1.805 -0.9776 -3.0703  0.7386
  752MOL0     H 1458   2.132  11.053   1.650 -1.4560  0.7112  2.2439
  752MOL0     H 1459   2.002  10.892   1.539 -1.1076  1.9352 -0.8725
  752MOL0     H 1460   1.981  10.810   1.710 -1.8268  1.4510  1.3794
  752MOL0     H 1461   1.841  10.969   1.790  0.6844 -2.0933 -0.4406
  752MOL0     H 1462   1.897  11.092   1.669  1.9177 -0.5480  2.5083
  752MOL0     H 1463   1.775  10.992   1.490 -0.1463 -3.9969 -1.3847
  752MOL0     H 1464   1.736  10.855   1.596  2.8758  0.2580  0.4448
  752MOL0     H 1465   1.607  10.988   1.725 -1.4190 -2.8389 -1.0543
  752MOL0     H 1466   1.643  11.136   1.625 -1.7419  0.5609  0.7147
  752MOL0     H 1467   1.536  11.049   1.441 -1.6992 -0.3388 -1.2179
  752MOL0     H 1468   1.521  10.872   1.505  2.5009  0.3003  1.9343
  752MOL0     H 1469   1.362  11.123   1.585 -2.4878 -1.1251 -0.6065
  752MOL0     H 1470   1.370  10.986   1.696 -0.0648 -3.4339 -1.3181
  752MOL0     H 1471   1.305  10.733   1.539 -2.6456 -1.7669 -2.4370
  752MOL0     H 1472   1.129  10.612   1.338  1.3184 -0.1093  0.8368
  752MOL0     H 1473   1.078  10.618   1.510  1.5454  3.8915  1.9307
  752MOL0     H 1474   0.923  10.738   1.266 -0.2220  1.6693  0.3462
  752MOL0     H 1475   0.869  10.724   1.434  0.8062 -0.2705  2.3671
  752MOL0     H 1476   0.904  10.470   1.420 -0.2432  1.6738  0.5633
  752MOL0     H 1477   0.925  10.490   1.246 -0.3651 -1.6681  1.2229
  752MOL0     H 1478   0.689  10.593   1.391 -0.1258 -0.8506  1.4311
  752MOL0     H 1479   0.694  10.424   1.342 -2.1547  1.2974  1.4629
  752MOL0     H 1480   0.456  10.539   1.342  2.9436  1.9331  0.4666
  752MOL0     H 1481   0.177  10.735   1.289 -0.6939 -0.9224 -0.8641
  752MOL0     H 1482   0.146  10.564   1.280  0.4622 -0.7202 -1.2604
  752MOL0     H 1483   0.259  10.619   1.412  2.8856 -2.6402 -2.0904
  752MOL0     H 1484  -0.062  10.697   0.804 -0.4060 -0.5076  2.9309
  752MOL0     H 1485  -0.220  10.857   0.721 -0.6247 -1.3258  0.2100
  752MOL0     H 1486  -0.162  11.254   0.869  1.0873  0.8825  0.3541
  752MOL0     H 1487  -0.120  11.318   0.714  1.3932 -0.3952  1.0373
  752MOL0     H 1488  -0.338  11.413   0.788 -0.8971 -0.9203  3.6442
  752MOL0     H 1489  -0.375  11.299   0.655  1.5999  1.8787 -0.6834
  752MOL0     H 1490  -0.398  11.222   0.951  2.0620 -3.0415 -0.7792
  752MOL0     H 1491  -0.478  11.149   0.815 -1.0709  0.0056  0.6282
  752MOL0     H 1492  -0.610  11.298   0.978  0.3182 -0.2664  0.6956
  752MOL0     H 1493  -0.529  11.436   0.896  0.3068  0.4522  1.8336
  752MOL0     H 1494  -0.742  11.234   0.797 -1.9839  1.9084  1.5166
  752MOL0     H 1495  -0.620  11.294   0.682  1.4934 -1.4942  0.0322
  752MOL0     H 1496  -0.780  11.454   0.888 -0.5815  1.1037 -0.1672
  752MOL0     H 1497  -0.696  11.536   0.764 -0.7765  1.2274  3.1128
  752MOL0     H 1498  -0.930  11.500   0.688  2.5105  1.6372  0.5720
  752MOL0     H 1499  -0.918  11.330   0.715 -0.6116 -0.8189 -1.0200
  752MOL0     H 1500  -0.925  11.367   0.503 -2.5888  1.3787  3.0668
  752MOL0     H 1501  -0.745  11.340   0.519 -1.9394 -2.3147 -0.7582
  752MOL0     H 1502   0.054  11.185   0.787  2.1992 -1.2371 -0.2009
  752MOL0     H 1503   0.216  11.014   0.876 -1.9411  0.3992  2.1628
  752MOL0     H 1504   0.417  10.702   0.881  1.0093  1.0608 -0.3993
  752MOL0     H 1505   0.617  10.597   0.943 -1.3929 -1.5564 -1.0244
  752MOL0     H 1506   2.308  11.146   1.402 -2.1445  0.6174  3.1924
  752MOL0     H 1507   2.526  11.256   1.382 -2.0460  0.5351 -0.3611
  752MOL0     H 1508   3.010  11.121   1.518  0.9015 -0.8749  0.2470
  752MOL0     H 1509   3.235  11.152   1.604  1.5820  0.7662  1.7321
  752MOL0     H 1510   3.507  11.329   1.737  0.1102  0.2164  0.4281
  752MOL0     H 1511   3.408  11.245   1.622  2.6553 -0.4627  1.0536
  752MOL0     H 1512   3.393  11.550   1.629  0.2687 -0.9552  1.4960
  752MOL0     H 1513   3.333  11.430   1.510  1.2238 -0.1268 -0.9647
  752MOL0     H 1514   3.508  11.495   1.389 -2.8472 -0.3040 -0.4798
  752MOL0     H 1515   3.566  11.354   1.467 -2.1148 -1.3180  0.8246
  752MOL0     H 1516   3.669  11.510   1.658  1.0662 -1.0075 -0.6617
  752MOL0     H 1517   3.631  11.640   1.540  0.3769 -0.2378 -1.9513
  752MOL0     H 1518   3.945  11.456   1.353  0.4065  0.6518  0.5591
  752MOL0     H 1519   3.109  11.506   1.804 -1.1476 -1.1288  2.5773
  752MOL0     H 1520   2.895  11.510   1.682 -1.0468  0.0355 -2.2251
  753MOL0     O 1521   6.735   9.481   4.605 -0.5465 -0.1505 -0.6600
  753MOL0     C 1522   6.735   9.360   4.591 -0.4740 -0.7505  0.1385
  753MOL0     O 1523   6.623   9.292   4.568  0.0857  0.5902 -0.2064
  753MOL0     C 1524   6.496   9.354   4.564 -0.1528  1.1821  0.7483
  753MOL0     C 1525   6.389   9.272   4.603 -0.0538 -0.3000 -0.5222
  753MOL0     C 1526   6.272   9.326   4.635  1.0266  0.7369 -0.6529
  753MOL0     C 1527   6.239   9.460   4.610  1.2943  0.3798 -0.0033
  753MOL0     O 1528   6.108   9.498   4.645 -0.6360 -0.3879  0.7859
  753MOL0     C 1529   6.047   9.595   4.553 -0.4272 -0.7402  0.2013
  753MOL0     C 1530   6.008   9.719   4.631 -0.5054  0.0044  0.3419
  753MOL0     C 1531   5.964   9.831   4.532  0.1927 -0.0242 -0.0577
  753MOL0     C 1532   5.907   9.949   4.615  0.0073  0.1080  0.7985
  753MOL0     C 1533   5.845  10.053   4.525  0.3281 -0.2509 -0.7403
  753MOL0     C 1534   5.756  10.145   4.614 -0.5458 -1.1597  0.0470
  753MOL0     C 1535   5.700  10.263   4.534  0.8101 -0.3790  0.0132
  753MOL0     C 1536   5.553  10.250   4.513  0.3447 -0.1817  0.0778
  753MOL0     N 1537   5.505  10.144   4.421  0.0062  0.4488  0.6575
  753MOL0     C 1538   5.438  10.167   4.304  0.2695 -0.4839 -0.6324
  753MOL0     C 1539   5.401  10.040   4.270  0.3604  0.1344  0.7839
  753MOL0     C 1540   5.321  10.006   4.139 -0.1229  1.1117 -0.6122
  753MOL0     C 1541   5.400  10.002   4.013 -0.0554  0.2213  0.3474
  753MOL0     C 1542   5.463  10.135   3.964  0.0521  0.6807  0.7487
  753MOL0     C 1543   5.373  10.256   3.965 -0.3306  0.1380 -0.1516
  753MOL0     O 1544   5.414  10.360   3.864 -0.2916  0.0752 -0.1913
  753MOL0     C 1545   5.324  10.393   3.764 -0.8639  0.1058 -0.2011
  753MOL0     C 1546   5.280  10.301   3.667  0.0476 -0.6553 -0.8023
  753MOL0     C 1547   5.202  10.342   3.562  0.3091  0.1384  0.0893
  753MOL0     C 1548   5.170  10.244   3.444 -0.8032  0.9477 -0.3493
  753MOL0     C 1549   5.161  10.475   3.553  0.2341  0.2497 -0.0624
  753MOL0     C 1550   5.060  10.522   3.457  0.0017  0.6643 -1.1107
  753MOL0     O 1551   5.055  10.658   3.435 -0.4143  0.1834 -0.1413
  753MOL0     C 1552   4.944  10.700   3.372 -0.2129  0.2504  0.8209
  753MOL0     C 1553   4.823  10.721   3.442 -0.0383  1.2282  0.9127
  753MOL0     C 1554   4.708  10.762   3.375  0.3997  0.5249 -0.7979
  753MOL0     C 1555   4.716  10.800   3.250  0.2561  0.0560 -0.0171
  753MOL0     O 1556   4.606  10.849   3.174  0.3200  1.1027  0.2069
  753MOL0     C 1557   4.501  10.756   3.136  0.5080  0.1116 -0.3850
  753MOL0     C 1558   4.548  10.664   3.022 -0.2685 -0.3005 -0.0177
  753MOL0     C 1559   4.529  10.717   2.880 -1.4637  0.0850 -0.9187
  753MOL0     C 1560   4.573  10.595   2.780 -0.5803 -0.1961  0.2168
  753MOL0     C 1561   4.555  10.640   2.639  0.0486  0.6211  0.1938
  753MOL0     C 1562   4.414  10.642   2.579 -0.8172 -1.0895 -0.8327
  753MOL0     C 1563   4.408  10.709   2.445  0.4448  0.4531 -0.4244
  753MOL0     C 1564   4.258  10.718   2.414  0.2294 -0.0193 -0.4630
  753MOL0    Cl 1565   4.220  10.792   2.261  0.2245 -0.0400 -0.0773
  753MOL0     C 1566   4.829  10.799   3.180 -0.3386 -0.3268 -0.0683
  753MOL0     C 1567   4.943  10.744   3.231  0.3540  0.0308 -0.5082
  753MOL0     O 1568   4.973  10.435   3.434 -0.1453  0.7891  0.0699
  753MOL0     C 1569   5.198  10.566   3.655 -0.4822 -0.2920 -0.4035
  753MOL0     C 1570   5.280  10.531   3.757  0.1089  0.5786 -0.1076
  753MOL0     N 1571   5.437   9.948   4.368 -0.3252 -0.5374  0.4606
  753MOL0     N 1572   5.506  10.014   4.462  0.6343  0.8041 -0.2636
  753MOL0     C 1573   6.342   9.542   4.565 -0.5118  1.0945  0.1794
  753MOL0     C 1574   6.464   9.486   4.537  1.3898  0.0167  0.9894
  753MOL0     C 1575   6.860   9.284   4.562  0.5731  0.6493  0.1873
  753MOL0     C 1576   6.977   9.326   4.629  0.3859  0.3010  0.4299
  753MOL0     C 1577   7.097   9.254   4.623 -0.8321  0.8992 -0.0568
  753MOL0     C 1578   7.096   9.134   4.548 -0.7416  0.1338 -0.5118
  753MOL0     O 1579   7.217   9.069   4.526  0.1352  0.5288 -0.1832
  753MOL0     C 1580   7.210   8.971   4.423  0.3607 -0.4353 -0.4172
  753MOL0     C 1581   7.353   8.918   4.413  0.1544  1.1299 -0.0541
  753MOL0     C 1582   7.375   8.796   4.322  0.4625  0.6616 -0.2026
  753MOL0     C 1583   7.335   8.817   4.174 -0.4453 -0.1412  0.2435
  753MOL0     C 1584   7.413   8.932   4.116  0.3508  0.1055 -0.2610
  753MOL0     C 1585   7.474   9.014   4.052 -0.7551 -0.2394  0.0040
  753MOL0     C 1586   6.976   9.089   4.484  0.1141 -0.5120 -0.4137
  753MOL0     C 1587   6.856   9.163   4.496 -0.1975  0.4323 -0.4359
  753MOL0     H 1588   6.404   9.169   4.634  1.1957 -0.2191 -0.7852
  753MOL0     H 1589   6.200   9.257   4.677  0.9496  0.3909 -1.3455
  753MOL0     H 1590   6.112   9.640   4.477 -1.7040  2.0131  0.6313
  753MOL0     H 1591   5.957   9.546   4.515 -1.0826 -0.2856  1.1562
  753MOL0     H 1592   5.925   9.675   4.686 -0.0544 -2.1085 -0.5520
  753MOL0     H 1593   6.087   9.761   4.694  0.2520  1.0189 -1.2286
  753MOL0     H 1594   6.054   9.859   4.476 -0.0633  1.2740  0.1494
  753MOL0     H 1595   5.886   9.794   4.466 -0.3627 -0.3264  0.7547
  753MOL0     H 1596   5.833   9.895   4.676  2.5781 -2.6331  1.7553
  753MOL0     H 1597   5.969  10.002   4.688  0.9964  0.2429 -0.1237
  753MOL0     H 1598   5.924  10.111   4.476  1.4947 -2.5489 -1.6864
  753MOL0     H 1599   5.785   9.996   4.455  0.1122  1.0334 -1.6447
  753MOL0     H 1600   5.683  10.076   4.657 -0.5195  0.1491  2.3543
  753MOL0     H 1601   5.806  10.194   4.698 -0.3212 -2.1199  0.4818
  753MOL0     H 1602   5.712  10.356   4.590  1.3356 -0.0690 -0.5942
  753MOL0     H 1603   5.747  10.267   4.435  1.9987  2.0799  0.5894
  753MOL0     H 1604   5.516  10.348   4.480  1.4562  0.7363  1.4357
  753MOL0     H 1605   5.488  10.239   4.600 -1.4301 -2.1611 -1.3847
  753MOL0     H 1606   5.426  10.259   4.248 -0.6540  0.2879  0.7592
  753MOL0     H 1607   5.275   9.908   4.158  0.6813  1.0024  0.9596
  753MOL0     H 1608   5.250  10.088   4.129  0.8613  1.9534 -0.8186
  753MOL0     H 1609   5.330   9.960   3.939  0.9832 -3.0600  1.0618
  753MOL0     H 1610   5.486   9.937   4.028 -1.8664 -2.3871  0.2344
  753MOL0     H 1611   5.497  10.118   3.861  0.3022  1.7677  0.6376
  753MOL0     H 1612   5.552  10.156   4.025 -0.8860  2.4241  1.5889
  753MOL0     H 1613   5.390  10.301   4.064  2.1180 -0.7367 -0.1020
  753MOL0     H 1614   5.266  10.235   3.950 -0.5829  1.6274 -0.6456
  753MOL0     H 1615   5.325  10.202   3.667  0.3117 -0.6292 -3.7878
  753MOL0     H 1616   5.239  10.160   3.447 -1.0580  0.7487  2.0370
  753MOL0     H 1617   5.070  10.199   3.449 -0.4922  0.2686 -0.1618
  753MOL0     H 1618   5.176  10.287   3.343  1.0955  1.2382 -0.1483
  753MOL0     H 1619   4.822  10.700   3.549 -1.2118  0.6670  0.8052
  753MOL0     H 1620   4.613  10.768   3.427  0.6721 -2.8571  0.3637
  753MOL0     H 1621   4.459  10.700   3.220 -0.6016  1.4460  0.0018
  753MOL0     H 1622   4.416  10.817   3.103  1.0679  0.8539 -0.4671
  753MOL0     H 1623   4.648  10.619   3.024 -0.2517 -0.2393  1.1946
  753MOL0     H 1624   4.492  10.571   3.020  2.3038 -2.3544  5.1328
  753MOL0     H 1625   4.601  10.798   2.862 -1.5604  1.7853  4.4045
  753MOL0     H 1626   4.431  10.759   2.856 -1.4374  0.0286 -1.1219
  753MOL0     H 1627   4.678  10.572   2.800 -0.1212 -1.5610 -3.1977
  753MOL0     H 1628   4.501  10.517   2.809 -0.8892 -1.3887 -3.3032
  753MOL0     H 1629   4.607  10.569   2.575 -2.0447  0.3981 -1.3741
  753MOL0     H 1630   4.601  10.737   2.619  0.7533 -0.1845 -2.5130
  753MOL0     H 1631   4.380  10.541   2.556  0.0868 -1.6240  0.0900
  753MOL0     H 1632   4.357  10.702   2.651  2.9765  0.9060  0.8080
  753MOL0     H 1633   4.444  10.645   2.364 -1.8128 -0.0313 -1.1170
  753MOL0     H 1634   4.448  10.810   2.440  0.0684  0.5831 -0.9102
  753MOL0     H 1635   4.218  10.777   2.496  0.6719 -2.6820  1.8345
  753MOL0     H 1636   4.202  10.623   2.415 -0.3190  0.2758 -1.4366
  753MOL0     H 1637   4.821  10.818   3.073 -1.2991  0.7581  0.1691
  753MOL0     H 1638   5.041  10.742   3.183  0.7057  2.0979  0.0306
  753MOL0     H 1639   5.149  10.663   3.655  0.2131  0.1144  1.7080
  753MOL0     H 1640   5.294  10.595   3.844 -0.2244  0.0542  0.3367
  753MOL0     H 1641   6.330   9.647   4.542 -0.2039  1.6399  2.2959
  753MOL0     H 1642   6.545   9.555   4.511  1.7600  0.7184  3.6874
  753MOL0     H 1643   6.969   9.423   4.677 -0.6861 -0.3283  1.5773
  753MOL0     H 1644   7.187   9.285   4.675 -0.1733 -1.1985  0.1609
  753MOL0     H 1645   7.145   8.888   4.450  0.2077 -0.0418  0.4585
  753MOL0     H 1646   7.169   9.024   4.337 -1.7968 -0.7903  0.3394
  753MOL0     H 1647   7.378   8.881   4.513 -0.5276  1.6287  0.3174
  753MOL0     H 1648   7.418   9.005   4.401  0.2873  1.6476  3.2720
  753MOL0     H 1649   7.319   8.712   4.366 -0.4141  0.9488 -0.7285
  753MOL0     H 1650   7.478   8.761   4.325  0.1246 -0.5659 -1.6070
  753MOL0     H 1651   7.226   8.832   4.173 -0.9955 -3.4525  0.4667
  753MOL0     H 1652   7.363   8.736   4.106 -0.5518 -0.1583  0.2211
  753MOL0     H 1653   7.536   9.080   3.995  1.0793 -1.6725  0.2216
  753MOL0     H 1654   6.969   9.013   4.407  1.3102  0.9151 -2.0086
  753MOL0     H 1655   6.771   9.116   4.447  0.5284 -1.4970  0.0702
  754MOL0     O 1656   9.037   7.122   2.161 -0.0907 -0.3163 -0.2426
  754MOL0     C 1657   9.044   7.011   2.114  0.4815  0.3708 -0.0919
  754MOL0     O 1658   9.157   6.945   2.084  0.7995  0.2611 -0.0305
  754MOL0     C 1659   9.285   6.997   2.110  0.3382  0.3206  0.2490
  754MOL0     C 1660   9.358   6.942   2.213 -0.0408 -0.5474 -0.3892
  754MOL0     C 1661   9.492   6.983   2.237  0.5663  0.0514 -0.1397
  754MOL0     C 1662   9.546   7.082   2.154 -0.3429 -0.3730  1.1268
  754MOL0     O 1663   9.682   7.124   2.175  1.2967 -0.0297  0.5545
  754MOL0     C 1664   9.757   7.181   2.068  0.2774 -0.1412  0.7029
  754MOL0     C 1665   9.909   7.200   2.112  0.2326 -0.2723  0.5640
  754MOL0     C 1666   9.971   7.061   2.126 -0.0188  0.3251 -0.1593
  754MOL0     C 1667  10.109   7.054   2.195 -0.4169  0.7152 -0.5509
  754MOL0     C 1668  10.216   7.125   2.115 -0.0409  0.5682 -0.0493
  754MOL0     C 1669  10.254   7.042   1.983  0.0972  0.0731 -0.6303
  754MOL0     C 1670  10.373   7.100   1.897  0.3584 -0.2928  0.0882
  754MOL0     C 1671  10.509   7.060   1.952 -0.4058  0.8288 -0.4816
  754MOL0     N 1672  10.609   7.134   1.879 -0.1020  0.4697  0.3142
  754MOL0     C 1673  10.682   7.084   1.783  0.0150  0.6869 -0.0151
  754MOL0     C 1674  10.759   7.181   1.737  0.7668 -0.4492  0.6415
  754MOL0     C 1675  10.856   7.172   1.625  0.6624 -0.0621 -0.3099
  754MOL0     C 1676  10.954   7.052   1.644  0.2277 -0.1864 -0.1195
  754MOL0     C 1677  11.029   7.062   1.776  0.6357  0.7413 -0.1444
  754MOL0     C 1678  11.101   7.190   1.815  0.0944 -0.2840  0.2812
  754MOL0     O 1679  11.209   7.213   1.722  0.1219  0.3974 -0.3636
  754MOL0     C 1680  11.299   7.319   1.739  0.0666 -0.4084 -0.3962
  754MOL0     C 1681  11.298   7.411   1.849 -0.1502  0.3698  0.1903
  754MOL0     C 1682  11.386   7.520   1.848 -0.9743  0.2083 -0.1439
  754MOL0     C 1683  11.371   7.621   1.967  0.0007 -0.1233 -0.2656
  754MOL0     C 1684  11.482   7.539   1.742 -0.0555 -0.1022 -0.1781
  754MOL0     C 1685  11.579   7.660   1.737 -0.0475  0.4504  0.4668
  754MOL0     O 1686  11.660   7.666   1.624  0.2733 -0.3853 -0.9019
  754MOL0     C 1687  11.689   7.788   1.572  0.2967  0.8559 -0.1141
  754MOL0     C 1688  11.808   7.848   1.589  0.2592 -0.7876  0.7538
  754MOL0     C 1689  11.822   7.985   1.555  0.1290 -0.1135 -0.9268
  754MOL0     C 1690  11.718   8.065   1.511 -0.0173 -0.1588  0.3786
  754MOL0     O 1691  11.725   8.204   1.497 -0.5938 -0.0925  0.0940
  754MOL0     C 1692  11.792   8.278   1.600 -0.0272  0.0549 -0.3768
  754MOL0     C 1693  11.790   8.423   1.572  1.1520  0.5614 -0.1983
  754MOL0     C 1694  11.643   8.479   1.546 -0.5050 -0.0901 -0.0745
  754MOL0     C 1695  11.648   8.634   1.547  0.4174 -0.5310 -0.0013
  754MOL0     C 1696  11.503   8.686   1.506 -0.2514 -0.1889 -0.4653
  754MOL0     C 1697  11.509   8.843   1.501  0.1996 -0.5882  0.0105
  754MOL0     C 1698  11.525   8.894   1.646  0.0470  0.0319  0.0887
  754MOL0     C 1699  11.507   9.049   1.665  0.4444  0.7522 -0.4895
  754MOL0    Cl 1700  11.589   9.133   1.544  0.2287  0.2720  0.1969
  754MOL0     C 1701  11.594   8.001   1.491 -0.2063 -0.1212  0.4088
  754MOL0     C 1702  11.588   7.856   1.510 -0.5164 -0.4346 -0.7156
  754MOL0     O 1703  11.569   7.740   1.826  0.3358 -0.3579 -0.4596
  754MOL0     C 1704  11.485   7.442   1.641  0.5227  0.2190  0.4382
  754MOL0     C 1705  11.387   7.340   1.637  0.6425  0.4223  0.4745
  754MOL0     N 1706  10.733   7.293   1.803  0.0328 -1.1370  0.0380
  754MOL0     N 1707  10.635   7.265   1.892  0.6836 -0.1102 -0.3782
  754MOL0     C 1708   9.473   7.146   2.060  0.2370  0.4290 -0.1389
  754MOL0     C 1709   9.345   7.100   2.032 -0.2652 -0.0954  0.0012
  754MOL0     C 1710   8.916   6.947   2.069 -0.4561  0.2323  0.0627
  754MOL0     C 1711   8.787   7.005   2.103 -0.4149  0.3645 -0.0564
  754MOL0     C 1712   8.666   6.944   2.076 -0.0746 -0.4524 -0.2702
  754MOL0     C 1713   8.667   6.821   2.006 -0.2411  0.7185  0.2717
  754MOL0     O 1714   8.556   6.749   1.978  0.1519  0.4905  0.3738
  754MOL0     C 1715   8.432   6.791   2.040 -0.2406 -0.4492  0.5959
  754MOL0     C 1716   8.316   6.701   2.021 -0.7903  0.0348 -0.1256
  754MOL0     C 1717   8.198   6.760   2.103  0.2700 -0.1898  0.5373
  754MOL0     C 1718   8.212   6.724   2.256  0.2807  0.1658  0.9415
  754MOL0     C 1719   8.099   6.741   2.340 -0.1732  0.0228  0.8008
  754MOL0     C 1720   8.028   6.757   2.435 -0.6643 -0.1983  0.1500
  754MOL0     C 1721   8.795   6.759   1.972 -0.2477  0.1999  0.4108
  754MOL0     C 1722   8.918   6.825   2.000  0.3735  0.5590  0.5792
  754MOL0     H 1723   9.317   6.860   2.270 -0.7825 -0.2705 -0.5142
  754MOL0     H 1724   9.553   6.947   2.319  3.8464 -0.4795 -2.6432
  754MOL0     H 1725   9.753   7.124   1.975  0.8437  0.0151  0.5809
  754MOL0     H 1726   9.724   7.282   2.043  1.3491  0.5313  1.9109
  754MOL0     H 1727   9.953   7.269   2.038  2.5951  1.1705  3.1240
  754MOL0     H 1728   9.915   7.255   2.206 -0.0315 -2.5326  1.9718
  754MOL0     H 1729   9.913   6.989   2.185  1.2782  2.6433  4.4403
  754MOL0     H 1730   9.991   7.016   2.029  0.3882 -1.6620  0.7882
  754MOL0     H 1731  10.096   7.092   2.297 -2.6128 -0.4840 -0.3100
  754MOL0     H 1732  10.149   6.953   2.203  1.3856  1.2179 -2.6124
  754MOL0     H 1733  10.186   7.227   2.088 -1.5784  0.5954  1.5866
  754MOL0     H 1734  10.310   7.137   2.170  0.6298  0.8222 -1.2351
  754MOL0     H 1735  10.267   6.934   1.996 -2.4133 -0.5237 -2.2648
  754MOL0     H 1736  10.162   7.037   1.923 -0.3023  2.4989 -0.3398
  754MOL0     H 1737  10.355   7.064   1.795 -1.6949 -3.3235  1.3708
  754MOL0     H 1738  10.362   7.209   1.894 -1.8557 -0.3775  1.7779
  754MOL0     H 1739  10.526   6.953   1.944  0.3498  0.9470 -0.5780
  754MOL0     H 1740  10.525   7.098   2.053  0.8618  0.9410 -0.7062
  754MOL0     H 1741  10.674   6.981   1.750  2.3225  0.5054 -0.2186
  754MOL0     H 1742  10.800   7.161   1.532 -2.2728  2.8185  0.9295
  754MOL0     H 1743  10.914   7.265   1.621  3.0133 -1.4052  0.4944
  754MOL0     H 1744  11.023   7.056   1.559 -0.4029  1.1338 -0.5890
  754MOL0     H 1745  10.908   6.953   1.632  0.8508 -0.4583 -0.2965
  754MOL0     H 1746  11.111   6.989   1.775  0.1289  0.1399 -1.9871
  754MOL0     H 1747  10.956   7.047   1.855  2.3230  0.8027  1.5017
  754MOL0     H 1748  11.136   7.195   1.918  1.6371 -0.8226 -0.1868
  754MOL0     H 1749  11.029   7.272   1.814 -0.2840 -0.6142 -0.0920
  754MOL0     H 1750  11.236   7.381   1.933 -1.7524 -0.8390 -1.3498
  754MOL0     H 1751  11.333   7.720   1.942  2.6585  0.6447 -1.7300
  754MOL0     H 1752  11.305   7.577   2.042 -0.1884  0.8201  0.1378
  754MOL0     H 1753  11.467   7.620   2.018  1.8153  1.3670 -3.3449
  754MOL0     H 1754  11.887   7.791   1.636  1.8382 -1.1543 -2.1684
  754MOL0     H 1755  11.921   8.028   1.566  1.6262 -3.4444 -0.0877
  754MOL0     H 1756  11.729   8.263   1.688  0.1574 -0.9196 -0.3911
  754MOL0     H 1757  11.894   8.244   1.622 -0.1268 -0.0595 -0.0882
  754MOL0     H 1758  11.826   8.467   1.665 -0.6048  2.1597 -0.2113
  754MOL0     H 1759  11.848   8.439   1.480  1.0520 -2.9033 -0.9952
  754MOL0     H 1760  11.573   8.444   1.622 -1.7908  0.4826 -0.9640
  754MOL0     H 1761  11.597   8.446   1.453  0.5401  1.4607 -1.2076
  754MOL0     H 1762  11.687   8.680   1.638  2.5818 -1.3346 -0.4768
  754MOL0     H 1763  11.722   8.667   1.474  1.5416 -1.8662  0.5061
  754MOL0     H 1764  11.429   8.645   1.575  2.4349 -0.6587  2.3668
  754MOL0     H 1765  11.485   8.646   1.406 -1.2080 -1.1672  0.0823
  754MOL0     H 1766  11.609   8.865   1.462  0.4984 -1.7893  0.0887
  754MOL0     H 1767  11.430   8.896   1.447  2.5136  2.6663 -0.5306
  754MOL0     H 1768  11.629   8.871   1.673  0.5869  2.9548  0.9285
  754MOL0     H 1769  11.461   8.833   1.711 -0.8696  0.0588 -0.7617
  754MOL0     H 1770  11.543   9.080   1.763 -1.5892  2.4703 -0.2143
  754MOL0     H 1771  11.402   9.075   1.677  0.6571  0.5220  2.8299
  754MOL0     H 1772  11.508   8.055   1.451  0.8936  0.9068 -0.6809
  754MOL0     H 1773  11.502   7.798   1.478  0.1515 -1.2707 -1.0423
  754MOL0     H 1774  11.552   7.448   1.556  1.4692 -3.6347  0.7534
  754MOL0     H 1775  11.390   7.273   1.552  1.9409 -1.1267  1.6864
  754MOL0     H 1776   9.520   7.224   2.001 -1.6761  2.3460  0.7531
  754MOL0     H 1777   9.289   7.141   1.949 -3.6825 -1.7675  1.2858
  754MOL0     H 1778   8.776   7.106   2.141 -0.5160  0.0241  0.8445
  754MOL0     H 1779   8.574   6.987   2.114  0.5286  0.9605 -0.3366
  754MOL0     H 1780   8.452   6.784   2.147  4.6531 -0.1190 -0.0578
  754MOL0     H 1781   8.406   6.892   2.008 -1.5744 -1.3622 -1.4325
  754MOL0     H 1782   8.339   6.600   2.059  0.2462  0.1370 -0.4685
  754MOL0     H 1783   8.290   6.698   1.915 -1.5367  0.3184  0.0453
  754MOL0     H 1784   8.107   6.716   2.062  0.6766 -0.6992  0.1606
  754MOL0     H 1785   8.184   6.868   2.091  0.0534 -0.2916 -0.1231
  754MOL0     H 1786   8.294   6.777   2.305  0.2291  2.1887 -0.9625
  754MOL0     H 1787   8.233   6.617   2.251  0.1253  0.1443 -3.6453
  754MOL0     H 1788   7.986   6.752   2.534  1.5874 -0.2710  1.1816
  754MOL0     H 1789   8.807   6.674   1.906 -1.6036  1.0044 -0.9529
  754MOL0     H 1790   9.007   6.783   1.954 -0.8275  1.7691 -3.2297
  755MOL0     O 1791   4.278   9.256   1.874 -0.1647 -0.4364 -0.6364
  755MOL0     C 1792   4.362   9.171   1.859  0.4955 -0.1212  0.5824
  755MOL0     O 1793   4.337   9.036   1.861  0.3634 -0.6573  0.7927
  755MOL0     C 1794   4.215   8.997   1.901 -0.0066  0.3752 -0.2994
  755MOL0     C 1795   4.094   9.032   1.837 -0.6608  0.8024  0.2822
  755MOL0     C 1796   3.974   8.986   1.883  0.6269  0.1978 -0.0608
  755MOL0     C 1797   3.966   8.894   1.995 -0.7257 -0.8710  0.2957
  755MOL0     O 1798   3.848   8.856   2.037  0.1716  0.4615  0.0679
  755MOL0     C 1799   3.806   8.918   2.166 -0.4294 -0.0297 -0.6199
  755MOL0     C 1800   3.656   8.914   2.201 -0.1236 -0.2529  0.3116
  755MOL0     C 1801   3.576   8.971   2.081 -0.6347  0.3728  0.0928
  755MOL0     C 1802   3.424   8.951   2.087 -0.6239 -0.1973  0.2563
  755MOL0     C 1803   3.348   9.006   1.966  0.0854 -0.0828 -0.4032
  755MOL0     C 1804   3.194   8.977   1.972 -0.1312  0.3388  1.1154
  755MOL0     C 1805   3.103   9.038   1.866  0.2662  0.5434  0.3876
  755MOL0     C 1806   2.971   9.093   1.923 -0.3485  0.7418  0.1151
  755MOL0     N 1807   2.886   9.127   1.807 -1.0030 -0.4648  0.3681
  755MOL0     C 1808   2.818   9.030   1.735 -0.7448 -0.8187 -0.2416
  755MOL0     C 1809   2.781   9.094   1.628  0.7269 -0.1035  0.2679
  755MOL0     C 1810   2.702   9.048   1.506  0.6539  0.2450  0.1227
  755MOL0     C 1811   2.566   9.124   1.508 -0.2196  0.2667  0.2588
  755MOL0     C 1812   2.500   9.122   1.653 -0.2395  0.0018 -0.1140
  755MOL0     C 1813   2.352   9.160   1.664 -0.4510 -0.3747  0.5366
  755MOL0     O 1814   2.271   9.077   1.595  0.3099  0.7866 -0.9015
  755MOL0     C 1815   2.139   9.071   1.626  0.2653 -0.2902 -0.8916
  755MOL0     C 1816   2.060   8.954   1.585 -0.3968 -0.4721  0.5434
  755MOL0     C 1817   1.922   8.949   1.598  0.2036  0.8953  0.5192
  755MOL0     C 1818   1.858   8.833   1.530  0.1737  0.6348  0.4932
  755MOL0     C 1819   1.853   9.058   1.664 -0.3079  0.6392 -0.0686
  755MOL0     C 1820   1.708   9.047   1.704 -0.9272 -0.4742 -0.2185
  755MOL0     O 1821   1.652   9.168   1.735  0.3881 -0.4314  0.6150
  755MOL0     C 1822   1.532   9.173   1.787  0.3637 -1.2579  0.4263
  755MOL0     C 1823   1.508   9.254   1.897  0.0804  0.2882 -0.3164
  755MOL0     C 1824   1.370   9.275   1.937  0.9083  1.1576  0.3834
  755MOL0     C 1825   1.262   9.206   1.875 -0.1688 -0.1657  0.1292
  755MOL0     O 1826   1.134   9.222   1.924 -0.2361  0.3612 -0.2715
  755MOL0     C 1827   1.023   9.159   1.859 -0.4516 -0.1356 -0.3063
  755MOL0     C 1828   0.888   9.222   1.908 -0.4252  0.3679 -0.1373
  755MOL0     C 1829   0.766   9.193   1.816  1.0760 -0.2341 -0.6848
  755MOL0     C 1830   0.640   9.243   1.894 -0.3302 -1.0577 -0.3177
  755MOL0     C 1831   0.514   9.167   1.872 -0.5469  0.0253 -0.2954
  755MOL0     C 1832   0.400   9.209   1.965  0.5997  0.6693  0.6974
  755MOL0     C 1833   0.341   9.347   1.932  0.1369 -0.1122  0.5383
  755MOL0     C 1834   0.204   9.341   1.996 -0.0637 -0.3727  0.4301
  755MOL0    Cl 1835   0.124   9.508   2.007 -0.0603 -0.0552  0.1392
  755MOL0     C 1836   1.288   9.128   1.755 -0.6915 -0.0248 -0.2530
  755MOL0     C 1837   1.424   9.108   1.719 -0.0911 -0.3091  0.3482
  755MOL0     O 1838   1.658   8.942   1.737 -0.1105  0.4476  0.7171
  755MOL0     C 1839   1.928   9.167   1.711 -0.3881 -0.2667  0.5263
  755MOL0     C 1840   2.065   9.179   1.684 -0.3995  1.1599  0.7909
  755MOL0     N 1841   2.822   9.232   1.635 -1.1656  0.6992 -0.8741
  755MOL0     N 1842   2.883   9.243   1.750 -0.0273  0.1406  0.8760
  755MOL0     C 1843   4.089   8.858   2.065 -0.2705  0.1263  0.5633
  755MOL0     C 1844   4.206   8.913   2.012 -0.1253 -0.0114  0.2442
  755MOL0     C 1845   4.494   9.214   1.824 -0.9421 -0.4289 -0.1456
  755MOL0     C 1846   4.525   9.355   1.842  0.0624 -0.5483  0.9671
  755MOL0     C 1847   4.661   9.392   1.828  0.0667  0.7077 -0.1292
  755MOL0     C 1848   4.762   9.296   1.795  0.1356 -0.0942  0.2940
  755MOL0     O 1849   4.890   9.335   1.750  1.2212 -0.2086 -0.6298
  755MOL0     C 1850   4.963   9.415   1.846 -0.9887  0.3618 -1.0895
  755MOL0     C 1851   5.030   9.321   1.950  0.5114 -0.4840 -0.4079
  755MOL0     C 1852   5.171   9.265   1.902  0.2211  0.1691  0.2272
  755MOL0     C 1853   5.275   9.376   1.856 -0.1028 -0.1660 -0.8484
  755MOL0     C 1854   5.314   9.446   1.974 -0.3127 -0.0166 -0.6915
  755MOL0     C 1855   5.356   9.508   2.068  0.0086  0.9396  0.2930
  755MOL0     C 1856   4.728   9.157   1.783 -0.2102  0.1574 -0.7652
  755MOL0     C 1857   4.593   9.117   1.807  0.1555  0.1000  0.4953
  755MOL0     H 1858   4.091   9.105   1.756 -0.5717  1.0165  0.4705
  755MOL0     H 1859   3.883   9.011   1.829  1.3684  0.6406 -1.1272
  755MOL0     H 1860   3.858   8.876   2.252 -2.2727  2.0644  1.6476
  755MOL0     H 1861   3.842   9.021   2.168 -2.5543  0.7522  0.6464
  755MOL0     H 1862   3.643   8.806   2.214  4.1588 -1.3364 -2.2000
  755MOL0     H 1863   3.651   8.972   2.293  0.4966  0.7694 -0.2782
  755MOL0     H 1864   3.595   9.079   2.076  2.0657 -0.0301 -0.0515
  755MOL0     H 1865   3.608   8.923   1.988 -0.1292 -1.4026  1.1463
  755MOL0     H 1866   3.393   8.849   2.110  0.5311 -0.8795 -1.1039
  755MOL0     H 1867   3.389   9.012   2.171 -3.3563  0.3312 -1.1516
  755MOL0     H 1868   3.359   9.114   1.979 -1.9975 -0.1500  3.1371
  755MOL0     H 1869   3.387   8.972   1.869  1.5562 -0.0498  0.1438
  755MOL0     H 1870   3.182   8.868   1.971 -2.0078  0.5211  0.6750
  755MOL0     H 1871   3.155   9.017   2.066 -0.5475 -3.5663  2.7900
  755MOL0     H 1872   3.157   9.117   1.815 -0.7144  1.1724  0.2930
  755MOL0     H 1873   3.077   8.960   1.793 -1.1476  2.3692 -1.1514
  755MOL0     H 1874   2.999   9.178   1.986  1.6132 -1.4592  2.4333
  755MOL0     H 1875   2.931   9.008   1.979  0.2984  0.5698  0.3322
  755MOL0     H 1876   2.802   8.927   1.766 -2.1569 -0.1670  1.3657
  755MOL0     H 1877   2.756   9.055   1.411 -1.6453 -1.0197 -1.3717
  755MOL0     H 1878   2.682   8.941   1.515 -0.2029  0.4956  1.6284
  755MOL0     H 1879   2.488   9.074   1.450  0.0837  0.2507 -0.1369
  755MOL0     H 1880   2.580   9.229   1.481  1.3107  0.6768  2.4226
  755MOL0     H 1881   2.557   9.195   1.712  0.4215 -0.2934 -0.3794
  755MOL0     H 1882   2.509   9.032   1.714  0.1527  2.1143  3.2643
  755MOL0     H 1883   2.341   9.263   1.626  0.4494 -0.7185 -0.7481
  755MOL0     H 1884   2.327   9.163   1.770 -1.7574  3.6007  0.2907
  755MOL0     H 1885   2.109   8.872   1.532  0.1304 -0.5859  1.1990
  755MOL0     H 1886   1.769   8.862   1.473 -0.0950  1.2045  1.1828
  755MOL0     H 1887   1.919   8.779   1.457 -2.2342 -1.3927 -0.1519
  755MOL0     H 1888   1.831   8.764   1.611  1.9797  0.4410  0.9866
  755MOL0     H 1889   1.587   9.306   1.951  0.4294 -0.4484 -0.1082
  755MOL0     H 1890   1.349   9.339   2.021 -3.7292  1.4026 -0.6983
  755MOL0     H 1891   1.034   9.164   1.751 -0.5230  1.1080 -0.2671
  755MOL0     H 1892   1.026   9.051   1.877  1.5399 -0.2748 -1.2775
  755MOL0     H 1893   0.868   9.174   2.004 -0.2418  1.2469  0.3452
  755MOL0     H 1894   0.900   9.328   1.930 -1.2585  0.0255  2.2225
  755MOL0     H 1895   0.762   9.086   1.795  1.5064 -0.3006 -0.4224
  755MOL0     H 1896   0.772   9.252   1.724  3.8878  1.4894  0.4708
  755MOL0     H 1897   0.668   9.242   1.999  2.2389  3.7251 -0.6606
  755MOL0     H 1898   0.622   9.349   1.873 -0.5358 -1.3301 -1.6515
  755MOL0     H 1899   0.538   9.066   1.906 -1.0086  0.4371  1.3455
  755MOL0     H 1900   0.473   9.165   1.770 -1.7447 -0.2320  0.1748
  755MOL0     H 1901   0.322   9.132   1.969 -2.1013  3.0982 -1.6251
  755MOL0     H 1902   0.440   9.223   2.066 -0.9142  3.0559  1.0455
  755MOL0     H 1903   0.340   9.359   1.823 -0.4929 -2.7903  0.1754
  755MOL0     H 1904   0.402   9.432   1.965  0.4116 -0.6558  1.4617
  755MOL0     H 1905   0.207   9.283   2.089  1.0373  0.9641  1.2575
  755MOL0     H 1906   0.146   9.282   1.924  1.5926 -1.3680 -0.1480
  755MOL0     H 1907   1.211   9.086   1.691  0.2603 -0.6236 -1.0405
  755MOL0     H 1908   1.439   9.058   1.624  2.1009  1.2165 -0.1863
  755MOL0     H 1909   1.867   9.246   1.755 -2.1991 -0.6189 -1.2061
  755MOL0     H 1910   2.124   9.265   1.713 -0.4699  0.5604  2.8830
  755MOL0     H 1911   4.074   8.800   2.156 -1.7960 -3.6679 -1.8631
  755MOL0     H 1912   4.299   8.894   2.064 -0.7052  0.2114  1.3973
  755MOL0     H 1913   4.444   9.424   1.863  0.5269  1.0139 -1.7898
  755MOL0     H 1914   4.685   9.498   1.825  4.3702 -0.1051 -1.6518
  755MOL0     H 1915   5.042   9.477   1.803  1.3854 -0.0853  2.1914
  755MOL0     H 1916   4.898   9.494   1.887 -0.1099  1.3249 -1.5205
  755MOL0     H 1917   4.966   9.234   1.966 -0.4240 -0.4562 -3.3527
  755MOL0     H 1918   5.036   9.377   2.043  0.5893  1.1329 -1.3398
  755MOL0     H 1919   5.154   9.211   1.809  3.4632 -0.3657 -0.1610
  755MOL0     H 1920   5.212   9.200   1.980  0.0522 -1.0743 -0.7028
  755MOL0     H 1921   5.242   9.450   1.782 -2.4714 -1.3188 -1.0349
  755MOL0     H 1922   5.366   9.332   1.815  1.1418  0.6030  0.9706
  755MOL0     H 1923   5.403   9.556   2.151 -0.2973 -0.0795  1.0631
  755MOL0     H 1924   4.802   9.080   1.761  0.2835  0.1151  0.8877
  755MOL0     H 1925   4.570   9.011   1.811  0.5738  0.0070  0.4871
  756MOL0     O 1926   3.878   3.583   7.125 -0.2585 -0.0043  0.0949
  756MOL0     C 1927   3.836   3.531   7.024  0.3867  0.5347  0.5350
  756MOL0     O 1928   3.897   3.519   6.899  0.2736 -0.7095  0.3662
  756MOL0     C 1929   4.034   3.556   6.888 -0.1922 -0.2825 -0.1168
  756MOL0     C 1930   4.132   3.591   6.983 -0.3494 -0.1998  0.0242
  756MOL0     C 1931   4.265   3.618   6.938 -0.0390  0.6829  0.4255
  756MOL0     C 1932   4.302   3.607   6.804 -0.0430 -0.6275 -1.2937
  756MOL0     O 1933   4.431   3.619   6.758  0.0211 -0.0649 -0.0487
  756MOL0     C 1934   4.504   3.725   6.823 -0.2741 -0.4447  0.1264
  756MOL0     C 1935   4.632   3.771   6.750  0.4199  0.7347  0.0966
  756MOL0     C 1936   4.766   3.695   6.780 -0.0637  1.1320  0.3472
  756MOL0     C 1937   4.756   3.538   6.752  0.5351 -0.6232  1.1118
  756MOL0     C 1938   4.883   3.461   6.723  0.2328 -0.1238  0.2448
  756MOL0     C 1939   4.994   3.490   6.825  0.7551 -0.4881 -0.0708
  756MOL0     C 1940   5.131   3.433   6.790  0.2938  0.4868 -0.6189
  756MOL0     C 1941   5.186   3.517   6.673  0.1610  0.3324  0.2020
  756MOL0     N 1942   5.334   3.489   6.675 -0.3533 -0.2983 -0.4165
  756MOL0     C 1943   5.406   3.395   6.606 -0.4670 -0.1109  0.9344
  756MOL0     C 1944   5.539   3.421   6.613  0.3758  0.4983  0.7276
  756MOL0     C 1945   5.642   3.351   6.536  0.0271  0.0104  1.0816
  756MOL0     C 1946   5.646   3.195   6.569  0.2141 -0.0295  0.0931
  756MOL0     C 1947   5.745   3.109   6.484 -0.1194  0.4745  0.1003
  756MOL0     C 1948   5.693   3.070   6.349 -0.3950 -0.4854  0.8416
  756MOL0     O 1949   5.562   3.015   6.360  0.0772  0.2286  0.1059
  756MOL0     C 1950   5.471   3.026   6.255  0.3317  0.2767 -0.2983
  756MOL0     C 1951   5.529   3.037   6.132 -0.3444  1.1244 -0.7386
  756MOL0     C 1952   5.446   3.054   6.018  0.4820  0.4521  0.3041
  756MOL0     C 1953   5.514   3.038   5.882 -0.8785  0.3242  0.5359
  756MOL0     C 1954   5.303   3.058   6.033 -0.1421 -0.3003  0.1561
  756MOL0     C 1955   5.205   3.074   5.918  0.6158 -0.5461  0.7763
  756MOL0     O 1956   5.078   3.089   5.954  0.0516  0.5054 -0.5656
  756MOL0     C 1957   4.994   3.080   5.850  0.3599  0.1133  0.5223
  756MOL0     C 1958   4.962   3.195   5.774  0.1547  0.1210 -0.0262
  756MOL0     C 1959   4.857   3.190   5.680 -0.6097 -0.6752 -0.1235
  756MOL0     C 1960   4.789   3.074   5.650 -0.0951  0.3520  0.1638
  756MOL0     O 1961   4.675   3.082   5.571  0.8077  0.1591  0.5220
  756MOL0     C 1962   4.662   2.978   5.470  0.4052 -0.3239  0.6738
  756MOL0     C 1963   4.532   3.008   5.381 -0.4157 -0.1489  0.1288
  756MOL0     C 1964   4.410   2.996   5.476 -0.3432 -0.6970  0.3885
  756MOL0     C 1965   4.283   3.048   5.403  0.5334 -0.9555  0.5815
  756MOL0     C 1966   4.169   3.031   5.500 -0.5652 -0.2733 -0.8590
  756MOL0     C 1967   4.044   3.104   5.462  0.8948 -0.1349 -0.4631
  756MOL0     C 1968   3.951   3.098   5.586  0.0731 -0.7144  0.1277
  756MOL0     C 1969   3.820   3.170   5.549  0.5102  0.1060  0.0996
  756MOL0    Cl 1970   3.749   3.082   5.417  0.3276  0.0447 -0.0305
  756MOL0     C 1971   4.833   2.952   5.712  0.5109  0.1836  0.6430
  756MOL0     C 1972   4.926   2.964   5.817  0.6407 -0.0709  0.2063
  756MOL0     O 1973   5.243   3.081   5.808  0.2036  0.2536  0.0952
  756MOL0     C 1974   5.252   3.037   6.158 -1.0665  0.6162 -0.2325
  756MOL0     C 1975   5.337   3.025   6.272  0.2202  0.0013 -0.3409
  756MOL0     N 1976   5.548   3.525   6.695 -0.2921  0.9942 -0.4003
  756MOL0     N 1977   5.427   3.575   6.722 -0.3834  0.1654 -0.0834
  756MOL0     C 1978   4.203   3.582   6.712  0.0814 -0.1080 -0.2863
  756MOL0     C 1979   4.070   3.554   6.758  0.4095  0.4120  1.0363
  756MOL0     C 1980   3.701   3.494   7.017  0.2841 -0.3066  0.4866
  756MOL0     C 1981   3.625   3.455   7.132 -0.5249  0.1397 -0.8393
  756MOL0     C 1982   3.495   3.409   7.116 -0.3226 -0.0446 -0.2354
  756MOL0     C 1983   3.446   3.371   6.986 -0.9694 -0.8403 -0.5451
  756MOL0     O 1984   3.321   3.324   6.962 -0.6798 -0.1778 -0.2136
  756MOL0     C 1985   3.223   3.378   7.047 -0.0509  0.2701  0.0006
  756MOL0     C 1986   3.083   3.341   6.996 -1.1172  0.5671  0.5387
  756MOL0     C 1987   2.981   3.436   7.063  0.0347 -0.2925 -0.5082
  756MOL0     C 1988   2.867   3.452   6.964  0.5490 -0.2117 -0.4038
  756MOL0     C 1989   2.785   3.332   6.946  0.7726 -0.0686  0.8348
  756MOL0     C 1990   2.698   3.255   6.939 -0.2309  0.7973 -0.2353
  756MOL0     C 1991   3.524   3.399   6.879 -0.9932 -0.1479 -0.1008
  756MOL0     C 1992   3.644   3.470   6.886  1.1019  0.3357  0.4316
  756MOL0     H 1993   4.109   3.588   7.089 -0.8716 -0.9810 -0.1040
  756MOL0     H 1994   4.326   3.644   7.024 -0.4524 -2.1230  1.7181
  756MOL0     H 1995   4.435   3.809   6.836  0.1450  0.2128 -1.5896
  756MOL0     H 1996   4.534   3.684   6.920  2.2789 -1.2175 -0.9067
  756MOL0     H 1997   4.610   3.770   6.643  0.5162  1.1808  0.0733
  756MOL0     H 1998   4.641   3.877   6.773 -1.6841  1.0920 -0.5375
  756MOL0     H 1999   4.846   3.739   6.720 -1.2160  3.2154  0.2456
  756MOL0     H 2000   4.796   3.710   6.884  0.1341 -0.9790  0.6434
  756MOL0     H 2001   4.701   3.488   6.832  2.1533 -0.2472  2.5240
  756MOL0     H 2002   4.696   3.531   6.660  1.8113  3.7812 -0.2963
  756MOL0     H 2003   4.877   3.352   6.721  0.6238 -0.1421 -0.0672
  756MOL0     H 2004   4.915   3.478   6.619 -0.2787 -0.4522  0.0294
  756MOL0     H 2005   4.998   3.599   6.841  1.3345 -0.8265  2.4947
  756MOL0     H 2006   4.975   3.461   6.929 -0.2582  0.1387 -0.0548
  756MOL0     H 2007   5.195   3.441   6.878 -1.6277 -2.2121  1.1767
  756MOL0     H 2008   5.130   3.326   6.765 -1.2318  0.8562 -2.3810
  756MOL0     H 2009   5.174   3.624   6.690 -1.8921 -0.0672  1.6785
  756MOL0     H 2010   5.140   3.486   6.578  0.5546 -0.8316  0.3753
  756MOL0     H 2011   5.365   3.319   6.540 -0.5746  0.5607  0.2114
  756MOL0     H 2012   5.631   3.356   6.428  2.8420  1.6376  0.7853
  756MOL0     H 2013   5.739   3.399   6.553 -0.4574  0.9031  1.3781
  756MOL0     H 2014   5.545   3.153   6.564  0.3155 -0.2121 -0.4614
  756MOL0     H 2015   5.686   3.202   6.671  0.3207  2.4193 -0.0695
  756MOL0     H 2016   5.775   3.019   6.539 -1.2870  1.5913  2.7079
  756MOL0     H 2017   5.837   3.167   6.475  1.1827 -0.9669  2.8327
  756MOL0     H 2018   5.757   2.998   6.297  0.1063  1.4101 -1.3494
  756MOL0     H 2019   5.693   3.165   6.295  1.8167 -0.8556  0.0903
  756MOL0     H 2020   5.633   3.012   6.116 -0.9116 -0.4268 -2.3474
  756MOL0     H 2021   5.483   3.119   5.816 -1.4823 -1.8618 -2.0830
  756MOL0     H 2022   5.623   3.030   5.892 -1.0530 -1.0901  1.6924
  756MOL0     H 2023   5.491   2.942   5.833 -3.3943 -0.0750  2.3106
  756MOL0     H 2024   5.021   3.285   5.783 -1.7410  1.3353  0.9467
  756MOL0     H 2025   4.836   3.281   5.624  0.9329 -0.4533 -0.3663
  756MOL0     H 2026   4.752   2.974   5.408 -0.3271  0.7344 -0.5072
  756MOL0     H 2027   4.655   2.876   5.510  2.9196 -2.0190 -2.6946
  756MOL0     H 2028   4.531   3.109   5.339  2.5003  1.1768  2.8339
  756MOL0     H 2029   4.531   2.929   5.305 -3.0015 -1.4759  1.4333
  756MOL0     H 2030   4.427   3.045   5.573 -0.9614  2.1901 -0.8790
  756MOL0     H 2031   4.393   2.888   5.489 -2.3192 -0.6582 -1.3131
  756MOL0     H 2032   4.298   3.155   5.388 -3.1199 -0.2962  0.6706
  756MOL0     H 2033   4.266   3.000   5.306  1.5662  2.2283 -1.2903
  756MOL0     H 2034   4.206   3.059   5.599  0.5578  2.6477 -1.9938
  756MOL0     H 2035   4.143   2.925   5.510  1.3362 -0.5919  1.7081
  756MOL0     H 2036   4.064   3.208   5.434 -1.8518 -0.0628 -2.5266
  756MOL0     H 2037   4.007   3.051   5.374  1.5497 -1.2606 -0.0864
  756MOL0     H 2038   3.988   3.154   5.672  3.0443 -1.4384 -0.5673
  756MOL0     H 2039   3.925   2.996   5.615 -1.2093 -0.3376  0.3708
  756MOL0     H 2040   3.832   3.275   5.520 -1.6146  0.6601  1.0766
  756MOL0     H 2041   3.754   3.170   5.636  0.7306 -0.0751  0.2660
  756MOL0     H 2042   4.783   2.856   5.702 -1.2577  1.2043 -0.9739
  756MOL0     H 2043   4.942   2.883   5.887 -0.7890  1.6275  2.6354
  756MOL0     H 2044   5.145   3.018   6.169 -1.1439  1.3524  0.3300
  756MOL0     H 2045   5.297   3.013   6.372 -0.5096  1.0735 -0.4897
  756MOL0     H 2046   4.222   3.593   6.606 -1.0715 -0.4161 -0.5349
  756MOL0     H 2047   3.990   3.539   6.685 -1.1006  2.4846  2.1423
  756MOL0     H 2048   3.668   3.482   7.227 -0.6003 -3.5272  0.3682
  756MOL0     H 2049   3.432   3.408   7.205 -4.2503  1.1376 -2.7367
  756MOL0     H 2050   3.236   3.343   7.150  0.8085  1.8183  0.4481
  756MOL0     H 2051   3.226   3.487   7.052  0.1878  0.2052  1.5020
  756MOL0     H 2052   3.054   3.239   7.024 -0.9552  0.1198 -0.8278
  756MOL0     H 2053   3.090   3.356   6.888  1.3050 -0.1130  0.5298
  756MOL0     H 2054   3.031   3.527   7.098 -0.1977 -1.2650  2.6708
  756MOL0     H 2055   2.947   3.394   7.158 -4.8236  0.1439 -1.8057
  756MOL0     H 2056   2.892   3.498   6.868 -2.5467 -0.4159 -1.3874
  756MOL0     H 2057   2.795   3.525   7.002  2.5201  2.1527 -0.8772
  756MOL0     H 2058   2.625   3.177   6.948 -0.1402  0.9161  2.1902
  756MOL0     H 2059   3.500   3.372   6.776 -0.1096 -1.3144 -0.0245
  756MOL0     H 2060   3.688   3.487   6.789 -1.4351  1.1857 -0.6411
  757MOL0     O 2061   1.249   4.741   9.740 -0.1216  0.0675 -0.1984
  757MOL0     C 2062   1.339   4.810   9.698 -0.3927  0.5064  0.7047
  757MOL0     O 2063   1.327   4.903   9.610 -0.0125 -0.2348  0.0698
  757MOL0     C 2064   1.201   4.952   9.580 -0.1932  0.2674 -0.3217
  757MOL0     C 2065   1.142   4.930   9.459 -0.0666 -0.5147  0.3062
  757MOL0     C 2066   1.019   4.989   9.433  1.0326  0.7246  0.1360
  757MOL0     C 2067   0.935   5.052   9.532 -0.0558  0.4728 -0.0879
  757MOL0     O 2068   0.801   5.077   9.520  0.2951  0.2108 -0.0450
  757MOL0     C 2069   0.751   5.098   9.383 -0.8987  1.3056 -0.4334
  757MOL0     C 2070   0.600   5.112   9.380  0.1599  0.2513  0.0443
  757MOL0     C 2071   0.525   4.988   9.425 -0.5226  0.0484  0.4505
  757MOL0     C 2072   0.373   5.029   9.449 -0.2778 -0.0534  0.0137
  757MOL0     C 2073   0.289   4.907   9.469  0.6493  0.3204  0.0690
  757MOL0     C 2074   0.144   4.926   9.449  0.5144  0.3614 -0.4936
  757MOL0     C 2075   0.083   5.018   9.561 -0.0730  0.0979 -0.0493
  757MOL0     C 2076  -0.064   5.047   9.539  0.3515 -0.2601 -0.2975
  757MOL0     N 2077  -0.127   5.138   9.636  0.0260 -0.4418  0.5299
  757MOL0     C 2078  -0.074   5.262   9.671  0.0794  0.6056 -0.0235
  757MOL0     C 2079  -0.164   5.316   9.752 -0.0127  0.6513 -0.5227
  757MOL0     C 2080  -0.157   5.439   9.837 -0.2216  0.0181  0.1701
  757MOL0     C 2081  -0.186   5.565   9.753 -0.7039  0.6510 -0.7474
  757MOL0     C 2082  -0.212   5.685   9.848 -0.1012  0.2600 -0.1564
  757MOL0     C 2083  -0.238   5.811   9.772 -0.5983 -0.3298  0.9426
  757MOL0     O 2084  -0.359   5.799   9.693 -0.2645 -0.2471 -0.2334
  757MOL0     C 2085  -0.479   5.807   9.754  0.1027 -0.6111 -0.9611
  757MOL0     C 2086  -0.511   5.910   9.847  0.9171 -1.4245  0.8520
  757MOL0     C 2087  -0.634   5.918   9.910 -0.2176  0.6684  0.5264
  757MOL0     C 2088  -0.652   6.030  10.010 -1.1285  0.4234  0.0522
  757MOL0     C 2089  -0.732   5.820   9.880  0.6779  0.4982  0.5046
  757MOL0     C 2090  -0.849   5.805   9.957  0.8932 -0.6701  0.3689
  757MOL0     O 2091  -0.941   5.728   9.898 -0.1878  0.9042  0.1662
  757MOL0     C 2092  -1.064   5.689   9.956  0.3987 -0.1506  0.1934
  757MOL0     C 2093  -1.141   5.613   9.872  0.3114  0.7494 -0.7784
  757MOL0     C 2094  -1.265   5.551   9.910 -0.1130 -0.4917 -0.5553
  757MOL0     C 2095  -1.299   5.560  10.050 -0.5039  0.2718  0.8017
  757MOL0     O 2096  -1.407   5.493  10.106 -0.2127 -1.0457  0.5325
  757MOL0     C 2097  -1.393   5.432  10.235  0.5450 -0.1582  0.2464
  757MOL0     C 2098  -1.492   5.330  10.271 -0.4676  0.7707 -0.6739
  757MOL0     C 2099  -1.640   5.374  10.261  0.1955 -0.1014  0.5323
  757MOL0     C 2100  -1.728   5.272  10.331 -0.0406  1.0587 -0.0582
  757MOL0     C 2101  -1.879   5.307  10.318  0.1804 -0.4186 -0.2783
  757MOL0     C 2102  -1.939   5.437  10.373 -0.4540 -0.6905 -0.2440
  757MOL0     C 2103  -2.091   5.429  10.381  0.2918  0.0016  0.2983
  757MOL0     C 2104  -2.153   5.521  10.484  0.1770 -0.1189 -1.1986
  757MOL0    Cl 2105  -2.084   5.487  10.643  0.2555  0.4280  0.1933
  757MOL0     C 2106  -1.221   5.640  10.133  0.2831 -0.1500  0.0791
  757MOL0     C 2107  -1.102   5.698  10.091 -0.2149 -0.0843  0.0761
  757MOL0     O 2108  -0.864   5.860  10.066 -0.2871 -0.1385 -0.0537
  757MOL0     C 2109  -0.703   5.730   9.779  0.2779 -0.2299 -0.2768
  757MOL0     C 2110  -0.580   5.721   9.723  0.3968  0.2866 -0.4868
  757MOL0     N 2111  -0.274   5.230   9.747 -0.5641 -0.3862 -1.0723
  757MOL0     N 2112  -0.250   5.116   9.683  0.6371  0.3146 -0.2914
  757MOL0     C 2113   0.999   5.080   9.656  0.9201  1.0129 -0.1498
  757MOL0     C 2114   1.130   5.039   9.681 -0.6045  0.5401  0.3358
  757MOL0     C 2115   1.478   4.793   9.755  0.4543 -0.1730  0.6593
  757MOL0     C 2116   1.494   4.724   9.872  0.2723 -1.2761 -1.0372
  757MOL0     C 2117   1.623   4.717   9.932  0.3098  0.4454  0.4318
  757MOL0     C 2118   1.734   4.775   9.873 -0.4708  0.7830  0.4039
  757MOL0     O 2119   1.853   4.772   9.939 -0.0203 -1.1060  0.0075
  757MOL0     C 2120   1.909   4.648   9.991 -0.5384  0.8499  0.6361
  757MOL0     C 2121   2.023   4.622   9.895  0.1099 -0.4225  0.0282
  757MOL0     C 2122   2.106   4.490   9.909  0.0057 -0.6366 -0.2772
  757MOL0     C 2123   2.024   4.356   9.906 -0.5340  0.0794 -1.6655
  757MOL0     C 2124   1.932   4.349   9.791 -0.2063 -0.0323 -0.2242
  757MOL0     C 2125   1.833   4.356   9.720 -0.2661 -0.3569 -0.8289
  757MOL0     C 2126   1.708   4.857   9.762 -0.1415 -0.4083  0.4026
  757MOL0     C 2127   1.586   4.865   9.699 -0.1448 -0.3116  0.0523
  757MOL0     H 2128   1.199   4.875   9.386  0.8019  0.3783  0.2887
  757MOL0     H 2129   0.982   4.971   9.332 -0.9503 -1.9831  1.2286
  757MOL0     H 2130   0.790   5.194   9.348  1.3306  2.1910  3.7254
  757MOL0     H 2131   0.774   5.019   9.311 -0.3683  1.7735 -0.7899
  757MOL0     H 2132   0.567   5.198   9.439 -1.8116  0.8610 -1.8236
  757MOL0     H 2133   0.563   5.134   9.280 -2.1420  1.1750  1.0271
  757MOL0     H 2134   0.532   4.908   9.351  2.1157  0.6901 -0.1034
  757MOL0     H 2135   0.564   4.946   9.518  1.0756  1.7263  0.6039
  757MOL0     H 2136   0.368   5.093   9.537 -0.2712 -2.6084  1.9675
  757MOL0     H 2137   0.328   5.094   9.373 -1.6589  1.3669  1.9317
  757MOL0     H 2138   0.311   4.836   9.390  0.2677 -1.4524  1.4971
  757MOL0     H 2139   0.305   4.858   9.565 -1.2051 -1.6564 -0.5652
  757MOL0     H 2140   0.130   4.975   9.351 -2.2716  0.6362 -0.0319
  757MOL0     H 2141   0.105   4.825   9.454  1.4933  0.0272  2.8478
  757MOL0     H 2142   0.084   4.967   9.657  3.1511 -0.9378 -0.5180
  757MOL0     H 2143   0.144   5.108   9.573 -0.4089  0.2198  0.8425
  757MOL0     H 2144  -0.127   4.960   9.519 -4.8833  3.3253 -1.8108
  757MOL0     H 2145  -0.067   5.089   9.438  3.3300  2.9002  0.7130
  757MOL0     H 2146   0.026   5.293   9.642  0.9729 -1.2221  0.8826
  757MOL0     H 2147  -0.218   5.427   9.926  0.1205  1.7560  0.6821
  757MOL0     H 2148  -0.055   5.442   9.876 -0.6130  2.7853  1.1622
  757MOL0     H 2149  -0.278   5.539   9.699  1.5937 -2.2852 -3.6730
  757MOL0     H 2150  -0.104   5.586   9.683  1.2463  0.2201  1.3083
  757MOL0     H 2151  -0.125   5.692   9.914 -0.9763 -0.0173  1.0794
  757MOL0     H 2152  -0.304   5.659   9.902  0.4762  2.4517  2.0682
  757MOL0     H 2153  -0.150   5.826   9.710 -0.3721  1.7150  1.7004
  757MOL0     H 2154  -0.249   5.894   9.843 -3.0667  0.7818 -0.6041
  757MOL0     H 2155  -0.428   5.980   9.855  0.3723 -0.3012 -2.1382
  757MOL0     H 2156  -0.630   6.002  10.114  2.6556  0.5874 -0.5685
  757MOL0     H 2157  -0.587   6.113   9.983 -2.1369  1.5088  0.8061
  757MOL0     H 2158  -0.744   6.090  10.007 -1.6047 -0.3288 -1.2755
  757MOL0     H 2159  -1.112   5.596   9.769  1.0224  0.2236 -0.4973
  757MOL0     H 2160  -1.336   5.500   9.846  0.4869 -1.3901 -0.5292
  757MOL0     H 2161  -1.290   5.398  10.248  1.4338  2.9001  2.6835
  757MOL0     H 2162  -1.412   5.514  10.306 -0.3481 -0.0247 -0.1438
  757MOL0     H 2163  -1.488   5.240  10.208 -4.2117  0.8631 -1.2812
  757MOL0     H 2164  -1.479   5.299  10.375 -3.5394  1.2137 -0.0604
  757MOL0     H 2165  -1.673   5.378  10.157  0.6782 -3.5079  0.1473
  757MOL0     H 2166  -1.656   5.471  10.309 -0.4600  0.6745 -1.2001
  757MOL0     H 2167  -1.710   5.172  10.291 -0.5973  0.7481  0.4592
  757MOL0     H 2168  -1.697   5.263  10.435 -0.8534  1.3050  0.2118
  757MOL0     H 2169  -1.918   5.223  10.376  0.4988 -0.7097 -0.4783
  757MOL0     H 2170  -1.911   5.295  10.214 -4.4102  1.2472  0.6936
  757MOL0     H 2171  -1.895   5.474  10.467 -0.0966 -0.5571 -0.4592
  757MOL0     H 2172  -1.928   5.512  10.295 -2.8312 -1.9588 -1.9124
  757MOL0     H 2173  -2.125   5.327  10.401 -1.6415  0.0177 -2.3249
  757MOL0     H 2174  -2.132   5.454  10.283  0.4939  2.0244  0.6925
  757MOL0     H 2175  -2.262   5.516  10.491  0.0043  2.3764 -1.1306
  757MOL0     H 2176  -2.130   5.623  10.453  2.2134 -0.7135 -1.8744
  757MOL0     H 2177  -1.250   5.657  10.237 -1.6307 -0.2630 -0.3914
  757MOL0     H 2178  -1.034   5.751  10.158 -1.5958  1.3999  0.3691
  757MOL0     H 2179  -0.770   5.651   9.746  2.2082 -0.8089 -3.1371
  757MOL0     H 2180  -0.561   5.636   9.657 -2.4352 -1.1509  0.3683
  757MOL0     H 2181   0.934   5.125   9.731  1.9840  1.1022  0.7330
  757MOL0     H 2182   1.179   5.059   9.776 -0.9142 -1.0423  0.8548
  757MOL0     H 2183   1.417   4.678   9.933 -0.3879 -1.9298 -2.3274
  757MOL0     H 2184   1.622   4.675  10.032 -2.4775  5.0717  2.6989
  757MOL0     H 2185   1.946   4.677  10.090  1.3733 -0.5199  0.3742
  757MOL0     H 2186   1.827   4.576   9.998 -0.1221  0.2744 -0.3049
  757MOL0     H 2187   2.084   4.713   9.891 -3.0461  1.8294 -2.5360
  757MOL0     H 2188   1.985   4.609   9.793  0.3251 -3.1634  0.2246
  757MOL0     H 2189   2.152   4.502  10.007  1.2083  2.8451 -1.1400
  757MOL0     H 2190   2.184   4.478   9.833 -1.3343  0.3864 -1.8919
  757MOL0     H 2191   1.959   4.344   9.993 -0.4722  2.9307 -1.1124
  757MOL0     H 2192   2.093   4.271   9.908 -0.5085  0.1080  0.0570
  757MOL0     H 2193   1.741   4.361   9.665 -0.3689  0.1483 -0.6204
  757MOL0     H 2194   1.786   4.910   9.710 -1.7555  0.7501 -0.9523
  757MOL0     H 2195   1.581   4.918   9.605 -0.1094  1.1219  0.8302
  758MOL0     O 2196   9.070  10.786   6.975 -0.0856  0.4791 -0.3418
  758MOL0     C 2197   9.120  10.824   6.868 -0.1096  1.5808  0.6839
  758MOL0     O 2198   9.039  10.878   6.761 -0.5891 -0.0930  0.5358
  758MOL0     C 2199   8.912  10.899   6.798 -0.7325  0.0075 -0.3098
  758MOL0     C 2200   8.877  11.017   6.861 -0.7516 -0.4939  0.0580
  758MOL0     C 2201   8.749  11.045   6.891  0.3088  0.8310 -0.1235
  758MOL0     C 2202   8.647  10.950   6.868  0.3438 -0.1249  0.4232
  758MOL0     O 2203   8.524  10.977   6.914  0.7984 -0.5252  0.2677
  758MOL0     C 2204   8.402  10.921   6.862  1.0212 -0.3886 -0.1870
  758MOL0     C 2205   8.268  10.957   6.946 -0.0011  0.1700 -0.5278
  758MOL0     C 2206   8.136  10.880   6.911 -0.2750  0.4332 -0.4471
  758MOL0     C 2207   8.027  10.908   7.025 -0.4001 -0.2427  0.2425
  758MOL0     C 2208   7.888  10.867   6.982 -0.3164 -0.8467  0.2382
  758MOL0     C 2209   7.825  10.966   6.890 -0.4774  1.2198  0.3836
  758MOL0     C 2210   7.680  10.939   6.869 -0.4751  0.2952  0.0467
  758MOL0     C 2211   7.611  11.046   6.775 -0.5097  0.2125  0.3987
  758MOL0     N 2212   7.484  10.981   6.729  0.4524 -0.0502  0.1263
  758MOL0     C 2213   7.473  10.885   6.631 -0.2772 -0.6597 -0.3896
  758MOL0     C 2214   7.336  10.868   6.608 -0.7312  0.6179 -0.7388
  758MOL0     C 2215   7.264  10.790   6.499  0.1795 -0.4485 -0.3270
  758MOL0     C 2216   7.253  10.645   6.537  0.3700 -0.4592  1.3051
  758MOL0     C 2217   7.220  10.563   6.420  0.0961  0.3624 -0.0063
  758MOL0     C 2218   7.181  10.419   6.465 -0.5355  0.5915 -0.0219
  758MOL0     O 2219   7.083  10.362   6.375 -0.6378  0.3203 -1.0582
  758MOL0     C 2220   6.947  10.396   6.392 -0.2952 -1.9707  0.6565
  758MOL0     C 2221   6.851  10.340   6.308 -0.5979 -0.0940 -0.6418
  758MOL0     C 2222   6.715  10.356   6.332 -0.3984  0.5272 -0.5495
  758MOL0     C 2223   6.628  10.277   6.241 -0.3309  0.8529 -0.1026
  758MOL0     C 2224   6.664  10.454   6.420 -0.8309  0.3999 -0.5179
  758MOL0     C 2225   6.518  10.476   6.438  0.0702 -0.3726  0.6125
  758MOL0     O 2226   6.491  10.613   6.455 -0.6195  1.0504 -0.5496
  758MOL0     C 2227   6.368  10.654   6.489 -0.0125  0.3828  0.7467
  758MOL0     C 2228   6.304  10.740   6.397 -0.6850  0.7823 -0.5848
  758MOL0     C 2229   6.184  10.798   6.422 -0.5407  0.1239 -0.7058
  758MOL0     C 2230   6.116  10.773   6.533  0.4045 -0.2567  0.9922
  758MOL0     O 2231   5.999  10.845   6.564  0.2457 -0.0669 -0.8639
  758MOL0     C 2232   5.965  10.859   6.698  0.2086  0.4574 -1.0055
  758MOL0     C 2233   5.925  11.002   6.746 -0.0860  0.4361  0.9745
  758MOL0     C 2234   5.832  11.065   6.638  0.1951 -0.6581  0.5860
  758MOL0     C 2235   5.808  11.211   6.677  0.6373 -0.1702  0.2802
  758MOL0     C 2236   5.668  11.250   6.617  0.0626 -0.1266  0.5165
  758MOL0     C 2237   5.629  11.393   6.664  0.5346  0.4990  0.3212
  758MOL0     C 2238   5.716  11.506   6.620 -0.3701 -0.0509 -0.1241
  758MOL0     C 2239   5.682  11.641   6.676 -0.0038  0.7446  0.3426
  758MOL0    Cl 2240   5.538  11.704   6.582 -0.0640 -0.0947 -0.0104
  758MOL0     C 2241   6.169  10.677   6.611  0.4253  0.4205  0.1542
  758MOL0     C 2242   6.298  10.626   6.599  0.1393 -0.5935 -0.9472
  758MOL0     O 2243   6.429  10.387   6.429 -0.6517 -0.3988  1.2328
  758MOL0     C 2244   6.755  10.522   6.498  0.1379  1.3267 -0.4573
  758MOL0     C 2245   6.893  10.498   6.480 -0.1527 -0.0075  0.2540
  758MOL0     N 2246   7.273  10.948   6.696  0.1815 -0.8952  0.0788
  758MOL0     N 2247   7.360  11.014   6.767  0.6500 -0.1682 -0.3746
  758MOL0     C 2248   8.686  10.819   6.814 -0.0197 -0.6773 -0.3835
  758MOL0     C 2249   8.819  10.807   6.771  0.2274  0.3610  0.1055
  758MOL0     C 2250   9.261  10.791   6.833 -0.2146  0.3182 -0.8653
  758MOL0     C 2251   9.313  10.815   6.710 -0.6578 -0.6589 -0.1261
  758MOL0     C 2252   9.445  10.781   6.677  0.1328 -0.0060 -0.2717
  758MOL0     C 2253   9.534  10.727   6.766  0.6005  1.1689 -0.5638
  758MOL0     O 2254   9.658  10.688   6.736  0.5048 -0.7034  0.0051
  758MOL0     C 2255   9.743  10.773   6.653 -0.0115 -0.8256  0.5540
  758MOL0     C 2256   9.889  10.723   6.672  0.2866 -0.1300  0.3892
  758MOL0     C 2257   9.940  10.614   6.577  0.1171 -0.9177 -0.3040
  758MOL0     C 2258   9.853  10.486   6.585 -0.3410 -0.8176  0.5641
  758MOL0     C 2259   9.886  10.401   6.469  0.0635  1.0485 -0.2015
  758MOL0     C 2260   9.916  10.317   6.382  0.5105 -0.6537 -0.5244
  758MOL0     C 2261   9.483  10.701   6.893 -0.0779  0.6115 -0.4369
  758MOL0     C 2262   9.348  10.729   6.925  0.0621  1.0655  0.2868
  758MOL0     H 2263   8.950  11.096   6.874 -3.0294  2.1340 -1.9994
  758MOL0     H 2264   8.725  11.140   6.938 -3.1502  2.0029 -3.7448
  758MOL0     H 2265   8.383  10.939   6.755 -3.8114 -1.1570  0.3025
  758MOL0     H 2266   8.416  10.813   6.870  0.7865 -0.5851 -1.9693
  758MOL0     H 2267   8.310  10.917   7.039 -0.1960  0.9255 -0.1097
  758MOL0     H 2268   8.244  11.063   6.955 -4.8720 -0.7902  0.6846
  758MOL0     H 2269   8.089  10.908   6.816 -1.2731  0.4568  0.0419
  758MOL0     H 2270   8.152  10.772   6.907 -2.3430  0.0950 -0.5763
  758MOL0     H 2271   8.047  10.868   7.124 -4.1642  0.1992  1.3467
  758MOL0     H 2272   8.015  11.016   7.040  1.2412 -0.1326  0.9025
  758MOL0     H 2273   7.897  10.767   6.940  0.7188 -1.0861  0.9659
  758MOL0     H 2274   7.816  10.863   7.063 -0.0591 -0.0052  0.5257
  758MOL0     H 2275   7.835  11.071   6.919 -0.4429  1.2116  0.4022
  758MOL0     H 2276   7.870  10.938   6.795 -1.8474 -3.2212  0.8379
  758MOL0     H 2277   7.665  10.836   6.835  0.9050 -0.4848  1.6691
  758MOL0     H 2278   7.624  10.949   6.963 -0.1269 -0.1579  0.3063
  758MOL0     H 2279   7.668  11.076   6.686  0.5410  0.9534  1.3030
  758MOL0     H 2280   7.587  11.137   6.831 -0.4931 -1.2005  2.8417
  758MOL0     H 2281   7.551  10.834   6.575  0.3001 -1.6690  1.2604
  758MOL0     H 2282   7.158  10.816   6.490  0.4730  0.5235 -1.2299
  758MOL0     H 2283   7.315  10.801   6.403  1.9809  0.5683  0.6872
  758MOL0     H 2284   7.164  10.644   6.601 -0.5563 -1.8165  0.0609
  758MOL0     H 2285   7.337  10.613   6.599  2.0601  3.0111  1.0735
  758MOL0     H 2286   7.304  10.554   6.350 -2.6774 -0.9423 -3.4571
  758MOL0     H 2287   7.129  10.597   6.369 -1.5512 -3.9368 -0.2855
  758MOL0     H 2288   7.155  10.421   6.571  1.7787 -0.4730  0.6322
  758MOL0     H 2289   7.271  10.356   6.462 -0.9278  0.0446 -0.6254
  758MOL0     H 2290   6.885  10.277   6.226  2.4211 -1.4822  1.4589
  758MOL0     H 2291   6.546  10.346   6.217  1.0817  2.6142 -0.0555
  758MOL0     H 2292   6.670  10.232   6.151  1.0207  2.1272 -0.1432
  758MOL0     H 2293   6.590  10.189   6.294 -0.1731  0.4956 -0.5798
  758MOL0     H 2294   6.360  10.757   6.305  0.9489 -1.1638 -0.0350
  758MOL0     H 2295   6.150  10.865   6.343 -0.4082  0.4784 -0.4623
  758MOL0     H 2296   5.891  10.781   6.717  2.1732 -0.3569  5.4463
  758MOL0     H 2297   6.055  10.841   6.757 -0.4030 -1.2069 -0.5594
  758MOL0     H 2298   5.870  11.013   6.840 -0.9457  1.6512  0.3557
  758MOL0     H 2299   6.018  11.060   6.753 -1.4096  2.5878  2.0332
  758MOL0     H 2300   5.743  11.003   6.635  0.8411 -1.5694 -0.5189
  758MOL0     H 2301   5.874  11.061   6.537  1.2518  0.1378  0.9675
  758MOL0     H 2302   5.807  11.215   6.786  2.7774 -2.5758  0.4824
  758MOL0     H 2303   5.882  11.282   6.640 -1.1761  1.1431 -1.0663
  758MOL0     H 2304   5.591  11.185   6.658 -1.3724  0.8453 -0.4952
  758MOL0     H 2305   5.653  11.248   6.509 -3.8401  2.7900  0.7763
  758MOL0     H 2306   5.532  11.413   6.618  0.5892  1.3240  0.5541
  758MOL0     H 2307   5.618  11.383   6.772  2.0554 -3.0213  0.2799
  758MOL0     H 2308   5.709  11.518   6.512 -1.8880  1.7378  0.1319
  758MOL0     H 2309   5.820  11.488   6.651 -0.6099  0.9983  1.4248
  758MOL0     H 2310   5.767  11.709   6.666  1.0171 -0.7753 -2.0384
  758MOL0     H 2311   5.654  11.642   6.782 -0.4649  0.1999  0.2250
  758MOL0     H 2312   6.109  10.647   6.696  1.2462  0.4703  0.7678
  758MOL0     H 2313   6.337  10.558   6.675  1.3574  0.9840 -0.0973
  758MOL0     H 2314   6.715  10.584   6.577 -1.4662 -3.7865  3.2084
  758MOL0     H 2315   6.950  10.556   6.551  0.9819 -0.0353 -0.6052
  758MOL0     H 2316   8.611  10.741   6.819 -0.0036 -0.8374 -2.1753
  758MOL0     H 2317   8.851  10.708   6.738  2.1456 -1.1292  5.4257
  758MOL0     H 2318   9.252  10.871   6.641 -0.9857  0.3791  0.9702
  758MOL0     H 2319   9.472  10.796   6.573  1.2968 -2.5891 -0.4030
  758MOL0     H 2320   9.698  10.772   6.554  0.2816  0.9740  0.3804
  758MOL0     H 2321   9.742  10.873   6.697  1.0043 -0.1859 -0.8353
  758MOL0     H 2322   9.895  10.689   6.775 -0.4035 -3.6136 -0.5936
  758MOL0     H 2323   9.964  10.803   6.668  1.3592 -1.0259  1.8162
  758MOL0     H 2324  10.040  10.591   6.617 -0.6276  1.6993  3.7318
  758MOL0     H 2325   9.955  10.653   6.476  1.1844  0.9762  0.5289
  758MOL0     H 2326   9.747  10.508   6.578  0.4743  3.4161 -2.2204
  758MOL0     H 2327   9.868  10.421   6.672 -2.1534  0.0529  1.5740
  758MOL0     H 2328   9.942  10.241   6.310 -0.4277  0.2455 -1.8659
  758MOL0     H 2329   9.550  10.656   6.965  3.3878 -0.3393 -3.9405
  758MOL0     H 2330   9.317  10.711   7.027  0.7939 -0.3505  0.2916
  759MOL0     O 2331   7.117   2.784   8.315  0.4421  0.1681  0.0769
  759MOL0     C 2332   7.109   2.740   8.205  0.2823  0.1568  0.2545
  759MOL0     O 2333   6.996   2.723   8.123  0.5592  0.3212 -0.1106
  759MOL0     C 2334   6.874   2.722   8.181  0.8118  0.7359  0.3191
  759MOL0     C 2335   6.769   2.806   8.127 -0.7035 -0.0519 -0.2329
  759MOL0     C 2336   6.642   2.800   8.194 -0.7258  0.5412  0.0730
  759MOL0     C 2337   6.613   2.701   8.292 -0.6464  0.9113  0.5432
  759MOL0     O 2338   6.480   2.689   8.326  0.1236 -0.2042  0.3643
  759MOL0     C 2339   6.425   2.594   8.429  0.0644  0.2152 -1.0326
  759MOL0     C 2340   6.285   2.637   8.487  0.5936  0.3245  0.7818
  759MOL0     C 2341   6.182   2.709   8.389 -0.2116  0.0198 -0.5606
  759MOL0     C 2342   6.037   2.722   8.449  0.6870 -0.6781 -0.2689
  759MOL0     C 2343   5.941   2.774   8.342 -0.6757 -0.5399  0.1414
  759MOL0     C 2344   5.804   2.770   8.409  0.5707  0.0583 -0.1035
  759MOL0     C 2345   5.698   2.823   8.306  1.0624  0.0224 -0.1361
  759MOL0     C 2346   5.558   2.825   8.369 -0.7805 -0.2185 -0.8539
  759MOL0     N 2347   5.557   2.907   8.494  0.1596  0.3420 -0.8336
  759MOL0     C 2348   5.621   3.032   8.512  1.2664 -0.1472 -0.0453
  759MOL0     C 2349   5.604   3.066   8.643 -0.1701 -0.6199  0.5557
  759MOL0     C 2350   5.638   3.197   8.714 -0.1322  0.2437 -0.2710
  759MOL0     C 2351   5.763   3.259   8.656  0.2363  0.3914 -0.6856
  759MOL0     C 2352   5.866   3.310   8.764  0.3161  0.4760 -0.1553
  759MOL0     C 2353   5.812   3.442   8.821 -0.1269 -0.1014 -0.0135
  759MOL0     O 2354   5.674   3.434   8.851 -0.1255 -0.2701  0.3593
  759MOL0     C 2355   5.596   3.550   8.845 -0.1637  0.3912 -0.5486
  759MOL0     C 2356   5.460   3.535   8.837 -0.0366  0.5642  0.0519
  759MOL0     C 2357   5.366   3.635   8.829 -1.1600  0.6558 -2.1285
  759MOL0     C 2358   5.222   3.597   8.794 -0.2546 -0.1889  0.5372
  759MOL0     C 2359   5.413   3.767   8.846  0.3684 -0.3581  0.2371
  759MOL0     C 2360   5.328   3.888   8.843  0.4111 -0.4011 -0.0398
  759MOL0     O 2361   5.211   3.887   8.775 -0.0210 -0.3272  0.0295
  759MOL0     C 2362   5.108   3.973   8.812  0.4487  0.2002  1.0479
  759MOL0     C 2363   5.016   4.009   8.714  0.0125 -0.0567 -0.1607
  759MOL0     C 2364   4.908   4.086   8.743 -0.0840  0.1176 -0.7351
  759MOL0     C 2365   4.885   4.117   8.880  0.1504  1.1208  0.9667
  759MOL0     O 2366   4.763   4.167   8.918 -0.1929 -0.2800 -0.1534
  759MOL0     C 2367   4.719   4.278   8.835 -0.1762  0.5353  0.3106
  759MOL0     C 2368   4.596   4.221   8.757 -0.0736  1.0368 -0.5867
  759MOL0     C 2369   4.540   4.318   8.654 -0.0167  1.0003 -0.2599
  759MOL0     C 2370   4.411   4.379   8.706 -0.0499  0.2004 -0.7431
  759MOL0     C 2371   4.342   4.470   8.608  0.0152  0.7694  0.1728
  759MOL0     C 2372   4.245   4.576   8.665  0.4756 -0.3524  0.4327
  759MOL0     C 2373   4.167   4.656   8.551 -1.4699  0.4646  0.0911
  759MOL0     C 2374   4.065   4.752   8.598  0.2532  1.0030 -0.2305
  759MOL0    Cl 2375   3.968   4.835   8.478 -0.1124  0.0271 -0.3258
  759MOL0     C 2376   4.966   4.072   8.990  0.4432  0.0894  0.8879
  759MOL0     C 2377   5.074   3.995   8.946 -0.0266 -0.2331  0.4707
  759MOL0     O 2378   5.366   3.982   8.910  0.6315  0.2780  0.5470
  759MOL0     C 2379   5.560   3.787   8.863 -0.0124  0.6608  0.2914
  759MOL0     C 2380   5.641   3.681   8.865  0.6437  0.0958 -0.9303
  759MOL0     N 2381   5.530   2.962   8.700  0.9317  0.3143  0.3147
  759MOL0     N 2382   5.513   2.864   8.619 -0.1208  0.0515  0.0755
  759MOL0     C 2383   6.727   2.619   8.336 -0.1405  0.9102  0.1576
  759MOL0     C 2384   6.852   2.636   8.285  0.2514  0.5347  0.2808
  759MOL0     C 2385   7.235   2.709   8.135  0.0863 -0.7480 -0.3286
  759MOL0     C 2386   7.230   2.671   7.999  0.0107  0.5689 -0.3296
  759MOL0     C 2387   7.355   2.655   7.935  0.7279 -0.5668  0.2193
  759MOL0     C 2388   7.481   2.667   8.001  0.1986 -0.5564  0.0535
  759MOL0     O 2389   7.598   2.633   7.923 -0.0241  0.3468  0.2275
  759MOL0     C 2390   7.730   2.643   7.965 -1.0035  0.5162 -0.3034
  759MOL0     C 2391   7.831   2.610   7.852  0.5144 -0.2905 -0.5601
  759MOL0     C 2392   7.976   2.647   7.887  0.3457  0.5745  0.2444
  759MOL0     C 2393   8.077   2.619   7.768  0.2189  0.2033  0.0852
  759MOL0     C 2394   8.218   2.619   7.810 -0.0650  0.1886  0.2026
  759MOL0     C 2395   8.327   2.607   7.862 -0.2236 -0.5223  0.5650
  759MOL0     C 2396   7.483   2.703   8.138  0.2316  0.1450  0.4180
  759MOL0     C 2397   7.358   2.729   8.203  0.6132 -0.3790  0.0642
  759MOL0     H 2398   6.791   2.878   8.049  0.5785 -1.0158 -0.8025
  759MOL0     H 2399   6.562   2.866   8.161 -0.7421  1.2857  1.5539
  759MOL0     H 2400   6.412   2.494   8.387 -1.3243 -2.1579  4.2771
  759MOL0     H 2401   6.488   2.595   8.518 -1.9445  1.2587  0.4683
  759MOL0     H 2402   6.238   2.549   8.531  1.6149 -0.9463 -0.5864
  759MOL0     H 2403   6.310   2.709   8.566 -0.9130  0.6659  0.9811
  759MOL0     H 2404   6.207   2.812   8.365  0.4173  1.1442  4.0082
  759MOL0     H 2405   6.182   2.647   8.299 -2.8044  0.6286 -1.0539
  759MOL0     H 2406   6.016   2.621   8.486 -0.6083 -0.1668  0.4506
  759MOL0     H 2407   6.027   2.796   8.529 -0.1867  0.0529 -1.0363
  759MOL0     H 2408   5.973   2.877   8.319  0.6540 -1.3154 -1.7661
  759MOL0     H 2409   5.943   2.710   8.253 -2.3894 -2.2348  1.2622
  759MOL0     H 2410   5.775   2.669   8.441  0.7624  0.0008 -0.1105
  759MOL0     H 2411   5.815   2.827   8.501 -0.4407  1.3027 -0.7233
  759MOL0     H 2412   5.718   2.923   8.268  0.7853 -0.2226 -0.9300
  759MOL0     H 2413   5.696   2.761   8.216  2.9497 -1.9700  1.0805
  759MOL0     H 2414   5.529   2.723   8.396 -2.3011  0.4534  0.2155
  759MOL0     H 2415   5.488   2.863   8.294  0.6841  0.9046 -1.7156
  759MOL0     H 2416   5.668   3.092   8.434  0.3274 -0.2083 -0.6750
  759MOL0     H 2417   5.564   3.275   8.695  2.2517  2.4443 -1.0814
  759MOL0     H 2418   5.641   3.190   8.823  1.3693  1.5402 -0.1971
  759MOL0     H 2419   5.747   3.336   8.580 -0.4978  0.7405 -0.1876
  759MOL0     H 2420   5.820   3.184   8.600 -0.0648 -2.1048  2.1243
  759MOL0     H 2421   5.964   3.336   8.726 -0.3108  1.8618 -0.8874
  759MOL0     H 2422   5.870   3.234   8.843  3.9067 -0.5317 -1.1435
  759MOL0     H 2423   5.827   3.525   8.751  2.5786 -0.9080 -0.5252
  759MOL0     H 2424   5.876   3.465   8.907  1.4053 -0.9167 -0.8785
  759MOL0     H 2425   5.430   3.430   8.834  1.6662 -0.0921  2.6710
  759MOL0     H 2426   5.193   3.647   8.701  2.5424  0.0944 -0.2794
  759MOL0     H 2427   5.232   3.489   8.786 -0.0188 -0.0750 -0.8766
  759MOL0     H 2428   5.156   3.618   8.879 -1.3090 -2.6172  0.3927
  759MOL0     H 2429   5.048   3.984   8.613  3.1861  1.4261  0.3380
  759MOL0     H 2430   4.828   4.102   8.672  0.5773  2.4212 -1.0272
  759MOL0     H 2431   4.695   4.364   8.898 -1.2258  0.6476 -0.2145
  759MOL0     H 2432   4.788   4.312   8.757  2.9307 -0.9989  2.1825
  759MOL0     H 2433   4.627   4.123   8.720 -2.4548  0.0192 -0.0577
  759MOL0     H 2434   4.519   4.189   8.829  1.0444 -3.4681 -1.0862
  759MOL0     H 2435   4.527   4.257   8.564 -3.3423 -0.2561  0.9065
  759MOL0     H 2436   4.607   4.401   8.631 -0.7238  1.4387 -0.7595
  759MOL0     H 2437   4.344   4.297   8.736  0.9296  0.1848  1.6490
  759MOL0     H 2438   4.422   4.440   8.796 -0.1472  0.1857 -0.7212
  759MOL0     H 2439   4.276   4.403   8.552 -0.0064 -1.5799  2.7703
  759MOL0     H 2440   4.414   4.515   8.539  1.3497  0.8401  1.5634
  759MOL0     H 2441   4.168   4.526   8.724 -1.1351  1.9156  0.3610
  759MOL0     H 2442   4.296   4.651   8.726 -3.4494  3.7958 -0.8275
  759MOL0     H 2443   4.109   4.580   8.499  1.4429 -1.3352 -0.7719
  759MOL0     H 2444   4.255   4.691   8.496  2.4155 -4.2163  2.5110
  759MOL0     H 2445   4.119   4.829   8.654  2.0558  0.4533 -1.1153
  759MOL0     H 2446   4.000   4.693   8.663  2.8329  0.0154  1.6656
  759MOL0     H 2447   4.937   4.059   9.093  1.7537 -0.6910  1.1824
  759MOL0     H 2448   5.133   3.947   9.024 -2.2348 -2.5927  0.8067
  759MOL0     H 2449   5.606   3.886   8.863 -0.4147  0.8741  1.9927
  759MOL0     H 2450   5.747   3.680   8.888  0.7122 -0.6050 -1.2528
  759MOL0     H 2451   6.716   2.544   8.413  2.2900 -0.1717 -0.4414
  759MOL0     H 2452   6.932   2.572   8.319 -0.5090  0.1110  1.3482
  759MOL0     H 2453   7.137   2.665   7.943  0.4140  0.1704 -0.9709
  759MOL0     H 2454   7.369   2.618   7.834  1.5342 -2.9371  1.1181
  759MOL0     H 2455   7.743   2.745   8.002 -0.5783  0.3372  0.0386
  759MOL0     H 2456   7.750   2.574   8.047  0.9477  1.6218  0.2049
  759MOL0     H 2457   7.800   2.664   7.762 -1.6371  1.6992  1.2600
  759MOL0     H 2458   7.832   2.503   7.828  0.5244 -0.1542 -1.1729
  759MOL0     H 2459   8.003   2.584   7.972 -0.7724  3.2458  2.7374
  759MOL0     H 2460   7.970   2.754   7.909 -1.1529  0.7269 -0.7441
  759MOL0     H 2461   8.063   2.695   7.690  1.5280  0.6982  0.3119
  759MOL0     H 2462   8.063   2.516   7.736  1.5979 -1.0353  3.1159
  759MOL0     H 2463   8.416   2.618   7.920 -0.9690  0.2938  1.5802
  759MOL0     H 2464   7.575   2.726   8.191  0.5203  1.4909 -0.6130
  759MOL0     H 2465   7.374   2.763   8.305 -0.3799  1.2253 -0.2657
  760MOL0     O 2466   4.898   5.343   9.759 -0.1274  0.8100  0.0978
  760MOL0     C 2467   5.007   5.355   9.809 -1.0372  0.3573 -1.1640
  760MOL0     O 2468   5.125   5.396   9.751 -0.1253 -0.1032 -0.4759
  760MOL0     C 2469   5.128   5.420   9.620  0.4600 -0.0647 -0.0670
  760MOL0     C 2470   5.184   5.547   9.579 -0.2759 -0.2261 -0.4363
  760MOL0     C 2471   5.181   5.578   9.440 -0.8238 -0.1865 -1.2167
  760MOL0     C 2472   5.126   5.505   9.338  0.2636  0.0766  0.2651
  760MOL0     O 2473   5.141   5.544   9.203 -0.0987  0.1312 -0.1439
  760MOL0     C 2474   5.193   5.436   9.120 -0.4309 -0.4734 -0.7251
  760MOL0     C 2475   5.260   5.489   8.992  0.3210  0.7077 -0.1834
  760MOL0     C 2476   5.162   5.530   8.895 -0.0401  0.0179  0.3644
  760MOL0     C 2477   5.227   5.568   8.767  1.0804  0.6425 -0.4056
  760MOL0     C 2478   5.135   5.644   8.671 -0.4129 -0.3463 -0.0782
  760MOL0     C 2479   5.011   5.570   8.633 -0.9712 -0.0374  0.6609
  760MOL0     C 2480   4.918   5.669   8.555  0.4150 -0.6039  0.1428
  760MOL0     C 2481   4.807   5.748   8.628 -0.9500  0.0894 -0.1247
  760MOL0     N 2482   4.715   5.795   8.524 -0.1398 -0.5300  0.1199
  760MOL0     C 2483   4.582   5.751   8.514 -0.0907 -0.0167  0.1568
  760MOL0     C 2484   4.551   5.799   8.394 -1.5872 -0.9595 -0.3994
  760MOL0     C 2485   4.412   5.789   8.335 -0.4883 -0.3831  1.1663
  760MOL0     C 2486   4.295   5.868   8.404 -0.4931  0.6830 -0.4770
  760MOL0     C 2487   4.156   5.815   8.371  0.0708 -0.3564 -0.6453
  760MOL0     C 2488   4.129   5.810   8.228  0.4971 -0.2856  0.2460
  760MOL0     O 2489   3.992   5.783   8.209 -0.6736  0.1897  0.7641
  760MOL0     C 2490   3.898   5.883   8.186 -0.2620  0.1890  0.3523
  760MOL0     C 2491   3.920   6.017   8.229 -0.6613 -0.0027  0.9833
  760MOL0     C 2492   3.826   6.117   8.197  0.1095  0.6384  0.1901
  760MOL0     C 2493   3.862   6.267   8.231  0.3132  0.4272 -1.2012
  760MOL0     C 2494   3.705   6.076   8.141 -0.0441  0.2502 -1.0694
  760MOL0     C 2495   3.590   6.174   8.119  0.5797  0.2241 -0.2100
  760MOL0     O 2496   3.608   6.316   8.123 -0.1683  0.8136  0.1052
  760MOL0     C 2497   3.514   6.395   8.052  0.3164  0.5601 -0.1223
  760MOL0     C 2498   3.534   6.448   7.924  0.2204  0.0397 -0.4112
  760MOL0     C 2499   3.437   6.520   7.853 -0.4952  0.5458 -0.5887
  760MOL0     C 2500   3.307   6.513   7.901 -0.2201  0.0140 -0.0747
  760MOL0     O 2501   3.198   6.566   7.832  0.1105  0.3020  0.7519
  760MOL0     C 2502   3.212   6.594   7.697  0.2518 -0.3888 -0.1153
  760MOL0     C 2503   3.076   6.586   7.635 -0.2690  0.4032  0.4297
  760MOL0     C 2504   2.991   6.697   7.678  0.4598 -0.1705  0.7746
  760MOL0     C 2505   2.864   6.706   7.581 -0.1851  0.1742  0.5248
  760MOL0     C 2506   2.760   6.790   7.658  0.3526 -0.8123 -0.9313
  760MOL0     C 2507   2.642   6.812   7.575  0.1667  0.6303  1.0437
  760MOL0     C 2508   2.571   6.937   7.610  0.0173 -0.0613 -0.3869
  760MOL0     C 2509   2.453   6.968   7.515 -0.1808 -0.2562 -0.1719
  760MOL0    Cl 2510   2.328   6.837   7.530 -0.3872  0.0139  0.3583
  760MOL0     C 2511   3.283   6.455   8.025 -0.4936 -0.8432  0.2510
  760MOL0     C 2512   3.382   6.399   8.102  0.1621  0.4835  0.1503
  760MOL0     O 2513   3.478   6.123   8.118 -0.1778 -0.3724  0.9630
  760MOL0     C 2514   3.677   5.942   8.120 -0.7048  1.1764 -0.3628
  760MOL0     C 2515   3.779   5.841   8.142  0.4899 -0.1513  0.0959
  760MOL0     N 2516   4.660   5.875   8.343 -0.0937  0.5080  0.6445
  760MOL0     N 2517   4.761   5.862   8.412 -0.5827  0.0469 -0.3925
  760MOL0     C 2518   5.061   5.387   9.378 -0.3772  0.2190  0.7299
  760MOL0     C 2519   5.068   5.341   9.515  0.1283  0.3172  0.2425
  760MOL0     C 2520   5.013   5.350   9.961  0.9756 -0.2065 -0.7188
  760MOL0     C 2521   5.123   5.359  10.034 -0.8851 -0.0873  0.4837
  760MOL0     C 2522   5.122   5.371  10.176 -0.5625 -0.0778  0.5439
  760MOL0     C 2523   5.003   5.352  10.248  0.3693 -0.4976  0.7767
  760MOL0     O 2524   4.976   5.360  10.381  0.2187 -0.0293  0.1103
  760MOL0     C 2525   5.074   5.402  10.465  0.6030  0.9648 -0.5807
  760MOL0     C 2526   5.052   5.340  10.599 -0.6420  0.7813  0.1256
  760MOL0     C 2527   5.149   5.400  10.702 -0.5889  0.6378 -0.6353
  760MOL0     C 2528   5.118   5.548  10.740 -0.0052  0.3261  1.0142
  760MOL0     C 2529   5.146   5.580  10.884  0.7993 -0.6726  0.6685
  760MOL0     C 2530   5.164   5.622  10.992  0.2498 -0.2106 -0.2356
  760MOL0     C 2531   4.892   5.333  10.170  0.0381 -1.1198  0.9056
  760MOL0     C 2532   4.894   5.337  10.028 -0.1525  0.3252 -0.6633
  760MOL0     H 2533   5.227   5.622   9.645 -0.7803 -0.7252  0.4750
  760MOL0     H 2534   5.220   5.678   9.427  0.3978 -0.2761  1.2446
  760MOL0     H 2535   5.270   5.386   9.179  0.2057  0.0198 -1.1118
  760MOL0     H 2536   5.116   5.362   9.098  2.2375 -4.1361  1.1627
  760MOL0     H 2537   5.326   5.572   9.020 -0.7209  0.7730  2.3395
  760MOL0     H 2538   5.316   5.406   8.948  0.5112  0.0219  1.2836
  760MOL0     H 2539   5.099   5.446   8.865 -0.2518  0.4030 -0.3138
  760MOL0     H 2540   5.108   5.615   8.938  0.3128  0.6803 -0.4729
  760MOL0     H 2541   5.318   5.625   8.790  1.5303  0.3699 -1.4404
  760MOL0     H 2542   5.271   5.480   8.720  2.9340  1.4054 -0.1760
  760MOL0     H 2543   5.105   5.728   8.734 -1.6573 -1.9279  1.5390
  760MOL0     H 2544   5.193   5.664   8.580 -0.0733  4.9864  0.9594
  760MOL0     H 2545   5.050   5.484   8.578  2.4727  0.8658  1.4574
  760MOL0     H 2546   4.963   5.536   8.725  0.5167  0.3135  1.6044
  760MOL0     H 2547   4.975   5.740   8.495 -1.2755  2.9904  2.4589
  760MOL0     H 2548   4.857   5.611   8.485 -2.1721  0.9307  0.9924
  760MOL0     H 2549   4.865   5.824   8.681 -0.8671  1.1086 -1.6050
  760MOL0     H 2550   4.744   5.695   8.699 -2.0588  0.0340 -1.1089
  760MOL0     H 2551   4.518   5.683   8.569 -0.8564 -1.6651 -2.6077
  760MOL0     H 2552   4.411   5.814   8.228 -1.8402 -2.5493  0.6167
  760MOL0     H 2553   4.390   5.682   8.334  1.2150 -0.7681  0.3576
  760MOL0     H 2554   4.300   5.974   8.378  1.0231  1.0744  1.2158
  760MOL0     H 2555   4.309   5.860   8.512  1.0118 -1.7739 -0.7757
  760MOL0     H 2556   4.081   5.882   8.415  0.3603 -1.0595  0.9920
  760MOL0     H 2557   4.135   5.718   8.416 -3.3942  0.6820  0.2864
  760MOL0     H 2558   4.192   5.728   8.193  0.0441 -0.0935 -1.0392
  760MOL0     H 2559   4.167   5.904   8.187  0.8336  1.0724  3.3706
  760MOL0     H 2560   4.011   6.038   8.284  0.7757 -4.1710  0.5323
  760MOL0     H 2561   3.967   6.270   8.261 -0.0409  1.4913  0.0405
  760MOL0     H 2562   3.847   6.319   8.136 -0.2645 -2.5925 -2.8967
  760MOL0     H 2563   3.801   6.312   8.310  2.6933  3.5385 -0.9459
  760MOL0     H 2564   3.635   6.442   7.885  0.5390 -1.1006  0.5389
  760MOL0     H 2565   3.459   6.567   7.758 -0.1002 -0.8759 -1.2201
  760MOL0     H 2566   3.266   6.688   7.686  1.2083 -0.5730  2.3302
  760MOL0     H 2567   3.270   6.513   7.653  0.9865  0.3193 -0.4512
  760MOL0     H 2568   3.102   6.602   7.530  1.7449  0.3111  0.8649
  760MOL0     H 2569   3.024   6.492   7.651  0.2845  0.0759  0.3312
  760MOL0     H 2570   3.040   6.792   7.699  4.3569 -2.1423  1.5708
  760MOL0     H 2571   2.945   6.663   7.772  3.2411 -4.2644  0.9290
  760MOL0     H 2572   2.896   6.763   7.493  0.9714  0.8936  1.3890
  760MOL0     H 2573   2.832   6.605   7.554  1.1556 -0.3780  0.9088
  760MOL0     H 2574   2.801   6.886   7.689 -0.5768 -0.3690 -1.0101
  760MOL0     H 2575   2.731   6.743   7.752  1.2619 -1.6235 -1.0429
  760MOL0     H 2576   2.696   6.836   7.483 -0.1866 -2.4574 -0.0632
  760MOL0     H 2577   2.577   6.725   7.566 -0.3934  1.0407  1.0449
  760MOL0     H 2578   2.638   7.023   7.597 -1.7412  0.9726 -4.2111
  760MOL0     H 2579   2.532   6.926   7.711 -0.1104 -1.5034 -0.5798
  760MOL0     H 2580   2.489   6.958   7.412  3.0741 -2.3108  1.0090
  760MOL0     H 2581   2.400   7.062   7.529 -0.5878 -0.4750 -0.2281
  760MOL0     H 2582   3.181   6.465   8.061 -0.1105  2.4220  0.6899
  760MOL0     H 2583   3.349   6.350   8.194 -0.2363  0.3335 -0.0687
  760MOL0     H 2584   3.584   5.910   8.074  1.5870 -2.4785 -2.9373
  760MOL0     H 2585   3.761   5.736   8.122 -1.6438 -0.3278  2.3767
  760MOL0     H 2586   5.014   5.334   9.296 -0.7178  2.5951 -0.7054
  760MOL0     H 2587   5.018   5.254   9.555 -1.9239  1.8042  1.0636
  760MOL0     H 2588   5.217   5.371   9.983 -1.9157 -0.8604 -1.7065
  760MOL0     H 2589   5.222   5.386  10.215  1.4721 -3.7197 -2.6068
  760MOL0     H 2590   5.171   5.364  10.433  0.7188 -0.2938  1.1333
  760MOL0     H 2591   5.071   5.510  10.479 -0.7228  1.0796 -1.5587
  760MOL0     H 2592   5.078   5.235  10.586 -1.9481  0.7237 -2.8648
  760MOL0     H 2593   4.947   5.350  10.629 -1.0053 -1.2639 -0.3715
  760MOL0     H 2594   5.253   5.398  10.669  0.0300  0.6376  1.2454
  760MOL0     H 2595   5.145   5.346  10.797  0.5841  2.2738  0.3762
  760MOL0     H 2596   5.010   5.565  10.734 -0.3651 -1.1967  2.4026
  760MOL0     H 2597   5.170   5.615  10.670 -2.7387 -1.2356 -2.9040
  760MOL0     H 2598   5.181   5.658  11.092  2.0061  0.5794 -0.7753
  760MOL0     H 2599   4.795   5.326  10.219  0.3498 -0.5107  1.6323
  760MOL0     H 2600   4.797   5.333   9.980  0.0505 -1.1784 -0.9879
  761MOL0     O 2601   3.917   5.231   6.893  0.0265  0.2247 -0.1062
  761MOL0     C 2602   4.018   5.282   6.853 -0.5882 -0.6458 -0.5066
  761MOL0     O 2603   4.037   5.354   6.739 -0.6324 -0.3255 -0.5297
  761MOL0     C 2604   3.919   5.389   6.666 -0.1291 -0.0547  0.0095
  761MOL0     C 2605   3.905   5.331   6.541 -0.8849 -0.2704 -0.4474
  761MOL0     C 2606   3.793   5.356   6.463  0.2367 -0.0166 -0.9109
  761MOL0     C 2607   3.707   5.460   6.508  0.6977 -0.0490 -0.0807
  761MOL0     O 2608   3.596   5.503   6.434  0.0034  0.7922 -0.9518
  761MOL0     C 2609   3.631   5.545   6.298  0.4381 -0.0555 -0.6360
  761MOL0     C 2610   3.505   5.583   6.222  0.0611  0.1728 -0.3412
  761MOL0     C 2611   3.542   5.612   6.080  0.1089 -0.9254  0.1730
  761MOL0     C 2612   3.415   5.633   6.002  0.3434  0.4277 -0.1747
  761MOL0     C 2613   3.439   5.615   5.851  0.3780 -0.0763  1.1872
  761MOL0     C 2614   3.304   5.618   5.767  0.0616  0.0670  0.3392
  761MOL0     C 2615   3.207   5.734   5.804 -0.2311  0.3326  0.1599
  761MOL0     C 2616   3.080   5.744   5.722  0.0354  0.5467  0.3790
  761MOL0     N 2617   3.118   5.775   5.586 -0.0239 -0.0290 -0.6413
  761MOL0     C 2618   3.023   5.771   5.489 -0.0974  0.5853  0.1964
  761MOL0     C 2619   3.060   5.849   5.382  0.1638 -1.1873  0.1650
  761MOL0     C 2620   2.991   5.863   5.249  0.3578 -0.0509 -0.4083
  761MOL0     C 2621   2.926   6.010   5.256 -0.6651 -0.4293  0.5952
  761MOL0     C 2622   2.905   6.079   5.125 -0.8162  0.0636 -0.6398
  761MOL0     C 2623   2.849   6.215   5.156 -0.4459  0.6312  0.2727
  761MOL0     O 2624   2.731   6.212   5.232  0.4777  0.1046  0.5240
  761MOL0     C 2625   2.620   6.177   5.160 -0.0676 -0.4547  0.4899
  761MOL0     C 2626   2.515   6.151   5.253 -0.3777  0.4675  0.1480
  761MOL0     C 2627   2.386   6.128   5.196  0.0093  0.0850  0.7663
  761MOL0     C 2628   2.280   6.117   5.300 -0.2765  1.2892  0.0070
  761MOL0     C 2629   2.368   6.114   5.062 -0.1521 -0.1069  0.2319
  761MOL0     C 2630   2.230   6.104   5.002  0.6696  0.0310 -0.9973
  761MOL0     O 2631   2.216   6.023   4.899 -0.1422  0.5058  0.3897
  761MOL0     C 2632   2.101   6.039   4.828  0.0317  0.0199 -0.3896
  761MOL0     C 2633   1.977   5.994   4.871 -0.2150 -0.4193 -0.0000
  761MOL0     C 2634   1.868   5.994   4.783  0.0436 -0.2596 -0.6844
  761MOL0     C 2635   1.886   6.047   4.658  0.3092 -0.5363  0.2234
  761MOL0     O 2636   1.788   6.053   4.569 -0.1744  0.4652  0.2165
  761MOL0     C 2637   1.647   6.030   4.603 -0.5380  0.6522 -0.0166
  761MOL0     C 2638   1.556   6.063   4.487  0.6397 -0.0878 -0.6486
  761MOL0     C 2639   1.551   5.965   4.374 -0.1445  0.2189  0.2903
  761MOL0     C 2640   1.485   6.027   4.252 -0.6157 -0.1500  0.0260
  761MOL0     C 2641   1.501   5.953   4.121 -0.4975 -0.4684  0.9056
  761MOL0     C 2642   1.438   6.034   4.003 -0.1626 -0.5055  0.0858
  761MOL0     C 2643   1.440   5.959   3.867  1.2846  0.7382  0.0517
  761MOL0     C 2644   1.373   6.042   3.757  0.0261  0.8393 -1.3151
  761MOL0    Cl 2645   1.366   5.943   3.604 -0.0682 -0.1440  0.0288
  761MOL0     C 2646   2.011   6.096   4.608 -0.0541  1.3961  0.1500
  761MOL0     C 2647   2.122   6.084   4.698 -0.2192  0.6587  0.3964
  761MOL0     O 2648   2.143   6.175   5.055  0.7603  0.6076  0.4427
  761MOL0     C 2649   2.474   6.131   4.974 -0.1961 -0.0233  0.5646
  761MOL0     C 2650   2.601   6.153   5.022  0.0726 -0.4134 -0.7289
  761MOL0     N 2651   3.186   5.894   5.422  0.9340 -0.5351  0.3360
  761MOL0     N 2652   3.212   5.852   5.535 -0.0663 -0.2043 -0.2287
  761MOL0     C 2653   3.725   5.523   6.628 -0.3597  1.2759  0.0544
  761MOL0     C 2654   3.828   5.480   6.715  0.2008  0.5758  0.4002
  761MOL0     C 2655   4.139   5.260   6.945  0.7389 -0.3702 -0.3472
  761MOL0     C 2656   4.275   5.294   6.906  0.2294  0.2376 -0.6117
  761MOL0     C 2657   4.385   5.270   7.000 -0.2349 -0.5310  0.7903
  761MOL0     C 2658   4.365   5.213   7.121  0.2551 -0.3217 -0.2306
  761MOL0     O 2659   4.462   5.183   7.212 -0.4093  0.1091 -0.0876
  761MOL0     C 2660   4.512   5.303   7.280 -0.8262 -0.8105 -0.1445
  761MOL0     C 2661   4.572   5.254   7.411  0.4312  0.6652 -0.4122
  761MOL0     C 2662   4.658   5.363   7.490 -0.1475  0.5440  0.8513
  761MOL0     C 2663   4.581   5.458   7.583 -0.5998 -0.2886  0.0877
  761MOL0     C 2664   4.516   5.572   7.510  0.1724  1.2748 -0.0742
  761MOL0     C 2665   4.473   5.658   7.435 -0.6281 -0.2239  0.2919
  761MOL0     C 2666   4.232   5.187   7.167  0.2086  0.0162  0.5196
  761MOL0     C 2667   4.123   5.214   7.076  0.1518  0.1381 -0.5666
  761MOL0     H 2668   3.981   5.262   6.507 -0.9997 -0.1498 -0.9561
  761MOL0     H 2669   3.771   5.308   6.369  3.6919 -0.4730 -1.6078
  761MOL0     H 2670   3.688   5.638   6.304 -1.7097  1.3084  0.1096
  761MOL0     H 2671   3.678   5.462   6.246 -0.3676 -1.6445  1.0613
  761MOL0     H 2672   3.432   5.503   6.233  1.2457 -0.9479 -0.4082
  761MOL0     H 2673   3.461   5.665   6.279  0.2451 -0.9071  1.4322
  761MOL0     H 2674   3.606   5.700   6.068 -1.1056  0.4280  2.7163
  761MOL0     H 2675   3.589   5.526   6.033  0.9125 -0.7148  0.5618
  761MOL0     H 2676   3.337   5.566   6.041 -2.9045  4.1859  0.4023
  761MOL0     H 2677   3.369   5.732   6.005 -3.5881 -1.1852 -0.0187
  761MOL0     H 2678   3.497   5.704   5.825  0.7517 -0.2025  1.5764
  761MOL0     H 2679   3.493   5.525   5.820 -0.8473  0.0274 -1.5264
  761MOL0     H 2680   3.323   5.626   5.660 -0.8235 -4.3596 -0.3652
  761MOL0     H 2681   3.257   5.521   5.788 -0.4012  0.5269  1.5246
  761MOL0     H 2682   3.159   5.728   5.902 -0.9899 -3.2464 -0.2892
  761MOL0     H 2683   3.255   5.832   5.800 -3.4026  2.2384  3.1205
  761MOL0     H 2684   3.026   5.831   5.762 -2.4802 -0.5211 -0.5040
  761MOL0     H 2685   3.016   5.656   5.729  0.4857  0.1419 -0.4210
  761MOL0     H 2686   2.926   5.722   5.487  0.1546  0.0321 -2.4565
  761MOL0     H 2687   3.065   5.855   5.169 -1.6088 -0.4069 -2.2985
  761MOL0     H 2688   2.912   5.788   5.239 -1.9969  1.9461  1.8428
  761MOL0     H 2689   3.000   6.072   5.307 -0.0396  2.0275 -2.9238
  761MOL0     H 2690   2.826   5.995   5.298 -0.8618 -4.6747 -0.9058
  761MOL0     H 2691   2.831   6.031   5.060  0.3234 -0.6012 -1.4770
  761MOL0     H 2692   2.999   6.086   5.069 -1.0169  1.1164 -0.8715
  761MOL0     H 2693   2.833   6.266   5.060  0.7751  1.1630  0.3408
  761MOL0     H 2694   2.926   6.271   5.209 -3.3161  4.1849  1.1611
  761MOL0     H 2695   2.530   6.156   5.360 -2.6800  1.1003  0.4995
  761MOL0     H 2696   2.207   6.037   5.285  0.3807  0.4785  1.0532
  761MOL0     H 2697   2.333   6.099   5.393  0.3854  0.1633 -0.5699
  761MOL0     H 2698   2.222   6.208   5.320  0.6111  1.5798  1.3840
  761MOL0     H 2699   1.968   5.966   4.975 -2.6951  0.8097  0.1953
  761MOL0     H 2700   1.770   5.968   4.824 -1.3305  1.0552 -2.9412
  761MOL0     H 2701   1.633   5.930   4.644  2.1624 -0.2596 -1.0703
  761MOL0     H 2702   1.623   6.099   4.685 -0.2968  1.6325 -0.7467
  761MOL0     H 2703   1.452   6.076   4.519 -0.1843 -0.2951 -3.0461
  761MOL0     H 2704   1.598   6.161   4.462 -0.9461  1.2852  1.6843
  761MOL0     H 2705   1.493   5.880   4.410 -0.9529  0.2495 -0.8739
  761MOL0     H 2706   1.653   5.933   4.348 -0.6581 -1.0305 -0.2923
  761MOL0     H 2707   1.379   6.024   4.281 -0.9103  0.4065 -0.9787
  761MOL0     H 2708   1.522   6.127   4.229 -0.9442 -0.7131 -3.4108
  761MOL0     H 2709   1.453   5.855   4.131 -0.7388 -0.2031  2.5945
  761MOL0     H 2710   1.609   5.946   4.102 -0.4074 -1.1574  1.6272
  761MOL0     H 2711   1.334   6.045   4.035 -0.1484 -2.3636  0.9458
  761MOL0     H 2712   1.495   6.127   4.001  0.5422 -0.9222 -2.1415
  761MOL0     H 2713   1.383   5.866   3.870 -2.0509  2.6343  0.5088
  761MOL0     H 2714   1.547   5.938   3.855  0.8504 -0.4409 -2.4700
  761MOL0     H 2715   1.427   6.136   3.752 -2.1556  2.1957 -0.8261
  761MOL0     H 2716   1.275   6.063   3.802 -0.3986 -1.2452 -1.1380
  761MOL0     H 2717   2.025   6.134   4.507  2.7146 -0.2286 -0.1935
  761MOL0     H 2718   2.223   6.104   4.665  0.1468  0.3377  1.3030
  761MOL0     H 2719   2.465   6.121   4.866 -1.1190 -0.8995  0.7111
  761MOL0     H 2720   2.691   6.172   4.965  1.5193  0.2240  1.6077
  761MOL0     H 2721   3.651   5.591   6.669 -1.5556  0.0830 -0.0402
  761MOL0     H 2722   3.844   5.518   6.815 -0.1149 -0.9127  1.0472
  761MOL0     H 2723   4.297   5.346   6.814  0.9353 -0.4395 -0.8320
  761MOL0     H 2724   4.489   5.295   6.983 -1.1146  3.6974  0.7315
  761MOL0     H 2725   4.575   5.359   7.210 -1.2729  0.1568  0.2071
  761MOL0     H 2726   4.434   5.377   7.301  0.5003  1.0490 -1.4324
  761MOL0     H 2727   4.637   5.167   7.394  0.6138  0.8339 -0.5782
  761MOL0     H 2728   4.483   5.225   7.467  0.3694  2.2808  0.3870
  761MOL0     H 2729   4.722   5.410   7.414 -0.7430 -1.8309 -1.2467
  761MOL0     H 2730   4.729   5.308   7.553  0.2530 -1.0665 -0.9126
  761MOL0     H 2731   4.655   5.500   7.652  0.8141 -2.4559 -0.0007
  761MOL0     H 2732   4.509   5.404   7.645  0.9680 -1.3825  1.0331
  761MOL0     H 2733   4.434   5.740   7.378 -1.2974  1.1300  2.5713
  761MOL0     H 2734   4.222   5.150   7.269  2.5753 -1.0321  0.4514
  761MOL0     H 2735   4.024   5.195   7.116 -0.2472  2.1142 -0.4919
  762MOL0     O 2736  10.329   1.583   7.836  0.1157 -0.0023 -0.1609
  762MOL0     C 2737  10.292   1.468   7.801 -0.1804  0.0961  0.2324
  762MOL0     O 2738  10.161   1.433   7.784  0.1769  1.1023 -0.1899
  762MOL0     C 2739  10.053   1.505   7.817  1.0548 -0.3493 -0.6548
  762MOL0     C 2740  10.050   1.603   7.917  0.4529 -0.8016  0.2724
  762MOL0     C 2741   9.931   1.669   7.947  1.4103 -0.4812  0.1822
  762MOL0     C 2742   9.813   1.647   7.877 -0.1179 -0.6188 -0.0034
  762MOL0     O 2743   9.690   1.711   7.896  1.3533 -0.7509 -0.0024
  762MOL0     C 2744   9.698   1.847   7.947 -0.0760 -0.1104  0.4762
  762MOL0     C 2745   9.568   1.912   7.909 -0.5434  0.9496 -0.1152
  762MOL0     C 2746   9.533   1.916   7.765 -0.6044 -0.0453  0.2928
  762MOL0     C 2747   9.437   2.031   7.722  0.7825 -0.0582 -0.6970
  762MOL0     C 2748   9.423   2.050   7.575 -0.1194  0.1700  0.3135
  762MOL0     C 2749   9.350   2.190   7.547  0.2117  0.5672  0.0390
  762MOL0     C 2750   9.356   2.229   7.401 -0.7270 -0.2660 -0.0960
  762MOL0     C 2751   9.257   2.336   7.358 -0.1412  0.0351 -0.0725
  762MOL0     N 2752   9.122   2.293   7.396 -0.1054 -0.2332  0.5662
  762MOL0     C 2753   9.066   2.168   7.390  0.2165  0.0220 -0.1211
  762MOL0     C 2754   8.956   2.182   7.461  0.4772 -0.0708 -0.4070
  762MOL0     C 2755   8.852   2.078   7.459 -0.5973  0.5721 -0.8860
  762MOL0     C 2756   8.735   2.093   7.563 -0.8393  0.0038 -1.0783
  762MOL0     C 2757   8.636   1.982   7.571 -0.2209 -0.3366 -0.1369
  762MOL0     C 2758   8.527   2.003   7.467 -0.6007  0.2264 -0.0310
  762MOL0     O 2759   8.440   2.120   7.498 -0.6593  0.3188 -0.4021
  762MOL0     C 2760   8.298   2.102   7.530  0.4531  0.0537  0.5212
  762MOL0     C 2761   8.214   1.987   7.516  0.3462 -0.0760 -0.4776
  762MOL0     C 2762   8.074   2.000   7.533  0.1961 -0.1038 -0.0624
  762MOL0     C 2763   8.004   1.863   7.516  0.6987  0.2132  0.0592
  762MOL0     C 2764   8.018   2.123   7.553  0.3661 -0.2092 -0.2083
  762MOL0     C 2765   7.875   2.134   7.546  0.2155 -0.1935  0.8264
  762MOL0     O 2766   7.819   2.214   7.643  0.4162 -0.3266  1.3197
  762MOL0     C 2767   7.691   2.246   7.636  0.4936  0.1501 -0.5209
  762MOL0     C 2768   7.647   2.342   7.549  0.2415  0.3226  0.2043
  762MOL0     C 2769   7.520   2.383   7.550  0.2355 -1.1093 -0.1115
  762MOL0     C 2770   7.419   2.330   7.628 -0.4365 -0.3215  0.3740
  762MOL0     O 2771   7.291   2.374   7.600 -0.4876  0.2474 -0.2981
  762MOL0     C 2772   7.184   2.311   7.670 -0.1485 -0.3283  0.6650
  762MOL0     C 2773   7.061   2.377   7.628 -0.4188  0.1725  0.2070
  762MOL0     C 2774   6.943   2.366   7.731 -0.6201 -1.1440 -0.9860
  762MOL0     C 2775   6.967   2.441   7.865  0.0784  1.0236  0.5305
  762MOL0     C 2776   6.851   2.399   7.964 -0.5511 -0.7079  0.2293
  762MOL0     C 2777   6.716   2.441   7.913  0.9208 -0.6240 -0.1362
  762MOL0     C 2778   6.608   2.394   8.016 -0.1695  0.4932 -0.3634
  762MOL0     C 2779   6.469   2.434   7.974  0.4937 -0.1721  0.7259
  762MOL0    Cl 2780   6.467   2.617   7.953 -0.2165  0.2776  0.2559
  762MOL0     C 2781   7.464   2.225   7.719 -0.1436 -0.4306 -0.7581
  762MOL0     C 2782   7.604   2.202   7.728 -0.0589 -0.2112  0.3639
  762MOL0     O 2783   7.824   2.093   7.444  0.2713 -0.7189  0.8479
  762MOL0     C 2784   8.100   2.236   7.553  0.0369 -1.3534  0.3637
  762MOL0     C 2785   8.235   2.226   7.545  0.0599  0.9536  1.1342
  762MOL0     N 2786   8.945   2.304   7.515  0.1277 -0.3660  0.0018
  762MOL0     N 2787   9.044   2.377   7.472  0.2410 -0.6239  0.3110
  762MOL0     C 2788   9.817   1.551   7.784 -0.1707 -0.0465  0.5464
  762MOL0     C 2789   9.933   1.478   7.753 -0.1950 -0.2289 -0.5461
  762MOL0     C 2790  10.395   1.363   7.778 -0.2085 -0.7361  0.0006
  762MOL0     C 2791  10.371   1.254   7.700  0.2949 -0.4130  0.4097
  762MOL0     C 2792  10.478   1.168   7.661  1.0043 -0.0647 -0.3411
  762MOL0     C 2793  10.608   1.196   7.714 -0.1811  0.1828  0.4250
  762MOL0     O 2794  10.711   1.110   7.699 -0.1151  0.2159 -0.1962
  762MOL0     C 2795  10.690   0.996   7.618 -0.1150  0.7536  0.1176
  762MOL0     C 2796  10.822   0.935   7.568  0.4325 -0.1546  0.5368
  762MOL0     C 2797  10.911   1.034   7.497 -0.6099  0.1841  0.7445
  762MOL0     C 2798  11.052   0.980   7.481  0.3973  0.5279 -0.0231
  762MOL0     C 2799  11.149   1.077   7.439 -0.8609  0.1033 -0.6132
  762MOL0     C 2800  11.250   1.131   7.402 -0.3048  0.6893  0.5839
  762MOL0     C 2801  10.629   1.296   7.811  0.0739 -0.0597 -0.3101
  762MOL0     C 2802  10.519   1.378   7.843 -0.3148  0.4752  0.8016
  762MOL0     H 2803  10.135   1.627   7.981  2.6220  0.9480 -2.9807
  762MOL0     H 2804   9.928   1.753   8.015  2.3748 -0.1568 -0.1597
  762MOL0     H 2805   9.712   1.846   8.055 -5.0194  1.5401  1.3361
  762MOL0     H 2806   9.785   1.893   7.898 -1.1673  1.5213  0.0031
  762MOL0     H 2807   9.487   1.861   7.962 -0.6384  0.0966 -1.0443
  762MOL0     H 2808   9.563   2.019   7.927  0.0915  1.0905 -0.7474
  762MOL0     H 2809   9.628   1.931   7.713 -1.5571  2.1574 -0.9712
  762MOL0     H 2810   9.488   1.824   7.724  2.4950 -0.1993 -3.2947
  762MOL0     H 2811   9.347   2.008   7.778  1.1881  0.5895  0.2457
  762MOL0     H 2812   9.462   2.126   7.770 -1.3451  0.9848 -1.5336
  762MOL0     H 2813   9.518   2.048   7.520  0.9841  1.6006  2.0308
  762MOL0     H 2814   9.354   1.974   7.537  0.5513  0.1098 -0.8557
  762MOL0     H 2815   9.251   2.199   7.592  0.7175  2.1312  0.9355
  762MOL0     H 2816   9.396   2.273   7.603 -5.7678  4.4909  0.0191
  762MOL0     H 2817   9.456   2.260   7.372 -0.8272 -0.9218 -1.1781
  762MOL0     H 2818   9.328   2.141   7.342 -4.3766  1.1907 -0.8243
  762MOL0     H 2819   9.259   2.347   7.249 -1.4141  2.8223  0.1110
  762MOL0     H 2820   9.282   2.434   7.400 -0.0819 -0.0879  0.1812
  762MOL0     H 2821   9.103   2.082   7.335  0.5200  1.1696 -1.8080
  762MOL0     H 2822   8.812   2.075   7.357  0.4794 -1.3242 -1.3099
  762MOL0     H 2823   8.910   1.986   7.471  0.7155  1.6779  2.4459
  762MOL0     H 2824   8.685   2.188   7.544 -0.4310  0.5123  0.2352
  762MOL0     H 2825   8.785   2.102   7.660 -0.9601 -0.6385 -0.9531
  762MOL0     H 2826   8.583   1.979   7.666 -0.0775  1.6994  0.0680
  762MOL0     H 2827   8.688   1.892   7.539  3.2108  2.9429 -5.4080
  762MOL0     H 2828   8.476   1.908   7.449 -3.0226  0.7213  3.1356
  762MOL0     H 2829   8.575   2.024   7.372 -0.5021 -0.9928 -0.2728
  762MOL0     H 2830   8.247   1.889   7.484  0.3782 -0.3766  0.4471
  762MOL0     H 2831   7.909   1.859   7.571 -2.3677 -0.0547 -4.7128
  762MOL0     H 2832   7.966   1.859   7.414  0.0047 -1.3558  0.3567
  762MOL0     H 2833   8.063   1.773   7.534 -1.1639 -1.0444  0.1137
  762MOL0     H 2834   7.720   2.379   7.477 -1.9858  0.2622 -2.2247
  762MOL0     H 2835   7.494   2.450   7.468 -0.1953 -0.3745  0.6044
  762MOL0     H 2836   7.182   2.205   7.641  1.6099 -0.0183 -0.7324
  762MOL0     H 2837   7.193   2.314   7.779 -0.2522 -0.5469  0.6815
  762MOL0     H 2838   7.084   2.484   7.635  1.2337 -0.2638  2.9003
  762MOL0     H 2839   7.030   2.352   7.526  0.2437  0.8240 -0.1655
  762MOL0     H 2840   6.928   2.260   7.752  2.3975 -1.6679 -1.0462
  762MOL0     H 2841   6.861   2.416   7.679  0.4386 -0.9244 -2.5282
  762MOL0     H 2842   7.067   2.426   7.908 -1.0437  1.1569  3.3950
  762MOL0     H 2843   6.948   2.546   7.841  1.0313  1.0604 -0.1328
  762MOL0     H 2844   6.867   2.439   8.064 -0.9242 -1.9895  0.8274
  762MOL0     H 2845   6.859   2.291   7.978  0.5601 -0.6324  0.2679
  762MOL0     H 2846   6.705   2.550   7.904 -1.3946 -0.6024  1.9035
  762MOL0     H 2847   6.687   2.393   7.819 -1.1161  0.2665 -0.0260
  762MOL0     H 2848   6.623   2.440   8.114  0.9652 -0.9136  0.1661
  762MOL0     H 2849   6.603   2.284   8.023  0.1076  0.5463  1.0015
  762MOL0     H 2850   6.402   2.410   8.057  2.5982 -0.4616  2.4506
  762MOL0     H 2851   6.447   2.396   7.874  0.8081  0.3125  0.4675
  762MOL0     H 2852   7.393   2.173   7.781 -0.0660  0.2289 -0.0999
  762MOL0     H 2853   7.633   2.142   7.814 -4.4486  2.0150  3.8329
  762MOL0     H 2854   8.046   2.329   7.562  0.8607 -0.6508 -1.5533
  762MOL0     H 2855   8.306   2.308   7.539  0.4399  0.5502 -0.5816
  762MOL0     H 2856   9.726   1.534   7.727 -0.8752  2.3516  0.8368
  762MOL0     H 2857   9.935   1.397   7.681 -0.1108  0.6116 -1.5047
  762MOL0     H 2858  10.281   1.240   7.641  0.1207  1.3199  0.2191
  762MOL0     H 2859  10.441   1.084   7.602 -2.2088  1.7037 -1.0981
  762MOL0     H 2860  10.633   0.927   7.681  1.8390 -0.9264  0.1481
  762MOL0     H 2861  10.637   1.013   7.523  1.7856 -0.3031 -1.2077
  762MOL0     H 2862  10.800   0.851   7.502  0.1248 -1.5641  2.3439
  762MOL0     H 2863  10.872   0.888   7.654 -1.5529  0.3647  2.0360
  762MOL0     H 2864  10.921   1.115   7.569 -4.6393 -0.0549  1.8382
  762MOL0     H 2865  10.860   1.056   7.403 -2.5504 -1.9940  1.1814
  762MOL0     H 2866  11.061   0.893   7.415  1.7161 -1.1599  2.2458
  762MOL0     H 2867  11.084   0.934   7.575 -2.6382  1.0124  1.3767
  762MOL0     H 2868  11.347   1.166   7.374  0.1446  0.4991  1.8394
  762MOL0     H 2869  10.727   1.301   7.857  0.3322 -1.9293 -0.5799
  762MOL0     H 2870  10.548   1.457   7.912 -1.4168  1.5674  0.0589
  763MOL0     O 2871   5.472   5.064   0.280  0.6226  0.2293 -0.7260
  763MOL0     C 2872   5.557   5.118   0.213 -0.1560  0.6273  0.5208
  763MOL0     O 2873   5.538   5.188   0.100 -0.4434 -0.7493 -0.0051
  763MOL0     C 2874   5.411   5.241   0.065  1.0534  0.3135 -0.5083
  763MOL0     C 2875   5.394   5.371   0.012  0.0113  1.3453 -0.0650
  763MOL0     C 2876   5.264   5.428  -0.025 -0.5725  0.0715 -0.2233
  763MOL0     C 2877   5.153   5.358   0.014  0.2650  1.5796 -0.0531
  763MOL0     O 2878   5.031   5.413  -0.018 -0.4503 -0.3738  0.2531
  763MOL0     C 2879   4.914   5.328   0.007  0.5832  0.0402 -0.1834
  763MOL0     C 2880   4.791   5.407  -0.027  0.1329 -1.1651 -0.5150
  763MOL0     C 2881   4.652   5.340  -0.017 -0.2558 -1.1379  0.6308
  763MOL0     C 2882   4.611   5.255  -0.135  0.0027  0.2440 -0.1293
  763MOL0     C 2883   4.495   5.161  -0.087 -0.2750  0.2713  0.3241
  763MOL0     C 2884   4.464   5.048  -0.188  0.0060  0.1879 -0.2937
  763MOL0     C 2885   4.359   4.950  -0.146  0.1187  0.0192  0.0024
  763MOL0     C 2886   4.329   4.842  -0.240 -0.3571  0.4606 -0.1113
  763MOL0     N 2887   4.225   4.879  -0.344 -0.3050  0.8746  0.2374
  763MOL0     C 2888   4.098   4.913  -0.315  0.0350  0.6201 -0.2861
  763MOL0     C 2889   4.026   4.924  -0.429 -0.3131 -0.3963  0.0010
  763MOL0     C 2890   3.879   4.949  -0.460 -0.1892  1.1148  0.4323
  763MOL0     C 2891   3.842   5.086  -0.412  0.1503  0.4613 -0.1118
  763MOL0     C 2892   3.850   5.195  -0.514 -0.7732  1.0014 -0.1497
  763MOL0     C 2893   3.755   5.187  -0.640 -0.2788 -0.8969  0.2796
  763MOL0     O 2894   3.611   5.181  -0.614 -0.2995 -0.0681 -0.3140
  763MOL0     C 2895   3.525   5.203  -0.717  0.6486  0.6388 -0.7159
  763MOL0     C 2896   3.389   5.235  -0.675 -0.5174 -0.0832  0.4139
  763MOL0     C 2897   3.292   5.254  -0.776  0.2858 -0.2647  0.1587
  763MOL0     C 2898   3.158   5.305  -0.734 -0.5563 -0.0263 -0.5632
  763MOL0     C 2899   3.329   5.239  -0.917 -0.1702 -0.4316 -0.8583
  763MOL0     C 2900   3.234   5.242  -1.024  0.4630 -0.5891  0.2692
  763MOL0     O 2901   3.119   5.166  -1.014  0.0489  0.9435 -0.4991
  763MOL0     C 2902   2.989   5.188  -1.055 -0.4644  0.4058  0.4200
  763MOL0     C 2903   2.896   5.087  -1.043 -0.2877  0.7322  0.0068
  763MOL0     C 2904   2.772   5.105  -1.086  0.1142  0.6366  0.2399
  763MOL0     C 2905   2.727   5.223  -1.146 -0.9308  0.7220  0.2032
  763MOL0     O 2906   2.604   5.245  -1.196  0.4286  0.1264 -1.1479
  763MOL0     C 2907   2.535   5.156  -1.286  0.3207  0.0681  0.1838
  763MOL0     C 2908   2.402   5.227  -1.321 -0.6909 -0.3575 -0.2895
  763MOL0     C 2909   2.293   5.133  -1.372 -0.8018 -0.4544 -0.9579
  763MOL0     C 2910   2.162   5.223  -1.378  0.0207  0.3888  0.2079
  763MOL0     C 2911   2.036   5.144  -1.413 -0.1755  0.2842 -0.3320
  763MOL0     C 2912   1.916   5.234  -1.446  0.6411 -0.9806 -0.3273
  763MOL0     C 2913   1.795   5.152  -1.488  0.2643  0.2090  0.1707
  763MOL0     C 2914   1.657   5.220  -1.470  0.3370  0.7011  0.9319
  763MOL0    Cl 2915   1.528   5.124  -1.538  0.3444  0.0631  0.1483
  763MOL0     C 2916   2.814   5.332  -1.154  0.3230 -0.1803 -0.6335
  763MOL0     C 2917   2.949   5.311  -1.112 -0.7275 -0.1237 -0.1509
  763MOL0     O 2918   3.257   5.314  -1.119 -0.4970  0.3907  0.6666
  763MOL0     C 2919   3.463   5.207  -0.950 -0.1750  1.0659  0.5747
  763MOL0     C 2920   3.560   5.189  -0.847  0.3755  0.5390  0.2760
  763MOL0     N 2921   4.120   4.899  -0.526  0.1151 -0.0488  0.1555
  763MOL0     N 2922   4.231   4.862  -0.475 -0.3152 -0.5449  0.8473
  763MOL0     C 2923   5.164   5.221   0.061  0.7855 -1.0045  0.1917
  763MOL0     C 2924   5.288   5.171   0.081  0.2627  0.4701  0.3568
  763MOL0     C 2925   5.699   5.080   0.256  0.3475 -0.0934  0.2283
  763MOL0     C 2926   5.716   5.001   0.377 -0.0881 -0.1904  1.2738
  763MOL0     C 2927   5.844   4.980   0.413  0.0711  0.1855  0.0423
  763MOL0     C 2928   5.951   5.019   0.341  0.0512 -0.1582 -0.2696
  763MOL0     O 2929   6.069   4.990   0.402 -0.3213  0.2951  0.3783
  763MOL0     C 2930   6.190   5.047   0.362 -0.2762 -0.0284 -0.2077
  763MOL0     C 2931   6.300   4.994   0.448 -0.2455 -0.3155 -0.3116
  763MOL0     C 2932   6.315   4.841   0.448 -0.3802  0.1670 -1.2723
  763MOL0     C 2933   6.422   4.800   0.541  0.0942  0.0859 -0.9036
  763MOL0     C 2934   6.554   4.793   0.476  0.2646 -0.1415  0.3149
  763MOL0     C 2935   6.647   4.795   0.403  0.3536 -0.4861 -0.4431
  763MOL0     C 2936   5.941   5.092   0.228 -0.9820  0.0632  0.0760
  763MOL0     C 2937   5.812   5.118   0.183  0.4369 -1.0048 -0.3264
  763MOL0     H 2938   5.482   5.433   0.001  3.1931 -2.7635 -0.0988
  763MOL0     H 2939   5.265   5.533  -0.051 -1.3948  0.3223  0.6957
  763MOL0     H 2940   4.922   5.245  -0.064  2.9798  0.6542 -0.7435
  763MOL0     H 2941   4.907   5.296   0.111  1.0749 -2.2407 -0.8032
  763MOL0     H 2942   4.790   5.500   0.031  2.0032 -0.0077 -2.2269
  763MOL0     H 2943   4.793   5.441  -0.131  0.9106 -0.1983 -0.1972
  763MOL0     H 2944   4.654   5.282   0.075  2.3469 -0.7915  0.8514
  763MOL0     H 2945   4.572   5.415  -0.009  1.6406  1.6405 -3.2442
  763MOL0     H 2946   4.574   5.317  -0.217 -1.0814  1.7116  1.4006
  763MOL0     H 2947   4.691   5.198  -0.183 -0.4903  0.0814 -0.7730
  763MOL0     H 2948   4.524   5.121   0.011 -1.7400  0.3800  0.8241
  763MOL0     H 2949   4.398   5.209  -0.071 -0.8208 -0.9197  0.7426
  763MOL0     H 2950   4.433   5.101  -0.279  2.1300  0.3082 -1.0095
  763MOL0     H 2951   4.553   4.988  -0.212 -1.0305 -1.9708  0.9649
  763MOL0     H 2952   4.401   4.905  -0.055  0.6359  1.4761  0.5163
  763MOL0     H 2953   4.268   5.005  -0.120  1.1381  0.4868  3.0969
  763MOL0     H 2954   4.285   4.758  -0.185  1.7114 -0.9370 -0.4983
  763MOL0     H 2955   4.422   4.809  -0.287 -0.0984  1.5900 -0.4197
  763MOL0     H 2956   4.060   4.928  -0.215 -2.4196 -1.7989 -0.7173
  763MOL0     H 2957   3.874   4.931  -0.568  2.0379 -1.2965  0.6389
  763MOL0     H 2958   3.819   4.867  -0.420  1.0920 -0.3339 -0.4943
  763MOL0     H 2959   3.907   5.122  -0.332  0.9515 -2.4381  0.6702
  763MOL0     H 2960   3.741   5.083  -0.370 -0.3079  2.8666 -0.8528
  763MOL0     H 2961   3.954   5.177  -0.544 -0.3537 -1.3627  2.3551
  763MOL0     H 2962   3.851   5.290  -0.459  1.0972  0.6530  0.4815
  763MOL0     H 2963   3.795   5.109  -0.705  0.4802  1.4350 -2.2694
  763MOL0     H 2964   3.767   5.283  -0.690 -2.5214  1.5994  4.0199
  763MOL0     H 2965   3.374   5.248  -0.568  0.6995 -1.9041  0.8561
  763MOL0     H 2966   3.159   5.414  -0.735  2.0953  0.0259 -0.5975
  763MOL0     H 2967   3.083   5.255  -0.795  2.8211 -1.5415 -3.9199
  763MOL0     H 2968   3.144   5.274  -0.630 -2.0264 -0.1247 -0.7698
  763MOL0     H 2969   2.924   4.989  -1.004 -0.7904  0.5657 -0.0500
  763MOL0     H 2970   2.700   5.025  -1.073  0.4207  0.3452  0.1494
  763MOL0     H 2971   2.591   5.133  -1.377  3.2102  1.0782  1.5893
  763MOL0     H 2972   2.510   5.066  -1.230  1.7066  0.8647  2.2140
  763MOL0     H 2973   2.365   5.253  -1.221 -1.7066 -1.2964 -0.3994
  763MOL0     H 2974   2.423   5.311  -1.388  0.7176 -1.5655 -1.4173
  763MOL0     H 2975   2.285   5.043  -1.311  2.4218  1.5153  2.8928
  763MOL0     H 2976   2.326   5.088  -1.466  1.4867  0.8318 -0.8492
  763MOL0     H 2977   2.142   5.270  -1.282  1.6372  0.2801  0.6135
  763MOL0     H 2978   2.187   5.301  -1.451  2.1356  0.6143  1.1191
  763MOL0     H 2979   2.005   5.073  -1.336 -0.0604  1.2203  0.5927
  763MOL0     H 2980   2.061   5.083  -1.501 -1.1415 -0.9818  0.2465
  763MOL0     H 2981   1.893   5.299  -1.361 -0.1999  0.4636 -1.6101
  763MOL0     H 2982   1.943   5.309  -1.520 -3.0310  2.6686  1.5893
  763MOL0     H 2983   1.797   5.060  -1.429 -1.0548 -1.9716 -2.9112
  763MOL0     H 2984   1.803   5.115  -1.591 -0.5839 -2.1304  0.8821
  763MOL0     H 2985   1.645   5.307  -1.536 -0.8599 -2.2829 -3.2203
  763MOL0     H 2986   1.640   5.248  -1.366  0.2218 -3.7003  2.2973
  763MOL0     H 2987   2.787   5.430  -1.192  0.8978 -0.4981 -1.9167
  763MOL0     H 2988   3.020   5.393  -1.120  1.3477 -1.5335  2.3545
  763MOL0     H 2989   3.496   5.207  -1.053  1.0062  1.0924  0.9483
  763MOL0     H 2990   3.660   5.157  -0.876 -0.3489 -3.3479  1.4490
  763MOL0     H 2991   5.085   5.153   0.092  0.9080 -2.6998 -2.8114
  763MOL0     H 2992   5.275   5.071   0.122 -0.9628 -0.0812 -1.2399
  763MOL0     H 2993   5.641   4.949   0.435  1.7671 -1.8216  2.3299
  763MOL0     H 2994   5.858   4.933   0.509 -0.7889  0.5384  0.3566
  763MOL0     H 2995   6.200   5.020   0.256  4.2266 -1.5969  0.3994
  763MOL0     H 2996   6.202   5.155   0.369  1.7120 -0.2312  0.1398
  763MOL0     H 2997   6.287   5.040   0.546  0.1914 -1.4481  0.2913
  763MOL0     H 2998   6.393   5.036   0.408 -0.9943  0.2933 -1.4921
  763MOL0     H 2999   6.341   4.817   0.344  0.5801  0.4331 -1.1032
  763MOL0     H 3000   6.220   4.795   0.478 -0.9359  2.5263  0.9100
  763MOL0     H 3001   6.398   4.698   0.570 -3.5142  0.6132 -1.5450
  763MOL0     H 3002   6.427   4.854   0.636  1.2233 -1.4752 -0.0347
  763MOL0     H 3003   6.732   4.821   0.344 -0.4398  3.9494 -0.0026
  763MOL0     H 3004   6.025   5.138   0.176 -1.8499  1.8661  0.1908
  763MOL0     H 3005   5.799   5.174   0.090 -1.6043  0.0430  0.5172
  764MOL0     O 3006   7.022   9.752  11.341  0.4541 -0.3900 -0.1598
  764MOL0     C 3007   7.092   9.712  11.248  0.0398 -0.6676  0.3874
  764MOL0     O 3008   7.048   9.690  11.126  0.0015 -0.3844 -0.6723
  764MOL0     C 3009   6.910   9.676  11.101 -1.1540  0.5790 -0.5283
  764MOL0     C 3010   6.859   9.711  10.981  1.0111 -1.5210  0.9370
  764MOL0     C 3011   6.729   9.681  10.945  0.2210 -0.8798 -0.3973
  764MOL0     C 3012   6.644   9.623  11.033  0.9548  0.4896  0.6591
  764MOL0     O 3013   6.518   9.605  10.973  0.3991  0.4754 -0.5508
  764MOL0     C 3014   6.423   9.540  11.050  0.4628 -0.3707 -0.0638
  764MOL0     C 3015   6.304   9.504  10.966  0.5485 -0.1954  0.0455
  764MOL0     C 3016   6.220   9.396  11.030  0.4274 -0.7077 -0.1459
  764MOL0     C 3017   6.133   9.459  11.141 -0.4471  0.7254 -0.5128
  764MOL0     C 3018   6.057   9.354  11.215  0.2918  0.8523 -0.5033
  764MOL0     C 3019   5.936   9.428  11.281 -0.0459  0.2517  1.2417
  764MOL0     C 3020   5.856   9.330  11.373  0.3361  0.9358 -0.1910
  764MOL0     C 3021   5.776   9.415  11.472  1.1337  0.9607  0.6142
  764MOL0     N 3022   5.637   9.429  11.426 -0.7987 -1.0076  0.9881
  764MOL0     C 3023   5.533   9.342  11.414  0.4169 -0.3891  0.3128
  764MOL0     C 3024   5.434   9.408  11.346 -0.1418  1.3211 -0.5101
  764MOL0     C 3025   5.294   9.350  11.322  0.0990  0.3533 -0.0152
  764MOL0     C 3026   5.192   9.464  11.312  0.1118  0.6393 -0.1105
  764MOL0     C 3027   5.054   9.429  11.374  0.6842 -0.3967 -0.0805
  764MOL0     C 3028   4.951   9.536  11.336 -0.7325  0.6369  0.6151
  764MOL0     O 3029   4.819   9.514  11.399  0.1961  0.8614  0.1540
  764MOL0     C 3030   4.715   9.511  11.314  0.1401  0.0993  0.7485
  764MOL0     C 3031   4.677   9.394  11.242 -0.3274 -0.0009  0.2325
  764MOL0     C 3032   4.572   9.393  11.158  0.6681 -0.9344  0.5148
  764MOL0     C 3033   4.522   9.269  11.080 -0.2780  0.1796 -0.6555
  764MOL0     C 3034   4.498   9.525  11.132 -0.2692 -0.7969  0.4228
  764MOL0     C 3035   4.386   9.550  11.036 -0.3096 -0.9965 -0.6853
  764MOL0     O 3036   4.301   9.664  11.063 -0.1167 -0.5843  0.0671
  764MOL0     C 3037   4.188   9.672  10.986 -0.1231  0.0825  0.4941
  764MOL0     C 3038   4.080   9.583  11.004  0.0182  0.5420  0.7029
  764MOL0     C 3039   3.957   9.606  10.942  0.1610 -0.7881  0.5876
  764MOL0     C 3040   3.934   9.707  10.859  0.4019 -0.4647  0.6253
  764MOL0     O 3041   3.802   9.727  10.813 -0.5557 -1.0230  0.6020
  764MOL0     C 3042   3.788   9.819  10.709  0.5300  0.1505  0.4261
  764MOL0     C 3043   3.649   9.789  10.660 -0.6343 -0.4554  0.0330
  764MOL0     C 3044   3.602   9.881  10.541 -0.4087 -0.3994 -0.2382
  764MOL0     C 3045   3.460   9.831  10.490 -0.0667 -0.4609  0.5452
  764MOL0     C 3046   3.403   9.921  10.383 -0.5802  0.9865  0.2329
  764MOL0     C 3047   3.312   9.851  10.280 -0.7610 -0.2983 -0.2900
  764MOL0     C 3048   3.214   9.752  10.334  0.4690 -0.0402 -0.3827
  764MOL0     C 3049   3.119   9.710  10.217  0.6024 -0.2912  0.1400
  764MOL0    Cl 3050   3.000   9.589  10.259  0.0588 -0.0615  0.0363
  764MOL0     C 3051   4.049   9.791  10.827 -0.1988  0.3518 -0.3646
  764MOL0     C 3052   4.168   9.778  10.896 -0.5418  0.4637  0.0350
  764MOL0     O 3053   4.369   9.473  10.936  0.0326 -0.5859 -0.2359
  764MOL0     C 3054   4.545   9.638  11.203 -0.2785  0.3983  0.5259
  764MOL0     C 3055   4.649   9.633  11.288 -0.8337 -0.0182  0.2921
  764MOL0     N 3056   5.470   9.540  11.336 -0.5055  0.0871 -0.1312
  764MOL0     N 3057   5.589   9.545  11.379  0.1548 -0.3256 -0.6063
  764MOL0     C 3058   6.693   9.588  11.165  0.1004  0.2587  0.1297
  764MOL0     C 3059   6.828   9.597  11.190 -0.3736 -0.0688  0.2067
  764MOL0     C 3060   7.231   9.712  11.275  1.0686  1.4549  0.1166
  764MOL0     C 3061   7.331   9.702  11.174 -0.5631 -0.0247 -0.2085
  764MOL0     C 3062   7.468   9.701  11.200 -0.6040 -1.5372  0.9111
  764MOL0     C 3063   7.513   9.706  11.332 -0.2449  0.1644  0.7514
  764MOL0     O 3064   7.646   9.693  11.365  0.4392  0.6388 -0.5745
  764MOL0     C 3065   7.683   9.755  11.498  0.1830  0.1195 -0.0384
  764MOL0     C 3066   7.846   9.777  11.502  2.2596  0.1138  0.1770
  764MOL0     C 3067   7.925   9.643  11.496 -0.4341  0.4667 -0.4319
  764MOL0     C 3068   8.054   9.663  11.409  0.2224  1.0535 -0.5680
  764MOL0     C 3069   8.148   9.763  11.458 -0.0169  0.0840  0.4523
  764MOL0     C 3070   8.221   9.858  11.491  0.4885  0.1342  0.0154
  764MOL0     C 3071   7.419   9.709  11.437  0.0023 -0.2174  0.5406
  764MOL0     C 3072   7.281   9.721  11.409 -1.1311  0.5259  0.1374
  764MOL0     H 3073   6.913   9.759  10.901 -0.1915 -2.0810 -0.2506
  764MOL0     H 3074   6.687   9.714  10.850 -0.5314 -1.1842 -0.1820
  764MOL0     H 3075   6.483   9.456  11.085  4.1033  1.4258 -1.5602
  764MOL0     H 3076   6.396   9.597  11.140 -0.0898 -0.2934 -0.2711
  764MOL0     H 3077   6.248   9.597  10.954  1.6727  0.6182  0.8420
  764MOL0     H 3078   6.334   9.464  10.868 -0.3908  0.1917 -0.4055
  764MOL0     H 3079   6.144   9.359  10.961  1.6120 -0.2608 -1.7777
  764MOL0     H 3080   6.283   9.312  11.062  2.7519  1.6205  1.8811
  764MOL0     H 3081   6.198   9.524  11.200  1.8052  1.9834 -4.0346
  764MOL0     H 3082   6.062   9.521  11.085 -0.7798  0.8809  0.0771
  764MOL0     H 3083   6.034   9.269  11.150  0.1565 -2.2095  3.2082
  764MOL0     H 3084   6.118   9.308  11.293  1.3506  0.0910 -1.7532
  764MOL0     H 3085   5.981   9.505  11.345 -1.1572  0.1459  2.1918
  764MOL0     H 3086   5.878   9.478  11.203  0.7322  2.3445  1.9151
  764MOL0     H 3087   5.799   9.272  11.300 -0.7201  0.8547  0.6766
  764MOL0     H 3088   5.926   9.271  11.434 -2.8881 -2.6090  0.4782
  764MOL0     H 3089   5.822   9.514  11.484  0.2997  1.3144  0.9546
  764MOL0     H 3090   5.775   9.369  11.571  1.2167 -1.4304 -0.4302
  764MOL0     H 3091   5.529   9.240  11.450 -1.7833  0.1764  1.9232
  764MOL0     H 3092   5.296   9.281  11.237 -3.1926  1.4164 -1.1046
  764MOL0     H 3093   5.286   9.301  11.419 -0.2954  0.9996  0.2829
  764MOL0     H 3094   5.181   9.495  11.208 -1.0976  2.7255  0.5700
  764MOL0     H 3095   5.234   9.542  11.375  2.3036  0.2574 -1.0132
  764MOL0     H 3096   5.053   9.412  11.482  0.6003 -2.1723 -0.3294
  764MOL0     H 3097   5.031   9.337  11.318  0.2639  1.2408 -2.7942
  764MOL0     H 3098   4.940   9.550  11.228 -0.5554  3.1704  0.8771
  764MOL0     H 3099   4.992   9.632  11.369 -0.7130  0.6005  0.6963
  764MOL0     H 3100   4.737   9.304  11.246  1.5674  1.1860 -0.3759
  764MOL0     H 3101   4.413   9.275  11.084 -0.2285  0.4281  1.8419
  764MOL0     H 3102   4.559   9.257  10.978  3.0105 -0.4736  0.4700
  764MOL0     H 3103   4.551   9.183  11.141  1.9614  0.5696 -1.0887
  764MOL0     H 3104   4.100   9.497  11.068 -2.0223  0.6238  1.5392
  764MOL0     H 3105   3.880   9.530  10.943 -0.4519 -0.1774  0.5315
  764MOL0     H 3106   3.807   9.920  10.746  1.0251  0.1224  0.2653
  764MOL0     H 3107   3.856   9.801  10.625 -0.1695 -4.4138  0.5618
  764MOL0     H 3108   3.627   9.683  10.641 -5.0781  0.5888 -1.8866
  764MOL0     H 3109   3.580   9.803  10.744  0.4190 -2.9444  1.4271
  764MOL0     H 3110   3.677   9.869  10.462 -0.0101 -0.7113  0.1868
  764MOL0     H 3111   3.600   9.984  10.579  2.4411 -0.0685 -0.7973
  764MOL0     H 3112   3.469   9.734  10.440 -1.5038  0.5582 -1.8806
  764MOL0     H 3113   3.390   9.814  10.572  0.3341 -1.7108  0.6451
  764MOL0     H 3114   3.489   9.960  10.328  0.9111 -2.1901  0.1033
  764MOL0     H 3115   3.343  10.003  10.424  0.9088  3.4606 -2.1840
  764MOL0     H 3116   3.261   9.932  10.229  3.7306  3.3554  0.3953
  764MOL0     H 3117   3.375   9.807  10.203  2.6912  3.1920  0.2381
  764MOL0     H 3118   3.162   9.792  10.421 -2.2775 -3.1842 -0.4246
  764MOL0     H 3119   3.258   9.655  10.360  1.4743 -0.8467 -4.3794
  764MOL0     H 3120   3.180   9.672  10.135 -1.8746  1.7985 -2.9169
  764MOL0     H 3121   3.064   9.796  10.179  2.4058  0.3586 -1.1149
  764MOL0     H 3122   4.043   9.882  10.768 -1.5092  1.3848  1.2896
  764MOL0     H 3123   4.247   9.851  10.878 -0.4114  0.0029 -1.3390
  764MOL0     H 3124   4.511   9.741  11.198 -1.5075 -0.0283 -0.6185
  764MOL0     H 3125   4.691   9.722  11.333  2.0588 -0.5409 -1.1193
  764MOL0     H 3126   6.619   9.545  11.231  0.0638 -0.3632 -0.3116
  764MOL0     H 3127   6.865   9.566  11.288  1.9704 -0.2723 -0.6800
  764MOL0     H 3128   7.308   9.689  11.068  0.8228  0.5686 -0.6042
  764MOL0     H 3129   7.524   9.681  11.109  1.7174  2.9281  1.1049
  764MOL0     H 3130   7.643   9.857  11.503 -1.8035 -0.3567 -3.3256
  764MOL0     H 3131   7.656   9.694  11.584  1.7656 -2.6050 -1.3571
  764MOL0     H 3132   7.861   9.835  11.594 -0.5385 -0.7211  1.2579
  764MOL0     H 3133   7.878   9.845  11.422  2.4056  0.8144  0.8163
  764MOL0     H 3134   7.877   9.565  11.437  1.0455 -0.0857 -0.9472
  764MOL0     H 3135   7.962   9.599  11.590 -1.5470 -0.1073 -0.2406
  764MOL0     H 3136   8.036   9.693  11.305  2.0266  0.6684 -1.0318
  764MOL0     H 3137   8.106   9.567  11.401 -2.4426 -0.4897 -0.6373
  764MOL0     H 3138   8.284   9.933  11.534 -0.0217  0.1302  0.8033
  764MOL0     H 3139   7.443   9.717  11.543  1.0027 -0.0797  0.3164
  764MOL0     H 3140   7.219   9.727  11.497  1.7331  0.5722  2.3106
  765MOL0     O 3141  10.012   5.772   1.045 -0.1626 -0.2651  0.4837
  765MOL0     C 3142  10.031   5.886   1.090  0.5030  0.5225  0.0543
  765MOL0     O 3143   9.929   5.972   1.128  0.0396  0.1780 -0.0010
  765MOL0     C 3144   9.801   5.959   1.096 -0.1322  0.1398  0.3230
  765MOL0     C 3145   9.727   6.075   1.106 -0.2055  0.1954  0.3709
  765MOL0     C 3146   9.595   6.079   1.064 -0.0450 -0.6216 -0.6688
  765MOL0     C 3147   9.522   5.958   1.037  0.2337 -1.9870  0.4486
  765MOL0     O 3148   9.391   5.987   1.004 -0.0518 -0.3212 -0.3260
  765MOL0     C 3149   9.301   5.878   0.993 -0.4247  0.9036 -0.6555
  765MOL0     C 3150   9.179   5.909   0.906  0.2963  0.1160  0.3775
  765MOL0     C 3151   9.084   6.019   0.950 -0.0293  0.5199  0.3223
  765MOL0     C 3152   8.971   6.040   0.847  0.0344 -0.2645 -0.4036
  765MOL0     C 3153   8.882   6.167   0.863  0.8709  0.1677  0.3952
  765MOL0     C 3154   8.794   6.192   0.741  0.4999 -0.3761  0.2902
  765MOL0     C 3155   8.699   6.070   0.719  0.3592 -0.6050  0.3990
  765MOL0     C 3156   8.643   6.099   0.580 -0.0653  0.0783  0.9028
  765MOL0     N 3157   8.525   6.009   0.551  0.2990 -0.3231  0.7003
  765MOL0     C 3158   8.441   6.001   0.443  0.0582  0.1365 -0.1080
  765MOL0     C 3159   8.376   5.884   0.456  0.1757  0.5318  0.9281
  765MOL0     C 3160   8.265   5.828   0.366  1.1500 -0.8415  0.8037
  765MOL0     C 3161   8.270   5.681   0.321 -0.5510  0.1455 -0.4288
  765MOL0     C 3162   8.382   5.662   0.236 -0.0871  0.8016  0.2012
  765MOL0     C 3163   8.392   5.511   0.192 -0.1252  0.8132 -0.3714
  765MOL0     O 3164   8.405   5.415   0.299 -0.3003  0.2357  0.0370
  765MOL0     C 3165   8.528   5.416   0.374  1.3892  0.2471  0.1336
  765MOL0     C 3166   8.530   5.466   0.503  0.2489  0.1711  0.2990
  765MOL0     C 3167   8.646   5.480   0.569 -0.1827  0.5746 -0.2223
  765MOL0     C 3168   8.626   5.542   0.704  0.2934  0.6189  0.9020
  765MOL0     C 3169   8.770   5.453   0.514 -0.4820 -0.0467  0.3362
  765MOL0     C 3170   8.910   5.472   0.577  0.7061  0.0500 -0.0238
  765MOL0     O 3171   9.025   5.495   0.499 -0.7765 -0.1446  0.8643
  765MOL0     C 3172   9.151   5.488   0.566  0.7558 -0.4166 -0.4872
  765MOL0     C 3173   9.202   5.364   0.607  0.1290 -0.6441  0.2890
  765MOL0     C 3174   9.332   5.351   0.661  1.1525  0.5615 -0.1473
  765MOL0     C 3175   9.407   5.462   0.701  0.2252 -0.3320  0.5477
  765MOL0     O 3176   9.527   5.448   0.760 -0.4272  0.3154 -0.3795
  765MOL0     C 3177   9.627   5.556   0.768  1.1582  0.2470  0.3606
  765MOL0     C 3178   9.760   5.498   0.830 -0.5246  0.3599 -0.3901
  765MOL0     C 3179   9.862   5.475   0.727 -0.0726 -0.2472  0.1330
  765MOL0     C 3180   9.977   5.379   0.780  0.8936  0.2321  0.5209
  765MOL0     C 3181  10.085   5.364   0.669 -0.0576 -1.2305 -0.5906
  765MOL0     C 3182  10.207   5.303   0.737 -0.0270  0.3058 -0.2161
  765MOL0     C 3183  10.310   5.233   0.636  0.2190  0.0194 -0.1655
  765MOL0     C 3184  10.420   5.310   0.579 -0.5243  0.2219  0.4699
  765MOL0    Cl 3185  10.517   5.181   0.516  0.2725  0.1735  0.2996
  765MOL0     C 3186   9.343   5.584   0.675  0.4129  0.6934 -0.7558
  765MOL0     C 3187   9.230   5.600   0.594  0.1317 -0.2207 -0.6706
  765MOL0     O 3188   8.904   5.436   0.690  0.7270  0.2082 -0.2738
  765MOL0     C 3189   8.771   5.413   0.381 -0.0638 -0.8364  0.5887
  765MOL0     C 3190   8.650   5.387   0.315 -0.4305 -0.4811 -0.2218
  765MOL0     N 3191   8.428   5.822   0.561 -0.7258  0.0206  0.4890
  765MOL0     N 3192   8.509   5.887   0.617 -0.7660  0.1939 -0.0125
  765MOL0     C 3193   9.594   5.840   1.037 -0.2622  0.1336 -0.0492
  765MOL0     C 3194   9.726   5.841   1.070 -0.1613  0.0497 -0.1009
  765MOL0     C 3195  10.172   5.920   1.120 -0.3051  0.2194 -0.9358
  765MOL0     C 3196  10.213   6.029   1.199  0.2383 -1.1352  0.3324
  765MOL0     C 3197  10.348   6.064   1.233  0.8079 -0.1971  0.4527
  765MOL0     C 3198  10.453   5.984   1.192 -0.5458 -0.1970  0.1156
  765MOL0     O 3199  10.583   6.010   1.213  0.7028 -0.5213  0.5168
  765MOL0     C 3200  10.621   6.099   1.324 -0.0487  0.4265 -0.1424
  765MOL0     C 3201  10.768   6.102   1.365 -0.0896  0.3431  0.5877
  765MOL0     C 3202  10.816   5.959   1.415 -0.7194 -1.0853  0.7188
  765MOL0     C 3203  10.806   5.838   1.319  0.8745 -0.1407  0.5298
  765MOL0     C 3204  10.865   5.719   1.376 -0.8170 -0.9134 -0.7688
  765MOL0     C 3205  10.933   5.635   1.425 -0.9247 -0.0358 -0.2006
  765MOL0     C 3206  10.416   5.878   1.112 -1.2978 -0.5452 -0.0943
  765MOL0     C 3207  10.279   5.838   1.086 -0.3971  0.7063 -0.6742
  765MOL0     H 3208   9.766   6.172   1.136  0.6723  1.3217 -3.7521
  765MOL0     H 3209   9.534   6.168   1.068 -1.2710 -1.2957 -2.8526
  765MOL0     H 3210   9.352   5.792   0.948  0.5639  1.2626 -0.2485
  765MOL0     H 3211   9.272   5.844   1.093  1.0233  1.7819  0.0922
  765MOL0     H 3212   9.205   5.913   0.800 -1.7251 -3.1507 -0.3776
  765MOL0     H 3213   9.132   5.810   0.909  4.1672 -1.8810  2.2550
  765MOL0     H 3214   9.039   5.988   1.045 -2.4805 -0.6027 -1.1142
  765MOL0     H 3215   9.139   6.108   0.980  0.9206  0.0370  0.0339
  765MOL0     H 3216   9.030   6.041   0.755  0.5784  2.7450 -0.1126
  765MOL0     H 3217   8.907   5.954   0.870  0.9934 -0.8694  0.0699
  765MOL0     H 3218   8.823   6.180   0.954  0.2352  2.4608 -0.2623
  765MOL0     H 3219   8.944   6.257   0.861 -0.1538  0.8846 -0.8150
  765MOL0     H 3220   8.736   6.283   0.759 -0.5247 -0.6743 -1.3558
  765MOL0     H 3221   8.862   6.203   0.655 -0.1341 -0.1201 -0.1864
  765MOL0     H 3222   8.754   5.976   0.707  1.4322  0.2069 -1.5711
  765MOL0     H 3223   8.611   6.064   0.783  2.6139  0.0517  3.8538
  765MOL0     H 3224   8.728   6.088   0.513 -1.0866 -0.0304 -0.4077
  765MOL0     H 3225   8.606   6.202   0.579  0.4116  0.2943  2.2837
  765MOL0     H 3226   8.420   6.074   0.365  2.8833  3.7616  2.1937
  765MOL0     H 3227   8.171   5.844   0.418  0.9015  1.2968 -0.1818
  765MOL0     H 3228   8.270   5.885   0.273  1.8023  0.4880  1.6079
  765MOL0     H 3229   8.185   5.649   0.260 -1.0059 -0.3941  0.4509
  765MOL0     H 3230   8.266   5.622   0.413 -1.8137  2.1028  0.8577
  765MOL0     H 3231   8.468   5.688   0.297 -0.6687  1.5644  0.7105
  765MOL0     H 3232   8.369   5.727   0.149  0.2313 -0.8609 -1.1431
  765MOL0     H 3233   8.481   5.508   0.129  0.0384 -0.4640 -0.0996
  765MOL0     H 3234   8.300   5.494   0.135 -0.9614 -0.2184  1.2132
  765MOL0     H 3235   8.434   5.497   0.542 -0.2915  0.3359 -1.1315
  765MOL0     H 3236   8.577   5.638   0.685 -0.8280 -0.2615 -0.8024
  765MOL0     H 3237   8.552   5.483   0.758 -1.0236  0.1054 -1.3657
  765MOL0     H 3238   8.709   5.547   0.775  0.7006 -1.4175  0.6177
  765MOL0     H 3239   9.139   5.279   0.583  1.0143 -1.7282  1.6436
  765MOL0     H 3240   9.375   5.254   0.684  2.1780  1.1255  0.4324
  765MOL0     H 3241   9.636   5.598   0.667  2.0522 -1.6625 -0.4136
  765MOL0     H 3242   9.591   5.630   0.840  0.9443  0.4587  0.0373
  765MOL0     H 3243   9.793   5.577   0.897 -1.0495 -0.2418  0.6040
  765MOL0     H 3244   9.731   5.413   0.893  0.5058  1.6239  1.9199
  765MOL0     H 3245   9.909   5.567   0.689  2.8090 -2.1385 -1.1926
  765MOL0     H 3246   9.812   5.426   0.643 -1.8620 -0.6921  1.3950
  765MOL0     H 3247  10.029   5.418   0.868  0.7683  0.3752  0.5330
  765MOL0     H 3248   9.937   5.284   0.816 -0.4159  0.8414  0.7141
  765MOL0     H 3249  10.108   5.464   0.632  1.2993 -0.8137  1.1795
  765MOL0     H 3250  10.049   5.290   0.597 -2.1323 -0.9526  0.0870
  765MOL0     H 3251  10.246   5.382   0.801 -1.6415  1.0291 -0.0736
  765MOL0     H 3252  10.178   5.219   0.801  1.1855  0.5698  0.7085
  765MOL0     H 3253  10.250   5.197   0.552 -4.5787  2.5984  1.7427
  765MOL0     H 3254  10.362   5.147   0.679  3.6045  1.3118 -1.3680
  765MOL0     H 3255  10.481   5.353   0.658 -2.3795  2.7392  0.6276
  765MOL0     H 3256  10.394   5.383   0.502  0.5850 -1.7738 -1.9811
  765MOL0     H 3257   9.389   5.672   0.720  0.3742  0.7018 -0.7339
  765MOL0     H 3258   9.182   5.696   0.580  0.2343 -0.4339 -2.8481
  765MOL0     H 3259   8.869   5.411   0.334  0.7510 -0.5545  2.1747
  765MOL0     H 3260   8.641   5.365   0.210 -3.9047  2.2183 -0.6730
  765MOL0     H 3261   9.552   5.741   1.019  1.1777 -1.1400  2.8466
  765MOL0     H 3262   9.758   5.737   1.067 -1.3795 -0.4279 -4.7486
  765MOL0     H 3263  10.136   6.099   1.228 -0.2294 -0.9313 -1.2878
  765MOL0     H 3264  10.360   6.163   1.277  0.3005 -0.0643  0.3006
  765MOL0     H 3265  10.594   6.205   1.314 -3.3132 -0.2334  0.5922
  765MOL0     H 3266  10.558   6.070   1.409 -0.0398  2.3041  0.5673
  765MOL0     H 3267  10.797   6.173   1.443  3.3963 -0.1143 -0.1703
  765MOL0     H 3268  10.823   6.135   1.276  0.0980 -1.3835  0.0379
  765MOL0     H 3269  10.769   5.937   1.511 -1.2211  0.8395  0.9494
  765MOL0     H 3270  10.920   5.980   1.441 -0.6149  2.3771 -1.8067
  765MOL0     H 3271  10.850   5.859   1.221  2.4930 -1.5172  0.9136
  765MOL0     H 3272  10.702   5.804   1.326  1.3539 -1.3475  4.3327
  765MOL0     H 3273  10.996   5.556   1.461  0.3037  0.2647 -1.5663
  765MOL0     H 3274  10.487   5.803   1.079  0.2346  1.0257 -0.4812
  765MOL0     H 3275  10.261   5.741   1.042  1.4693  0.9850 -2.1703
  766MOL0     O 3276   6.905  11.067   7.518  0.9117  0.0375 -0.2586
  766MOL0     C 3277   6.871  11.174   7.466 -0.8341 -0.6425 -0.4356
  766MOL0     O 3278   6.748  11.232   7.466  0.9207  0.3053  0.0909
  766MOL0     C 3279   6.662  11.177   7.551  0.5490  0.2694  0.1871
  766MOL0     C 3280   6.540  11.136   7.504 -1.0624 -0.4479 -0.6408
  766MOL0     C 3281   6.438  11.093   7.593 -0.4575 -0.2510  0.6583
  766MOL0     C 3282   6.469  11.075   7.724 -0.2938 -0.2122 -0.0943
  766MOL0     O 3283   6.372  11.022   7.805 -0.1435  0.5665 -0.3933
  766MOL0     C 3284   6.304  11.123   7.880 -0.0843 -0.2843  0.3271
  766MOL0     C 3285   6.296  11.093   8.031 -0.5744  0.1661 -0.7174
  766MOL0     C 3286   6.231  11.205   8.112 -0.0025 -0.9974  0.0588
  766MOL0     C 3287   6.241  11.189   8.269  0.3637  0.0422  0.7310
  766MOL0     C 3288   6.247  11.329   8.337 -0.6696 -0.1394  0.6036
  766MOL0     C 3289   6.106  11.400   8.353 -0.0427  0.7184 -0.4284
  766MOL0     C 3290   6.127  11.536   8.420  0.2707  0.1978 -0.0220
  766MOL0     C 3291   6.243  11.607   8.350  0.5123 -0.5994  0.2718
  766MOL0     N 3292   6.257  11.742   8.378  0.5384  0.2874  0.8503
  766MOL0     C 3293   6.305  11.796   8.490  0.4808  0.5718  0.4065
  766MOL0     C 3294   6.316  11.927   8.454  0.6751  0.1053  0.3212
  766MOL0     C 3295   6.369  12.037   8.544 -0.1943 -0.0157 -0.6327
  766MOL0     C 3296   6.521  12.010   8.575 -0.5299  0.7828 -0.3518
  766MOL0     C 3297   6.585  12.123   8.661  0.4882  0.3104  0.6503
  766MOL0     C 3298   6.717  12.088   8.717 -0.7804  0.0354  0.4690
  766MOL0     O 3299   6.775  12.205   8.792 -0.3699  1.0077 -0.1244
  766MOL0     C 3300   6.915  12.212   8.828 -0.4054  0.0925  0.2829
  766MOL0     C 3301   6.969  12.327   8.873  0.2585  0.7497  0.2716
  766MOL0     C 3302   7.091  12.329   8.943 -0.3333 -0.7674  0.6425
  766MOL0     C 3303   7.134  12.461   8.996 -0.0956 -0.0710  0.5674
  766MOL0     C 3304   7.170  12.207   8.964  0.4655 -0.5232 -0.4732
  766MOL0     C 3305   7.305  12.194   9.033  0.4255  0.0220  0.0033
  766MOL0     O 3306   7.391  12.088   9.004 -0.8510 -0.1774 -0.1346
  766MOL0     C 3307   7.515  12.080   9.064 -0.0660 -1.1512 -0.0037
  766MOL0     C 3308   7.531  12.064   9.209 -0.2236  0.5045  0.0910
  766MOL0     C 3309   7.662  12.060   9.269 -0.0254  0.0611  0.7704
  766MOL0     C 3310   7.776  12.089   9.196  0.0670  0.4843 -0.0959
  766MOL0     O 3311   7.896  12.080   9.251 -1.2815 -0.8747 -0.5185
  766MOL0     C 3312   8.002  12.159   9.199 -0.6427 -0.1947 -0.0043
  766MOL0     C 3313   8.131  12.152   9.288  0.2268  0.5440  0.6441
  766MOL0     C 3314   8.254  12.189   9.204 -0.1288  0.9506  0.5967
  766MOL0     C 3315   8.391  12.182   9.283  0.2591  0.1929  0.0506
  766MOL0     C 3316   8.408  12.042   9.338  0.3090  0.8627 -0.2477
  766MOL0     C 3317   8.561  12.006   9.354  0.5615 -1.0042  0.1759
  766MOL0     C 3318   8.576  11.872   9.420 -0.1292  0.5464 -0.2904
  766MOL0     C 3319   8.721  11.836   9.442  0.6532  0.0789 -0.3437
  766MOL0    Cl 3320   8.807  11.839   9.282  0.0482  0.2600  0.2075
  766MOL0     C 3321   7.754  12.112   9.061  0.4425 -0.1695  0.1233
  766MOL0     C 3322   7.631  12.100   8.994 -0.0712  0.2057  0.4539
  766MOL0     O 3323   7.317  12.263   9.132 -0.5241 -0.0440 -0.4561
  766MOL0     C 3324   7.110  12.092   8.920 -0.7207 -0.0936 -0.7759
  766MOL0     C 3325   6.991  12.090   8.854  0.9538 -0.5917 -0.4571
  766MOL0     N 3326   6.271  11.950   8.318 -0.7617  0.0410  0.3269
  766MOL0     N 3327   6.230  11.830   8.284 -0.5032 -0.2555 -0.0879
  766MOL0     C 3328   6.594  11.112   7.777  0.7704  0.2089  0.0017
  766MOL0     C 3329   6.681  11.170   7.691 -0.7765 -0.1356  0.7026
  766MOL0     C 3330   6.983  11.239   7.393  0.0520  0.4894 -0.1014
  766MOL0     C 3331   7.114  11.205   7.423 -0.2844  0.3253 -0.3108
  766MOL0     C 3332   7.217  11.251   7.335  0.1262 -0.2577 -0.8072
  766MOL0     C 3333   7.180  11.336   7.228  0.8384 -0.2175 -0.4426
  766MOL0     O 3334   7.267  11.399   7.148  0.2437 -0.0697  0.3242
  766MOL0     C 3335   7.337  11.314   7.046  0.2222 -0.1256 -0.4543
  766MOL0     C 3336   7.421  11.400   6.954  0.1194  0.3653 -0.2434
  766MOL0     C 3337   7.339  11.507   6.872 -0.0987  0.3588 -0.2246
  766MOL0     C 3338   7.415  11.640   6.860  0.3144  0.3443 -0.6073
  766MOL0     C 3339   7.350  11.725   6.762 -0.1665 -0.4601  0.4660
  766MOL0     C 3340   7.300  11.782   6.665  0.2459  0.5673  0.0412
  766MOL0     C 3341   7.046  11.362   7.200 -0.6512  0.2777 -0.7664
  766MOL0     C 3342   6.949  11.320   7.287  0.2382  0.2758  0.1518
  766MOL0     H 3343   6.517  11.162   7.401 -1.1080  1.6416 -0.1491
  766MOL0     H 3344   6.341  11.060   7.556 -0.6419  3.2484 -2.6378
  766MOL0     H 3345   6.356  11.219   7.867 -1.2250  0.3941  0.6212
  766MOL0     H 3346   6.204  11.133   7.836 -0.1254  1.7560  0.7768
  766MOL0     H 3347   6.238  11.002   8.052  0.6852 -0.8793 -1.5801
  766MOL0     H 3348   6.395  11.063   8.066 -0.5464 -3.3456 -3.2830
  766MOL0     H 3349   6.282  11.299   8.090 -0.3126 -0.2147  2.3778
  766MOL0     H 3350   6.125  11.207   8.084  0.8038  4.9030 -4.2053
  766MOL0     H 3351   6.162  11.123   8.306  2.4056 -3.6075 -0.9079
  766MOL0     H 3352   6.334  11.137   8.294  0.2824 -0.1950  0.5441
  766MOL0     H 3353   6.286  11.300   8.435 -3.3304 -2.8144  1.0059
  766MOL0     H 3354   6.322  11.390   8.285 -2.4467 -1.0028 -3.3474
  766MOL0     H 3355   6.074  11.431   8.253 -2.7577  2.5953  0.8976
  766MOL0     H 3356   6.038  11.337   8.412  0.7975  1.3853  1.3109
  766MOL0     H 3357   6.035  11.594   8.404 -0.9025 -1.2603  1.0566
  766MOL0     H 3358   6.148  11.533   8.528 -3.0883  1.0055  0.7918
  766MOL0     H 3359   6.230  11.591   8.242 -2.4732  2.0548  0.0801
  766MOL0     H 3360   6.340  11.566   8.377  0.3789 -1.2218 -0.1831
  766MOL0     H 3361   6.314  11.745   8.586 -3.0770 -1.9444 -0.3818
  766MOL0     H 3362   6.359  12.134   8.494 -2.4584  0.3063  0.3223
  766MOL0     H 3363   6.308  12.044   8.635 -1.5063 -2.4474 -1.2189
  766MOL0     H 3364   6.575  11.987   8.483  1.5104 -1.5043  1.2886
  766MOL0     H 3365   6.525  11.921   8.639 -0.0265  0.0360 -1.3962
  766MOL0     H 3366   6.524  12.138   8.750 -1.1145 -2.1949  0.0826
  766MOL0     H 3367   6.591  12.218   8.608  0.4625  0.6261  1.2049
  766MOL0     H 3368   6.782  12.046   8.640  1.0672 -1.1139  2.5493
  766MOL0     H 3369   6.706  12.010   8.793  1.2318  1.1176  1.9507
  766MOL0     H 3370   6.919  12.421   8.854  1.0313  0.9673 -0.8159
  766MOL0     H 3371   7.179  12.441   9.094 -0.0959 -0.9032  0.4031
  766MOL0     H 3372   7.188  12.528   8.929 -1.8167  0.3154 -0.4962
  766MOL0     H 3373   7.048  12.525   9.018  1.4047  1.3032  2.8179
  766MOL0     H 3374   7.446  12.047   9.273  2.5899  0.2256  4.1508
  766MOL0     H 3375   7.672  12.053   9.377  1.1350 -1.0617  0.6097
  766MOL0     H 3376   8.012  12.135   9.093 -2.1961 -1.3301  0.0601
  766MOL0     H 3377   7.978  12.266   9.199  0.7809  0.2116 -2.6530
  766MOL0     H 3378   8.118  12.208   9.381 -0.0398 -1.8010  2.1082
  766MOL0     H 3379   8.139  12.045   9.308  3.0769  0.0765 -2.1406
  766MOL0     H 3380   8.241  12.287   9.156  3.5201  1.4437  0.3537
  766MOL0     H 3381   8.259  12.118   9.121  1.2922 -1.6886  2.7943
  766MOL0     H 3382   8.477  12.208   9.221  3.1187 -4.0530  1.7419
  766MOL0     H 3383   8.393  12.255   9.364 -2.1655 -0.3758  0.6914
  766MOL0     H 3384   8.353  11.973   9.273 -1.3278 -0.6821  2.5915
  766MOL0     H 3385   8.354  12.033   9.433  1.6507  0.3611  0.4866
  766MOL0     H 3386   8.606  11.987   9.256 -2.7440 -1.6282 -1.3540
  766MOL0     H 3387   8.619  12.084   9.405 -2.5279  0.7907  1.2170
  766MOL0     H 3388   8.532  11.788   9.366  0.5674  0.2484 -0.4100
  766MOL0     H 3389   8.523  11.875   9.516 -0.8089  1.9762 -0.6778
  766MOL0     H 3390   8.729  11.736   9.487 -0.7634 -0.4173 -1.1450
  766MOL0     H 3391   8.775  11.905   9.507 -1.1152  0.4867  0.7636
  766MOL0     H 3392   7.830  12.126   8.984 -1.2032  0.6328 -1.4272
  766MOL0     H 3393   7.635  12.107   8.886 -2.9273  2.0129  0.3513
  766MOL0     H 3394   7.170  12.003   8.932 -0.7077 -0.0269 -0.3079
  766MOL0     H 3395   6.942  12.000   8.819  0.2083 -1.1167  1.7709
  766MOL0     H 3396   6.617  11.090   7.880 -1.7353 -1.5091  0.2822
  766MOL0     H 3397   6.770  11.212   7.738 -1.0629  2.2707 -0.7343
  766MOL0     H 3398   7.150  11.144   7.505  0.7938 -1.7511 -2.2181
  766MOL0     H 3399   7.324  11.241   7.352  0.1671 -0.2955 -1.0843
  766MOL0     H 3400   7.393  11.234   7.096 -3.7191 -0.9831  3.0967
  766MOL0     H 3401   7.267  11.255   6.988 -0.3491  0.8100 -0.7425
  766MOL0     H 3402   7.474  11.339   6.881  0.9590  3.0875 -2.0921
  766MOL0     H 3403   7.491  11.452   7.020  0.1969  0.5467 -0.4633
  766MOL0     H 3404   7.246  11.528   6.925  0.1541 -0.6719  0.6717
  766MOL0     H 3405   7.324  11.465   6.772  1.1121 -2.3417  0.6203
  766MOL0     H 3406   7.512  11.613   6.818 -1.2140 -0.3505 -3.9699
  766MOL0     H 3407   7.431  11.689   6.957  2.2070  1.9009 -1.6182
  766MOL0     H 3408   7.258  11.816   6.573  0.5674 -0.3201 -0.4386
  766MOL0     H 3409   7.016  11.429   7.120 -1.0376  2.4762  1.1275
  766MOL0     H 3410   6.844  11.339   7.266  0.4884 -0.7278 -2.4039
  767MOL0     O 3411   6.933   2.389   2.771 -0.5958 -0.3427  0.3600
  767MOL0     C 3412   6.970   2.361   2.655 -0.2340 -0.3116 -0.4425
  767MOL0     O 3413   6.892   2.360   2.547  0.6141 -0.0737 -0.1519
  767MOL0     C 3414   6.759   2.402   2.552  0.6344 -0.3489  0.0477
  767MOL0     C 3415   6.669   2.385   2.658  0.0029 -0.5044  0.4245
  767MOL0     C 3416   6.541   2.446   2.642  0.8088 -0.2095 -0.7455
  767MOL0     C 3417   6.495   2.511   2.525 -0.8734 -0.0657 -0.6677
  767MOL0     O 3418   6.373   2.580   2.525  0.3048  0.1501  0.4010
  767MOL0     C 3419   6.260   2.503   2.569  0.1611  0.5247 -0.0695
  767MOL0     C 3420   6.146   2.510   2.463 -0.5037  0.4331 -0.7587
  767MOL0     C 3421   6.012   2.447   2.508  0.6013 -0.7088  0.3678
  767MOL0     C 3422   5.944   2.383   2.387  0.6943  1.1769  0.2943
  767MOL0     C 3423   5.809   2.314   2.414  1.1435 -0.9680  0.0078
  767MOL0     C 3424   5.751   2.249   2.282 -1.0330  0.0920 -0.1359
  767MOL0     C 3425   5.623   2.163   2.308  0.5904  0.0685 -0.5676
  767MOL0     C 3426   5.598   2.052   2.199  0.5708 -0.3493 -1.0827
  767MOL0     N 3427   5.461   1.997   2.206 -0.3884  0.3880  0.8937
  767MOL0     C 3428   5.361   2.025   2.119 -0.3949  0.3026  0.4125
  767MOL0     C 3429   5.256   1.970   2.173 -0.1356 -0.0221 -0.0538
  767MOL0     C 3430   5.116   1.993   2.131 -0.2067 -0.0432 -0.0315
  767MOL0     C 3431   5.030   1.864   2.144  0.3244 -0.6817  1.5389
  767MOL0     C 3432   4.913   1.877   2.045 -0.0932  0.3317 -0.0156
  767MOL0     C 3433   4.798   1.986   2.093 -0.2981  0.5530  0.4490
  767MOL0     O 3434   4.690   1.969   2.000  0.0392  0.0641  0.1496
  767MOL0     C 3435   4.584   2.063   2.000  0.2344  0.4793  0.9108
  767MOL0     C 3436   4.585   2.195   2.028 -0.9183  0.2405  0.7169
  767MOL0     C 3437   4.469   2.276   2.022 -0.8048  0.9602 -0.7645
  767MOL0     C 3438   4.485   2.421   2.046  0.3642  0.4629  0.0074
  767MOL0     C 3439   4.344   2.218   1.986  0.3732 -0.8683 -1.5775
  767MOL0     C 3440   4.216   2.298   2.010 -0.6454 -0.9186 -0.1625
  767MOL0     O 3441   4.193   2.353   2.131 -0.5003 -0.7957  0.0998
  767MOL0     C 3442   4.071   2.399   2.163 -0.1471 -0.5681  0.1728
  767MOL0     C 3443   3.989   2.309   2.231 -0.2717  0.1588 -0.0797
  767MOL0     C 3444   3.863   2.356   2.285 -0.6455 -0.2841  0.3361
  767MOL0     C 3445   3.823   2.484   2.264  0.2311  0.4509  0.6390
  767MOL0     O 3446   3.696   2.518   2.302 -0.3004  0.1416 -0.1402
  767MOL0     C 3447   3.707   2.606   2.413 -0.2832 -0.1789  0.7307
  767MOL0     C 3448   3.575   2.611   2.485  0.2703  0.0276  0.1029
  767MOL0     C 3449   3.551   2.479   2.565  0.3404  0.4403  0.2422
  767MOL0     C 3450   3.437   2.486   2.658  0.4133  0.4222 -0.6654
  767MOL0     C 3451   3.418   2.342   2.719  0.6087  0.2489  0.4512
  767MOL0     C 3452   3.332   2.346   2.856 -0.3569 -0.3188 -0.3497
  767MOL0     C 3453   3.180   2.379   2.823  0.9354  1.2291  0.1490
  767MOL0     C 3454   3.078   2.364   2.946  0.7088  0.6383  0.1097
  767MOL0    Cl 3455   3.034   2.204   2.991  0.0006 -0.0406 -0.2784
  767MOL0     C 3456   3.905   2.569   2.203 -0.4477  0.1796  1.1149
  767MOL0     C 3457   4.034   2.529   2.148  0.4189  0.1246 -0.3074
  767MOL0     O 3458   4.138   2.292   1.919  0.1152 -1.1405 -0.7483
  767MOL0     C 3459   4.345   2.084   1.944 -0.4283  0.0312  0.2902
  767MOL0     C 3460   4.461   2.006   1.958  0.2793 -0.3545  0.9511
  767MOL0     N 3461   5.285   1.915   2.293  0.1757  0.2475  0.5416
  767MOL0     N 3462   5.409   1.923   2.309 -0.3312  0.8473  0.1519
  767MOL0     C 3463   6.582   2.509   2.421 -0.5836 -0.0869  0.3409
  767MOL0     C 3464   6.714   2.466   2.438 -0.6223 -0.0239  0.6332
  767MOL0     C 3465   7.109   2.336   2.638  0.2834  0.0000 -0.4045
  767MOL0     C 3466   7.215   2.387   2.717 -0.1928  0.4407  0.0356
  767MOL0     C 3467   7.344   2.342   2.714 -0.1394 -0.4956  0.3168
  767MOL0     C 3468   7.381   2.249   2.623 -0.9483 -0.2553 -0.3078
  767MOL0     O 3469   7.514   2.225   2.631 -0.1485 -0.3238 -0.9078
  767MOL0     C 3470   7.563   2.105   2.579  0.0502 -1.2032 -0.0101
  767MOL0     C 3471   7.711   2.087   2.606  0.2345  0.9293 -0.1551
  767MOL0     C 3472   7.757   1.952   2.547 -1.2114  0.0781  0.2834
  767MOL0     C 3473   7.695   1.828   2.621  0.8373  0.5409 -0.5576
  767MOL0     C 3474   7.764   1.709   2.568 -0.1592 -0.6162 -0.0193
  767MOL0     C 3475   7.810   1.616   2.502 -0.0457 -0.2135  0.7955
  767MOL0     C 3476   7.289   2.192   2.542  0.1710 -0.1522 -0.4095
  767MOL0     C 3477   7.149   2.236   2.555 -1.0247 -0.0023 -0.3988
  767MOL0     H 3478   6.696   2.340   2.753 -1.5327  0.4954  1.4021
  767MOL0     H 3479   6.472   2.457   2.726 -0.6381 -1.0311 -1.7821
  767MOL0     H 3480   6.291   2.399   2.581  0.6092  0.7944  1.3060
  767MOL0     H 3481   6.211   2.537   2.660 -0.5294  2.3828 -1.0729
  767MOL0     H 3482   6.130   2.616   2.444  1.9416  0.2918 -5.1353
  767MOL0     H 3483   6.183   2.473   2.367 -0.9624  1.5650 -1.3853
  767MOL0     H 3484   6.021   2.365   2.580 -0.5037 -0.2044  1.1022
  767MOL0     H 3485   5.955   2.530   2.550  1.3582  1.4441 -2.4679
  767MOL0     H 3486   5.931   2.461   2.311 -0.1439 -0.2778 -1.1237
  767MOL0     H 3487   6.000   2.303   2.339  0.5541  3.0102 -3.2529
  767MOL0     H 3488   5.811   2.237   2.492  3.5472 -0.1374  0.8328
  767MOL0     H 3489   5.733   2.387   2.444  0.5050 -2.0448  1.0995
  767MOL0     H 3490   5.715   2.341   2.234  0.3816  0.2046 -1.0546
  767MOL0     H 3491   5.830   2.203   2.223  1.4198  0.2633  2.7969
  767MOL0     H 3492   5.629   2.117   2.407 -2.7676  0.3398 -0.1241
  767MOL0     H 3493   5.533   2.224   2.310  0.4791 -0.0714 -1.3171
  767MOL0     H 3494   5.675   1.977   2.220  0.0295 -0.2691  1.5048
  767MOL0     H 3495   5.619   2.095   2.101  1.7958 -2.7088 -1.9334
  767MOL0     H 3496   5.366   2.075   2.022 -1.1402 -0.8731 -0.2568
  767MOL0     H 3497   5.065   2.062   2.199 -1.2754  0.5112 -1.3690
  767MOL0     H 3498   5.125   2.032   2.030  1.7916 -1.4539 -0.4633
  767MOL0     H 3499   5.004   1.838   2.248 -3.1239 -3.2459  0.2553
  767MOL0     H 3500   5.099   1.788   2.106 -1.6597 -1.0674 -1.6869
  767MOL0     H 3501   4.855   1.785   2.032 -3.9303  1.7572  4.2484
  767MOL0     H 3502   4.959   1.907   1.950 -0.1015 -2.2047 -0.8830
  767MOL0     H 3503   4.840   2.086   2.077  0.0654  0.3740  0.2865
  767MOL0     H 3504   4.767   1.982   2.198 -2.9374  1.4574 -0.2247
  767MOL0     H 3505   4.682   2.242   2.037 -0.1966 -1.2673  1.0622
  767MOL0     H 3506   4.589   2.454   2.046 -0.4533  3.4890  2.0914
  767MOL0     H 3507   4.416   2.480   1.985 -0.5350 -1.5200 -0.9719
  767MOL0     H 3508   4.455   2.446   2.148 -0.5189 -0.8778  0.1022
  767MOL0     H 3509   4.024   2.209   2.254  4.3470  0.5521 -3.8062
  767MOL0     H 3510   3.800   2.287   2.341  0.9986 -0.1332  2.5022
  767MOL0     H 3511   3.781   2.568   2.484  1.4320 -0.3955 -1.0939
  767MOL0     H 3512   3.742   2.699   2.368 -2.9371 -1.2521 -4.2589
  767MOL0     H 3513   3.561   2.700   2.547  1.8152  1.4116 -1.4515
  767MOL0     H 3514   3.502   2.611   2.403  1.5174  0.4700 -1.0412
  767MOL0     H 3515   3.643   2.458   2.621  0.9108 -1.2617 -1.2288
  767MOL0     H 3516   3.530   2.403   2.489 -2.6388  0.9374  0.4547
  767MOL0     H 3517   3.455   2.554   2.742 -0.1746 -0.2181 -0.0029
  767MOL0     H 3518   3.341   2.524   2.624 -1.1275  0.1672  2.9093
  767MOL0     H 3519   3.514   2.292   2.736  1.5284  1.0734 -1.8597
  767MOL0     H 3520   3.360   2.285   2.647  0.1508  0.3702  0.7186
  767MOL0     H 3521   3.332   2.250   2.907  1.8648  0.9004  2.2054
  767MOL0     H 3522   3.367   2.417   2.931  1.5507 -1.7198  0.1571
  767MOL0     H 3523   3.136   2.317   2.744  0.7270 -0.9412  1.8387
  767MOL0     H 3524   3.161   2.478   2.782  0.4176 -0.2889 -3.7741
  767MOL0     H 3525   2.989   2.414   2.907  0.0597 -0.2145  0.4712
  767MOL0     H 3526   3.115   2.429   3.026  1.1426  0.1404  0.3182
  767MOL0     H 3527   3.873   2.672   2.189  2.1480  1.2385  2.4361
  767MOL0     H 3528   4.097   2.612   2.115  1.6228 -2.0099 -3.9795
  767MOL0     H 3529   4.256   2.034   1.907 -1.2342 -0.8826  3.1733
  767MOL0     H 3530   4.460   1.900   1.937 -3.9058 -0.9257  2.9204
  767MOL0     H 3531   6.543   2.558   2.332  2.5344  0.1290 -1.0218
  767MOL0     H 3532   6.783   2.474   2.354 -1.6954  0.9070 -0.1856
  767MOL0     H 3533   7.181   2.461   2.788 -1.5404 -2.2237  2.4041
  767MOL0     H 3534   7.412   2.389   2.785 -2.9362  1.3583  1.9762
  767MOL0     H 3535   7.510   2.025   2.632 -0.2778  0.7762  2.8710
  767MOL0     H 3536   7.535   2.100   2.473 -0.4376 -1.7829  0.1393
  767MOL0     H 3537   7.723   2.078   2.714 -1.3590 -1.5142 -0.0885
  767MOL0     H 3538   7.766   2.176   2.574 -0.4680  2.6109  2.9547
  767MOL0     H 3539   7.865   1.938   2.557 -1.2437  0.2148  0.8550
  767MOL0     H 3540   7.737   1.953   2.439 -1.4904  2.3221  0.3272
  767MOL0     H 3541   7.587   1.818   2.603  0.0285  0.9419  3.2510
  767MOL0     H 3542   7.712   1.831   2.729 -2.4510  1.8272  0.0699
  767MOL0     H 3543   7.865   1.549   2.439  1.1839  2.4340 -1.1649
  767MOL0     H 3544   7.315   2.113   2.473 -1.1247 -1.4392  0.5089
  767MOL0     H 3545   7.075   2.191   2.488  2.3803 -2.6331 -2.7641
  768MOL0     O 3546   6.434   8.415   3.912 -0.5162 -1.1371 -0.4464
  768MOL0     C 3547   6.448   8.530   3.959  0.1496 -0.4280  0.3030
  768MOL0     O 3548   6.354   8.627   3.962 -0.1100 -0.7576 -0.8263
  768MOL0     C 3549   6.242   8.613   3.880  0.9193  0.3956 -0.4629
  768MOL0     C 3550   6.250   8.595   3.740 -0.1976 -0.0614 -0.3746
  768MOL0     C 3551   6.125   8.588   3.673 -0.3575 -0.6578  0.5094
  768MOL0     C 3552   6.002   8.591   3.745 -1.0126  0.2880 -0.6048
  768MOL0     O 3553   5.887   8.588   3.671 -0.5430  0.2429  0.5390
  768MOL0     C 3554   5.788   8.494   3.727  0.2204  0.3015  0.3778
  768MOL0     C 3555   5.651   8.565   3.715  1.0163 -0.3662  0.1670
  768MOL0     C 3556   5.606   8.566   3.565 -0.5716  1.1082 -0.4672
  768MOL0     C 3557   5.529   8.694   3.529 -0.7167  0.2683 -0.4347
  768MOL0     C 3558   5.390   8.705   3.596  0.4490 -0.1289 -0.1671
  768MOL0     C 3559   5.313   8.830   3.558 -0.4397 -0.2396 -0.7422
  768MOL0     C 3560   5.184   8.835   3.638 -0.0052  0.4184 -0.1239
  768MOL0     C 3561   5.095   8.970   3.621 -0.0767  0.5852  0.7248
  768MOL0     N 3562   5.011   8.974   3.500 -0.0363  0.1541  0.2649
  768MOL0     C 3563   5.055   9.031   3.379 -0.1823 -0.2687  0.1106
  768MOL0     C 3564   4.944   9.021   3.301 -0.2942 -0.2141 -0.1181
  768MOL0     C 3565   4.932   9.069   3.159  0.9091 -0.0011 -0.1469
  768MOL0     C 3566   4.857   8.964   3.070  0.6053 -1.0803 -1.3808
  768MOL0     C 3567   4.894   8.994   2.925 -0.6629  0.1867 -1.0861
  768MOL0     C 3568   4.824   8.902   2.822 -0.0546 -0.3032  0.1315
  768MOL0     O 3569   4.680   8.908   2.854  0.2434 -0.2935 -0.0677
  768MOL0     C 3570   4.578   8.897   2.758 -0.3697  1.0656 -0.3427
  768MOL0     C 3571   4.539   8.773   2.710 -0.2155 -1.2504 -0.0661
  768MOL0     C 3572   4.423   8.765   2.631  0.3895  0.6565 -0.7529
  768MOL0     C 3573   4.365   8.627   2.597 -0.4112 -0.3036 -0.9219
  768MOL0     C 3574   4.348   8.883   2.612  0.1396  0.3617  0.4163
  768MOL0     C 3575   4.217   8.898   2.539  0.5226 -0.4324  0.0251
  768MOL0     O 3576   4.141   9.011   2.575 -0.2205  0.0929 -0.8893
  768MOL0     C 3577   4.004   9.003   2.566 -0.2669  1.0237 -0.3457
  768MOL0     C 3578   3.943   8.903   2.639 -0.3035 -0.1853  0.0608
  768MOL0     C 3579   3.802   8.890   2.644  0.2545  0.6638  0.3118
  768MOL0     C 3580   3.720   8.979   2.568  0.1328  0.3149 -0.3375
  768MOL0     O 3581   3.587   8.969   2.562  0.0446 -0.9822 -0.1743
  768MOL0     C 3582   3.524   8.854   2.613 -0.6475  0.1502 -0.5906
  768MOL0     C 3583   3.375   8.880   2.617 -0.1745  0.3114 -0.1227
  768MOL0     C 3584   3.318   8.883   2.472  0.1896 -0.6957  0.1528
  768MOL0     C 3585   3.168   8.907   2.483  1.3278  0.2236 -0.3221
  768MOL0     C 3586   3.104   8.943   2.347  0.7609  0.2969  0.6398
  768MOL0     C 3587   2.952   8.950   2.345 -0.0283  0.4129 -0.0893
  768MOL0     C 3588   2.887   9.057   2.438 -0.3920 -0.2482  0.6092
  768MOL0     C 3589   2.742   9.076   2.400  0.5986  0.7544 -0.3959
  768MOL0    Cl 3590   2.682   9.234   2.455  0.3905  0.3336  0.3564
  768MOL0     C 3591   3.787   9.085   2.504 -0.0893 -0.0487  0.1130
  768MOL0     C 3592   3.930   9.100   2.500 -0.7757  0.6142 -0.0785
  768MOL0     O 3593   4.176   8.805   2.470 -0.2042 -0.4114  0.0662
  768MOL0     C 3594   4.406   9.005   2.658  0.4986 -0.7264  0.4025
  768MOL0     C 3595   4.520   9.015   2.727  0.1492  0.1831 -0.0917
  768MOL0     N 3596   4.847   8.941   3.369  0.2879 -0.3430 -0.6152
  768MOL0     N 3597   4.884   8.914   3.489  0.2358 -0.1205 -1.0129
  768MOL0     C 3598   6.005   8.614   3.888  0.0224  0.1066 -0.0042
  768MOL0     C 3599   6.126   8.619   3.956  0.1942 -0.0127  0.2030
  768MOL0     C 3600   6.575   8.552   4.027  0.7110 -0.7246 -0.7594
  768MOL0     C 3601   6.684   8.457   4.029 -0.6445  0.9108  0.1885
  768MOL0     C 3602   6.807   8.469   4.095 -0.5100 -1.0746  1.6119
  768MOL0     C 3603   6.832   8.590   4.164  0.5299 -0.2773 -0.0851
  768MOL0     O 3604   6.944   8.607   4.247  0.1667 -0.8592  0.1446
  768MOL0     C 3605   7.073   8.579   4.188 -0.4968 -0.3459 -0.8270
  768MOL0     C 3606   7.114   8.436   4.225  0.2322  0.0694  0.0258
  768MOL0     C 3607   7.260   8.406   4.216  0.2514  1.3036 -0.3485
  768MOL0     C 3608   7.292   8.375   4.068 -1.4583 -0.2624 -0.3876
  768MOL0     C 3609   7.299   8.486   3.977 -0.1883  0.2171  0.5925
  768MOL0     C 3610   7.310   8.592   3.908 -0.6993  0.4234  0.9519
  768MOL0     C 3611   6.733   8.687   4.160  0.6099 -0.3688  0.2340
  768MOL0     C 3612   6.609   8.671   4.094  0.5073 -0.4407 -0.2237
  768MOL0     H 3613   6.348   8.585   3.694 -0.1632 -6.8989  0.2595
  768MOL0     H 3614   6.127   8.582   3.565 -1.5897  1.9646  0.2655
  768MOL0     H 3615   5.805   8.399   3.675  4.7573  0.5560  0.9577
  768MOL0     H 3616   5.804   8.466   3.831 -2.3767 -1.6510  0.3341
  768MOL0     H 3617   5.571   8.516   3.772  1.4381 -0.7149  0.4682
  768MOL0     H 3618   5.663   8.666   3.755 -0.4537  0.3728 -1.1436
  768MOL0     H 3619   5.692   8.557   3.498 -0.1339 -0.2091  0.2546
  768MOL0     H 3620   5.547   8.478   3.541 -0.1846  1.1837 -1.7758
  768MOL0     H 3621   5.596   8.775   3.557 -2.4350  0.8432  2.4412
  768MOL0     H 3622   5.509   8.696   3.421  0.8047  0.2269 -0.7457
  768MOL0     H 3623   5.336   8.611   3.583  0.2243 -0.0779  0.3921
  768MOL0     H 3624   5.405   8.708   3.704  1.2769 -0.6292 -0.2558
  768MOL0     H 3625   5.382   8.907   3.594 -0.1656 -1.3792  1.3340
  768MOL0     H 3626   5.298   8.831   3.450 -1.5786 -1.7741 -0.6315
  768MOL0     H 3627   5.131   8.753   3.589 -0.3424  2.6088 -3.8232
  768MOL0     H 3628   5.204   8.810   3.743  1.3711  1.0442 -0.2244
  768MOL0     H 3629   5.168   9.051   3.618  0.9494 -0.3317 -0.1942
  768MOL0     H 3630   5.036   8.983   3.712  0.6824 -2.4003  1.7934
  768MOL0     H 3631   5.133   9.103   3.355 -0.6650 -0.3946 -2.0683
  768MOL0     H 3632   4.889   9.170   3.161  1.7765  0.4357  3.0611
  768MOL0     H 3633   5.030   9.100   3.121  1.3268  0.5209  1.2724
  768MOL0     H 3634   4.751   8.974   3.096  1.3593  2.9694  1.0056
  768MOL0     H 3635   4.889   8.862   3.092  1.0863 -0.6288  0.0782
  768MOL0     H 3636   5.002   8.979   2.923 -0.3326  2.3262 -1.5750
  768MOL0     H 3637   4.866   9.098   2.906  0.5911  0.7657  0.0707
  768MOL0     H 3638   4.859   8.798   2.824 -0.4309 -0.4635  3.1223
  768MOL0     H 3639   4.843   8.944   2.723 -0.8032 -0.8665 -0.2605
  768MOL0     H 3640   4.591   8.681   2.735 -0.2378 -1.1344  0.4170
  768MOL0     H 3641   4.428   8.555   2.650 -0.1823  0.7140  0.2369
  768MOL0     H 3642   4.267   8.607   2.641  1.1055 -0.9275  2.6053
  768MOL0     H 3643   4.361   8.598   2.492 -1.9853 -3.0184 -0.1972
  768MOL0     H 3644   4.003   8.837   2.701 -1.1120 -3.9266 -2.8109
  768MOL0     H 3645   3.753   8.810   2.698 -2.0027  0.7850 -1.4066
  768MOL0     H 3646   3.546   8.760   2.563  0.1871  0.4052 -0.7175
  768MOL0     H 3647   3.559   8.832   2.714  0.2538  0.1567 -0.8957
  768MOL0     H 3648   3.325   8.798   2.671  0.2752  1.1980  1.7132
  768MOL0     H 3649   3.354   8.966   2.681  1.0570 -1.1958  2.4786
  768MOL0     H 3650   3.346   8.804   2.402 -2.5764 -1.6247 -0.0479
  768MOL0     H 3651   3.352   8.980   2.434 -0.4847  0.2969  1.9475
  768MOL0     H 3652   3.113   8.815   2.507  0.8093  0.5549 -0.2258
  768MOL0     H 3653   3.134   8.985   2.552 -0.1055 -2.1973  1.9197
  768MOL0     H 3654   3.129   8.863   2.276  0.8450  1.6811 -0.9698
  768MOL0     H 3655   3.143   9.036   2.304  0.1324  0.0176 -0.6026
  768MOL0     H 3656   2.924   8.972   2.242  1.3987 -2.6044 -1.2249
  768MOL0     H 3657   2.910   8.854   2.377 -0.0478  0.4066 -0.1333
  768MOL0     H 3658   2.951   9.145   2.429 -0.7080 -0.1963 -1.5184
  768MOL0     H 3659   2.884   9.019   2.541  3.0520  2.7266  2.0315
  768MOL0     H 3660   2.681   8.990   2.431  1.9862 -1.2607 -2.8273
  768MOL0     H 3661   2.726   9.073   2.292 -0.1803  0.5945 -0.2790
  768MOL0     H 3662   3.735   9.173   2.469  1.2704  1.3277  1.3883
  768MOL0     H 3663   3.999   9.173   2.458  1.2079  0.0966  2.0633
  768MOL0     H 3664   4.350   9.097   2.640 -0.4498 -1.7397 -2.3311
  768MOL0     H 3665   4.559   9.106   2.772  2.6979 -1.1843  0.6386
  768MOL0     H 3666   5.917   8.616   3.950  0.5548 -1.0625  0.8173
  768MOL0     H 3667   6.131   8.636   4.064  0.9035  1.3902 -0.0246
  768MOL0     H 3668   6.668   8.368   3.970  1.5226  0.0207  0.8464
  768MOL0     H 3669   6.876   8.386   4.084  0.3856 -0.2163  0.5559
  768MOL0     H 3670   7.075   8.601   4.081 -0.0766  0.2330 -0.7036
  768MOL0     H 3671   7.144   8.644   4.240 -3.2617  0.3621  2.4590
  768MOL0     H 3672   7.048   8.374   4.163 -1.0920  1.6432 -0.1971
  768MOL0     H 3673   7.096   8.422   4.331 -0.6493 -3.0836 -0.4331
  768MOL0     H 3674   7.267   8.315   4.277 -3.7759  0.9119 -0.2302
  768MOL0     H 3675   7.325   8.488   4.251  1.2013  0.4343 -0.0256
  768MOL0     H 3676   7.219   8.306   4.025  1.3259 -3.5056 -0.3064
  768MOL0     H 3677   7.392   8.333   4.060 -1.8701 -1.0469 -1.9782
  768MOL0     H 3678   7.325   8.686   3.860  0.0623  0.0158  0.3904
  768MOL0     H 3679   6.762   8.775   4.217  1.5224  0.8584 -1.9675
  768MOL0     H 3680   6.538   8.751   4.113  1.3542 -0.1302  1.9241
  769MOL0     O 3681   7.491   6.439   9.386 -0.2966 -0.6055 -0.1039
  769MOL0     C 3682   7.424   6.546   9.387 -0.6130 -0.3464  0.3894
  769MOL0     O 3683   7.483   6.676   9.366 -0.0873  0.2702 -0.7632
  769MOL0     C 3684   7.623   6.682   9.360 -0.0620 -0.0438  0.2567
  769MOL0     C 3685   7.691   6.743   9.464 -0.5819 -0.1738 -0.2474
  769MOL0     C 3686   7.830   6.766   9.465 -1.2476 -1.0335 -0.0928
  769MOL0     C 3687   7.903   6.730   9.350  0.9834  0.2646 -0.9226
  769MOL0     O 3688   8.037   6.749   9.341 -0.1774 -0.2272  0.6760
  769MOL0     C 3689   8.081   6.810   9.217 -0.4795  0.9296 -0.5641
  769MOL0     C 3690   8.211   6.886   9.216  0.0669 -0.6952 -0.4721
  769MOL0     C 3691   8.337   6.792   9.236 -0.3895 -0.1303 -0.3209
  769MOL0     C 3692   8.378   6.760   9.382  0.5398 -0.5622  0.7804
  769MOL0     C 3693   8.507   6.682   9.385  0.0236 -0.5545 -0.7018
  769MOL0     C 3694   8.504   6.600   9.505  0.7801  0.3302  0.5241
  769MOL0     C 3695   8.652   6.570   9.554  0.0995 -0.2791  0.2259
  769MOL0     C 3696   8.665   6.559   9.703 -0.4654  0.2289 -0.0641
  769MOL0     N 3697   8.790   6.492   9.744 -0.8535  0.0495  1.4847
  769MOL0     C 3698   8.824   6.361   9.738 -0.2346  0.7523 -0.1317
  769MOL0     C 3699   8.960   6.351   9.760 -0.2892 -0.9560  0.3021
  769MOL0     C 3700   9.052   6.229   9.773  0.8134 -0.0856 -0.3121
  769MOL0     C 3701   9.068   6.211   9.925 -0.4758  1.2824 -0.1068
  769MOL0     C 3702   9.154   6.109   9.990 -0.7764  0.4131 -0.1222
  769MOL0     C 3703   9.304   6.142   9.966 -0.0315 -0.2203  0.8630
  769MOL0     O 3704   9.384   6.035  10.019 -0.1281  0.1684 -0.4069
  769MOL0     C 3705   9.506   6.023   9.971  0.6476  0.4169 -0.2064
  769MOL0     C 3706   9.571   5.912  10.024 -1.2409 -0.7162 -0.8916
  769MOL0     C 3707   9.700   5.873   9.984 -0.1494  0.5053  0.2385
  769MOL0     C 3708   9.767   5.748  10.056 -0.1674  0.7663 -0.4766
  769MOL0     C 3709   9.764   5.963   9.889 -0.5649 -0.6125  0.2231
  769MOL0     C 3710   9.902   5.943   9.840  1.3071 -0.6594 -0.6839
  769MOL0     O 3711   9.972   6.058   9.807  0.1615  0.9729 -0.2314
  769MOL0     C 3712  10.073   6.040   9.721 -0.1129 -0.4585  1.4793
  769MOL0     C 3713  10.065   6.106   9.596 -0.7477  0.4222 -0.6329
  769MOL0     C 3714  10.161   6.085   9.493  0.1715 -0.2761 -0.1266
  769MOL0     C 3715  10.281   6.020   9.531 -0.2986 -0.4757 -0.3238
  769MOL0     O 3716  10.374   5.997   9.433 -0.1951 -0.4627  0.0809
  769MOL0     C 3717  10.506   5.946   9.474 -0.3998  0.6527 -0.6994
  769MOL0     C 3718  10.596   5.937   9.354 -0.5124 -0.1543 -0.1722
  769MOL0     C 3719  10.732   5.868   9.377 -0.4922 -0.3486  0.3637
  769MOL0     C 3720  10.833   5.882   9.260  0.3800 -0.5742  0.1896
  769MOL0     C 3721  10.969   5.832   9.311 -0.2596  0.1654 -0.3413
  769MOL0     C 3722  11.090   5.876   9.230 -0.3076 -0.3138  0.4164
  769MOL0     C 3723  11.117   6.028   9.216  0.3130 -0.2855  0.2873
  769MOL0     C 3724  11.254   6.043   9.139 -0.5957  0.1595 -0.8023
  769MOL0    Cl 3725  11.257   6.212   9.094  0.5343  0.0896  0.2329
  769MOL0     C 3726  10.300   5.967   9.665 -0.0721  0.5235 -0.1002
  769MOL0     C 3727  10.198   5.985   9.758  0.5186  0.9146  0.4319
  769MOL0     O 3728   9.939   5.828   9.813 -0.0197  0.0322 -0.2157
  769MOL0     C 3729   9.697   6.073   9.841 -0.8326 -0.1288 -0.0857
  769MOL0     C 3730   9.567   6.104   9.887 -0.3498  0.1485 -0.5261
  769MOL0     N 3731   8.999   6.488   9.777  0.3674  0.3911 -0.7927
  769MOL0     N 3732   8.900   6.564   9.777 -0.5684 -0.0977  0.4742
  769MOL0     C 3733   7.831   6.658   9.242  0.9053  0.1142  0.1485
  769MOL0     C 3734   7.694   6.634   9.249 -0.6273  0.1506 -0.2965
  769MOL0     C 3735   7.283   6.545   9.406 -0.8059 -0.0471  0.4530
  769MOL0     C 3736   7.208   6.427   9.455  0.1670 -0.6299  0.1617
  769MOL0     C 3737   7.070   6.426   9.486  0.7041 -0.1003  0.2730
  769MOL0     C 3738   6.992   6.547   9.470 -0.3060 -1.3150  0.2642
  769MOL0     O 3739   6.859   6.562   9.488 -0.7692 -0.1640 -0.6142
  769MOL0     C 3740   6.772   6.454   9.527  0.4221  0.2014  0.0154
  769MOL0     C 3741   6.754   6.435   9.680 -0.2783 -0.4370  0.2762
  769MOL0     C 3742   6.645   6.522   9.744 -0.5837 -0.4076 -0.1870
  769MOL0     C 3743   6.633   6.475   9.895  0.1452 -0.3274  1.1911
  769MOL0     C 3744   6.558   6.578   9.969 -0.0992  0.0065 -0.1440
  769MOL0     C 3745   6.480   6.652  10.028 -0.5649  0.0824 -0.9291
  769MOL0     C 3746   7.065   6.660   9.433 -0.4696 -0.0874 -0.0695
  769MOL0     C 3747   7.205   6.654   9.396  0.1920 -0.5292 -0.2679
  769MOL0     H 3748   7.651   6.789   9.553  1.3766 -1.6576  1.5032
  769MOL0     H 3749   7.877   6.803   9.555 -0.2830 -2.6956  0.1220
  769MOL0     H 3750   8.080   6.726   9.147  1.9917  0.1708  0.2078
  769MOL0     H 3751   8.011   6.879   9.170  0.0300  1.0444 -1.1692
  769MOL0     H 3752   8.226   6.931   9.118  1.0902 -2.1823 -1.0361
  769MOL0     H 3753   8.213   6.969   9.287  0.6948 -0.3057 -0.9383
  769MOL0     H 3754   8.321   6.693   9.193 -0.0143 -0.5266  0.4414
  769MOL0     H 3755   8.417   6.847   9.186  0.3244 -0.6418  0.2406
  769MOL0     H 3756   8.395   6.854   9.434 -0.1839  0.3637 -0.6138
  769MOL0     H 3757   8.289   6.709   9.420 -1.9661 -0.3250 -4.0179
  769MOL0     H 3758   8.535   6.629   9.294  0.7284  0.3977 -1.0594
  769MOL0     H 3759   8.584   6.760   9.385 -0.1119 -0.3919  0.5085
  769MOL0     H 3760   8.450   6.638   9.592  3.2900  3.1891  0.9977
  769MOL0     H 3761   8.450   6.509   9.477  1.7081 -0.5345  1.4459
  769MOL0     H 3762   8.676   6.476   9.504 -1.9023  0.5687 -2.5586
  769MOL0     H 3763   8.726   6.645   9.522  1.1517 -1.4180 -0.1071
  769MOL0     H 3764   8.583   6.496   9.740 -0.5585  0.0010 -0.6529
  769MOL0     H 3765   8.668   6.658   9.749 -0.7682  0.6546 -0.9432
  769MOL0     H 3766   8.763   6.275   9.713 -1.2775  1.6477 -0.7634
  769MOL0     H 3767   8.997   6.143   9.735 -2.3970  0.9703  1.5084
  769MOL0     H 3768   9.148   6.227   9.720  0.3040  0.3753 -1.2727
  769MOL0     H 3769   8.970   6.185   9.966  0.9978 -4.0409  0.8714
  769MOL0     H 3770   9.099   6.306   9.968 -0.5456  0.6192  1.4942
  769MOL0     H 3771   9.137   6.010   9.945 -0.4742  0.2032  0.2194
  769MOL0     H 3772   9.136   6.112  10.098  2.2425 -0.2694  0.4938
  769MOL0     H 3773   9.342   6.238  10.003 -1.2441  0.7288 -0.2864
  769MOL0     H 3774   9.314   6.155   9.858  1.4245 -0.2078  0.9739
  769MOL0     H 3775   9.522   5.844  10.094 -2.7036 -1.4787 -2.5756
  769MOL0     H 3776   9.820   5.778  10.147  1.5392 -1.7696 -0.5284
  769MOL0     H 3777   9.696   5.673  10.089  2.7677 -1.7629  0.5895
  769MOL0     H 3778   9.840   5.694   9.995  1.4912  0.5633  1.5671
  769MOL0     H 3779   9.972   6.154   9.568 -1.4850 -1.2250 -1.1015
  769MOL0     H 3780  10.144   6.128   9.394 -2.0873  1.2716  0.8477
  769MOL0     H 3781  10.553   6.003   9.555  0.3531  1.5247 -1.7247
  769MOL0     H 3782  10.490   5.846   9.514  1.5975  1.2453  1.8605
  769MOL0     H 3783  10.542   5.869   9.288  1.1698 -1.6490 -0.0959
  769MOL0     H 3784  10.616   6.036   9.311 -0.8216  1.1666  2.5183
  769MOL0     H 3785  10.715   5.765   9.411 -2.7104 -0.6304 -1.3728
  769MOL0     H 3786  10.773   5.924   9.461 -2.2795  1.7244 -0.0558
  769MOL0     H 3787  10.796   5.816   9.181  0.9359  0.4155 -0.9404
  769MOL0     H 3788  10.831   5.984   9.220  1.0690 -1.0351 -1.0831
  769MOL0     H 3789  10.976   5.723   9.313  2.9671  0.2306 -1.6854
  769MOL0     H 3790  10.989   5.877   9.409 -0.4791  0.2166 -0.3201
  769MOL0     H 3791  11.174   5.835   9.286 -0.5651 -0.2135  0.8817
  769MOL0     H 3792  11.087   5.832   9.130 -1.3791  1.9568 -0.6217
  769MOL0     H 3793  11.112   6.078   9.313 -3.0126 -1.2456  0.7427
  769MOL0     H 3794  11.017   6.049   9.177  0.4733  0.7412  0.3926
  769MOL0     H 3795  11.241   5.980   9.051 -0.3766 -4.9080  2.3863
  769MOL0     H 3796  11.337   6.026   9.208 -0.3220  2.5718 -0.4707
  769MOL0     H 3797  10.384   5.912   9.706 -1.1812  0.4659  2.2867
  769MOL0     H 3798  10.201   5.936   9.855 -2.5447 -0.5255 -0.0788
  769MOL0     H 3799   9.733   6.151   9.774  4.7730 -1.5032  0.7964
  769MOL0     H 3800   9.526   6.193   9.841 -1.9454  1.0853  2.4186
  769MOL0     H 3801   7.885   6.616   9.158  0.4297  0.3751 -0.2944
  769MOL0     H 3802   7.635   6.590   9.169 -0.7546  1.0274 -0.6981
  769MOL0     H 3803   7.268   6.337   9.459  0.2725 -0.5710 -0.0899
  769MOL0     H 3804   7.005   6.347   9.520  0.2163 -0.4033 -1.3108
  769MOL0     H 3805   6.674   6.472   9.483 -0.1023 -1.1000  0.5810
  769MOL0     H 3806   6.809   6.360   9.484  0.0235 -0.2726  0.6936
  769MOL0     H 3807   6.851   6.458   9.726 -0.0163 -3.6245  1.5381
  769MOL0     H 3808   6.734   6.333   9.711 -0.0427  0.0644  2.1824
  769MOL0     H 3809   6.550   6.508   9.692  0.2770 -2.9872 -1.2559
  769MOL0     H 3810   6.666   6.629   9.733 -2.3733 -0.2171 -2.5538
  769MOL0     H 3811   6.732   6.462   9.940  0.4895  2.8649  1.6027
  769MOL0     H 3812   6.580   6.380   9.904 -4.1043  1.4513 -1.8276
  769MOL0     H 3813   6.415   6.717  10.082 -2.0608  0.6382 -3.2596
  769MOL0     H 3814   7.021   6.759   9.432 -0.5389 -0.1151  0.3255
  769MOL0     H 3815   7.249   6.752   9.380  0.0872 -0.7707 -2.3581
  770MOL0     O 3816   1.813  10.726   7.943 -0.1614  0.2997  0.0359
  770MOL0     C 3817   1.791  10.777   7.834  0.2300  0.7149 -0.1589
  770MOL0     O 3818   1.845  10.891   7.784  1.0360  0.4650 -0.0095
  770MOL0     C 3819   1.950  10.942   7.847  0.0349  0.1893  0.3749
  770MOL0     C 3820   1.954  11.076   7.864 -0.4158  0.0406 -0.3373
  770MOL0     C 3821   2.062  11.146   7.926 -0.1055  1.1057 -0.4719
  770MOL0     C 3822   2.178  11.070   7.962  0.5318  1.0257  0.0483
  770MOL0     O 3823   2.283  11.133   8.016  0.4532  0.4651 -0.1619
  770MOL0     C 3824   2.393  11.054   8.070 -0.0747 -0.7567  0.8424
  770MOL0     C 3825   2.505  11.152   8.131 -0.3535  0.4396  0.3988
  770MOL0     C 3826   2.629  11.080   8.178 -0.2591  0.3765 -0.4191
  770MOL0     C 3827   2.756  11.122   8.104  0.2678  0.1785 -0.3003
  770MOL0     C 3828   2.877  11.034   8.155  0.7903  0.4803  0.0613
  770MOL0     C 3829   2.953  11.087   8.279  0.0255 -0.6688 -0.6712
  770MOL0     C 3830   3.033  11.216   8.253  0.2224 -0.2564 -0.2761
  770MOL0     C 3831   3.106  11.287   8.372 -0.3103  0.2990 -0.0597
  770MOL0     N 3832   3.183  11.404   8.320  0.3614 -0.2521  0.0016
  770MOL0     C 3833   3.155  11.542   8.345  0.1842 -1.2005  0.4568
  770MOL0     C 3834   3.244  11.617   8.278 -0.7753 -0.0016 -0.2480
  770MOL0     C 3835   3.268  11.762   8.280  0.1775  0.0505  0.0901
  770MOL0     C 3836   3.229  11.841   8.412  0.5054  0.9194  1.1853
  770MOL0     C 3837   3.326  11.814   8.532 -0.1826  0.0228 -0.0222
  770MOL0     C 3838   3.272  11.887   8.654 -0.0675 -0.3663  0.1386
  770MOL0     O 3839   3.143  11.839   8.677 -0.2781  0.3516 -0.0127
  770MOL0     C 3840   3.057  11.919   8.749 -0.6926  0.1878 -0.0725
  770MOL0     C 3841   2.925  11.937   8.708 -0.7609  0.3980 -0.6240
  770MOL0     C 3842   2.833  12.018   8.785 -0.1408 -0.0357 -0.5559
  770MOL0     C 3843   2.697  12.049   8.725  0.1277 -0.3340  0.3613
  770MOL0     C 3844   2.866  12.065   8.915 -0.0721 -0.5090  0.3072
  770MOL0     C 3845   2.778  12.155   8.992 -0.2737  0.4642  0.6908
  770MOL0     O 3846   2.659  12.115   9.021 -0.7859 -0.2723 -0.2225
  770MOL0     C 3847   2.596  12.174   9.132  0.0056  0.3767  0.0884
  770MOL0     C 3848   2.567  12.073   9.228  0.7187  0.3892 -0.2442
  770MOL0     C 3849   2.508  12.115   9.358 -0.4450 -0.0485  0.7386
  770MOL0     C 3850   2.476  12.249   9.378  1.2179 -0.4286  0.0027
  770MOL0     O 3851   2.414  12.286   9.498  0.7183 -0.1017  0.0531
  770MOL0     C 3852   2.348  12.410   9.509  1.1499  0.9558 -0.2777
  770MOL0     C 3853   2.298  12.414   9.649  0.5752  0.4526 -1.1629
  770MOL0     C 3854   2.203  12.533   9.676  0.0434 -0.3874  0.1179
  770MOL0     C 3855   2.051  12.497   9.643 -0.3478 -1.0411  0.6265
  770MOL0     C 3856   1.955  12.618   9.674  0.0429  0.6644  0.1610
  770MOL0     C 3857   1.922  12.636   9.834  1.2432  0.9058  0.9042
  770MOL0     C 3858   1.884  12.781   9.864 -0.5070 -0.6187 -0.9239
  770MOL0     C 3859   1.812  12.806  10.000  0.2725  0.1419  0.0906
  770MOL0    Cl 3860   1.882  12.695  10.128  0.1198  0.2427  0.0767
  770MOL0     C 3861   2.502  12.339   9.270  0.8706 -0.3822  0.3538
  770MOL0     C 3862   2.559  12.308   9.145  0.5035  0.2500 -0.4181
  770MOL0     O 3863   2.839  12.243   9.051  0.3617  0.6731  0.3530
  770MOL0     C 3864   2.995  12.037   8.967  0.1830  0.2894  0.3205
  770MOL0     C 3865   3.091  11.962   8.884  0.7156 -1.0132 -0.7061
  770MOL0     N 3866   3.332  11.522   8.219  0.4645 -0.3715  0.0965
  770MOL0     N 3867   3.289  11.404   8.239  0.6740  0.9258 -0.2968
  770MOL0     C 3868   2.172  10.926   7.943  1.2818  0.4505 -0.8768
  770MOL0     C 3869   2.063  10.865   7.880 -0.1072  0.1584 -0.2393
  770MOL0     C 3870   1.680  10.722   7.757  0.8225  0.4737  0.4819
  770MOL0     C 3871   1.615  10.608   7.803  0.0397 -0.5816 -0.2745
  770MOL0     C 3872   1.508  10.550   7.734  0.3778 -0.4321  0.8533
  770MOL0     C 3873   1.484  10.592   7.597 -0.2450 -0.5945  0.7977
  770MOL0     O 3874   1.388  10.542   7.512 -0.6111 -0.5457 -0.2699
  770MOL0     C 3875   1.357  10.400   7.529  0.5428  0.3361 -0.3966
  770MOL0     C 3876   1.301  10.347   7.397  0.0049 -0.1264  0.0098
  770MOL0     C 3877   1.402  10.352   7.288  0.2682  0.3131  0.5817
  770MOL0     C 3878   1.393  10.468   7.184  0.6298  0.3623  0.0890
  770MOL0     C 3879   1.499  10.431   7.082  0.3198 -0.5301 -0.1763
  770MOL0     C 3880   1.571  10.390   7.000 -0.4996 -0.2272  0.0894
  770MOL0     C 3881   1.561  10.698   7.543 -0.8846 -0.6932  1.1086
  770MOL0     C 3882   1.648  10.771   7.627  0.1114 -0.3959  1.2230
  770MOL0     H 3883   1.872  11.135   7.823  0.3828  1.9026  0.6337
  770MOL0     H 3884   2.074  11.252   7.942 -1.4748  1.8179 -3.5102
  770MOL0     H 3885   2.361  10.988   8.151 -1.3496  1.4940  2.2657
  770MOL0     H 3886   2.447  10.998   7.992  0.8415 -0.2115  1.0764
  770MOL0     H 3887   2.534  11.229   8.059  0.8958  0.7783  1.2357
  770MOL0     H 3888   2.446  11.210   8.203 -3.4687  1.1807 -2.4293
  770MOL0     H 3889   2.644  11.106   8.283  1.5344 -0.5061 -0.4240
  770MOL0     H 3890   2.616  10.972   8.167  0.4672  0.2730 -0.2791
  770MOL0     H 3891   2.737  11.118   7.996  0.5949  2.1020 -0.4671
  770MOL0     H 3892   2.766  11.230   8.117 -3.0479  0.5255  0.1289
  770MOL0     H 3893   2.840  10.934   8.179 -0.0056  0.1206 -2.4411
  770MOL0     H 3894   2.946  11.025   8.071 -0.1000  3.0705 -1.0575
  770MOL0     H 3895   2.881  11.092   8.362 -0.4443  0.3779 -1.1165
  770MOL0     H 3896   3.035  11.019   8.304  1.5664  0.6909 -1.8235
  770MOL0     H 3897   3.107  11.183   8.179 -0.1880  2.1049 -1.8428
  770MOL0     H 3898   2.965  11.285   8.203 -0.3605 -0.5332  0.1155
  770MOL0     H 3899   3.175  11.220   8.425  1.5135  1.1568 -1.2413
  770MOL0     H 3900   3.026  11.322   8.438  0.2149 -0.5449  1.0629
  770MOL0     H 3901   3.073  11.581   8.404 -3.0843 -2.2767 -2.9728
  770MOL0     H 3902   3.368  11.784   8.242  0.1138  1.2373  0.5761
  770MOL0     H 3903   3.200  11.804   8.205 -2.9471 -0.6353  2.3466
  770MOL0     H 3904   3.124  11.815   8.425  0.8743 -2.5542 -1.4373
  770MOL0     H 3905   3.236  11.947   8.385 -1.9053  0.9747  0.5499
  770MOL0     H 3906   3.421  11.864   8.506 -0.4675  1.0415  0.8386
  770MOL0     H 3907   3.356  11.711   8.554 -1.6553 -0.4004  0.1066
  770MOL0     H 3908   3.269  11.995   8.632 -2.8566 -0.5597 -0.8324
  770MOL0     H 3909   3.344  11.872   8.735 -0.0918  1.9837  0.6835
  770MOL0     H 3910   2.905  11.920   8.602  2.7190  3.7046 -2.0336
  770MOL0     H 3911   2.666  12.149   8.756 -0.1036 -0.6818  1.2980
  770MOL0     H 3912   2.687  12.031   8.618 -0.5205  2.5588 -0.1350
  770MOL0     H 3913   2.622  11.979   8.764 -0.0270 -2.3631 -3.1726
  770MOL0     H 3914   2.595  11.969   9.210 -1.9373 -0.0162 -2.7029
  770MOL0     H 3915   2.492  12.045   9.440 -1.3059  1.8758  2.3168
  770MOL0     H 3916   2.422  12.491   9.505 -0.2618  2.2484 -2.0052
  770MOL0     H 3917   2.269  12.417   9.434 -0.3140  1.5034  1.2565
  770MOL0     H 3918   2.259  12.317   9.679  1.2188 -0.2918 -2.6106
  770MOL0     H 3919   2.381  12.439   9.715 -0.9126  2.2563  0.1425
  770MOL0     H 3920   2.240  12.614   9.614  1.0740 -0.1385  1.0327
  770MOL0     H 3921   2.206  12.555   9.783  4.1409 -1.7368  0.4515
  770MOL0     H 3922   2.061  12.484   9.534  2.5196 -2.5636  0.9743
  770MOL0     H 3923   2.016  12.405   9.691 -0.8300 -0.8394  0.6625
  770MOL0     H 3924   1.857  12.604   9.627  0.0148 -1.7576  0.7797
  770MOL0     H 3925   2.005  12.711   9.646  0.0120  0.2922 -1.2094
  770MOL0     H 3926   1.834  12.577   9.859  1.0853 -0.2323 -1.9367
  770MOL0     H 3927   1.996  12.591   9.901 -0.0876 -0.2645  1.6427
  770MOL0     H 3928   1.817  12.812   9.784 -1.1974 -1.5980 -0.7396
  770MOL0     H 3929   1.969  12.850   9.858 -0.4144 -0.4250  1.4467
  770MOL0     H 3930   1.704  12.795   9.985  0.5502  0.5988 -2.6748
  770MOL0     H 3931   1.821  12.910  10.033 -1.3240  0.7846 -1.4056
  770MOL0     H 3932   2.478  12.444   9.283  0.2547 -0.7769  2.9908
  770MOL0     H 3933   2.574  12.383   9.068 -2.7628 -0.9814 -2.4945
  770MOL0     H 3934   2.998  12.072   9.070 -1.5919  2.2882 -0.2390
  770MOL0     H 3935   3.189  11.945   8.927  0.1099  2.4288  2.5140
  770MOL0     H 3936   2.256  10.863   7.967 -1.0229 -1.7740  2.1269
  770MOL0     H 3937   2.065  10.758   7.865  1.1050  0.1878 -0.4308
  770MOL0     H 3938   1.635  10.574   7.905  1.0367 -2.9162 -1.1654
  770MOL0     H 3939   1.450  10.480   7.793 -1.0595  0.4082  0.5032
  770MOL0     H 3940   1.441  10.335   7.555 -1.4540 -3.0052 -1.5377
  770MOL0     H 3941   1.286  10.397   7.612  1.9674  0.6831  0.8745
  770MOL0     H 3942   1.209  10.392   7.360 -0.5395 -0.9938  0.2819
  770MOL0     H 3943   1.281  10.241   7.413  1.2881 -0.7342 -2.0400
  770MOL0     H 3944   1.409  10.253   7.241 -2.1977  0.3040  0.0786
  770MOL0     H 3945   1.502  10.370   7.328  0.7161 -2.9401  1.2764
  770MOL0     H 3946   1.415  10.565   7.231 -0.5318  1.0628 -0.7741
  770MOL0     H 3947   1.292  10.469   7.143  0.6442 -1.9124 -0.1412
  770MOL0     H 3948   1.638  10.354   6.925 -1.0754  3.7828 -2.6879
  770MOL0     H 3949   1.550  10.725   7.438  2.6655 -0.5342  0.6580
  770MOL0     H 3950   1.697  10.856   7.581 -0.9507 -1.2053 -1.6409
  771MOL0     O 3951   1.257   3.798  10.821  0.8926  0.7570  0.0011
  771MOL0     C 3952   1.292   3.915  10.815  0.0861 -0.1186 -0.7262
  771MOL0     O 3953   1.206   4.015  10.820  0.7371  0.2075 -0.9780
  771MOL0     C 3954   1.071   4.001  10.824  0.5224  0.3644  0.2734
  771MOL0     C 3955   0.992   3.907  10.892  0.5728  0.0202  0.0688
  771MOL0     C 3956   0.847   3.914  10.877 -0.0801  0.2632  0.2382
  771MOL0     C 3957   0.786   3.994  10.779 -0.0377  1.1982  0.6956
  771MOL0     O 3958   0.656   3.985  10.737  0.1098 -1.0937  0.3002
  771MOL0     C 3959   0.564   3.953  10.837  1.0055  0.1513  0.2314
  771MOL0     C 3960   0.422   4.001  10.801 -0.5737 -0.1997  0.0837
  771MOL0     C 3961   0.309   4.012  10.895 -0.7587 -0.6120 -0.6493
  771MOL0     C 3962   0.292   3.876  10.977 -0.4193  0.4704  0.1371
  771MOL0     C 3963   0.157   3.898  11.054 -0.4429  0.0767  0.3810
  771MOL0     C 3964   0.167   3.995  11.176 -0.1799  0.0261 -0.7068
  771MOL0     C 3965   0.216   3.917  11.293  0.0391  0.3190 -0.7249
  771MOL0     C 3966   0.215   4.001  11.419 -0.0897 -0.2522 -0.2505
  771MOL0     N 3967   0.277   3.929  11.536  0.4668  0.0381  0.2858
  771MOL0     C 3968   0.411   3.888  11.549 -0.5269  1.2090  0.3390
  771MOL0     C 3969   0.410   3.827  11.674 -0.1688 -0.6238  0.0792
  771MOL0     C 3970   0.536   3.756  11.723 -0.3734  0.0522 -0.0514
  771MOL0     C 3971   0.527   3.756  11.879 -0.6096  0.1957 -0.2862
  771MOL0     C 3972   0.651   3.693  11.948 -0.2983  0.9120  0.3087
  771MOL0     C 3973   0.642   3.533  11.927  0.1605 -0.3632 -0.0724
  771MOL0     O 3974   0.526   3.487  11.995  0.2918 -0.0888 -0.4892
  771MOL0     C 3975   0.459   3.382  11.936 -0.5384  0.1996  0.0121
  771MOL0     C 3976   0.520   3.290  11.849  0.8138  0.0685  0.6140
  771MOL0     C 3977   0.441   3.192  11.785 -0.3965  0.9676  0.3414
  771MOL0     C 3978   0.517   3.083  11.706  0.4029 -0.7103  0.0101
  771MOL0     C 3979   0.301   3.197  11.802  0.8385 -0.1482 -0.2892
  771MOL0     C 3980   0.207   3.105  11.729  0.0455 -0.6294 -0.8989
  771MOL0     O 3981   0.075   3.118  11.776  0.0330 -0.4605 -0.4656
  771MOL0     C 3982  -0.025   3.059  11.705  0.1049 -0.5244 -0.3149
  771MOL0     C 3983  -0.067   2.933  11.750  0.2498 -0.2225  0.3419
  771MOL0     C 3984  -0.153   2.860  11.664 -0.5692 -0.5912 -1.0003
  771MOL0     C 3985  -0.210   2.908  11.545 -0.4240 -0.4041  0.3997
  771MOL0     O 3986  -0.276   2.836  11.455  0.2533  0.3887 -0.1793
  771MOL0     C 3987  -0.342   2.891  11.337 -0.5592  0.4440  0.9074
  771MOL0     C 3988  -0.447   2.789  11.285  0.3219 -0.2746 -0.8211
  771MOL0     C 3989  -0.564   2.780  11.389 -0.6494  0.3085  0.0163
  771MOL0     C 3990  -0.679   2.686  11.345 -0.5879  0.5622  0.2380
  771MOL0     C 3991  -0.755   2.740  11.213  0.0659 -0.9714 -1.0133
  771MOL0     C 3992  -0.883   2.666  11.179 -0.1473 -0.4685 -0.9038
  771MOL0     C 3993  -0.866   2.523  11.120  0.0233  0.7104  0.4911
  771MOL0     C 3994  -0.999   2.460  11.073 -0.7543 -0.8449 -0.2955
  771MOL0    Cl 3995  -1.059   2.570  10.940 -0.2402 -0.1451  0.4926
  771MOL0     C 3996  -0.163   3.036  11.497  0.1872 -0.0378 -0.2578
  771MOL0     C 3997  -0.078   3.110  11.584  0.2026 -0.7431 -0.1341
  771MOL0     O 3998   0.242   3.030  11.648  0.2629  0.4012  0.1602
  771MOL0     C 3999   0.243   3.290  11.888  0.2187  0.5776  0.0578
  771MOL0     C 4000   0.324   3.379  11.956  0.1770 -0.0026 -0.1669
  771MOL0     N 4001   0.274   3.812  11.712 -0.1078 -0.0673  0.0339
  771MOL0     N 4002   0.198   3.884  11.637 -0.0829 -0.2423  0.0865
  771MOL0     C 4003   0.861   4.092  10.716  0.2873  0.6367  0.2155
  771MOL0     C 4004   1.007   4.100  10.751  0.5829  0.0564 -0.5941
  771MOL0     C 4005   1.427   3.956  10.828 -0.2154  0.2405  0.4412
  771MOL0     C 4006   1.529   3.877  10.878  1.0058  0.8601 -0.5250
  771MOL0     C 4007   1.647   3.935  10.917 -0.4635  0.4211  0.2414
  771MOL0     C 4008   1.675   4.076  10.908 -0.2648  1.0155 -0.0279
  771MOL0     O 4009   1.788   4.146  10.932  0.2650 -0.7423 -0.3596
  771MOL0     C 4010   1.897   4.073  10.991 -0.7492 -0.6826 -0.5651
  771MOL0     C 4011   2.007   4.177  11.002  0.5128 -0.0838 -0.6186
  771MOL0     C 4012   2.084   4.187  10.874  0.0945 -0.7478 -0.0801
  771MOL0     C 4013   2.212   4.281  10.868 -0.3828  0.3924 -0.2083
  771MOL0     C 4014   2.310   4.259  10.973 -0.6183 -0.6857 -0.3958
  771MOL0     C 4015   2.400   4.238  11.045  0.1553 -0.5815  0.0990
  771MOL0     C 4016   1.569   4.155  10.862 -0.7335 -0.6044 -0.2654
  771MOL0     C 4017   1.448   4.100  10.827  0.6225 -0.5508 -0.2031
  771MOL0     H 4018   1.037   3.840  10.965  2.4878 -0.5859 -1.5968
  771MOL0     H 4019   0.789   3.843  10.935  1.1775  0.2200  1.5112
  771MOL0     H 4020   0.554   3.847  10.861 -1.6154  0.1747 -0.5008
  771MOL0     H 4021   0.588   4.009  10.928  1.7668  0.2512 -0.0235
  771MOL0     H 4022   0.437   4.096  10.749 -1.4854  0.8170  1.6110
  771MOL0     H 4023   0.394   3.932  10.720 -1.3649  3.5107 -3.1030
  771MOL0     H 4024   0.320   4.091  10.970  1.3367 -0.5203 -0.9755
  771MOL0     H 4025   0.217   4.033  10.840  0.2359  1.6236 -1.5781
  771MOL0     H 4026   0.288   3.789  10.912  3.3915  0.1878  0.0458
  771MOL0     H 4027   0.367   3.853  11.054 -0.6181  2.0510  0.8481
  771MOL0     H 4028   0.081   3.932  10.983 -0.3292 -0.5372 -0.0381
  771MOL0     H 4029   0.122   3.802  11.092 -3.5583  1.2708  0.7646
  771MOL0     H 4030   0.233   4.081  11.161  2.2903 -1.3793  1.2956
  771MOL0     H 4031   0.062   4.027  11.175 -1.0361 -2.5774 -1.4417
  771MOL0     H 4032   0.154   3.828  11.303 -0.1633  0.6677  1.5418
  771MOL0     H 4033   0.323   3.893  11.287  0.4121  0.6216  2.7981
  771MOL0     H 4034   0.112   4.030  11.441  0.6455  0.4725  2.7741
  771MOL0     H 4035   0.283   4.083  11.394 -1.2320  0.9544  0.4335
  771MOL0     H 4036   0.500   3.915  11.494  0.1035 -3.0066 -1.0337
  771MOL0     H 4037   0.541   3.657  11.679  5.3335 -0.4798  1.0825
  771MOL0     H 4038   0.624   3.813  11.693 -0.0030 -0.6423 -0.2870
  771MOL0     H 4039   0.436   3.704  11.909 -0.4439 -0.9463 -1.6770
  771MOL0     H 4040   0.510   3.859  11.913 -0.5608 -0.3278  1.4251
  771MOL0     H 4041   0.659   3.716  12.055 -3.8175 -0.7074  1.0505
  771MOL0     H 4042   0.742   3.737  11.905 -0.1996  1.9025  1.4643
  771MOL0     H 4043   0.731   3.482  11.964  0.2830 -0.0108  0.1298
  771MOL0     H 4044   0.640   3.506  11.821 -1.7894  0.2859 -0.2457
  771MOL0     H 4045   0.628   3.284  11.840  0.5844 -1.5929 -2.9900
  771MOL0     H 4046   0.503   3.098  11.599 -0.0655  0.5103  0.2188
  771MOL0     H 4047   0.624   3.086  11.728  0.1005  3.1536  1.7855
  771MOL0     H 4048   0.470   2.987  11.728  0.1515 -0.3148  1.3220
  771MOL0     H 4049  -0.025   2.886  11.839  1.5510 -1.7831 -1.0141
  771MOL0     H 4050  -0.168   2.755  11.689 -1.0772 -0.4008 -0.5013
  771MOL0     H 4051  -0.397   2.980  11.369 -1.7803 -1.0155  3.1158
  771MOL0     H 4052  -0.271   2.899  11.254 -1.4694 -1.6288 -0.1605
  771MOL0     H 4053  -0.500   2.829  11.198  0.7943  1.2260 -0.4602
  771MOL0     H 4054  -0.388   2.702  11.256  1.5221 -1.5011  4.3632
  771MOL0     H 4055  -0.607   2.878  11.408 -2.4150 -0.6245  1.1027
  771MOL0     H 4056  -0.520   2.749  11.484  0.4740  0.6945 -0.3559
  771MOL0     H 4057  -0.636   2.588  11.321 -3.5142 -0.9886  0.8683
  771MOL0     H 4058  -0.744   2.684  11.433  0.2061  3.2011  0.9687
  771MOL0     H 4059  -0.683   2.745  11.131  2.2101  1.7973  0.8274
  771MOL0     H 4060  -0.773   2.846  11.232 -0.2002 -0.8181 -2.0843
  771MOL0     H 4061  -0.941   2.647  11.269 -0.2103 -0.7167 -0.9960
  771MOL0     H 4062  -0.944   2.727  11.111  0.3353  0.9052 -0.1420
  771MOL0     H 4063  -0.815   2.462  11.195  3.2195  0.9948 -1.2572
  771MOL0     H 4064  -0.801   2.529  11.032 -0.5526  0.0196  0.0083
  771MOL0     H 4065  -1.074   2.447  11.152  0.4794 -1.3270  0.8324
  771MOL0     H 4066  -0.970   2.362  11.034  4.1586 -0.0472  0.7367
  771MOL0     H 4067  -0.196   3.088  11.407 -0.9257  0.1654  0.2535
  771MOL0     H 4068  -0.049   3.210  11.554 -2.0888 -0.0209 -0.1537
  771MOL0     H 4069   0.138   3.291  11.913  0.0151 -0.0937 -0.7433
  771MOL0     H 4070   0.275   3.445  12.028  0.9795  1.1621 -0.6538
  771MOL0     H 4071   0.825   4.142  10.627 -3.0887 -2.6364 -0.5131
  771MOL0     H 4072   1.061   4.182  10.704  1.0178 -0.2405 -0.6122
  771MOL0     H 4073   1.512   3.772  10.897  1.1441  0.4485 -2.5064
  771MOL0     H 4074   1.716   3.868  10.967 -1.8429 -1.4225 -0.2194
  771MOL0     H 4075   1.872   4.031  11.089 -1.6047  3.1154  1.0351
  771MOL0     H 4076   1.938   3.992  10.931  0.8819 -1.6043  1.6517
  771MOL0     H 4077   2.073   4.151  11.085 -0.2917 -0.2062 -0.0028
  771MOL0     H 4078   1.959   4.270  11.035 -0.8769 -0.2410 -2.0563
  771MOL0     H 4079   2.016   4.214  10.792  1.4465  1.1381 -0.6501
  771MOL0     H 4080   2.121   4.089  10.846  0.4609 -0.3186 -1.1398
  771MOL0     H 4081   2.162   4.379  10.866  1.0197  1.1525  0.5566
  771MOL0     H 4082   2.262   4.273  10.771  1.4359 -1.7707  0.8133
  771MOL0     H 4083   2.485   4.213  11.105  0.0053 -1.4932 -0.0549
  771MOL0     H 4084   1.585   4.262  10.868  2.7666 -1.0702  1.9196
  771MOL0     H 4085   1.374   4.172  10.793 -1.2444 -1.9190  0.8005
  772MOL0     O 4086   9.753  10.628   9.988  0.2451  0.5513  0.3919
  772MOL0     C 4087   9.775  10.745   9.956 -0.2660 -0.1208 -1.2395
  772MOL0     O 4088   9.679  10.847   9.936  0.7900 -0.3047 -0.0766
  772MOL0     C 4089   9.540  10.829   9.950  0.3997 -0.5054  0.3576
  772MOL0     C 4090   9.452  10.924   9.900  0.4262  0.2460 -0.4123
  772MOL0     C 4091   9.316  10.925   9.929 -0.6654 -0.5091  0.4149
  772MOL0     C 4092   9.260  10.819   9.993  0.1912  0.1643 -0.3668
  772MOL0     O 4093   9.129  10.833  10.027  0.4055 -0.2541  0.3466
  772MOL0     C 4094   9.052  10.719  10.080  0.2356  0.0325  0.5709
  772MOL0     C 4095   8.897  10.719  10.060 -0.2743 -0.1419 -0.7517
  772MOL0     C 4096   8.818  10.625  10.153 -0.5057 -0.1487  0.0525
  772MOL0     C 4097   8.684  10.599  10.090  0.8297 -0.1652  0.2186
  772MOL0     C 4098   8.598  10.501  10.166  0.3837 -0.6059  0.0629
  772MOL0     C 4099   8.462  10.488  10.097  0.4212 -0.6035  0.3926
  772MOL0     C 4100   8.378  10.364  10.135 -0.2787  0.3549 -0.1742
  772MOL0     C 4101   8.267  10.331  10.031 -0.2484 -1.0341  0.2064
  772MOL0     N 4102   8.177  10.443  10.000 -0.2909  0.2653 -0.1824
  772MOL0     C 4103   8.093  10.507  10.085 -0.8990 -0.3236  0.3422
  772MOL0     C 4104   8.063  10.622  10.024  1.0017  0.7011  0.3398
  772MOL0     C 4105   7.953  10.722  10.052 -0.9306 -0.4919 -0.4018
  772MOL0     C 4106   8.007  10.867  10.038 -0.0936 -0.0199  0.3115
  772MOL0     C 4107   7.942  10.964  10.143 -0.0159  0.4530 -0.2272
  772MOL0     C 4108   7.794  10.976  10.123  0.2885  0.2342  1.2662
  772MOL0     O 4109   7.752  11.061  10.230  0.9673  0.1004  0.0506
  772MOL0     C 4110   7.616  11.096  10.233  0.1846 -0.1953  0.3668
  772MOL0     C 4111   7.504  11.045  10.151  0.7900  0.0310  0.8517
  772MOL0     C 4112   7.371  11.070  10.182  0.4075  0.9760 -0.2469
  772MOL0     C 4113   7.266  10.987  10.117 -0.4400  0.2836  1.1672
  772MOL0     C 4114   7.333  11.158  10.284 -1.2609 -0.0931 -0.8058
  772MOL0     C 4115   7.187  11.195  10.330  0.1633 -0.7200 -0.6153
  772MOL0     O 4116   7.163  11.271  10.439 -0.1991  0.3831  0.5266
  772MOL0     C 4117   7.046  11.352  10.447  0.3942  0.7223  0.0204
  772MOL0     C 4118   6.964  11.405  10.342 -0.2144 -0.2421 -0.6295
  772MOL0     C 4119   6.860  11.496  10.362  0.0546  0.0110  0.0733
  772MOL0     C 4120   6.818  11.529  10.490 -0.1401 -0.3180 -0.0452
  772MOL0     O 4121   6.717  11.620  10.500 -0.4402 -0.3212 -0.0444
  772MOL0     C 4122   6.650  11.648  10.627  0.5978  0.4932  0.4588
  772MOL0     C 4123   6.518  11.722  10.610 -0.9508 -0.9180  0.8313
  772MOL0     C 4124   6.427  11.673  10.499 -0.1240 -0.2964 -0.1913
  772MOL0     C 4125   6.299  11.743  10.504  0.1422  0.0731  0.1560
  772MOL0     C 4126   6.192  11.670  10.419  0.2204 -0.1160 -0.2149
  772MOL0     C 4127   6.053  11.721  10.449 -0.0615  0.7834  0.4968
  772MOL0     C 4128   6.013  11.867  10.415 -0.2084  0.4381  0.2907
  772MOL0     C 4129   5.861  11.887  10.389 -0.3283  0.7095 -0.2848
  772MOL0    Cl 4130   5.854  12.063  10.356 -0.1941  0.0577  0.1697
  772MOL0     C 4131   6.891  11.482  10.593 -0.5400  0.1941 -0.5815
  772MOL0     C 4132   7.002  11.392  10.575  0.4358 -0.0538  0.3168
  772MOL0     O 4133   7.099  11.158  10.249 -0.4400 -0.0936  0.3534
  772MOL0     C 4134   7.438  11.220  10.351 -0.5424  0.4968 -0.2964
  772MOL0     C 4135   7.574  11.190  10.327  0.0393  1.4457 -0.6626
  772MOL0     N 4136   8.127  10.618   9.900  0.4500  0.3627 -0.6070
  772MOL0     N 4137   8.194  10.510   9.884  0.5113  0.6621 -1.0458
  772MOL0     C 4138   9.341  10.722  10.060 -0.1552  0.0488  0.1312
  772MOL0     C 4139   9.482  10.733  10.032 -0.2805  0.2170  0.1343
  772MOL0     C 4140   9.907  10.780   9.917  0.3605  0.2287  0.7055
  772MOL0     C 4141   9.943  10.913   9.874  0.6247 -0.2985  0.4798
  772MOL0     C 4142  10.067  10.935   9.822  0.6177 -0.2950 -0.7469
  772MOL0     C 4143  10.165  10.834   9.807 -0.7715 -0.0856 -0.3033
  772MOL0     O 4144  10.290  10.854   9.748 -0.5459  0.6125 -0.4095
  772MOL0     C 4145  10.322  10.976   9.684  0.3641  0.2356 -0.9618
  772MOL0     C 4146  10.471  11.005   9.638  0.1100  0.0901 -1.2396
  772MOL0     C 4147  10.575  10.999   9.752 -0.1711  0.3103  0.4651
  772MOL0     C 4148  10.714  11.063   9.717  0.4507 -0.0440  0.4027
  772MOL0     C 4149  10.822  10.968   9.701 -0.6078  0.2631 -0.3538
  772MOL0     C 4150  10.909  10.882   9.696 -0.0540  0.1799 -0.3867
  772MOL0     C 4151  10.141  10.716   9.870 -0.1104 -0.5586  0.4236
  772MOL0     C 4152  10.011  10.678   9.923 -0.2645 -0.6523  0.2397
  772MOL0     H 4153   9.491  11.009   9.846  2.0349 -1.3057 -1.7962
  772MOL0     H 4154   9.252  11.008   9.902  0.5808  1.1105  2.1581
  772MOL0     H 4155   9.080  10.627  10.028  1.5027  1.0013 -0.5672
  772MOL0     H 4156   9.081  10.708  10.185 -0.9096  3.4112  1.3608
  772MOL0     H 4157   8.857  10.819  10.080 -0.3905 -0.6535  2.0467
  772MOL0     H 4158   8.876  10.704   9.954  0.3160  1.9496 -1.2197
  772MOL0     H 4159   8.869  10.535  10.188 -1.4614  0.4077  3.3158
  772MOL0     H 4160   8.795  10.672  10.250  1.4863  0.9035  0.0649
  772MOL0     H 4161   8.631  10.694  10.077 -2.1926 -1.7454  0.2200
  772MOL0     H 4162   8.701  10.563   9.988 -1.3567 -2.1637  0.4699
  772MOL0     H 4163   8.648  10.405  10.152  1.4896  0.0900 -0.9164
  772MOL0     H 4164   8.575  10.518  10.272  3.0288 -3.5488  1.2811
  772MOL0     H 4165   8.396  10.572  10.121  0.9649  0.2684 -1.0451
  772MOL0     H 4166   8.477  10.492   9.989 -0.7986  0.2826  0.2384
  772MOL0     H 4167   8.437  10.272  10.135 -2.2912 -1.0385  1.2783
  772MOL0     H 4168   8.332  10.375  10.234 -0.5249  3.8471 -0.5416
  772MOL0     H 4169   8.204  10.247  10.061 -0.9360  0.0629  2.0042
  772MOL0     H 4170   8.317  10.306   9.937 -0.7920  4.1295 -1.7593
  772MOL0     H 4171   8.032  10.474  10.168 -1.4242  0.9682  0.4819
  772MOL0     H 4172   7.865  10.709   9.988 -1.6500 -2.1723  0.8454
  772MOL0     H 4173   7.917  10.702  10.153  0.6013 -2.2858 -0.1620
  772MOL0     H 4174   7.984  10.901   9.936 -1.1451  2.8152  1.4096
  772MOL0     H 4175   8.115  10.867  10.055 -0.5240  0.0137  3.7417
  772MOL0     H 4176   8.001  11.054  10.125 -1.5288  1.8835  1.5560
  772MOL0     H 4177   7.972  10.935  10.244  1.4921  1.5780 -0.3324
  772MOL0     H 4178   7.738  10.882  10.130 -0.4973  0.6966  1.2758
  772MOL0     H 4179   7.769  11.024  10.028 -1.2976 -1.9255  0.4992
  772MOL0     H 4180   7.531  10.973  10.074  1.8959  0.2682  1.0133
  772MOL0     H 4181   7.206  11.053  10.054  1.8554  0.0705 -1.4558
  772MOL0     H 4182   7.309  10.919  10.043  1.8889  3.0551 -0.2619
  772MOL0     H 4183   7.201  10.930  10.183  0.0625 -0.3444  1.1283
  772MOL0     H 4184   6.984  11.389  10.237  0.3604 -0.8532 -0.4328
  772MOL0     H 4185   6.806  11.534  10.277 -0.1353  0.5914  0.4419
  772MOL0     H 4186   6.629  11.548  10.667 -0.1079  0.7741  0.8014
  772MOL0     H 4187   6.716  11.703  10.694 -1.6269  2.5085  1.1388
  772MOL0     H 4188   6.464  11.715  10.705 -1.5051 -1.9762  0.4576
  772MOL0     H 4189   6.555  11.825  10.612  2.4831 -2.0386  2.1456
  772MOL0     H 4190   6.411  11.569  10.527  1.8286 -1.1447 -1.9704
  772MOL0     H 4191   6.468  11.680  10.398  3.6011 -0.0242  1.1763
  772MOL0     H 4192   6.257  11.741  10.606 -0.0063 -0.2235  0.0916
  772MOL0     H 4193   6.310  11.844  10.465  0.7270 -0.0146  0.0945
  772MOL0     H 4194   6.192  11.566  10.451 -0.6465  0.4192  1.6639
  772MOL0     H 4195   6.222  11.678  10.314 -1.5218  2.2808 -0.6149
  772MOL0     H 4196   5.980  11.661  10.394  1.4805  1.1558 -2.1109
  772MOL0     H 4197   6.042  11.693  10.554  2.4441  2.0969  1.1861
  772MOL0     H 4198   6.071  11.899  10.328 -0.5391  1.8284  0.5646
  772MOL0     H 4199   6.051  11.930  10.496  1.2953 -0.5681  0.4060
  772MOL0     H 4200   5.798  11.843  10.466 -0.1064 -0.9433 -0.9867
  772MOL0     H 4201   5.827  11.833  10.300  0.2072 -2.1382  1.1193
  772MOL0     H 4202   6.861  11.518  10.691  1.3722  0.4247 -0.0239
  772MOL0     H 4203   7.056  11.356  10.662  0.3678  2.8402  1.6750
  772MOL0     H 4204   7.419  11.288  10.434  4.0285  2.4179 -0.5058
  772MOL0     H 4205   7.649  11.246  10.383 -0.4534 -0.2250  1.8157
  772MOL0     H 4206   9.308  10.657  10.140  0.6334 -1.6704 -0.8756
  772MOL0     H 4207   9.543  10.668  10.094  2.0564  0.6975 -1.5119
  772MOL0     H 4208   9.868  10.991   9.873  2.6741  1.9238  3.7036
  772MOL0     H 4209  10.082  11.036   9.784  1.6897 -1.1178 -2.6060
  772MOL0     H 4210  10.258  10.989   9.596 -0.1083 -1.4099 -0.8884
  772MOL0     H 4211  10.296  11.053   9.758  0.0870 -1.1887  0.4892
  772MOL0     H 4212  10.465  11.106   9.596  0.3974  1.0852  0.9647
  772MOL0     H 4213  10.498  10.941   9.554 -0.8672  2.2887 -3.3394
  772MOL0     H 4214  10.595  10.893   9.769  0.2703 -0.2642 -3.0598
  772MOL0     H 4215  10.542  11.054   9.841 -1.0135  3.6584 -1.7114
  772MOL0     H 4216  10.745  11.127   9.800 -0.6986  0.3418  0.5520
  772MOL0     H 4217  10.699  11.130   9.632 -1.8639 -1.9591 -0.8342
  772MOL0     H 4218  10.980  10.802   9.689 -0.4361 -0.3935  1.6471
  772MOL0     H 4219  10.220  10.644   9.883 -0.3733 -0.8075  0.6586
  772MOL0     H 4220   9.984  10.588   9.976 -0.2560 -0.6951  0.1705
  773MOL0     O 4221   9.109  10.917   8.761 -0.3138  0.1999  0.0421
  773MOL0     C 4222   9.055  10.833   8.836 -0.1215 -0.1168  0.0736
  773MOL0     O 4223   8.918  10.799   8.832  0.5059  0.2483 -0.0595
  773MOL0     C 4224   8.841  10.852   8.735  0.4379  0.0356  0.2397
  773MOL0     C 4225   8.813  10.994   8.737  0.2840 -0.6949 -0.3673
  773MOL0     C 4226   8.732  11.053   8.644 -0.1642  0.0512 -0.3193
  773MOL0     C 4227   8.702  10.985   8.536 -0.5780 -0.3393 -0.0614
  773MOL0     O 4228   8.612  11.055   8.448 -0.8706 -0.1481 -0.7958
  773MOL0     C 4229   8.567  10.992   8.331 -0.1410  0.2605  0.6174
  773MOL0     C 4230   8.477  11.084   8.253 -0.5260 -0.5127 -1.0791
  773MOL0     C 4231   8.555  11.207   8.200  0.8721 -0.0202 -0.3673
  773MOL0     C 4232   8.452  11.318   8.155  0.1880  0.1725 -0.3903
  773MOL0     C 4233   8.513  11.455   8.100  1.0373 -0.3447  0.6533
  773MOL0     C 4234   8.572  11.424   7.962 -0.1194  0.2951 -0.4158
  773MOL0     C 4235   8.603  11.562   7.897 -0.4357  0.4089  0.2727
  773MOL0     C 4236   8.689  11.659   7.974 -0.4635 -0.0000  0.6754
  773MOL0     N 4237   8.731  11.775   7.895  0.4167 -0.2423 -0.1282
  773MOL0     C 4238   8.652  11.866   7.833 -0.4149 -0.1574 -0.0334
  773MOL0     C 4239   8.738  11.967   7.784 -0.7526 -0.6697 -0.8852
  773MOL0     C 4240   8.717  12.101   7.716 -0.3880  0.1641 -0.9221
  773MOL0     C 4241   8.631  12.198   7.793 -1.1214 -0.5546 -0.1167
  773MOL0     C 4242   8.644  12.349   7.756 -0.0489 -0.7380  0.4909
  773MOL0     C 4243   8.611  12.373   7.610  1.1593  0.0326  0.4625
  773MOL0     O 4244   8.476  12.315   7.591 -0.2186 -0.2159  0.5019
  773MOL0     C 4245   8.389  12.404   7.555  0.1588 -0.8921  0.3999
  773MOL0     C 4246   8.404  12.479   7.436  0.0560 -0.6587 -0.6436
  773MOL0     C 4247   8.301  12.571   7.401 -0.0104 -0.0216  0.6347
  773MOL0     C 4248   8.312  12.633   7.266  0.3040 -0.0477  0.3578
  773MOL0     C 4249   8.196  12.593   7.495  0.4017  1.2622  0.7756
  773MOL0     C 4250   8.076  12.676   7.461 -1.2477 -0.1889 -0.3020
  773MOL0     O 4251   7.957  12.626   7.512 -0.7509  0.7216  0.2226
  773MOL0     C 4252   7.843  12.702   7.505  0.7065  0.7543 -0.0961
  773MOL0     C 4253   7.737  12.648   7.440 -0.9698  0.0742  1.2626
  773MOL0     C 4254   7.622  12.733   7.413 -0.9391 -0.0184  0.2259
  773MOL0     C 4255   7.611  12.862   7.459 -0.3895 -0.2890 -0.0271
  773MOL0     O 4256   7.503  12.933   7.422  0.4483 -0.1173 -0.3627
  773MOL0     C 4257   7.521  13.074   7.409 -0.4534 -0.3290 -0.4829
  773MOL0     C 4258   7.389  13.122   7.339  0.5131  0.7986  0.4631
  773MOL0     C 4259   7.260  13.071   7.406  0.3037  0.3954 -0.0566
  773MOL0     C 4260   7.138  13.080   7.317 -0.3545  0.2535 -0.2081
  773MOL0     C 4261   7.004  13.049   7.388 -0.1603 -0.6589  0.1754
  773MOL0     C 4262   6.900  13.045   7.279  0.3269 -0.5689  0.3821
  773MOL0     C 4263   6.760  13.014   7.343  0.1671  0.6803 -0.7766
  773MOL0     C 4264   6.652  12.968   7.252 -0.4605  0.6988  0.4195
  773MOL0    Cl 4265   6.710  12.886   7.097 -0.5789  0.5511  0.0765
  773MOL0     C 4266   7.720  12.909   7.537 -0.9913 -0.1696  0.0142
  773MOL0     C 4267   7.838  12.830   7.565  0.2911 -0.5340 -0.5141
  773MOL0     O 4268   8.091  12.781   7.412  0.5351  0.6037  0.2228
  773MOL0     C 4269   8.179  12.509   7.605 -0.0020 -0.1663  0.2021
  773MOL0     C 4270   8.275  12.423   7.639 -0.0523 -0.6768 -0.2153
  773MOL0     N 4271   8.865  11.921   7.823 -0.5809  0.3128  0.6101
  773MOL0     N 4272   8.854  11.811   7.884  0.3239 -0.4191  0.0167
  773MOL0     C 4273   8.733  10.848   8.519 -0.0563  0.7998  0.1813
  773MOL0     C 4274   8.801  10.783   8.623 -0.1390  0.3905  0.9770
  773MOL0     C 4275   9.140  10.774   8.947 -0.3459  0.4296  0.7663
  773MOL0     C 4276   9.080  10.705   9.052  0.0168 -0.2736 -0.0228
  773MOL0     C 4277   9.164  10.664   9.155 -0.3195  0.6333  0.1362
  773MOL0     C 4278   9.295  10.692   9.168  0.3267 -0.6121  0.6877
  773MOL0     O 4279   9.358  10.653   9.287  0.4758  0.3074 -0.2254
  773MOL0     C 4280   9.497  10.703   9.303 -0.1153 -0.2145  0.4560
  773MOL0     C 4281   9.537  10.726   9.441  1.0556 -0.2869 -0.0432
  773MOL0     C 4282   9.675  10.788   9.463  0.2864  0.6158  0.5087
  773MOL0     C 4283   9.758  10.706   9.555 -1.0411 -0.2921  0.3456
  773MOL0     C 4284   9.902  10.730   9.533 -0.8461  0.5980 -0.6500
  773MOL0     C 4285  10.022  10.749   9.524  0.7547  0.9452  0.3978
  773MOL0     C 4286   9.354  10.747   9.055  0.3838 -0.3977  0.2600
  773MOL0     C 4287   9.282  10.788   8.947  0.2722 -0.8144  1.0496
  773MOL0     H 4288   8.835  11.057   8.822 -1.0225  1.7983 -1.7663
  773MOL0     H 4289   8.684  11.150   8.644 -5.5141 -2.2083  1.4019
  773MOL0     H 4290   8.656  10.956   8.279  0.4985  2.3872  0.1278
  773MOL0     H 4291   8.501  10.908   8.354 -3.0115  2.3377  0.5300
  773MOL0     H 4292   8.440  11.034   8.163  0.6075 -0.0354 -1.8417
  773MOL0     H 4293   8.392  11.104   8.320  1.8853 -2.6454  2.9982
  773MOL0     H 4294   8.611  11.242   8.287  1.5843 -2.0424  0.0321
  773MOL0     H 4295   8.626  11.178   8.121  0.5466 -1.5574 -0.1271
  773MOL0     H 4296   8.383  11.284   8.077  0.4121  0.1090 -0.5633
  773MOL0     H 4297   8.393  11.350   8.241 -1.8088 -2.5642 -0.6246
  773MOL0     H 4298   8.432  11.528   8.091  1.2206 -0.3495 -1.8658
  773MOL0     H 4299   8.587  11.492   8.172 -0.6095 -3.6355  4.4357
  773MOL0     H 4300   8.662  11.362   7.975 -0.0815  0.6649  1.4213
  773MOL0     H 4301   8.496  11.365   7.910 -0.1276 -1.8727  1.8663
  773MOL0     H 4302   8.654  11.547   7.801  2.5407 -2.1605  2.0334
  773MOL0     H 4303   8.509  11.612   7.874 -0.3669  0.2733 -0.3064
  773MOL0     H 4304   8.774  11.601   8.013  0.7460  1.3151  0.0759
  773MOL0     H 4305   8.636  11.695   8.062 -1.0662 -3.1438  1.7267
  773MOL0     H 4306   8.544  11.865   7.835 -0.4335 -1.1228  2.3010
  773MOL0     H 4307   8.818  12.141   7.703  0.7800 -3.2230 -3.6152
  773MOL0     H 4308   8.673  12.085   7.618 -0.7529  2.9648 -1.3156
  773MOL0     H 4309   8.631  12.177   7.901 -1.5930 -0.4620 -0.0932
  773MOL0     H 4310   8.525  12.176   7.777 -0.0518 -3.7784 -4.8800
  773MOL0     H 4311   8.749  12.377   7.766 -0.3458  0.3861  0.5713
  773MOL0     H 4312   8.587  12.413   7.824 -3.0401 -3.3952  0.7565
  773MOL0     H 4313   8.664  12.301   7.547 -2.5072 -2.4540 -0.1206
  773MOL0     H 4314   8.624  12.478   7.583  0.8832 -0.4094 -1.5430
  773MOL0     H 4315   8.493  12.468   7.375  0.4215  2.0287 -0.7289
  773MOL0     H 4316   8.415  12.623   7.231 -0.0294 -1.4671 -0.3115
  773MOL0     H 4317   8.251  12.580   7.192  1.5856  1.2338 -1.7522
  773MOL0     H 4318   8.278  12.736   7.253 -1.4887 -0.3319  2.2740
  773MOL0     H 4319   7.745  12.554   7.386  2.1271  0.4021  0.9813
  773MOL0     H 4320   7.546  12.695   7.345 -0.7463  0.8378 -0.4970
  773MOL0     H 4321   7.539  13.116   7.509  0.6379 -0.7799 -0.4674
  773MOL0     H 4322   7.612  13.102   7.355 -1.0787  0.2254 -1.2645
  773MOL0     H 4323   7.386  13.230   7.321  1.1051  0.8894  0.9063
  773MOL0     H 4324   7.381  13.094   7.233  0.7338  3.1842 -0.2615
  773MOL0     H 4325   7.224  13.132   7.489 -1.2536 -3.0245  1.9785
  773MOL0     H 4326   7.273  12.972   7.450  1.6746  0.6239  0.1105
  773MOL0     H 4327   7.138  13.185   7.288  2.8433  0.1760 -0.7950
  773MOL0     H 4328   7.150  13.022   7.225 -0.1246  4.1296 -2.8467
  773MOL0     H 4329   6.993  13.132   7.458  0.5437  0.7993 -1.3828
  773MOL0     H 4330   7.016  12.953   7.440  3.1026 -0.7192 -0.4895
  773MOL0     H 4331   6.895  13.134   7.216  1.0319 -1.3758 -0.8669
  773MOL0     H 4332   6.920  12.962   7.211 -4.0510  0.4137 -2.4911
  773MOL0     H 4333   6.730  13.107   7.392 -0.4181 -0.2500  0.7190
  773MOL0     H 4334   6.776  12.938   7.421  1.9567 -0.1756 -1.9222
  773MOL0     H 4335   6.602  13.061   7.227  1.8547  1.5857 -1.3411
  773MOL0     H 4336   6.589  12.901   7.311  1.5201 -0.6718  1.1197
  773MOL0     H 4337   7.729  13.007   7.584  2.0774  0.4843 -1.6455
  773MOL0     H 4338   7.920  12.854   7.631  0.5435  1.6623 -1.5379
  773MOL0     H 4339   8.102  12.524   7.680 -0.6312  0.7107 -0.6022
  773MOL0     H 4340   8.258  12.386   7.740 -0.6816  1.6202  0.5959
  773MOL0     H 4341   8.705  10.798   8.426 -0.5229 -0.9870  1.2403
  773MOL0     H 4342   8.840  10.684   8.604 -3.3761 -0.4916 -2.2587
  773MOL0     H 4343   8.972  10.698   9.052 -0.1961  2.0550 -1.2931
  773MOL0     H 4344   9.095  10.612   9.222 -1.1017 -0.7643 -1.6449
  773MOL0     H 4345   9.570  10.630   9.265 -1.4784 -0.8145 -1.1258
  773MOL0     H 4346   9.511  10.799   9.252  2.4631  0.6919  2.6011
  773MOL0     H 4347   9.527  10.625   9.482  2.4931 -0.7039 -0.6381
  773MOL0     H 4348   9.464  10.794   9.487  1.2144 -1.2933  1.7608
  773MOL0     H 4349   9.661  10.894   9.488  0.4523  1.5039 -2.7852
  773MOL0     H 4350   9.725  10.803   9.367  0.8722 -2.8481  0.1364
  773MOL0     H 4351   9.745  10.603   9.522  2.2278  0.0085 -2.3856
  773MOL0     H 4352   9.721  10.727   9.656 -2.5244  0.6751 -0.3556
  773MOL0     H 4353  10.128  10.759   9.509  0.9344 -1.1436 -0.0186
  773MOL0     H 4354   9.459  10.746   9.030 -0.0907 -3.1515 -2.0418
  773MOL0     H 4355   9.324  10.834   8.859 -0.7553 -2.1423 -0.1850
  774MOL0     O 4356   9.487   7.909  10.432  0.3242  0.1474 -0.0966
  774MOL0     C 4357   9.470   8.026  10.461 -0.2115  0.1541  0.2900
  774MOL0     O 4358   9.572   8.116  10.475 -0.7052 -0.0514 -0.4183
  774MOL0     C 4359   9.704   8.095  10.474 -0.6251  0.2228 -0.3674
  774MOL0     C 4360   9.767   7.971  10.458 -0.1290 -0.7117 -0.5679
  774MOL0     C 4361   9.898   7.954  10.500  0.0813 -0.1935  0.2525
  774MOL0     C 4362   9.982   8.059  10.541  0.3074  0.1225  0.6832
  774MOL0     O 4363  10.116   8.030  10.569  0.2556 -0.6419  0.0140
  774MOL0     C 4364  10.201   8.147  10.557 -0.4993  0.1134 -0.4669
  774MOL0     C 4365  10.343   8.100  10.523 -0.5517 -0.3616 -1.4078
  774MOL0     C 4366  10.448   8.200  10.563  0.1078 -0.3528  0.7462
  774MOL0     C 4367  10.582   8.132  10.599  0.5936  0.6141  0.0955
  774MOL0     C 4368  10.674   8.241  10.662 -0.2910 -0.2618 -0.7210
  774MOL0     C 4369  10.814   8.181  10.704 -0.3885 -0.1966  0.4081
  774MOL0     C 4370  10.897   8.266  10.811  0.3891 -0.3936  0.2929
  774MOL0     C 4371  10.909   8.415  10.772 -1.1549  0.0424  0.9720
  774MOL0     N 4372  10.803   8.509  10.824 -0.8686 -0.4601  0.5377
  774MOL0     C 4373  10.774   8.510  10.950 -0.9174  1.4754  0.0063
  774MOL0     C 4374  10.663   8.593  10.957 -0.1025 -0.0031 -0.0416
  774MOL0     C 4375  10.587   8.633  11.084 -0.7256 -0.5468 -0.2581
  774MOL0     C 4376  10.438   8.607  11.064 -0.5468 -0.5371 -0.2711
  774MOL0     C 4377  10.346   8.672  11.172  0.2460  0.0230  0.7380
  774MOL0     C 4378  10.193   8.634  11.153 -0.5692  1.1364 -1.0822
  774MOL0     O 4379  10.106   8.696  11.243  0.1665  0.3729  0.2311
  774MOL0     C 4380   9.981   8.656  11.262 -0.3121  0.0200  0.2991
  774MOL0     C 4381   9.902   8.743  11.343 -0.6402  0.1061  0.3789
  774MOL0     C 4382   9.765   8.711  11.371 -0.0317  0.4472 -0.3147
  774MOL0     C 4383   9.676   8.812  11.446  0.0303  0.5331 -0.3055
  774MOL0     C 4384   9.709   8.588  11.318 -0.5805 -0.2967 -0.3643
  774MOL0     C 4385   9.574   8.527  11.334 -0.4330 -1.4087 -0.2949
  774MOL0     O 4386   9.533   8.418  11.260  0.1509  0.3155 -0.1188
  774MOL0     C 4387   9.399   8.376  11.259  0.7280  0.3740 -0.0038
  774MOL0     C 4388   9.290   8.465  11.279 -0.0984 -0.8490  0.1354
  774MOL0     C 4389   9.153   8.422  11.277  0.6059  0.7834 -0.8770
  774MOL0     C 4390   9.130   8.281  11.266 -0.6069  0.6855 -0.5314
  774MOL0     O 4391   9.004   8.227  11.275  0.3122  0.0476 -0.3502
  774MOL0     C 4392   8.895   8.316  11.259 -0.1532 -0.3882  0.6613
  774MOL0     C 4393   8.763   8.244  11.283  0.5249 -0.3698  0.4570
  774MOL0     C 4394   8.746   8.115  11.198 -0.6529 -0.4831 -0.5468
  774MOL0     C 4395   8.756   8.138  11.044 -0.8430 -0.6924 -1.1822
  774MOL0     C 4396   8.640   8.202  10.986 -0.5182 -0.0501 -0.2512
  774MOL0     C 4397   8.532   8.097  10.962 -0.8362  0.9323  0.4812
  774MOL0     C 4398   8.407   8.153  10.896  0.0309  0.5431 -0.2899
  774MOL0     C 4399   8.285   8.056  10.897 -1.0767  0.2508 -1.0094
  774MOL0    Cl 4400   8.167   8.142  10.798  0.2496  0.3713  0.1005
  774MOL0     C 4401   9.242   8.194  11.264  1.1398  0.7734  0.2729
  774MOL0     C 4402   9.367   8.239  11.253 -0.1792 -0.5721 -0.0364
  774MOL0     O 4403   9.510   8.574  11.431  0.4901 -0.1191 -0.6918
  774MOL0     C 4404   9.790   8.517  11.231 -0.1240  0.4077  0.7296
  774MOL0     C 4405   9.925   8.547  11.207 -0.1625 -0.0992  0.4456
  774MOL0     N 4406  10.650   8.638  10.834 -0.1510 -0.6254 -0.7574
  774MOL0     N 4407  10.731   8.594  10.746  0.0009  0.1495  0.0431
  774MOL0     C 4408   9.928   8.189  10.545  1.2249  0.1750  0.4460
  774MOL0     C 4409   9.786   8.201  10.515  0.4772  0.5411  0.3651
  774MOL0     C 4410   9.339   8.085  10.463  0.5211  0.9894 -0.3062
  774MOL0     C 4411   9.318   8.219  10.514  0.5784  0.1697  0.0566
  774MOL0     C 4412   9.185   8.278  10.498 -0.3935  0.6091  0.0432
  774MOL0     C 4413   9.085   8.202  10.444  0.5909  1.5479  0.9994
  774MOL0     O 4414   8.960   8.252  10.438 -0.2612  0.5849  0.2442
  774MOL0     C 4415   8.872   8.220  10.550  0.0252  0.0365  0.5986
  774MOL0     C 4416   8.787   8.097  10.513 -0.1101 -0.7388 -0.2200
  774MOL0     C 4417   8.677   8.091  10.617  0.0681  0.2812 -0.1964
  774MOL0     C 4418   8.577   7.972  10.604  0.3070 -0.3093  0.6074
  774MOL0     C 4419   8.620   7.858  10.681  0.6490 -0.1088  0.5155
  774MOL0     C 4420   8.656   7.758  10.731 -0.3482  0.7319 -1.0165
  774MOL0     C 4421   9.110   8.068  10.388  0.0550  0.2887 -0.0007
  774MOL0     C 4422   9.233   8.012  10.404  0.4083 -0.6733  0.0178
  774MOL0     H 4423   9.711   7.881  10.437 -2.3644  0.8103 -1.5833
  774MOL0     H 4424   9.939   7.854  10.506 -1.7558 -0.9260  1.3758
  774MOL0     H 4425  10.168   8.223  10.485 -2.1709  0.5649  0.6971
  774MOL0     H 4426  10.209   8.195  10.655  2.5065  2.4014 -1.6803
  774MOL0     H 4427  10.363   8.002  10.566  0.1410 -1.2203 -3.5672
  774MOL0     H 4428  10.343   8.091  10.414 -0.0368 -2.3965 -1.2640
  774MOL0     H 4429  10.455   8.274  10.483  0.9476  0.7668  1.8215
  774MOL0     H 4430  10.423   8.263  10.648 -0.9604  2.5272 -1.5372
  774MOL0     H 4431  10.579   8.053  10.675 -0.6713  0.6793  0.1471
  774MOL0     H 4432  10.616   8.078  10.510  0.4877 -1.2863  1.1475
  774MOL0     H 4433  10.697   8.310  10.582 -0.6729 -1.4115 -1.8550
  774MOL0     H 4434  10.631   8.297  10.746  1.6605  2.9846 -1.7459
  774MOL0     H 4435  10.788   8.083  10.745 -5.8206  0.3048 -1.0406
  774MOL0     H 4436  10.864   8.180  10.607 -3.2430 -1.0759 -1.1853
  774MOL0     H 4437  10.851   8.266  10.911 -0.0705  1.4470  0.1210
  774MOL0     H 4438  10.995   8.217  10.813  0.2978 -0.6617 -1.0874
  774MOL0     H 4439  10.920   8.429  10.664 -1.7935  0.6491  0.9799
  774MOL0     H 4440  10.998   8.456  10.819 -0.0737  1.0271 -1.7026
  774MOL0     H 4441  10.811   8.452  11.034 -1.5598  0.6620 -0.2611
  774MOL0     H 4442  10.619   8.565  11.164 -2.2526 -0.6883  0.2779
  774MOL0     H 4443  10.609   8.737  11.106 -1.6033 -0.4840  0.3720
  774MOL0     H 4444  10.420   8.499  11.059  3.0380 -1.3255  0.7556
  774MOL0     H 4445  10.415   8.655  10.969 -0.6026 -0.1147 -0.0455
  774MOL0     H 4446  10.359   8.779  11.152  0.3825 -0.0926  0.1930
  774MOL0     H 4447  10.378   8.647  11.273 -0.5463 -1.4354  0.6579
  774MOL0     H 4448  10.199   8.525  11.165 -0.5071  1.3450  1.1342
  774MOL0     H 4449  10.155   8.657  11.053 -1.7340  1.4963 -0.5733
  774MOL0     H 4450   9.940   8.836  11.384 -1.6379  1.2695 -1.2016
  774MOL0     H 4451   9.735   8.903  11.461 -0.0619  0.6776 -0.8081
  774MOL0     H 4452   9.586   8.832  11.386  1.4497  1.9066 -2.0932
  774MOL0     H 4453   9.644   8.762  11.538 -0.2156 -0.2078 -0.7859
  774MOL0     H 4454   9.309   8.571  11.294  1.9394 -0.8231 -2.1758
  774MOL0     H 4455   9.063   8.482  11.285  0.8197  0.8432  4.0299
  774MOL0     H 4456   8.896   8.390  11.340 -2.2016  0.7831 -0.3070
  774MOL0     H 4457   8.897   8.367  11.162  1.7280 -1.1983  0.2202
  774MOL0     H 4458   8.763   8.210  11.387  1.5290 -0.0240  0.5787
  774MOL0     H 4459   8.681   8.311  11.256  2.1668  0.2493 -3.8294
  774MOL0     H 4460   8.650   8.070  11.223 -0.4206 -1.3116 -1.1064
  774MOL0     H 4461   8.822   8.038  11.215 -0.6387 -0.2049  0.6777
  774MOL0     H 4462   8.847   8.191  11.013 -0.1474 -1.7631 -1.0198
  774MOL0     H 4463   8.759   8.036  11.004 -0.3839 -2.2409  2.4016
  774MOL0     H 4464   8.666   8.245  10.888 -2.6776  1.8919 -0.0659
  774MOL0     H 4465   8.599   8.282  11.048  1.8801 -0.3900  1.9223
  774MOL0     H 4466   8.568   8.017  10.896 -0.3735  2.4639 -1.2117
  774MOL0     H 4467   8.510   8.051  11.058  3.2107 -2.0055  0.2559
  774MOL0     H 4468   8.430   8.178  10.792 -1.0917  3.8134  0.1386
  774MOL0     H 4469   8.375   8.244  10.948  0.0697  1.1597 -1.3386
  774MOL0     H 4470   8.252   8.032  10.998  1.0697  0.4363 -0.1925
  774MOL0     H 4471   8.334   7.970  10.850  0.5844  0.1785  0.7037
  774MOL0     H 4472   9.221   8.088  11.258 -1.5461  1.1602  1.3769
  774MOL0     H 4473   9.453   8.173  11.244 -1.1376 -1.9069  0.1769
  774MOL0     H 4474   9.757   8.422  11.189  0.4527 -0.0920  1.3762
  774MOL0     H 4475   9.979   8.481  11.139  1.8464  1.2996  0.6208
  774MOL0     H 4476   9.984   8.271  10.590 -0.0430  0.6698  1.1733
  774MOL0     H 4477   9.730   8.294  10.526 -1.1878 -0.1836 -1.3834
  774MOL0     H 4478   9.397   8.285  10.548  1.9302 -1.3260 -0.1019
  774MOL0     H 4479   9.171   8.380  10.533 -2.6807 -0.2050  1.7902
  774MOL0     H 4480   8.931   8.211  10.642  1.9336  0.1167 -0.5750
  774MOL0     H 4481   8.798   8.299  10.567 -1.2563 -0.6114 -1.5888
  774MOL0     H 4482   8.853   8.010  10.503 -1.2314 -1.6759  0.3874
  774MOL0     H 4483   8.732   8.100  10.419 -2.5536 -1.2622  1.1290
  774MOL0     H 4484   8.614   8.181  10.620 -0.5186 -0.1325  0.2442
  774MOL0     H 4485   8.727   8.082  10.714  0.9030  1.9268 -0.4294
  774MOL0     H 4486   8.560   7.953  10.497  0.5763 -0.3052  0.5633
  774MOL0     H 4487   8.475   8.000  10.632 -0.7912  0.1534 -3.2591
  774MOL0     H 4488   8.695   7.673  10.784  0.1442  0.9664 -0.9928
  774MOL0     H 4489   9.027   8.008  10.350  1.7943 -3.4243  1.5480
  774MOL0     H 4490   9.242   7.911  10.366  1.8627 -0.7762  0.5820
  775MOL0     O 4491  10.640   6.709  10.140 -0.2154 -0.4771 -0.6423
  775MOL0     C 4492  10.626   6.677  10.263 -0.5015 -0.3728  0.4556
  775MOL0     O 4493  10.508   6.664  10.332  0.0224 -0.2112 -0.3292
  775MOL0     C 4494  10.389   6.711  10.286 -0.3089 -0.6716 -0.4327
  775MOL0     C 4495  10.274   6.654  10.346  0.1799 -0.4843  1.0617
  775MOL0     C 4496  10.151   6.687  10.284 -0.8364  0.4505 -0.7444
  775MOL0     C 4497  10.134   6.773  10.175 -0.0587 -0.3867 -0.8669
  775MOL0     O 4498  10.013   6.805  10.118 -0.3671 -0.5022  0.7132
  775MOL0     C 4499   9.931   6.697  10.062 -0.0776  0.1853  0.0331
  775MOL0     C 4500   9.891   6.716   9.925  0.2484  0.6832 -0.8961
  775MOL0     C 4501   9.791   6.838   9.920 -0.6700 -0.5826 -0.0204
  775MOL0     C 4502   9.707   6.826   9.794  0.0526 -0.3935  0.8484
  775MOL0     C 4503   9.666   6.972   9.748 -0.1515  0.6311 -0.0270
  775MOL0     C 4504   9.559   6.980   9.644 -0.2080  0.3751  0.1633
  775MOL0     C 4505   9.554   6.877   9.530  0.6351  1.0704 -0.4644
  775MOL0     C 4506   9.672   6.916   9.432  1.0174 -0.2038 -0.2125
  775MOL0     N 4507   9.659   6.853   9.300 -0.9876  0.6145  0.1068
  775MOL0     C 4508   9.663   6.712   9.283  0.5296  0.8439  0.1285
  775MOL0     C 4509   9.640   6.701   9.147 -0.6320 -0.6413  0.7733
  775MOL0     C 4510   9.636   6.564   9.076 -0.3082 -1.2193  0.2046
  775MOL0     C 4511   9.779   6.522   9.041 -0.3663  0.3267 -0.7576
  775MOL0     C 4512   9.757   6.385   8.981  0.2556 -1.0344  0.6973
  775MOL0     C 4513   9.893   6.326   8.945  0.3719  0.3859 -0.2622
  775MOL0     O 4514   9.985   6.318   9.066  0.6522  0.0422 -0.5284
  775MOL0     C 4515  10.108   6.289   9.050  0.2301  0.1722 -0.1652
  775MOL0     C 4516  10.190   6.317   9.161  0.6019  0.7298  0.3547
  775MOL0     C 4517  10.333   6.300   9.155 -0.2557 -0.0164  0.1797
  775MOL0     C 4518  10.414   6.322   9.285 -0.8328  0.5497  0.7942
  775MOL0     C 4519  10.394   6.263   9.031  0.2557  0.2176  0.4997
  775MOL0     C 4520  10.547   6.253   9.001  0.2594 -0.2954 -0.2394
  775MOL0     O 4521  10.587   6.187   8.885 -0.1859 -0.0028 -0.1507
  775MOL0     C 4522  10.713   6.158   8.857  0.0929 -0.0569 -0.4178
  775MOL0     C 4523  10.788   6.074   8.933  1.1857  0.8308 -0.1022
  775MOL0     C 4524  10.918   6.055   8.898 -0.5099 -0.1848 -0.2591
  775MOL0     C 4525  10.974   6.116   8.788  0.3438 -0.2612 -0.3361
  775MOL0     O 4526  11.108   6.093   8.764 -0.1466  0.8877  0.2875
  775MOL0     C 4527  11.190   6.207   8.732 -0.0029  0.0616  0.4516
  775MOL0     C 4528  11.330   6.152   8.717  0.7886  0.4041  0.1109
  775MOL0     C 4529  11.347   6.052   8.605 -0.3119  0.3906  0.2541
  775MOL0     C 4530  11.473   5.966   8.624  0.3507  0.2484 -0.4095
  775MOL0     C 4531  11.441   5.848   8.723  0.6079  0.4622 -0.7746
  775MOL0     C 4532  11.555   5.740   8.716  1.0398 -0.4710  0.0775
  775MOL0     C 4533  11.532   5.626   8.812  0.9163 -0.3723 -0.7570
  775MOL0     C 4534  11.638   5.507   8.796  0.0986  0.3318  0.4163
  775MOL0    Cl 4535  11.605   5.387   8.926  0.6301  0.3398  0.4369
  775MOL0     C 4536  10.898   6.215   8.728 -0.0129 -0.5445 -0.4012
  775MOL0     C 4537  10.764   6.231   8.753 -0.2730 -0.4927 -0.1415
  775MOL0     O 4538  10.624   6.303   9.082  0.0495 -0.7446  1.3053
  775MOL0     C 4539  10.307   6.226   8.926  0.7319  0.5119  0.3180
  775MOL0     C 4540  10.171   6.241   8.931 -0.2459  0.2455  0.1310
  775MOL0     N 4541   9.637   6.826   9.088 -0.4605  0.4385 -0.9709
  775MOL0     N 4542   9.665   6.908   9.184 -0.6103  0.1823 -0.6408
  775MOL0     C 4543  10.244   6.825  10.125 -0.0398  0.2003  0.6887
  775MOL0     C 4544  10.368   6.801  10.176  0.7518  0.3881  0.1971
  775MOL0     C 4545  10.758   6.665  10.332  0.1498 -0.4543 -0.1172
  775MOL0     C 4546  10.879   6.667  10.266 -0.4425 -0.5957  0.1455
  775MOL0     C 4547  11.006   6.681  10.337  0.6140  0.6550 -0.9804
  775MOL0     C 4548  11.000   6.657  10.477  0.0811  0.5149 -0.1051
  775MOL0     O 4549  11.112   6.638  10.551 -0.2456 -0.0969 -0.1517
  775MOL0     C 4550  11.239   6.705  10.513 -0.2871 -0.5392  0.1115
  775MOL0     C 4551  11.338   6.720  10.632 -0.0414  0.0228  0.5553
  775MOL0     C 4552  11.447   6.818  10.588 -0.3192  0.4231  0.0351
  775MOL0     C 4553  11.538   6.850  10.709  1.3695 -0.0598  0.7203
  775MOL0     C 4554  11.618   6.734  10.748  0.2285 -0.6231 -0.0617
  775MOL0     C 4555  11.698   6.648  10.761 -0.4176  0.6474 -0.6321
  775MOL0     C 4556  10.877   6.644  10.546 -0.2610 -0.0104  0.4252
  775MOL0     C 4557  10.760   6.648  10.469 -0.3103  0.0222 -0.5225
  775MOL0     H 4558  10.267   6.572  10.418  1.9532 -0.7806  0.9390
  775MOL0     H 4559  10.057   6.652  10.326 -0.5179  1.3984  0.8568
  775MOL0     H 4560   9.987   6.605  10.078 -1.1152 -0.1649  1.9890
  775MOL0     H 4561   9.841   6.695  10.124  0.3532  0.1451  0.6787
  775MOL0     H 4562   9.974   6.733   9.856 -0.4941  0.2110 -1.9279
  775MOL0     H 4563   9.845   6.624   9.889 -0.6935  1.0530 -0.6722
  775MOL0     H 4564   9.719   6.845  10.002  0.6437  1.2608  1.0360
  775MOL0     H 4565   9.857   6.925   9.918  1.1169 -1.8989 -0.2611
  775MOL0     H 4566   9.775   6.782   9.720 -1.0547 -2.2986  0.9113
  775MOL0     H 4567   9.624   6.755   9.789  0.2758 -0.5994 -0.3738
  775MOL0     H 4568   9.621   7.020   9.836 -0.8078 -0.6533  0.3707
  775MOL0     H 4569   9.748   7.035   9.714 -1.2887  1.8460 -0.6072
  775MOL0     H 4570   9.461   6.965   9.691 -0.5551  1.4064 -0.2004
  775MOL0     H 4571   9.551   7.084   9.612  1.3478  1.0452  1.8210
  775MOL0     H 4572   9.548   6.768   9.543 -2.2738  1.1978 -0.0785
  775MOL0     H 4573   9.457   6.888   9.481 -0.2507 -3.1161 -0.0276
  775MOL0     H 4574   9.768   6.888   9.477  2.7478  1.2483 -2.7455
  775MOL0     H 4575   9.692   7.023   9.416 -1.1180  0.0992 -1.1931
  775MOL0     H 4576   9.667   6.631   9.355  0.0166  0.5329 -0.1902
  775MOL0     H 4577   9.586   6.495   9.145  0.1443 -2.6079 -0.8031
  775MOL0     H 4578   9.577   6.567   8.984 -2.7044 -1.5086  1.6321
  775MOL0     H 4579   9.847   6.514   9.126  2.0620 -3.9066 -2.7473
  775MOL0     H 4580   9.832   6.595   8.979  1.3894  1.0704  1.4956
  775MOL0     H 4581   9.701   6.399   8.889  0.0184 -0.6588  0.8975
  775MOL0     H 4582   9.714   6.317   9.056 -1.3389 -2.8195 -1.7120
  775MOL0     H 4583   9.939   6.383   8.864  1.1314  0.2126  0.0355
  775MOL0     H 4584   9.883   6.227   8.899  3.3635 -1.5690  2.8472
  775MOL0     H 4585  10.139   6.352   9.250 -3.1183  0.7998 -1.5917
  775MOL0     H 4586  10.347   6.352   9.367 -2.8400  0.0971 -0.5896
  775MOL0     H 4587  10.478   6.234   9.298  0.5371  0.8717 -2.7888
  775MOL0     H 4588  10.479   6.409   9.277  1.1689 -1.0506 -1.8368
  775MOL0     H 4589  10.735   6.035   9.019 -0.1401 -0.3427 -1.3958
  775MOL0     H 4590  10.982   5.992   8.959  0.3690 -1.6028 -2.5135
  775MOL0     H 4591  11.165   6.254   8.636  1.4959  0.0041  0.0127
  775MOL0     H 4592  11.185   6.276   8.817 -0.3205 -2.2081  2.3784
  775MOL0     H 4593  11.393   6.239   8.698  2.0462 -0.5567 -0.2421
  775MOL0     H 4594  11.365   6.092   8.802  1.6945 -1.0243 -1.2155
  775MOL0     H 4595  11.362   6.099   8.507 -0.5203  1.2260  0.6100
  775MOL0     H 4596  11.259   5.988   8.600 -0.5028  0.6121  0.7222
  775MOL0     H 4597  11.491   5.922   8.526 -0.3706  0.9843 -0.8824
  775MOL0     H 4598  11.559   6.028   8.650 -0.3674  1.1406 -0.0973
  775MOL0     H 4599  11.343   5.819   8.685 -1.7184  2.0551  3.3839
  775MOL0     H 4600  11.420   5.892   8.821 -0.0731 -0.1727 -0.6290
  775MOL0     H 4601  11.554   5.697   8.616  0.4844  2.4304 -1.2617
  775MOL0     H 4602  11.652   5.789   8.731  0.2524  2.0242 -2.2492
  775MOL0     H 4603  11.434   5.584   8.792  1.4737 -0.6714 -3.1316
  775MOL0     H 4604  11.543   5.666   8.914  2.8335  2.1424 -1.8198
  775MOL0     H 4605  11.739   5.547   8.801  0.1720  0.2018 -0.0557
  775MOL0     H 4606  11.628   5.460   8.698  0.9544  3.7982 -1.4913
  775MOL0     H 4607  10.941   6.268   8.644  0.3043  2.9679  1.7797
  775MOL0     H 4608  10.707   6.301   8.693 -1.5038 -1.6920 -0.4140
  775MOL0     H 4609  10.346   6.186   8.834 -3.3198  0.7176 -1.6822
  775MOL0     H 4610  10.112   6.202   8.848 -2.2682  2.0235  0.6312
  775MOL0     H 4611  10.239   6.891  10.039  0.4948  1.7228  1.7808
  775MOL0     H 4612  10.452   6.848  10.127 -1.1218  3.1667 -0.6175
  775MOL0     H 4613  10.880   6.672  10.157  1.8789  0.9957  0.1526
  775MOL0     H 4614  11.100   6.668  10.285 -0.4676 -2.4931 -2.4344
  775MOL0     H 4615  11.274   6.658  10.421 -0.3515  1.3059 -0.8917
  775MOL0     H 4616  11.202   6.802  10.480  1.6806 -0.5597 -2.4442
  775MOL0     H 4617  11.383   6.622  10.651  0.5431  0.2500  0.3402
  775MOL0     H 4618  11.300   6.756  10.729  0.8831 -2.3982  1.9064
  775MOL0     H 4619  11.392   6.909  10.561 -1.9189 -0.8752 -1.2429
  775MOL0     H 4620  11.502   6.773  10.505  0.1095  0.3237  0.3696
  775MOL0     H 4621  11.485   6.896  10.793  2.5460  0.5041  1.1690
  775MOL0     H 4622  11.612   6.923  10.675  0.8346 -0.5439 -1.6887
  775MOL0     H 4623  11.767   6.566  10.757 -1.2816 -0.2931  1.9068
  775MOL0     H 4624  10.866   6.627  10.652 -1.9896  0.0477  0.2780
  775MOL0     H 4625  10.666   6.632  10.520 -1.1110  2.1883 -1.2262
  776MOL0     O 4626  10.498   6.588   7.196  0.6887  0.3814  0.1328
  776MOL0     C 4627  10.488   6.708   7.164  0.4230 -0.1812  0.4032
  776MOL0     O 4628  10.375   6.779   7.141  1.1674  0.6993  0.2210
  776MOL0     C 4629  10.260   6.714   7.157  0.4582 -1.2688 -0.3088
  776MOL0     C 4630  10.212   6.634   7.258 -0.5014 -0.1294 -0.6947
  776MOL0     C 4631  10.078   6.587   7.277  0.0920  0.7715  0.8268
  776MOL0     C 4632   9.995   6.610   7.170  0.2661  0.3705  0.7254
  776MOL0     O 4633   9.866   6.565   7.158 -0.7771 -0.6236 -0.7675
  776MOL0     C 4634   9.833   6.426   7.200  1.1272 -0.8145  0.6486
  776MOL0     C 4635   9.740   6.431   7.325 -0.8744 -0.0406 -0.0831
  776MOL0     C 4636   9.666   6.304   7.344 -0.8043 -0.1003 -0.4031
  776MOL0     C 4637   9.541   6.302   7.260  0.5690  0.5791  0.7963
  776MOL0     C 4638   9.469   6.171   7.281 -0.1676 -1.1174  0.4067
  776MOL0     C 4639   9.531   6.048   7.215  0.1856  0.9561 -0.4901
  776MOL0     C 4640   9.443   5.922   7.215 -0.7281  0.4668 -0.2153
  776MOL0     C 4641   9.423   5.867   7.354  0.2163 -0.0096 -0.0792
  776MOL0     N 4642   9.356   5.735   7.348 -0.4856  0.5664 -0.6441
  776MOL0     C 4643   9.221   5.718   7.346 -0.4092 -0.9951  0.3751
  776MOL0     C 4644   9.206   5.585   7.355 -0.3054 -0.7380 -0.1907
  776MOL0     C 4645   9.073   5.509   7.361 -0.2170  0.0492 -0.1495
  776MOL0     C 4646   8.968   5.561   7.250 -1.3024  1.0082  1.0279
  776MOL0     C 4647   8.848   5.472   7.212 -0.3933 -0.1463 -0.3365
  776MOL0     C 4648   8.866   5.329   7.154 -0.4806  0.7220 -0.6902
  776MOL0     O 4649   8.922   5.352   7.025 -0.4679 -0.2797  0.2758
  776MOL0     C 4650   8.893   5.269   6.926  0.0739 -0.5416  0.6141
  776MOL0     C 4651   8.835   5.145   6.937  0.2613  0.4079 -0.0596
  776MOL0     C 4652   8.809   5.071   6.814  0.6609  0.2661 -0.2811
  776MOL0     C 4653   8.749   4.931   6.839  0.2839 -0.7189  0.6973
  776MOL0     C 4654   8.844   5.124   6.685 -0.1947  0.3094 -0.5836
  776MOL0     C 4655   8.810   5.065   6.557 -1.2976  0.0310 -0.1263
  776MOL0     O 4656   8.751   4.943   6.558 -0.1406 -0.1002  0.5729
  776MOL0     C 4657   8.726   4.867   6.450  0.1348 -0.1867 -0.0767
  776MOL0     C 4658   8.732   4.724   6.463  0.1002  0.4428  0.1481
  776MOL0     C 4659   8.689   4.644   6.353 -0.3664 -0.1265 -0.4986
  776MOL0     C 4660   8.627   4.701   6.238 -0.4517  1.0457 -1.1047
  776MOL0     O 4661   8.577   4.612   6.149 -0.0977 -0.4564  0.1176
  776MOL0     C 4662   8.507   4.665   6.037  0.3594  0.6132 -0.2983
  776MOL0     C 4663   8.448   4.543   5.974 -0.8060  0.6415 -0.3138
  776MOL0     C 4664   8.381   4.572   5.840 -0.7051  0.2805 -0.6453
  776MOL0     C 4665   8.230   4.623   5.847  0.5233 -0.3422 -0.2010
  776MOL0     C 4666   8.177   4.633   5.695 -0.2795  0.0478  0.0159
  776MOL0     C 4667   8.037   4.694   5.679 -0.0343  0.3329  0.7048
  776MOL0     C 4668   8.025   4.833   5.738  0.1639  0.8577 -0.6396
  776MOL0     C 4669   7.893   4.905   5.733  0.1199 -0.5450 -0.3901
  776MOL0    Cl 4670   7.772   4.823   5.840  0.1850 -0.4222 -0.8487
  776MOL0     C 4671   8.613   4.836   6.240  0.2215 -0.3423  0.1176
  776MOL0     C 4672   8.661   4.914   6.341  0.1605 -0.3806  0.4558
  776MOL0     O 4673   8.853   5.120   6.457 -0.4239  0.5134 -0.2539
  776MOL0     C 4674   8.911   5.247   6.689  0.5717 -0.9445  0.2645
  776MOL0     C 4675   8.933   5.316   6.800 -0.0836 -0.3699  0.1292
  776MOL0     N 4676   9.333   5.526   7.358 -0.3091 -0.6327  0.7753
  776MOL0     N 4677   9.428   5.612   7.344 -0.9379 -0.1237 -0.0535
  776MOL0     C 4678  10.038   6.695   7.068 -0.3612 -0.8984 -0.0048
  776MOL0     C 4679  10.162   6.753   7.063  0.5021  0.0677 -0.3225
  776MOL0     C 4680  10.617   6.785   7.159  0.7950 -0.0132  0.5305
  776MOL0     C 4681  10.625   6.931   7.143 -0.9418  0.0380  0.6420
  776MOL0     C 4682  10.749   7.002   7.157  0.5763 -0.2659  0.5980
  776MOL0     C 4683  10.864   6.927   7.185  1.2743 -0.3634  0.0488
  776MOL0     O 4684  10.975   7.011   7.210 -0.1457 -0.4287 -0.1825
  776MOL0     C 4685  11.103   6.952   7.218  0.2140 -0.2277 -0.0402
  776MOL0     C 4686  11.136   6.931   7.369  0.5974 -0.0811  0.7677
  776MOL0     C 4687  11.102   7.063   7.457  0.0159 -0.2013 -0.4763
  776MOL0     C 4688  11.160   7.023   7.601 -0.0680  0.7496 -0.2855
  776MOL0     C 4689  11.304   7.004   7.607 -0.0115 -0.0923  0.3341
  776MOL0     C 4690  11.424   6.989   7.612 -0.6502  0.7406  0.0750
  776MOL0     C 4691  10.856   6.794   7.206 -0.6742  0.3391 -0.3658
  776MOL0     C 4692  10.738   6.721   7.192  0.1973 -0.7391  0.0732
  776MOL0     H 4693  10.288   6.599   7.328 -1.8664 -0.4615  0.6986
  776MOL0     H 4694  10.059   6.533   7.369  4.7777  1.7718  2.6966
  776MOL0     H 4695   9.767   6.385   7.123 -1.7034  1.0188  1.9218
  776MOL0     H 4696   9.921   6.363   7.210 -0.4399 -2.9351  1.8903
  776MOL0     H 4697   9.803   6.451   7.412 -0.7496  1.9565 -0.5996
  776MOL0     H 4698   9.681   6.523   7.323 -0.1595  0.5515  2.5205
  776MOL0     H 4699   9.724   6.216   7.313 -0.4964 -0.1552  0.3105
  776MOL0     H 4700   9.635   6.289   7.448 -1.2631 -0.1325 -0.5414
  776MOL0     H 4701   9.478   6.382   7.300 -5.3750 -2.2988 -1.5271
  776MOL0     H 4702   9.572   6.314   7.156 -2.7727 -2.6704 -0.7877
  776MOL0     H 4703   9.475   6.156   7.389  1.7345  1.6169  0.7940
  776MOL0     H 4704   9.365   6.183   7.247 -0.5910 -0.7615  1.7607
  776MOL0     H 4705   9.551   6.060   7.108  0.3728 -1.5584 -0.7938
  776MOL0     H 4706   9.621   6.021   7.269  0.3917  3.9366  0.8437
  776MOL0     H 4707   9.351   5.933   7.157 -1.8819  1.3485  1.6856
  776MOL0     H 4708   9.511   5.854   7.163  2.0942  2.0202  1.2344
  776MOL0     H 4709   9.366   5.944   7.407 -2.6910 -2.0261 -0.0190
  776MOL0     H 4710   9.522   5.851   7.395 -1.1710 -0.1244  3.5366
  776MOL0     H 4711   9.148   5.799   7.348 -1.9927 -2.3681  0.5609
  776MOL0     H 4712   9.080   5.401   7.344  1.3637  0.1027  0.0880
  776MOL0     H 4713   9.022   5.526   7.457  1.9807 -0.7162  1.2177
  776MOL0     H 4714   9.015   5.572   7.152  0.9395  0.8888  2.0199
  776MOL0     H 4715   8.938   5.660   7.285 -2.5079  0.4890  1.5199
  776MOL0     H 4716   8.785   5.530   7.143  0.1719  1.3500  0.3586
  776MOL0     H 4717   8.793   5.470   7.307  0.0221 -0.9365 -0.1104
  776MOL0     H 4718   8.766   5.285   7.161 -1.0890  2.2764  1.3613
  776MOL0     H 4719   8.940   5.271   7.211 -1.4477 -0.2183 -0.3656
  776MOL0     H 4720   8.822   5.110   7.039  1.8373  1.7913  0.6702
  776MOL0     H 4721   8.755   4.901   6.944 -0.9291 -0.4509  0.8639
  776MOL0     H 4722   8.641   4.922   6.824  0.1965  1.4776 -0.3450
  776MOL0     H 4723   8.799   4.863   6.769  0.7862  0.4168 -0.0774
  776MOL0     H 4724   8.780   4.692   6.555 -1.7514  1.9659  1.7479
  776MOL0     H 4725   8.695   4.535   6.355  1.0033 -0.0985 -1.5258
  776MOL0     H 4726   8.420   4.722   6.070  0.6928 -0.3426  2.4232
  776MOL0     H 4727   8.571   4.717   5.965  0.5095  1.1555  0.2214
  776MOL0     H 4728   8.529   4.472   5.957 -1.5624 -0.2354 -0.3313
  776MOL0     H 4729   8.383   4.494   6.048 -1.2924 -1.5203 -2.0547
  776MOL0     H 4730   8.387   4.473   5.793  0.8979 -0.1490  0.3657
  776MOL0     H 4731   8.443   4.632   5.773  1.0193 -0.6882  0.0102
  776MOL0     H 4732   8.165   4.551   5.897  1.4193  0.2604  1.9187
  776MOL0     H 4733   8.224   4.718   5.901  1.0658 -0.5838  0.2790
  776MOL0     H 4734   8.170   4.534   5.650 -1.7702 -1.3848  3.1412
  776MOL0     H 4735   8.240   4.703   5.638  0.3882  0.5339  1.3053
  776MOL0     H 4736   8.026   4.714   5.572  2.6868 -0.9085  0.0960
  776MOL0     H 4737   7.961   4.631   5.726  0.5450  1.0370  2.6995
  776MOL0     H 4738   8.095   4.901   5.689  2.4517 -1.5080 -0.8509
  776MOL0     H 4739   8.046   4.830   5.845  3.9458 -3.0057 -1.2595
  776MOL0     H 4740   7.848   4.916   5.634  0.4370 -1.1808 -0.6112
  776MOL0     H 4741   7.909   5.004   5.777 -0.8476 -1.4906  2.3077
  776MOL0     H 4742   8.543   4.890   6.177 -0.0496  2.1368  2.3820
  776MOL0     H 4743   8.637   5.019   6.328 -0.8654 -0.6435  0.0928
  776MOL0     H 4744   8.929   5.292   6.592 -2.7838 -0.5072 -0.2802
  776MOL0     H 4745   8.970   5.418   6.789 -2.3089  0.2314 -4.3907
  776MOL0     H 4746   9.967   6.714   6.989  1.7892 -1.2291 -2.1460
  776MOL0     H 4747  10.180   6.824   6.983  0.3156  1.0359  0.4788
  776MOL0     H 4748  10.539   6.998   7.136 -0.8110  0.2391  0.9276
  776MOL0     H 4749  10.742   7.111   7.162 -1.3080 -0.3811  1.1065
  776MOL0     H 4750  11.111   6.857   7.164  2.5473 -0.5978  0.8292
  776MOL0     H 4751  11.176   7.023   7.176 -0.7729  0.7634 -0.1367
  776MOL0     H 4752  11.240   6.899   7.375  1.1010 -0.0567 -3.8079
  776MOL0     H 4753  11.069   6.848   7.393  0.9473 -0.5149  0.2600
  776MOL0     H 4754  10.994   7.080   7.449  0.2700  1.2891 -1.1501
  776MOL0     H 4755  11.153   7.147   7.408  0.8900 -2.4756 -3.7508
  776MOL0     H 4756  11.113   6.929   7.633 -0.3387  1.7238  2.4257
  776MOL0     H 4757  11.132   7.103   7.670 -1.7648 -0.0564  0.0131
  776MOL0     H 4758  11.530   6.981   7.610 -0.7405 -0.9586  0.3062
  776MOL0     H 4759  10.943   6.732   7.228 -0.2146  1.8746  2.7967
  776MOL0     H 4760  10.733   6.614   7.209 -0.7623 -0.5962  0.7866
  777MOL0     O 4761   5.260   4.596   0.171  0.5060 -0.0594 -0.0983
  777MOL0     C 4762   5.222   4.478   0.154 -0.1242 -0.3394 -0.3235
  777MOL0     O 4763   5.145   4.402   0.236  0.2609 -0.1193 -0.2252
  777MOL0     C 4764   5.104   4.460   0.354 -0.0992 -0.2244 -0.2207
  777MOL0     C 4765   5.064   4.594   0.379 -0.1876 -0.4744  0.3633
  777MOL0     C 4766   4.998   4.630   0.498 -0.3918 -0.9662 -1.3946
  777MOL0     C 4767   4.968   4.535   0.599  0.4538  0.3569 -0.0783
  777MOL0     O 4768   4.909   4.580   0.714  0.7546 -0.2278 -0.1627
  777MOL0     C 4769   4.826   4.487   0.784  0.5909 -0.5385 -0.4313
  777MOL0     C 4770   4.749   4.550   0.893  0.0313  0.0874 -0.4407
  777MOL0     C 4771   4.816   4.542   1.028  0.5838 -0.4680 -0.1981
  777MOL0     C 4772   4.773   4.653   1.130 -0.3901  0.0668  0.3223
  777MOL0     C 4773   4.743   4.787   1.073  0.6838  0.4186  0.3997
  777MOL0     C 4774   4.752   4.888   1.187  1.2003  0.0628  0.6084
  777MOL0     C 4775   4.696   5.022   1.165  0.8753  0.1906 -1.2053
  777MOL0     C 4776   4.551   5.038   1.214 -1.0534  1.2359  0.7464
  777MOL0     N 4777   4.497   5.166   1.190  0.0982 -0.0144  0.5202
  777MOL0     C 4778   4.423   5.236   1.281 -1.4724 -0.8458  0.4853
  777MOL0     C 4779   4.350   5.327   1.217 -0.1454 -0.1441  0.2570
  777MOL0     C 4780   4.241   5.399   1.285  0.9650  0.4563 -0.3931
  777MOL0     C 4781   4.105   5.317   1.298  0.0692  0.0532  0.1811
  777MOL0     C 4782   4.091   5.214   1.412  0.2546  0.0486 -0.5175
  777MOL0     C 4783   3.949   5.152   1.397  0.9869  1.7701 -1.0684
  777MOL0     O 4784   3.842   5.233   1.452 -0.0902 -0.6040  0.8114
  777MOL0     C 4785   3.734   5.244   1.367  0.4217 -0.7089  1.1358
  777MOL0     C 4786   3.706   5.364   1.313 -0.0958 -0.6398 -0.0468
  777MOL0     C 4787   3.593   5.388   1.229 -0.1799  0.2047 -0.0190
  777MOL0     C 4788   3.569   5.519   1.155 -0.1111 -0.2670 -0.3714
  777MOL0     C 4789   3.500   5.276   1.220  0.3836 -0.5353  0.3506
  777MOL0     C 4790   3.372   5.280   1.139  0.5338 -0.3406 -0.7164
  777MOL0     O 4791   3.319   5.400   1.127 -0.1260  0.3816 -0.2219
  777MOL0     C 4792   3.202   5.432   1.056  0.1554  0.3936 -0.4482
  777MOL0     C 4793   3.099   5.347   1.005 -0.9328  0.2169  0.1767
  777MOL0     C 4794   2.981   5.401   0.960 -0.1556  0.2841  0.2064
  777MOL0     C 4795   2.953   5.535   0.966  1.0272  0.5767 -0.4171
  777MOL0     O 4796   2.835   5.590   0.927 -0.9851  0.7904 -0.1182
  777MOL0     C 4797   2.751   5.529   0.836  0.0766 -0.6323  0.8541
  777MOL0     C 4798   2.635   5.620   0.796  0.1753  0.4417 -0.0069
  777MOL0     C 4799   2.519   5.539   0.742 -0.3310 -0.2849  0.2748
  777MOL0     C 4800   2.417   5.615   0.655  0.1855 -1.0351 -0.0092
  777MOL0     C 4801   2.299   5.523   0.623 -0.3332 -0.1567 -0.0789
  777MOL0     C 4802   2.174   5.607   0.587 -0.0967  0.1977  0.0112
  777MOL0     C 4803   2.046   5.523   0.625 -0.7822 -0.9056 -0.7315
  777MOL0     C 4804   1.933   5.577   0.542 -0.1673 -0.0712  0.0257
  777MOL0    Cl 4805   1.907   5.751   0.588 -0.3481  0.1985  0.1245
  777MOL0     C 4806   3.054   5.623   1.017  0.3130 -1.1146 -1.3165
  777MOL0     C 4807   3.169   5.567   1.070  0.5760  0.0138 -0.3032
  777MOL0     O 4808   3.313   5.169   1.119 -0.1300 -0.0585 -0.1919
  777MOL0     C 4809   3.532   5.154   1.286  0.5985  0.7300  0.7151
  777MOL0     C 4810   3.645   5.136   1.353 -0.1674 -0.4558 -0.0948
  777MOL0     N 4811   4.382   5.306   1.083  0.1288 -0.3776 -0.0524
  777MOL0     N 4812   4.464   5.212   1.066  0.2688  0.2868 -0.3697
  777MOL0     C 4813   5.019   4.401   0.572  0.0625 -0.8326  0.0585
  777MOL0     C 4814   5.079   4.367   0.453 -0.0798 -0.1203 -0.8208
  777MOL0     C 4815   5.272   4.409   0.034  0.2344 -0.6574  0.4762
  777MOL0     C 4816   5.339   4.486  -0.065 -0.1653  0.1826  0.3694
  777MOL0     C 4817   5.384   4.428  -0.184  0.2899 -0.6060  0.5509
  777MOL0     C 4818   5.367   4.298  -0.212 -0.6008  0.8633 -0.8993
  777MOL0     O 4819   5.409   4.238  -0.327 -0.3131 -0.7166 -0.6339
  777MOL0     C 4820   5.448   4.325  -0.436  0.0854  0.2098 -0.1874
  777MOL0     C 4821   5.470   4.228  -0.551  0.2121 -0.1825 -0.0185
  777MOL0     C 4822   5.593   4.137  -0.537  0.4593 -0.4979 -1.0685
  777MOL0     C 4823   5.722   4.177  -0.587  0.5976 -0.9569  0.6025
  777MOL0     C 4824   5.822   4.074  -0.566  0.1117  0.6427 -0.6836
  777MOL0     C 4825   5.916   4.006  -0.560 -0.2782  0.3264 -0.5491
  777MOL0     C 4826   5.299   4.216  -0.114 -0.6624 -0.9102 -0.2871
  777MOL0     C 4827   5.253   4.272   0.009  1.0338 -0.7807  0.2130
  777MOL0     H 4828   5.089   4.662   0.299  0.3973  0.5882  1.4057
  777MOL0     H 4829   4.987   4.733   0.530 -0.7304 -1.9648  2.1693
  777MOL0     H 4830   4.756   4.453   0.707  2.6911 -3.9980 -1.0532
  777MOL0     H 4831   4.883   4.406   0.832  0.8851 -0.3535 -0.4615
  777MOL0     H 4832   4.736   4.655   0.864  0.4825 -0.0525 -1.1835
  777MOL0     H 4833   4.654   4.495   0.899 -0.0047  0.2451  0.5563
  777MOL0     H 4834   4.783   4.444   1.065 -2.1985  0.2183 -0.5864
  777MOL0     H 4835   4.925   4.544   1.018  0.7038  0.6005  1.0383
  777MOL0     H 4836   4.686   4.622   1.190 -0.3909  0.3749  0.4800
  777MOL0     H 4837   4.863   4.669   1.190  0.3041 -0.3262 -0.5924
  777MOL0     H 4838   4.817   4.810   0.996 -0.6428 -1.7147 -1.6581
  777MOL0     H 4839   4.644   4.784   1.028 -0.2759  1.1968  2.3263
  777MOL0     H 4840   4.727   4.847   1.285  0.9365 -1.8959 -0.2235
  777MOL0     H 4841   4.857   4.911   1.205  1.5631  0.6951 -1.9604
  777MOL0     H 4842   4.737   5.089   1.241 -0.2322  1.5558 -1.7606
  777MOL0     H 4843   4.711   5.071   1.068 -0.8618  1.6655 -0.7925
  777MOL0     H 4844   4.533   5.012   1.319  1.9167  1.2698  1.3339
  777MOL0     H 4845   4.482   4.975   1.157  2.9975 -1.7391 -1.3652
  777MOL0     H 4846   4.410   5.218   1.387 -0.1403 -0.4627  0.7267
  777MOL0     H 4847   4.268   5.438   1.384 -2.4687  1.0963  0.4406
  777MOL0     H 4848   4.213   5.487   1.225  1.1716  0.9124  0.1651
  777MOL0     H 4849   4.083   5.266   1.203  0.7932 -0.9956  0.5514
  777MOL0     H 4850   4.031   5.392   1.325  3.6219  3.2058  1.9601
  777MOL0     H 4851   4.111   5.255   1.512 -3.4801 -0.5217  0.6018
  777MOL0     H 4852   4.157   5.127   1.407  0.9164  0.5768 -1.0164
  777MOL0     H 4853   3.952   5.071   1.471 -2.7368 -0.2912 -2.8640
  777MOL0     H 4854   3.928   5.106   1.300 -0.4837 -1.9790  0.8022
  777MOL0     H 4855   3.775   5.439   1.351  0.4726 -0.0816 -2.0228
  777MOL0     H 4856   3.575   5.497   1.048 -1.0541  0.3531 -0.5640
  777MOL0     H 4857   3.475   5.572   1.170  1.3170  2.2931  0.0831
  777MOL0     H 4858   3.650   5.589   1.179 -1.5280  1.0809  0.6756
  777MOL0     H 4859   3.091   5.240   0.994 -2.1559  0.3397 -0.2829
  777MOL0     H 4860   2.913   5.323   0.926  0.9590 -1.2443  1.3337
  777MOL0     H 4861   2.806   5.490   0.750 -0.6634  0.6842 -0.2638
  777MOL0     H 4862   2.716   5.436   0.880  0.4642 -1.1129  0.1670
  777MOL0     H 4863   2.591   5.665   0.886 -0.2276 -0.3719  0.2155
  777MOL0     H 4864   2.665   5.699   0.728 -1.8623 -0.0230 -1.5558
  777MOL0     H 4865   2.466   5.489   0.824 -2.4090 -0.6190 -1.2019
  777MOL0     H 4866   2.550   5.456   0.679 -2.1833 -1.7925  1.2195
  777MOL0     H 4867   2.392   5.710   0.701  1.8590 -0.3453 -0.4379
  777MOL0     H 4868   2.457   5.640   0.556 -0.6330 -2.5775 -0.7813
  777MOL0     H 4869   2.285   5.466   0.715 -1.0722 -0.9086 -0.6395
  777MOL0     H 4870   2.317   5.453   0.541 -1.7700 -0.8104  0.1344
  777MOL0     H 4871   2.177   5.704   0.637 -3.3540  1.3150 -1.6152
  777MOL0     H 4872   2.166   5.633   0.481  0.9332  0.5341  0.0041
  777MOL0     H 4873   2.023   5.525   0.732  0.3106 -1.0792 -0.4787
  777MOL0     H 4874   2.060   5.416   0.608 -0.2438 -0.6295 -2.2521
  777MOL0     H 4875   1.844   5.522   0.573  0.0039  1.3551  3.5221
  777MOL0     H 4876   1.951   5.567   0.435  1.3736  1.0879  0.1357
  777MOL0     H 4877   3.035   5.729   1.029  2.2382 -1.1031  4.5797
  777MOL0     H 4878   3.233   5.624   1.136 -0.9025 -0.7611  1.9183
  777MOL0     H 4879   3.464   5.069   1.277  2.4744 -0.7624 -0.1544
  777MOL0     H 4880   3.669   5.041   1.398  3.7456  0.2424 -0.2880
  777MOL0     H 4881   5.000   4.327   0.649  0.9849 -1.3404 -0.1968
  777MOL0     H 4882   5.120   4.267   0.439 -0.1392 -0.2260 -0.2472
  777MOL0     H 4883   5.365   4.589  -0.043  0.1358  0.1071  0.3722
  777MOL0     H 4884   5.431   4.495  -0.255  1.4492 -0.4592  1.4282
  777MOL0     H 4885   5.380   4.407  -0.462  0.9799  0.8279 -0.6583
  777MOL0     H 4886   5.541   4.378  -0.411 -0.9579  0.9408  2.5235
  777MOL0     H 4887   5.486   4.293  -0.638  1.4933  1.3701  1.3117
  777MOL0     H 4888   5.380   4.168  -0.566  1.5344 -2.1849 -0.3022
  777MOL0     H 4889   5.559   4.041  -0.576 -2.1805 -1.9036  3.8177
  777MOL0     H 4890   5.603   4.125  -0.429  1.1875  0.7055 -0.9834
  777MOL0     H 4891   5.757   4.264  -0.530  1.1412  1.4829 -3.1002
  777MOL0     H 4892   5.745   4.210  -0.689  0.2440  0.9701  1.1032
  777MOL0     H 4893   6.015   3.967  -0.549 -0.4794  0.0734  0.4759
  777MOL0     H 4894   5.290   4.113  -0.145 -0.5956 -0.6875 -1.0693
  777MOL0     H 4895   5.217   4.202   0.083  1.0289  0.7398  1.7095
  778MOL0     O 4896   4.333   7.870   3.745 -0.6521 -0.2144  0.0090
  778MOL0     C 4897   4.364   7.762   3.782  0.1136  0.1710 -0.1690
  778MOL0     O 4898   4.281   7.654   3.798 -0.5158  0.4020  0.3841
  778MOL0     C 4899   4.144   7.662   3.804  1.1792 -0.7932  0.3753
  778MOL0     C 4900   4.062   7.780   3.823 -0.3168 -0.3455 -0.0021
  778MOL0     C 4901   3.921   7.773   3.796  0.4886  0.4488  0.8129
  778MOL0     C 4902   3.857   7.645   3.764  0.0252 -0.3639 -0.4230
  778MOL0     O 4903   3.726   7.643   3.738 -0.6462  0.6559 -0.0736
  778MOL0     C 4904   3.704   7.628   3.595 -0.0760 -0.5126 -0.2279
  778MOL0     C 4905   3.552   7.627   3.575  0.2152 -0.6287 -0.2439
  778MOL0     C 4906   3.504   7.769   3.614 -0.4886  0.3967  0.2881
  778MOL0     C 4907   3.357   7.800   3.582 -0.3797 -0.0737  0.2953
  778MOL0     C 4908   3.324   7.826   3.437 -0.5833  0.1760 -0.8411
  778MOL0     C 4909   3.178   7.858   3.425  0.3995 -0.0456  0.4284
  778MOL0     C 4910   3.131   7.875   3.278  0.1377  0.1050  0.4731
  778MOL0     C 4911   3.021   7.988   3.269  0.0925 -0.0543 -0.0596
  778MOL0     N 4912   2.906   7.976   3.362 -0.6397 -0.2910 -0.4600
  778MOL0     C 4913   2.789   7.907   3.346  0.2145 -0.6231 -0.0470
  778MOL0     C 4914   2.723   7.939   3.463  0.6645 -0.2382 -0.1797
  778MOL0     C 4915   2.610   7.864   3.519 -0.6884 -0.4920 -0.5250
  778MOL0     C 4916   2.482   7.881   3.441 -0.5141  0.3784  0.5413
  778MOL0     C 4917   2.362   7.809   3.488  0.5673 -0.2120 -0.0194
  778MOL0     C 4918   2.230   7.844   3.423  0.0063  0.3878  0.2026
  778MOL0     O 4919   2.183   7.739   3.337 -0.0335 -0.0321 -0.2380
  778MOL0     C 4920   2.053   7.764   3.293  0.4787 -0.2686  1.3202
  778MOL0     C 4921   1.963   7.658   3.288  0.2711 -0.0601  0.2596
  778MOL0     C 4922   1.824   7.673   3.264 -0.3526 -0.5760 -0.3335
  778MOL0     C 4923   1.748   7.543   3.270 -0.3418  0.1084 -0.1121
  778MOL0     C 4924   1.769   7.799   3.235 -0.0851  0.2385  0.1492
  778MOL0     C 4925   1.629   7.827   3.216 -0.0276  0.2307 -0.2071
  778MOL0     O 4926   1.540   7.727   3.207 -0.7588  0.0629  0.2618
  778MOL0     C 4927   1.407   7.753   3.226  0.4196  0.3432 -0.6874
  778MOL0     C 4928   1.307   7.670   3.174  0.1993  0.5505 -0.4753
  778MOL0     C 4929   1.166   7.693   3.202 -0.1540 -0.1156  0.9754
  778MOL0     C 4930   1.127   7.801   3.272  0.7763 -0.8978 -0.3222
  778MOL0     O 4931   0.996   7.819   3.287 -0.3553 -0.4899 -0.3737
  778MOL0     C 4932   0.956   7.863   3.411 -0.0499 -0.5427 -0.0409
  778MOL0     C 4933   0.821   7.795   3.440 -0.5634 -0.4430  0.2360
  778MOL0     C 4934   0.688   7.845   3.375  0.3597  0.1284  0.5793
  778MOL0     C 4935   0.586   7.728   3.360 -0.3130  0.0204 -0.2919
  778MOL0     C 4936   0.458   7.776   3.427  0.2383  0.0297  0.0232
  778MOL0     C 4937   0.343   7.679   3.402 -0.2501  0.1103  0.3403
  778MOL0     C 4938   0.220   7.731   3.464 -0.0058  0.5143 -0.4155
  778MOL0     C 4939   0.093   7.653   3.441 -0.1768 -0.6806  0.2757
  778MOL0    Cl 4940   0.028   7.690   3.276 -0.2996 -0.2814 -0.2380
  778MOL0     C 4941   1.224   7.881   3.333  0.3641 -0.2479  0.1178
  778MOL0     C 4942   1.356   7.859   3.306 -0.0570  0.0134  0.0088
  778MOL0     O 4943   1.604   7.948   3.197 -0.0304  0.3712 -0.1308
  778MOL0     C 4944   1.860   7.907   3.237  0.1417 -0.1254  0.7928
  778MOL0     C 4945   1.993   7.894   3.272 -0.7808  0.5302 -0.1510
  778MOL0     N 4946   2.797   8.018   3.532 -0.1166  0.7843 -0.7105
  778MOL0     N 4947   2.907   8.043   3.479 -0.4916  1.1644  0.2242
  778MOL0     C 4948   3.932   7.531   3.750 -0.3545 -0.5396  0.0993
  778MOL0     C 4949   4.071   7.543   3.772  0.3907  0.4326  0.2773
  778MOL0     C 4950   4.509   7.758   3.822  0.2487  0.0153 -0.0288
  778MOL0     C 4951   4.560   7.665   3.907  0.1074 -0.8698 -0.0880
  778MOL0     C 4952   4.697   7.663   3.949  0.7484 -0.3426 -0.3678
  778MOL0     C 4953   4.778   7.764   3.899 -0.1963  1.1301  0.1758
  778MOL0     O 4954   4.903   7.751   3.952  0.1312 -0.7812  0.1572
  778MOL0     C 4955   5.006   7.841   3.899 -0.7186  0.0997  0.7733
  778MOL0     C 4956   5.137   7.782   3.951  0.4511  0.4699  0.2242
  778MOL0     C 4957   5.276   7.855   3.924  0.9116 -0.6087 -0.3416
  778MOL0     C 4958   5.259   7.997   3.869 -0.5283  0.1678  0.1831
  778MOL0     C 4959   5.393   8.059   3.884 -0.0924 -0.0308 -0.7007
  778MOL0     C 4960   5.498   8.109   3.900 -0.6282 -0.1802  0.4739
  778MOL0     C 4961   4.735   7.860   3.812 -0.2296 -0.0117  0.1058
  778MOL0     C 4962   4.602   7.859   3.773  0.4581 -0.1895 -0.1293
  778MOL0     H 4963   4.095   7.875   3.863 -0.5159  0.3018 -1.3444
  778MOL0     H 4964   3.846   7.852   3.800  0.2887  0.2782  0.4171
  778MOL0     H 4965   3.749   7.717   3.550  0.7651 -1.2284 -0.8484
  778MOL0     H 4966   3.757   7.545   3.547  1.5682 -0.9359  2.1662
  778MOL0     H 4967   3.526   7.606   3.471  1.0922 -1.2196 -0.3537
  778MOL0     H 4968   3.503   7.553   3.639  0.0029 -1.8241 -1.7375
  778MOL0     H 4969   3.536   7.786   3.717  0.2823 -1.6067  0.4301
  778MOL0     H 4970   3.560   7.842   3.554 -0.8464  2.9370  2.8333
  778MOL0     H 4971   3.292   7.718   3.613 -2.1211  0.8947 -0.6660
  778MOL0     H 4972   3.328   7.885   3.644  2.2047 -0.4568  2.2170
  778MOL0     H 4973   3.395   7.892   3.386  3.3577 -3.4598 -0.5617
  778MOL0     H 4974   3.340   7.733   3.382  0.3086 -1.3327  1.7749
  778MOL0     H 4975   3.124   7.775   3.470 -1.4874  0.0891 -1.4702
  778MOL0     H 4976   3.151   7.956   3.465 -0.1669 -0.0747  0.1217
  778MOL0     H 4977   3.211   7.921   3.219 -1.3375 -0.9024 -2.5657
  778MOL0     H 4978   3.093   7.781   3.238 -1.6565  0.9943 -0.0466
  778MOL0     H 4979   2.976   7.977   3.170  0.0055 -1.2796  0.0999
  778MOL0     H 4980   3.072   8.084   3.277 -1.4145  0.8271 -0.6775
  778MOL0     H 4981   2.762   7.842   3.264 -0.3616 -1.4201  0.7586
  778MOL0     H 4982   2.630   7.756   3.527 -1.0055 -0.5188 -0.0997
  778MOL0     H 4983   2.599   7.908   3.618  3.5623 -2.0419  0.8508
  778MOL0     H 4984   2.501   7.855   3.336 -2.2314 -1.5667  0.6498
  778MOL0     H 4985   2.453   7.987   3.443  0.1183  0.6819 -2.3512
  778MOL0     H 4986   2.364   7.826   3.596  0.7447 -0.8229  0.0793
  778MOL0     H 4987   2.374   7.702   3.469 -0.7710 -0.9455  2.7776
  778MOL0     H 4988   2.241   7.934   3.360 -2.9575 -1.1195 -2.7907
  778MOL0     H 4989   2.158   7.866   3.501 -0.5863 -1.2512  0.1523
  778MOL0     H 4990   2.008   7.559   3.293 -0.9751 -0.6596  0.1405
  778MOL0     H 4991   1.817   7.465   3.303 -0.0751 -0.4390 -1.8319
  778MOL0     H 4992   1.669   7.560   3.344  1.6968  3.9903  1.4489
  778MOL0     H 4993   1.701   7.518   3.174 -1.3600  0.1222  0.3657
  778MOL0     H 4994   1.337   7.587   3.111 -0.7399  0.9154 -1.4301
  778MOL0     H 4995   1.097   7.627   3.150  0.9484  0.3287 -1.1994
  778MOL0     H 4996   1.031   7.839   3.487  0.2327  1.5408  0.4120
  778MOL0     H 4997   0.946   7.971   3.426  1.8853 -0.4856  1.2783
  778MOL0     H 4998   0.843   7.691   3.413 -0.5781 -0.4322  0.1811
  778MOL0     H 4999   0.806   7.801   3.548  3.3914  0.7631  0.8768
  778MOL0     H 5000   0.719   7.881   3.276 -2.3674 -0.4767 -0.5699
  778MOL0     H 5001   0.653   7.932   3.431  1.4020  0.7017  0.3816
  778MOL0     H 5002   0.575   7.698   3.255  0.7221  1.0331 -0.7222
  778MOL0     H 5003   0.627   7.639   3.409 -1.5315 -0.8635 -0.8344
  778MOL0     H 5004   0.436   7.874   3.383  0.1981 -0.0637 -0.1635
  778MOL0     H 5005   0.465   7.780   3.536  1.4437  2.5656 -0.0616
  778MOL0     H 5006   0.329   7.675   3.293 -1.5731 -2.8191  0.5358
  778MOL0     H 5007   0.368   7.578   3.434  0.3464 -0.2952 -1.2765
  778MOL0     H 5008   0.203   7.835   3.433 -2.4415 -0.1719 -1.6701
  778MOL0     H 5009   0.239   7.722   3.571  2.1984 -1.2042 -0.8621
  778MOL0     H 5010   0.013   7.681   3.510 -0.4935 -0.3101 -0.2416
  778MOL0     H 5011   0.109   7.545   3.453  0.2749 -0.5482  0.9386
  778MOL0     H 5012   1.196   7.954   3.409  1.3404  0.0798  0.1696
  778MOL0     H 5013   1.434   7.917   3.354 -0.7835  0.0597  1.1788
  778MOL0     H 5014   1.830   8.010   3.225  0.8661  0.0274  0.2315
  778MOL0     H 5015   2.054   7.983   3.281 -1.9468  1.2805  0.5090
  778MOL0     H 5016   3.895   7.436   3.713  2.4736 -1.9754  0.6082
  778MOL0     H 5017   4.133   7.454   3.766  1.9787  1.5392 -0.5832
  778MOL0     H 5018   4.490   7.596   3.953 -1.8506  0.5964 -0.7514
  778MOL0     H 5019   4.738   7.599   4.026  5.2991  2.6056  0.0623
  778MOL0     H 5020   5.006   7.840   3.790 -1.8073 -1.4702  0.7520
  778MOL0     H 5021   4.991   7.944   3.932  2.6277  0.6740  0.7675
  778MOL0     H 5022   5.141   7.677   3.923  0.7994  0.5541 -0.0502
  778MOL0     H 5023   5.127   7.769   4.059  0.3047 -0.3559  0.1119
  778MOL0     H 5024   5.325   7.796   3.846  1.8536  0.3222 -0.4719
  778MOL0     H 5025   5.343   7.855   4.011  0.5016 -0.7980 -0.0191
  778MOL0     H 5026   5.176   8.057   3.908 -0.2372  2.4696 -2.4504
  778MOL0     H 5027   5.246   7.991   3.760 -0.0091 -0.2201  0.1389
  778MOL0     H 5028   5.587   8.167   3.913 -1.9989  1.8219  1.4053
  778MOL0     H 5029   4.815   7.928   3.784  1.6734 -0.7431  3.3081
  778MOL0     H 5030   4.595   7.928   3.690  0.6064  0.1816  0.1678
  779MOL0     O 5031   1.751   8.889   8.546  0.0798  0.5368 -1.3430
  779MOL0     C 5032   1.717   8.976   8.625  0.3192  0.1381 -0.6756
  779MOL0     O 5033   1.627   8.973   8.733  0.6667  0.2352  0.4919
  779MOL0     C 5034   1.592   8.856   8.799 -0.5209  0.3482 -0.3202
  779MOL0     C 5035   1.464   8.837   8.856  0.3352 -0.2839  0.6583
  779MOL0     C 5036   1.410   8.716   8.899 -0.1337 -0.2558  1.0167
  779MOL0     C 5037   1.487   8.611   8.899 -0.7772 -0.6037  0.0086
  779MOL0     O 5038   1.430   8.489   8.923 -0.1462 -0.5921  0.1610
  779MOL0     C 5039   1.506   8.372   8.935 -0.5111 -0.7423  0.6766
  779MOL0     C 5040   1.421   8.263   9.006  0.3906 -0.5141 -0.3495
  779MOL0     C 5041   1.300   8.215   8.916 -0.7649  0.2889  0.0397
  779MOL0     C 5042   1.337   8.140   8.796 -0.8050  0.1322  0.4953
  779MOL0     C 5043   1.218   8.121   8.710  0.4909 -0.3047  0.4931
  779MOL0     C 5044   1.107   8.039   8.788  0.2529 -0.7554 -0.3086
  779MOL0     C 5045   0.990   8.029   8.692 -0.7601 -0.2892  0.2484
  779MOL0     C 5046   0.890   8.129   8.730  0.3355  0.4907  0.2135
  779MOL0     N 5047   0.755   8.087   8.686  0.3309 -0.7755  0.0896
  779MOL0     C 5048   0.708   8.089   8.552  0.2523  0.5299 -0.3619
  779MOL0     C 5049   0.580   8.059   8.555  0.1769 -0.0644  0.6710
  779MOL0     C 5050   0.488   8.067   8.433 -0.9750  0.2874  0.6169
  779MOL0     C 5051   0.355   7.997   8.456 -0.1577  0.8154 -0.7410
  779MOL0     C 5052   0.234   8.084   8.511 -0.2575  0.3912 -0.1118
  779MOL0     C 5053   0.100   8.015   8.481 -0.0590 -0.3944 -0.7055
  779MOL0     O 5054   0.066   7.982   8.348  0.2128 -1.2672 -0.0846
  779MOL0     C 5055  -0.066   8.006   8.310 -0.6901  0.6204 -0.0299
  779MOL0     C 5056  -0.152   7.895   8.308  0.8057  0.6238  0.8422
  779MOL0     C 5057  -0.286   7.904   8.271 -0.8400  0.3541  0.0978
  779MOL0     C 5058  -0.356   7.772   8.262  0.3366  0.3699 -0.3271
  779MOL0     C 5059  -0.338   8.026   8.235 -0.8815 -1.0705 -0.5193
  779MOL0     C 5060  -0.482   8.058   8.211 -0.4612 -0.0505  0.2819
  779MOL0     O 5061  -0.510   8.150   8.110 -0.3681 -0.9248  0.5544
  779MOL0     C 5062  -0.645   8.182   8.090 -0.6456 -0.5406  0.5433
  779MOL0     C 5063  -0.714   8.136   7.975 -0.2379  0.5730  1.0162
  779MOL0     C 5064  -0.847   8.178   7.951  0.3917  0.6797 -0.6196
  779MOL0     C 5065  -0.907   8.258   8.047 -0.6940  0.6602 -0.0274
  779MOL0     O 5066  -1.029   8.325   8.029 -0.5225  0.8722 -0.4289
  779MOL0     C 5067  -1.113   8.273   7.931  0.1553 -0.3586  0.0474
  779MOL0     C 5068  -1.239   8.364   7.958  0.6338  0.2394  0.3511
  779MOL0     C 5069  -1.328   8.310   8.060  0.1949 -0.0790 -0.5555
  779MOL0     C 5070  -1.463   8.384   8.071  0.1901  0.0751 -0.1384
  779MOL0     C 5071  -1.545   8.309   8.169  0.1662  0.2075 -0.3868
  779MOL0     C 5072  -1.691   8.360   8.167 -0.3509 -0.7708  0.0777
  779MOL0     C 5073  -1.783   8.250   8.226 -0.3346  1.0150  0.7399
  779MOL0     C 5074  -1.930   8.305   8.216 -0.4337  0.6619 -0.3523
  779MOL0    Cl 5075  -1.986   8.376   8.063 -0.0501 -0.2823 -0.3965
  779MOL0     C 5076  -0.834   8.305   8.156 -0.0625 -0.7452 -0.9330
  779MOL0     C 5077  -0.707   8.277   8.175 -0.0092  0.3011  0.6926
  779MOL0     O 5078  -0.567   7.994   8.271  0.3860 -0.0906 -0.3295
  779MOL0     C 5079  -0.257   8.140   8.235  0.1011 -0.2213  0.3796
  779MOL0     C 5080  -0.120   8.127   8.279 -0.6457 -0.3774 -0.1571
  779MOL0     N 5081   0.549   8.032   8.685 -0.3337 -0.2615 -0.3059
  779MOL0     N 5082   0.653   8.045   8.762 -0.0134  0.5371  0.5152
  779MOL0     C 5083   1.616   8.623   8.837  0.5596  0.5632 -0.4155
  779MOL0     C 5084   1.671   8.739   8.797  0.3066 -0.6707  0.1594
  779MOL0     C 5085   1.772   9.109   8.606 -0.3477  0.4230  0.4983
  779MOL0     C 5086   1.890   9.113   8.535 -0.0511  0.2496  0.1751
  779MOL0     C 5087   1.962   9.229   8.519 -1.3687 -0.0455 -0.2550
  779MOL0     C 5088   1.914   9.350   8.573 -0.3268 -1.7082 -0.4573
  779MOL0     O 5089   1.985   9.469   8.550  0.2535 -0.6898 -0.0987
  779MOL0     C 5090   1.972   9.522   8.419  0.6719  0.0039 -0.0610
  779MOL0     C 5091   2.020   9.658   8.407  0.0164 -0.5867 -0.1669
  779MOL0     C 5092   1.945   9.763   8.501 -0.6504  0.2739  0.1468
  779MOL0     C 5093   2.026   9.904   8.501 -0.5404 -0.1352  0.0745
  779MOL0     C 5094   2.120   9.917   8.616  1.0264 -0.0553  0.8948
  779MOL0     C 5095   2.183   9.935   8.713  0.1931 -0.3762 -0.3040
  779MOL0     C 5096   1.797   9.347   8.647  0.3668 -0.3555  0.7199
  779MOL0     C 5097   1.726   9.224   8.672  0.1407 -0.1455 -0.7455
  779MOL0     H 5098   1.409   8.930   8.859 -1.1887 -1.1821  3.0447
  779MOL0     H 5099   1.306   8.709   8.927 -0.6039 -0.6474 -0.7193
  779MOL0     H 5100   1.541   8.345   8.835 -1.1937 -0.5476  0.3813
  779MOL0     H 5101   1.595   8.388   8.997  2.3492 -4.0683 -2.1198
  779MOL0     H 5102   1.491   8.183   9.034  0.7148 -0.2712 -0.4475
  779MOL0     H 5103   1.383   8.297   9.102 -1.5870 -0.5113 -1.0917
  779MOL0     H 5104   1.237   8.156   8.983  1.1032 -1.3368  0.4789
  779MOL0     H 5105   1.225   8.288   8.885 -2.6079  0.2933  4.0068
  779MOL0     H 5106   1.420   8.184   8.741 -0.4821 -1.6129 -0.4963
  779MOL0     H 5107   1.365   8.037   8.822 -4.6200 -1.1941 -0.0063
  779MOL0     H 5108   1.170   8.217   8.689 -1.5146 -1.5443 -1.1398
  779MOL0     H 5109   1.254   8.070   8.620  1.5323 -2.8297  2.2238
  779MOL0     H 5110   1.142   7.946   8.833 -2.0058 -1.6507 -0.2411
  779MOL0     H 5111   1.076   8.097   8.875  1.9666  2.0654 -1.4329
  779MOL0     H 5112   1.017   8.045   8.587 -2.1644  0.7543  0.0027
  779MOL0     H 5113   0.969   7.922   8.704  1.7339 -1.0346 -1.2895
  779MOL0     H 5114   0.903   8.226   8.682 -2.0362  0.2807 -1.0134
  779MOL0     H 5115   0.896   8.138   8.839  5.3662 -1.4506  0.3654
  779MOL0     H 5116   0.767   8.126   8.469  1.4058 -0.0276  0.1998
  779MOL0     H 5117   0.469   8.171   8.402 -0.2738  0.3042  0.2202
  779MOL0     H 5118   0.532   8.025   8.342 -1.5813  0.9336  0.0156
  779MOL0     H 5119   0.359   7.912   8.525  0.1620  3.3047  2.5554
  779MOL0     H 5120   0.331   7.962   8.355 -7.0143  4.0180 -0.7412
  779MOL0     H 5121   0.238   8.180   8.458 -0.6800 -0.8185 -2.4366
  779MOL0     H 5122   0.248   8.103   8.618  2.9766  2.6690 -0.7969
  779MOL0     H 5123   0.017   8.065   8.533  0.0544 -2.0672  1.1884
  779MOL0     H 5124   0.108   7.918   8.530 -1.6317 -0.7539 -1.0828
  779MOL0     H 5125  -0.115   7.800   8.346 -0.5157 -0.4131 -0.3559
  779MOL0     H 5126  -0.324   7.712   8.348 -3.1639  1.2525  1.8135
  779MOL0     H 5127  -0.463   7.780   8.284  0.3903 -0.5705  0.3375
  779MOL0     H 5128  -0.344   7.716   8.169 -0.8285 -0.0254 -0.2612
  779MOL0     H 5129  -0.659   8.088   7.896 -0.3201  2.0992 -0.0204
  779MOL0     H 5130  -0.915   8.150   7.871 -1.4499  3.0151  0.0098
  779MOL0     H 5131  -1.074   8.276   7.829  1.1293  0.7039  0.4389
  779MOL0     H 5132  -1.148   8.170   7.943 -2.3895  0.3284 -0.7261
  779MOL0     H 5133  -1.208   8.463   7.992  3.7747 -0.8760  1.0387
  779MOL0     H 5134  -1.297   8.368   7.865  0.9907  0.7426  0.1454
  779MOL0     H 5135  -1.267   8.299   8.151  2.5740 -1.9794 -2.2574
  779MOL0     H 5136  -1.349   8.207   8.029 -4.3142  0.3001  0.4946
  779MOL0     H 5137  -1.437   8.483   8.111 -1.6847  0.1405  1.0877
  779MOL0     H 5138  -1.509   8.402   7.973 -0.1657  1.8493  0.3048
  779MOL0     H 5139  -1.495   8.307   8.267  0.5622  0.1026 -0.5885
  779MOL0     H 5140  -1.547   8.203   8.141  0.8331 -0.1015  0.6522
  779MOL0     H 5141  -1.700   8.453   8.223  1.8561 -0.6922  0.3921
  779MOL0     H 5142  -1.721   8.362   8.062  0.8100 -2.0189 -0.3117
  779MOL0     H 5143  -1.754   8.222   8.328 -2.3119 -0.6540  0.9116
  779MOL0     H 5144  -1.771   8.166   8.157 -2.7514 -1.2624  2.8548
  779MOL0     H 5145  -1.931   8.369   8.305  2.1862  0.8209 -0.3601
  779MOL0     H 5146  -1.994   8.219   8.235 -1.1382  1.3251  0.3600
  779MOL0     H 5147  -0.881   8.376   8.224  0.4175 -1.6242  0.3653
  779MOL0     H 5148  -0.650   8.311   8.261 -1.9451  0.7661  1.8852
  779MOL0     H 5149  -0.306   8.232   8.205 -1.5059 -0.2991  2.5354
  779MOL0     H 5150  -0.052   8.211   8.271  0.3675 -1.2402 -0.8678
  779MOL0     H 5151   1.677   8.533   8.831  0.0480  0.0764  1.2047
  779MOL0     H 5152   1.769   8.743   8.750 -0.1206 -1.1219 -0.8119
  779MOL0     H 5153   1.933   9.020   8.499 -2.5367 -0.8288 -0.2459
  779MOL0     H 5154   2.054   9.217   8.463 -0.0018  0.8890  1.7129
  779MOL0     H 5155   2.035   9.462   8.353  1.1844 -0.9828  1.2905
  779MOL0     H 5156   1.865   9.511   8.396  0.7350  0.4747 -0.5993
  779MOL0     H 5157   2.009   9.685   8.302 -0.8879 -0.4662 -0.0443
  779MOL0     H 5158   2.124   9.656   8.441 -0.0201  0.8180  0.0613
  779MOL0     H 5159   1.933   9.726   8.603 -0.4989  3.0804  1.2409
  779MOL0     H 5160   1.848   9.788   8.459 -0.5562  1.2513  0.4873
  779MOL0     H 5161   1.967   9.994   8.520  2.0111  1.8483 -0.8090
  779MOL0     H 5162   2.080   9.920   8.408 -2.3801 -2.1761 -1.4595
  779MOL0     H 5163   2.236   9.942   8.806  0.0759 -1.4041 -0.1504
  779MOL0     H 5164   1.754   9.442   8.679 -0.5227 -0.2135 -0.8261
  779MOL0     H 5165   1.629   9.218   8.721 -0.7622 -0.6867 -2.5449
  780MOL0     O 5166   5.348   5.286   3.835  0.8595  0.2277  0.2244
  780MOL0     C 5167   5.391   5.172   3.862  0.2847 -0.2721  0.8005
  780MOL0     O 5168   5.337   5.045   3.828 -0.2849  0.0968  0.0694
  780MOL0     C 5169   5.225   5.035   3.756  0.6986  0.8671  0.9238
  780MOL0     C 5170   5.161   4.913   3.784  0.6044 -0.5015 -0.2713
  780MOL0     C 5171   5.036   4.887   3.717  0.5246 -0.2156  0.4507
  780MOL0     C 5172   4.977   4.973   3.623  1.3126  1.2232 -0.9051
  780MOL0     O 5173   4.858   4.939   3.567 -0.2144  0.6087 -0.2817
  780MOL0     C 5174   4.741   4.952   3.644  0.1428 -0.5592 -0.2113
  780MOL0     C 5175   4.702   5.096   3.679  0.3179  0.1299 -0.1110
  780MOL0     C 5176   4.677   5.186   3.553 -1.2498  0.3659 -0.6134
  780MOL0     C 5177   4.534   5.155   3.499  0.3574 -0.0868  0.2328
  780MOL0     C 5178   4.508   5.239   3.374 -0.0904  0.3448  0.2953
  780MOL0     C 5179   4.499   5.384   3.410  0.9533 -0.6723  1.2085
  780MOL0     C 5180   4.405   5.463   3.309 -0.5472  1.8001  0.0472
  780MOL0     C 5181   4.458   5.485   3.164  1.7185  0.9013 -0.0338
  780MOL0     N 5182   4.392   5.604   3.104 -0.2705  0.7449  0.3245
  780MOL0     C 5183   4.421   5.726   3.150 -0.2576 -1.2934  0.7678
  780MOL0     C 5184   4.336   5.808   3.095  0.7570 -0.2706 -1.0428
  780MOL0     C 5185   4.310   5.961   3.104  0.7566  1.2134  0.5531
  780MOL0     C 5186   4.156   5.995   3.095 -0.7773 -0.0708  0.5738
  780MOL0     C 5187   4.132   6.148   3.117  0.7813  0.7215  0.1479
  780MOL0     C 5188   3.983   6.190   3.097 -0.2256  0.2323  1.0895
  780MOL0     O 5189   3.900   6.143   3.204  1.1096  0.5951  0.3941
  780MOL0     C 5190   3.764   6.180   3.204  0.8242  0.2989  0.0024
  780MOL0     C 5191   3.677   6.081   3.161  0.1300  0.1687 -0.7316
  780MOL0     C 5192   3.540   6.118   3.142 -0.0880  0.0192  0.2217
  780MOL0     C 5193   3.443   6.012   3.096  0.5749  0.4280 -0.7547
  780MOL0     C 5194   3.493   6.252   3.161 -1.4595  0.1400  0.5424
  780MOL0     C 5195   3.351   6.303   3.138 -0.1012  0.2887 -0.3314
  780MOL0     O 5196   3.332   6.436   3.114  0.7385  0.0692  0.0990
  780MOL0     C 5197   3.230   6.461   3.018  1.2574  0.2629 -0.4785
  780MOL0     C 5198   3.119   6.541   3.047  0.6838  0.5470  0.8502
  780MOL0     C 5199   3.027   6.574   2.945  0.0674 -0.4864 -0.4452
  780MOL0     C 5200   3.039   6.514   2.818 -0.9419 -0.8022  0.5821
  780MOL0     O 5201   2.952   6.513   2.715 -0.3079 -0.3883  0.3391
  780MOL0     C 5202   2.840   6.595   2.736  0.2339  0.7246  0.3173
  780MOL0     C 5203   2.747   6.569   2.621 -0.5352 -0.4027 -0.0313
  780MOL0     C 5204   2.608   6.643   2.635 -0.8530  0.0396  0.7423
  780MOL0     C 5205   2.512   6.605   2.519  0.3005  0.8155 -0.1348
  780MOL0     C 5206   2.371   6.657   2.525  0.1412  0.0220 -0.0477
  780MOL0     C 5207   2.312   6.638   2.381 -0.1177  0.0118 -0.4599
  780MOL0     C 5208   2.159   6.653   2.380 -0.0682 -0.3977 -0.2371
  780MOL0     C 5209   2.095   6.625   2.247  0.3366 -1.4361 -0.0697
  780MOL0    Cl 5210   2.156   6.726   2.113  0.3108 -0.3935 -0.1966
  780MOL0     C 5211   3.154   6.447   2.792 -1.1525  0.4053  0.0584
  780MOL0     C 5212   3.249   6.412   2.887  0.4063 -0.2112 -0.0991
  780MOL0     O 5213   3.254   6.218   3.151 -0.1693  0.5040  0.1931
  780MOL0     C 5214   3.595   6.345   3.193  0.4106 -0.7529 -0.5158
  780MOL0     C 5215   3.722   6.310   3.225 -0.8569 -0.1079  0.4127
  780MOL0     N 5216   4.247   5.729   3.021  0.2473 -0.1477  0.3921
  780MOL0     N 5217   4.283   5.610   3.028  0.7819  0.7990 -0.6510
  780MOL0     C 5218   5.043   5.086   3.591  0.1644 -0.3012 -0.0311
  780MOL0     C 5219   5.171   5.116   3.651  0.0343  0.1176 -0.7002
  780MOL0     C 5220   5.533   5.170   3.909 -0.0777  1.0258  0.1381
  780MOL0     C 5221   5.591   5.273   3.984 -0.4655  0.3163  0.9744
  780MOL0     C 5222   5.723   5.273   4.025  0.7054 -0.2829 -0.0711
  780MOL0     C 5223   5.813   5.183   3.972  0.1564 -0.3630 -0.1904
  780MOL0     O 5224   5.948   5.192   3.996 -0.0597 -0.7246  0.0051
  780MOL0     C 5225   6.006   5.227   4.115 -0.3739  0.6437 -0.4070
  780MOL0     C 5226   6.158   5.211   4.118  0.8102 -0.1102 -0.5831
  780MOL0     C 5227   6.207   5.069   4.099 -0.6876 -0.3094  0.2492
  780MOL0     C 5228   6.360   5.063   4.082  0.6426  0.2822  0.6402
  780MOL0     C 5229   6.410   4.972   3.977  0.5526  0.0301  0.8224
  780MOL0     C 5230   6.446   4.894   3.886  0.1004 -0.4004 -1.0091
  780MOL0     C 5231   5.766   5.073   3.898 -0.0536  0.3355 -1.0009
  780MOL0     C 5232   5.624   5.062   3.870 -0.0338  0.1593 -0.1126
  780MOL0     H 5233   5.201   4.841   3.854 -1.9770 -2.3036 -0.4990
  780MOL0     H 5234   4.983   4.792   3.723  0.1856  0.0694  2.3188
  780MOL0     H 5235   4.660   4.913   3.581  0.5173  0.2712 -1.2377
  780MOL0     H 5236   4.752   4.896   3.737 -3.9938  0.6263  1.2253
  780MOL0     H 5237   4.611   5.095   3.741  1.0625 -2.4573  1.0728
  780MOL0     H 5238   4.788   5.135   3.733  0.7475 -0.4417 -0.3770
  780MOL0     H 5239   4.675   5.288   3.593 -1.6440  0.5433 -1.0856
  780MOL0     H 5240   4.749   5.178   3.472 -0.9445  1.4017 -0.4581
  780MOL0     H 5241   4.537   5.047   3.481 -1.2571 -0.5213  2.2036
  780MOL0     H 5242   4.454   5.159   3.573 -1.3897  0.3124 -1.5876
  780MOL0     H 5243   4.584   5.228   3.296 -0.9110 -0.4547 -0.4157
  780MOL0     H 5244   4.413   5.200   3.333 -0.8231  1.0696  1.2622
  780MOL0     H 5245   4.443   5.396   3.503 -3.1519  0.3599 -1.1341
  780MOL0     H 5246   4.599   5.426   3.417  0.2911  1.7804 -1.8643
  780MOL0     H 5247   4.313   5.404   3.311 -0.0348  0.9856  0.1113
  780MOL0     H 5248   4.396   5.561   3.356 -0.4218  1.3312  1.0800
  780MOL0     H 5249   4.421   5.397   3.113 -2.0325  2.7131 -0.7494
  780MOL0     H 5250   4.567   5.485   3.154  1.8883  0.4348  1.5609
  780MOL0     H 5251   4.498   5.748   3.224 -0.2636  0.7068  0.2333
  780MOL0     H 5252   4.350   6.006   3.196 -1.9471 -0.1347  2.5380
  780MOL0     H 5253   4.365   5.999   3.018 -0.4082 -0.1919 -0.8626
  780MOL0     H 5254   4.111   5.938   3.177  2.6377 -3.9800  0.0594
  780MOL0     H 5255   4.105   5.958   3.006 -0.0710 -1.5774  0.7671
  780MOL0     H 5256   4.193   6.207   3.048 -1.3349  1.5641 -1.0962
  780MOL0     H 5257   4.165   6.181   3.216  0.0570  2.2232 -0.0741
  780MOL0     H 5258   3.938   6.146   3.008 -3.9252  1.4234  2.1637
  780MOL0     H 5259   3.965   6.297   3.085  2.4115  0.9162  2.5959
  780MOL0     H 5260   3.710   5.978   3.152 -3.9911 -1.3716 -0.4055
  780MOL0     H 5261   3.495   5.916   3.089 -0.8093 -0.2062 -4.0123
  780MOL0     H 5262   3.363   6.006   3.171  1.4056  1.4406  0.2560
  780MOL0     H 5263   3.398   6.042   3.001 -2.5968  0.1791  0.5351
  780MOL0     H 5264   3.100   6.565   3.151 -4.7826 -0.9106  0.5121
  780MOL0     H 5265   2.934   6.624   2.969 -0.5476 -1.6582 -0.3185
  780MOL0     H 5266   2.786   6.555   2.822  0.9868 -0.8720  0.0850
  780MOL0     H 5267   2.859   6.703   2.741 -0.2021  0.8448 -0.4934
  780MOL0     H 5268   2.788   6.610   2.528  2.3564  1.2460  1.8011
  780MOL0     H 5269   2.719   6.463   2.622 -0.2765 -0.4710  0.0714
  780MOL0     H 5270   2.641   6.746   2.646 -0.0625 -0.0895 -0.2498
  780MOL0     H 5271   2.560   6.607   2.727 -0.0843 -0.2575  1.0326
  780MOL0     H 5272   2.571   6.622   2.428  2.5248 -1.3137  0.7960
  780MOL0     H 5273   2.500   6.498   2.502 -1.0063  0.6279  1.6903
  780MOL0     H 5274   2.370   6.760   2.562 -1.8016 -0.3613  1.0744
  780MOL0     H 5275   2.305   6.602   2.592 -2.5876  3.7584  0.6081
  780MOL0     H 5276   2.352   6.724   2.326 -1.7526  1.0247 -0.1426
  780MOL0     H 5277   2.348   6.547   2.333 -0.5993  0.1764 -1.1453
  780MOL0     H 5278   2.136   6.758   2.403  0.8306  0.0021 -1.0886
  780MOL0     H 5279   2.102   6.595   2.453  0.6889  0.5952  1.1924
  780MOL0     H 5280   1.987   6.638   2.253  0.6534  1.1205  1.0338
  780MOL0     H 5281   2.127   6.522   2.226  0.8020 -1.5360  1.0368
  780MOL0     H 5282   3.177   6.409   2.693  0.9858  3.5104 -0.7718
  780MOL0     H 5283   3.340   6.364   2.853 -1.3724 -1.5145 -3.4365
  780MOL0     H 5284   3.561   6.445   3.216 -3.4299 -1.9460 -0.2350
  780MOL0     H 5285   3.793   6.385   3.258 -0.0137 -0.3873 -0.7089
  780MOL0     H 5286   4.982   5.139   3.518 -2.2314 -3.7779 -0.8513
  780MOL0     H 5287   5.217   5.214   3.638  0.6049  0.1693  1.2763
  780MOL0     H 5288   5.519   5.342   4.025 -3.0117 -0.7854 -1.3677
  780MOL0     H 5289   5.747   5.353   4.094 -0.4938  1.6473 -1.7790
  780MOL0     H 5290   5.985   5.332   4.140  1.3137  0.8396  0.3568
  780MOL0     H 5291   5.958   5.176   4.198  1.1022 -0.7530 -0.3520
  780MOL0     H 5292   6.184   5.237   4.222 -0.5272 -0.5713 -0.1132
  780MOL0     H 5293   6.200   5.277   4.042  0.3483 -1.7855 -2.3810
  780MOL0     H 5294   6.153   5.029   4.014 -1.0239  1.5075 -0.4387
  780MOL0     H 5295   6.174   5.012   4.186 -4.6124  1.5828  0.1933
  780MOL0     H 5296   6.412   5.048   4.176  2.3069 -0.0025 -0.2871
  780MOL0     H 5297   6.385   5.164   4.050  0.4911 -0.2070 -1.1866
  780MOL0     H 5298   6.482   4.838   3.803  3.6464 -1.4575  1.0276
  780MOL0     H 5299   5.837   4.997   3.866  1.6860  1.2879  0.3633
  780MOL0     H 5300   5.592   4.975   3.813 -1.0789 -0.2439  1.0318
  781MOL0     O 5301   4.079   9.049   8.988  0.4440 -0.2614 -0.0318
  781MOL0     C 5302   4.026   9.158   9.029  0.9093 -0.3622 -0.1325
  781MOL0     O 5303   4.091   9.283   9.024  0.3417  0.7260  0.1211
  781MOL0     C 5304   4.211   9.292   8.962 -0.0325 -0.3058 -0.1503
  781MOL0     C 5305   4.320   9.352   9.033  0.1692 -0.4317 -0.0206
  781MOL0     C 5306   4.436   9.379   8.970  0.0097 -0.1073 -0.3698
  781MOL0     C 5307   4.462   9.332   8.840  0.4464 -0.3250 -0.2848
  781MOL0     O 5308   4.581   9.342   8.775  0.7887  0.6416  0.2091
  781MOL0     C 5309   4.638   9.480   8.788 -0.3192  0.7031 -0.2884
  781MOL0     C 5310   4.740   9.505   8.679 -0.0621  1.0053  0.0287
  781MOL0     C 5311   4.829   9.385   8.642  0.3786 -0.0507 -0.0410
  781MOL0     C 5312   4.937   9.339   8.732 -0.1159 -0.5044 -0.3705
  781MOL0     C 5313   5.037   9.246   8.675  0.3014  0.1672  0.2412
  781MOL0     C 5314   5.161   9.237   8.762 -0.3676  0.1321  0.6937
  781MOL0     C 5315   5.204   9.097   8.800 -0.0150  0.5039 -0.2516
  781MOL0     C 5316   5.210   8.991   8.683 -0.2848  0.3515  0.1762
  781MOL0     N 5317   5.288   8.870   8.718  0.2196 -0.1325  0.8410
  781MOL0     C 5318   5.307   8.776   8.624 -0.6014  0.4878 -0.1299
  781MOL0     C 5319   5.340   8.664   8.700 -0.5792 -0.3115  0.7801
  781MOL0     C 5320   5.365   8.520   8.665 -0.0316 -0.0461  0.2081
  781MOL0     C 5321   5.328   8.488   8.523  0.6847  0.6484 -0.3095
  781MOL0     C 5322   5.321   8.340   8.483 -0.0597 -0.3628  0.3070
  781MOL0     C 5323   5.231   8.252   8.562  0.2714 -0.0371  0.2285
  781MOL0     O 5324   5.092   8.290   8.520  0.9156 -0.0788  0.3700
  781MOL0     C 5325   4.991   8.227   8.589 -0.1356 -0.5338  0.2031
  781MOL0     C 5326   4.862   8.245   8.527 -0.7310  0.5720 -0.4153
  781MOL0     C 5327   4.749   8.201   8.582  0.1545 -0.3136 -0.4610
  781MOL0     C 5328   4.613   8.252   8.520 -0.7817  0.2360  0.7591
  781MOL0     C 5329   4.758   8.120   8.706  0.4118  0.0608  0.8933
  781MOL0     C 5330   4.641   8.084   8.789  0.7989  0.5856 -0.3321
  781MOL0     O 5331   4.520   8.092   8.730  0.7975  0.2735 -0.1899
  781MOL0     C 5332   4.398   8.042   8.773  0.5259 -0.3574  0.1049
  781MOL0     C 5333   4.378   7.922   8.848  0.2221  0.1983 -0.2831
  781MOL0     C 5334   4.255   7.869   8.885  0.2180  0.2590  0.6507
  781MOL0     C 5335   4.141   7.942   8.849  0.3045  0.4928  0.2109
  781MOL0     O 5336   4.016   7.897   8.890  0.4385  0.1260 -0.4124
  781MOL0     C 5337   3.900   7.954   8.825  0.1371  0.9167  0.8656
  781MOL0     C 5338   3.775   7.884   8.885  0.1628  0.3354 -0.2958
  781MOL0     C 5339   3.654   7.875   8.789 -0.3088  0.2007 -0.1836
  781MOL0     C 5340   3.669   7.775   8.675 -0.1952  0.3522 -0.7411
  781MOL0     C 5341   3.560   7.790   8.564 -0.4957 -0.4171 -0.6718
  781MOL0     C 5342   3.416   7.836   8.605 -0.6858  0.1333  0.1409
  781MOL0     C 5343   3.329   7.736   8.691  0.1683  0.5359 -1.1557
  781MOL0     C 5344   3.192   7.782   8.734  1.7118 -0.1810  0.3240
  781MOL0    Cl 5345   3.188   7.941   8.830  0.2618  0.2315  0.3188
  781MOL0     C 5346   4.159   8.058   8.760 -0.7137 -0.1676  0.5903
  781MOL0     C 5347   4.283   8.107   8.731 -0.0273 -0.1104 -0.5526
  781MOL0     O 5348   4.657   8.033   8.904  0.3665  0.0911  1.0451
  781MOL0     C 5349   4.883   8.079   8.752 -0.7371 -0.6826  1.0710
  781MOL0     C 5350   4.993   8.147   8.696  0.9645 -0.8809 -0.3823
  781MOL0     N 5351   5.338   8.706   8.833 -0.5548  0.3174  0.3948
  781MOL0     N 5352   5.300   8.827   8.839 -0.1421 -0.8192  0.4619
  781MOL0     C 5353   4.359   9.272   8.771  0.9991 -0.7405  0.1817
  781MOL0     C 5354   4.229   9.257   8.827 -0.1125 -0.2795 -1.1022
  781MOL0     C 5355   3.899   9.153   9.105 -0.0395  0.0571  0.7399
  781MOL0     C 5356   3.813   9.268   9.119 -0.2422  0.2865 -0.1378
  781MOL0     C 5357   3.706   9.270   9.209 -0.1962  0.7258 -0.3593
  781MOL0     C 5358   3.668   9.148   9.274 -0.0754 -0.2694 -0.3746
  781MOL0     O 5359   3.575   9.133   9.373 -0.4806  0.3909  0.4208
  781MOL0     C 5360   3.482   9.235   9.398  0.0377 -0.0961  0.4770
  781MOL0     C 5361   3.390   9.187   9.514 -0.0647  0.5026 -0.3152
  781MOL0     C 5362   3.289   9.288   9.554 -0.3812 -0.9440  0.4732
  781MOL0     C 5363   3.161   9.267   9.471 -0.1996 -1.1504  0.4962
  781MOL0     C 5364   3.084   9.396   9.475 -0.5812 -0.5326  0.2282
  781MOL0     C 5365   3.014   9.492   9.485 -0.5098 -1.6589 -1.1096
  781MOL0     C 5366   3.737   9.035   9.247  0.5849  0.2499  0.5316
  781MOL0     C 5367   3.848   9.029   9.162  0.1993 -0.2899  0.4234
  781MOL0     H 5368   4.303   9.387   9.135 -0.9724  2.2734 -1.0549
  781MOL0     H 5369   4.516   9.421   9.029  0.5209 -2.8217  1.0040
  781MOL0     H 5370   4.556   9.551   8.776 -0.2411  0.6634 -1.1287
  781MOL0     H 5371   4.690   9.479   8.884 -3.3844  3.7686  1.6337
  781MOL0     H 5372   4.679   9.523   8.590 -1.8265  0.5156  1.0734
  781MOL0     H 5373   4.810   9.584   8.706 -0.9835  2.7211 -2.2517
  781MOL0     H 5374   4.762   9.306   8.606  0.4225 -0.6108  1.0609
  781MOL0     H 5375   4.881   9.421   8.552  0.1902 -1.7723 -0.8795
  781MOL0     H 5376   4.993   9.431   8.755 -1.9795  0.8451 -0.9659
  781MOL0     H 5377   4.896   9.296   8.824 -0.4015 -0.5067 -0.4988
  781MOL0     H 5378   4.990   9.149   8.657 -0.5551  0.6255 -0.0737
  781MOL0     H 5379   5.064   9.282   8.576  1.4207  1.0947  0.8669
  781MOL0     H 5380   5.239   9.293   8.709 -0.4904 -3.3185 -3.7495
  781MOL0     H 5381   5.142   9.289   8.856 -4.0393 -3.4865  2.2734
  781MOL0     H 5382   5.302   9.099   8.848  0.0572  0.0629 -0.3740
  781MOL0     H 5383   5.127   9.065   8.871 -0.2912  1.1271 -0.2652
  781MOL0     H 5384   5.256   9.043   8.598 -0.4991  1.8059  0.9276
  781MOL0     H 5385   5.110   8.971   8.643 -0.2105 -0.9335  0.5892
  781MOL0     H 5386   5.298   8.776   8.516  0.3737  1.2702 -0.2239
  781MOL0     H 5387   5.473   8.502   8.658  0.0062 -0.7420  2.0086
  781MOL0     H 5388   5.320   8.452   8.738  0.1777  0.8326  1.1711
  781MOL0     H 5389   5.383   8.543   8.446 -1.1648  0.0668 -2.1565
  781MOL0     H 5390   5.224   8.524   8.518  0.6273  0.3673 -1.5550
  781MOL0     H 5391   5.419   8.293   8.485 -0.9167 -2.3234 -0.9928
  781MOL0     H 5392   5.295   8.334   8.377 -1.2618  0.7352  0.5144
  781MOL0     H 5393   5.246   8.268   8.669 -3.0671 -1.4322  1.0342
  781MOL0     H 5394   5.234   8.146   8.535 -1.5538 -0.0237 -0.1285
  781MOL0     H 5395   4.869   8.294   8.431  0.2794  2.5591  0.6142
  781MOL0     H 5396   4.626   8.296   8.421  3.0520  0.2897  1.1352
  781MOL0     H 5397   4.548   8.168   8.496 -0.2189  0.0132 -0.0366
  781MOL0     H 5398   4.572   8.327   8.588 -3.7321 -0.0364 -0.5907
  781MOL0     H 5399   4.473   7.878   8.878  0.5579  1.8272  1.2668
  781MOL0     H 5400   4.244   7.780   8.947 -3.3885 -1.7381 -2.4335
  781MOL0     H 5401   3.897   8.060   8.851 -2.2332  1.4504 -1.1764
  781MOL0     H 5402   3.908   7.935   8.718  2.1851  1.6292  0.8502
  781MOL0     H 5403   3.804   7.781   8.906 -1.0647 -0.2710 -1.4518
  781MOL0     H 5404   3.752   7.945   8.973 -1.4272 -0.5772 -0.0440
  781MOL0     H 5405   3.618   7.975   8.763 -2.8080 -0.4588  0.4994
  781MOL0     H 5406   3.575   7.840   8.856  0.1966 -0.6913 -0.0270
  781MOL0     H 5407   3.769   7.779   8.630  1.1879 -1.4354  1.9140
  781MOL0     H 5408   3.658   7.672   8.712 -2.5550 -0.8415 -4.2280
  781MOL0     H 5409   3.543   7.698   8.507  1.2164 -1.8542  1.0188
  781MOL0     H 5410   3.606   7.869   8.505 -0.8273 -1.5126 -2.4819
  781MOL0     H 5411   3.424   7.937   8.646 -2.7402  0.9333 -1.2380
  781MOL0     H 5412   3.372   7.858   8.507  0.9377 -2.6249 -1.3629
  781MOL0     H 5413   3.373   7.701   8.785 -0.3960  2.3647 -0.1633
  781MOL0     H 5414   3.313   7.647   8.629  1.8938  0.3622 -1.3827
  781MOL0     H 5415   3.157   7.699   8.797  0.9605 -2.0579 -2.3671
  781MOL0     H 5416   3.131   7.795   8.644  2.2445 -1.6547 -0.2901
  781MOL0     H 5417   4.068   8.109   8.727  0.7344  1.6787 -0.8000
  781MOL0     H 5418   4.282   8.192   8.664 -0.5123 -0.9049 -1.5906
  781MOL0     H 5419   4.886   8.008   8.834  0.2847  2.5864  4.1374
  781MOL0     H 5420   5.090   8.125   8.742  0.7727  0.0267  0.4948
  781MOL0     H 5421   4.359   9.242   8.667 -1.5510  0.5200 -0.2774
  781MOL0     H 5422   4.146   9.224   8.766 -1.1862  0.7159 -0.2139
  781MOL0     H 5423   3.855   9.355   9.070  0.3299  2.0405  3.1682
  781MOL0     H 5424   3.651   9.362   9.228  0.0492  1.3699 -2.4912
  781MOL0     H 5425   3.531   9.330   9.421 -0.7947 -0.1454  2.6725
  781MOL0     H 5426   3.424   9.262   9.309 -0.1450 -0.0845  0.5990
  781MOL0     H 5427   3.453   9.154   9.598 -0.8180 -1.1126 -0.3416
  781MOL0     H 5428   3.344   9.094   9.479 -0.9700  0.1340  1.7532
  781MOL0     H 5429   3.320   9.390   9.530 -0.6053 -1.2546 -1.2349
  781MOL0     H 5430   3.267   9.278   9.661  0.1463  1.6737  0.9110
  781MOL0     H 5431   3.099   9.182   9.501 -1.3165 -0.7851 -0.6573
  781MOL0     H 5432   3.187   9.263   9.364 -0.4584 -1.7259  0.4532
  781MOL0     H 5433   2.947   9.576   9.482 -0.2032 -1.1407  2.4148
  781MOL0     H 5434   3.716   8.943   9.301  1.1378 -1.0799 -1.4275
  781MOL0     H 5435   3.902   8.935   9.156  1.5738  0.5076  0.0703
  782MOL0     O 5436   5.675   1.170   5.900  0.3891 -0.1552 -0.2256
  782MOL0     C 5437   5.746   1.116   5.812  0.3784 -0.5558  0.4995
  782MOL0     O 5438   5.728   1.141   5.674 -0.7184  0.2468 -0.6653
  782MOL0     C 5439   5.624   1.211   5.621 -0.9332 -0.6695 -0.1003
  782MOL0     C 5440   5.650   1.324   5.552  0.4547 -0.0595  0.7074
  782MOL0     C 5441   5.546   1.386   5.480 -1.2457  0.6319  0.0579
  782MOL0     C 5442   5.410   1.334   5.484 -0.5454 -1.2252  0.5906
  782MOL0     O 5443   5.313   1.389   5.402  0.2698  0.5961  0.6915
  782MOL0     C 5444   5.330   1.508   5.323 -0.0419  0.4976 -0.2031
  782MOL0     C 5445   5.218   1.522   5.228 -0.0613  0.6878  0.1248
  782MOL0     C 5446   5.096   1.568   5.309 -1.1336 -0.3139 -0.8752
  782MOL0     C 5447   4.982   1.562   5.211 -0.7588  0.0141  0.4718
  782MOL0     C 5448   4.846   1.598   5.273 -0.6597 -0.2415  0.5898
  782MOL0     C 5449   4.732   1.576   5.177 -0.2070  0.2528  0.4398
  782MOL0     C 5450   4.610   1.645   5.233 -0.1787 -0.6125 -0.5684
  782MOL0     C 5451   4.493   1.633   5.139 -0.9065  0.7161  0.1562
  782MOL0     N 5452   4.374   1.712   5.182  0.2951  0.1771 -0.1744
  782MOL0     C 5453   4.248   1.657   5.199 -0.8404  0.2401  0.1714
  782MOL0     C 5454   4.168   1.762   5.235  0.2396 -0.3910 -0.0054
  782MOL0     C 5455   4.023   1.744   5.270  0.5154 -0.6283 -0.1597
  782MOL0     C 5456   3.916   1.771   5.152 -0.9671  0.2656  0.2888
  782MOL0     C 5457   3.787   1.693   5.188 -0.0114  0.2766  0.6492
  782MOL0     C 5458   3.703   1.759   5.295  0.4250 -0.1590 -0.8727
  782MOL0     O 5459   3.610   1.654   5.338 -0.0389  0.6603 -0.0301
  782MOL0     C 5460   3.480   1.665   5.317 -0.0736 -0.7763 -0.1865
  782MOL0     C 5461   3.402   1.782   5.322 -0.3714  0.4953 -0.4535
  782MOL0     C 5462   3.270   1.797   5.272  0.8072 -0.6521  0.0751
  782MOL0     C 5463   3.203   1.930   5.273 -0.6621 -0.7529  0.5332
  782MOL0     C 5464   3.209   1.682   5.220 -0.0167  0.5472  0.0270
  782MOL0     C 5465   3.065   1.672   5.186  0.4766  0.1034 -0.1527
  782MOL0     O 5466   3.030   1.557   5.121  0.6529  0.0549 -0.3087
  782MOL0     C 5467   2.895   1.530   5.111 -0.1672  0.1360 -0.8156
  782MOL0     C 5468   2.813   1.599   5.021 -0.7455 -0.7472 -0.2028
  782MOL0     C 5469   2.676   1.569   5.013  0.2246 -0.1594 -0.7980
  782MOL0     C 5470   2.616   1.464   5.094 -0.4436  0.0161  0.6079
  782MOL0     O 5471   2.488   1.415   5.083  0.2477 -0.9332 -0.3320
  782MOL0     C 5472   2.410   1.454   4.970  0.7728  0.8263 -0.4087
  782MOL0     C 5473   2.322   1.575   5.001 -0.4797 -0.3191 -0.0051
  782MOL0     C 5474   2.232   1.600   4.888 -0.2183  0.3396  0.1471
  782MOL0     C 5475   2.129   1.714   4.909 -0.0338 -1.0913  0.2917
  782MOL0     C 5476   2.020   1.706   4.802 -0.0069  0.5549  0.0815
  782MOL0     C 5477   1.910   1.809   4.824 -1.1583 -0.2885  0.3762
  782MOL0     C 5478   1.783   1.785   4.739  0.0218  0.3467 -0.7337
  782MOL0     C 5479   1.783   1.860   4.618  0.3303 -0.5207  0.6332
  782MOL0    Cl 5480   1.660   1.779   4.507 -0.2798 -0.0662  0.1935
  782MOL0     C 5481   2.697   1.404   5.188 -0.1492 -0.1789 -0.2368
  782MOL0     C 5482   2.835   1.433   5.199 -0.2235 -0.2841 -0.0724
  782MOL0     O 5483   2.990   1.767   5.207  0.1730  0.0475  0.2781
  782MOL0     C 5484   3.280   1.558   5.225 -0.4977 -0.2944 -0.5478
  782MOL0     C 5485   3.409   1.559   5.274  0.4644  0.1431  0.5332
  782MOL0     N 5486   4.247   1.870   5.247  0.3658 -0.4434 -0.8626
  782MOL0     N 5487   4.369   1.848   5.204  0.7460 -0.3270 -0.9953
  782MOL0     C 5488   5.393   1.223   5.555  0.5091  0.6892  0.0499
  782MOL0     C 5489   5.495   1.157   5.624  0.2043 -0.6416 -0.2925
  782MOL0     C 5490   5.879   1.066   5.847  0.1004  0.7542 -0.5848
  782MOL0     C 5491   5.962   1.008   5.748  0.0246 -0.1179 -0.8119
  782MOL0     C 5492   6.088   0.951   5.773  0.4111  0.3041 -0.5519
  782MOL0     C 5493   6.134   0.949   5.905 -0.7252  0.0323  0.1940
  782MOL0     O 5494   6.257   0.891   5.934 -0.2987 -0.1011  0.7764
  782MOL0     C 5495   6.275   0.754   5.898  0.1550 -0.2096  0.1936
  782MOL0     C 5496   6.430   0.704   5.907  0.4431 -0.2300 -0.1825
  782MOL0     C 5497   6.472   0.680   6.048 -0.3809 -0.7304  1.3262
  782MOL0     C 5498   6.436   0.778   6.163 -0.1330 -0.0808  0.2041
  782MOL0     C 5499   6.504   0.735   6.278 -0.5689  0.8849 -0.1242
  782MOL0     C 5500   6.572   0.682   6.366 -0.3977 -0.7212  0.9935
  782MOL0     C 5501   6.058   1.009   6.009 -0.7323 -0.3217  0.2756
  782MOL0     C 5502   5.933   1.059   5.978  0.1879 -0.0436  0.2620
  782MOL0     H 5503   5.744   1.371   5.526 -1.3711  3.7177  0.1390
  782MOL0     H 5504   5.579   1.474   5.425  1.6896  1.5191  2.9054
  782MOL0     H 5505   5.337   1.598   5.385  4.0417 -0.6580  1.3540
  782MOL0     H 5506   5.420   1.498   5.261 -0.8796 -3.5081 -1.0419
  782MOL0     H 5507   5.241   1.587   5.142  2.3554 -1.7806 -1.2179
  782MOL0     H 5508   5.201   1.423   5.186  2.0694  0.7874 -1.1002
  782MOL0     H 5509   5.076   1.502   5.394 -0.7177  3.0008  2.0321
  782MOL0     H 5510   5.115   1.668   5.349 -1.2653 -1.2287  1.6947
  782MOL0     H 5511   5.006   1.612   5.117 -2.8898  0.4733  0.1429
  782MOL0     H 5512   4.977   1.456   5.185  1.3395 -0.4239  1.6440
  782MOL0     H 5513   4.833   1.542   5.366 -3.7203 -1.4609 -0.4497
  782MOL0     H 5514   4.854   1.704   5.301 -0.2438 -0.0456 -0.2290
  782MOL0     H 5515   4.765   1.617   5.081 -0.9969  1.9906  0.8804
  782MOL0     H 5516   4.724   1.467   5.172  5.0878 -0.3950  0.4954
  782MOL0     H 5517   4.581   1.600   5.329 -1.0893 -0.4263 -0.7470
  782MOL0     H 5518   4.636   1.749   5.250  2.0124 -0.6143 -3.2618
  782MOL0     H 5519   4.470   1.528   5.123  1.5286  0.0994  0.3073
  782MOL0     H 5520   4.519   1.670   5.039 -0.1133  1.1765  0.5278
  782MOL0     H 5521   4.226   1.552   5.181  1.1377 -0.3191  0.7973
  782MOL0     H 5522   4.011   1.639   5.297 -0.4877 -0.2426  0.9939
  782MOL0     H 5523   4.001   1.803   5.359  1.8556 -0.8541  0.3402
  782MOL0     H 5524   3.952   1.728   5.059  1.2701  0.4368  1.0216
  782MOL0     H 5525   3.898   1.877   5.131  3.0729  0.9194 -0.7883
  782MOL0     H 5526   3.823   1.594   5.216  2.5601 -0.1392 -3.3493
  782MOL0     H 5527   3.723   1.679   5.100 -2.7508  0.2710  2.5175
  782MOL0     H 5528   3.665   1.854   5.256  2.5590  0.8586 -0.6736
  782MOL0     H 5529   3.761   1.802   5.376 -1.0771  1.0298 -0.3908
  782MOL0     H 5530   3.453   1.868   5.364 -0.7183  1.2539 -1.5379
  782MOL0     H 5531   3.266   2.012   5.310 -1.4813  1.2258 -2.1273
  782MOL0     H 5532   3.183   1.951   5.168 -1.3371  1.2721  1.0193
  782MOL0     H 5533   3.124   1.939   5.349  0.4880  0.9959  1.5837
  782MOL0     H 5534   2.869   1.667   4.958 -0.4119  0.5132  1.3737
  782MOL0     H 5535   2.605   1.620   4.947  2.5950  1.9712 -1.8600
  782MOL0     H 5536   2.468   1.481   4.882 -1.7064 -0.6041 -2.6261
  782MOL0     H 5537   2.362   1.356   4.956  2.0253  0.1047  0.2136
  782MOL0     H 5538   2.262   1.561   5.091 -3.4257 -1.4038 -1.9835
  782MOL0     H 5539   2.375   1.670   5.011  0.4569 -1.0847  3.4941
  782MOL0     H 5540   2.179   1.509   4.859  2.4024 -0.4192 -2.7492
  782MOL0     H 5541   2.298   1.622   4.804  1.0835 -2.0532  0.4728
  782MOL0     H 5542   2.082   1.693   5.006 -2.8455  0.2864 -0.6648
  782MOL0     H 5543   2.177   1.812   4.907  1.6527 -1.8767 -2.7467
  782MOL0     H 5544   1.976   1.607   4.811 -2.0189  1.1521 -2.1408
  782MOL0     H 5545   2.062   1.714   4.701 -3.1087 -0.6339 -1.4361
  782MOL0     H 5546   1.877   1.802   4.928  0.3192  1.5449  1.0406
  782MOL0     H 5547   1.965   1.904   4.818 -0.1843 -0.9080 -1.2863
  782MOL0     H 5548   1.696   1.821   4.794 -0.4271 -0.1619 -1.1068
  782MOL0     H 5549   1.775   1.676   4.734  3.1868 -0.0245 -0.1356
  782MOL0     H 5550   1.883   1.848   4.575  0.2490 -1.5512  0.7155
  782MOL0     H 5551   1.749   1.964   4.623 -2.6613 -1.3539 -0.4209
  782MOL0     H 5552   2.668   1.332   5.264  1.0806  1.7433  2.2043
  782MOL0     H 5553   2.901   1.376   5.263  2.8862  0.9032 -1.9822
  782MOL0     H 5554   3.230   1.468   5.190 -3.5772  0.5737  1.2570
  782MOL0     H 5555   3.457   1.461   5.276 -0.6498 -0.4898 -1.0396
  782MOL0     H 5556   5.295   1.177   5.543  0.9646 -0.9073  1.7840
  782MOL0     H 5557   5.481   1.069   5.686  2.2558 -0.9261 -0.1618
  782MOL0     H 5558   5.920   1.003   5.648 -3.0489 -0.9078  0.3845
  782MOL0     H 5559   6.139   0.908   5.687  3.4654  0.4810  1.0354
  782MOL0     H 5560   6.212   0.686   5.956  1.3359 -0.9762  0.6340
  782MOL0     H 5561   6.244   0.739   5.794 -1.1612  0.5244  0.4599
  782MOL0     H 5562   6.491   0.780   5.859  0.3760 -1.3610 -2.1936
  782MOL0     H 5563   6.432   0.615   5.843  0.1280  0.6610 -1.4617
  782MOL0     H 5564   6.581   0.676   6.051 -0.4203 -2.0852  1.5037
  782MOL0     H 5565   6.433   0.582   6.074 -1.5238 -1.0328 -1.2294
  782MOL0     H 5566   6.327   0.778   6.175 -0.8906 -0.3429 -4.8061
  782MOL0     H 5567   6.459   0.884   6.145  4.1687 -0.4862  2.1013
  782MOL0     H 5568   6.620   0.637   6.451 -1.5414 -0.4030  1.8428
  782MOL0     H 5569   6.092   0.994   6.111 -1.4333 -1.1830  0.4015
  782MOL0     H 5570   5.871   1.098   6.058  2.8445  0.8374  2.0353
  783MOL0     O 5571   9.880   0.752   9.743  0.7779 -0.7627  0.2995
  783MOL0     C 5572   9.887   0.754   9.621 -0.0012 -0.3801 -0.5303
  783MOL0     O 5573   9.790   0.733   9.525 -0.0166  0.1564  0.1976
  783MOL0     C 5574   9.658   0.742   9.560  0.4226 -1.5457 -0.0482
  783MOL0     C 5575   9.603   0.839   9.638 -0.0841  0.8157  0.4583
  783MOL0     C 5576   9.469   0.856   9.648 -0.2755 -1.1710 -0.3488
  783MOL0     C 5577   9.381   0.758   9.603  0.4088 -0.1923  0.0150
  783MOL0     O 5578   9.248   0.797   9.615  0.0627  0.3665 -0.2737
  783MOL0     C 5579   9.142   0.703   9.622  0.7255 -0.7286  0.2025
  783MOL0     C 5580   9.113   0.649   9.485 -1.0763 -1.1706 -0.0211
  783MOL0     C 5581   9.049   0.747   9.392 -0.2043  0.5263 -0.4666
  783MOL0     C 5582   8.902   0.781   9.424 -0.0762 -0.8468  0.3549
  783MOL0     C 5583   8.874   0.937   9.438  0.2345  0.8660 -0.2769
  783MOL0     C 5584   8.884   1.012   9.304 -0.4367  0.1678 -0.4905
  783MOL0     C 5585   8.820   0.940   9.183 -0.0819  0.0529  0.3430
  783MOL0     C 5586   8.841   1.029   9.058  0.6571  1.0583 -0.6394
  783MOL0     N 5587   8.982   1.002   9.016  0.0011 -1.3616 -0.2847
  783MOL0     C 5588   9.033   0.892   8.956  0.3602  0.8449 -0.6481
  783MOL0     C 5589   9.161   0.913   8.930 -0.2761 -0.7070 -0.2783
  783MOL0     C 5590   9.264   0.820   8.868  0.8076  0.1786 -0.0664
  783MOL0     C 5591   9.326   0.730   8.983  0.1553  0.2107  0.4152
  783MOL0     C 5592   9.408   0.805   9.085 -0.3137  0.0249  0.4860
  783MOL0     C 5593   9.483   0.723   9.180 -0.0415  0.6717 -0.8218
  783MOL0     O 5594   9.572   0.631   9.121  0.5320 -0.5447 -0.9658
  783MOL0     C 5595   9.691   0.683   9.100 -0.6596 -0.0632  0.1555
  783MOL0     C 5596   9.723   0.721   8.967 -0.1238 -0.2916 -0.3928
  783MOL0     C 5597   9.850   0.753   8.922 -0.1739 -0.7455 -0.5248
  783MOL0     C 5598   9.874   0.787   8.780 -0.0438 -0.1433  0.2008
  783MOL0     C 5599   9.957   0.743   9.015 -0.9307  1.1772 -0.0645
  783MOL0     C 5600  10.097   0.773   8.974  0.8915  0.4178 -0.2027
  783MOL0     O 5601  10.154   0.709   8.869  0.0713  0.3033  0.4023
  783MOL0     C 5602  10.278   0.746   8.823  0.5287  0.1102  1.2008
  783MOL0     C 5603  10.377   0.646   8.826  0.3109  0.0119  0.2353
  783MOL0     C 5604  10.509   0.677   8.809  0.5002  1.0633  0.4669
  783MOL0     C 5605  10.551   0.805   8.805 -0.1465  0.4885  0.3177
  783MOL0     O 5606  10.675   0.849   8.779  0.0205  0.0496 -1.4259
  783MOL0     C 5607  10.779   0.755   8.760 -0.3177 -0.3660 -0.4912
  783MOL0     C 5608  10.903   0.841   8.718  0.9094 -0.9615 -0.6372
  783MOL0     C 5609  10.996   0.765   8.625  0.0682  0.3752 -0.9328
  783MOL0     C 5610  11.140   0.764   8.680 -0.0584  0.4275 -0.2806
  783MOL0     C 5611  11.220   0.655   8.607 -0.2876  0.1910 -0.2588
  783MOL0     C 5612  11.371   0.649   8.648 -0.2665  0.2822  0.0049
  783MOL0     C 5613  11.453   0.780   8.631  1.2540 -0.0394  0.1981
  783MOL0     C 5614  11.589   0.760   8.558 -0.5699 -0.8032  0.7702
  783MOL0    Cl 5615  11.577   0.677   8.398 -0.2008 -0.1382 -0.2385
  783MOL0     C 5616  10.457   0.911   8.821 -0.7625  0.9009 -0.1332
  783MOL0     C 5617  10.326   0.881   8.824  0.3303  0.4162 -0.6980
  783MOL0     O 5618  10.154   0.841   9.059  0.2883  0.2032  0.1153
  783MOL0     C 5619   9.924   0.697   9.153 -0.3746 -0.1815 -0.2326
  783MOL0     C 5620   9.792   0.676   9.194 -0.9311 -0.3857 -0.1339
  783MOL0     N 5621   9.185   1.042   8.970 -0.0586 -0.2743 -0.7260
  783MOL0     N 5622   9.075   1.099   9.016 -0.5001  0.1156 -0.3521
  783MOL0     C 5623   9.432   0.642   9.541 -0.4850 -0.4658  0.0658
  783MOL0     C 5624   9.569   0.637   9.514  0.2206  0.6953 -0.6382
  783MOL0     C 5625  10.018   0.803   9.581 -0.6427  1.1537  1.1480
  783MOL0     C 5626  10.034   0.881   9.471  0.1873 -0.9108 -0.3196
  783MOL0     C 5627  10.163   0.913   9.416 -0.4188  0.2419 -0.3426
  783MOL0     C 5628  10.273   0.890   9.508  0.3037 -0.7326  0.3614
  783MOL0     O 5629  10.399   0.939   9.491 -0.3797  0.1310  0.8155
  783MOL0     C 5630  10.419   1.010   9.364 -0.2849  0.2395 -0.7261
  783MOL0     C 5631  10.448   0.910   9.247 -0.5844  0.5601 -0.4665
  783MOL0     C 5632  10.564   0.813   9.272  0.7270 -0.2063 -0.4991
  783MOL0     C 5633  10.630   0.765   9.149 -0.1341  0.5625  0.0243
  783MOL0     C 5634  10.757   0.702   9.190  0.9069  0.1229  0.3474
  783MOL0     C 5635  10.858   0.655   9.235 -0.2043 -0.6482 -0.0522
  783MOL0     C 5636  10.251   0.811   9.622  0.7236  0.1927 -0.2426
  783MOL0     C 5637  10.127   0.763   9.663  0.0843 -0.3988 -0.3510
  783MOL0     H 5638   9.663   0.916   9.686  0.3659 -0.2491  1.6554
  783MOL0     H 5639   9.424   0.944   9.694  1.4978 -0.5414  0.2847
  783MOL0     H 5640   9.179   0.618   9.679  0.1911 -3.7175 -3.4857
  783MOL0     H 5641   9.059   0.756   9.669  1.2297  0.5906 -0.3426
  783MOL0     H 5642   9.202   0.610   9.434 -0.2478  0.8149 -0.1785
  783MOL0     H 5643   9.039   0.569   9.487 -2.3675 -0.0037  0.8445
  783MOL0     H 5644   9.120   0.831   9.394  2.2982 -1.4156  2.0600
  783MOL0     H 5645   9.060   0.714   9.288  1.0986 -0.5371 -0.0193
  783MOL0     H 5646   8.838   0.739   9.346  1.4575 -0.1538 -1.3607
  783MOL0     H 5647   8.880   0.729   9.518 -1.4948 -1.9453 -0.5494
  783MOL0     H 5648   8.773   0.957   9.474  0.4266 -0.9682  1.4637
  783MOL0     H 5649   8.954   0.982   9.497 -0.8292  1.6828  0.5884
  783MOL0     H 5650   8.830   1.107   9.314 -0.1260  0.1552  2.0937
  783MOL0     H 5651   8.986   1.040   9.279  1.3796 -1.3737  4.1851
  783MOL0     H 5652   8.864   0.843   9.159 -5.9000 -2.5499 -1.9062
  783MOL0     H 5653   8.713   0.920   9.196 -0.7250 -0.2540 -3.9631
  783MOL0     H 5654   8.815   1.133   9.078 -1.2148  0.5558 -0.2552
  783MOL0     H 5655   8.781   0.989   8.976 -0.7154 -1.4301  1.4135
  783MOL0     H 5656   8.978   0.800   8.939 -0.6576  0.9703  1.6737
  783MOL0     H 5657   9.215   0.754   8.796  1.1541  1.1231 -1.2017
  783MOL0     H 5658   9.335   0.874   8.804 -0.1808  2.5664  0.7440
  783MOL0     H 5659   9.392   0.659   8.932 -0.8343 -0.6219  0.2739
  783MOL0     H 5660   9.248   0.667   9.026  0.9649 -2.2281 -1.4406
  783MOL0     H 5661   9.341   0.867   9.145  0.9540  0.6484  1.3148
  783MOL0     H 5662   9.473   0.883   9.045 -0.0158  0.3320  1.5321
  783MOL0     H 5663   9.415   0.657   9.234  1.5314  0.7614  1.4144
  783MOL0     H 5664   9.528   0.787   9.256 -0.7870 -0.0439  0.2432
  783MOL0     H 5665   9.645   0.724   8.892  0.0426 -1.5419 -0.6367
  783MOL0     H 5666   9.914   0.888   8.769 -0.1889 -0.0850  0.2063
  783MOL0     H 5667   9.931   0.716   8.720  0.0140 -1.3979  1.6882
  783MOL0     H 5668   9.772   0.789   8.741 -0.7954  0.0974  2.0794
  783MOL0     H 5669  10.350   0.541   8.827  5.0309 -1.4296  1.3189
  783MOL0     H 5670  10.580   0.597   8.787  0.5767  1.5406 -1.1194
  783MOL0     H 5671  10.785   0.692   8.849 -0.6277 -1.1266 -0.9951
  783MOL0     H 5672  10.752   0.690   8.676  1.2593 -0.5009 -0.9210
  783MOL0     H 5673  10.877   0.938   8.675  3.0485 -0.9314 -2.0066
  783MOL0     H 5674  10.959   0.866   8.808  1.1525 -0.0112 -1.0460
  783MOL0     H 5675  11.010   0.812   8.527 -0.4185  1.3059 -0.5710
  783MOL0     H 5676  10.960   0.663   8.608 -0.9886  0.7049 -0.7401
  783MOL0     H 5677  11.173   0.868   8.672 -2.3075  1.2937  0.8592
  783MOL0     H 5678  11.144   0.749   8.788 -2.9033  2.4926  0.2150
  783MOL0     H 5679  11.213   0.666   8.498  1.1499 -0.1685 -0.4124
  783MOL0     H 5680  11.169   0.562   8.632  0.8714 -0.2476  0.5333
  783MOL0     H 5681  11.389   0.607   8.747  0.9427 -1.1499 -0.7879
  783MOL0     H 5682  11.420   0.570   8.591 -0.8503 -1.6876  2.0907
  783MOL0     H 5683  11.481   0.821   8.728  0.6578 -2.3579  1.4017
  783MOL0     H 5684  11.390   0.853   8.579 -1.4803 -2.4609 -0.1671
  783MOL0     H 5685  11.653   0.700   8.624  0.7817  1.8154  1.9652
  783MOL0     H 5686  11.632   0.859   8.543 -2.6051 -0.0982 -0.8407
  783MOL0     H 5687  10.494   1.012   8.811  1.0213  0.1833 -1.2521
  783MOL0     H 5688  10.249   0.958   8.817  0.8068  0.8666 -1.0216
  783MOL0     H 5689  10.013   0.688   9.214  1.1371  1.9449 -1.9246
  783MOL0     H 5690   9.771   0.644   9.295  0.7594  1.8222  1.0008
  783MOL0     H 5691   9.381   0.549   9.517  0.3476 -0.7698 -0.5465
  783MOL0     H 5692   9.595   0.551   9.452  1.1831  0.3157  0.2687
  783MOL0     H 5693   9.959   0.932   9.411  2.7043  2.3989 -0.9648
  783MOL0     H 5694  10.163   0.979   9.330  0.2287  0.9027  0.1535
  783MOL0     H 5695  10.335   1.079   9.346  0.0905  1.0884  0.6396
  783MOL0     H 5696  10.511   1.066   9.377 -1.5729  2.5278 -0.9229
  783MOL0     H 5697  10.468   0.968   9.157 -3.7283 -1.0044 -2.3756
  783MOL0     H 5698  10.368   0.841   9.218  2.2352 -1.7546 -3.6057
  783MOL0     H 5699  10.537   0.726   9.332  4.0254 -1.8257 -1.1191
  783MOL0     H 5700  10.643   0.860   9.330  0.2470 -1.7774  1.5502
  783MOL0     H 5701  10.657   0.852   9.089 -2.6119 -1.2926 -4.2796
  783MOL0     H 5702  10.568   0.697   9.089  2.7457 -4.5387  2.1862
  783MOL0     H 5703  10.951   0.619   9.275 -0.9067 -3.3499 -0.6398
  783MOL0     H 5704  10.333   0.791   9.690  0.2035  3.4423  1.5277
  783MOL0     H 5705  10.105   0.710   9.755 -2.1409 -1.3613 -1.3542
  784MOL0     O 5706   5.679   9.794   2.124 -0.1806  0.6853 -0.1279
  784MOL0     C 5707   5.738   9.899   2.159  0.0067 -0.9074  0.0945
  784MOL0     O 5708   5.867   9.934   2.116 -0.4380 -0.0739 -0.2892
  784MOL0     C 5709   5.935   9.886   2.005 -0.0871 -0.8044 -0.4632
  784MOL0     C 5710   5.876   9.851   1.883 -0.6725 -0.9524  0.2845
  784MOL0     C 5711   5.942   9.792   1.774 -0.4435  0.9052  0.6124
  784MOL0     C 5712   6.088   9.776   1.790  0.4170  0.0768 -0.4555
  784MOL0     O 5713   6.157   9.737   1.676  0.0396 -0.4866  0.1771
  784MOL0     C 5714   6.299   9.743   1.662  0.0045  0.5752 -0.8907
  784MOL0     C 5715   6.341   9.748   1.511  0.3281 -0.0244  0.4413
  784MOL0     C 5716   6.443   9.640   1.458 -0.1421  0.3846 -0.8666
  784MOL0     C 5717   6.585   9.685   1.483 -0.0497  0.1952  0.9842
  784MOL0     C 5718   6.686   9.567   1.487  0.4479  0.2766 -0.2056
  784MOL0     C 5719   6.685   9.504   1.624 -1.0305 -0.2957 -1.2890
  784MOL0     C 5720   6.751   9.588   1.738 -0.4148  0.5708  0.4640
  784MOL0     C 5721   6.763   9.503   1.870 -0.3120 -0.5608  0.0911
  784MOL0     N 5722   6.628   9.456   1.919 -0.4422 -0.3078  0.1941
  784MOL0     C 5723   6.516   9.524   1.962 -0.4923  0.3848  0.0726
  784MOL0     C 5724   6.430   9.429   1.996  0.1081 -0.0964  0.9052
  784MOL0     C 5725   6.296   9.462   2.058 -0.5204  0.6519 -0.1631
  784MOL0     C 5726   6.194   9.466   1.948 -0.4629 -0.6420 -0.2321
  784MOL0     C 5727   6.052   9.492   2.011 -0.1265  0.7531 -0.0920
  784MOL0     C 5728   5.959   9.459   1.893  0.0027 -0.1352 -0.1123
  784MOL0     O 5729   5.820   9.478   1.930  0.2415 -0.0843  0.4999
  784MOL0     C 5730   5.725   9.476   1.832  0.1903 -0.2892  0.4008
  784MOL0     C 5731   5.749   9.434   1.705  0.6686  0.5569 -0.5930
  784MOL0     C 5732   5.672   9.470   1.598  1.0440  0.0760 -0.1839
  784MOL0     C 5733   5.700   9.411   1.461  0.3140  0.3964  0.4814
  784MOL0     C 5734   5.546   9.532   1.618  0.0291 -0.2677  0.6809
  784MOL0     C 5735   5.439   9.557   1.519 -0.4203 -0.1349  0.4520
  784MOL0     O 5736   5.343   9.651   1.556  0.1610 -0.0951 -0.7189
  784MOL0     C 5737   5.220   9.646   1.487  0.6763  0.2810  0.0756
  784MOL0     C 5738   5.154   9.751   1.429 -0.6679 -0.2942  0.2863
  784MOL0     C 5739   5.026   9.736   1.375 -0.2570 -0.0409  0.0732
  784MOL0     C 5740   4.952   9.622   1.388 -0.1037  0.6302  1.0688
  784MOL0     O 5741   4.830   9.616   1.334  0.5547 -0.0701  0.4744
  784MOL0     C 5742   4.737   9.501   1.332  0.4887  0.0515  0.2082
  784MOL0     C 5743   4.680   9.488   1.470 -0.5243 -0.2738 -0.0453
  784MOL0     C 5744   4.545   9.421   1.485 -0.9762  0.1093  0.2018
  784MOL0     C 5745   4.556   9.277   1.442  0.0194  0.3866 -0.0532
  784MOL0     C 5746   4.427   9.205   1.470  0.5321  0.3828  0.8558
  784MOL0     C 5747   4.434   9.048   1.492 -0.1359  0.8861 -0.6839
  784MOL0     C 5748   4.290   8.998   1.501 -0.7164  0.5432 -0.1113
  784MOL0     C 5749   4.276   8.853   1.525 -0.1504  0.4422  0.2124
  784MOL0    Cl 5750   4.379   8.796   1.667  0.2841 -0.4091 -0.0858
  784MOL0     C 5751   5.017   9.519   1.455  0.2028  0.6094  0.3768
  784MOL0     C 5752   5.143   9.534   1.508  0.0015  0.7819  0.5585
  784MOL0     O 5753   5.424   9.488   1.422  0.0236 -1.0624 -0.0932
  784MOL0     C 5754   5.519   9.579   1.750 -0.7572 -0.2240 -0.4276
  784MOL0     C 5755   5.606   9.549   1.850 -0.1704 -0.5718 -0.2489
  784MOL0     N 5756   6.472   9.298   1.961  0.5305  0.7854  0.0275
  784MOL0     N 5757   6.589   9.328   1.912 -0.5406  0.4178  0.4609
  784MOL0     C 5758   6.151   9.831   1.906 -0.9061  0.0182 -0.5102
  784MOL0     C 5759   6.074   9.876   2.011  0.2894  0.6902  0.8630
  784MOL0     C 5760   5.677   9.994   2.256  0.2670  0.6144  0.5935
  784MOL0     C 5761   5.554   9.974   2.321  0.3916 -0.4419  0.6645
  784MOL0     C 5762   5.496  10.073   2.404  0.1242  0.3508 -0.0477
  784MOL0     C 5763   5.569  10.189   2.437  0.0071  0.1438 -1.0326
  784MOL0     O 5764   5.510  10.270   2.531 -0.6150  0.8609 -0.2738
  784MOL0     C 5765   5.585  10.374   2.589 -0.0972  0.4710 -0.6306
  784MOL0     C 5766   5.564  10.509   2.525 -0.6504 -0.0267 -0.1888
  784MOL0     C 5767   5.685  10.607   2.530  0.1580  0.6493  0.4298
  784MOL0     C 5768   5.724  10.657   2.674 -0.1988  0.0404  0.5007
  784MOL0     C 5769   5.864  10.697   2.676  0.3151  0.7540 -0.6696
  784MOL0     C 5770   5.978  10.729   2.699 -1.0226  0.8373  0.2675
  784MOL0     C 5771   5.691  10.203   2.378 -0.0891  0.4137  0.4983
  784MOL0     C 5772   5.742  10.112   2.283 -0.4253 -0.5161 -0.5661
  784MOL0     H 5773   5.768   9.866   1.884 -0.6460 -0.5008  2.3552
  784MOL0     H 5774   5.889   9.752   1.689  1.9863 -2.2334  0.3686
  784MOL0     H 5775   6.336   9.834   1.710  1.2965 -0.3670 -0.0265
  784MOL0     H 5776   6.339   9.653   1.710 -0.0396  0.4521 -1.0841
  784MOL0     H 5777   6.249   9.725   1.457 -1.0549 -1.9475  3.3374
  784MOL0     H 5778   6.362   9.853   1.489  1.0547 -0.1113  0.7073
  784MOL0     H 5779   6.429   9.543   1.505 -0.3890 -0.1149 -1.9307
  784MOL0     H 5780   6.433   9.631   1.349  3.3879  0.2206 -1.3207
  784MOL0     H 5781   6.611   9.747   1.397 -2.5315 -1.4751 -1.1641
  784MOL0     H 5782   6.596   9.739   1.578 -0.1845 -1.7665  2.1663
  784MOL0     H 5783   6.666   9.485   1.417  1.8960  0.2688 -0.6615
  784MOL0     H 5784   6.785   9.599   1.451 -0.5202 -0.1183 -3.6243
  784MOL0     H 5785   6.589   9.474   1.666 -1.0296  2.6257  1.1805
  784MOL0     H 5786   6.735   9.407   1.617  0.8485  0.4625  0.5754
  784MOL0     H 5787   6.854   9.612   1.709 -0.2403  0.6581  1.1380
  784MOL0     H 5788   6.702   9.682   1.766 -0.8649  0.2154  0.8781
  784MOL0     H 5789   6.804   9.572   1.945 -1.1900 -0.3551  0.3947
  784MOL0     H 5790   6.828   9.416   1.870  1.2556  0.4359 -3.2478
  784MOL0     H 5791   6.498   9.630   1.982  1.2496  0.2289  3.0882
  784MOL0     H 5792   6.276   9.381   2.129  2.0680  1.5483  1.7744
  784MOL0     H 5793   6.299   9.559   2.107 -0.8032  0.9221 -0.6751
  784MOL0     H 5794   6.197   9.364   1.907 -2.2401  0.3821 -3.1869
  784MOL0     H 5795   6.222   9.543   1.875  0.8560 -0.8622  0.0049
  784MOL0     H 5796   6.034   9.591   2.054  1.7871  0.2686  2.0127
  784MOL0     H 5797   6.040   9.434   2.103 -2.1955 -0.2563 -0.9202
  784MOL0     H 5798   5.966   9.356   1.855 -4.1444 -0.7326  0.2943
  784MOL0     H 5799   5.978   9.526   1.809  0.7792 -0.0880  0.0878
  784MOL0     H 5800   5.830   9.366   1.683 -1.2022 -2.7427  1.7381
  784MOL0     H 5801   5.629   9.337   1.424  0.4529  1.0292 -1.1494
  784MOL0     H 5802   5.707   9.486   1.381 -0.6482 -0.8410 -0.7972
  784MOL0     H 5803   5.795   9.358   1.450  0.0026 -0.3789  1.3973
  784MOL0     H 5804   5.206   9.842   1.399 -0.8388 -0.6206 -1.0870
  784MOL0     H 5805   4.978   9.825   1.337 -1.3497  0.3817  2.2759
  784MOL0     H 5806   4.654   9.506   1.262  0.3353 -3.0771  0.0341
  784MOL0     H 5807   4.796   9.413   1.306  1.0700 -0.6622  3.4319
  784MOL0     H 5808   4.761   9.450   1.533  1.9192  1.5084 -1.8989
  784MOL0     H 5809   4.669   9.594   1.497 -0.2943  0.0063 -1.0079
  784MOL0     H 5810   4.480   9.474   1.414 -0.6829 -0.5724 -0.6049
  784MOL0     H 5811   4.508   9.436   1.586  2.2399  3.0494  1.1499
  784MOL0     H 5812   4.583   9.270   1.336  4.5154  2.4903  0.6947
  784MOL0     H 5813   4.647   9.238   1.490  2.3125  0.6796 -3.7697
  784MOL0     H 5814   4.357   9.221   1.386 -0.2631 -1.9123  1.0126
  784MOL0     H 5815   4.391   9.249   1.563 -0.0165 -2.1716  1.9158
  784MOL0     H 5816   4.487   9.005   1.407  0.2510  2.2049 -1.1286
  784MOL0     H 5817   4.487   9.027   1.586 -2.8969  0.5607  0.9293
  784MOL0     H 5818   4.234   9.028   1.412 -1.5747 -2.3090 -0.6421
  784MOL0     H 5819   4.239   9.048   1.584 -2.0763 -0.3778 -0.3530
  784MOL0     H 5820   4.307   8.798   1.436 -2.5448 -1.0564  0.1931
  784MOL0     H 5821   4.174   8.823   1.554 -0.1152 -0.3523 -0.4591
  784MOL0     H 5822   4.970   9.425   1.481 -0.0469 -0.1952 -2.5689
  784MOL0     H 5823   5.192   9.459   1.569  0.8095  2.5681  2.2394
  784MOL0     H 5824   5.437   9.646   1.773 -1.7629 -1.1880 -1.0631
  784MOL0     H 5825   5.587   9.592   1.948  0.4579 -1.3141  0.2121
  784MOL0     H 5826   6.258   9.825   1.921 -1.0014  2.7791  2.0333
  784MOL0     H 5827   6.128   9.895   2.103 -1.9098  1.4373  2.1016
  784MOL0     H 5828   5.495   9.884   2.302 -2.3268  1.1277  1.1939
  784MOL0     H 5829   5.398  10.056   2.447 -0.1158  1.3224 -0.1711
  784MOL0     H 5830   5.555  10.396   2.692 -1.1138 -1.2895 -0.5120
  784MOL0     H 5831   5.690  10.348   2.607  0.0996  1.5085 -0.1973
  784MOL0     H 5832   5.483  10.554   2.583  2.2990  1.0163  3.5329
  784MOL0     H 5833   5.539  10.512   2.419 -1.1884  0.3390 -0.0594
  784MOL0     H 5834   5.666  10.692   2.465  3.1775  1.9413  1.0373
  784MOL0     H 5835   5.771  10.552   2.489 -1.7742 -2.5507  0.3943
  784MOL0     H 5836   5.719  10.573   2.743  0.1810  0.5145  1.1202
  784MOL0     H 5837   5.658  10.734   2.715  0.2943  2.0263 -2.0892
  784MOL0     H 5838   6.075  10.767   2.720 -1.9149  1.1522  4.6057
  784MOL0     H 5839   5.741  10.297   2.400  0.9151 -0.1866  0.8661
  784MOL0     H 5840   5.837  10.150   2.245 -0.5638  1.6867  1.1098
  785MOL0     O 5841   5.985  11.114  10.301  0.0671  0.0515  0.4905
  785MOL0     C 5842   5.880  11.076  10.349  0.7850 -0.0532 -0.0107
  785MOL0     O 5843   5.857  11.016  10.473 -0.1926 -0.2087 -0.1645
  785MOL0     C 5844   5.960  11.008  10.560 -0.1815 -0.1009 -0.4990
  785MOL0     C 5845   6.099  10.992  10.526  0.7907  0.4099  0.4374
  785MOL0     C 5846   6.193  10.982  10.630 -0.9797  0.2532 -0.6133
  785MOL0     C 5847   6.149  10.991  10.765 -0.1292  0.4519 -0.7678
  785MOL0     O 5848   6.231  10.990  10.878  0.1056  0.1135  0.2187
  785MOL0     C 5849   6.347  10.904  10.866 -0.6344  0.2831 -0.3844
  785MOL0     C 5850   6.416  10.892  11.002 -0.6161 -0.6000  0.3981
  785MOL0     C 5851   6.335  10.816  11.103  0.2236 -0.2366 -0.0684
  785MOL0     C 5852   6.251  10.920  11.178  0.2276  0.8976  0.1087
  785MOL0     C 5853   6.146  10.855  11.270  0.3906 -0.2048 -0.4706
  785MOL0     C 5854   6.031  10.956  11.309  0.8550 -0.4298  0.1525
  785MOL0     C 5855   5.910  10.928  11.213 -0.0902 -0.1113  0.7866
  785MOL0     C 5856   5.780  11.000  11.249  0.2722  0.0261  0.2017
  785MOL0     N 5857   5.685  11.000  11.128 -0.6537  0.0027  0.1413
  785MOL0     C 5858   5.634  10.891  11.056  0.7007 -0.5369 -0.5293
  785MOL0     C 5859   5.574  10.946  10.954  0.8294 -0.2498  0.2424
  785MOL0     C 5860   5.528  10.870  10.836  0.1375 -0.0225  0.6640
  785MOL0     C 5861   5.398  10.787  10.868  0.1730 -0.2799  0.3211
  785MOL0     C 5862   5.333  10.731  10.743  0.3955  0.0892  0.2450
  785MOL0     C 5863   5.204  10.651  10.778 -0.9647  0.0938 -0.9023
  785MOL0     O 5864   5.110  10.747  10.836  0.4583  0.3936  0.1677
  785MOL0     C 5865   4.984  10.764  10.777 -0.7247 -0.4233 -0.2648
  785MOL0     C 5866   4.951  10.753  10.638  0.7607 -0.2524  0.5203
  785MOL0     C 5867   4.818  10.770  10.588 -0.7400 -0.3001 -0.9601
  785MOL0     C 5868   4.803  10.758  10.432 -0.1674  0.3165 -0.1964
  785MOL0     C 5869   4.716  10.786  10.682  0.8273 -0.6119 -0.4870
  785MOL0     C 5870   4.570  10.794  10.651 -0.8914 -1.0332  0.9308
  785MOL0     O 5871   4.488  10.836  10.748 -0.5618 -0.4152  0.2902
  785MOL0     C 5872   4.358  10.808  10.737 -0.2207  0.6935  0.4884
  785MOL0     C 5873   4.285  10.725  10.639 -0.5091  0.7430 -0.9762
  785MOL0     C 5874   4.145  10.706  10.662  0.4342 -0.2691  0.3837
  785MOL0     C 5875   4.081  10.766  10.767  0.5800  0.2525  0.2173
  785MOL0     O 5876   3.946  10.776  10.790 -0.1286  0.5657  0.0727
  785MOL0     C 5877   3.857  10.686  10.722 -0.1267 -0.2495  0.2176
  785MOL0     C 5878   3.715  10.690  10.794 -0.4415 -0.2285 -0.3815
  785MOL0     C 5879   3.623  10.798  10.757  0.1126 -0.2952 -0.1890
  785MOL0     C 5880   3.494  10.807  10.840 -0.4497 -1.2354  0.6129
  785MOL0     C 5881   3.387  10.884  10.756  0.3805 -0.2535  0.1823
  785MOL0     C 5882   3.264  10.911  10.846 -0.0516  0.6455  0.3284
  785MOL0     C 5883   3.170  11.012  10.783  0.3707 -0.4095 -0.2835
  785MOL0     C 5884   3.041  11.034  10.868 -0.7729 -0.6046  0.0154
  785MOL0    Cl 5885   2.924  10.901  10.840  0.3332  0.0852 -0.1419
  785MOL0     C 5886   4.152  10.842  10.862  0.1320  0.9236 -0.2854
  785MOL0     C 5887   4.284  10.868  10.847  0.5155  0.5563 -0.2023
  785MOL0     O 5888   4.534  10.753  10.541 -1.3319  0.0699  0.3499
  785MOL0     C 5889   4.742  10.822  10.815  1.0908 -0.7248 -0.4310
  785MOL0     C 5890   4.871  10.813  10.859 -0.1760  0.5338 -0.1775
  785MOL0     N 5891   5.578  11.085  10.957 -0.0239 -0.1630 -0.3168
  785MOL0     N 5892   5.655  11.112  11.066  0.0794 -0.1949  0.7870
  785MOL0     C 5893   6.013  11.001  10.795 -0.2109 -0.0677  0.7975
  785MOL0     C 5894   5.920  11.004  10.694 -0.5200  0.6108 -0.6581
  785MOL0     C 5895   5.764  11.096  10.257 -0.4030 -0.5623 -0.4935
  785MOL0     C 5896   5.632  11.103  10.317  1.3822 -0.0798 -1.3337
  785MOL0     C 5897   5.515  11.118  10.239 -0.7444  1.1039 -0.9196
  785MOL0     C 5898   5.530  11.150  10.104  0.2143 -0.5199 -0.8444
  785MOL0     O 5899   5.409  11.161  10.040 -0.0255  0.3800 -0.0767
  785MOL0     C 5900   5.419  11.181   9.900  0.8245 -0.7670  1.2328
  785MOL0     C 5901   5.274  11.196   9.840  0.0391  0.1121 -0.7024
  785MOL0     C 5902   5.268  11.221   9.689 -0.1945 -0.4564 -0.4222
  785MOL0     C 5903   5.131  11.218   9.620  0.3746  0.3083 -1.1015
  785MOL0     C 5904   5.063  11.089   9.638 -0.4793  0.2106  0.0330
  785MOL0     C 5905   4.991  10.989   9.678 -0.8038 -0.6672  0.3381
  785MOL0     C 5906   5.665  11.161  10.045 -0.9462  0.3874  0.3945
  785MOL0     C 5907   5.780  11.120  10.122  0.2504  0.4422 -0.4968
  785MOL0     H 5908   6.144  10.984  10.428  1.7452  4.7609  0.3131
  785MOL0     H 5909   6.299  10.992  10.606 -1.4012  1.6282 -2.0543
  785MOL0     H 5910   6.326  10.806  10.820 -2.9317  0.0178  1.0470
  785MOL0     H 5911   6.413  10.956  10.797  0.3296 -0.3366  0.0556
  785MOL0     H 5912   6.512  10.840  10.994  0.5703  1.1536  2.0786
  785MOL0     H 5913   6.444  10.995  11.028 -3.2834  1.0502 -2.5556
  785MOL0     H 5914   6.269  10.748  11.048 -0.3699  0.9376 -0.8547
  785MOL0     H 5915   6.405  10.769  11.172  3.8179  2.8119 -1.3096
  785MOL0     H 5916   6.324  10.976  11.238  1.4545  0.1493 -0.6295
  785MOL0     H 5917   6.201  10.989  11.110 -3.7524 -1.4341  0.3738
  785MOL0     H 5918   6.109  10.767  11.217  1.5942  1.0801 -3.6992
  785MOL0     H 5919   6.187  10.823  11.367 -0.2085 -1.0596 -0.4837
  785MOL0     H 5920   6.003  10.944  11.414 -0.1334 -2.8919 -0.3256
  785MOL0     H 5921   6.068  11.057  11.291  1.8224 -0.3576  2.3008
  785MOL0     H 5922   5.928  10.953  11.108 -1.1909 -0.4397  0.5029
  785MOL0     H 5923   5.889  10.820  11.208 -2.5397  0.3570 -0.1782
  785MOL0     H 5924   5.804  11.101  11.283  2.5883 -0.2643 -0.4264
  785MOL0     H 5925   5.725  10.960  11.335 -0.3820  2.5542  1.0303
  785MOL0     H 5926   5.671  10.792  11.079  1.0183  0.2143  2.6154
  785MOL0     H 5927   5.517  10.944  10.756 -1.3078  0.5775  1.3766
  785MOL0     H 5928   5.602  10.804  10.790 -0.4893 -0.9224  0.9095
  785MOL0     H 5929   5.328  10.850  10.924 -1.7089 -1.1322 -0.9639
  785MOL0     H 5930   5.424  10.698  10.927  2.1643  2.0619  3.2776
  785MOL0     H 5931   5.401  10.675  10.678 -1.4489  1.3628 -2.9888
  785MOL0     H 5932   5.297  10.817  10.686 -1.9383 -0.5697  0.6221
  785MOL0     H 5933   5.217  10.576  10.856  2.6481  1.9649  0.5702
  785MOL0     H 5934   5.177  10.606  10.683  0.5688 -1.8580 -0.4846
  785MOL0     H 5935   5.034  10.726  10.572  1.1787 -0.6886  1.2104
  785MOL0     H 5936   4.896  10.765  10.374 -2.0550  2.0165 -3.3261
  785MOL0     H 5937   4.766  10.656  10.423 -2.6372  0.6403  3.8554
  785MOL0     H 5938   4.727  10.827  10.393 -4.1748 -4.3512 -1.5562
  785MOL0     H 5939   4.340  10.667  10.566  0.1328 -0.5633  0.4922
  785MOL0     H 5940   4.086  10.655  10.585 -2.8051  1.0191  1.8304
  785MOL0     H 5941   3.854  10.698  10.613 -0.4201 -0.7140  0.1688
  785MOL0     H 5942   3.893  10.584  10.738  0.9576  0.2692  1.2236
  785MOL0     H 5943   3.660  10.602  10.762 -1.9284  0.5799 -0.1330
  785MOL0     H 5944   3.737  10.694  10.901  4.3916  0.5809 -1.1452
  785MOL0     H 5945   3.588  10.802  10.654  0.0957 -2.2293 -0.3024
  785MOL0     H 5946   3.679  10.889  10.780  0.4651 -0.7521  0.8352
  785MOL0     H 5947   3.459  10.712  10.882  0.1056 -0.8850  1.9074
  785MOL0     H 5948   3.524  10.871  10.923  2.2194 -0.0947 -1.1288
  785MOL0     H 5949   3.358  10.812  10.678  1.0412 -0.2066 -0.1136
  785MOL0     H 5950   3.421  10.978  10.713 -1.6464  0.5209  0.1462
  785MOL0     H 5951   3.209  10.817  10.860  0.3278  0.0768 -1.7281
  785MOL0     H 5952   3.294  10.956  10.942 -0.8036  2.2519 -0.1504
  785MOL0     H 5953   3.148  10.977  10.681 -2.2402  1.6261 -0.5295
  785MOL0     H 5954   3.211  11.113  10.773 -1.8978  0.4510 -1.6359
  785MOL0     H 5955   2.990  11.125  10.837 -0.4309 -0.5643 -0.4371
  785MOL0     H 5956   3.062  11.035  10.975 -0.7384  1.2597  0.0188
  785MOL0     H 5957   4.093  10.885  10.942 -1.1183 -2.4069  0.7395
  785MOL0     H 5958   4.336  10.905  10.934  0.2192 -0.8518  0.6086
  785MOL0     H 5959   4.668  10.860  10.885 -0.7546  0.3974 -2.8605
  785MOL0     H 5960   4.899  10.832  10.963  2.6788  3.5701 -1.3000
  785MOL0     H 5961   5.985  10.998  10.900 -0.1589  0.8612  0.8429
  785MOL0     H 5962   5.813  11.012  10.710 -0.6184  0.1434 -1.0216
  785MOL0     H 5963   5.626  11.085  10.424  0.5161  1.7389 -1.0334
  785MOL0     H 5964   5.413  11.092  10.263 -0.3671 -1.4368 -1.7948
  785MOL0     H 5965   5.482  11.267   9.874 -0.1402 -0.5188 -0.3893
  785MOL0     H 5966   5.457  11.085   9.863 -0.6359 -0.6048 -0.8568
  785MOL0     H 5967   5.234  11.282   9.895  1.6796  0.0371  0.6880
  785MOL0     H 5968   5.208  11.111   9.864 -2.3288  1.7681 -0.9973
  785MOL0     H 5969   5.327  11.136   9.651  0.7907  0.7851 -1.7727
  785MOL0     H 5970   5.328  11.307   9.658  0.8055 -1.0479 -0.1829
  785MOL0     H 5971   5.163  11.238   9.518  3.2695  1.8185 -0.0324
  785MOL0     H 5972   5.063  11.292   9.663 -0.0305 -1.4085  1.4727
  785MOL0     H 5973   4.940  10.900   9.708 -0.3655 -1.0605 -0.0633
  785MOL0     H 5974   5.669  11.177   9.937 -5.2000 -0.6688 -0.1069
  785MOL0     H 5975   5.880  11.142  10.087  0.4832  0.6596  0.3024
  786MOL0     O 5976  10.701   4.755   0.455 -0.5909  0.1041  0.3636
  786MOL0     C 5977  10.800   4.709   0.510 -0.3085 -0.1756 -0.7081
  786MOL0     O 5978  10.793   4.646   0.627 -0.7468  0.2845 -0.8692
  786MOL0     C 5979  10.671   4.594   0.667 -0.5353  0.6491  0.1365
  786MOL0     C 5980  10.620   4.489   0.583  0.0664 -0.0293 -0.4126
  786MOL0     C 5981  10.492   4.434   0.615 -0.1064 -0.0000  0.2952
  786MOL0     C 5982  10.418   4.489   0.718  0.3244 -0.6473  0.0012
  786MOL0     O 5983  10.304   4.430   0.767 -0.1031  0.4584 -0.1185
  786MOL0     C 5984  10.187   4.475   0.709  0.3839  0.4454 -0.4062
  786MOL0     C 5985  10.076   4.485   0.808 -0.5651 -0.3654  0.7763
  786MOL0     C 5986   9.946   4.528   0.750  0.7984 -0.3904  0.3948
  786MOL0     C 5987   9.823   4.515   0.840 -0.1517 -0.2936 -0.4482
  786MOL0     C 5988   9.701   4.606   0.801 -0.0414  0.7686  0.4807
  786MOL0     C 5989   9.565   4.550   0.835 -0.2794  0.8592  0.0630
  786MOL0     C 5990   9.443   4.623   0.769 -0.3381  0.6813  0.1098
  786MOL0     C 5991   9.311   4.553   0.780  0.3670  0.4888 -0.3731
  786MOL0     N 5992   9.208   4.636   0.830  0.5299 -0.0460  0.1377
  786MOL0     C 5993   9.142   4.731   0.759  0.6085  0.6342  0.4678
  786MOL0     C 5994   9.051   4.780   0.848  0.4996 -0.0894  0.2107
  786MOL0     C 5995   8.946   4.880   0.809  0.3130  0.6394  0.6774
  786MOL0     C 5996   8.979   5.026   0.858 -0.2852  0.0107  0.5343
  786MOL0     C 5997   8.908   5.136   0.777 -0.0443 -0.9966 -0.5158
  786MOL0     C 5998   8.764   5.141   0.796  1.2582 -0.2164  0.5684
  786MOL0     O 5999   8.687   5.032   0.724  0.0338 -0.3984 -0.6807
  786MOL0     C 6000   8.549   5.041   0.708  0.0973 -0.1043  0.4132
  786MOL0     C 6001   8.467   5.153   0.718 -0.4152 -0.1966 -0.2124
  786MOL0     C 6002   8.325   5.156   0.707 -0.7105  0.5108 -0.2683
  786MOL0     C 6003   8.259   5.279   0.747  0.8808  0.6615  0.2002
  786MOL0     C 6004   8.266   5.026   0.673  0.3520 -0.3335 -0.2492
  786MOL0     C 6005   8.120   5.011   0.643  0.2117  0.3255 -0.1026
  786MOL0     O 6006   8.072   4.882   0.618 -0.1334 -0.4391 -0.2355
  786MOL0     C 6007   7.960   4.869   0.533 -0.1434 -0.7535 -0.1401
  786MOL0     C 6008   7.908   4.967   0.442  0.5462  0.8501  0.0682
  786MOL0     C 6009   7.788   4.941   0.368  0.6339 -0.3364 -0.0857
  786MOL0     C 6010   7.721   4.818   0.380 -1.0030  0.7445 -1.2382
  786MOL0     O 6011   7.616   4.779   0.299 -0.1625  0.1519  0.6380
  786MOL0     C 6012   7.505   4.869   0.278  0.2539 -0.8919 -0.4740
  786MOL0     C 6013   7.391   4.810   0.194  1.3265 -0.3157 -0.9729
  786MOL0     C 6014   7.276   4.916   0.187 -0.5281  0.7540  0.7777
  786MOL0     C 6015   7.198   4.936   0.310 -0.2833  0.0895 -0.8213
  786MOL0     C 6016   7.076   5.025   0.274 -0.7343 -0.2764 -1.0362
  786MOL0     C 6017   7.004   5.052   0.405  0.2006 -0.0806 -0.5620
  786MOL0     C 6018   6.874   5.128   0.377 -0.9033 -0.1694  0.3080
  786MOL0     C 6019   6.799   5.190   0.494 -1.0165  0.6672 -0.2284
  786MOL0    Cl 6020   6.634   5.236   0.453  0.4642 -0.4133  0.2743
  786MOL0     C 6021   7.769   4.728   0.475  0.0049 -0.3700  0.0663
  786MOL0     C 6022   7.890   4.746   0.547 -0.5571  0.0069  1.0262
  786MOL0     O 6023   8.058   5.115   0.636 -0.2217 -0.0483 -0.4028
  786MOL0     C 6024   8.352   4.918   0.665  0.2192  0.2210  1.1434
  786MOL0     C 6025   8.485   4.918   0.690 -0.1860  0.6682  0.3862
  786MOL0     N 6026   9.059   4.711   0.971 -0.4230  0.7099 -0.2220
  786MOL0     N 6027   9.157   4.625   0.953  0.4478  0.1862  1.1195
  786MOL0     C 6028  10.470   4.596   0.791  0.5455  0.9841  0.1106
  786MOL0     C 6029  10.590   4.655   0.762 -0.4169 -0.6795  0.2313
  786MOL0     C 6030  10.933   4.726   0.455 -0.2877 -1.1227 -0.5221
  786MOL0     C 6031  11.041   4.678   0.529 -0.7314  0.0706  0.7873
  786MOL0     C 6032  11.170   4.677   0.462 -0.1286 -0.7714 -1.0554
  786MOL0     C 6033  11.199   4.731   0.336 -0.9074  0.9443 -0.5772
  786MOL0     O 6034  11.332   4.728   0.290 -0.3055 -0.1997 -1.5095
  786MOL0     C 6035  11.365   4.794   0.172  0.3404  0.4612  0.0108
  786MOL0     C 6036  11.515   4.825   0.148 -0.0135 -0.2124  0.0713
  786MOL0     C 6037  11.580   4.914   0.260 -0.0341 -0.8863  0.5859
  786MOL0     C 6038  11.585   5.062   0.234 -0.2146  0.4199  0.0018
  786MOL0     C 6039  11.696   5.090   0.131 -0.8314 -0.5887  0.2488
  786MOL0     C 6040  11.762   5.095   0.030  0.4200  1.0283  0.3460
  786MOL0     C 6041  11.089   4.788   0.272 -0.2840  0.5955 -0.3154
  786MOL0     C 6042  10.959   4.786   0.328  0.1258  0.5178  0.2537
  786MOL0     H 6043  10.688   4.441   0.513  1.5010  0.7906  0.3625
  786MOL0     H 6044  10.463   4.339   0.570  1.9646 -0.2124 -0.6891
  786MOL0     H 6045  10.207   4.575   0.670  0.3585  0.6950  0.2014
  786MOL0     H 6046  10.149   4.407   0.633 -0.5278  3.0208 -2.4185
  786MOL0     H 6047  10.063   4.386   0.851  1.2095 -0.4594  1.1655
  786MOL0     H 6048  10.101   4.559   0.885  3.0614 -1.9145  1.3012
  786MOL0     H 6049   9.952   4.635   0.726 -0.2999 -0.1566  1.0618
  786MOL0     H 6050   9.922   4.481   0.655 -1.4863  1.7553 -0.2036
  786MOL0     H 6051   9.795   4.409   0.840  0.2118 -0.4136  1.2045
  786MOL0     H 6052   9.844   4.534   0.945 -3.5170 -0.1337  0.3029
  786MOL0     H 6053   9.715   4.705   0.846  2.3432  0.0425  1.4720
  786MOL0     H 6054   9.703   4.611   0.692  1.2944  2.4130  0.5372
  786MOL0     H 6055   9.553   4.445   0.806 -6.0355  0.5123  2.3988
  786MOL0     H 6056   9.564   4.554   0.945  3.2478  0.1314  0.2447
  786MOL0     H 6057   9.434   4.721   0.817  0.3512  0.6280  0.3642
  786MOL0     H 6058   9.469   4.638   0.663  3.4200 -0.8338  0.6537
  786MOL0     H 6059   9.320   4.466   0.846 -1.3489 -0.4708 -1.3312
  786MOL0     H 6060   9.279   4.524   0.680  3.9876  1.6989 -2.0472
  786MOL0     H 6061   9.149   4.763   0.655  0.7601  0.5635  0.4572
  786MOL0     H 6062   8.934   4.877   0.701 -1.7601 -0.2341  0.8853
  786MOL0     H 6063   8.859   4.834   0.857 -1.1824  0.1308 -2.3268
  786MOL0     H 6064   9.087   5.042   0.850  0.0333 -2.5756 -3.4018
  786MOL0     H 6065   8.959   5.029   0.965 -0.5887 -1.8797  0.5604
  786MOL0     H 6066   8.933   5.124   0.672  2.8705 -2.5344  0.2388
  786MOL0     H 6067   8.954   5.233   0.801  0.4930 -1.6830  1.4544
  786MOL0     H 6068   8.734   5.243   0.772  2.6065 -0.0235 -0.4070
  786MOL0     H 6069   8.744   5.127   0.903  2.2402 -0.8907  0.6815
  786MOL0     H 6070   8.532   5.238   0.734  2.2323 -1.7459 -1.9605
  786MOL0     H 6071   8.237   5.344   0.661 -0.9387 -0.7888 -0.4940
  786MOL0     H 6072   8.161   5.265   0.793  0.0161  2.2167 -1.0624
  786MOL0     H 6073   8.320   5.340   0.814 -0.1397  0.0281  1.7576
  786MOL0     H 6074   7.951   5.066   0.430  1.4302  1.1723  4.3136
  786MOL0     H 6075   7.753   5.018   0.300  0.2862 -0.5056 -0.0990
  786MOL0     H 6076   7.466   4.897   0.376  2.7754  2.3392 -0.2378
  786MOL0     H 6077   7.535   4.964   0.233 -0.4177 -0.1906  0.5384
  786MOL0     H 6078   7.424   4.777   0.095 -0.3546 -2.0515 -1.0206
  786MOL0     H 6079   7.351   4.724   0.249 -3.0660  0.9544 -1.7341
  786MOL0     H 6080   7.221   4.880   0.099 -3.0088  0.3555  2.4016
  786MOL0     H 6081   7.328   5.006   0.152 -2.5095  1.6572 -0.0214
  786MOL0     H 6082   7.161   4.843   0.354  0.3165  0.8913  1.5415
  786MOL0     H 6083   7.263   4.974   0.390  0.9607  0.8796 -2.1704
  786MOL0     H 6084   7.025   4.964   0.198  1.8585 -2.2060 -1.3875
  786MOL0     H 6085   7.097   5.126   0.241 -2.9958  3.1787  6.0626
  786MOL0     H 6086   6.991   4.963   0.468  0.7294 -0.0228 -0.3655
  786MOL0     H 6087   7.069   5.113   0.469 -0.8839  0.4946  0.0252
  786MOL0     H 6088   6.804   5.074   0.313  0.4423 -1.8137  0.1362
  786MOL0     H 6089   6.910   5.218   0.326 -1.1497  0.5719  1.3860
  786MOL0     H 6090   6.858   5.276   0.527  0.7686 -0.4329 -0.3787
  786MOL0     H 6091   6.803   5.118   0.576 -1.1409  1.0894  0.1513
  786MOL0     H 6092   7.725   4.631   0.493  0.4579 -0.5949 -0.0420
  786MOL0     H 6093   7.935   4.679   0.620 -0.1810 -3.5214 -2.1548
  786MOL0     H 6094   8.315   4.820   0.636  2.5997  0.1837 -2.2582
  786MOL0     H 6095   8.544   4.827   0.678 -0.6570  0.3819  0.2292
  786MOL0     H 6096  10.413   4.610   0.882 -0.4242 -2.5943  0.2118
  786MOL0     H 6097  10.636   4.742   0.809  1.6497 -0.3438 -2.1818
  786MOL0     H 6098  11.048   4.626   0.623  3.5445 -1.7305 -0.2906
  786MOL0     H 6099  11.248   4.638   0.527 -0.9554  1.5114  1.4694
  786MOL0     H 6100  11.332   4.730   0.089  3.7476 -1.0119 -0.3504
  786MOL0     H 6101  11.316   4.891   0.156  0.4441  0.1328 -3.0194
  786MOL0     H 6102  11.530   4.870   0.049 -0.9379 -0.5286 -0.2202
  786MOL0     H 6103  11.559   4.725   0.154 -2.5407 -1.5505 -2.0597
  786MOL0     H 6104  11.684   4.888   0.282  1.5172  4.1096  0.6081
  786MOL0     H 6105  11.526   4.898   0.353  0.0742 -0.1448  0.7882
  786MOL0     H 6106  11.607   5.112   0.329 -1.4980 -0.6578  0.9077
  786MOL0     H 6107  11.485   5.090   0.201 -0.9989 -1.2171  0.8668
  786MOL0     H 6108  11.815   5.100  -0.063 -2.2135 -3.8348 -1.8120
  786MOL0     H 6109  11.110   4.820   0.170  1.3223 -2.8754 -1.2082
  786MOL0     H 6110  10.880   4.841   0.279  0.5135  0.9942  0.1582
  787MOL0     O 6111  10.785   7.429   7.182  0.1473  0.9435  0.2015
  787MOL0     C 6112  10.798   7.488   7.291 -0.2699  0.1744  0.6622
  787MOL0     O 6113  10.704   7.559   7.353 -0.4213 -0.1404  0.1331
  787MOL0     C 6114  10.575   7.560   7.310  0.1462 -0.0454 -0.2731
  787MOL0     C 6115  10.489   7.596   7.413  0.5968 -0.2952 -0.2037
  787MOL0     C 6116  10.349   7.613   7.398 -0.0722 -0.1884 -0.1593
  787MOL0     C 6117  10.297   7.599   7.264 -0.5439 -0.7389  0.3504
  787MOL0     O 6118  10.164   7.604   7.228 -0.1696 -0.3660  0.0487
  787MOL0     C 6119  10.064   7.570   7.317  0.7336 -0.1130 -0.1672
  787MOL0     C 6120  10.002   7.685   7.399  0.0879 -0.4039 -0.4155
  787MOL0     C 6121   9.884   7.629   7.483  0.6631  0.2493  0.2646
  787MOL0     C 6122   9.817   7.750   7.548  0.3128  0.3651 -0.3933
  787MOL0     C 6123   9.721   7.704   7.663 -0.5042 -0.1209 -1.0268
  787MOL0     C 6124   9.709   7.803   7.775 -0.1576 -0.7921  0.8935
  787MOL0     C 6125   9.668   7.737   7.909 -0.5839  0.0929  0.2142
  787MOL0     C 6126   9.786   7.666   7.982 -0.8122 -0.1553 -0.2967
  787MOL0     N 6127   9.875   7.759   8.046 -0.3038 -0.1175  0.0052
  787MOL0     C 6128   9.938   7.733   8.167 -0.2873  0.1930 -0.4592
  787MOL0     C 6129  10.033   7.836   8.175  0.0909  0.9735  0.8509
  787MOL0     C 6130  10.139   7.831   8.283 -0.1644 -0.1122 -0.4842
  787MOL0     C 6131  10.268   7.755   8.237 -0.9128 -0.0362  0.1477
  787MOL0     C 6132  10.348   7.862   8.139 -0.0987  1.0705  0.1907
  787MOL0     C 6133  10.499   7.850   8.131 -0.6397 -0.2820 -0.2232
  787MOL0     O 6134  10.538   7.712   8.134  0.0953  0.2468  0.6508
  787MOL0     C 6135  10.600   7.654   8.237 -0.2667  0.2882  0.7369
  787MOL0     C 6136  10.630   7.719   8.358 -0.6544 -0.6169 -0.1024
  787MOL0     C 6137  10.690   7.643   8.461  0.6049  0.5598 -0.4639
  787MOL0     C 6138  10.715   7.711   8.595  0.1611 -0.0786 -0.3313
  787MOL0     C 6139  10.713   7.502   8.441 -0.5615 -0.3981 -0.6617
  787MOL0     C 6140  10.786   7.412   8.528 -0.4079 -0.1044 -0.2131
  787MOL0     O 6141  10.717   7.323   8.599  0.5827  0.7617 -0.1116
  787MOL0     C 6142  10.782   7.227   8.672  0.3248  0.2978  0.8044
  787MOL0     C 6143  10.862   7.270   8.776  0.6019  0.4909  0.1335
  787MOL0     C 6144  10.930   7.178   8.855 -0.2358  0.0907  0.3622
  787MOL0     C 6145  10.919   7.038   8.839 -0.6758  0.4734 -0.0389
  787MOL0     O 6146  10.960   6.950   8.935 -0.3560 -0.3075 -0.7356
  787MOL0     C 6147  10.912   6.811   8.930  0.5827  0.4549 -0.1564
  787MOL0     C 6148  10.965   6.720   9.054 -0.2945 -0.8618 -0.1669
  787MOL0     C 6149  10.886   6.589   9.044  0.5376  0.8917 -0.6466
  787MOL0     C 6150  10.942   6.473   9.125 -0.4790 -1.1295  0.0030
  787MOL0     C 6151  10.896   6.476   9.262 -0.5975  0.0304  0.8726
  787MOL0     C 6152  10.975   6.360   9.336 -0.2494 -0.5125 -0.9897
  787MOL0     C 6153  10.905   6.322   9.468 -0.1453  0.3380  0.0119
  787MOL0     C 6154  11.010   6.269   9.565 -0.1058  0.2486  0.5999
  787MOL0    Cl 6155  10.925   6.227   9.706 -0.1350 -0.1605  0.1242
  787MOL0     C 6156  10.837   6.997   8.732  0.1058 -0.0438 -0.2176
  787MOL0     C 6157  10.770   7.090   8.654 -0.2738 -0.2419  0.7343
  787MOL0     O 6158  10.905   7.434   8.536  0.3987  0.7804  0.3214
  787MOL0     C 6159  10.673   7.445   8.320  0.0265  0.4573  0.4920
  787MOL0     C 6160  10.619   7.521   8.215  0.5891 -0.0510  0.1106
  787MOL0     N 6161  10.033   7.920   8.070  0.3390 -0.2218  0.6677
  787MOL0     N 6162   9.938   7.868   7.989  0.1384  0.6154 -0.5612
  787MOL0     C 6163  10.393   7.575   7.161 -0.0902  0.0064  0.1803
  787MOL0     C 6164  10.528   7.552   7.183 -0.3871 -0.6515 -0.1832
  787MOL0     C 6165  10.944   7.480   7.347  0.2370 -0.5864 -1.2557
  787MOL0     C 6166  10.983   7.560   7.459  0.2591 -0.1027 -0.6915
  787MOL0     C 6167  11.120   7.561   7.501 -0.1821  0.9785  0.0550
  787MOL0     C 6168  11.214   7.477   7.441 -0.3453 -0.1603 -0.0519
  787MOL0     O 6169  11.341   7.492   7.493 -0.1674  1.1982 -0.2659
  787MOL0     C 6170  11.449   7.415   7.449  0.1780  0.2713 -0.8092
  787MOL0     C 6171  11.561   7.441   7.543 -1.1278 -0.2268  0.5524
  787MOL0     C 6172  11.555   7.370   7.679  0.2773  0.2449  0.1289
  787MOL0     C 6173  11.699   7.351   7.740  0.7187  0.0494 -0.7594
  787MOL0     C 6174  11.702   7.220   7.823 -0.1741 -0.6390  0.6673
  787MOL0     C 6175  11.709   7.119   7.890  0.7760  0.5422  0.6124
  787MOL0     C 6176  11.175   7.395   7.327  0.1360  0.1639  0.9371
  787MOL0     C 6177  11.045   7.402   7.286 -0.1145  0.0681  0.1576
  787MOL0     H 6178  10.530   7.612   7.512  1.0499  0.9118 -0.5746
  787MOL0     H 6179  10.283   7.619   7.484 -0.1349 -2.1833 -0.0363
  787MOL0     H 6180   9.981   7.535   7.255  0.2405  0.2525  0.2689
  787MOL0     H 6181  10.098   7.485   7.378 -0.8828 -0.7172 -0.0433
  787MOL0     H 6182  10.076   7.733   7.464 -2.2105  1.6368  0.8304
  787MOL0     H 6183   9.957   7.754   7.328 -0.5426 -0.2363  0.1339
  787MOL0     H 6184   9.809   7.587   7.415  0.7210  1.8984 -0.8750
  787MOL0     H 6185   9.907   7.552   7.556 -2.5904 -0.2189  0.9814
  787MOL0     H 6186   9.890   7.830   7.565 -1.6248  2.2458 -0.4690
  787MOL0     H 6187   9.746   7.805   7.485 -1.4066  2.3246  2.9037
  787MOL0     H 6188   9.621   7.688   7.622 -0.7786  2.0431 -1.3241
  787MOL0     H 6189   9.758   7.610   7.704 -0.5439  0.2263 -0.1665
  787MOL0     H 6190   9.801   7.862   7.783  0.7271 -1.7354 -1.4334
  787MOL0     H 6191   9.633   7.877   7.750  1.7914  0.3100 -2.4406
  787MOL0     H 6192   9.639   7.812   7.983 -2.3266  0.1887 -0.5160
  787MOL0     H 6193   9.589   7.665   7.883 -0.2813 -0.0733 -0.2600
  787MOL0     H 6194   9.837   7.595   7.917  2.4401  0.4157  1.4129
  787MOL0     H 6195   9.749   7.604   8.065 -1.8719 -0.3211 -0.8816
  787MOL0     H 6196   9.928   7.639   8.221  1.7519  0.3035  0.2069
  787MOL0     H 6197  10.175   7.930   8.311  4.1760 -1.8879  1.1337
  787MOL0     H 6198  10.096   7.779   8.369 -2.4382  0.2448 -1.3464
  787MOL0     H 6199  10.241   7.657   8.196 -2.0433 -0.4963  1.8595
  787MOL0     H 6200  10.338   7.729   8.317 -0.1404  1.5670  0.0410
  787MOL0     H 6201  10.339   7.964   8.176 -1.9340  1.0659 -0.1255
  787MOL0     H 6202  10.303   7.848   8.040  1.9656 -0.7062 -0.5618
  787MOL0     H 6203  10.532   7.906   8.218  1.6347 -0.2298 -1.0595
  787MOL0     H 6204  10.543   7.906   8.048  0.2849  0.0590  0.4788
  787MOL0     H 6205  10.612   7.825   8.372  3.2831  0.1033  0.8972
  787MOL0     H 6206  10.811   7.764   8.596 -0.0956  0.4027  1.6497
  787MOL0     H 6207  10.634   7.781   8.610 -0.0757 -0.3722 -0.2338
  787MOL0     H 6208  10.715   7.646   8.683  1.9673  1.8629  1.2092
  787MOL0     H 6209  10.874   7.376   8.791 -1.2571  0.1950  6.7568
  787MOL0     H 6210  10.993   7.219   8.933  0.3568 -1.2962  0.6339
  787MOL0     H 6211  10.804   6.822   8.940  0.6015  0.6451 -0.1567
  787MOL0     H 6212  10.944   6.762   8.838  0.3594  0.6080 -0.3155
  787MOL0     H 6213  11.073   6.709   9.051 -0.0358 -0.2070  3.1562
  787MOL0     H 6214  10.937   6.764   9.150 -2.7286 -2.2330 -0.1487
  787MOL0     H 6215  10.873   6.546   8.944  3.0390 -0.1212 -0.5838
  787MOL0     H 6216  10.784   6.610   9.077  1.1715  2.5007  0.3725
  787MOL0     H 6217  10.909   6.376   9.085  0.1849 -1.1931 -0.4032
  787MOL0     H 6218  11.051   6.475   9.119 -0.4171 -1.5258  0.8894
  787MOL0     H 6219  10.788   6.460   9.264 -0.2526 -2.8494  1.6837
  787MOL0     H 6220  10.912   6.570   9.314 -0.5264  0.7890 -0.4695
  787MOL0     H 6221  10.966   6.264   9.284  1.4339 -1.8243  1.0146
  787MOL0     H 6222  11.081   6.379   9.351  0.6404 -3.3038 -2.8866
  787MOL0     H 6223  10.822   6.254   9.447 -1.3488  1.3091  1.4750
  787MOL0     H 6224  10.853   6.408   9.511 -3.7496 -1.6650  0.0698
  787MOL0     H 6225  11.082   6.348   9.585 -0.2740  0.4156  0.5418
  787MOL0     H 6226  11.059   6.182   9.519  0.8193  1.4048 -0.6706
  787MOL0     H 6227  10.810   6.897   8.697 -0.6955  0.0586  0.0781
  787MOL0     H 6228  10.702   7.067   8.572  1.0786  3.3967 -1.6601
  787MOL0     H 6229  10.679   7.340   8.297 -3.0387 -0.0390  1.4682
  787MOL0     H 6230  10.600   7.483   8.115  0.9453  2.1400 -0.8539
  787MOL0     H 6231  10.352   7.553   7.063  1.8306 -4.4614  0.1239
  787MOL0     H 6232  10.592   7.514   7.103  4.6451  4.1827  0.8800
  787MOL0     H 6233  10.913   7.631   7.502 -1.9649 -0.7244 -3.0851
  787MOL0     H 6234  11.147   7.614   7.592 -3.5617 -0.6041  2.1549
  787MOL0     H 6235  11.423   7.309   7.458 -1.9920  0.9549  3.6489
  787MOL0     H 6236  11.477   7.441   7.346 -1.4564 -0.4610 -1.4697
  787MOL0     H 6237  11.575   7.548   7.559 -1.0176 -0.4498  2.1085
  787MOL0     H 6238  11.637   7.399   7.476 -3.0039 -1.3219 -1.0147
  787MOL0     H 6239  11.510   7.272   7.664 -0.6391  0.5185  0.9009
  787MOL0     H 6240  11.493   7.431   7.747 -0.5189  0.7979 -1.0575
  787MOL0     H 6241  11.722   7.437   7.804  2.1511  2.6950 -4.5036
  787MOL0     H 6242  11.771   7.349   7.659 -2.3225 -0.1568 -3.6875
  787MOL0     H 6243  11.713   7.029   7.947 -4.2973  0.6892  1.6646
  787MOL0     H 6244  11.244   7.328   7.278 -0.0819 -1.2139  2.4230
  787MOL0     H 6245  11.025   7.338   7.201 -1.7221  0.8354 -0.0827
  788MOL0     O 6246   9.938  10.032   9.640  0.3768  0.0407  0.7600
  788MOL0     C 6247  10.062  10.035   9.645 -0.8421  0.5131  0.9106
  788MOL0     O 6248  10.148   9.930   9.644  0.8348  0.8843  0.3561
  788MOL0     C 6249  10.090   9.804   9.647  0.0503 -0.2818 -0.1189
  788MOL0     C 6250  10.070   9.734   9.761 -0.9667  0.2416  0.0667
  788MOL0     C 6251  10.026   9.598   9.761 -0.2031 -0.4331 -0.1151
  788MOL0     C 6252   9.981   9.542   9.638  0.1976  0.0723  0.6491
  788MOL0     O 6253   9.918   9.426   9.650  0.0145 -0.3224 -0.2082
  788MOL0     C 6254   9.874   9.352   9.536 -0.4544  0.8654  0.6873
  788MOL0     C 6255   9.806   9.227   9.584  1.6965 -0.2989 -0.5960
  788MOL0     C 6256   9.904   9.129   9.643 -0.7568  0.1137 -0.3335
  788MOL0     C 6257   9.849   8.998   9.692 -0.4834 -0.0968 -0.2052
  788MOL0     C 6258   9.738   9.004   9.787 -0.1479  0.1704  0.2015
  788MOL0     C 6259   9.765   9.083   9.919 -0.6336  1.1085 -0.1249
  788MOL0     C 6260   9.672   9.064  10.034  0.1429 -0.8392 -0.2703
  788MOL0     C 6261   9.738   9.110  10.159 -0.1874 -0.1823  0.5726
  788MOL0     N 6262   9.659   9.101  10.276  0.3953  0.3720  0.0716
  788MOL0     C 6263   9.711   9.052  10.398  0.5297  0.4537  0.4858
  788MOL0     C 6264   9.603   9.050  10.482  0.0434  0.1722  0.5888
  788MOL0     C 6265   9.603   9.011  10.634  0.1410  0.2662 -0.0124
  788MOL0     C 6266   9.524   9.103  10.722  0.2967 -0.2867  0.2164
  788MOL0     C 6267   9.374   9.096  10.718 -0.7290 -0.8415  0.4139
  788MOL0     C 6268   9.315   9.185  10.826  1.4454  0.9364 -0.3524
  788MOL0     O 6269   9.173   9.177  10.830  0.2172  0.5154 -0.1651
  788MOL0     C 6270   9.114   9.074  10.896 -0.0179 -0.3785 -0.4410
  788MOL0     C 6271   9.182   8.969  10.962 -0.3433  0.7999  0.1861
  788MOL0     C 6272   9.110   8.870  11.036 -0.0580 -0.0005 -0.3602
  788MOL0     C 6273   9.201   8.779  11.119 -0.3424 -0.4168  0.5199
  788MOL0     C 6274   8.972   8.881  11.053  0.0372 -0.1476  0.0870
  788MOL0     C 6275   8.890   8.785  11.123  0.4495 -0.1442 -1.5733
  788MOL0     O 6276   8.761   8.823  11.138  0.3942 -0.8629 -0.3067
  788MOL0     C 6277   8.684   8.732  11.206  0.0792 -0.9894  0.0318
  788MOL0     C 6278   8.681   8.675  11.338  0.0869  0.5190 -0.3348
  788MOL0     C 6279   8.579   8.592  11.382  1.4377 -0.0498  0.2859
  788MOL0     C 6280   8.468   8.567  11.303  0.3555 -0.2321  1.0778
  788MOL0     O 6281   8.371   8.478  11.347 -0.0966  0.1429  0.4276
  788MOL0     C 6282   8.275   8.429  11.258 -0.7667 -0.6818 -0.5755
  788MOL0     C 6283   8.184   8.336  11.326  0.2056  0.3276  0.6166
  788MOL0     C 6284   8.082   8.397  11.428  0.0731  0.4740  0.6143
  788MOL0     C 6285   7.980   8.281  11.441  0.5016 -0.1470 -0.2372
  788MOL0     C 6286   7.876   8.315  11.548  0.4118  0.2394 -0.4957
  788MOL0     C 6287   7.744   8.226  11.545 -0.0763 -0.3442 -0.5945
  788MOL0     C 6288   7.779   8.081  11.592  0.4110 -0.1147  0.1065
  788MOL0     C 6289   7.702   7.974  11.506  0.1527  0.1817 -0.8782
  788MOL0    Cl 6290   7.527   7.984  11.561 -0.0532  0.6270  0.2061
  788MOL0     C 6291   8.467   8.628  11.177  0.7344  0.7896 -0.1234
  788MOL0     C 6292   8.570   8.708  11.129  0.0124  0.1937  0.1728
  788MOL0     O 6293   8.946   8.692  11.175 -0.1414  0.0119  0.5452
  788MOL0     C 6294   8.902   8.992  10.987 -0.0092  1.2050  0.1923
  788MOL0     C 6295   8.979   9.087  10.908 -0.5417 -0.7607 -0.2618
  788MOL0     N 6296   9.489   9.105  10.410  0.4314 -0.7400 -0.4422
  788MOL0     N 6297   9.533   9.130  10.290  0.7678  0.8893  0.7190
  788MOL0     C 6298  10.000   9.612   9.524 -0.0711  1.0863  0.3367
  788MOL0     C 6299  10.060   9.741   9.526  0.6313  0.0495 -0.2747
  788MOL0     C 6300  10.132  10.171   9.648  0.5059 -0.2405  0.3108
  788MOL0     C 6301  10.035  10.274   9.670 -0.5500 -0.5425 -0.0192
  788MOL0     C 6302  10.100  10.405   9.666  0.1044  0.2237 -0.4688
  788MOL0     C 6303  10.231  10.435   9.633  0.8009  0.6668 -0.4183
  788MOL0     O 6304  10.262  10.572   9.640 -0.6135  0.1507  0.5121
  788MOL0     C 6305  10.395  10.606   9.595 -0.0439 -0.2639  0.7937
  788MOL0     C 6306  10.488  10.601   9.712 -0.1050  0.1789 -0.5642
  788MOL0     C 6307  10.635  10.644   9.670  0.5332  0.1799 -0.0406
  788MOL0     C 6308  10.713  10.534   9.586 -0.3418  1.1135  0.4335
  788MOL0     C 6309  10.856  10.546   9.613  0.4825  0.1725 -0.9208
  788MOL0     C 6310  10.968  10.545   9.653  0.0708 -0.7066  0.2473
  788MOL0     C 6311  10.314  10.322   9.616  0.5950 -0.3558  1.0319
  788MOL0     C 6312  10.260  10.195   9.617 -1.2295 -0.3461 -0.0785
  788MOL0     H 6313  10.103   9.776   9.855 -0.3355 -0.1158  0.0084
  788MOL0     H 6314  10.012   9.539   9.851 -0.1114 -0.9475 -0.4308
  788MOL0     H 6315   9.806   9.410   9.473 -1.9094 -2.6380 -1.2962
  788MOL0     H 6316   9.950   9.321   9.464 -2.5231  3.0118 -2.6763
  788MOL0     H 6317   9.720   9.244   9.649  1.5291  0.0626 -0.9070
  788MOL0     H 6318   9.760   9.169   9.503  0.1112 -0.7835  0.6166
  788MOL0     H 6319   9.989   9.123   9.575 -0.3447  2.7458 -0.1733
  788MOL0     H 6320   9.947   9.171   9.735  2.3093 -0.2791 -1.4536
  788MOL0     H 6321   9.813   8.944   9.604 -0.6570  0.3499 -0.4103
  788MOL0     H 6322   9.919   8.929   9.739 -1.3024  0.9697  2.7947
  788MOL0     H 6323   9.654   9.044   9.730 -0.2250 -1.1248 -0.6310
  788MOL0     H 6324   9.715   8.901   9.815  1.7979 -0.0393  1.2655
  788MOL0     H 6325   9.865   9.049   9.948 -0.4180  0.7998 -1.1786
  788MOL0     H 6326   9.778   9.191   9.908 -1.1888  1.1894 -0.0054
  788MOL0     H 6327   9.576   9.109  10.005 -0.6272 -1.8047  0.6825
  788MOL0     H 6328   9.652   8.956  10.040 -2.3350 -0.4642 -0.4398
  788MOL0     H 6329   9.769   9.214  10.150 -0.7969  0.0724  1.3136
  788MOL0     H 6330   9.824   9.042  10.170  0.6998  0.7079 -0.6353
  788MOL0     H 6331   9.812   9.022  10.421  0.4252  0.8994  1.6160
  788MOL0     H 6332   9.552   8.914  10.641  3.1758 -1.4189  0.5460
  788MOL0     H 6333   9.706   9.015  10.671  0.8004  5.1766 -1.6823
  788MOL0     H 6334   9.555   9.202  10.689  2.3140 -0.5601  1.1572
  788MOL0     H 6335   9.552   9.086  10.826 -0.2444 -2.3950  0.0633
  788MOL0     H 6336   9.345   8.996  10.752  0.2677 -3.0196 -4.3731
  788MOL0     H 6337   9.331   9.119  10.621 -2.5505 -1.5914  1.0013
  788MOL0     H 6338   9.348   9.285  10.797  0.7098  0.7580 -1.8625
  788MOL0     H 6339   9.359   9.156  10.923  1.7043 -1.7543 -1.1777
  788MOL0     H 6340   9.290   8.960  10.952 -0.6348 -2.3581 -1.2201
  788MOL0     H 6341   9.179   8.675  11.094  0.9744 -0.9599  1.5155
  788MOL0     H 6342   9.306   8.807  11.105 -0.3642  0.3104  1.7032
  788MOL0     H 6343   9.188   8.780  11.227 -0.8662 -0.6761  0.4636
  788MOL0     H 6344   8.759   8.706  11.407 -0.5163 -0.9359  1.0666
  788MOL0     H 6345   8.601   8.549  11.479  1.3724  1.4730  1.0097
  788MOL0     H 6346   8.222   8.513  11.213 -1.2247 -1.4731 -1.5680
  788MOL0     H 6347   8.332   8.379  11.179  0.9866 -0.8765  0.7477
  788MOL0     H 6348   8.137   8.282  11.243 -0.1249  0.4432  0.7247
  788MOL0     H 6349   8.244   8.257  11.371 -0.0773 -3.9419 -5.2513
  788MOL0     H 6350   8.035   8.494  11.410 -0.3624 -0.0008 -0.9098
  788MOL0     H 6351   8.139   8.403  11.521  1.2481  0.2568 -0.0731
  788MOL0     H 6352   7.931   8.270  11.343  1.3769 -1.0806 -0.5872
  788MOL0     H 6353   8.031   8.193  11.480  0.6489  1.4907  3.6744
  788MOL0     H 6354   7.850   8.420  11.530 -0.2737 -0.2281 -2.4036
  788MOL0     H 6355   7.915   8.314  11.650  2.8403  0.7190 -1.3589
  788MOL0     H 6356   7.675   8.275  11.614 -1.6670 -1.1806 -1.5400
  788MOL0     H 6357   7.695   8.225  11.447 -0.2278  1.7427 -0.5683
  788MOL0     H 6358   7.763   8.066  11.699 -1.1031 -1.3813 -0.2608
  788MOL0     H 6359   7.883   8.067  11.561  0.3168  2.6013 -1.7744
  788MOL0     H 6360   7.737   7.871  11.520 -0.9154 -0.0582  0.1472
  788MOL0     H 6361   7.711   7.995  11.399 -2.1365  2.2952 -0.7364
  788MOL0     H 6362   8.379   8.624  11.114  0.3460  2.2669  0.2642
  788MOL0     H 6363   8.561   8.762  11.036 -1.0363  1.7952  1.1348
  788MOL0     H 6364   8.795   9.004  10.982 -0.0319  0.4615 -1.9279
  788MOL0     H 6365   8.937   9.178  10.869  0.9693  0.2493  0.3787
  788MOL0     H 6366   9.962   9.579   9.428 -1.8910  3.2837  0.2313
  788MOL0     H 6367  10.082   9.796   9.434 -2.1299  1.4610 -0.1969
  788MOL0     H 6368   9.928  10.276   9.691 -0.7973 -1.2887 -1.1112
  788MOL0     H 6369  10.035  10.490   9.687 -3.2422 -2.3593  0.4676
  788MOL0     H 6370  10.429  10.537   9.517 -0.5792  0.4541 -0.0875
  788MOL0     H 6371  10.389  10.707   9.553 -3.2249 -0.9885 -0.7927
  788MOL0     H 6372  10.488  10.496   9.740 -2.4539  0.0372 -0.8571
  788MOL0     H 6373  10.455  10.660   9.798  1.8219 -0.3628  0.6168
  788MOL0     H 6374  10.694  10.666   9.759  2.1719 -1.5669 -0.6213
  788MOL0     H 6375  10.626  10.736   9.611 -2.3006 -1.3476 -2.2770
  788MOL0     H 6376  10.688  10.565   9.484 -0.3898  1.2084  0.4737
  788MOL0     H 6377  10.678  10.430   9.586  1.6377  0.3806 -0.8357
  788MOL0     H 6378  11.061  10.544   9.707 -1.0137  1.2995  2.3462
  788MOL0     H 6379  10.415  10.336   9.579  0.5687 -2.3982  0.0202
  788MOL0     H 6380  10.324  10.112   9.593  0.9994  0.3737  2.7830
  789MOL0     O 6381   0.097   3.734   6.598  0.5267  0.4070 -0.2417
  789MOL0     C 6382   0.063   3.853   6.593 -1.0645  0.1701  0.2197
  789MOL0     O 6383  -0.060   3.902   6.616 -0.4018 -0.2355  0.9244
  789MOL0     C 6384  -0.150   3.823   6.676  0.8801 -0.1975 -0.2062
  789MOL0     C 6385  -0.125   3.756   6.797  0.1986  0.7454 -0.6758
  789MOL0     C 6386  -0.232   3.684   6.866 -0.8139 -0.3275  0.3209
  789MOL0     C 6387  -0.365   3.690   6.814  1.0213  0.1640 -0.0385
  789MOL0     O 6388  -0.476   3.630   6.879  0.7406  0.7250 -0.0046
  789MOL0     C 6389  -0.443   3.498   6.920  1.4634  0.0752  1.3355
  789MOL0     C 6390  -0.431   3.489   7.069  0.0590 -0.0995  0.3894
  789MOL0     C 6391  -0.569   3.486   7.148 -0.0015  0.2539  1.0055
  789MOL0     C 6392  -0.617   3.353   7.202  0.3396  0.7803 -0.5761
  789MOL0     C 6393  -0.761   3.348   7.235  0.3207 -0.0814  0.6005
  789MOL0     C 6394  -0.791   3.230   7.326 -0.2208 -0.5672  0.1202
  789MOL0     C 6395  -0.938   3.194   7.347  0.4634 -0.0349  0.3327
  789MOL0     C 6396  -1.018   3.307   7.394  0.1348 -0.2329 -0.5714
  789MOL0     N 6397  -1.014   3.349   7.538  0.4739 -0.3155  0.6274
  789MOL0     C 6398  -1.080   3.279   7.631  0.4468  0.0526 -0.0533
  789MOL0     C 6399  -1.058   3.349   7.738 -0.0990  0.3730 -0.5053
  789MOL0     C 6400  -1.095   3.297   7.874  0.1234  0.2868  0.4962
  789MOL0     C 6401  -1.017   3.179   7.914  0.7093 -0.1859  0.1376
  789MOL0     C 6402  -0.874   3.180   7.883  0.1380 -0.0799  1.0765
  789MOL0     C 6403  -0.794   3.079   7.959 -0.4207  0.1189 -0.2548
  789MOL0     O 6404  -0.722   3.139   8.068  0.1476 -0.3241 -0.4556
  789MOL0     C 6405  -0.665   3.068   8.164 -0.1347 -1.7558 -0.1353
  789MOL0     C 6406  -0.625   3.144   8.276 -0.1146  0.4418  0.0949
  789MOL0     C 6407  -0.594   3.086   8.398 -0.0389 -0.3106  0.2814
  789MOL0     C 6408  -0.563   3.181   8.516 -0.1222  0.4183  0.9656
  789MOL0     C 6409  -0.602   2.942   8.405 -0.6146  0.8784  0.5127
  789MOL0     C 6410  -0.569   2.858   8.533  1.2460  0.0033 -0.7402
  789MOL0     O 6411  -0.534   2.925   8.646  0.8933 -0.1961 -0.0489
  789MOL0     C 6412  -0.525   2.864   8.768 -0.5302  0.4844 -0.1937
  789MOL0     C 6413  -0.624   2.782   8.820  0.1185  0.9788 -0.1586
  789MOL0     C 6414  -0.619   2.745   8.954 -0.0735  0.1565  0.0939
  789MOL0     C 6415  -0.508   2.780   9.036 -0.3008 -1.1576  0.2096
  789MOL0     O 6416  -0.516   2.751   9.168  0.0876  0.4642 -0.4724
  789MOL0     C 6417  -0.425   2.807   9.256 -1.1396 -0.6538 -0.0344
  789MOL0     C 6418  -0.441   2.747   9.394 -1.2204  0.1863 -0.1198
  789MOL0     C 6419  -0.578   2.784   9.454  0.9698 -0.1125 -0.1206
  789MOL0     C 6420  -0.596   2.734   9.601 -1.1695  0.8994  0.2757
  789MOL0     C 6421  -0.726   2.793   9.663 -0.1046 -0.2441 -0.0237
  789MOL0     C 6422  -0.792   2.724   9.784 -0.1718 -0.0440  0.0290
  789MOL0     C 6423  -0.724   2.755   9.915  0.7950 -0.8465 -0.2072
  789MOL0     C 6424  -0.708   2.638  10.019  0.6597  0.3129  0.1938
  789MOL0    Cl 6425  -0.852   2.556  10.086  0.0700 -0.1402 -0.1366
  789MOL0     C 6426  -0.405   2.853   8.975 -0.9074 -0.2090  0.3929
  789MOL0     C 6427  -0.414   2.895   8.846 -0.3526  0.5632 -0.7726
  789MOL0     O 6428  -0.584   2.734   8.523  0.4826  0.1168  0.9651
  789MOL0     C 6429  -0.633   2.870   8.290  0.2038  0.6923 -0.0198
  789MOL0     C 6430  -0.649   2.934   8.166  0.3654 -0.3799 -0.6336
  789MOL0     N 6431  -0.981   3.464   7.709  0.1882  0.6451 -0.9921
  789MOL0     N 6432  -0.952   3.458   7.584 -0.4084 -0.1976  0.5460
  789MOL0     C 6433  -0.389   3.751   6.691  0.3034 -0.0357 -0.3112
  789MOL0     C 6434  -0.283   3.815   6.621  0.0665  0.5986 -0.1036
  789MOL0     C 6435   0.175   3.948   6.574  0.4360  0.0834 -0.0247
  789MOL0     C 6436   0.141   4.082   6.568 -0.2768 -1.0274 -0.1327
  789MOL0     C 6437   0.230   4.188   6.535  0.1987 -0.2280  0.3992
  789MOL0     C 6438   0.357   4.143   6.516  0.1056  0.0964 -0.0026
  789MOL0     O 6439   0.449   4.240   6.467  0.0157 -0.0404  0.2419
  789MOL0     C 6440   0.588   4.205   6.452 -0.0250 -1.1771  0.3745
  789MOL0     C 6441   0.661   4.341   6.445  0.1842  0.0144  0.0516
  789MOL0     C 6442   0.644   4.405   6.303 -0.1384 -0.4228  0.6219
  789MOL0     C 6443   0.724   4.537   6.280  0.3411 -0.0403 -0.0399
  789MOL0     C 6444   0.865   4.502   6.267  0.3958 -0.2681 -0.8023
  789MOL0     C 6445   0.981   4.467   6.248  0.3203 -0.0861  0.6356
  789MOL0     C 6446   0.399   4.007   6.535  0.3521 -0.6577  0.4075
  789MOL0     C 6447   0.309   3.911   6.567  0.0137 -0.0809 -0.3372
  789MOL0     H 6448  -0.027   3.748   6.843  0.2829 -1.1172 -1.1084
  789MOL0     H 6449  -0.220   3.634   6.962 -3.7709  1.4676  1.7695
  789MOL0     H 6450  -0.524   3.432   6.888  2.4925 -0.7635  0.3859
  789MOL0     H 6451  -0.359   3.452   6.868 -0.5748 -2.7267  0.2639
  789MOL0     H 6452  -0.358   3.414   7.100  0.1077 -0.0086  0.4980
  789MOL0     H 6453  -0.372   3.573   7.109 -0.4513  0.6855 -0.4667
  789MOL0     H 6454  -0.555   3.557   7.230 -0.3265  1.3999  0.0954
  789MOL0     H 6455  -0.647   3.521   7.080  1.1109 -4.6730 -3.5880
  789MOL0     H 6456  -0.598   3.275   7.128  2.7134 -1.0629  1.7928
  789MOL0     H 6457  -0.557   3.334   7.292 -1.6683  0.8833  0.8690
  789MOL0     H 6458  -0.794   3.441   7.283 -0.4313 -0.6366  1.2003
  789MOL0     H 6459  -0.810   3.343   7.137  0.9294 -0.2539  0.2997
  789MOL0     H 6460  -0.738   3.147   7.277 -2.6560 -0.6860 -2.5596
  789MOL0     H 6461  -0.743   3.247   7.423 -1.6314 -2.1000  1.1597
  789MOL0     H 6462  -0.969   3.154   7.250  1.7076  0.3323 -0.2445
  789MOL0     H 6463  -0.961   3.114   7.417  0.1756  0.1029  0.3978
  789MOL0     H 6464  -1.118   3.267   7.377  0.5839 -0.5329 -2.8990
  789MOL0     H 6465  -1.009   3.397   7.332  3.5410 -0.0262  0.0236
  789MOL0     H 6466  -1.129   3.182   7.626  0.7042 -0.0329 -1.3613
  789MOL0     H 6467  -1.082   3.382   7.941 -2.3182  0.3081  1.0267
  789MOL0     H 6468  -1.199   3.265   7.881 -0.1684  1.1864  0.3894
  789MOL0     H 6469  -1.059   3.085   7.877  1.4018  0.6946 -3.1939
  789MOL0     H 6470  -1.021   3.178   8.023  2.0811 -1.8267  0.2230
  789MOL0     H 6471  -0.846   3.284   7.904 -0.5115  0.2024  0.5863
  789MOL0     H 6472  -0.856   3.162   7.776  0.3956  0.6595  0.9844
  789MOL0     H 6473  -0.715   3.037   7.896 -0.6555 -1.3807  0.3984
  789MOL0     H 6474  -0.852   2.990   7.986  1.7496 -0.7725  1.8284
  789MOL0     H 6475  -0.639   3.251   8.266  3.8372  1.1840  0.8741
  789MOL0     H 6476  -0.463   3.157   8.552 -0.3435 -2.7127 -0.2197
  789MOL0     H 6477  -0.571   3.288   8.496  0.0319  0.1697 -0.5389
  789MOL0     H 6478  -0.642   3.177   8.592  0.3877 -0.1877  1.4750
  789MOL0     H 6479  -0.717   2.759   8.770 -1.6967  1.1549  2.9302
  789MOL0     H 6480  -0.706   2.710   9.009 -1.0992  1.8243 -0.3796
  789MOL0     H 6481  -0.323   2.787   9.222 -1.5538 -3.4975  0.1369
  789MOL0     H 6482  -0.433   2.915   9.272 -0.8200 -0.7302  0.7328
  789MOL0     H 6483  -0.423   2.641   9.377  2.1219  0.9030 -1.9180
  789MOL0     H 6484  -0.355   2.786   9.448  0.0684 -2.9127  0.2300
  789MOL0     H 6485  -0.657   2.735   9.397  0.6028 -0.0377  0.3245
  789MOL0     H 6486  -0.595   2.892   9.452 -0.4631 -0.2522  1.7290
  789MOL0     H 6487  -0.607   2.626   9.606 -0.0655  0.5167 -2.9634
  789MOL0     H 6488  -0.507   2.766   9.656 -1.0055  2.2650 -0.7260
  789MOL0     H 6489  -0.798   2.806   9.582 -0.5778  3.4925  0.8209
  789MOL0     H 6490  -0.703   2.897   9.687 -1.8762 -0.3823  2.8703
  789MOL0     H 6491  -0.888   2.776   9.794  0.7319  1.8591 -0.7148
  789MOL0     H 6492  -0.800   2.615   9.782  0.0025 -0.1384  2.1230
  789MOL0     H 6493  -0.795   2.823   9.963  0.5820 -1.9198  1.0666
  789MOL0     H 6494  -0.626   2.805   9.911  0.9946 -1.1301  0.7374
  789MOL0     H 6495  -0.643   2.660  10.104  1.8817 -0.7465 -0.4415
  789MOL0     H 6496  -0.652   2.554   9.977  1.1979  0.1751  1.1616
  789MOL0     H 6497  -0.325   2.894   9.036  0.5484 -3.2517  0.7211
  789MOL0     H 6498  -0.331   2.957   8.815 -0.0006  1.8135  2.3352
  789MOL0     H 6499  -0.642   2.762   8.290  1.0929  0.6055  1.0139
  789MOL0     H 6500  -0.685   2.881   8.078 -5.6005  2.5458 -0.4670
  789MOL0     H 6501  -0.487   3.765   6.646  1.4354  0.4219 -2.8543
  789MOL0     H 6502  -0.306   3.876   6.534  2.1332  2.9196  0.8489
  789MOL0     H 6503   0.047   4.124   6.605  1.4967  2.4967  0.8676
  789MOL0     H 6504   0.193   4.289   6.524 -0.9215 -0.7185 -0.5469
  789MOL0     H 6505   0.634   4.163   6.542  0.9745 -0.9142 -0.0026
  789MOL0     H 6506   0.612   4.148   6.362 -0.0522  2.2690 -1.9998
  789MOL0     H 6507   0.768   4.318   6.451 -0.0272 -1.7720 -2.0273
  789MOL0     H 6508   0.617   4.392   6.531 -0.0200  1.1439 -0.7044
  789MOL0     H 6509   0.540   4.437   6.292  0.6688  1.8934 -1.1178
  789MOL0     H 6510   0.666   4.327   6.230 -0.1922 -2.2801  2.5015
  789MOL0     H 6511   0.714   4.605   6.365 -0.2540  0.7851 -0.7465
  789MOL0     H 6512   0.694   4.592   6.189 -2.3148  0.7497  1.2286
  789MOL0     H 6513   1.084   4.438   6.245  0.2845 -0.2927 -2.2506
  789MOL0     H 6514   0.503   3.979   6.519  0.7274  0.3144  1.0536
  789MOL0     H 6515   0.335   3.806   6.570  1.5284  0.2884  0.4585
  790MOL0     O 6516   8.013   2.878   7.523 -0.1129  0.5738 -0.2263
  790MOL0     C 6517   8.085   2.977   7.539  0.1303  0.1667  0.5774
  790MOL0     O 6518   8.049   3.093   7.598  0.5567  0.5118 -0.2354
  790MOL0     C 6519   7.925   3.113   7.648  0.1632 -0.6044 -0.2133
  790MOL0     C 6520   7.865   3.027   7.743 -0.7051  0.4934 -0.4160
  790MOL0     C 6521   7.730   3.040   7.785  0.2523 -0.1895  0.0575
  790MOL0     C 6522   7.650   3.142   7.726  0.1423  0.2397 -0.1088
  790MOL0     O 6523   7.517   3.166   7.758 -0.5439  0.8509  0.1913
  790MOL0     C 6524   7.431   3.053   7.781  0.3728 -0.3565  0.7091
  790MOL0     C 6525   7.285   3.081   7.746 -0.3938  0.0112  0.3331
  790MOL0     C 6526   7.197   2.964   7.790  0.3152  0.3614  0.4981
  790MOL0     C 6527   7.049   2.998   7.756 -0.1490 -0.1642 -0.6321
  790MOL0     C 6528   6.949   2.882   7.764  0.2417 -0.6964 -0.4473
  790MOL0     C 6529   6.808   2.922   7.710 -0.6349 -0.1905 -0.7163
  790MOL0     C 6530   6.702   2.823   7.741  0.0202  0.3278  0.1899
  790MOL0     C 6531   6.556   2.876   7.706  0.4176 -0.7442 -0.1783
  790MOL0     N 6532   6.495   2.948   7.820  0.1046  0.3144  0.0562
  790MOL0     C 6533   6.369   2.909   7.854 -0.8513 -0.8361  0.4270
  790MOL0     C 6534   6.348   2.992   7.957  0.0685  0.5641 -0.3406
  790MOL0     C 6535   6.226   2.984   8.036  0.9147  0.1187 -0.6943
  790MOL0     C 6536   6.088   3.004   7.966  0.5094  0.0982  0.1049
  790MOL0     C 6537   6.043   2.877   7.894 -0.1210 -0.3118 -0.3345
  790MOL0     C 6538   5.902   2.885   7.828  0.0913 -0.8073  0.2152
  790MOL0     O 6539   5.903   2.990   7.721 -0.3388 -0.1336 -0.0767
  790MOL0     C 6540   5.997   2.967   7.621 -0.2919  0.6949 -0.2139
  790MOL0     C 6541   6.006   2.838   7.549 -0.1393 -0.6067 -0.9735
  790MOL0     C 6542   6.122   2.811   7.470 -0.4019 -0.8751  1.4050
  790MOL0     C 6543   6.122   2.672   7.416 -0.6480 -0.0609  0.2787
  790MOL0     C 6544   6.213   2.920   7.433  0.0753 -0.3399 -0.9562
  790MOL0     C 6545   6.325   2.902   7.344 -0.9549 -0.0931 -0.2304
  790MOL0     O 6546   6.377   3.013   7.291  0.4184 -0.1986 -0.1218
  790MOL0     C 6547   6.503   3.010   7.238  0.1996  0.4128 -0.5440
  790MOL0     C 6548   6.521   2.951   7.110  0.6551  0.4735  0.2610
  790MOL0     C 6549   6.650   2.934   7.053 -0.0532  0.1922 -0.4835
  790MOL0     C 6550   6.763   2.962   7.124  0.2218 -0.4402  0.0109
  790MOL0     O 6551   6.883   2.928   7.068 -0.2144  0.9080 -0.0780
  790MOL0     C 6552   6.999   2.995   7.120 -0.4253  0.0331 -0.6050
  790MOL0     C 6553   7.130   2.933   7.072  0.2568  0.0234 -0.7875
  790MOL0     C 6554   7.151   2.917   6.918 -0.1182 -0.8389 -0.3191
  790MOL0     C 6555   7.156   3.055   6.840 -0.2102  0.1881  0.3119
  790MOL0     C 6556   7.128   3.029   6.692  0.3358  0.2279  0.4620
  790MOL0     C 6557   7.223   2.926   6.627 -0.0408 -0.2312 -0.1790
  790MOL0     C 6558   7.195   2.932   6.481 -0.5317 -0.5689  0.7144
  790MOL0     C 6559   7.313   2.880   6.403  0.3281  0.2389  0.1881
  790MOL0    Cl 6560   7.275   2.854   6.229 -0.4541 -0.1948  0.4228
  790MOL0     C 6561   6.746   3.028   7.253  0.5576 -0.0237 -0.6665
  790MOL0     C 6562   6.619   3.032   7.316  0.9020 -0.0010 -1.2707
  790MOL0     O 6563   6.381   2.796   7.356  0.0426  0.2699  0.1463
  790MOL0     C 6564   6.199   3.046   7.498 -0.0228  0.4589  1.2281
  790MOL0     C 6565   6.097   3.067   7.594  0.1467 -0.5404 -0.6648
  790MOL0     N 6566   6.460   3.067   7.982  0.9528  0.1997 -0.7994
  790MOL0     N 6567   6.546   3.045   7.893 -0.6193 -0.5475  0.5852
  790MOL0     C 6568   7.707   3.232   7.640 -0.7658  0.6303  0.3195
  790MOL0     C 6569   7.842   3.219   7.600 -0.4278 -0.5017 -0.9107
  790MOL0     C 6570   8.224   2.965   7.471 -0.0791  0.4947 -0.5956
  790MOL0     C 6571   8.327   3.054   7.515  0.3076 -0.1536  0.3787
  790MOL0     C 6572   8.459   3.034   7.470 -0.5931 -0.1966 -0.2559
  790MOL0     C 6573   8.484   2.943   7.371  0.4804  0.2543  0.6197
  790MOL0     O 6574   8.602   2.953   7.310 -0.3538 -0.0087  0.6246
  790MOL0     C 6575   8.605   2.925   7.170 -0.7617 -0.2564  0.3789
  790MOL0     C 6576   8.517   3.037   7.110 -0.0158  1.5610 -0.1602
  790MOL0     C 6577   8.544   3.039   6.955 -0.6850 -0.1666  0.3559
  790MOL0     C 6578   8.650   3.143   6.922 -0.3019  0.3879  0.1279
  790MOL0     C 6579   8.791   3.113   6.958 -0.1285 -0.2360  0.4215
  790MOL0     C 6580   8.909   3.100   6.994  0.2953 -1.2174 -1.0264
  790MOL0     C 6581   8.391   2.844   7.339  0.1984 -0.3880  0.7401
  790MOL0     C 6582   8.259   2.856   7.392  0.5556 -0.0268 -0.0499
  790MOL0     H 6583   7.922   2.944   7.784 -0.3989  0.6252 -0.5722
  790MOL0     H 6584   7.690   2.965   7.852  2.3557 -0.4118  1.1276
  790MOL0     H 6585   7.470   2.963   7.731  2.0371  0.0300  1.2576
  790MOL0     H 6586   7.434   3.026   7.887  2.5955 -4.4897 -0.1808
  790MOL0     H 6587   7.251   3.166   7.806 -0.5878  1.5335 -1.8503
  790MOL0     H 6588   7.272   3.103   7.640  2.5373  0.5864 -0.0123
  790MOL0     H 6589   7.230   2.877   7.733  0.2062  0.0092  0.9725
  790MOL0     H 6590   7.199   2.936   7.896 -1.2117 -2.6980 -0.1789
  790MOL0     H 6591   7.007   3.070   7.826  0.0055  1.1605 -1.8684
  790MOL0     H 6592   7.051   3.032   7.652 -2.3206 -0.6603 -0.8917
  790MOL0     H 6593   6.993   2.803   7.703  1.6598  0.5320 -1.0633
  790MOL0     H 6594   6.945   2.828   7.860 -0.2699 -2.9476 -1.6612
  790MOL0     H 6595   6.781   3.021   7.749 -1.4075 -1.2483  1.6666
  790MOL0     H 6596   6.817   2.941   7.603  1.0865  0.2811 -0.5219
  790MOL0     H 6597   6.719   2.737   7.676  2.2249  0.5625  0.3793
  790MOL0     H 6598   6.711   2.778   7.841 -1.6969  0.8666  0.6253
  790MOL0     H 6599   6.491   2.791   7.680 -0.7476  0.2470 -0.5997
  790MOL0     H 6600   6.552   2.941   7.619 -1.3483  0.1309  0.4944
  790MOL0     H 6601   6.311   2.825   7.816 -0.5160 -1.1039  0.5110
  790MOL0     H 6602   6.217   2.887   8.086  0.4724 -0.2597 -1.5038
  790MOL0     H 6603   6.236   3.059   8.115  1.4135 -1.1051  0.4396
  790MOL0     H 6604   6.098   3.090   7.899  1.8933  0.6910  1.0188
  790MOL0     H 6605   6.011   3.043   8.033  1.6699  0.9897  0.9479
  790MOL0     H 6606   6.036   2.797   7.968  2.9735 -2.3995 -2.0794
  790MOL0     H 6607   6.110   2.841   7.815  0.5497 -3.1438  1.4010
  790MOL0     H 6608   5.824   2.917   7.897  0.1969 -0.7055  0.2886
  790MOL0     H 6609   5.876   2.786   7.790  3.3005 -1.5046 -0.4566
  790MOL0     H 6610   5.932   2.764   7.575  1.3550 -1.3263  1.6841
  790MOL0     H 6611   6.198   2.614   7.469 -1.2210 -1.1933 -0.1017
  790MOL0     H 6612   6.017   2.642   7.423 -0.6579  0.1420  1.1190
  790MOL0     H 6613   6.151   2.675   7.311  1.3714 -0.6037  0.7742
  790MOL0     H 6614   6.442   2.939   7.036  1.9088 -0.8421 -0.9433
  790MOL0     H 6615   6.661   2.889   6.955  1.3237 -0.8114  0.0930
  790MOL0     H 6616   6.992   3.100   7.093  1.3180  0.9945  2.2632
  790MOL0     H 6617   6.989   2.988   7.229 -1.1486  1.2702 -0.5721
  790MOL0     H 6618   7.211   2.995   7.111  1.1642  0.3081 -2.9528
  790MOL0     H 6619   7.153   2.833   7.110 -1.3234 -0.0044  0.1887
  790MOL0     H 6620   7.067   2.860   6.878 -1.3554 -0.4238  1.5668
  790MOL0     H 6621   7.245   2.868   6.889  1.7519  1.1482  1.8784
  790MOL0     H 6622   7.080   3.127   6.871 -0.8377  0.2629 -1.3040
  790MOL0     H 6623   7.256   3.100   6.849  0.6764 -1.6117 -0.1009
  790MOL0     H 6624   7.155   3.126   6.650  0.5169  0.1543  0.4070
  790MOL0     H 6625   7.023   3.014   6.667  0.0662  1.9812  0.4007
  790MOL0     H 6626   7.330   2.939   6.647 -0.5224  4.2800  0.3520
  790MOL0     H 6627   7.194   2.826   6.662 -3.1741 -1.2854 -4.9099
  790MOL0     H 6628   7.183   3.035   6.444  1.7983 -0.3099  0.5019
  790MOL0     H 6629   7.104   2.877   6.457 -1.2136  0.0671  1.7398
  790MOL0     H 6630   7.334   2.786   6.455  2.2700  1.9527  2.7264
  790MOL0     H 6631   7.402   2.942   6.407  0.6512 -0.2470  0.6261
  790MOL0     H 6632   6.822   3.068   7.319 -1.1281 -0.2950  1.5675
  790MOL0     H 6633   6.616   3.065   7.420  3.0752 -0.6613 -0.9488
  790MOL0     H 6634   6.282   3.114   7.480  1.2497 -1.4368 -0.6223
  790MOL0     H 6635   6.098   3.152   7.661  1.3331 -1.0552 -0.0014
  790MOL0     H 6636   7.638   3.303   7.596 -2.3547 -1.0067  0.0145
  790MOL0     H 6637   7.889   3.281   7.524  1.9883 -0.7957  0.2450
  790MOL0     H 6638   8.306   3.136   7.582 -0.2801  1.1172 -1.2964
  790MOL0     H 6639   8.543   3.101   7.489  2.0823 -3.1447 -0.8097
  790MOL0     H 6640   8.710   2.941   7.144 -0.0622  1.4179  3.5938
  790MOL0     H 6641   8.582   2.822   7.142 -1.1493 -0.1164  0.1846
  790MOL0     H 6642   8.549   3.137   7.142 -0.3585  2.2238 -1.7931
  790MOL0     H 6643   8.409   3.029   7.124 -0.6249  3.3768 -2.9176
  790MOL0     H 6644   8.450   3.066   6.904 -0.2981  3.1149  1.1526
  790MOL0     H 6645   8.575   2.940   6.920  3.2293  0.8897  0.3841
  790MOL0     H 6646   8.620   3.243   6.955  0.3768  1.6460 -2.7083
  790MOL0     H 6647   8.651   3.162   6.814  0.7145  0.7185  0.1808
  790MOL0     H 6648   9.008   3.094   7.034  0.0688  0.1906 -0.1769
  790MOL0     H 6649   8.417   2.756   7.281 -0.2750  0.8872 -1.5223
  790MOL0     H 6650   8.189   2.775   7.377 -0.3067  0.4875  0.9913
  791MOL0     O 6651  10.772   3.873  11.009  0.4924  0.1736  0.1381
  791MOL0     C 6652  10.878   3.916  11.039 -0.5945 -1.2449  1.0247
  791MOL0     O 6653  10.921   3.978  11.154  0.0797 -0.0642  0.7002
  791MOL0     C 6654  10.826   4.032  11.238 -0.3455  0.6078  0.3709
  791MOL0     C 6655  10.685   4.034  11.224 -0.0619 -0.1708 -0.8971
  791MOL0     C 6656  10.604   4.102  11.318 -0.3285  1.2896 -0.8576
  791MOL0     C 6657  10.668   4.175  11.425 -0.5575 -0.6700 -0.2038
  791MOL0     O 6658  10.603   4.247  11.519  0.2959 -1.2415 -0.3568
  791MOL0     C 6659  10.487   4.317  11.487 -0.3371  0.0894  0.4298
  791MOL0     C 6660  10.353   4.264  11.550 -0.0757 -0.8832 -0.2861
  791MOL0     C 6661  10.253   4.375  11.508  0.8918 -0.6461  0.1156
  791MOL0     C 6662  10.105   4.341  11.520  0.6501  0.0670 -0.0154
  791MOL0     C 6663  10.087   4.289  11.662  1.2420 -0.2272 -0.7064
  791MOL0     C 6664   9.943   4.325  11.705  0.5493  0.2970 -0.1292
  791MOL0     C 6665   9.835   4.233  11.631  0.4945 -0.6157 -0.1339
  791MOL0     C 6666   9.699   4.225  11.701 -0.5499  0.9367  0.0361
  791MOL0     N 6667   9.636   4.357  11.710 -0.5676  0.1984  0.7428
  791MOL0     C 6668   9.573   4.429  11.610 -0.2163  1.2653  0.1008
  791MOL0     C 6669   9.525   4.541  11.664 -0.1433  0.1158  0.1947
  791MOL0     C 6670   9.450   4.650  11.591 -0.5763 -0.1665  0.3896
  791MOL0     C 6671   9.294   4.631  11.572 -0.5827 -0.8186 -0.4414
  791MOL0     C 6672   9.242   4.739  11.476 -0.5555 -0.1108 -0.0040
  791MOL0     C 6673   9.088   4.748  11.482  0.6896 -0.7348 -0.3725
  791MOL0     O 6674   9.034   4.618  11.451  0.0208  0.0791 -0.2694
  791MOL0     C 6675   8.899   4.592  11.430  0.0045 -0.3006  0.1103
  791MOL0     C 6676   8.877   4.457  11.391  0.4587 -0.7496  0.3861
  791MOL0     C 6677   8.754   4.408  11.356 -0.7926  0.1133  0.6007
  791MOL0     C 6678   8.741   4.261  11.322  0.8299 -0.6130  0.1002
  791MOL0     C 6679   8.643   4.492  11.367  0.2576 -0.3302  0.0558
  791MOL0     C 6680   8.493   4.453  11.362 -0.0406 -0.5406 -0.6589
  791MOL0     O 6681   8.461   4.332  11.323  0.3169  0.4468  0.6265
  791MOL0     C 6682   8.329   4.309  11.277 -0.3496 -0.2716 -0.2192
  791MOL0     C 6683   8.230   4.280  11.370  0.9378 -0.6719 -0.1117
  791MOL0     C 6684   8.100   4.256  11.320 -0.3964 -0.4863  0.1812
  791MOL0     C 6685   8.077   4.260  11.180  0.2172  0.7467  0.2550
  791MOL0     O 6686   7.953   4.248  11.116 -0.3250  0.3651 -0.0895
  791MOL0     C 6687   7.846   4.204  11.190  0.0553  0.0659 -0.2062
  791MOL0     C 6688   7.721   4.195  11.098  0.7858 -0.3318  0.1103
  791MOL0     C 6689   7.664   4.340  11.070 -0.5277  0.7325  0.2996
  791MOL0     C 6690   7.586   4.396  11.197 -0.1401 -0.3341  0.0220
  791MOL0     C 6691   7.498   4.519  11.163  0.0494  0.0274  0.4853
  791MOL0     C 6692   7.396   4.496  11.042  0.4004  0.1577  0.0796
  791MOL0     C 6693   7.271   4.593  11.043  0.2675  1.2856 -0.7320
  791MOL0     C 6694   7.311   4.737  11.035  0.3425  1.0799 -0.1495
  791MOL0    Cl 6695   7.176   4.851  11.055  0.1255 -0.1254  0.1907
  791MOL0     C 6696   8.178   4.277  11.086 -0.0024  0.2662 -0.4407
  791MOL0     C 6697   8.304   4.305  11.135 -0.9139  0.2086 -0.2885
  791MOL0     O 6698   8.409   4.541  11.394 -0.6987  1.0569  0.3946
  791MOL0     C 6699   8.667   4.627  11.406  0.2494 -0.3152 -0.0808
  791MOL0     C 6700   8.790   4.677  11.435  0.4037  0.1861  0.7315
  791MOL0     N 6701   9.561   4.542  11.794  0.5692  0.2752  0.3387
  791MOL0     N 6702   9.619   4.428  11.824  0.2902  0.8743 -0.5640
  791MOL0     C 6703  10.808   4.175  11.437 -0.5948 -0.2443  0.2937
  791MOL0     C 6704  10.883   4.104  11.342  0.7869 -0.3223  0.4951
  791MOL0     C 6705  10.986   3.909  10.937 -0.2426  0.6845 -0.0884
  791MOL0     C 6706  11.103   3.988  10.957 -0.0582 -0.5517  1.6220
  791MOL0     C 6707  11.206   3.975  10.859  0.1421  0.5767  0.1994
  791MOL0     C 6708  11.201   3.887  10.748 -1.0796  0.8897  0.0295
  791MOL0     O 6709  11.312   3.871  10.674  0.3281  0.1298  0.1446
  791MOL0     C 6710  11.339   3.752  10.605  0.4607  0.0513  0.1869
  791MOL0     C 6711  11.489   3.778  10.562 -0.5593  0.2749 -0.1429
  791MOL0     C 6712  11.557   3.645  10.522  0.1233 -0.0771  0.0044
  791MOL0     C 6713  11.702   3.664  10.494  0.3863  0.2986 -0.0268
  791MOL0     C 6714  11.783   3.554  10.533 -0.3942  0.0008 -0.5755
  791MOL0     C 6715  11.844   3.455  10.570  1.1594  0.1501  0.1098
  791MOL0     C 6716  11.086   3.803  10.736  0.3607  0.0416 -0.8381
  791MOL0     C 6717  10.981   3.823  10.829 -0.3217 -0.1892  0.1991
  791MOL0     H 6718  10.636   3.990  11.138 -1.9655 -1.3296  0.6980
  791MOL0     H 6719  10.496   4.110  11.317 -0.5054 -0.4348  0.6241
  791MOL0     H 6720  10.506   4.417  11.527  1.6082 -0.0680  0.0177
  791MOL0     H 6721  10.472   4.337  11.380 -1.2480  1.1669  0.7380
  791MOL0     H 6722  10.323   4.164  11.516  0.4850 -0.8338 -0.9550
  791MOL0     H 6723  10.354   4.261  11.659 -3.0142 -2.7220 -0.2005
  791MOL0     H 6724  10.270   4.460  11.575 -0.7415  0.7726 -1.1892
  791MOL0     H 6725  10.266   4.415  11.407 -1.3203 -1.0964 -0.3864
  791MOL0     H 6726  10.057   4.437  11.498 -1.6308 -0.7506  1.0373
  791MOL0     H 6727  10.078   4.266  11.445  0.9917  0.9021 -0.9883
  791MOL0     H 6728  10.101   4.181  11.673 -1.2312 -0.7435 -1.8575
  791MOL0     H 6729  10.151   4.346  11.730  2.9583 -1.6561 -1.0456
  791MOL0     H 6730   9.944   4.310  11.813  1.9332  0.4839 -0.0949
  791MOL0     H 6731   9.924   4.432  11.693  2.0395  1.0010  2.7810
  791MOL0     H 6732   9.809   4.275  11.533 -0.9093  1.3782  1.0158
  791MOL0     H 6733   9.870   4.130  11.619 -1.0323 -0.9042 -3.4244
  791MOL0     H 6734   9.709   4.178  11.799 -3.1495  1.0780  0.4374
  791MOL0     H 6735   9.627   4.156  11.655 -0.2595  0.9185 -0.3981
  791MOL0     H 6736   9.575   4.405  11.504  0.8029  2.2643 -0.1149
  791MOL0     H 6737   9.469   4.736  11.656 -3.1997  1.1233 -0.3917
  791MOL0     H 6738   9.495   4.665  11.492 -2.1224 -2.2126 -0.7032
  791MOL0     H 6739   9.248   4.635  11.671 -1.4045 -1.2130 -0.7987
  791MOL0     H 6740   9.264   4.530  11.542 -2.3085 -0.8109  1.1153
  791MOL0     H 6741   9.271   4.705  11.376 -3.2970  1.0079 -1.2762
  791MOL0     H 6742   9.296   4.831  11.502  1.1434 -1.5560  1.9829
  791MOL0     H 6743   9.045   4.815  11.407 -0.7811 -0.9261  0.2694
  791MOL0     H 6744   9.059   4.779  11.583  2.1409 -5.3095  1.7307
  791MOL0     H 6745   8.969   4.400  11.380  0.8535 -0.0125 -0.3302
  791MOL0     H 6746   8.657   4.219  11.378  0.6854  1.6231  1.7134
  791MOL0     H 6747   8.707   4.235  11.222 -1.1599  0.0191  0.5605
  791MOL0     H 6748   8.824   4.199  11.357  0.7138 -0.2649  1.0314
  791MOL0     H 6749   8.242   4.291  11.477 -1.8325  0.0156  0.2108
  791MOL0     H 6750   8.015   4.240  11.387  1.4777 -1.0603  2.5683
  791MOL0     H 6751   7.876   4.101  11.213 -2.3791 -0.9366 -1.1412
  791MOL0     H 6752   7.832   4.270  11.275  2.2999 -0.0982  0.3568
  791MOL0     H 6753   7.740   4.132  11.011 -0.1092 -0.5589  0.0676
  791MOL0     H 6754   7.641   4.143  11.152  1.7458 -1.3678  0.5822
  791MOL0     H 6755   7.594   4.337  10.986 -0.5113 -0.5358  0.3056
  791MOL0     H 6756   7.745   4.410  11.049 -1.1325  1.6702  1.0248
  791MOL0     H 6757   7.519   4.317  11.232 -1.0107  0.4875  0.2400
  791MOL0     H 6758   7.662   4.415  11.273 -1.0285 -3.2563  1.8262
  791MOL0     H 6759   7.570   4.591  11.124 -0.4629 -0.4738 -1.5155
  791MOL0     H 6760   7.446   4.557  11.251  1.1632  0.8055  0.8358
  791MOL0     H 6761   7.434   4.497  10.939 -2.3533 -0.2458 -1.0251
  791MOL0     H 6762   7.359   4.395  11.059  0.2124  0.1382 -0.4158
  791MOL0     H 6763   7.219   4.575  11.138  2.3624 -0.3930  0.1808
  791MOL0     H 6764   7.196   4.573  10.966  0.3971 -0.9488 -0.3631
  791MOL0     H 6765   7.352   4.751  10.935  1.1071  2.7813  0.3750
  791MOL0     H 6766   7.393   4.776  11.095 -0.3537  0.5156  1.2287
  791MOL0     H 6767   8.159   4.256  10.981  0.8880 -3.4161 -0.0068
  791MOL0     H 6768   8.396   4.318  11.078  0.7574 -0.9058  2.0025
  791MOL0     H 6769   8.588   4.701  11.421  2.1691  1.9834 -0.7211
  791MOL0     H 6770   8.802   4.775  11.480 -1.9455  0.2775  1.3079
  791MOL0     H 6771  10.852   4.223  11.524 -2.2739 -2.3376  2.4303
  791MOL0     H 6772  10.991   4.101  11.349  0.9792  2.8961  0.3648
  791MOL0     H 6773  11.128   4.064  11.031  1.1856  1.1370 -0.4200
  791MOL0     H 6774  11.295   4.034  10.877 -0.1562  0.9123  0.6136
  791MOL0     H 6775  11.337   3.670  10.677 -0.2982 -1.2996 -1.3100
  791MOL0     H 6776  11.267   3.737  10.524  0.7128 -1.3590  0.1921
  791MOL0     H 6777  11.549   3.805  10.649 -0.7781 -4.5830  1.8810
  791MOL0     H 6778  11.500   3.842  10.474 -0.8412 -1.1223 -1.2390
  791MOL0     H 6779  11.493   3.598  10.447 -3.6418  2.7788  1.1144
  791MOL0     H 6780  11.551   3.585  10.613  1.4909  0.5414  0.5404
  791MOL0     H 6781  11.732   3.754  10.549 -4.4302 -0.3175  4.4515
  791MOL0     H 6782  11.714   3.682  10.387 -2.0773 -1.2727 -0.6582
  791MOL0     H 6783  11.905   3.377  10.612 -0.7537 -0.5447  1.7876
  791MOL0     H 6784  11.077   3.722  10.665  1.6845 -0.8519 -0.0425
  791MOL0     H 6785  10.893   3.760  10.816 -0.9052 -0.2530  3.4879
  792MOL0     O 6786   9.333   9.247   7.759 -0.7923 -0.3264  0.3044
  792MOL0     C 6787   9.397   9.353   7.763 -0.4176 -0.2753 -0.4734
  792MOL0     O 6788   9.347   9.475   7.778  0.2318  0.8786 -0.1146
  792MOL0     C 6789   9.204   9.488   7.797 -0.3380 -0.6118  0.7783
  792MOL0     C 6790   9.122   9.404   7.869 -0.1417  0.4200 -0.2968
  792MOL0     C 6791   8.982   9.417   7.854 -0.8039  0.2779  0.2858
  792MOL0     C 6792   8.918   9.516   7.773  0.6495 -0.2893 -0.2919
  792MOL0     O 6793   8.781   9.531   7.751  0.0760 -0.0638 -0.1956
  792MOL0     C 6794   8.736   9.662   7.793  0.7968 -0.3077  0.0252
  792MOL0     C 6795   8.686   9.635   7.931 -0.1893 -0.4665  0.2026
  792MOL0     C 6796   8.626   9.762   7.995 -0.8677 -0.3187  0.4586
  792MOL0     C 6797   8.483   9.783   7.948  0.7734  0.9278  0.1796
  792MOL0     C 6798   8.403   9.893   8.030 -0.3402 -0.2666  0.1363
  792MOL0     C 6799   8.467  10.035   8.023 -0.1011  0.2379 -0.3473
  792MOL0     C 6800   8.399  10.147   8.112  0.0250  0.4482  0.6734
  792MOL0     C 6801   8.469  10.274   8.097 -0.3033  0.4329  0.8814
  792MOL0     N 6802   8.434  10.355   7.978  0.4644 -0.0302 -0.2637
  792MOL0     C 6803   8.472  10.331   7.847  0.1616 -0.4435 -0.0510
  792MOL0     C 6804   8.406  10.419   7.770 -0.0719  0.4598 -1.0392
  792MOL0     C 6805   8.387  10.409   7.624  0.2422 -0.0502  0.6593
  792MOL0     C 6806   8.261  10.337   7.587  0.6590 -1.2491 -0.6572
  792MOL0     C 6807   8.264  10.294   7.441 -0.0634 -0.8568  0.2184
  792MOL0     C 6808   8.162  10.199   7.385  0.7185  0.1856  0.2387
  792MOL0     O 6809   8.034  10.261   7.401  0.1020  0.7580 -0.1290
  792MOL0     C 6810   7.925  10.182   7.377  1.2363 -0.7766  0.6505
  792MOL0     C 6811   7.802  10.259   7.379  0.1645  0.4073 -0.4438
  792MOL0     C 6812   7.675  10.193   7.365  0.3759 -0.4001  0.0042
  792MOL0     C 6813   7.561  10.300   7.388 -0.1868  0.7404 -0.7597
  792MOL0     C 6814   7.666  10.053   7.341  0.4697 -0.4321 -0.2873
  792MOL0     C 6815   7.539   9.987   7.347 -0.8486  0.5255  0.0726
  792MOL0     O 6816   7.548   9.852   7.350 -0.1065  0.0436  0.2365
  792MOL0     C 6817   7.458   9.784   7.425 -0.4866 -0.1221 -1.2125
  792MOL0     C 6818   7.364   9.689   7.361  1.0645 -1.0453  0.3722
  792MOL0     C 6819   7.280   9.611   7.437 -0.0822  0.0191  0.4078
  792MOL0     C 6820   7.270   9.638   7.573  0.5049  0.0806 -0.7788
  792MOL0     O 6821   7.173   9.575   7.651  0.6068 -0.1378 -0.0836
  792MOL0     C 6822   7.074   9.677   7.690  0.3585 -0.4725 -0.1164
  792MOL0     C 6823   7.051   9.664   7.838  0.1283  0.1268 -0.2554
  792MOL0     C 6824   7.010   9.522   7.874  0.7194 -0.4270 -1.0156
  792MOL0     C 6825   6.968   9.513   8.022 -0.4545 -0.0155 -0.2607
  792MOL0     C 6826   6.935   9.360   8.062  0.3194 -0.6948 -0.8601
  792MOL0     C 6827   6.778   9.346   8.067  0.3656 -0.6540  1.2027
  792MOL0     C 6828   6.731   9.198   8.071 -0.3104 -0.1077 -0.1913
  792MOL0     C 6829   6.583   9.172   8.107 -0.3054  0.2788 -0.4212
  792MOL0    Cl 6830   6.484   9.208   7.968 -0.1522 -0.2913 -0.3761
  792MOL0     C 6831   7.352   9.744   7.635 -0.9392  0.3071 -0.7070
  792MOL0     C 6832   7.445   9.810   7.563  0.0400 -0.2995 -0.2292
  792MOL0     O 6833   7.437  10.053   7.358 -0.5161 -1.2720  0.6752
  792MOL0     C 6834   7.793   9.984   7.333  0.1937 -1.0462  0.5312
  792MOL0     C 6835   7.914  10.053   7.350 -0.0096  0.5343  0.7189
  792MOL0     N 6836   8.338  10.506   7.859  0.5426 -0.6859 -0.2962
  792MOL0     N 6837   8.352  10.460   7.978  0.5644 -0.3839 -0.4548
  792MOL0     C 6838   9.008   9.602   7.707 -0.0071 -0.8082 -0.0017
  792MOL0     C 6839   9.143   9.593   7.730 -0.1417  0.3984 -0.1836
  792MOL0     C 6840   9.545   9.340   7.745 -0.1159  0.9310 -1.1516
  792MOL0     C 6841   9.637   9.430   7.809  0.9204 -0.2981 -0.1209
  792MOL0     C 6842   9.768   9.410   7.804 -0.5358 -0.4447 -0.3935
  792MOL0     C 6843   9.825   9.315   7.733  0.1507  1.3279  1.5969
  792MOL0     O 6844   9.963   9.308   7.719 -0.0256 -0.6728  0.6849
  792MOL0     C 6845  10.006   9.187   7.654 -0.7477  0.3869 -0.6228
  792MOL0     C 6846  10.159   9.178   7.642  0.1884  0.0106 -0.4707
  792MOL0     C 6847  10.221   9.180   7.783 -0.5023  0.0946 -0.2885
  792MOL0     C 6848  10.369   9.223   7.801 -1.2744  0.4694  0.1853
  792MOL0     C 6849  10.466   9.122   7.767  0.8353 -0.5836  0.3922
  792MOL0     C 6850  10.543   9.045   7.727 -0.2535  0.3547  0.7002
  792MOL0     C 6851   9.733   9.216   7.680 -0.1743  0.5161 -0.1032
  792MOL0     C 6852   9.598   9.224   7.691  0.6071  0.5612 -0.6862
  792MOL0     H 6853   9.171   9.326   7.927 -0.6535 -0.2801 -0.7916
  792MOL0     H 6854   8.913   9.364   7.920 -0.5459 -1.0548 -0.4672
  792MOL0     H 6855   8.812   9.741   7.788 -0.0391  0.4351 -1.5567
  792MOL0     H 6856   8.655   9.687   7.724 -1.0174 -0.0035  2.1692
  792MOL0     H 6857   8.616   9.551   7.924 -0.7670  0.0415 -0.2812
  792MOL0     H 6858   8.773   9.600   7.987  2.3569  0.8064 -2.6910
  792MOL0     H 6859   8.626   9.768   8.104 -2.4972  2.0217  0.4195
  792MOL0     H 6860   8.677   9.856   7.970 -1.2664  0.9462  3.9197
  792MOL0     H 6861   8.484   9.813   7.843 -0.0465  0.5683  0.0599
  792MOL0     H 6862   8.417   9.696   7.958  1.1101  0.7210  0.6187
  792MOL0     H 6863   8.296   9.898   8.005 -0.8955 -1.6484  1.9799
  792MOL0     H 6864   8.402   9.866   8.136  0.7217  1.1723  0.5290
  792MOL0     H 6865   8.567  10.025   8.066 -0.2350  0.4232  0.0149
  792MOL0     H 6866   8.469  10.076   7.922 -0.2913  0.6439 -0.1904
  792MOL0     H 6867   8.299  10.166   8.070 -0.2535  0.4044  1.3125
  792MOL0     H 6868   8.398  10.112   8.215  0.6848  5.9347  2.8545
  792MOL0     H 6869   8.575  10.249   8.082 -0.3396  1.2646 -0.9812
  792MOL0     H 6870   8.467  10.326   8.193 -0.4673  2.7611 -0.3020
  792MOL0     H 6871   8.539  10.252   7.814  0.9288  0.3275 -0.3973
  792MOL0     H 6872   8.392  10.507   7.575 -4.3683  0.4579  0.7121
  792MOL0     H 6873   8.470  10.357   7.576 -0.5347  0.6247 -1.5570
  792MOL0     H 6874   8.176  10.405   7.598  0.5073 -1.2597 -1.6962
  792MOL0     H 6875   8.233  10.253   7.652  0.7055  0.2645  1.4225
  792MOL0     H 6876   8.361  10.266   7.401 -0.0207 -1.2013  0.5540
  792MOL0     H 6877   8.242  10.391   7.395 -1.3140 -1.2467 -0.0618
  792MOL0     H 6878   8.177  10.105   7.438 -1.8895 -1.0196 -0.9965
  792MOL0     H 6879   8.188  10.182   7.280  2.0859 -1.0013  0.7507
  792MOL0     H 6880   7.813  10.354   7.431  0.6389  0.9272 -1.4596
  792MOL0     H 6881   7.599  10.402   7.400  0.7528  0.4794 -1.3887
  792MOL0     H 6882   7.493  10.296   7.302  0.3982 -0.6165 -1.1957
  792MOL0     H 6883   7.512  10.259   7.476 -0.4017 -1.6508 -1.9201
  792MOL0     H 6884   7.373   9.666   7.256 -0.6905  2.4965 -0.7097
  792MOL0     H 6885   7.227   9.541   7.373 -0.7725  2.2859 -1.6242
  792MOL0     H 6886   7.109   9.780   7.673  0.2116 -0.3803  0.1466
  792MOL0     H 6887   6.983   9.673   7.630  0.3848  2.6757 -0.5539
  792MOL0     H 6888   7.143   9.686   7.891  0.6605 -2.6550  0.1274
  792MOL0     H 6889   6.971   9.733   7.867 -0.7283 -1.3873  1.1182
  792MOL0     H 6890   7.089   9.453   7.844  0.3684 -0.7171 -1.2754
  792MOL0     H 6891   6.926   9.485   7.814  1.0500  0.7805 -2.2849
  792MOL0     H 6892   7.048   9.556   8.082 -0.2668 -0.2473 -0.3451
  792MOL0     H 6893   6.877   9.569   8.045  0.2254  0.9311  0.1808
  792MOL0     H 6894   6.963   9.339   8.165  1.0601  1.3852 -0.5986
  792MOL0     H 6895   6.982   9.287   7.996  2.7440 -0.1761  0.1736
  792MOL0     H 6896   6.741   9.388   8.161  0.2939 -0.0927  0.9294
  792MOL0     H 6897   6.737   9.400   7.981 -2.7265  0.3157  3.1275
  792MOL0     H 6898   6.791   9.145   8.145 -0.6280  0.7968  0.7290
  792MOL0     H 6899   6.747   9.152   7.973 -1.2735  1.4728 -1.1334
  792MOL0     H 6900   6.554   9.239   8.188 -0.9997  0.9041 -1.1546
  792MOL0     H 6901   6.578   9.069   8.143 -1.4022  0.5796  0.3368
  792MOL0     H 6902   7.322   9.769   7.737  1.9623  0.7408  0.1213
  792MOL0     H 6903   7.515   9.875   7.613 -0.1839 -0.9113  0.9076
  792MOL0     H 6904   7.787   9.877   7.321 -2.9648 -0.7083 -3.0603
  792MOL0     H 6905   7.995   9.981   7.355 -0.7169 -0.1517  3.0525
  792MOL0     H 6906   8.981   9.690   7.650  0.1370 -0.1792  0.8727
  792MOL0     H 6907   9.208   9.662   7.677 -1.5137 -0.2392 -2.8568
  792MOL0     H 6908   9.611   9.514   7.872 -2.8908 -1.9167  0.7620
  792MOL0     H 6909   9.835   9.469   7.865 -0.8500 -2.2437  1.7941
  792MOL0     H 6910   9.973   9.112   7.726 -1.9252  1.6780  0.2545
  792MOL0     H 6911   9.960   9.165   7.558 -2.4314 -1.5569  0.5482
  792MOL0     H 6912  10.194   9.273   7.601 -0.5973  0.3435 -0.3790
  792MOL0     H 6913  10.190   9.088   7.587 -1.5440  0.1368 -1.7747
  792MOL0     H 6914  10.206   9.087   7.840 -0.2401 -0.5393 -1.2296
  792MOL0     H 6915  10.171   9.257   7.843 -0.6937 -1.0556  1.0959
  792MOL0     H 6916  10.384   9.263   7.901 -2.0294  7.2288 -1.8777
  792MOL0     H 6917  10.393   9.301   7.728 -1.6826 -1.3789 -2.0450
  792MOL0     H 6918  10.619   8.979   7.688  1.6973  3.0437 -0.3762
  792MOL0     H 6919   9.764   9.123   7.633 -0.3282  1.1682 -1.5602
  792MOL0     H 6920   9.533   9.143   7.660  0.4061  0.3912  0.1521
  793MOL0     O 6921   2.849   6.099   2.526 -0.2730  0.7907 -0.4303
  793MOL0     C 6922   2.946   6.158   2.481  1.0153 -0.4462 -0.0814
  793MOL0     O 6923   2.939   6.231   2.364 -0.9676  0.0227 -0.2972
  793MOL0     C 6924   2.819   6.229   2.304  0.5536 -0.0634  0.1568
  793MOL0     C 6925   2.804   6.163   2.180  0.6865  0.5118  0.0196
  793MOL0     C 6926   2.683   6.163   2.116 -0.6741  0.4045 -0.1683
  793MOL0     C 6927   2.574   6.250   2.161 -0.5190  0.0975 -0.1378
  793MOL0     O 6928   2.445   6.254   2.111  0.5517  0.4145 -0.2548
  793MOL0     C 6929   2.411   6.153   2.018  0.6602 -1.1160 -0.6837
  793MOL0     C 6930   2.298   6.200   1.931  0.0664 -0.2916 -0.0377
  793MOL0     C 6931   2.150   6.211   1.989 -0.5889 -0.6845  0.7190
  793MOL0     C 6932   2.061   6.255   1.870 -0.1096 -0.2180 -0.0079
  793MOL0     C 6933   1.915   6.275   1.921 -0.4886 -0.2434  0.6803
  793MOL0     C 6934   1.818   6.329   1.815 -1.5256  0.2177 -0.0828
  793MOL0     C 6935   1.702   6.384   1.894 -0.3421  0.3439 -0.4648
  793MOL0     C 6936   1.579   6.398   1.807  0.9817  0.8445  0.0373
  793MOL0     N 6937   1.451   6.395   1.876 -1.2610  0.1278 -0.0067
  793MOL0     C 6938   1.396   6.490   1.964  0.2625  0.2306  0.0107
  793MOL0     C 6939   1.271   6.445   1.990 -1.3762 -0.1141 -0.0277
  793MOL0     C 6940   1.156   6.501   2.068 -0.5382  0.2535  0.1038
  793MOL0     C 6941   1.165   6.443   2.209 -0.2535  0.3719 -0.3415
  793MOL0     C 6942   1.134   6.289   2.210 -0.5066  0.1811  0.4919
  793MOL0     C 6943   1.156   6.235   2.349  0.4832  0.7151  0.9003
  793MOL0     O 6944   1.169   6.095   2.347 -0.4275 -0.9174 -0.5784
  793MOL0     C 6945   1.058   6.040   2.408 -0.3222 -0.3498 -0.6783
  793MOL0     C 6946   1.063   6.034   2.553 -0.4599  0.1566  0.6172
  793MOL0     C 6947   0.964   5.993   2.624 -1.0455  0.4454 -0.7543
  793MOL0     C 6948   1.000   5.992   2.771  0.5880  0.3145 -1.5094
  793MOL0     C 6949   0.846   5.940   2.570  0.1447 -0.2468  0.4104
  793MOL0     C 6950   0.736   5.877   2.652  0.1670  0.6283  0.6746
  793MOL0     O 6951   0.741   5.880   2.786 -0.1308 -0.3103  0.3108
  793MOL0     C 6952   0.632   5.868   2.867  0.3125  0.0862 -0.3187
  793MOL0     C 6953   0.641   5.952   2.982  0.3877  0.4419  0.9768
  793MOL0     C 6954   0.526   5.965   3.055  0.5360 -0.2542 -0.4284
  793MOL0     C 6955   0.409   5.892   3.026 -0.5495 -0.1084 -0.1748
  793MOL0     O 6956   0.302   5.918   3.100  0.0512  0.0912  0.5074
  793MOL0     C 6957   0.190   5.962   3.045  0.5333  0.1955 -0.3125
  793MOL0     C 6958   0.090   5.841   3.067  0.4407  0.8166 -0.1225
  793MOL0     C 6959  -0.046   5.886   3.026 -0.2379 -0.7094 -0.1430
  793MOL0     C 6960  -0.133   5.760   2.993 -0.0176 -0.6689  0.1683
  793MOL0     C 6961  -0.273   5.791   2.948 -0.7560 -0.3386  0.2396
  793MOL0     C 6962  -0.280   5.889   2.836 -0.5986 -0.0430 -0.2663
  793MOL0     C 6963  -0.412   5.894   2.755  0.0497  0.1065  0.1810
  793MOL0     C 6964  -0.425   6.022   2.676  0.0544 -0.2807  0.4717
  793MOL0    Cl 6965  -0.495   6.154   2.767 -0.0382 -0.3375  0.0907
  793MOL0     C 6966   0.407   5.808   2.916 -0.8436  0.0726  0.1455
  793MOL0     C 6967   0.523   5.793   2.834 -0.4004 -0.3944 -0.0536
  793MOL0     O 6968   0.646   5.828   2.582  0.0685 -0.1819 -0.2286
  793MOL0     C 6969   0.847   5.937   2.428  0.8523 -0.0416 -0.1914
  793MOL0     C 6970   0.945   5.989   2.350 -0.2809  0.4824  0.8221
  793MOL0     N 6971   1.249   6.340   1.906  0.3524 -0.5889 -0.0861
  793MOL0     N 6972   1.356   6.309   1.843 -0.6751  0.3861  0.4159
  793MOL0     C 6973   2.590   6.310   2.284  0.6718  0.0907 -1.1499
  793MOL0     C 6974   2.708   6.295   2.355  0.4465 -0.8853  0.5781
  793MOL0     C 6975   3.068   6.155   2.553  0.6498  0.2098  0.1181
  793MOL0     C 6976   3.187   6.204   2.490 -0.3715 -0.1598 -0.0649
  793MOL0     C 6977   3.312   6.200   2.558 -1.0231  0.3979  0.2743
  793MOL0     C 6978   3.320   6.144   2.694  0.7364 -0.5612  0.3007
  793MOL0     O 6979   3.431   6.109   2.764  0.2423  0.7001 -0.3394
  793MOL0     C 6980   3.563   6.105   2.707  0.0998  0.0830 -0.8811
  793MOL0     C 6981   3.640   6.004   2.793 -0.9432 -0.2297 -0.0727
  793MOL0     C 6982   3.786   5.995   2.764  0.2310  0.8136 -0.4932
  793MOL0     C 6983   3.843   5.862   2.796 -0.2672 -0.6224 -0.4071
  793MOL0     C 6984   3.817   5.798   2.928 -0.1605 -0.3620  0.0051
  793MOL0     C 6985   3.810   5.748   3.038  0.2610 -0.1483  0.6278
  793MOL0     C 6986   3.206   6.098   2.753  0.3514  0.6387  0.6846
  793MOL0     C 6987   3.088   6.103   2.679 -0.7229  0.2014  0.1806
  793MOL0     H 6988   2.887   6.113   2.131  1.3627  1.5160  0.1084
  793MOL0     H 6989   2.668   6.104   2.027 -0.5149 -1.5588  1.0441
  793MOL0     H 6990   2.484   6.120   1.944  0.3459  1.0962 -2.0989
  793MOL0     H 6991   2.367   6.074   2.079 -0.2271 -0.9307 -1.0626
  793MOL0     H 6992   2.324   6.298   1.893  0.7861  0.5548  2.4164
  793MOL0     H 6993   2.297   6.120   1.856  0.7007  0.2612 -0.6458
  793MOL0     H 6994   2.105   6.125   2.038  0.1084 -0.5755  1.5733
  793MOL0     H 6995   2.157   6.291   2.063 -2.2782  0.2265 -0.0373
  793MOL0     H 6996   2.103   6.338   1.813  0.7606  0.2210  1.2213
  793MOL0     H 6997   2.066   6.168   1.804 -2.3676 -1.5041  1.3457
  793MOL0     H 6998   1.884   6.176   1.953  0.1932 -0.4994  0.5745
  793MOL0     H 6999   1.913   6.348   2.003 -0.9489  1.4113 -0.7468
  793MOL0     H 7000   1.860   6.411   1.756 -1.6088 -0.4342 -1.0914
  793MOL0     H 7001   1.787   6.253   1.742  1.4387 -0.0105 -1.2267
  793MOL0     H 7002   1.688   6.309   1.972  1.7642  0.7403  0.3342
  793MOL0     H 7003   1.729   6.475   1.948  1.1562 -1.5741  2.2632
  793MOL0     H 7004   1.580   6.312   1.740 -0.2524 -1.0950  2.3850
  793MOL0     H 7005   1.595   6.489   1.747  3.5007  1.3281  1.2746
  793MOL0     H 7006   1.443   6.581   1.998 -0.4376  1.0194 -1.0514
  793MOL0     H 7007   1.169   6.607   2.093 -1.7233  0.2649  0.7587
  793MOL0     H 7008   1.059   6.485   2.021 -1.6330 -0.8126  2.5525
  793MOL0     H 7009   1.108   6.498   2.284 -1.6975  0.1457 -1.2227
  793MOL0     H 7010   1.269   6.448   2.243 -0.1617 -0.1202 -0.5368
  793MOL0     H 7011   1.208   6.239   2.147  0.1939  3.5226 -1.5870
  793MOL0     H 7012   1.032   6.271   2.175 -0.0722 -1.8649  0.1111
  793MOL0     H 7013   1.085   6.278   2.420 -0.3772  0.3099  0.2997
  793MOL0     H 7014   1.252   6.269   2.388  2.2202 -1.3876 -1.2199
  793MOL0     H 7015   1.158   6.056   2.601 -0.3778 -0.6946  0.8618
  793MOL0     H 7016   1.101   6.027   2.796 -0.4112  1.3174  1.5589
  793MOL0     H 7017   0.934   6.066   2.817  1.8584  0.3120  0.4530
  793MOL0     H 7018   0.995   5.886   2.800  0.6380  0.8361  0.5559
  793MOL0     H 7019   0.727   6.015   3.005 -0.5362  1.2825  2.3027
  793MOL0     H 7020   0.525   6.024   3.147  1.1331 -0.3736 -0.3389
  793MOL0     H 7021   0.159   6.042   3.113 -4.0509  0.5485 -2.4824
  793MOL0     H 7022   0.195   6.002   2.943 -1.4574  0.3738 -0.3784
  793MOL0     H 7023   0.129   5.762   3.002 -0.3005  1.4944 -1.4181
  793MOL0     H 7024   0.078   5.810   3.172  0.5310  2.1615  0.3086
  793MOL0     H 7025  -0.019   5.947   2.940  3.3904 -2.9005 -0.7875
  793MOL0     H 7026  -0.091   5.951   3.101 -1.4463 -1.1095 -0.4920
  793MOL0     H 7027  -0.080   5.714   2.909 -0.5171  3.5561 -2.7481
  793MOL0     H 7028  -0.143   5.691   3.078 -1.3313 -0.9281 -0.1881
  793MOL0     H 7029  -0.329   5.824   3.036  2.6559 -3.6398  4.0885
  793MOL0     H 7030  -0.308   5.692   2.916  3.7276 -1.4461 -2.0840
  793MOL0     H 7031  -0.270   5.978   2.899 -0.3017  0.5746 -1.1585
  793MOL0     H 7032  -0.191   5.881   2.773 -0.3240 -1.0056  0.2248
  793MOL0     H 7033  -0.504   5.881   2.812 -1.0979  1.2722 -1.3135
  793MOL0     H 7034  -0.414   5.807   2.689 -0.4795 -0.4167  0.8684
  793MOL0     H 7035  -0.488   6.010   2.587 -1.3095  0.8707  1.2362
  793MOL0     H 7036  -0.325   6.046   2.638  0.1715  1.4034  1.7686
  793MOL0     H 7037   0.333   5.730   2.904 -1.2621  0.4717  0.0891
  793MOL0     H 7038   0.520   5.725   2.750 -1.9104 -0.4066 -0.0251
  793MOL0     H 7039   0.766   5.881   2.383  0.8808 -0.3968  0.1921
  793MOL0     H 7040   0.945   5.992   2.241  3.6484  3.0387  0.6874
  793MOL0     H 7041   2.507   6.367   2.325  2.3704 -0.0406  2.9138
  793MOL0     H 7042   2.725   6.335   2.455  1.6584  1.5895 -0.5153
  793MOL0     H 7043   3.179   6.243   2.389 -2.6535 -0.9887 -0.2555
  793MOL0     H 7044   3.400   6.218   2.496 -0.0127 -0.5486  1.3631
  793MOL0     H 7045   3.567   6.065   2.605 -2.5246 -2.9288  0.0354
  793MOL0     H 7046   3.613   6.201   2.718  0.6037 -0.3831  1.2787
  793MOL0     H 7047   3.602   5.902   2.789 -0.2068 -0.4832 -2.9706
  793MOL0     H 7048   3.630   6.025   2.899  0.6842 -1.6838  0.4100
  793MOL0     H 7049   3.843   6.064   2.828 -2.0092 -0.1496  2.7777
  793MOL0     H 7050   3.809   6.012   2.658  0.9849  1.3243 -0.2574
  793MOL0     H 7051   3.952   5.869   2.794 -0.2079  0.0069  1.8965
  793MOL0     H 7052   3.799   5.801   2.716  2.5949  1.8148 -4.2060
  793MOL0     H 7053   3.789   5.707   3.134 -1.5359  0.9443  0.7355
  793MOL0     H 7054   3.210   6.053   2.852 -0.8600 -1.4959 -0.1869
  793MOL0     H 7055   3.005   6.055   2.730 -1.8196  2.2953  0.4561
  794MOL0     O 7056   7.387   9.514   5.168 -0.4517  0.3261 -1.0674
  794MOL0     C 7057   7.459   9.541   5.072  0.0564 -0.3787 -0.3579
  794MOL0     O 7058   7.407   9.573   4.951 -0.2022  0.5504  0.2989
  794MOL0     C 7059   7.281   9.628   4.945 -0.6488 -0.4517 -0.4256
  794MOL0     C 7060   7.169   9.550   4.905  0.3407 -0.2957 -0.0338
  794MOL0     C 7061   7.035   9.610   4.898  0.7497  0.4707  0.7296
  794MOL0     C 7062   7.020   9.746   4.925 -0.3173 -0.3888  0.2587
  794MOL0     O 7063   6.904   9.817   4.898 -0.3249  0.2234 -0.6829
  794MOL0     C 7064   6.826   9.770   4.783  0.3760  0.0007 -0.1037
  794MOL0     C 7065   6.697   9.843   4.769 -1.0633 -0.1884 -0.0485
  794MOL0     C 7066   6.609   9.848   4.901 -0.0951  0.5804 -0.0571
  794MOL0     C 7067   6.470   9.904   4.859 -0.5141  0.3278  0.0617
  794MOL0     C 7068   6.381   9.927   4.984 -0.3814  0.2192  0.1487
  794MOL0     C 7069   6.241   9.977   4.947  0.3439 -0.2542 -0.0396
  794MOL0     C 7070   6.152  10.014   5.070  0.1540  0.0167 -0.5579
  794MOL0     C 7071   6.214  10.107   5.163  0.2915 -0.0911 -0.4217
  794MOL0     N 7072   6.126  10.175   5.253  0.0970  1.0711 -0.2924
  794MOL0     C 7073   6.147  10.181   5.386  0.7337 -0.1841 -0.6066
  794MOL0     C 7074   6.055  10.279   5.439 -0.3390  0.3949  0.0565
  794MOL0     C 7075   6.035  10.312   5.582 -1.8435  0.3330 -0.2095
  794MOL0     C 7076   5.974  10.186   5.653  0.4421 -0.1359  0.3940
  794MOL0     C 7077   5.952  10.195   5.800  0.1681  0.2919  0.2174
  794MOL0     C 7078   5.921  10.056   5.853  1.0797  0.5108  0.6682
  794MOL0     O 7079   5.849  10.054   5.975 -0.2045 -0.0863  0.5961
  794MOL0     C 7080   5.717  10.048   5.986  0.4145  0.6372 -0.7881
  794MOL0     C 7081   5.669   9.983   6.105 -0.0944  0.2356  0.1051
  794MOL0     C 7082   5.536   9.957   6.126  0.3299 -0.3280 -0.1148
  794MOL0     C 7083   5.507   9.908   6.259  0.1526  0.6899 -0.1389
  794MOL0     C 7084   5.441   9.994   6.021  0.3599  0.7164 -0.1654
  794MOL0     C 7085   5.295   9.957   6.025 -0.4013 -0.2231 -0.3226
  794MOL0     O 7086   5.259   9.859   6.104  0.1402  0.1810  0.7878
  794MOL0     C 7087   5.131   9.824   6.099  0.3777 -0.3838 -0.4773
  794MOL0     C 7088   5.050   9.863   6.200  0.5019  0.1427 -0.2484
  794MOL0     C 7089   4.919   9.826   6.199  0.3489 -0.3294 -0.5231
  794MOL0     C 7090   4.864   9.757   6.099  1.1648  0.0549  0.4715
  794MOL0     O 7091   4.729   9.740   6.114  0.2332  0.0841 -0.4176
  794MOL0     C 7092   4.667   9.620   6.052 -0.0877 -0.3909  0.0112
  794MOL0     C 7093   4.605   9.653   5.919  0.6258 -0.4044  0.0801
  794MOL0     C 7094   4.525   9.783   5.929  0.4420  0.1244  0.3976
  794MOL0     C 7095   4.440   9.802   5.808  0.0813 -0.5408  0.5176
  794MOL0     C 7096   4.389   9.944   5.805 -1.2226  0.2243  0.0436
  794MOL0     C 7097   4.298   9.999   5.690 -0.2166  0.1196  0.7586
  794MOL0     C 7098   4.343   9.947   5.550  0.2918  0.1947 -0.0724
  794MOL0     C 7099   4.264  10.010   5.429 -0.4990 -0.1144  0.1052
  794MOL0    Cl 7100   4.088   9.995   5.430  0.2386  0.5224  0.5481
  794MOL0     C 7101   4.945   9.724   5.991  0.3673  0.2788  0.0327
  794MOL0     C 7102   5.079   9.735   6.001 -0.1004 -0.5023  0.2696
  794MOL0     O 7103   5.216  10.017   5.948  0.4668  0.5437 -0.6626
  794MOL0     C 7104   5.490  10.049   5.894  0.7360 -0.1375 -0.2643
  794MOL0     C 7105   5.627  10.078   5.885  0.4095 -0.5042 -0.1278
  794MOL0     N 7106   5.984  10.323   5.327 -0.2131  0.0339  0.8698
  794MOL0     N 7107   6.032  10.262   5.218  0.0773 -0.7269 -0.0961
  794MOL0     C 7108   7.128   9.822   4.983 -0.0107  0.0902 -0.3703
  794MOL0     C 7109   7.259   9.761   4.988  0.3348  0.3591 -0.5811
  794MOL0     C 7110   7.610   9.527   5.096  0.0255 -0.6693  0.3478
  794MOL0     C 7111   7.703   9.519   4.989  0.4903  0.5097  0.1194
  794MOL0     C 7112   7.841   9.518   5.005 -0.9817 -0.4461  0.0666
  794MOL0     C 7113   7.890   9.536   5.135  0.4380 -0.7153  0.4688
  794MOL0     O 7114   8.024   9.545   5.162  0.1649 -0.2181 -0.1354
  794MOL0     C 7115   8.096   9.427   5.144  0.1783 -0.4318  0.2967
  794MOL0     C 7116   8.224   9.413   5.228 -0.6673  0.4057 -0.2567
  794MOL0     C 7117   8.319   9.540   5.196 -0.5649  0.3939 -0.2180
  794MOL0     C 7118   8.367   9.564   5.057  0.6063  0.8013  0.3539
  794MOL0     C 7119   8.259   9.598   4.962 -0.5932 -0.6228  0.1081
  794MOL0     C 7120   8.175   9.628   4.874  0.3830 -0.5979  0.0092
  794MOL0     C 7121   7.806   9.548   5.246 -1.0219  1.6661 -0.1082
  794MOL0     C 7122   7.665   9.544   5.224 -0.1305 -0.5226  0.2075
  794MOL0     H 7123   7.186   9.451   4.865 -2.8169 -1.1698  0.5409
  794MOL0     H 7124   6.956   9.547   4.858  0.7848  1.0668 -0.3331
  794MOL0     H 7125   6.878   9.777   4.687  0.5044 -0.4509 -0.0676
  794MOL0     H 7126   6.803   9.664   4.795  0.5800 -0.0095  0.2228
  794MOL0     H 7127   6.729   9.946   4.753  0.3049 -0.2367  1.9455
  794MOL0     H 7128   6.639   9.806   4.684  1.5711 -1.1481 -1.5723
  794MOL0     H 7129   6.607   9.747   4.943 -0.8382  0.4134 -0.4538
  794MOL0     H 7130   6.653   9.917   4.973 -0.2305 -1.2974  1.9444
  794MOL0     H 7131   6.465   9.996   4.801 -3.5791 -0.7707 -1.6776
  794MOL0     H 7132   6.419   9.833   4.794 -2.5116  1.5911  0.1345
  794MOL0     H 7133   6.371   9.832   5.036  0.5905  1.5689  3.0305
  794MOL0     H 7134   6.426   9.999   5.053 -1.2702  1.4321 -0.4981
  794MOL0     H 7135   6.247  10.070   4.889  0.3880  2.2322  3.6428
  794MOL0     H 7136   6.185   9.904   4.887 -1.3815 -0.0483  1.2542
  794MOL0     H 7137   6.061  10.059   5.028  0.4356  2.9897  1.7032
  794MOL0     H 7138   6.125   9.929   5.134  2.9135 -1.7704 -1.5997
  794MOL0     H 7139   6.245  10.192   5.102 -2.5115  0.7475 -0.8231
  794MOL0     H 7140   6.290  10.054   5.221  0.7336 -2.3274 -2.8604
  794MOL0     H 7141   6.225  10.131   5.442  0.5385  1.2440  1.0238
  794MOL0     H 7142   6.139  10.336   5.606 -1.9075  0.8754 -0.4543
  794MOL0     H 7143   5.974  10.401   5.600  2.2529  3.1185  1.5030
  794MOL0     H 7144   6.035  10.095   5.648  2.3442  0.9357  2.3728
  794MOL0     H 7145   5.876  10.171   5.606  0.4052  0.8943  0.1135
  794MOL0     H 7146   5.874  10.270   5.820  1.3943  1.3304  1.2211
  794MOL0     H 7147   6.044  10.233   5.845  1.0716 -0.5005 -0.9083
  794MOL0     H 7148   6.016  10.002   5.860  2.1213  2.2164  0.2230
  794MOL0     H 7149   5.863  10.004   5.776 -0.5372  1.3752  1.2324
  794MOL0     H 7150   5.730   9.965   6.193 -0.3798 -1.3470  0.0048
  794MOL0     H 7151   5.403   9.879   6.278  0.1861  1.9169  2.2674
  794MOL0     H 7152   5.557   9.811   6.273 -2.0287 -0.7650 -1.7186
  794MOL0     H 7153   5.541   9.979   6.335 -1.9407  1.5076  0.0917
  794MOL0     H 7154   5.086   9.912   6.290  0.1995 -1.2610  0.6704
  794MOL0     H 7155   4.850   9.860   6.275 -1.1020  0.3235 -2.0587
  794MOL0     H 7156   4.748   9.548   6.035 -1.4784 -2.3137  1.1325
  794MOL0     H 7157   4.588   9.569   6.108 -0.1100  1.6065  1.9396
  794MOL0     H 7158   4.686   9.658   5.846 -0.7742  3.4627 -1.4639
  794MOL0     H 7159   4.538   9.572   5.888  2.0048 -1.7705  0.5304
  794MOL0     H 7160   4.589   9.870   5.945  0.6438  0.4714 -2.0204
  794MOL0     H 7161   4.459   9.772   6.016 -1.7559 -2.3140 -1.4158
  794MOL0     H 7162   4.498   9.781   5.718  0.2188  0.2117  0.4251
  794MOL0     H 7163   4.352   9.737   5.801  0.4293 -0.8550 -1.2837
  794MOL0     H 7164   4.480  10.004   5.796  0.3289 -2.1520 -1.1823
  794MOL0     H 7165   4.331   9.951   5.898 -1.4986 -1.4645  0.0296
  794MOL0     H 7166   4.194   9.966   5.698 -0.1244 -0.7278 -0.9335
  794MOL0     H 7167   4.289  10.108   5.688  1.4821  0.3742 -3.3793
  794MOL0     H 7168   4.322   9.840   5.550 -1.6879  0.5335  1.1271
  794MOL0     H 7169   4.449   9.963   5.526  0.4277 -2.0827 -1.2364
  794MOL0     H 7170   4.287   9.947   5.343 -1.9215 -0.9130  0.2900
  794MOL0     H 7171   4.293  10.116   5.424  0.5312 -0.4310 -3.0240
  794MOL0     H 7172   4.893   9.677   5.908 -1.8256  1.6251  0.5808
  794MOL0     H 7173   5.150   9.696   5.928  1.0556  1.4099  0.2996
  794MOL0     H 7174   5.430  10.088   5.813 -1.0885  1.0365  1.5509
  794MOL0     H 7175   5.669  10.126   5.797  1.2390 -3.0661 -1.2145
  794MOL0     H 7176   7.112   9.925   5.013  0.2681 -0.1738  0.7336
  794MOL0     H 7177   7.343   9.817   5.026  0.6422  0.1377 -0.9307
  794MOL0     H 7178   7.658   9.506   4.891 -0.3350  1.1993  0.3939
  794MOL0     H 7179   7.906   9.509   4.919 -2.4063  2.6856 -1.5285
  794MOL0     H 7180   8.028   9.345   5.172 -3.0057  1.3102 -1.7412
  794MOL0     H 7181   8.107   9.401   5.038  4.2913 -1.6602  0.8468
  794MOL0     H 7182   8.276   9.318   5.209  1.8027  1.3581  1.2573
  794MOL0     H 7183   8.194   9.418   5.333  3.2022  3.0806  0.9343
  794MOL0     H 7184   8.412   9.523   5.252 -1.5109  0.2508  1.3636
  794MOL0     H 7185   8.278   9.630   5.241  1.1150  1.1097 -0.0335
  794MOL0     H 7186   8.417   9.480   5.008  4.1256  2.2286  1.1695
  794MOL0     H 7187   8.436   9.648   5.068 -1.7224  2.5948  2.2981
  794MOL0     H 7188   8.101   9.658   4.802  1.2643  0.2866 -0.5615
  794MOL0     H 7189   7.848   9.566   5.345  1.8955 -2.1878 -0.4119
  794MOL0     H 7190   7.596   9.560   5.307  0.8107  1.0147  0.7190
  795MOL0     O 7191   5.227   4.934   7.272  0.3101 -0.6946  0.2062
  795MOL0     C 7192   5.160   4.833   7.252  0.4276  0.4789 -0.1529
  795MOL0     O 7193   5.211   4.713   7.207  0.6618 -0.3020 -0.1705
  795MOL0     C 7194   5.345   4.709   7.158  0.7204 -0.2805 -0.1111
  795MOL0     C 7195   5.385   4.809   7.068  0.1391 -0.0489  1.7185
  795MOL0     C 7196   5.515   4.809   7.013  0.7722 -0.3551 -0.1565
  795MOL0     C 7197   5.602   4.706   7.050  0.5533 -0.7492  0.4858
  795MOL0     O 7198   5.726   4.711   6.987 -0.4294 -0.7750  0.1724
  795MOL0     C 7199   5.831   4.662   7.071 -0.1715 -0.3630 -0.2644
  795MOL0     C 7200   5.969   4.698   7.009 -0.1164  0.8815  0.0152
  795MOL0     C 7201   6.026   4.839   7.039 -0.6605 -0.6344 -0.0343
  795MOL0     C 7202   6.148   4.868   6.953  0.0794 -1.0201 -0.3914
  795MOL0     C 7203   6.217   5.003   6.985  0.1522  0.1392  0.3015
  795MOL0     C 7204   6.315   4.991   7.109  0.2167  0.2066 -0.0802
  795MOL0     C 7205   6.415   5.103   7.144 -0.3880  0.6883  0.5405
  795MOL0     C 7206   6.503   5.147   7.024  0.1131 -0.1004 -0.1203
  795MOL0     N 7207   6.589   5.258   7.063 -0.6875 -0.2370 -0.6221
  795MOL0     C 7208   6.643   5.281   7.196  0.5295  0.6244  1.3193
  795MOL0     C 7209   6.717   5.390   7.182 -0.2384  0.5369  0.6092
  795MOL0     C 7210   6.810   5.456   7.284 -0.3264  1.0483  0.1116
  795MOL0     C 7211   6.736   5.493   7.424  0.0101 -0.1654  0.5634
  795MOL0     C 7212   6.826   5.596   7.487 -0.6554  0.6706 -0.1884
  795MOL0     C 7213   6.882   5.568   7.626 -0.7301 -0.0484  0.3289
  795MOL0     O 7214   6.931   5.689   7.680  0.7370  0.0687 -0.4522
  795MOL0     C 7215   7.059   5.745   7.655  0.0937  0.3480 -0.0067
  795MOL0     C 7216   7.065   5.871   7.720  0.0628  0.1584 -0.0007
  795MOL0     C 7217   7.186   5.936   7.713  0.0355 -0.6921  0.1449
  795MOL0     C 7218   7.193   6.052   7.806  0.1905 -0.7141 -0.2033
  795MOL0     C 7219   7.295   5.886   7.643  0.4156  0.2155  0.2582
  795MOL0     C 7220   7.429   5.954   7.642  0.2525  0.5567 -0.5657
  795MOL0     O 7221   7.461   6.053   7.721  0.0663  0.8110  0.6181
  795MOL0     C 7222   7.591   6.090   7.721  0.3096  0.3362 -0.6745
  795MOL0     C 7223   7.690   6.012   7.781 -0.3716 -0.5000  0.0926
  795MOL0     C 7224   7.822   6.063   7.784  0.1600 -0.4623  0.6187
  795MOL0     C 7225   7.852   6.187   7.724  0.7275  0.0252 -0.3538
  795MOL0     O 7226   7.984   6.222   7.705 -0.8039  0.3099 -0.2959
  795MOL0     C 7227   8.016   6.357   7.715  0.2776  0.1270  0.7444
  795MOL0     C 7228   8.152   6.360   7.776  0.7125  0.1193 -1.9277
  795MOL0     C 7229   8.135   6.317   7.926 -0.5319  0.2218  0.4092
  795MOL0     C 7230   8.273   6.292   7.985 -0.9271 -0.3871  0.1449
  795MOL0     C 7231   8.264   6.227   8.123 -0.0631  0.8339  1.3022
  795MOL0     C 7232   8.409   6.224   8.180  0.1249 -0.4184  0.9356
  795MOL0     C 7233   8.447   6.122   8.289 -0.6333  0.4466 -0.7768
  795MOL0     C 7234   8.346   6.142   8.408  0.2520  0.1288 -0.7763
  795MOL0    Cl 7235   8.430   6.086   8.557  0.0923  0.1435 -0.0609
  795MOL0     C 7236   7.746   6.269   7.668 -0.8713 -0.0372  0.4072
  795MOL0     C 7237   7.616   6.217   7.676 -0.0221  1.1222  0.4392
  795MOL0     O 7238   7.506   5.913   7.557 -0.4417  0.4017 -0.3591
  795MOL0     C 7239   7.284   5.756   7.579 -0.5219  0.4868  0.0359
  795MOL0     C 7240   7.165   5.686   7.580  0.3095 -0.7170  0.2895
  795MOL0     N 7241   6.696   5.440   7.056 -0.0268  0.2016  0.8608
  795MOL0     N 7242   6.613   5.364   6.991  0.4537 -0.2915  0.1861
  795MOL0     C 7243   5.554   4.600   7.132 -0.2377 -0.6262 -0.4066
  795MOL0     C 7244   5.425   4.602   7.189  0.0514 -0.7100  0.5667
  795MOL0     C 7245   5.014   4.842   7.260 -0.4189  0.3608 -0.0100
  795MOL0     C 7246   4.944   4.925   7.337  0.4915  0.0629  0.2381
  795MOL0     C 7247   4.798   4.928   7.336 -0.3685 -0.1952 -0.2426
  795MOL0     C 7248   4.723   4.841   7.247 -0.2880 -0.3049  0.0726
  795MOL0     O 7249   4.584   4.828   7.254 -0.4246  0.2588  0.4874
  795MOL0     C 7250   4.517   4.822   7.136  0.9323  0.2986  0.1030
  795MOL0     C 7251   4.362   4.825   7.166  0.1194  0.5693  0.1350
  795MOL0     C 7252   4.265   4.814   7.041 -0.0226  0.5588 -0.4958
  795MOL0     C 7253   4.211   4.674   7.008 -0.1858 -0.0554 -0.8968
  795MOL0     C 7254   4.309   4.571   6.968  0.0350 -0.0994 -0.3921
  795MOL0     C 7255   4.393   4.485   6.943  0.0913 -0.1635  0.1208
  795MOL0     C 7256   4.793   4.749   7.173  0.3279  0.1473  0.3531
  795MOL0     C 7257   4.935   4.745   7.180 -0.5174  0.3052  0.2650
  795MOL0     H 7258   5.320   4.888   7.031  1.2559  0.8483  1.6453
  795MOL0     H 7259   5.546   4.887   6.944  1.4913 -1.1783 -0.7852
  795MOL0     H 7260   5.819   4.709   7.169 -1.6868 -1.0499 -0.0890
  795MOL0     H 7261   5.840   4.553   7.076 -0.1792 -0.3240  2.1361
  795MOL0     H 7262   6.044   4.619   7.018  0.7043  1.1879 -3.1841
  795MOL0     H 7263   5.958   4.686   6.901  2.1041 -0.8585 -0.0837
  795MOL0     H 7264   5.956   4.920   7.016  1.6644  0.9813 -1.9915
  795MOL0     H 7265   6.049   4.855   7.144  2.5234  0.6534 -0.7996
  795MOL0     H 7266   6.224   4.794   6.977  0.8231  0.3178  1.6747
  795MOL0     H 7267   6.121   4.854   6.847  0.4835 -1.2063 -0.4716
  795MOL0     H 7268   6.281   5.028   6.900 -3.2690  0.7983 -2.2703
  795MOL0     H 7269   6.148   5.088   6.985  0.6670  0.5676  0.1387
  795MOL0     H 7270   6.249   4.970   7.194 -0.2261  1.2566 -0.1428
  795MOL0     H 7271   6.383   4.907   7.095  0.2407  0.4691 -1.7833
  795MOL0     H 7272   6.353   5.187   7.178  2.6241  2.5871  1.7206
  795MOL0     H 7273   6.474   5.071   7.230 -0.7509 -0.7801  0.2660
  795MOL0     H 7274   6.427   5.177   6.951 -2.1566 -2.2821  1.1609
  795MOL0     H 7275   6.554   5.065   6.974  3.6207  2.2821 -0.7781
  795MOL0     H 7276   6.632   5.213   7.280  0.6504  0.7328  1.4238
  795MOL0     H 7277   6.894   5.387   7.302 -1.6992 -1.0044 -0.9404
  795MOL0     H 7278   6.852   5.543   7.234  0.8057  1.3382  1.4819
  795MOL0     H 7279   6.727   5.404   7.487  0.4820 -1.1753 -0.7566
  795MOL0     H 7280   6.637   5.539   7.414  0.5456  1.1083  0.8047
  795MOL0     H 7281   6.763   5.685   7.496 -0.3930  0.6845  1.9743
  795MOL0     H 7282   6.910   5.626   7.424 -0.0881 -1.5373 -0.5743
  795MOL0     H 7283   6.960   5.491   7.631 -0.8789 -0.3484 -1.3139
  795MOL0     H 7284   6.797   5.543   7.689 -0.3903  2.1606  1.7916
  795MOL0     H 7285   6.982   5.911   7.779  1.5357  1.5236  1.2275
  795MOL0     H 7286   7.104   6.066   7.869  0.0636 -0.8643 -0.3499
  795MOL0     H 7287   7.277   6.030   7.872  0.2359  0.4923  0.1696
  795MOL0     H 7288   7.225   6.146   7.759  0.3866 -0.0996  1.0880
  795MOL0     H 7289   7.685   5.913   7.824  0.6400 -1.8750 -2.7402
  795MOL0     H 7290   7.910   6.009   7.817  1.6093  1.1109 -0.4543
  795MOL0     H 7291   8.021   6.408   7.618 -0.9447 -2.1545 -0.6187
  795MOL0     H 7292   7.937   6.409   7.769  0.9791  2.0787 -0.0186
  795MOL0     H 7293   8.224   6.291   7.730 -1.0207 -3.1569 -0.0781
  795MOL0     H 7294   8.197   6.460   7.774  0.6972  0.1381 -1.4246
  795MOL0     H 7295   8.064   6.235   7.938 -1.5053  0.6587 -1.9392
  795MOL0     H 7296   8.084   6.400   7.975 -0.7181  1.8531 -2.3806
  795MOL0     H 7297   8.332   6.229   7.917  1.0118  1.6799 -0.2247
  795MOL0     H 7298   8.312   6.394   7.986 -1.3662 -0.1340 -2.2864
  795MOL0     H 7299   8.223   6.125   8.117 -0.4789  1.0447  0.4955
  795MOL0     H 7300   8.195   6.284   8.186 -1.6490 -0.3495  0.7187
  795MOL0     H 7301   8.483   6.218   8.099 -1.2522  0.5905 -0.4639
  795MOL0     H 7302   8.419   6.326   8.218  0.1428  0.0226 -0.2015
  795MOL0     H 7303   8.545   6.151   8.327 -0.9840  2.0868 -1.0509
  795MOL0     H 7304   8.440   6.021   8.247 -2.7114  0.6971 -1.1881
  795MOL0     H 7305   8.265   6.070   8.396  1.2456 -1.2057  0.3168
  795MOL0     H 7306   8.307   6.244   8.418 -1.1309 -0.3837 -0.7883
  795MOL0     H 7307   7.785   6.354   7.614  1.1146 -0.3401  1.2732
  795MOL0     H 7308   7.533   6.269   7.628 -1.7232  0.1587  2.2299
  795MOL0     H 7309   7.370   5.714   7.528 -0.5027  3.9401 -3.1637
  795MOL0     H 7310   7.168   5.588   7.532  1.8228 -0.3905 -0.3391
  795MOL0     H 7311   5.634   4.533   7.163  1.7371  0.8892 -1.9400
  795MOL0     H 7312   5.402   4.527   7.263 -0.0509  0.1859  1.4616
  795MOL0     H 7313   4.995   4.997   7.400  0.2891  0.6075 -0.2056
  795MOL0     H 7314   4.752   4.995   7.408 -2.1056  0.6144 -2.0253
  795MOL0     H 7315   4.526   4.906   7.067 -0.0418  0.2056 -0.1483
  795MOL0     H 7316   4.544   4.729   7.085  0.8158  0.2476  0.1338
  795MOL0     H 7317   4.341   4.920   7.215  1.1844  0.6527  0.4649
  795MOL0     H 7318   4.356   4.743   7.239  3.3220  0.5285  0.5164
  795MOL0     H 7319   4.309   4.847   6.946 -0.7398 -0.6364 -1.2645
  795MOL0     H 7320   4.177   4.878   7.053 -0.2304  0.8062 -2.7750
  795MOL0     H 7321   4.124   4.682   6.942 -0.3591  2.6864 -0.4223
  795MOL0     H 7322   4.169   4.637   7.102 -2.6013  3.1397 -0.5715
  795MOL0     H 7323   4.457   4.403   6.918 -2.1079 -2.1838  0.7605
  795MOL0     H 7324   4.740   4.668   7.125  1.1720  0.3353 -0.9181
  795MOL0     H 7325   4.989   4.664   7.133  1.7875  0.8614  1.7787
  796MOL0     O 7326  10.995   1.581   6.061  0.2679 -0.6559 -0.0105
  796MOL0     C 7327  11.049   1.636   5.965 -0.3293  0.8203 -0.0779
  796MOL0     O 7328  10.998   1.638   5.830 -0.8136  0.0022 -0.1392
  796MOL0     C 7329  10.892   1.564   5.790 -0.1009  0.3418  0.7421
  796MOL0     C 7330  10.870   1.545   5.654  0.2395  0.6200 -0.2652
  796MOL0     C 7331  10.755   1.496   5.597 -0.0612  0.0332 -0.2795
  796MOL0     C 7332  10.660   1.445   5.685 -0.4031 -0.5902  0.5901
  796MOL0     O 7333  10.545   1.401   5.615 -0.6236  0.8075  0.1089
  796MOL0     C 7334  10.429   1.378   5.694 -0.1947  0.2261  0.9154
  796MOL0     C 7335  10.302   1.355   5.618  0.6106 -0.2101  0.8154
  796MOL0     C 7336  10.206   1.263   5.694 -0.4169 -0.0430  0.0842
  796MOL0     C 7337  10.184   1.308   5.843  0.3692 -0.9091  0.1933
  796MOL0     C 7338  10.107   1.444   5.865  0.5433 -0.7650 -0.2033
  796MOL0     C 7339  10.138   1.500   6.006  0.2098  0.3541  0.2982
  796MOL0     C 7340  10.060   1.623   6.055  0.4549 -0.2696  0.6944
  796MOL0     C 7341  10.083   1.624   6.210 -0.3291 -0.7490  0.5402
  796MOL0     N 7342   9.997   1.728   6.276 -0.4917  0.4909  0.0816
  796MOL0     C 7343   9.966   1.731   6.410 -0.4038  0.2026  0.3633
  796MOL0     C 7344   9.907   1.857   6.429  0.4028  0.4673  0.7170
  796MOL0     C 7345   9.842   1.915   6.551 -0.0116 -0.3551 -0.4643
  796MOL0     C 7346   9.683   1.925   6.561 -0.1164  0.1160 -0.6572
  796MOL0     C 7347   9.648   1.957   6.708 -0.2019 -0.5170 -0.0613
  796MOL0     C 7348   9.496   1.974   6.710  0.9963  0.6752  0.0518
  796MOL0     O 7349   9.425   1.849   6.669 -0.4543 -0.3078  0.7206
  796MOL0     C 7350   9.291   1.853   6.645 -0.6519  0.1857 -0.1640
  796MOL0     C 7351   9.231   1.728   6.613 -0.0295 -0.9190 -0.0416
  796MOL0     C 7352   9.096   1.717   6.570 -0.6794  0.6000 -0.1853
  796MOL0     C 7353   9.050   1.579   6.550  0.2115 -0.1955 -0.2954
  796MOL0     C 7354   9.022   1.837   6.557 -0.2043  0.7810  0.1262
  796MOL0     C 7355   8.891   1.841   6.493 -1.2638  0.2116 -0.2029
  796MOL0     O 7356   8.820   1.961   6.501 -0.8907  0.2944  0.3977
  796MOL0     C 7357   8.686   1.968   6.460  0.3227  1.1042  0.2188
  796MOL0     C 7358   8.666   1.953   6.325 -0.9213  0.2597 -0.2473
  796MOL0     C 7359   8.541   1.971   6.272 -0.5812  0.1365  0.8624
  796MOL0     C 7360   8.431   1.998   6.340  0.1298  0.1523 -0.7573
  796MOL0     O 7361   8.306   2.023   6.285  0.7402  0.7603  1.1459
  796MOL0     C 7362   8.189   1.997   6.355  0.1482 -0.1740  0.1473
  796MOL0     C 7363   8.075   2.044   6.264 -0.0579  0.4510 -0.2603
  796MOL0     C 7364   7.933   1.992   6.304  0.2602  0.0759  0.1378
  796MOL0     C 7365   7.886   2.073   6.423  0.0199 -1.5001  0.0795
  796MOL0     C 7366   7.786   2.014   6.511 -0.2134 -1.0447  0.4004
  796MOL0     C 7367   7.748   2.108   6.627  0.5147 -0.5019  0.6147
  796MOL0     C 7368   7.642   2.065   6.720 -0.0756 -0.2662 -0.0222
  796MOL0     C 7369   7.655   1.917   6.761 -0.9043 -0.3494 -0.2292
  796MOL0    Cl 7370   7.548   1.885   6.898 -0.7155 -0.0883  0.0128
  796MOL0     C 7371   8.452   2.006   6.475  0.6729  0.5142 -0.2829
  796MOL0     C 7372   8.575   1.993   6.542 -0.8593 -0.3495  0.3971
  796MOL0     O 7373   8.853   1.744   6.425 -0.0834  0.2814 -0.1694
  796MOL0     C 7374   9.079   1.963   6.593  0.3645 -0.2763 -0.8027
  796MOL0     C 7375   9.215   1.972   6.629  0.6154  0.4198  0.3883
  796MOL0     N 7376   9.913   1.921   6.307 -0.5126  0.8063 -0.9838
  796MOL0     N 7377   9.969   1.843   6.215  0.0707  0.7576 -0.5840
  796MOL0     C 7378  10.679   1.455   5.821  0.1705 -0.4132 -0.5463
  796MOL0     C 7379  10.789   1.511   5.870 -0.1944  0.7365 -0.9848
  796MOL0     C 7380  11.157   1.740   5.996  0.2245  0.4356 -0.5895
  796MOL0     C 7381  11.230   1.796   5.892 -0.2568  0.0222 -0.0309
  796MOL0     C 7382  11.321   1.902   5.921  0.1678  0.3990  0.0504
  796MOL0     C 7383  11.343   1.943   6.059 -0.2486 -0.1028  1.6013
  796MOL0     O 7384  11.422   2.051   6.100  0.4693  0.8676  0.6364
  796MOL0     C 7385  11.501   2.132   6.002  0.0800 -0.3521  0.7896
  796MOL0     C 7386  11.609   2.228   6.060  0.4849 -0.1619 -1.0794
  796MOL0     C 7387  11.695   2.314   5.962  0.1739  0.2264 -0.1922
  796MOL0     C 7388  11.793   2.413   6.031  0.2159 -0.9000  0.1637
  796MOL0     C 7389  11.870   2.507   5.944 -0.0544 -0.4192  0.1025
  796MOL0     C 7390  11.916   2.576   5.849  0.1214  0.1210 -0.3172
  796MOL0     C 7391  11.275   1.878   6.160 -0.2849 -0.2633  1.1637
  796MOL0     C 7392  11.179   1.785   6.125  0.4943 -0.4614 -0.9607
  796MOL0     H 7393  10.938   1.591   5.583  1.4132  1.9765  1.6265
  796MOL0     H 7394  10.731   1.504   5.491 -1.3831  1.2394  0.0768
  796MOL0     H 7395  10.440   1.293   5.762 -2.3325 -1.0058 -0.1625
  796MOL0     H 7396  10.405   1.473   5.743 -1.0155 -0.4777  1.9254
  796MOL0     H 7397  10.260   1.453   5.592 -0.7520 -0.7099  1.0234
  796MOL0     H 7398  10.326   1.331   5.514  2.3921  0.5240  1.0326
  796MOL0     H 7399  10.120   1.257   5.627  0.4328 -1.2054 -0.9603
  796MOL0     H 7400  10.247   1.161   5.703  0.6092  0.3057 -0.4378
  796MOL0     H 7401  10.109   1.238   5.883 -0.6591 -0.4953 -0.9484
  796MOL0     H 7402  10.275   1.325   5.900  0.8887 -1.0905 -0.5731
  796MOL0     H 7403  10.148   1.519   5.797 -0.7731  1.4522  1.3196
  796MOL0     H 7404  10.000   1.431   5.844  0.3888 -1.1961  0.7920
  796MOL0     H 7405  10.120   1.412   6.068  1.4526 -0.4309 -0.4092
  796MOL0     H 7406  10.242   1.532   6.018  0.0804  0.7414  0.4230
  796MOL0     H 7407  10.073   1.712   5.994 -4.6008 -0.5671 -1.3692
  796MOL0     H 7408   9.954   1.607   6.029  0.7837 -1.7558  0.1523
  796MOL0     H 7409  10.186   1.653   6.234 -0.4909  0.0171  0.3401
  796MOL0     H 7410  10.061   1.531   6.263 -1.6129  0.4025  2.1423
  796MOL0     H 7411   9.999   1.661   6.486 -1.0040 -1.9691 -1.2680
  796MOL0     H 7412   9.871   1.847   6.632 -3.2954  1.8155  2.8694
  796MOL0     H 7413   9.898   2.006   6.577  2.8449 -1.8925 -0.8649
  796MOL0     H 7414   9.638   1.828   6.537 -0.0628 -0.8181  2.5221
  796MOL0     H 7415   9.645   2.009   6.502 -0.8417  0.4174  0.2058
  796MOL0     H 7416   9.696   2.054   6.724 -2.0686  0.5911 -0.7725
  796MOL0     H 7417   9.685   1.886   6.781  1.3769 -1.0163 -1.2941
  796MOL0     H 7418   9.469   2.061   6.650  2.0938  0.4538 -0.7722
  796MOL0     H 7419   9.461   2.000   6.811 -1.8045  1.9662 -1.1340
  796MOL0     H 7420   9.286   1.635   6.613 -3.2589 -3.0255  0.7937
  796MOL0     H 7421   9.054   1.544   6.446 -2.3511  0.8447 -0.8164
  796MOL0     H 7422   9.110   1.508   6.607 -0.9954 -1.5079 -0.5923
  796MOL0     H 7423   8.952   1.556   6.593  1.9114 -2.8088  2.5631
  796MOL0     H 7424   8.750   1.944   6.257 -0.3996 -3.0998  0.6685
  796MOL0     H 7425   8.533   1.968   6.164 -0.9297 -0.9799  0.9106
  796MOL0     H 7426   8.190   1.889   6.373  1.5577  0.0333  1.4622
  796MOL0     H 7427   8.187   2.057   6.446  2.5181  0.1880  0.0215
  796MOL0     H 7428   8.072   2.153   6.271 -1.5168  0.4967 -1.1755
  796MOL0     H 7429   8.094   2.018   6.160 -4.6854  0.7369 -1.3992
  796MOL0     H 7430   7.947   1.889   6.336  1.8719 -0.2234 -1.3655
  796MOL0     H 7431   7.859   1.985   6.224  0.1570 -0.3135  0.2668
  796MOL0     H 7432   7.971   2.106   6.484  1.6603  1.4320 -3.4419
  796MOL0     H 7433   7.850   2.169   6.384  2.4045 -0.2690  0.6870
  796MOL0     H 7434   7.826   1.921   6.552 -1.3121 -0.4478  3.0423
  796MOL0     H 7435   7.696   1.989   6.454  1.5837 -2.8552 -1.8397
  796MOL0     H 7436   7.836   2.148   6.678  1.6746  0.8402 -2.2001
  796MOL0     H 7437   7.718   2.196   6.569  2.5181 -1.1030 -1.5161
  796MOL0     H 7438   7.547   2.073   6.665  1.0466  0.8085 -1.9367
  796MOL0     H 7439   7.646   2.127   6.810 -4.6691  0.2461  0.0949
  796MOL0     H 7440   7.759   1.887   6.777 -0.3083  1.4475 -0.4905
  796MOL0     H 7441   7.615   1.858   6.678  2.3275 -1.8771 -0.8491
  796MOL0     H 7442   8.364   2.041   6.529 -0.8659 -2.6052 -0.5052
  796MOL0     H 7443   8.589   2.021   6.647  1.1228  1.5479 -0.2942
  796MOL0     H 7444   9.032   2.061   6.595 -1.3370 -1.0638 -0.0460
  796MOL0     H 7445   9.259   2.069   6.644  0.7538  0.5749 -0.9086
  796MOL0     H 7446  10.602   1.422   5.890  2.8671  0.2073  3.0907
  796MOL0     H 7447  10.798   1.525   5.977  0.3257  0.3484 -0.9746
  796MOL0     H 7448  11.213   1.763   5.790 -2.2732  1.6545 -0.2914
  796MOL0     H 7449  11.372   1.944   5.836 -1.9179  1.0257 -0.9584
  796MOL0     H 7450  11.560   2.059   5.946 -2.3520 -0.4962 -1.7960
  796MOL0     H 7451  11.425   2.166   5.932  1.7159 -0.1191 -0.9345
  796MOL0     H 7452  11.671   2.165   6.125  1.1942  2.7593  1.2684
  796MOL0     H 7453  11.556   2.282   6.139  1.7496  0.5331 -0.6807
  796MOL0     H 7454  11.619   2.362   5.899 -1.8260 -0.1764  1.7748
  796MOL0     H 7455  11.756   2.249   5.899  1.7206  0.0087  1.4700
  796MOL0     H 7456  11.852   2.354   6.102 -2.6041 -1.5648  2.1088
  796MOL0     H 7457  11.740   2.481   6.098 -0.6811 -0.9659 -0.4769
  796MOL0     H 7458  11.953   2.641   5.772 -1.5738  3.5098  1.4897
  796MOL0     H 7459  11.293   1.910   6.262 -2.9563  2.0331  1.0422
  796MOL0     H 7460  11.137   1.733   6.211  1.4434  1.2748  0.6122
  797MOL0     O 7461   0.506   0.096   8.425 -0.9014  1.0208 -1.2184
  797MOL0     C 7462   0.468   0.213   8.437 -0.8318 -0.7393  0.7372
  797MOL0     O 7463   0.355   0.253   8.498  0.4625 -0.1247 -0.5357
  797MOL0     C 7464   0.267   0.178   8.570 -0.3632 -0.5383  0.0539
  797MOL0     C 7465   0.157   0.260   8.617 -0.0920  0.6378  0.1737
  797MOL0     C 7466   0.064   0.203   8.703  0.1006 -0.0991  0.6742
  797MOL0     C 7467   0.071   0.065   8.731  0.4451  0.0713 -0.2147
  797MOL0     O 7468  -0.035   0.028   8.816  0.2711  0.1224 -0.3348
  797MOL0     C 7469  -0.098  -0.097   8.813  0.1079  0.2514 -0.2770
  797MOL0     C 7470  -0.213  -0.097   8.911  0.5901 -0.1209 -0.2264
  797MOL0     C 7471  -0.281  -0.232   8.917  0.2052 -0.2335  0.3418
  797MOL0     C 7472  -0.408  -0.220   9.004  0.2336  0.8034  0.1352
  797MOL0     C 7473  -0.513  -0.327   8.969 -0.0580  0.7409 -0.2531
  797MOL0     C 7474  -0.625  -0.324   9.068  0.0404 -0.0358  0.0083
  797MOL0     C 7475  -0.604  -0.393   9.200 -0.4614 -1.1488  0.0514
  797MOL0     C 7476  -0.719  -0.392   9.299  0.8999  0.3517 -0.1541
  797MOL0     N 7477  -0.824  -0.488   9.254 -0.4091  0.2225 -0.5272
  797MOL0     C 7478  -0.924  -0.440   9.184 -0.0857  0.0998 -0.5101
  797MOL0     C 7479  -1.028  -0.524   9.206 -0.6437  0.0668  0.7611
  797MOL0     C 7480  -1.172  -0.499   9.167  0.4830  0.4399  0.6385
  797MOL0     C 7481  -1.236  -0.395   9.253 -0.4527  0.2871  0.2203
  797MOL0     C 7482  -1.389  -0.379   9.236  0.0655 -0.0333 -1.4078
  797MOL0     C 7483  -1.454  -0.402   9.107  0.4962 -0.4899 -0.7269
  797MOL0     O 7484  -1.469  -0.277   9.033  0.2469 -0.4900 -0.0383
  797MOL0     C 7485  -1.552  -0.272   8.927  0.1947  0.1178 -0.1985
  797MOL0     C 7486  -1.632  -0.371   8.872 -0.8006  0.7965  0.0101
  797MOL0     C 7487  -1.730  -0.345   8.774 -0.9341 -0.0561  0.6615
  797MOL0     C 7488  -1.822  -0.446   8.718  0.1629  0.3816  0.5763
  797MOL0     C 7489  -1.730  -0.220   8.711  0.0657 -0.3514 -0.0723
  797MOL0     C 7490  -1.820  -0.165   8.600 -1.0389  0.2682 -0.1642
  797MOL0     O 7491  -1.892  -0.260   8.535 -0.4730  0.2892  0.2410
  797MOL0     C 7492  -2.002  -0.221   8.461 -0.8146  0.0408 -0.4275
  797MOL0     C 7493  -1.991  -0.156   8.338 -0.7523  1.0541  0.4402
  797MOL0     C 7494  -2.102  -0.139   8.262  0.5833  1.0907  0.8365
  797MOL0     C 7495  -2.232  -0.190   8.295 -0.2818 -0.4799  0.3365
  797MOL0     O 7496  -2.338  -0.166   8.215 -0.2833  0.4868 -0.7408
  797MOL0     C 7497  -2.434  -0.081   8.281 -0.0351  0.1845 -0.2893
  797MOL0     C 7498  -2.454   0.037   8.193  1.1779  0.9430  0.4360
  797MOL0     C 7499  -2.323   0.127   8.181 -0.6948  0.8850  0.6687
  797MOL0     C 7500  -2.335   0.246   8.093 -0.2067  0.2378  0.2735
  797MOL0     C 7501  -2.210   0.332   8.086  0.6956 -0.9108 -0.0082
  797MOL0     C 7502  -2.234   0.443   7.988  0.6088  0.0860  0.7083
  797MOL0     C 7503  -2.102   0.527   7.957 -0.1779  0.4479 -0.6105
  797MOL0     C 7504  -2.132   0.638   7.860  0.0905  0.4756  0.3962
  797MOL0    Cl 7505  -1.997   0.749   7.815 -0.2964 -0.0878 -0.4019
  797MOL0     C 7506  -2.244  -0.267   8.411 -0.4107 -0.3341  0.4337
  797MOL0     C 7507  -2.124  -0.285   8.488 -0.5841  0.2310 -1.0517
  797MOL0     O 7508  -1.822  -0.044   8.583 -0.1460  0.2163  0.6968
  797MOL0     C 7509  -1.646  -0.116   8.766  0.0788  0.3800  0.6589
  797MOL0     C 7510  -1.560  -0.152   8.867  0.3374  0.1815 -0.3607
  797MOL0     N 7511  -0.974  -0.635   9.280 -0.6626  0.0600  0.2929
  797MOL0     N 7512  -0.846  -0.610   9.302 -0.8586 -0.5467 -0.3848
  797MOL0     C 7513   0.178  -0.010   8.683  0.1566  0.0281  0.1551
  797MOL0     C 7514   0.272   0.043   8.604 -0.3939  0.1275 -0.0054
  797MOL0     C 7515   0.540   0.322   8.372  0.2877  0.1275  0.2801
  797MOL0     C 7516   0.648   0.294   8.277  0.0893  0.1987 -0.4816
  797MOL0     C 7517   0.711   0.402   8.210  0.5081 -0.4357 -0.7777
  797MOL0     C 7518   0.671   0.536   8.230  1.1258 -0.7550  0.7996
  797MOL0     O 7519   0.731   0.642   8.165 -0.2762 -0.2294 -0.1431
  797MOL0     C 7520   0.833   0.619   8.067 -0.2433  0.5414 -0.2929
  797MOL0     C 7521   0.903   0.748   8.028 -0.7347  0.5176 -0.5371
  797MOL0     C 7522   0.806   0.825   7.943  0.0869 -0.2883  0.1454
  797MOL0     C 7523   0.881   0.954   7.901 -0.4099  0.3968  1.0860
  797MOL0     C 7524   0.792   1.053   7.834 -0.5757  0.3679 -0.3900
  797MOL0     C 7525   0.720   1.143   7.779  1.9485  0.6932  0.1285
  797MOL0     C 7526   0.567   0.558   8.320 -0.2130 -0.2170 -0.1964
  797MOL0     C 7527   0.500   0.456   8.385 -0.8750  0.6267  0.2128
  797MOL0     H 7528   0.141   0.365   8.595  1.1744  0.1400 -3.9880
  797MOL0     H 7529  -0.011   0.270   8.744 -1.1721 -0.8041 -0.4003
  797MOL0     H 7530  -0.127  -0.116   8.709  0.8694 -0.8474 -0.3061
  797MOL0     H 7531  -0.027  -0.172   8.851 -0.4798 -0.0264  0.2944
  797MOL0     H 7532  -0.178  -0.062   9.009  0.6812  1.9419 -0.9409
  797MOL0     H 7533  -0.285  -0.023   8.877  1.9894  0.8852 -1.0762
  797MOL0     H 7534  -0.316  -0.251   8.815 -1.4842  0.8819  0.6556
  797MOL0     H 7535  -0.211  -0.313   8.937 -2.4234 -1.9914  3.5746
  797MOL0     H 7536  -0.385  -0.227   9.110  1.1892 -0.8994 -0.1621
  797MOL0     H 7537  -0.456  -0.121   8.995 -1.3747  0.0126 -0.4488
  797MOL0     H 7538  -0.555  -0.303   8.870  0.4178  2.1789 -0.1158
  797MOL0     H 7539  -0.455  -0.420   8.969  2.1144  1.9975  1.5621
  797MOL0     H 7540  -0.640  -0.217   9.086  0.1857 -0.3393  2.3288
  797MOL0     H 7541  -0.723  -0.344   9.023 -0.2859  1.7330 -0.1213
  797MOL0     H 7542  -0.559  -0.491   9.179  0.0932 -1.2179  1.4905
  797MOL0     H 7543  -0.530  -0.336   9.256 -2.6283  3.2862 -1.1130
  797MOL0     H 7544  -0.763  -0.292   9.299  1.6278  0.6796 -0.3714
  797MOL0     H 7545  -0.690  -0.430   9.397  0.1753 -1.2293 -0.5153
  797MOL0     H 7546  -0.941  -0.347   9.129 -0.5949 -1.3065 -2.9079
  797MOL0     H 7547  -1.179  -0.492   9.058  0.5149 -3.4409  0.2656
  797MOL0     H 7548  -1.233  -0.586   9.193 -1.8359  1.1558 -1.9467
  797MOL0     H 7549  -1.198  -0.295   9.231  2.1210 -0.0740  2.5507
  797MOL0     H 7550  -1.211  -0.423   9.355 -0.9404 -1.5817 -0.1329
  797MOL0     H 7551  -1.403  -0.279   9.280 -2.2503 -1.0522  0.3572
  797MOL0     H 7552  -1.438  -0.456   9.296 -0.8544 -0.3075 -2.4946
  797MOL0     H 7553  -1.553  -0.446   9.125  1.8093 -3.5428 -0.4354
  797MOL0     H 7554  -1.390  -0.468   9.047  1.1225 -0.2883 -0.2889
  797MOL0     H 7555  -1.627  -0.469   8.920  1.4941 -0.3544 -2.3345
  797MOL0     H 7556  -1.819  -0.538   8.777 -0.5630 -0.5310 -0.7532
  797MOL0     H 7557  -1.928  -0.419   8.717  0.2132  0.6473 -0.9406
  797MOL0     H 7558  -1.791  -0.475   8.617  1.0929  0.2217  0.9023
  797MOL0     H 7559  -1.898  -0.113   8.302 -1.3943  0.6802 -1.8331
  797MOL0     H 7560  -2.081  -0.067   8.184 -2.1387  2.3350  1.1545
  797MOL0     H 7561  -2.527  -0.137   8.291 -0.5216  1.2041  1.5083
  797MOL0     H 7562  -2.407  -0.049   8.382  0.0450 -0.9831  0.0685
  797MOL0     H 7563  -2.479  -0.003   8.094  0.8161  1.7938  0.1821
  797MOL0     H 7564  -2.536   0.094   8.237 -0.7168 -1.1638 -0.1509
  797MOL0     H 7565  -2.246   0.062   8.138  0.0140  1.5320  0.9512
  797MOL0     H 7566  -2.280   0.142   8.281  1.4780 -3.3730  0.6080
  797MOL0     H 7567  -2.357   0.210   7.993  1.4820  0.4904 -0.2137
  797MOL0     H 7568  -2.424   0.306   8.116 -2.0993 -1.5770 -1.9137
  797MOL0     H 7569  -2.130   0.277   8.037  0.1607 -0.5648 -1.3066
  797MOL0     H 7570  -2.182   0.366   8.186  0.6807 -0.6182 -0.1022
  797MOL0     H 7571  -2.269   0.403   7.892 -2.7700  0.9293  1.4527
  797MOL0     H 7572  -2.310   0.514   8.023  3.1907  1.6273  3.6582
  797MOL0     H 7573  -2.043   0.457   7.897  1.3002  1.1347  0.0036
  797MOL0     H 7574  -2.062   0.569   8.049 -3.2131  1.8994  0.1488
  797MOL0     H 7575  -2.207   0.699   7.913  0.0763  0.0494  0.8781
  797MOL0     H 7576  -2.166   0.596   7.765 -0.0460  1.1642  0.1360
  797MOL0     H 7577  -2.334  -0.320   8.442 -1.2465  0.5078 -0.5013
  797MOL0     H 7578  -2.115  -0.343   8.579  2.3668  3.2208  0.8194
  797MOL0     H 7579  -1.635  -0.018   8.723  0.1050  0.1683  0.1756
  797MOL0     H 7580  -1.491  -0.073   8.896  0.5390  0.8011 -2.4095
  797MOL0     H 7581   0.179  -0.115   8.711 -0.2722 -0.1763 -0.5708
  797MOL0     H 7582   0.357  -0.017   8.571 -0.7357 -0.6622  0.5155
  797MOL0     H 7583   0.666   0.192   8.245 -3.1889 -0.3694 -0.9414
  797MOL0     H 7584   0.782   0.375   8.133  0.8088  0.4673 -0.8282
  797MOL0     H 7585   0.906   0.545   8.100 -1.4273 -0.9762 -0.9511
  797MOL0     H 7586   0.781   0.571   7.984  0.5286  1.3056 -1.2463
  797MOL0     H 7587   0.995   0.728   7.973 -0.2724 -1.8223  0.9314
  797MOL0     H 7588   0.933   0.799   8.120  2.3281  0.3962 -1.3799
  797MOL0     H 7589   0.715   0.850   7.999  1.9043  4.0735  1.5454
  797MOL0     H 7590   0.782   0.761   7.858 -0.7873 -1.0326  0.9287
  797MOL0     H 7591   0.958   0.918   7.833 -1.6609  1.8415 -1.1952
  797MOL0     H 7592   0.921   0.996   7.994 -0.0642 -1.0658  1.6310
  797MOL0     H 7593   0.651   1.219   7.748  2.2404  0.3934 -1.3013
  797MOL0     H 7594   0.511   0.650   8.308 -1.1004 -0.9354 -1.9509
  797MOL0     H 7595   0.421   0.495   8.449  0.0964  1.7126  0.7819
  798MOL0     O 7596   0.700   9.647   9.094 -0.1810  0.6803 -0.1872
  798MOL0     C 7597   0.601   9.628   9.019  0.2729  0.2132 -0.1491
  798MOL0     O 7598   0.468   9.633   9.058 -0.2860 -0.1681  0.0246
  798MOL0     C 7599   0.421   9.660   9.180  0.5445 -0.3339  0.2849
  798MOL0     C 7600   0.389   9.554   9.272  0.7071 -0.2437  0.6161
  798MOL0     C 7601   0.340   9.583   9.396 -1.4929 -0.3417 -0.4643
  798MOL0     C 7602   0.304   9.719   9.431  0.3158  0.7236 -0.0139
  798MOL0     O 7603   0.239   9.752   9.552  0.0134  0.3074 -0.0943
  798MOL0     C 7604   0.260   9.677   9.672  0.8658  0.3765  0.2667
  798MOL0     C 7605   0.229   9.736   9.800 -0.0296  0.0757 -0.1226
  798MOL0     C 7606   0.079   9.763   9.815  0.2766 -0.6330  0.3410
  798MOL0     C 7607   0.047   9.861   9.920 -0.4987 -0.9606  0.1028
  798MOL0     C 7608   0.049   9.815  10.062  0.6090  1.0080 -0.3176
  798MOL0     C 7609   0.025   9.921  10.170 -0.2571 -0.1442  0.0626
  798MOL0     C 7610  -0.031   9.850  10.305 -0.4467 -0.5251  0.2507
  798MOL0     C 7611  -0.168   9.798  10.310  0.3476 -0.0914  0.4580
  798MOL0     N 7612  -0.267   9.894  10.266  0.7594 -0.4674  0.5742
  798MOL0     C 7613  -0.353   9.960  10.352  0.3611 -0.3765  0.1695
  798MOL0     C 7614  -0.450  10.014  10.275  0.0742  0.1047 -0.0638
  798MOL0     C 7615  -0.539  10.122  10.312  0.3062 -1.2259 -0.3896
  798MOL0     C 7616  -0.516  10.191  10.446  0.2956  0.7214  0.1193
  798MOL0     C 7617  -0.579  10.338  10.459 -0.1970  1.1326  0.5608
  798MOL0     C 7618  -0.726  10.325  10.515  0.3646 -0.1113 -0.1296
  798MOL0     O 7619  -0.821  10.266  10.424 -0.3504  0.1071 -0.6875
  798MOL0     C 7620  -0.951  10.273  10.457  0.8154  0.9963  0.3296
  798MOL0     C 7621  -1.005  10.343  10.569  0.7477  0.7808  0.3089
  798MOL0     C 7622  -1.145  10.321  10.608 -0.8379 -0.0955  0.2230
  798MOL0     C 7623  -1.176  10.376  10.734  0.1667 -0.3723 -0.1296
  798MOL0     C 7624  -1.235  10.242  10.538 -1.2252  0.3801  0.8054
  798MOL0     C 7625  -1.379  10.217  10.555  0.3394 -0.4138  0.3018
  798MOL0     O 7626  -1.437  10.117  10.475  0.1799  0.2169  0.0887
  798MOL0     C 7627  -1.572  10.091  10.499  0.1446  0.5052  0.7382
  798MOL0     C 7628  -1.683  10.181  10.475  0.2119  1.2917 -0.6323
  798MOL0     C 7629  -1.815  10.145  10.511 -0.1008 -0.1383 -0.2660
  798MOL0     C 7630  -1.843  10.025  10.574  0.5326  0.2870 -0.3786
  798MOL0     O 7631  -1.954   9.981  10.637  0.5240 -0.2735  0.6512
  798MOL0     C 7632  -2.070  10.049  10.593  1.2254 -0.3930  0.3906
  798MOL0     C 7633  -2.186   9.958  10.623 -0.6897  0.0112  0.8136
  798MOL0     C 7634  -2.323  10.033  10.599 -0.1693  0.3661  0.1861
  798MOL0     C 7635  -2.438   9.935  10.591  0.4654  0.6385  0.3163
  798MOL0     C 7636  -2.570  10.015  10.543 -1.1682 -0.4204 -0.3614
  798MOL0     C 7637  -2.686   9.913  10.550  0.4654 -0.6545  0.8825
  798MOL0     C 7638  -2.813   9.963  10.482 -0.1554  0.3383  0.1909
  798MOL0     C 7639  -2.837   9.932  10.326 -0.5327  0.3481 -0.2057
  798MOL0    Cl 7640  -2.987   9.838  10.302 -0.6188  0.1103  0.2967
  798MOL0     C 7641  -1.739   9.933  10.585 -0.8577 -0.0138  0.5593
  798MOL0     C 7642  -1.606   9.961  10.547  0.2614  0.3304  0.2336
  798MOL0     O 7643  -1.447  10.295  10.622 -0.6688 -0.0800  0.2117
  798MOL0     C 7644  -1.173  10.176  10.420 -0.0875  0.5045 -0.6252
  798MOL0     C 7645  -1.034  10.184  10.392  0.8191  0.5469 -0.6177
  798MOL0     N 7646  -0.421   9.977  10.147 -0.3972  0.3121  0.5022
  798MOL0     N 7647  -0.318   9.899  10.139 -0.7068 -0.0492 -0.2807
  798MOL0     C 7648   0.327   9.820   9.337  0.5072 -0.4842 -0.3305
  798MOL0     C 7649   0.383   9.791   9.217 -1.0340  0.7269  0.6959
  798MOL0     C 7650   0.608   9.607   8.879 -0.6677  0.5024 -0.1914
  798MOL0     C 7651   0.705   9.661   8.794 -0.2496 -0.9875  0.1234
  798MOL0     C 7652   0.723   9.622   8.660  0.2412 -1.3074  0.1915
  798MOL0     C 7653   0.636   9.522   8.604 -0.4815  0.7426 -0.6277
  798MOL0     O 7654   0.649   9.485   8.474 -0.1429 -0.1990 -0.0023
  798MOL0     C 7655   0.599   9.364   8.422  0.3091 -0.9909  0.2581
  798MOL0     C 7656   0.672   9.346   8.287  0.1515  0.6081  0.2219
  798MOL0     C 7657   0.642   9.470   8.196  0.0642 -0.4578  0.2675
  798MOL0     C 7658   0.684   9.449   8.045  0.7454 -0.6758  0.5662
  798MOL0     C 7659   0.609   9.339   7.985  0.8277  0.6494  0.3454
  798MOL0     C 7660   0.545   9.245   7.939  0.1279  0.1710  0.3848
  798MOL0     C 7661   0.538   9.471   8.690 -0.4993 -0.4900  0.0702
  798MOL0     C 7662   0.521   9.522   8.822  0.7459  0.2977  0.4644
  798MOL0     H 7663   0.394   9.450   9.239 -1.4031 -0.4783  0.8795
  798MOL0     H 7664   0.322   9.504   9.468  2.0552  0.2498  1.2833
  798MOL0     H 7665   0.187   9.597   9.655  0.3031  0.8932  0.1916
  798MOL0     H 7666   0.362   9.638   9.671 -0.0484 -2.2110 -0.2896
  798MOL0     H 7667   0.248   9.670   9.885 -0.7657 -1.0374 -0.8042
  798MOL0     H 7668   0.285   9.828   9.819  3.0983 -1.4560 -1.3687
  798MOL0     H 7669   0.051   9.808   9.719 -1.0007 -2.7245 -0.3307
  798MOL0     H 7670   0.020   9.672   9.830 -1.7576  0.4540 -0.6192
  798MOL0     H 7671   0.109   9.950   9.908 -2.2344  0.3935  0.6516
  798MOL0     H 7672  -0.057   9.893   9.908 -0.1641 -0.0959 -0.6447
  798MOL0     H 7673  -0.024   9.734  10.077 -0.6698  2.1867  0.1256
  798MOL0     H 7674   0.145   9.771  10.090  0.0880 -0.8276 -1.2656
  798MOL0     H 7675   0.123   9.964  10.196  0.6756 -1.5041 -1.0202
  798MOL0     H 7676  -0.041   9.997  10.127 -1.6000 -0.1712  2.0081
  798MOL0     H 7677   0.040   9.768  10.325 -0.4864 -0.4182  0.8430
  798MOL0     H 7678  -0.017   9.929  10.379  2.3846  0.2249 -0.9462
  798MOL0     H 7679  -0.179   9.772  10.416  0.1614  1.4012  0.8311
  798MOL0     H 7680  -0.176   9.704  10.254  2.4078  0.7752 -1.4045
  798MOL0     H 7681  -0.337   9.982  10.457  3.4228  4.2137 -0.9357
  798MOL0     H 7682  -0.536  10.197  10.232  1.2144 -2.4108 -1.4978
  798MOL0     H 7683  -0.642  10.086  10.319  0.3194 -1.6767 -2.2091
  798MOL0     H 7684  -0.411  10.205  10.471  0.0736  0.1495  1.5048
  798MOL0     H 7685  -0.552  10.126  10.527 -1.2170  1.1891 -0.1549
  798MOL0     H 7686  -0.588  10.388  10.363  0.0863  0.0411 -0.0519
  798MOL0     H 7687  -0.514  10.391  10.530 -2.7167  0.7512  3.3652
  798MOL0     H 7688  -0.747  10.431  10.529 -2.9666 -0.5612 -0.9750
  798MOL0     H 7689  -0.720  10.272  10.611  0.5674 -3.8729 -2.0295
  798MOL0     H 7690  -0.943  10.401  10.637  0.5114  0.8996  0.4253
  798MOL0     H 7691  -1.245  10.458  10.713 -0.8727 -0.8909  1.1338
  798MOL0     H 7692  -1.236  10.302  10.788 -0.5058  0.0759 -0.2525
  798MOL0     H 7693  -1.092  10.411  10.794 -1.3867  0.7077  1.5518
  798MOL0     H 7694  -1.655  10.282  10.445  2.4561  0.9630  0.1495
  798MOL0     H 7695  -1.895  10.219  10.507  0.5556  0.5224 -2.0904
  798MOL0     H 7696  -2.081  10.142  10.648 -1.9707 -1.5196  1.8967
  798MOL0     H 7697  -2.071  10.063  10.484 -0.0575 -0.5412  0.3642
  798MOL0     H 7698  -2.172   9.864  10.569  0.1911  1.5422 -1.7806
  798MOL0     H 7699  -2.185   9.926  10.728 -1.0866 -1.6193  0.3337
  798MOL0     H 7700  -2.324  10.083  10.501 -0.3919 -1.6569 -0.9041
  798MOL0     H 7701  -2.334  10.101  10.684 -0.4160  2.1504 -1.2216
  798MOL0     H 7702  -2.413   9.852  10.524  1.1270  0.9845  0.1285
  798MOL0     H 7703  -2.462   9.905  10.693  0.2681  0.5473  0.2445
  798MOL0     H 7704  -2.560  10.046  10.438  0.8744  1.0460  0.2004
  798MOL0     H 7705  -2.593  10.107  10.597  1.7566  0.3024 -0.1702
  798MOL0     H 7706  -2.656   9.817  10.508  2.1113 -0.3020  1.1690
  798MOL0     H 7707  -2.717   9.897  10.654 -0.0098 -1.7687  0.5838
  798MOL0     H 7708  -2.816  10.070  10.504  2.7267  0.3955  0.7551
  798MOL0     H 7709  -2.895   9.911  10.531 -0.6596  0.0774 -0.8940
  798MOL0     H 7710  -2.754   9.881  10.276 -1.3264  1.1387 -2.4703
  798MOL0     H 7711  -2.848  10.028  10.275  1.9641  0.7864 -0.0188
  798MOL0     H 7712  -1.759   9.836  10.628 -0.9173 -0.1893  0.1448
  798MOL0     H 7713  -1.531   9.886  10.566  0.5240  0.2917 -0.8958
  798MOL0     H 7714  -1.227  10.110  10.354  0.3223 -2.0585  1.4184
  798MOL0     H 7715  -0.987  10.130  10.311  0.4853  1.5464 -1.4988
  798MOL0     H 7716   0.280   9.916   9.356 -1.1592 -1.3419  0.1064
  798MOL0     H 7717   0.401   9.870   9.145  0.6968 -0.3208 -0.0952
  798MOL0     H 7718   0.771   9.732   8.842 -0.5422 -1.2496  0.9430
  798MOL0     H 7719   0.797   9.663   8.593 -3.3963  0.3849 -3.2225
  798MOL0     H 7720   0.613   9.286   8.497  0.7537  0.9165  2.3014
  798MOL0     H 7721   0.494   9.381   8.400  0.6933  2.1130  0.2963
  798MOL0     H 7722   0.635   9.256   8.236  1.8363  0.1061 -0.1646
  798MOL0     H 7723   0.777   9.336   8.317  0.6401  2.9485 -0.5097
  798MOL0     H 7724   0.709   9.544   8.242  3.2049 -1.5580 -2.1197
  798MOL0     H 7725   0.541   9.510   8.196  0.1971 -0.1024 -0.3835
  798MOL0     H 7726   0.792   9.444   8.028  0.7396 -0.9265  0.5995
  798MOL0     H 7727   0.651   9.544   8.003 -4.1564 -1.5543  1.7564
  798MOL0     H 7728   0.490   9.174   7.882 -0.0367 -0.1733  0.9641
  798MOL0     H 7729   0.479   9.386   8.656 -0.0628 -0.4838 -0.7235
  798MOL0     H 7730   0.446   9.482   8.889  2.2548 -4.0983 -0.1163
  799MOL0     O 7731   7.699   5.698   4.578 -0.2400  0.4946 -0.3460
  799MOL0     C 7732   7.782   5.776   4.627 -0.9849  1.0911  0.3246
  799MOL0     O 7733   7.768   5.833   4.747 -0.7582 -0.3022  0.1815
  799MOL0     C 7734   7.666   5.810   4.841 -0.0129 -0.1820  0.3992
  799MOL0     C 7735   7.658   5.894   4.951  0.3324  0.5003 -0.4018
  799MOL0     C 7736   7.572   5.875   5.059 -1.2652 -0.3784 -1.0564
  799MOL0     C 7737   7.474   5.781   5.048  0.4590  0.6721 -0.5641
  799MOL0     O 7738   7.370   5.754   5.135 -0.1874  0.1120  0.5396
  799MOL0     C 7739   7.365   5.842   5.247  0.5320  0.2475 -1.0218
  799MOL0     C 7740   7.228   5.830   5.308 -0.2134  0.0335 -1.2879
  799MOL0     C 7741   7.212   5.703   5.389  0.0263 -0.3736 -0.0749
  799MOL0     C 7742   7.064   5.681   5.419  0.1822 -0.1707  0.1796
  799MOL0     C 7743   7.082   5.564   5.510 -0.0913  0.1219 -0.3144
  799MOL0     C 7744   6.956   5.482   5.539  0.1062  0.5632  0.7327
  799MOL0     C 7745   6.832   5.552   5.584 -0.1714 -0.4543  0.0386
  799MOL0     C 7746   6.716   5.475   5.625  0.2211 -0.1643 -0.3542
  799MOL0     N 7747   6.607   5.536   5.693  0.0156  0.3261  0.3963
  799MOL0     C 7748   6.583   5.673   5.706  1.1720  0.3382  1.0205
  799MOL0     C 7749   6.473   5.676   5.782 -1.0182 -0.3711 -0.3268
  799MOL0     C 7750   6.408   5.802   5.830  0.1663 -1.0746 -0.3635
  799MOL0     C 7751   6.414   5.837   5.976  0.5559  0.1416 -0.4994
  799MOL0     C 7752   6.406   5.990   5.998  1.1354 -0.1718  0.5025
  799MOL0     C 7753   6.311   6.075   5.909  0.2083 -0.1365 -0.1086
  799MOL0     O 7754   6.318   6.210   5.954 -0.4337  0.0731  0.9517
  799MOL0     C 7755   6.441   6.280   5.949  0.3090  0.2915  0.0422
  799MOL0     C 7756   6.451   6.379   6.046 -0.2545  0.7481  0.0745
  799MOL0     C 7757   6.561   6.461   6.066  0.2720 -0.0792 -0.5191
  799MOL0     C 7758   6.548   6.554   6.186 -0.7409 -1.0521 -0.2002
  799MOL0     C 7759   6.663   6.450   5.973 -0.5092  0.9110  0.3215
  799MOL0     C 7760   6.786   6.531   5.982 -0.5586  0.0617  0.7027
  799MOL0     O 7761   6.895   6.457   5.977 -0.4748  0.1607 -0.3750
  799MOL0     C 7762   7.022   6.499   5.953  0.0445 -0.3102 -0.1572
  799MOL0     C 7763   7.061   6.577   5.841 -0.0738 -0.2126 -0.1133
  799MOL0     C 7764   7.191   6.620   5.826 -0.0938  1.0664  0.3113
  799MOL0     C 7765   7.296   6.566   5.906  0.2475  0.0872  1.2702
  799MOL0     O 7766   7.422   6.614   5.873  0.7362 -0.4913 -0.4129
  799MOL0     C 7767   7.535   6.526   5.883  0.0213 -0.2882 -0.9358
  799MOL0     C 7768   7.654   6.591   5.817 -0.0253 -0.2084  0.1202
  799MOL0     C 7769   7.780   6.504   5.830 -0.1415 -0.6186 -0.0620
  799MOL0     C 7770   7.822   6.483   5.969 -0.1853  0.2004  0.4290
  799MOL0     C 7771   7.962   6.425   5.976  0.2653 -0.0327  0.1187
  799MOL0     C 7772   7.961   6.278   5.915 -0.1113 -0.1747 -0.1068
  799MOL0     C 7773   8.096   6.199   5.933 -0.0120  0.0809  1.0420
  799MOL0     C 7774   8.212   6.264   5.857  0.2123 -0.0196 -0.1601
  799MOL0    Cl 7775   8.306   6.129   5.781  0.1672 -0.4565 -0.3133
  799MOL0     C 7776   7.262   6.484   6.017 -0.5897  0.3184  0.4140
  799MOL0     C 7777   7.121   6.460   6.046 -0.5512  0.2040  1.2669
  799MOL0     O 7778   6.783   6.656   5.992 -0.5015 -0.0482 -0.4005
  799MOL0     C 7779   6.655   6.352   5.870  0.5709 -0.6610 -0.4681
  799MOL0     C 7780   6.541   6.271   5.857 -0.1430 -0.1840 -0.0599
  799MOL0     N 7781   6.425   5.545   5.803  0.5360 -0.8030 -0.4915
  799MOL0     N 7782   6.505   5.463   5.748 -0.0522 -0.0687  0.6649
  799MOL0     C 7783   7.480   5.697   4.939 -0.1666  0.0413  0.5896
  799MOL0     C 7784   7.573   5.702   4.830  0.2942  0.2737  0.1077
  799MOL0     C 7785   7.896   5.811   4.539  0.4280  0.1074 -0.1683
  799MOL0     C 7786   8.003   5.888   4.583 -0.3847 -1.2742 -0.1347
  799MOL0     C 7787   8.101   5.916   4.488  0.0498 -0.3689 -1.6682
  799MOL0     C 7788   8.102   5.868   4.357  0.5806 -0.2604  0.3356
  799MOL0     O 7789   8.188   5.908   4.258 -0.4325 -0.0480  0.0199
  799MOL0     C 7790   8.319   5.924   4.313  0.4776 -0.3938  0.0341
  799MOL0     C 7791   8.413   5.948   4.188  0.0239 -0.1035  0.1163
  799MOL0     C 7792   8.356   6.041   4.081  0.0261 -0.6856  0.1781
  799MOL0     C 7793   8.468   6.111   3.994 -0.0219 -1.0050  0.2241
  799MOL0     C 7794   8.497   6.039   3.872 -0.7683  0.9481 -0.7725
  799MOL0     C 7795   8.514   6.006   3.758 -0.0847 -0.2006 -0.1848
  799MOL0     C 7796   7.990   5.800   4.317  0.2954  0.7127  0.0689
  799MOL0     C 7797   7.878   5.778   4.403  0.4011  0.4143  0.0721
  799MOL0     H 7798   7.724   5.979   4.967  0.0378  0.8739 -1.1262
  799MOL0     H 7799   7.578   5.935   5.150 -2.9274 -3.5718  1.3929
  799MOL0     H 7800   7.441   5.831   5.324 -0.5074  1.5921  0.2669
  799MOL0     H 7801   7.376   5.946   5.214  0.0753 -0.0674 -2.2062
  799MOL0     H 7802   7.216   5.917   5.374 -1.2486 -0.9962 -0.0723
  799MOL0     H 7803   7.149   5.838   5.232  0.8784  2.5225 -2.2932
  799MOL0     H 7804   7.257   5.617   5.338  0.7922 -0.1554  0.2164
  799MOL0     H 7805   7.267   5.714   5.483 -0.7604 -2.4473  0.7069
  799MOL0     H 7806   7.013   5.761   5.473 -0.7120 -0.8601  0.3684
  799MOL0     H 7807   7.007   5.653   5.330  0.1855  0.6284 -0.0788
  799MOL0     H 7808   7.155   5.494   5.467 -1.6572  0.2611 -3.5205
  799MOL0     H 7809   7.136   5.603   5.597  1.5624  0.3504 -1.3951
  799MOL0     H 7810   6.938   5.431   5.444 -2.6259 -0.6175  1.8008
  799MOL0     H 7811   6.978   5.406   5.615 -2.6138  1.5676  2.6749
  799MOL0     H 7812   6.859   5.617   5.668 -4.4158  1.3066  0.2521
  799MOL0     H 7813   6.790   5.616   5.506  0.2494  0.1844  0.3249
  799MOL0     H 7814   6.755   5.401   5.696 -2.6788 -0.7420  0.7736
  799MOL0     H 7815   6.680   5.412   5.544 -3.0078 -1.8101  2.1234
  799MOL0     H 7816   6.632   5.766   5.680  0.8130  1.4004  3.8086
  799MOL0     H 7817   6.458   5.888   5.784 -0.3425 -0.2755  0.5429
  799MOL0     H 7818   6.305   5.804   5.794  0.6675  1.4213 -1.9390
  799MOL0     H 7819   6.511   5.802   6.012  1.1706  1.3361 -0.9346
  799MOL0     H 7820   6.336   5.788   6.034  1.0309  2.7907  2.6834
  799MOL0     H 7821   6.506   6.031   5.979 -0.0440  1.4839 -2.8910
  799MOL0     H 7822   6.375   6.003   6.102  3.4069 -1.6940  1.4527
  799MOL0     H 7823   6.214   6.030   5.930 -0.9843  2.7628  1.2738
  799MOL0     H 7824   6.327   6.063   5.802  1.6202  1.2487 -0.0936
  799MOL0     H 7825   6.380   6.381   6.128 -0.3401  0.2688  0.0149
  799MOL0     H 7826   6.628   6.627   6.193 -1.6005 -0.2868  2.8078
  799MOL0     H 7827   6.448   6.599   6.178  0.0256  0.7726  0.1287
  799MOL0     H 7828   6.537   6.513   6.286 -1.8184  1.4002  0.7649
  799MOL0     H 7829   6.970   6.616   5.797 -0.1277 -1.9533 -1.6536
  799MOL0     H 7830   7.206   6.686   5.741 -2.5403  1.5785  0.1872
  799MOL0     H 7831   7.547   6.505   5.990  0.9706 -0.5225 -1.0785
  799MOL0     H 7832   7.519   6.430   5.834 -0.6265  0.7971 -2.9718
  799MOL0     H 7833   7.633   6.616   5.713 -0.7075 -2.0686 -0.2308
  799MOL0     H 7834   7.670   6.689   5.863 -0.2706 -0.4011  0.6244
  799MOL0     H 7835   7.859   6.569   5.789 -0.5487 -0.0824 -0.0091
  799MOL0     H 7836   7.760   6.410   5.778 -2.1950  0.0604 -0.6171
  799MOL0     H 7837   7.825   6.576   6.027  0.0504  1.4256 -1.4547
  799MOL0     H 7838   7.739   6.426   6.012  1.2529 -0.2837  2.7944
  799MOL0     H 7839   7.990   6.413   6.081 -0.9575 -0.2509  0.4425
  799MOL0     H 7840   8.038   6.493   5.938  0.3981  0.1289  0.6598
  799MOL0     H 7841   7.880   6.217   5.957  0.3887 -0.6157  0.2421
  799MOL0     H 7842   7.942   6.282   5.808  3.4256 -3.1392 -1.0643
  799MOL0     H 7843   8.080   6.099   5.892  3.5864 -1.0779  2.1144
  799MOL0     H 7844   8.129   6.191   6.037 -1.4911  0.2740  1.5516
  799MOL0     H 7845   8.264   6.329   5.928 -0.3216  0.0250  0.1960
  799MOL0     H 7846   8.173   6.316   5.769 -0.0519  0.8035  0.4347
  799MOL0     H 7847   7.334   6.447   6.090  0.1838  0.0171 -0.4810
  799MOL0     H 7848   7.108   6.405   6.138  2.7119 -1.7900  0.6875
  799MOL0     H 7849   6.733   6.342   5.795  2.2151 -0.7396  1.1772
  799MOL0     H 7850   6.533   6.207   5.770 -0.0397  2.4076 -2.0887
  799MOL0     H 7851   7.393   5.633   4.927 -0.2895  0.3904 -0.4742
  799MOL0     H 7852   7.568   5.629   4.751 -0.0750 -1.9312  2.0717
  799MOL0     H 7853   8.004   5.933   4.682 -0.7913 -1.6895  0.0604
  799MOL0     H 7854   8.180   5.977   4.529 -0.6283 -0.6674  0.2073
  799MOL0     H 7855   8.325   6.015   4.374 -1.7755 -0.2713  0.1507
  799MOL0     H 7856   8.345   5.832   4.366  1.1797  0.1951  0.7508
  799MOL0     H 7857   8.433   5.848   4.148  0.8042  0.2126 -0.2952
  799MOL0     H 7858   8.516   5.971   4.215  0.7889 -1.3532 -1.5243
  799MOL0     H 7859   8.286   6.111   4.128 -3.1100 -0.4154 -4.3234
  799MOL0     H 7860   8.296   5.980   4.013  2.3537 -1.0359 -1.6479
  799MOL0     H 7861   8.564   6.126   4.045  1.5214  0.5807 -2.8557
  799MOL0     H 7862   8.439   6.211   3.959  2.5996 -0.6577 -1.1917
  799MOL0     H 7863   8.519   5.982   3.654 -0.4530  2.1215 -0.7799
  799MOL0     H 7864   7.983   5.768   4.213  0.2499 -0.2306  0.3480
  799MOL0     H 7865   7.793   5.717   4.377  0.8829 -1.0200  1.6791
  800MOL0     O 7866  10.039   3.663   7.183  0.2471  0.2071 -0.2202
  800MOL0     C 7867   9.927   3.718   7.184  0.4670  0.0757 -0.9521
  800MOL0     O 7868   9.888   3.842   7.123 -0.1659 -0.3325 -0.1767
  800MOL0     C 7869   9.995   3.897   7.054  0.2322  0.0502  0.0309
  800MOL0     C 7870  10.027   3.863   6.918  0.2567  0.7069 -0.0251
  800MOL0     C 7871  10.136   3.921   6.852  0.1229 -1.1618 -0.4468
  800MOL0     C 7872  10.219   4.009   6.920 -0.9007 -1.1820  0.2649
  800MOL0     O 7873  10.320   4.080   6.856 -0.1599 -0.7115 -0.3634
  800MOL0     C 7874  10.365   4.026   6.735 -0.5709  0.1043 -0.0035
  800MOL0     C 7875  10.493   4.101   6.694  0.0864 -0.6453  0.5138
  800MOL0     C 7876  10.580   4.022   6.604 -0.0148  0.5624 -0.0455
  800MOL0     C 7877  10.509   3.992   6.463  0.7475  0.1533  0.2534
  800MOL0     C 7878  10.601   3.955   6.353  0.2274  0.6705 -0.0436
  800MOL0     C 7879  10.536   3.932   6.216 -0.0812  0.4999  1.0868
  800MOL0     C 7880  10.626   3.866   6.107 -0.3190  0.3103  0.1048
  800MOL0     C 7881  10.596   3.910   5.970 -0.1887 -0.8058  0.1562
  800MOL0     N 7882  10.475   3.838   5.919  0.3449 -0.3542 -0.2817
  800MOL0     C 7883  10.334   3.867   5.931  0.4197 -0.9372 -0.0272
  800MOL0     C 7884  10.270   3.768   5.866  0.0993 -0.2966  0.1408
  800MOL0     C 7885  10.123   3.759   5.859 -0.0801  0.1038 -0.7421
  800MOL0     C 7886  10.084   3.688   5.985 -0.2546  0.6168  0.1364
  800MOL0     C 7887   9.935   3.689   6.006  0.8478  0.0631  0.6951
  800MOL0     C 7888   9.880   3.818   6.084 -0.5372  0.3803  0.2658
  800MOL0     O 7889   9.837   3.904   5.979  0.9668 -0.4435 -0.8665
  800MOL0     C 7890   9.699   3.911   5.977  0.0852 -1.4203 -0.0849
  800MOL0     C 7891   9.647   4.034   6.016  0.1349  0.2132  0.4959
  800MOL0     C 7892   9.510   4.055   6.019  0.2493 -0.7245  0.1639
  800MOL0     C 7893   9.471   4.197   6.054  0.1514 -0.1342  0.8654
  800MOL0     C 7894   9.424   3.952   5.978  0.5518  0.1688 -0.4251
  800MOL0     C 7895   9.272   3.954   5.989  0.2062 -0.2063 -0.6724
  800MOL0     O 7896   9.210   4.071   6.023  0.2455 -0.6887 -0.8826
  800MOL0     C 7897   9.069   4.087   6.051 -0.3857 -0.1127 -0.1209
  800MOL0     C 7898   9.017   4.219   6.041 -0.1674 -0.1154 -0.7714
  800MOL0     C 7899   8.878   4.241   6.059 -0.0849 -0.5093 -0.5541
  800MOL0     C 7900   8.799   4.142   6.111 -0.0653  0.2586  0.7156
  800MOL0     O 7901   8.667   4.171   6.124  0.6751 -0.2460 -0.2119
  800MOL0     C 7902   8.579   4.080   6.189 -0.0391  1.0341 -0.3829
  800MOL0     C 7903   8.587   4.072   6.340 -0.8426 -0.1616 -0.4347
  800MOL0     C 7904   8.562   4.199   6.407  0.4874 -0.0783 -0.0306
  800MOL0     C 7905   8.649   4.214   6.537 -0.6508  0.2578 -0.8981
  800MOL0     C 7906   8.603   4.330   6.624 -0.9854 -0.0520  0.4753
  800MOL0     C 7907   8.703   4.359   6.741  0.2303  0.4829 -0.6879
  800MOL0     C 7908   8.674   4.493   6.797 -0.5034 -0.2635 -0.9256
  800MOL0     C 7909   8.790   4.550   6.873  0.3503  0.2818  0.5102
  800MOL0    Cl 7910   8.925   4.591   6.763 -0.1752 -0.2984 -0.1286
  800MOL0     C 7911   8.851   4.017   6.132  0.3285  0.1587  0.6128
  800MOL0     C 7912   8.983   3.990   6.100  1.4130 -1.1493 -0.2953
  800MOL0     O 7913   9.212   3.851   5.969 -0.4455  0.3736 -0.0138
  800MOL0     C 7914   9.477   3.822   5.949 -1.0636 -0.2508  0.6982
  800MOL0     C 7915   9.616   3.808   5.935  0.5522 -1.1026  0.3519
  800MOL0     N 7916  10.365   3.687   5.815  0.0947 -0.2829  0.2757
  800MOL0     N 7917  10.486   3.725   5.852  0.0632 -0.0445 -0.1014
  800MOL0     C 7918  10.194   4.032   7.051 -0.1283 -0.5722 -0.1078
  800MOL0     C 7919  10.082   3.986   7.116  0.8077  0.1120  0.0201
  800MOL0     C 7920   9.819   3.652   7.247  0.1547 -0.1834  0.3830
  800MOL0     C 7921   9.692   3.711   7.261 -0.2517 -0.6029 -0.7407
  800MOL0     C 7922   9.599   3.649   7.345 -0.6836 -0.5455  0.3982
  800MOL0     C 7923   9.627   3.523   7.403  0.5464 -0.4188  0.2306
  800MOL0     O 7924   9.529   3.466   7.469  0.2115  0.1539 -1.0085
  800MOL0     C 7925   9.489   3.521   7.596  0.5285 -0.2384  0.1398
  800MOL0     C 7926   9.429   3.403   7.669  0.4117  0.7948  0.6527
  800MOL0     C 7927   9.291   3.348   7.630 -0.4539 -0.1148  0.5003
  800MOL0     C 7928   9.192   3.448   7.679  0.4593  0.7596 -0.0395
  800MOL0     C 7929   9.050   3.398   7.680 -0.8960 -0.4182 -1.1513
  800MOL0     C 7930   8.937   3.358   7.675 -0.9232 -0.1716 -0.4938
  800MOL0     C 7931   9.745   3.459   7.378 -0.6615  0.0689 -0.1910
  800MOL0     C 7932   9.841   3.527   7.307  0.2592 -0.4287  0.3744
  800MOL0     H 7933   9.964   3.786   6.876  0.4426 -0.7529  2.2133
  800MOL0     H 7934  10.142   3.913   6.744 -1.8781  0.2119 -0.7179
  800MOL0     H 7935  10.387   3.919   6.747  0.5397  0.1499 -1.4497
  800MOL0     H 7936  10.307   4.030   6.643  0.0100 -3.9882 -0.7481
  800MOL0     H 7937  10.453   4.196   6.658  0.3734  0.2741  2.5045
  800MOL0     H 7938  10.553   4.125   6.782 -1.2856  1.9337  0.8197
  800MOL0     H 7939  10.666   4.087   6.588 -0.4359  1.2868  0.5736
  800MOL0     H 7940  10.607   3.929   6.655 -0.5795  0.9261  0.9496
  800MOL0     H 7941  10.437   3.910   6.475  0.7514  0.3528  1.7875
  800MOL0     H 7942  10.447   4.079   6.437 -0.1547 -0.6064 -0.2205
  800MOL0     H 7943  10.685   4.026   6.354  1.3433 -0.6147  0.5190
  800MOL0     H 7944  10.646   3.864   6.393 -0.8070 -0.2172 -0.8418
  800MOL0     H 7945  10.445   3.875   6.235 -0.6528 -0.1918 -2.8676
  800MOL0     H 7946  10.504   4.028   6.174  1.5373 -0.0816 -1.6930
  800MOL0     H 7947  10.730   3.889   6.132 -0.5608  1.3411  0.1919
  800MOL0     H 7948  10.614   3.757   6.110  1.4027  0.0405 -1.0712
  800MOL0     H 7949  10.676   3.878   5.903 -1.1673  0.3927 -1.6651
  800MOL0     H 7950  10.594   4.018   5.956 -0.9025 -0.9227 -0.7177
  800MOL0     H 7951  10.285   3.947   5.986  1.2779  1.0829 -2.0606
  800MOL0     H 7952  10.079   3.859   5.853 -1.1838  0.0542  3.4863
  800MOL0     H 7953  10.098   3.709   5.765 -3.1257  4.4902 -2.6221
  800MOL0     H 7954  10.140   3.719   6.074  2.1682 -2.8230  0.0104
  800MOL0     H 7955  10.125   3.588   5.969  1.4526  1.6217 -2.4614
  800MOL0     H 7956   9.904   3.609   6.074 -4.4795  2.3141  1.3618
  800MOL0     H 7957   9.881   3.668   5.914 -1.0655  2.3804  1.2117
  800MOL0     H 7958   9.962   3.870   6.135  0.8465  0.2111 -1.6698
  800MOL0     H 7959   9.798   3.802   6.154  0.5467  0.4480  1.6012
  800MOL0     H 7960   9.716   4.105   6.061  2.3460 -2.6154  1.8453
  800MOL0     H 7961   9.552   4.270   6.053 -1.8520  2.2003  0.9226
  800MOL0     H 7962   9.402   4.231   5.976  0.9518 -1.9969 -0.7438
  800MOL0     H 7963   9.420   4.205   6.151 -0.9065  4.5241  0.1715
  800MOL0     H 7964   9.077   4.307   6.016  1.6182 -0.2597  2.4305
  800MOL0     H 7965   8.843   4.342   6.043 -0.6612 -0.4211  1.1107
  800MOL0     H 7966   8.479   4.114   6.160  0.5718  1.3199 -2.2978
  800MOL0     H 7967   8.592   3.980   6.146 -2.5771  1.7863 -3.2751
  800MOL0     H 7968   8.535   3.987   6.387  2.7882 -2.8498 -0.8047
  800MOL0     H 7969   8.694   4.061   6.359 -0.6744  2.0412  0.0592
  800MOL0     H 7970   8.455   4.206   6.431  0.1284  0.3778 -1.6419
  800MOL0     H 7971   8.601   4.283   6.349  2.2437 -0.5710  0.3702
  800MOL0     H 7972   8.647   4.128   6.604 -2.1126 -0.0147 -1.2555
  800MOL0     H 7973   8.755   4.222   6.510 -0.6128  0.0478 -0.8136
  800MOL0     H 7974   8.499   4.322   6.656 -1.7881 -0.4967 -2.0660
  800MOL0     H 7975   8.617   4.415   6.557  2.1681 -1.7513 -1.2273
  800MOL0     H 7976   8.707   4.277   6.813  0.7207  1.4827  0.4685
  800MOL0     H 7977   8.802   4.371   6.696  1.4080 -0.4206  1.5200
  800MOL0     H 7978   8.599   4.473   6.874  0.8513  2.7987  1.4149
  800MOL0     H 7979   8.643   4.565   6.721 -0.2272  0.0852 -0.7114
  800MOL0     H 7980   8.816   4.473   6.947 -1.2756 -1.7870 -0.9699
  800MOL0     H 7981   8.764   4.645   6.921 -0.5248  0.8467 -1.0280
  800MOL0     H 7982   8.795   3.934   6.174 -3.3353  2.2868  0.3784
  800MOL0     H 7983   9.017   3.887   6.104 -0.1241 -1.8856 -3.3940
  800MOL0     H 7984   9.422   3.730   5.933 -1.9041  0.7442 -3.0835
  800MOL0     H 7985   9.654   3.711   5.903 -1.3041 -1.6612 -0.2626
  800MOL0     H 7986  10.247   4.113   7.101 -0.7354  0.5586 -1.2515
  800MOL0     H 7987  10.070   4.026   7.217 -3.1962  3.2484 -1.3809
  800MOL0     H 7988   9.663   3.812   7.234 -1.5498 -0.8001 -0.1800
  800MOL0     H 7989   9.498   3.688   7.349 -0.0632  1.8038 -2.6854
  800MOL0     H 7990   9.570   3.569   7.651  0.2712  0.6330 -0.2299
  800MOL0     H 7991   9.411   3.595   7.576  0.1028 -0.9174 -0.8281
  800MOL0     H 7992   9.433   3.438   7.772  0.8086  0.5824  0.7157
  800MOL0     H 7993   9.503   3.323   7.658  1.9657  2.3082 -0.5445
  800MOL0     H 7994   9.269   3.248   7.668  0.9283 -0.6076  0.0553
  800MOL0     H 7995   9.280   3.331   7.522 -0.5693  1.1910  0.2898
  800MOL0     H 7996   9.204   3.533   7.611  1.9483  0.6138  0.0082
  800MOL0     H 7997   9.220   3.485   7.778  1.6462 -0.2961  0.0438
  800MOL0     H 7998   8.838   3.318   7.680 -0.5396 -1.5910 -2.5540
  800MOL0     H 7999   9.766   3.362   7.424  0.6660  0.0096 -0.8796
  800MOL0     H 8000   9.940   3.484   7.295  0.7254  0.5193  0.7663
  801MOL0     O 8001   1.911   6.762   3.467 -0.3826 -0.0097 -0.5591
  801MOL0     C 8002   1.914   6.638   3.502 -0.4637 -0.8392 -0.4733
  801MOL0     O 8003   1.842   6.538   3.459  0.0633 -0.1023  0.3232
  801MOL0     C 8004   1.729   6.567   3.394  0.9685  0.1076 -0.0639
  801MOL0     C 8005   1.611   6.617   3.446  0.2791  0.1775  0.5060
  801MOL0     C 8006   1.501   6.638   3.367  0.0936  0.5697  0.4624
  801MOL0     C 8007   1.505   6.601   3.231 -0.9291  0.1362  0.2027
  801MOL0     O 8008   1.389   6.612   3.149 -0.5926 -0.4763 -0.6375
  801MOL0     C 8009   1.269   6.670   3.206  0.0414 -0.0162 -0.6123
  801MOL0     C 8010   1.162   6.699   3.089 -0.3820  0.4085  0.2285
  801MOL0     C 8011   1.048   6.775   3.147  1.0008 -0.9062  0.9428
  801MOL0     C 8012   0.928   6.786   3.056  0.6370 -0.2597 -1.3644
  801MOL0     C 8013   0.823   6.888   3.106  0.6622  0.7127  0.2931
  801MOL0     C 8014   0.783   6.865   3.252 -0.0043 -0.1125  0.8214
  801MOL0     C 8015   0.700   6.730   3.265 -0.2272 -0.1558 -0.3789
  801MOL0     C 8016   0.668   6.696   3.412  0.2718  0.6830  0.2602
  801MOL0     N 8017   0.784   6.655   3.495 -0.6884  0.1631  0.0539
  801MOL0     C 8018   0.837   6.533   3.506 -0.2931 -0.0064  0.3536
  801MOL0     C 8019   0.947   6.553   3.581  0.3130 -0.5392  0.7831
  801MOL0     C 8020   1.054   6.450   3.601 -0.8482  0.8261 -1.0704
  801MOL0     C 8021   1.190   6.494   3.566  0.0280 -0.2909 -0.0137
  801MOL0     C 8022   1.295   6.394   3.619 -0.1742  0.8510  0.5812
  801MOL0     C 8023   1.351   6.416   3.762 -1.1046 -0.0487 -0.0048
  801MOL0     O 8024   1.267   6.359   3.857  1.2882  0.4941  0.3800
  801MOL0     C 8025   1.292   6.350   3.990  0.0913 -0.1015 -0.4606
  801MOL0     C 8026   1.414   6.401   4.042 -0.0902  0.6458 -0.3047
  801MOL0     C 8027   1.438   6.413   4.176  0.2096 -0.0279 -0.0112
  801MOL0     C 8028   1.572   6.456   4.215 -0.6315 -0.7784 -0.1502
  801MOL0     C 8029   1.344   6.365   4.272  1.2861  0.6221  0.8455
  801MOL0     C 8030   1.363   6.364   4.425 -0.0565 -0.3220 -0.1964
  801MOL0     O 8031   1.264   6.324   4.494 -0.2004  0.6436 -0.8445
  801MOL0     C 8032   1.260   6.305   4.628  0.4355 -0.3126 -0.6142
  801MOL0     C 8033   1.365   6.292   4.716  0.1514 -0.2608 -0.0278
  801MOL0     C 8034   1.353   6.245   4.845  0.1339  0.5480 -0.5800
  801MOL0     C 8035   1.229   6.214   4.898 -0.4465 -0.6800 -0.3062
  801MOL0     O 8036   1.206   6.160   5.021 -0.8504  0.1925  0.3869
  801MOL0     C 8037   1.283   6.203   5.139  0.9222 -0.4992  0.2041
  801MOL0     C 8038   1.209   6.142   5.260 -1.4211  0.1014 -0.7630
  801MOL0     C 8039   1.264   6.202   5.396 -0.2064  0.1070 -0.2583
  801MOL0     C 8040   1.409   6.149   5.440 -0.3135  0.6743 -0.3379
  801MOL0     C 8041   1.404   6.044   5.563 -0.4462  0.6867  0.1506
  801MOL0     C 8042   1.302   5.930   5.528 -0.3551 -0.4952  0.4039
  801MOL0     C 8043   1.284   5.829   5.654  0.7192 -0.4486 -0.5153
  801MOL0     C 8044   1.164   5.863   5.740 -0.3258 -0.3325  0.2499
  801MOL0    Cl 8045   1.117   5.718   5.832 -0.2484 -0.2360  0.3239
  801MOL0     C 8046   1.117   6.236   4.819 -0.3263  0.0138  0.5345
  801MOL0     C 8047   1.139   6.271   4.680  0.4471 -0.2112 -0.3791
  801MOL0     O 8048   1.461   6.422   4.468 -0.0104  0.0250  0.1749
  801MOL0     C 8049   1.224   6.317   4.216  0.4644  0.2244  0.6879
  801MOL0     C 8050   1.196   6.305   4.083 -0.5847 -0.3987 -0.0197
  801MOL0     N 8051   0.947   6.686   3.616 -0.9759 -1.2270 -0.1283
  801MOL0     N 8052   0.851   6.752   3.566  0.0865 -0.0398 -0.5760
  801MOL0     C 8053   1.620   6.540   3.178  0.0434  0.2741  0.6841
  801MOL0     C 8054   1.732   6.534   3.257 -0.6655  0.2552 -1.0138
  801MOL0     C 8055   2.015   6.601   3.605  0.3993  0.6464 -0.2535
  801MOL0     C 8056   2.047   6.472   3.645  0.0221 -0.1018 -0.6603
  801MOL0     C 8057   2.138   6.444   3.756 -0.5067 -0.2137  0.7441
  801MOL0     C 8058   2.192   6.548   3.830  0.2909  0.1942 -0.5828
  801MOL0     O 8059   2.278   6.546   3.946  0.3817  0.7999  0.4982
  801MOL0     C 8060   2.299   6.415   4.008 -0.6899  0.0493 -0.4775
  801MOL0     C 8061   2.379   6.436   4.138  0.8799  0.4709 -0.2866
  801MOL0     C 8062   2.350   6.332   4.252  0.3805 -0.3381 -0.3938
  801MOL0     C 8063   2.355   6.182   4.215 -0.1725 -0.5206  0.1422
  801MOL0     C 8064   2.491   6.149   4.185  0.0042  0.0291 -0.0220
  801MOL0     C 8065   2.598   6.102   4.172 -0.3312 -0.3589 -0.6807
  801MOL0     C 8066   2.152   6.671   3.794 -0.5266 -0.3659  0.3917
  801MOL0     C 8067   2.069   6.697   3.687  0.0932 -0.4290  0.5436
  801MOL0     H 8068   1.619   6.638   3.552 -0.2875  1.0266  0.3856
  801MOL0     H 8069   1.423   6.702   3.408  2.0702  2.5104  1.3909
  801MOL0     H 8070   1.226   6.602   3.280 -0.9707  0.7931 -0.4160
  801MOL0     H 8071   1.288   6.765   3.258 -0.5799 -1.0665  1.6668
  801MOL0     H 8072   1.211   6.745   3.003 -2.6904  0.4911 -1.1326
  801MOL0     H 8073   1.129   6.602   3.050  0.9627  0.7750 -1.9801
  801MOL0     H 8074   1.023   6.732   3.244  2.3521 -1.3206  1.1251
  801MOL0     H 8075   1.086   6.878   3.157 -2.1212  0.1885  3.2947
  801MOL0     H 8076   0.960   6.828   2.960  0.3170 -0.2108 -1.4496
  801MOL0     H 8077   0.876   6.692   3.036 -1.5129  0.4555  0.4433
  801MOL0     H 8078   0.859   6.990   3.088 -0.8552  1.4738  1.3720
  801MOL0     H 8079   0.736   6.879   3.041  0.5673  3.4622 -0.0834
  801MOL0     H 8080   0.865   6.871   3.324  0.0913 -0.4608  0.7419
  801MOL0     H 8081   0.722   6.952   3.281  2.6171  2.0173  0.2865
  801MOL0     H 8082   0.603   6.741   3.216 -0.7874 -2.4505  0.1312
  801MOL0     H 8083   0.745   6.641   3.221 -1.1070 -1.6049  1.5158
  801MOL0     H 8084   0.602   6.609   3.408  3.2058 -1.6805 -1.0415
  801MOL0     H 8085   0.619   6.782   3.458 -1.6815  0.6260 -1.5446
  801MOL0     H 8086   0.805   6.448   3.446  2.1362  0.4391 -1.7496
  801MOL0     H 8087   1.062   6.416   3.705 -0.7224  3.5990 -0.0761
  801MOL0     H 8088   1.026   6.366   3.537  0.5224 -0.7730  0.3135
  801MOL0     H 8089   1.210   6.590   3.615 -0.5532 -1.1881  2.0807
  801MOL0     H 8090   1.205   6.502   3.458 -0.1967  2.4469  0.0928
  801MOL0     H 8091   1.378   6.391   3.549 -1.7148 -2.0235 -1.3311
  801MOL0     H 8092   1.262   6.289   3.613 -1.5196  1.2085  1.1580
  801MOL0     H 8093   1.374   6.522   3.773 -0.1878 -0.2759  0.3821
  801MOL0     H 8094   1.445   6.360   3.768  1.0467  3.3712  1.2891
  801MOL0     H 8095   1.495   6.424   3.975 -0.5726 -0.2662 -1.2288
  801MOL0     H 8096   1.563   6.548   4.274 -2.8972  0.3259 -2.0325
  801MOL0     H 8097   1.612   6.374   4.275 -1.2810  0.2393  1.7630
  801MOL0     H 8098   1.643   6.482   4.136  1.9668  2.7540  2.9324
  801MOL0     H 8099   1.466   6.306   4.678 -0.2696  0.3288 -0.9546
  801MOL0     H 8100   1.436   6.215   4.908 -0.2853  2.4819  0.9893
  801MOL0     H 8101   1.378   6.152   5.126  0.7099 -0.7498 -0.3754
  801MOL0     H 8102   1.285   6.313   5.143 -4.1545 -0.1125 -0.9345
  801MOL0     H 8103   1.103   6.168   5.256 -1.9465 -1.2664  1.8466
  801MOL0     H 8104   1.213   6.032   5.257  1.0764  0.1343 -1.3413
  801MOL0     H 8105   1.194   6.183   5.479 -1.0193  1.0756 -0.6954
  801MOL0     H 8106   1.267   6.310   5.379 -0.9865 -0.1820 -2.6009
  801MOL0     H 8107   1.464   6.105   5.356 -1.8338 -0.4733 -0.7815
  801MOL0     H 8108   1.482   6.227   5.466  0.4223  0.6923 -2.2841
  801MOL0     H 8109   1.366   6.086   5.656 -1.7025 -3.3275  1.6627
  801MOL0     H 8110   1.498   5.992   5.585 -1.3835 -0.3289  2.0016
  801MOL0     H 8111   1.202   5.973   5.513 -0.7691 -1.4553  0.3537
  801MOL0     H 8112   1.342   5.883   5.438  2.5702  0.7850  0.9154
  801MOL0     H 8113   1.370   5.818   5.721 -2.2522 -1.3314  3.5712
  801MOL0     H 8114   1.266   5.728   5.618  1.5520 -1.0814  0.7721
  801MOL0     H 8115   1.077   5.888   5.679 -2.5369 -5.2217  0.9292
  801MOL0     H 8116   1.194   5.942   5.809  0.7426  0.8230 -1.4654
  801MOL0     H 8117   1.022   6.221   4.868  0.0983 -0.3936  1.2451
  801MOL0     H 8118   1.061   6.281   4.606 -0.2353 -0.0871  0.3417
  801MOL0     H 8119   1.147   6.281   4.283 -0.0976  1.4425  0.7218
  801MOL0     H 8120   1.100   6.263   4.057 -1.2855  1.0312  0.1660
  801MOL0     H 8121   1.609   6.501   3.077 -1.8451  1.1057  0.5140
  801MOL0     H 8122   1.825   6.491   3.220 -0.5433 -2.8260  2.2492
  801MOL0     H 8123   2.002   6.384   3.600 -0.2936  1.0817 -2.8124
  801MOL0     H 8124   2.153   6.339   3.777  1.7545 -0.2281 -0.6015
  801MOL0     H 8125   2.203   6.364   4.029 -1.6393  0.4852 -3.4010
  801MOL0     H 8126   2.365   6.357   3.944 -0.1215 -2.3678  2.0798
  801MOL0     H 8127   2.362   6.542   4.158  0.7170  0.3872  0.0416
  801MOL0     H 8128   2.488   6.430   4.134  0.8534 -0.9385  0.4320
  801MOL0     H 8129   2.258   6.371   4.297  2.4417  0.8651  3.2151
  801MOL0     H 8130   2.422   6.351   4.332  0.6649  0.7058 -0.8855
  801MOL0     H 8131   2.272   6.159   4.147 -1.2959 -2.8644  2.1589
  801MOL0     H 8132   2.336   6.125   4.306 -0.6027 -1.6318 -0.6185
  801MOL0     H 8133   2.694   6.055   4.169  1.1145  2.3928 -0.5386
  801MOL0     H 8134   2.176   6.755   3.860 -1.2122  0.3728 -0.2830
  801MOL0     H 8135   2.033   6.799   3.681 -0.7777 -0.7455  0.2545
  802MOL0     O 8136   3.428   8.226   0.442  0.4234 -0.5729 -0.4539
  802MOL0     C 8137   3.423   8.209   0.563  0.6434 -0.1434  0.3355
  802MOL0     O 8138   3.313   8.166   0.640  0.1472 -0.4415  0.8775
  802MOL0     C 8139   3.194   8.138   0.573 -0.6555  0.0264  0.3637
  802MOL0     C 8140   3.180   8.067   0.458  0.5128  0.1910  0.0338
  802MOL0     C 8141   3.058   8.036   0.393 -0.2083 -0.5872  0.7190
  802MOL0     C 8142   2.941   8.057   0.470  0.0082  0.3221 -0.2694
  802MOL0     O 8143   2.811   8.026   0.427  1.0379 -0.0135 -0.0508
  802MOL0     C 8144   2.781   8.034   0.290 -0.4454  0.2717 -0.1285
  802MOL0     C 8145   2.631   8.041   0.257  0.2440  0.3842  0.2742
  802MOL0     C 8146   2.598   8.193   0.281  0.0874  1.2741 -0.2847
  802MOL0     C 8147   2.456   8.235   0.254  0.1887 -0.4449 -0.0857
  802MOL0     C 8148   2.382   8.328   0.357  0.5848 -0.1242 -0.6306
  802MOL0     C 8149   2.248   8.367   0.310 -0.0929  0.7364  0.2589
  802MOL0     C 8150   2.169   8.413   0.431 -0.3979 -0.1784 -0.9014
  802MOL0     C 8151   2.043   8.470   0.387 -0.6782  0.4262  0.3841
  802MOL0     N 8152   1.955   8.476   0.499  0.2560 -0.2510 -0.1303
  802MOL0     C 8153   1.928   8.566   0.595  0.2240 -0.5082  0.7383
  802MOL0     C 8154   1.830   8.527   0.678  0.0519  0.1547  0.8257
  802MOL0     C 8155   1.768   8.611   0.786  0.7639  0.1857  0.5405
  802MOL0     C 8156   1.874   8.659   0.886  0.2230 -0.1360  0.2415
  802MOL0     C 8157   1.820   8.735   1.012 -1.0143  1.3836  1.0265
  802MOL0     C 8158   1.932   8.750   1.103  0.6780 -0.8572  0.5056
  802MOL0     O 8159   1.990   8.627   1.158 -0.4454 -0.4195  0.0625
  802MOL0     C 8160   2.124   8.612   1.188  0.2978 -0.8002  0.2733
  802MOL0     C 8161   2.220   8.699   1.124  0.7015  0.7223 -0.0415
  802MOL0     C 8162   2.357   8.682   1.146  0.3215 -0.3053  0.9908
  802MOL0     C 8163   2.457   8.767   1.072  0.6530 -1.0000 -1.1646
  802MOL0     C 8164   2.397   8.575   1.240 -0.5000  0.1981 -0.0333
  802MOL0     C 8165   2.532   8.543   1.277 -0.1186  0.3037  0.2434
  802MOL0     O 8166   2.555   8.469   1.391  0.3210  0.3183  0.2213
  802MOL0     C 8167   2.684   8.425   1.431 -0.3911 -0.3541 -0.7212
  802MOL0     C 8168   2.809   8.481   1.385  0.2096 -0.3804  0.1097
  802MOL0     C 8169   2.926   8.420   1.430 -0.2327  0.1345  0.3421
  802MOL0     C 8170   2.921   8.319   1.521 -0.2982 -0.2083 -0.1402
  802MOL0     O 8171   3.033   8.260   1.574  0.3672  0.4677  0.0131
  802MOL0     C 8172   3.158   8.310   1.541  0.4927 -0.5186 -0.1062
  802MOL0     C 8173   3.252   8.246   1.642  0.1567  0.5357 -0.3281
  802MOL0     C 8174   3.397   8.261   1.589 -0.3239  0.0210  0.1266
  802MOL0     C 8175   3.493   8.201   1.698  0.6070 -0.3167 -0.8475
  802MOL0     C 8176   3.634   8.207   1.652 -0.6563 -0.8940  0.4070
  802MOL0     C 8177   3.727   8.149   1.759 -0.3948  0.0386  0.1419
  802MOL0     C 8178   3.866   8.124   1.706  0.5191 -0.0869  0.6156
  802MOL0     C 8179   3.968   8.101   1.821 -0.4907 -0.7865 -0.0861
  802MOL0    Cl 8180   3.941   7.939   1.889  0.3971 -0.2694 -0.0845
  802MOL0     C 8181   2.804   8.271   1.568  0.9816 -0.2271 -0.6518
  802MOL0     C 8182   2.683   8.313   1.519  0.4188 -0.0729 -0.2947
  802MOL0     O 8183   2.621   8.579   1.201  0.5659 -0.5685  0.4016
  802MOL0     C 8184   2.299   8.493   1.292 -0.3192  0.1619 -0.1544
  802MOL0     C 8185   2.160   8.507   1.272 -0.7130  0.3297  0.2697
  802MOL0     N 8186   1.802   8.396   0.634 -0.1005 -0.2962 -0.0825
  802MOL0     N 8187   1.879   8.369   0.539 -0.4350 -0.5211  0.1028
  802MOL0     C 8188   2.952   8.126   0.590  0.2450 -0.7404 -0.5148
  802MOL0     C 8189   3.072   8.168   0.643  0.0882  0.3158  0.9856
  802MOL0     C 8190   3.528   8.255   0.647 -0.4241 -0.0658 -0.2895
  802MOL0     C 8191   3.516   8.256   0.784  0.1957 -0.3442 -0.3973
  802MOL0     C 8192   3.606   8.331   0.869  0.7379 -0.5702 -0.4276
  802MOL0     C 8193   3.711   8.402   0.806  0.2529 -0.4320  0.2606
  802MOL0     O 8194   3.811   8.472   0.864 -0.2819  0.0210  0.7205
  802MOL0     C 8195   3.881   8.404   0.971  0.3208  0.0087  0.2241
  802MOL0     C 8196   4.015   8.469   0.970  0.9632  0.4815  0.9168
  802MOL0     C 8197   4.126   8.385   1.035 -0.3304 -0.3198 -0.2881
  802MOL0     C 8198   4.261   8.458   1.022  0.5840  0.1391  0.4506
  802MOL0     C 8199   4.261   8.588   1.091  0.5498 -0.0376 -0.8741
  802MOL0     C 8200   4.245   8.692   1.149 -0.6083 -0.1820 -0.0291
  802MOL0     C 8201   3.724   8.399   0.667 -0.7310  0.5691 -0.5820
  802MOL0     C 8202   3.635   8.320   0.587 -1.2074 -0.0019 -0.2453
  802MOL0     H 8203   3.270   8.049   0.400  0.1716  0.1103 -0.4745
  802MOL0     H 8204   3.047   7.977   0.302  0.4801  2.6307 -1.6529
  802MOL0     H 8205   2.832   8.123   0.254  0.7225 -0.6234 -0.7717
  802MOL0     H 8206   2.820   7.943   0.243 -1.4101  0.8887 -2.2337
  802MOL0     H 8207   2.629   8.008   0.152  3.1396 -1.2229  0.5984
  802MOL0     H 8208   2.570   7.980   0.324 -0.2191  0.0236 -0.4666
  802MOL0     H 8209   2.621   8.221   0.384  1.8256 -0.9211  0.0187
  802MOL0     H 8210   2.662   8.260   0.224  1.5446 -0.9761 -1.4719
  802MOL0     H 8211   2.473   8.290   0.161 -1.0778 -0.2506 -0.2246
  802MOL0     H 8212   2.394   8.147   0.232  0.6543 -0.4049 -1.6651
  802MOL0     H 8213   2.365   8.268   0.448 -1.3097  1.2183 -0.0504
  802MOL0     H 8214   2.454   8.406   0.383  1.1613  0.0297 -2.5487
  802MOL0     H 8215   2.265   8.446   0.236  2.3562 -0.8324 -1.0084
  802MOL0     H 8216   2.207   8.279   0.261 -0.8825  1.1812  0.1062
  802MOL0     H 8217   2.140   8.332   0.498  0.2406  1.0918  0.9790
  802MOL0     H 8218   2.233   8.482   0.487  1.7973 -1.1841 -2.0410
  802MOL0     H 8219   2.001   8.411   0.305 -0.4829  4.2678 -2.8349
  802MOL0     H 8220   2.060   8.565   0.335 -0.8622 -0.3901 -1.2412
  802MOL0     H 8221   1.970   8.665   0.592  4.5631 -2.1491  0.7778
  802MOL0     H 8222   1.724   8.695   0.732 -1.7574 -1.3466 -0.0049
  802MOL0     H 8223   1.676   8.565   0.825 -0.6116  1.3861 -1.1186
  802MOL0     H 8224   1.949   8.721   0.836  0.1544  0.1395  0.4816
  802MOL0     H 8225   1.929   8.570   0.919  2.0236  1.2115  1.0289
  802MOL0     H 8226   1.737   8.671   1.044  0.7253 -2.9530 -2.1240
  802MOL0     H 8227   1.795   8.836   0.979 -1.3974  0.5629 -1.4414
  802MOL0     H 8228   1.896   8.812   1.185  0.9967 -1.0209  0.7702
  802MOL0     H 8229   1.994   8.814   1.039 -1.3825  1.8695  1.0679
  802MOL0     H 8230   2.198   8.787   1.064  1.4843  0.7431 -0.3078
  802MOL0     H 8231   2.408   8.825   0.993  4.1445 -0.2224 -2.9588
  802MOL0     H 8232   2.511   8.844   1.128  1.4409 -2.5059  0.2087
  802MOL0     H 8233   2.527   8.702   1.019 -1.1396 -0.6954 -4.1653
  802MOL0     H 8234   2.817   8.571   1.325  2.0261 -0.2646  0.4861
  802MOL0     H 8235   3.020   8.443   1.380 -0.0785 -1.9121 -0.4390
  802MOL0     H 8236   3.189   8.300   1.436 -0.6560 -0.0819 -0.5127
  802MOL0     H 8237   3.172   8.418   1.557 -0.5782 -0.2343 -0.9366
  802MOL0     H 8238   3.247   8.306   1.733  1.6563  0.5385 -0.2287
  802MOL0     H 8239   3.220   8.144   1.667 -0.3358  0.8624  0.4337
  802MOL0     H 8240   3.410   8.369   1.576 -0.9392 -0.2125 -3.4863
  802MOL0     H 8241   3.414   8.213   1.492  0.0981  0.4199  0.0008
  802MOL0     H 8242   3.469   8.247   1.795  0.1159  0.7506 -1.4621
  802MOL0     H 8243   3.452   8.103   1.722 -1.7030  0.9672  0.8480
  802MOL0     H 8244   3.659   8.314   1.642  0.5326 -1.3725 -2.9848
  802MOL0     H 8245   3.649   8.160   1.555  0.1602  1.8369 -0.9072
  802MOL0     H 8246   3.734   8.216   1.845  0.4550  2.4362 -1.6640
  802MOL0     H 8247   3.685   8.053   1.790  1.4407 -0.7033  0.4873
  802MOL0     H 8248   3.899   8.212   1.650  3.5604 -0.9722  0.8497
  802MOL0     H 8249   3.857   8.043   1.633  3.4356 -0.2049  0.2777
  802MOL0     H 8250   3.947   8.177   1.897 -1.2967 -0.0991 -0.9629
  802MOL0     H 8251   4.064   8.111   1.769 -0.4794 -0.4504 -0.0052
  802MOL0     H 8252   2.812   8.201   1.651  0.6204  0.2776 -0.1875
  802MOL0     H 8253   2.600   8.252   1.553  0.4440  1.2373  2.3373
  802MOL0     H 8254   2.333   8.409   1.352  1.3402  0.9119  0.0063
  802MOL0     H 8255   2.079   8.445   1.310 -0.0765 -0.5783  0.1507
  802MOL0     H 8256   2.860   8.156   0.640  1.1069 -0.4376  0.9324
  802MOL0     H 8257   3.081   8.231   0.731 -1.2986  2.0344 -0.0424
  802MOL0     H 8258   3.437   8.195   0.827  0.3787 -1.0149 -0.9961
  802MOL0     H 8259   3.601   8.313   0.976 -0.0475 -0.9896 -0.5308
  802MOL0     H 8260   3.827   8.419   1.065  0.9891  1.3973  0.4110
  802MOL0     H 8261   3.875   8.295   0.970 -3.3516  0.0840 -0.2374
  802MOL0     H 8262   3.998   8.565   1.020 -3.6730 -1.0005  2.6897
  802MOL0     H 8263   4.042   8.485   0.865  0.0687 -1.8093  0.2843
  802MOL0     H 8264   4.143   8.286   0.992  0.9906  0.4026 -1.4792
  802MOL0     H 8265   4.103   8.369   1.141  1.9335 -3.1538 -0.0963
  802MOL0     H 8266   4.284   8.465   0.915  1.0495 -1.4398  0.4267
  802MOL0     H 8267   4.341   8.405   1.073 -0.5087 -1.2909  0.7368
  802MOL0     H 8268   4.256   8.785   1.202  2.9907 -1.7755  2.3991
  802MOL0     H 8269   3.799   8.452   0.609 -0.0590 -0.7482 -0.9364
  802MOL0     H 8270   3.645   8.348   0.483 -0.9876 -0.9420 -0.4827
  803MOL0     O 8271   9.686   0.748   1.105  0.0816 -0.1826  0.2800
  803MOL0     C 8272   9.756   0.692   1.023  0.6004 -0.4555  0.5423
  803MOL0     O 8273   9.714   0.585   0.946 -0.3150 -0.1276 -0.1792
  803MOL0     C 8274   9.589   0.523   0.951 -0.1779  0.7918  0.7192
  803MOL0     C 8275   9.465   0.583   0.991 -0.1725 -0.0949  0.3021
  803MOL0     C 8276   9.349   0.512   0.990  0.2520 -0.2653 -0.1014
  803MOL0     C 8277   9.355   0.370   0.957  0.2693 -0.3089 -0.3255
  803MOL0     O 8278   9.239   0.302   0.966 -0.0277  0.3086  0.3124
  803MOL0     C 8279   9.250   0.164   1.024  0.0562 -0.5037  0.0165
  803MOL0     C 8280   9.108   0.113   1.043 -0.8193 -0.9747 -0.3533
  803MOL0     C 8281   9.032   0.187   1.156  0.2944  0.1310  0.5413
  803MOL0     C 8282   8.877   0.212   1.137  0.0300 -0.4103  0.1390
  803MOL0     C 8283   8.804   0.280   1.254 -0.3298  0.2271  0.0072
  803MOL0     C 8284   8.660   0.290   1.220 -0.8243 -0.5275 -1.0204
  803MOL0     C 8285   8.560   0.354   1.317 -0.4312 -0.9573 -0.2386
  803MOL0     C 8286   8.439   0.414   1.250  0.4504  0.3964  0.4526
  803MOL0     N 8287   8.302   0.393   1.321 -0.0407 -0.8294 -0.0238
  803MOL0     C 8288   8.191   0.319   1.286 -0.8604  0.6542 -0.1040
  803MOL0     C 8289   8.095   0.367   1.366 -0.1901 -0.5267  0.1071
  803MOL0     C 8290   7.952   0.317   1.356 -0.0224 -0.0818 -0.0479
  803MOL0     C 8291   7.931   0.172   1.401  0.0734  0.2770  0.3357
  803MOL0     C 8292   7.800   0.116   1.337 -0.1652 -0.7892  0.1855
  803MOL0     C 8293   7.682   0.203   1.375 -0.5665 -0.5422  0.1527
  803MOL0     O 8294   7.549   0.149   1.351  0.1593 -0.6991  0.4693
  803MOL0     C 8295   7.480   0.072   1.442 -0.5463  0.0080 -0.4934
  803MOL0     C 8296   7.347   0.040   1.422  0.8511  0.0760  0.1359
  803MOL0     C 8297   7.275  -0.047   1.505 -0.6345 -0.4418 -0.7726
  803MOL0     C 8298   7.130  -0.072   1.479 -0.0092  0.7839 -0.0836
  803MOL0     C 8299   7.347  -0.108   1.613  0.9812 -0.1400 -0.6631
  803MOL0     C 8300   7.288  -0.200   1.717 -0.7386 -0.4414 -0.1939
  803MOL0     O 8301   7.361  -0.192   1.831  0.3957  1.0365  0.1776
  803MOL0     C 8302   7.330  -0.274   1.939 -0.2239  0.2144 -0.1925
  803MOL0     C 8303   7.197  -0.321   1.968 -0.3687 -0.1792 -0.0098
  803MOL0     C 8304   7.169  -0.389   2.086 -0.2444 -0.3134 -0.2766
  803MOL0     C 8305   7.269  -0.418   2.177 -0.5721 -0.1620  0.4929
  803MOL0     O 8306   7.244  -0.478   2.298  0.1065  0.3370 -0.6827
  803MOL0     C 8307   7.240  -0.623   2.301 -0.3387  0.8965  0.0355
  803MOL0     C 8308   7.092  -0.668   2.283  0.3849  0.2421 -0.9804
  803MOL0     C 8309   7.005  -0.635   2.401  0.0472 -0.4643  0.7957
  803MOL0     C 8310   6.871  -0.713   2.400  0.4300  0.3518  0.5458
  803MOL0     C 8311   6.782  -0.677   2.515  1.4919  0.6830 -0.6887
  803MOL0     C 8312   6.641  -0.736   2.499  0.8899 -0.8951  0.7954
  803MOL0     C 8313   6.526  -0.662   2.581  0.1826 -0.1647 -0.9836
  803MOL0     C 8314   6.576  -0.649   2.725  0.5563  0.0533  0.0810
  803MOL0    Cl 8315   6.413  -0.617   2.823  0.3519 -0.3265  0.2779
  803MOL0     C 8316   7.399  -0.380   2.151  0.6880 -0.0935  0.8069
  803MOL0     C 8317   7.432  -0.306   2.034  0.0015  1.4121  0.2776
  803MOL0     O 8318   7.208  -0.286   1.683  0.0067  0.2961 -0.5439
  803MOL0     C 8319   7.480  -0.073   1.631 -0.7471 -0.2111 -0.1882
  803MOL0     C 8320   7.547   0.018   1.547  0.1113 -0.7116  0.2217
  803MOL0     N 8321   8.138   0.464   1.454  0.0549 -0.2625  0.9188
  803MOL0     N 8322   8.267   0.464   1.428  0.5165 -0.5362 -0.9541
  803MOL0     C 8323   9.480   0.312   0.918 -0.9200 -0.1720 -0.8446
  803MOL0     C 8324   9.600   0.383   0.923  0.6359  0.3752 -1.0663
  803MOL0     C 8325   9.887   0.746   1.015 -0.5276 -0.7004 -0.1882
  803MOL0     C 8326   9.937   0.848   1.097  0.7121  0.3147 -1.4818
  803MOL0     C 8327  10.061   0.902   1.086  0.5428 -0.6311  0.3994
  803MOL0     C 8328  10.154   0.867   0.987  0.1355 -0.0198  0.5842
  803MOL0     O 8329  10.284   0.910   0.981 -0.4233 -0.0122 -0.0560
  803MOL0     C 8330  10.321   1.047   1.008  0.0669 -0.4128  0.2954
  803MOL0     C 8331  10.384   1.119   0.894 -0.1273 -0.6279 -0.4563
  803MOL0     C 8332  10.450   1.252   0.930 -0.7207  0.2941  0.0525
  803MOL0     C 8333  10.495   1.335   0.803 -0.3162 -0.4951 -0.0096
  803MOL0     C 8334  10.587   1.441   0.844 -0.2070 -0.0241  0.3798
  803MOL0     C 8335  10.663   1.536   0.870  0.6780 -0.0312  0.1442
  803MOL0     C 8336  10.101   0.766   0.901  0.3197 -0.2843  0.0019
  803MOL0     C 8337   9.965   0.723   0.908  0.2287  0.1951  0.0308
  803MOL0     H 8338   9.468   0.691   1.004  3.7637  0.3352 -2.3486
  803MOL0     H 8339   9.247   0.543   1.013  1.4983  2.1729  2.7468
  803MOL0     H 8340   9.308   0.107   0.951 -1.3543  0.6881 -2.1811
  803MOL0     H 8341   9.291   0.162   1.125 -0.1024 -0.1308  0.0911
  803MOL0     H 8342   9.049   0.123   0.952 -0.1948  0.2864 -0.6303
  803MOL0     H 8343   9.118   0.008   1.075 -3.4944 -1.6081 -1.3348
  803MOL0     H 8344   9.049   0.125   1.245  0.8011 -2.2679 -1.1367
  803MOL0     H 8345   9.069   0.289   1.171 -0.8520  0.9716 -1.9117
  803MOL0     H 8346   8.875   0.285   1.055  3.3439  0.9395  1.1005
  803MOL0     H 8347   8.839   0.114   1.108  3.1541 -2.5759  2.6460
  803MOL0     H 8348   8.818   0.224   1.347  0.6177 -0.8992 -0.7836
  803MOL0     H 8349   8.853   0.374   1.279 -1.3044 -0.1978  4.3296
  803MOL0     H 8350   8.651   0.341   1.123 -0.6076  2.1282  0.2583
  803MOL0     H 8351   8.622   0.188   1.207 -1.0321 -0.7227  0.8966
  803MOL0     H 8352   8.530   0.277   1.388 -3.0358 -0.1193 -0.3357
  803MOL0     H 8353   8.627   0.436   1.346  0.1132 -0.7100 -2.0590
  803MOL0     H 8354   8.413   0.363   1.157 -2.9252 -0.5723  1.7472
  803MOL0     H 8355   8.465   0.514   1.216  1.8701 -0.1006  0.0183
  803MOL0     H 8356   8.174   0.245   1.208  0.4780  0.0489  0.1647
  803MOL0     H 8357   7.893   0.383   1.420  0.0143  0.8164 -0.9144
  803MOL0     H 8358   7.913   0.336   1.256  0.0379  1.0102  0.1221
  803MOL0     H 8359   7.915   0.181   1.509  0.7034  2.0703  0.3180
  803MOL0     H 8360   8.011   0.104   1.369  0.2446  0.8851 -0.5577
  803MOL0     H 8361   7.788   0.014   1.375 -0.4118 -0.5667  0.7107
  803MOL0     H 8362   7.811   0.108   1.228 -0.5211  1.6137 -0.0846
  803MOL0     H 8363   7.683   0.293   1.314 -3.2547  0.9105  2.0353
  803MOL0     H 8364   7.695   0.239   1.478 -1.5411  2.8003 -0.7825
  803MOL0     H 8365   7.307   0.088   1.333  1.4708  0.6017  0.1365
  803MOL0     H 8366   7.058  -0.042   1.556 -0.4086 -0.1808 -0.0674
  803MOL0     H 8367   7.097  -0.022   1.387  0.6306  0.3699 -0.5433
  803MOL0     H 8368   7.116  -0.178   1.458  1.4704  0.3635  0.9376
  803MOL0     H 8369   7.112  -0.321   1.901  1.0783 -1.2452 -1.9366
  803MOL0     H 8370   7.068  -0.417   2.115 -0.0635  0.4996  1.2658
  803MOL0     H 8371   7.296  -0.672   2.221  0.0482 -2.7127  2.3035
  803MOL0     H 8372   7.265  -0.668   2.397  1.9878 -0.2907 -1.0272
  803MOL0     H 8373   7.046  -0.623   2.194  4.4389  2.5020 -2.2031
  803MOL0     H 8374   7.096  -0.777   2.287 -1.2988  0.1798  1.9811
  803MOL0     H 8375   6.989  -0.527   2.399 -1.6704 -0.6592  1.7596
  803MOL0     H 8376   7.068  -0.664   2.485 -0.0765  0.4309  1.2026
  803MOL0     H 8377   6.810  -0.688   2.312  0.2584 -1.6304  0.0524
  803MOL0     H 8378   6.889  -0.820   2.388 -2.6129 -0.1202 -0.7333
  803MOL0     H 8379   6.784  -0.568   2.524 -1.3128  0.8223 -1.0240
  803MOL0     H 8380   6.826  -0.711   2.609  3.2287  2.0002 -0.9690
  803MOL0     H 8381   6.606  -0.712   2.398  0.3818  3.2684  1.7524
  803MOL0     H 8382   6.643  -0.844   2.512 -1.7766 -1.3327 -1.6063
  803MOL0     H 8383   6.438  -0.725   2.589  0.6942 -0.8835 -0.9549
  803MOL0     H 8384   6.495  -0.563   2.545  1.3100  1.1962  1.4483
  803MOL0     H 8385   6.650  -0.569   2.740  0.4225  0.3326 -0.6856
  803MOL0     H 8386   6.613  -0.745   2.760 -2.3592 -1.0502  0.3713
  803MOL0     H 8387   7.481  -0.404   2.218  0.9500  1.7521  1.1778
  803MOL0     H 8388   7.532  -0.277   2.004  0.3844 -0.6212 -0.5836
  803MOL0     H 8389   7.536  -0.111   1.716 -2.7819  0.2874  1.4850
  803MOL0     H 8390   7.651   0.046   1.559 -0.4535  1.6171  0.1365
  803MOL0     H 8391   9.488   0.205   0.900  2.7177  0.1407 -1.9439
  803MOL0     H 8392   9.698   0.336   0.931  0.5504  0.3965  4.9692
  803MOL0     H 8393   9.871   0.892   1.171  2.1163 -2.3949  1.6612
  803MOL0     H 8394  10.084   0.991   1.143  2.4294 -0.4098 -0.6139
  803MOL0     H 8395  10.229   1.101   1.034 -1.4314 -2.5339 -0.3209
  803MOL0     H 8396  10.382   1.062   1.097  1.3915  0.6747 -0.7656
  803MOL0     H 8397  10.314   1.150   0.816  0.6467 -0.8573 -1.2631
  803MOL0     H 8398  10.455   1.054   0.841 -0.0840 -1.2702  0.3810
  803MOL0     H 8399  10.538   1.240   0.995  1.8536  2.4388 -2.7672
  803MOL0     H 8400  10.383   1.320   0.983  3.0099  4.4092  0.0652
  803MOL0     H 8401  10.404   1.373   0.755 -0.3740 -0.7075 -0.0671
  803MOL0     H 8402  10.536   1.272   0.723 -1.0216  0.9488 -1.5742
  803MOL0     H 8403  10.724   1.622   0.890  0.8251  0.0431 -0.6044
  803MOL0     H 8404  10.167   0.751   0.816 -3.0196  1.1270 -3.1177
  803MOL0     H 8405   9.922   0.671   0.822 -0.9010 -1.0831  1.3125
  804MOL0     O 8406  10.047   3.431   3.826  1.3602  0.5017  1.0771
  804MOL0     C 8407  10.025   3.316   3.791  0.3518 -0.8245  0.2046
  804MOL0     O 8408   9.907   3.241   3.800 -0.3367 -0.4704 -0.2642
  804MOL0     C 8409   9.797   3.312   3.837  0.3040  0.3751  0.3045
  804MOL0     C 8410   9.718   3.376   3.743 -0.0870 -0.8480 -0.9041
  804MOL0     C 8411   9.595   3.432   3.776  0.7240  0.1558 -0.3958
  804MOL0     C 8412   9.541   3.423   3.902  0.4427 -0.1338 -0.0429
  804MOL0     O 8413   9.416   3.483   3.919 -0.7024 -0.5019 -0.0652
  804MOL0     C 8414   9.391   3.550   4.047 -0.7753  0.4365  0.2799
  804MOL0     C 8415   9.285   3.655   4.042  0.0694  0.7005 -0.4142
  804MOL0     C 8416   9.151   3.585   4.004 -0.0357  0.2726 -0.4062
  804MOL0     C 8417   9.042   3.698   3.972 -0.3297  0.3759  0.3506
  804MOL0     C 8418   8.901   3.644   3.993  0.3486 -0.6495  0.3114
  804MOL0     C 8419   8.796   3.740   3.935  0.2467  0.2595  0.1666
  804MOL0     C 8420   8.662   3.685   3.979  0.0914  0.2469  0.0854
  804MOL0     C 8421   8.550   3.751   3.896 -0.6159  0.5558 -0.4295
  804MOL0     N 8422   8.420   3.741   3.958 -0.3298  0.3509  0.3114
  804MOL0     C 8423   8.330   3.841   3.970  0.3905 -0.3401 -0.2614
  804MOL0     C 8424   8.227   3.786   4.035 -0.3712  0.3225 -0.1441
  804MOL0     C 8425   8.107   3.851   4.096 -0.4599 -0.2880 -0.3768
  804MOL0     C 8426   7.981   3.791   4.032 -0.1055 -0.9565  0.4857
  804MOL0     C 8427   7.861   3.848   4.103 -0.0089 -0.4409  0.1090
  804MOL0     C 8428   7.734   3.779   4.062  0.4803  0.1504 -0.5813
  804MOL0     O 8429   7.630   3.803   4.157 -0.4978  0.0362  0.3918
  804MOL0     C 8430   7.501   3.772   4.134 -1.0310  0.9597  0.5830
  804MOL0     C 8431   7.463   3.704   4.016 -0.3101  0.1407  0.3857
  804MOL0     C 8432   7.329   3.668   3.989  0.0735 -0.7220  0.0207
  804MOL0     C 8433   7.304   3.595   3.859  0.4223  0.2521  0.3702
  804MOL0     C 8434   7.230   3.689   4.094 -0.6070 -1.1450  0.9589
  804MOL0     C 8435   7.089   3.649   4.084 -0.6422  0.9036 -0.4937
  804MOL0     O 8436   7.019   3.636   4.198  0.2886 -0.0723  0.1104
  804MOL0     C 8437   6.890   3.592   4.190  0.7736  0.1348  0.3176
  804MOL0     C 8438   6.862   3.489   4.280  0.0048 -0.1572  0.9115
  804MOL0     C 8439   6.728   3.442   4.291 -0.4811  0.7435 -0.1938
  804MOL0     C 8440   6.631   3.484   4.199  0.0924 -0.1998 -0.2123
  804MOL0     O 8441   6.500   3.440   4.177  0.0983  0.3826 -1.0483
  804MOL0     C 8442   6.450   3.344   4.273  0.8041  1.0005 -0.6319
  804MOL0     C 8443   6.299   3.331   4.254 -0.1865 -0.4946  0.6879
  804MOL0     C 8444   6.264   3.271   4.116 -0.7778  0.9226  0.0089
  804MOL0     C 8445   6.120   3.257   4.087 -0.2392  0.4823 -0.6196
  804MOL0     C 8446   6.108   3.178   3.948 -0.2216 -0.3450 -0.4100
  804MOL0     C 8447   5.957   3.155   3.937 -0.2544  0.3402 -0.1891
  804MOL0     C 8448   5.922   3.105   3.800  0.6403 -0.4203  0.6112
  804MOL0     C 8449   5.837   2.980   3.827 -0.2213  0.5030 -0.3401
  804MOL0    Cl 8450   5.707   3.000   3.950  0.2029 -0.2329  0.4476
  804MOL0     C 8451   6.662   3.585   4.109  0.6902  0.1168  0.1899
  804MOL0     C 8452   6.791   3.644   4.106 -0.1620 -0.8897  0.0696
  804MOL0     O 8453   7.055   3.608   3.975  0.1542 -0.3820  0.3930
  804MOL0     C 8454   7.267   3.763   4.209 -0.4543 -0.6642 -0.2713
  804MOL0     C 8455   7.406   3.805   4.227 -0.6489  0.0465  0.8403
  804MOL0     N 8456   8.255   3.653   4.067 -0.3485 -0.2720  0.1029
  804MOL0     N 8457   8.367   3.632   4.016  0.4351 -0.0807  0.3598
  804MOL0     C 8458   9.619   3.345   3.997  0.1977 -0.3351 -0.4727
  804MOL0     C 8459   9.747   3.298   3.964 -0.4179 -0.4988 -0.5140
  804MOL0     C 8460  10.147   3.256   3.725 -0.1540  0.5814 -0.6669
  804MOL0     C 8461  10.247   3.328   3.663 -0.2869 -0.6995 -0.5997
  804MOL0     C 8462  10.365   3.275   3.608 -0.6383 -0.0029 -0.2842
  804MOL0     C 8463  10.388   3.140   3.612 -0.1261  1.0586 -0.4956
  804MOL0     O 8464  10.497   3.066   3.561  0.6904 -1.2568 -0.0433
  804MOL0     C 8465  10.579   3.126   3.456 -0.2256 -0.3491  0.0623
  804MOL0     C 8466  10.682   3.029   3.386 -0.2992 -0.3032 -0.5275
  804MOL0     C 8467  10.622   2.893   3.357  0.1364  0.0332 -0.4487
  804MOL0     C 8468  10.730   2.812   3.283 -0.5900  0.5692 -0.1615
  804MOL0     C 8469  10.714   2.675   3.285 -0.4461 -0.2854  0.3489
  804MOL0     C 8470  10.700   2.563   3.275 -1.2790  0.0521  0.3352
  804MOL0     C 8471  10.283   3.062   3.670  0.6413  0.1562  0.1347
  804MOL0     C 8472  10.167   3.119   3.729 -0.1794 -0.1645 -0.5543
  804MOL0     H 8473   9.765   3.390   3.646 -2.5605  0.9620 -1.9322
  804MOL0     H 8474   9.537   3.491   3.705 -1.0013  1.7830  2.1712
  804MOL0     H 8475   9.360   3.478   4.124  0.9955 -0.0438  0.5923
  804MOL0     H 8476   9.488   3.589   4.080 -0.5639 -2.1874  3.2840
  804MOL0     H 8477   9.276   3.698   4.142  1.8883  0.5159 -0.1274
  804MOL0     H 8478   9.308   3.729   3.965 -0.9984  0.2776 -1.1539
  804MOL0     H 8479   9.165   3.518   3.919 -1.0103 -0.0625 -0.3196
  804MOL0     H 8480   9.110   3.530   4.089 -1.8807  2.9042  0.5641
  804MOL0     H 8481   9.060   3.784   4.037 -2.3110  0.4471  0.8547
  804MOL0     H 8482   9.046   3.728   3.867 -1.6864 -0.3554  0.0667
  804MOL0     H 8483   8.905   3.546   3.944  0.6187 -0.2084 -0.5533
  804MOL0     H 8484   8.886   3.628   4.100 -0.7480  1.3604  0.5005
  804MOL0     H 8485   8.813   3.840   3.977  0.4628  0.9497 -1.5015
  804MOL0     H 8486   8.801   3.736   3.826  1.5893 -3.0552  0.2348
  804MOL0     H 8487   8.652   3.577   3.967 -0.1612  0.3782 -0.9562
  804MOL0     H 8488   8.646   3.715   4.083 -0.8852 -2.0339  0.6480
  804MOL0     H 8489   8.545   3.704   3.798  0.4325  0.2718 -0.3596
  804MOL0     H 8490   8.575   3.857   3.897  0.7357  0.3140  2.3752
  804MOL0     H 8491   8.325   3.947   3.951 -3.6085  0.3727  3.1862
  804MOL0     H 8492   8.119   3.829   4.203 -1.9911 -1.0261 -0.3301
  804MOL0     H 8493   8.103   3.960   4.089 -0.9251 -0.1959  1.0435
  804MOL0     H 8494   7.968   3.683   4.041 -0.7047 -0.9653 -0.3762
  804MOL0     H 8495   7.982   3.829   3.930  0.3255  0.8462  1.1209
  804MOL0     H 8496   7.850   3.953   4.075  1.7900 -0.3572 -0.4158
  804MOL0     H 8497   7.866   3.854   4.212  0.5961  1.0243  0.0212
  804MOL0     H 8498   7.743   3.673   4.037  4.2790  0.4025 -0.8791
  804MOL0     H 8499   7.693   3.827   3.973 -1.9097 -0.6226  0.0202
  804MOL0     H 8500   7.537   3.678   3.941 -1.0742  0.8255 -0.6344
  804MOL0     H 8501   7.260   3.498   3.881 -0.9303  0.3276 -1.7940
  804MOL0     H 8502   7.224   3.640   3.800 -1.3359 -1.7010  1.1669
  804MOL0     H 8503   7.394   3.577   3.800  0.3112  1.8860 -0.3635
  804MOL0     H 8504   6.945   3.441   4.330  0.3466 -3.9347 -2.6773
  804MOL0     H 8505   6.703   3.359   4.357 -3.7154  0.3976 -1.6336
  804MOL0     H 8506   6.485   3.241   4.261  0.2045  0.8190 -0.8458
  804MOL0     H 8507   6.471   3.374   4.376  0.1702  1.7746 -0.7132
  804MOL0     H 8508   6.269   3.265   4.336  1.6807 -1.8622  0.3194
  804MOL0     H 8509   6.257   3.431   4.268 -0.7380 -0.9530  2.6720
  804MOL0     H 8510   6.326   3.181   4.109 -1.1166  0.7596 -1.1325
  804MOL0     H 8511   6.299   3.340   4.039 -1.7019 -0.1241 -1.3883
  804MOL0     H 8512   6.070   3.199   4.165 -2.3240  4.0830  0.9575
  804MOL0     H 8513   6.077   3.357   4.088  1.1210  1.1061 -1.0965
  804MOL0     H 8514   6.155   3.079   3.951  0.1533 -0.1447  0.8138
  804MOL0     H 8515   6.145   3.241   3.866  0.1838 -1.4077 -1.0645
  804MOL0     H 8516   5.931   3.074   4.006  1.8286 -1.5244 -1.4551
  804MOL0     H 8517   5.910   3.248   3.973  0.0285  0.0541  0.9657
  804MOL0     H 8518   6.009   3.070   3.745  3.4217  2.3971  2.8559
  804MOL0     H 8519   5.865   3.175   3.738  0.4535  0.2126  1.4774
  804MOL0     H 8520   5.905   2.896   3.842  1.7661  2.0046 -0.4975
  804MOL0     H 8521   5.786   2.955   3.733  2.1325 -0.5571 -1.4270
  804MOL0     H 8522   6.582   3.638   4.060 -0.4641  0.2509  2.1194
  804MOL0     H 8523   6.804   3.735   4.048 -2.7305 -0.8534 -0.5923
  804MOL0     H 8524   7.203   3.772   4.296  2.1914  0.0155  1.7294
  804MOL0     H 8525   7.433   3.858   4.319 -1.6512  2.7157 -0.2920
  804MOL0     H 8526   9.590   3.343   4.102 -0.6107 -2.1825 -0.6928
  804MOL0     H 8527   9.800   3.237   4.035 -0.5143  0.0175  0.0041
  804MOL0     H 8528  10.229   3.434   3.651 -0.4036 -0.3963  1.7525
  804MOL0     H 8529  10.433   3.335   3.548 -1.0430 -1.1533 -1.9746
  804MOL0     H 8530  10.520   3.166   3.372  1.7636  0.3780 -1.0527
  804MOL0     H 8531  10.637   3.207   3.501  0.4987 -1.7802  1.8159
  804MOL0     H 8532  10.769   3.009   3.449  1.0388 -1.8919 -2.7126
  804MOL0     H 8533  10.716   3.074   3.293 -1.6314 -0.3197 -1.0494
  804MOL0     H 8534  10.542   2.894   3.282 -0.5601 -5.5981 -0.2025
  804MOL0     H 8535  10.577   2.847   3.445 -2.5749 -0.5448 -2.0218
  804MOL0     H 8536  10.823   2.826   3.339 -2.1099 -1.5943  3.2722
  804MOL0     H 8537  10.742   2.834   3.177  1.3302  1.1869  0.1438
  804MOL0     H 8538  10.701   2.456   3.265  1.7456 -0.0324  0.8352
  804MOL0     H 8539  10.300   2.955   3.685 -1.3766  0.0060  1.7639
  804MOL0     H 8540  10.104   3.040   3.769 -0.3861 -0.7225 -1.9389
  805MOL0     O 8541   7.429  10.886   0.433  0.4858  0.2785 -0.8179
  805MOL0     C 8542   7.432  10.801   0.348  0.5475 -0.3881  0.6232
  805MOL0     O 8543   7.330  10.747   0.286 -0.5576 -0.4015 -0.0876
  805MOL0     C 8544   7.202  10.750   0.325  0.1244 -0.5174  0.0463
  805MOL0     C 8545   7.136  10.865   0.355  0.1980 -0.8766  0.0465
  805MOL0     C 8546   7.000  10.863   0.409 -0.6534  0.8041 -0.0102
  805MOL0     C 8547   6.931  10.733   0.422 -1.0041 -0.8920  0.0707
  805MOL0     O 8548   6.801  10.758   0.446  0.0630 -0.0068 -0.1957
  805MOL0     C 8549   6.743  10.678   0.548  0.1854  0.3434 -0.1635
  805MOL0     C 8550   6.611  10.730   0.591  0.2262 -0.9215  0.2050
  805MOL0     C 8551   6.521  10.631   0.666 -0.2835  0.8024  0.2621
  805MOL0     C 8552   6.580  10.573   0.800 -0.4218  0.1958  0.8067
  805MOL0     C 8553   6.495  10.449   0.843  0.1047  0.2554  0.1037
  805MOL0     C 8554   6.572  10.361   0.938  0.4435 -0.1839  0.1976
  805MOL0     C 8555   6.485  10.238   0.984 -0.2590 -0.5454 -0.4202
  805MOL0     C 8556   6.557  10.167   1.104  0.1343 -0.5534  0.4903
  805MOL0     N 8557   6.682  10.109   1.056  0.5545 -0.8576  0.2849
  805MOL0     C 8558   6.692  10.019   0.951  0.0858 -0.4864 -0.6305
  805MOL0     C 8559   6.823  10.009   0.919  0.1623  0.0869  0.6648
  805MOL0     C 8560   6.885   9.910   0.832  0.3616  0.5940  0.5147
  805MOL0     C 8561   6.934   9.775   0.905 -0.5976  0.2985  0.7743
  805MOL0     C 8562   7.086   9.745   0.882 -0.7247  0.8616  0.2805
  805MOL0     C 8563   7.177   9.853   0.947  0.0504  0.3005 -0.4779
  805MOL0     O 8564   7.227   9.802   1.077  0.3460  0.4946 -0.0677
  805MOL0     C 8565   7.354   9.764   1.083 -0.4997 -1.2333  0.2507
  805MOL0     C 8566   7.409   9.683   0.990 -0.2277 -0.1781  0.1444
  805MOL0     C 8567   7.544   9.647   1.002  0.2788  0.7712  0.7870
  805MOL0     C 8568   7.584   9.542   0.907 -0.1964  1.1585  0.3620
  805MOL0     C 8569   7.627   9.692   1.102  0.1632 -0.0137 -0.4963
  805MOL0     C 8570   7.768   9.649   1.133 -0.6652 -0.5179 -0.1636
  805MOL0     O 8571   7.834   9.728   1.226 -0.0792 -0.2326  0.4844
  805MOL0     C 8572   7.971   9.742   1.216  0.2739  0.3476 -0.2216
  805MOL0     C 8573   8.030   9.800   1.105 -0.0459 -0.6422 -0.6972
  805MOL0     C 8574   8.165   9.837   1.106  0.1074  0.8829 -0.3254
  805MOL0     C 8575   8.253   9.805   1.218  0.7048 -0.3810  0.1420
  805MOL0     O 8576   8.382   9.840   1.218  0.3705 -0.6928  0.3460
  805MOL0     C 8577   8.461   9.788   1.106 -0.0438 -0.5715  1.4204
  805MOL0     C 8578   8.606   9.828   1.089 -0.5959 -0.2085 -0.5498
  805MOL0     C 8579   8.655   9.930   1.189  0.7937 -0.4383  0.1177
  805MOL0     C 8580   8.809   9.938   1.166 -0.9365  0.2223  0.1307
  805MOL0     C 8581   8.857  10.067   1.238 -0.4822  1.0608 -0.1657
  805MOL0     C 8582   9.004  10.097   1.202 -0.6280 -0.8963  0.6673
  805MOL0     C 8583   9.081  10.196   1.296  0.0717 -0.2718  0.2070
  805MOL0     C 8584   9.108  10.136   1.434 -0.5817 -0.0401 -0.3693
  805MOL0    Cl 8585   9.202  10.242   1.545  0.0022 -0.3302  0.2711
  805MOL0     C 8586   8.191   9.743   1.329 -0.0168 -0.3696 -1.4137
  805MOL0     C 8587   8.050   9.715   1.338 -0.0784  0.2755  0.6342
  805MOL0     O 8588   7.824   9.557   1.068  0.2580  0.1419 -0.3975
  805MOL0     C 8589   7.580   9.796   1.186 -0.3462 -0.3376  0.3316
  805MOL0     C 8590   7.442   9.829   1.181 -0.2241  0.6539 -1.2066
  805MOL0     N 8591   6.892  10.096   1.000  0.8870  0.0730  0.3065
  805MOL0     N 8592   6.811  10.154   1.087 -0.0225  1.2638 -0.2628
  805MOL0     C 8593   6.997  10.613   0.387 -0.2444 -0.6305  0.0267
  805MOL0     C 8594   7.134  10.621   0.347 -0.0641  0.3717  0.8389
  805MOL0     C 8595   7.563  10.775   0.287 -0.7261  0.0263  0.5974
  805MOL0     C 8596   7.575  10.688   0.172  0.1197 -0.2822  0.3066
  805MOL0     C 8597   7.704  10.664   0.116  0.4899  0.0072 -0.7519
  805MOL0     C 8598   7.824  10.717   0.176  0.5103 -0.4505 -0.2788
  805MOL0     O 8599   7.951  10.710   0.122 -0.3301 -0.0551  0.7420
  805MOL0     C 8600   7.988  10.591   0.048  0.3071  0.7034 -0.0969
  805MOL0     C 8601   7.971  10.456   0.123  0.0716  0.0109 -0.1240
  805MOL0     C 8602   8.080  10.356   0.072  0.8187 -0.1341 -0.4418
  805MOL0     C 8603   8.070  10.220   0.139 -0.7697  0.0224 -0.1488
  805MOL0     C 8604   7.953  10.157   0.074  0.0443  0.5118 -0.1722
  805MOL0     C 8605   7.850  10.114   0.032 -0.1516  0.0458 -0.8794
  805MOL0     C 8606   7.810  10.783   0.300  0.6746  1.2876 -0.7726
  805MOL0     C 8607   7.681  10.814   0.352 -0.2029  0.1084 -0.1498
  805MOL0     H 8608   7.181  10.963   0.364 -1.9139 -0.0674  4.5881
  805MOL0     H 8609   6.959  10.957   0.446 -1.6540  0.1493  0.5856
  805MOL0     H 8610   6.733  10.576   0.509 -2.5004  0.6810 -0.5545
  805MOL0     H 8611   6.803  10.676   0.640  0.4572 -0.7046 -0.3429
  805MOL0     H 8612   6.631  10.815   0.657  2.6401 -1.8065  0.7134
  805MOL0     H 8613   6.561  10.769   0.502 -1.4375  1.4812  2.0810
  805MOL0     H 8614   6.432  10.688   0.692 -1.3156  0.1385 -1.6231
  805MOL0     H 8615   6.483  10.548   0.605 -3.4628  0.2621  2.7358
  805MOL0     H 8616   6.680  10.530   0.790 -0.3619  0.4502  0.3152
  805MOL0     H 8617   6.572  10.645   0.882 -0.3598 -1.2978  2.1839
  805MOL0     H 8618   6.407  10.486   0.896 -0.1803 -2.1437  1.4557
  805MOL0     H 8619   6.469  10.397   0.750  2.6172  2.5141 -2.0029
  805MOL0     H 8620   6.663  10.333   0.883  1.7009  3.9735 -0.1886
  805MOL0     H 8621   6.610  10.414   1.026 -1.0070 -1.1778  1.4739
  805MOL0     H 8622   6.392  10.279   1.024  0.7928  0.5272  1.0510
  805MOL0     H 8623   6.461  10.180   0.894 -2.7283  2.2372 -1.7205
  805MOL0     H 8624   6.486  10.091   1.139  1.8047 -1.9754  0.9081
  805MOL0     H 8625   6.581  10.228   1.191  1.0912 -0.9700  0.5280
  805MOL0     H 8626   6.620   9.958   0.899  2.3307 -1.1506 -3.2007
  805MOL0     H 8627   6.818   9.891   0.748  1.3719 -0.0613 -0.1757
  805MOL0     H 8628   6.969   9.952   0.775  1.8663 -1.4088  1.1469
  805MOL0     H 8629   6.874   9.702   0.849  0.2674 -0.0873  0.3255
  805MOL0     H 8630   6.920   9.770   1.013 -0.5788  2.1624  0.8893
  805MOL0     H 8631   7.102   9.749   0.774 -0.6572  0.7559  0.2859
  805MOL0     H 8632   7.103   9.642   0.916 -0.5099 -0.3502 -3.0818
  805MOL0     H 8633   7.118   9.940   0.975  0.6089  0.8107 -0.8633
  805MOL0     H 8634   7.256   9.887   0.880  0.4026  2.0639  0.7459
  805MOL0     H 8635   7.345   9.640   0.915  0.0518 -0.4215  0.0442
  805MOL0     H 8636   7.602   9.443   0.949  4.0826  1.2782 -0.6652
  805MOL0     H 8637   7.527   9.543   0.814  0.9662  1.1352 -0.3694
  805MOL0     H 8638   7.688   9.559   0.878 -0.0270 -2.5299 -1.7162
  805MOL0     H 8639   7.961   9.826   1.026 -1.5658 -0.0071  0.7877
  805MOL0     H 8640   8.202   9.895   1.023  0.4558  2.1597  0.6866
  805MOL0     H 8641   8.453   9.680   1.095 -0.4734 -0.3176 -1.9549
  805MOL0     H 8642   8.416   9.822   1.012  0.8636 -2.1876  0.3581
  805MOL0     H 8643   8.673   9.742   1.092 -0.1994  0.1131  0.5262
  805MOL0     H 8644   8.611   9.874   0.990 -0.8817 -2.6403 -1.7732
  805MOL0     H 8645   8.633   9.892   1.289 -1.2991 -2.7543 -1.0936
  805MOL0     H 8646   8.606  10.026   1.173  2.6175  0.5402  0.0817
  805MOL0     H 8647   8.868   9.851   1.195  0.8152  1.2851 -0.0827
  805MOL0     H 8648   8.829   9.955   1.060  0.1990  0.0477  0.3072
  805MOL0     H 8649   8.834  10.057   1.345 -1.7352 -0.9125 -0.5676
  805MOL0     H 8650   8.789  10.149   1.214 -2.0190 -0.1542 -0.1680
  805MOL0     H 8651   9.064  10.006   1.208  3.5070  1.1828 -2.6941
  805MOL0     H 8652   9.006  10.126   1.096 -1.0621  1.1931  1.1786
  805MOL0     H 8653   9.010  10.278   1.293 -1.5554 -1.6384 -2.6880
  805MOL0     H 8654   9.166  10.237   1.240 -0.7692  2.9696  1.1092
  805MOL0     H 8655   9.165  10.043   1.432  1.3609  1.1067 -0.3079
  805MOL0     H 8656   9.010  10.118   1.479 -0.0638 -0.8427  0.4674
  805MOL0     H 8657   8.250   9.732   1.420 -2.9664 -1.9439  0.4740
  805MOL0     H 8658   8.007   9.671   1.427  0.1299  1.3427  1.2707
  805MOL0     H 8659   7.632   9.850   1.264 -2.1404 -1.0364  2.1001
  805MOL0     H 8660   7.407   9.913   1.240 -0.3902 -0.5267  0.4536
  805MOL0     H 8661   6.950  10.516   0.395  1.6488 -1.5534  0.7185
  805MOL0     H 8662   7.183  10.524   0.338 -0.8392 -0.0272  0.8241
  805MOL0     H 8663   7.489  10.654   0.115  1.3822 -0.2006 -1.7471
  805MOL0     H 8664   7.714  10.614   0.020 -0.9531  1.0981 -1.4967
  805MOL0     H 8665   7.927  10.584  -0.043 -2.1541  1.9160  1.3695
  805MOL0     H 8666   8.093  10.600   0.019  0.0367 -2.4663 -2.7478
  805MOL0     H 8667   7.867  10.423   0.114  0.1608 -0.8364  1.6052
  805MOL0     H 8668   7.999  10.471   0.228  2.0743 -1.3659 -0.3913
  805MOL0     H 8669   8.184  10.389   0.081 -0.2838  3.3329  0.8660
  805MOL0     H 8670   8.065  10.339  -0.035  2.8596  1.9293 -1.1409
  805MOL0     H 8671   8.058  10.243   0.245  0.9209 -0.6670  0.2271
  805MOL0     H 8672   8.162  10.161   0.133 -1.5138 -1.5289  2.2689
  805MOL0     H 8673   7.757  10.075  -0.002 -0.8048  2.0099 -1.4315
  805MOL0     H 8674   7.889  10.821   0.363  0.0128  1.2542  0.0956
  805MOL0     H 8675   7.678  10.867   0.447  1.9874 -0.7678  0.4652
  806MOL0     O 8676  10.551   5.718   6.550  0.4710 -0.6458  0.1261
  806MOL0     C 8677  10.588   5.807   6.614 -0.4457 -0.3678  0.1193
  806MOL0     O 8678  10.544   5.938   6.608 -0.3446 -0.2322  0.4932
  806MOL0     C 8679  10.411   5.954   6.576 -0.1430  0.8093 -0.5769
  806MOL0     C 8680  10.307   5.862   6.603  0.4492 -0.2984  0.6346
  806MOL0     C 8681  10.175   5.900   6.578  0.8177 -0.8551  0.1405
  806MOL0     C 8682  10.135   6.020   6.521  0.7428  0.2565 -0.4345
  806MOL0     O 8683   9.999   6.039   6.495 -0.8366  0.3755  0.6983
  806MOL0     C 8684   9.978   6.096   6.366 -0.2433 -0.9764 -0.4914
  806MOL0     C 8685   9.860   6.209   6.373 -0.6795 -0.1989 -0.5254
  806MOL0     C 8686   9.729   6.163   6.435 -0.4814  0.4503  0.2030
  806MOL0     C 8687   9.603   6.248   6.387  0.1213 -0.1997  0.5512
  806MOL0     C 8688   9.477   6.179   6.438 -0.5300  0.8377  0.3019
  806MOL0     C 8689   9.349   6.271   6.436 -1.1588  0.4118  0.0128
  806MOL0     C 8690   9.222   6.198   6.493 -0.3860 -0.0439 -0.4896
  806MOL0     C 8691   9.117   6.300   6.533  0.0053  0.7150  0.3564
  806MOL0     N 8692   9.007   6.227   6.594 -0.0291  0.8116 -0.7615
  806MOL0     C 8693   8.908   6.149   6.532  0.3421 -0.3040 -0.5988
  806MOL0     C 8694   8.808   6.132   6.629 -0.3311 -0.2768 -0.3044
  806MOL0     C 8695   8.680   6.072   6.606 -0.6007 -0.7315  0.3367
  806MOL0     C 8696   8.572   6.189   6.612 -0.0964  0.2403  0.1464
  806MOL0     C 8697   8.564   6.283   6.735  0.6763  0.3933  0.5191
  806MOL0     C 8698   8.529   6.213   6.866  0.3545  0.1527 -0.4170
  806MOL0     O 8699   8.432   6.103   6.863 -0.0717  0.4488  0.4931
  806MOL0     C 8700   8.299   6.115   6.882  0.4279 -0.0045  0.4169
  806MOL0     C 8701   8.230   5.996   6.893  0.0033  0.0764 -0.3859
  806MOL0     C 8702   8.087   5.993   6.901  0.3648  0.7966  0.5842
  806MOL0     C 8703   8.027   5.847   6.924  0.3648  0.2723 -0.4089
  806MOL0     C 8704   8.019   6.128   6.908  0.5891 -0.7470 -0.3775
  806MOL0     C 8705   7.877   6.141   6.938  0.7852  1.1857  0.7753
  806MOL0     O 8706   7.830   6.249   7.010  0.0878  0.2748 -0.3199
  806MOL0     C 8707   7.698   6.285   7.011  0.2235 -0.0198 -0.3290
  806MOL0     C 8708   7.667   6.392   7.097 -0.6435  0.3468 -0.7661
  806MOL0     C 8709   7.540   6.441   7.105 -0.0069  0.0504 -0.0853
  806MOL0     C 8710   7.440   6.402   7.020 -0.1448  0.1200  0.3902
  806MOL0     O 8711   7.319   6.465   7.039 -0.6242  0.2244  0.3001
  806MOL0     C 8712   7.225   6.439   6.936  0.9404  0.1813 -0.2582
  806MOL0     C 8713   7.095   6.521   6.950 -0.6210 -0.2560 -0.3778
  806MOL0     C 8714   7.008   6.505   7.082 -0.3426 -1.1571  0.6125
  806MOL0     C 8715   6.867   6.580   7.076  0.0675 -0.4530 -0.2389
  806MOL0     C 8716   6.807   6.564   7.220 -0.6110  0.0548 -0.7165
  806MOL0     C 8717   6.679   6.643   7.219 -0.4080  0.6706 -0.0041
  806MOL0     C 8718   6.617   6.668   7.361 -0.5951 -0.2705  0.6415
  806MOL0     C 8719   6.464   6.710   7.342 -0.3779  0.2296 -1.2666
  806MOL0    Cl 8720   6.452   6.879   7.279 -0.6186  0.0805 -0.0184
  806MOL0     C 8721   7.465   6.298   6.928  0.5547  1.1140 -0.8257
  806MOL0     C 8722   7.596   6.239   6.923 -0.3781 -0.3789 -0.3921
  806MOL0     O 8723   7.811   6.045   6.906  0.4315  0.3375 -0.0679
  806MOL0     C 8724   8.092   6.242   6.902 -0.3352  0.6022  0.6448
  806MOL0     C 8725   8.227   6.235   6.886  1.3139  0.1922 -0.5300
  806MOL0     N 8726   8.859   6.175   6.748 -0.7617  0.6709 -0.3274
  806MOL0     N 8727   8.973   6.237   6.727  0.8364  0.1667  0.0509
  806MOL0     C 8728  10.236   6.108   6.502  0.7562 -0.2515 -0.2955
  806MOL0     C 8729  10.370   6.080   6.532  0.0666 -0.9039 -0.2581
  806MOL0     C 8730  10.712   5.780   6.678  0.2934  0.1513  0.4911
  806MOL0     C 8731  10.734   5.825   6.812 -0.0183  0.4251  0.6492
  806MOL0     C 8732  10.849   5.803   6.869 -0.4598  0.0660  0.4037
  806MOL0     C 8733  10.950   5.732   6.804  0.3376  0.5877  0.5312
  806MOL0     O 8734  11.070   5.724   6.862 -0.2764 -1.0346  0.0601
  806MOL0     C 8735  11.143   5.603   6.835  0.4310  0.7342 -0.4562
  806MOL0     C 8736  11.291   5.639   6.883  0.9074  0.7410 -0.1028
  806MOL0     C 8737  11.384   5.521   6.859  0.2014  0.8450 -0.2807
  806MOL0     C 8738  11.525   5.570   6.905 -0.4187 -0.0446  0.2686
  806MOL0     C 8739  11.629   5.479   6.865 -0.5723 -0.1712  0.0405
  806MOL0     C 8740  11.728   5.403   6.848 -0.8046 -0.3211  0.6055
  806MOL0     C 8741  10.923   5.679   6.675  0.5021  0.5082  0.3149
  806MOL0     C 8742  10.805   5.696   6.612  0.4461 -0.5223 -0.8886
  806MOL0     H 8743  10.320   5.757   6.629  6.2096 -0.7285 -2.3087
  806MOL0     H 8744  10.101   5.821   6.573 -0.7299  0.4389  1.3806
  806MOL0     H 8745  10.065   6.132   6.310 -0.8659  1.9957  0.2928
  806MOL0     H 8746   9.932   6.017   6.305 -2.4059 -0.8359  0.8558
  806MOL0     H 8747   9.892   6.292   6.436 -4.7617  1.4574 -0.3429
  806MOL0     H 8748   9.841   6.260   6.278 -0.5040  1.9182  0.5125
  806MOL0     H 8749   9.707   6.059   6.409  0.3550 -0.1518  1.7885
  806MOL0     H 8750   9.734   6.177   6.543 -2.0899  2.0121  0.1361
  806MOL0     H 8751   9.610   6.351   6.421 -0.2337  0.2247 -0.6129
  806MOL0     H 8752   9.588   6.250   6.279  0.1765 -0.6797  0.5290
  806MOL0     H 8753   9.449   6.098   6.370  0.6687  0.8872 -0.2757
  806MOL0     H 8754   9.496   6.140   6.538 -0.9869 -2.3329 -0.7220
  806MOL0     H 8755   9.367   6.354   6.506 -0.1287  0.2087  0.0100
  806MOL0     H 8756   9.342   6.303   6.332  1.6746 -2.4261 -1.2080
  806MOL0     H 8757   9.177   6.127   6.423 -2.9784 -0.2930  1.3012
  806MOL0     H 8758   9.247   6.135   6.578  1.5329  0.7139 -0.4316
  806MOL0     H 8759   9.073   6.364   6.455 -0.0097  1.5568  1.0468
  806MOL0     H 8760   9.156   6.374   6.603 -1.4697  0.1384  1.8464
  806MOL0     H 8761   8.894   6.132   6.426 -0.2619 -1.4356 -0.3522
  806MOL0     H 8762   8.689   6.026   6.507 -0.2378 -1.7255  0.8148
  806MOL0     H 8763   8.665   5.989   6.676  0.2286 -1.8155 -0.7255
  806MOL0     H 8764   8.472   6.149   6.592 -0.7628  0.7402  2.2289
  806MOL0     H 8765   8.595   6.263   6.535  2.6445  3.3610  3.5855
  806MOL0     H 8766   8.484   6.356   6.720  0.6444  0.5279  1.3037
  806MOL0     H 8767   8.657   6.340   6.741  0.1879  1.5558 -1.7796
  806MOL0     H 8768   8.501   6.290   6.938  0.7556 -1.0907  1.1288
  806MOL0     H 8769   8.622   6.165   6.900 -2.3372 -3.5119  2.5715
  806MOL0     H 8770   8.287   5.905   6.877  1.0850  0.6017  0.3411
  806MOL0     H 8771   7.973   5.839   7.018  0.1738  0.6312 -0.4841
  806MOL0     H 8772   7.954   5.825   6.845 -3.0617 -0.9528  2.8333
  806MOL0     H 8773   8.101   5.766   6.926 -0.7123 -0.7409 -0.8285
  806MOL0     H 8774   7.755   6.422   7.153  1.3743 -1.4294 -2.7737
  806MOL0     H 8775   7.521   6.512   7.184 -0.0320  0.2501 -0.2696
  806MOL0     H 8776   7.257   6.452   6.833 -2.2553 -2.0036 -1.7052
  806MOL0     H 8777   7.185   6.338   6.954 -1.0547  0.6856 -1.5029
  806MOL0     H 8778   7.130   6.624   6.951 -1.3260 -0.0126 -0.3021
  806MOL0     H 8779   7.036   6.507   6.859  1.1329  0.6132 -1.7187
  806MOL0     H 8780   7.070   6.558   7.155  2.4102  1.5116 -3.2388
  806MOL0     H 8781   7.000   6.398   7.101  0.6009 -2.0981 -3.3725
  806MOL0     H 8782   6.870   6.687   7.053 -0.7308 -0.5327 -0.7358
  806MOL0     H 8783   6.804   6.529   7.003  0.2554 -2.1342  0.7225
  806MOL0     H 8784   6.881   6.606   7.289 -1.8737  0.3538  0.5204
  806MOL0     H 8785   6.797   6.458   7.245 -1.6973  0.9152  3.2550
  806MOL0     H 8786   6.701   6.745   7.183 -0.9930  1.0961  0.8082
  806MOL0     H 8787   6.603   6.585   7.167 -0.1889  0.5425 -0.1854
  806MOL0     H 8788   6.685   6.734   7.417  0.6609 -0.0800 -1.0192
  806MOL0     H 8789   6.623   6.573   7.414  0.8086  0.9768  2.8675
  806MOL0     H 8790   6.421   6.714   7.443  1.3809  2.9423 -0.5193
  806MOL0     H 8791   6.413   6.645   7.271 -1.3709  0.0896 -0.4523
  806MOL0     H 8792   7.387   6.278   6.855 -1.6512  0.1822  1.5944
  806MOL0     H 8793   7.620   6.172   6.841  2.4696  0.9274 -0.7314
  806MOL0     H 8794   8.041   6.337   6.917  0.6158  1.4293 -1.0054
  806MOL0     H 8795   8.290   6.323   6.884  1.7542  0.0346  2.3342
  806MOL0     H 8796  10.200   6.203   6.465 -1.7888 -0.6121  1.0485
  806MOL0     H 8797  10.446   6.155   6.515 -0.3537  0.4763  3.1737
  806MOL0     H 8798  10.663   5.885   6.868  0.6258  2.1624 -0.3298
  806MOL0     H 8799  10.868   5.823   6.974  0.5536  2.3419 -0.1531
  806MOL0     H 8800  11.102   5.519   6.890 -0.1250  1.7280  0.6864
  806MOL0     H 8801  11.151   5.574   6.730  2.1106 -2.5291  0.4382
  806MOL0     H 8802  11.309   5.659   6.989  1.8878 -2.7170  0.5135
  806MOL0     H 8803  11.329   5.719   6.818 -0.4201  0.3467 -1.4124
  806MOL0     H 8804  11.386   5.488   6.755  3.0430 -1.4962  0.3781
  806MOL0     H 8805  11.351   5.433   6.915  1.5874  0.3423 -0.1976
  806MOL0     H 8806  11.524   5.568   7.014 -0.3503 -1.5767  0.2629
  806MOL0     H 8807  11.565   5.667   6.872  0.1484 -0.3399  0.0845
  806MOL0     H 8808  11.816   5.345   6.830 -0.9579 -1.0673  2.0854
  806MOL0     H 8809  10.997   5.633   6.611  0.7079  1.0001  0.1985
  806MOL0     H 8810  10.789   5.650   6.515  3.2939 -0.2369 -1.5913
  807MOL0     O 8811   3.796   9.134   7.050  0.4312  0.1654 -0.2552
  807MOL0     C 8812   3.869   9.037   7.065 -1.0168  0.4478  0.9312
  807MOL0     O 8813   3.865   8.918   6.988 -0.1913 -0.1209 -0.3921
  807MOL0     C 8814   3.774   8.914   6.879  0.3070  0.4507 -1.1010
  807MOL0     C 8815   3.693   8.799   6.867 -0.1463  0.4972  0.4871
  807MOL0     C 8816   3.599   8.794   6.765 -0.2462  0.1071 -0.2562
  807MOL0     C 8817   3.585   8.891   6.672 -0.3501  0.4133  0.1828
  807MOL0     O 8818   3.500   8.889   6.562  0.1458 -0.6788 -0.5145
  807MOL0     C 8819   3.404   8.780   6.555 -0.4406  0.2403 -0.1038
  807MOL0     C 8820   3.325   8.820   6.427  0.0172 -0.0889 -0.0329
  807MOL0     C 8821   3.203   8.734   6.400  0.8412  0.5525 -0.0740
  807MOL0     C 8822   3.088   8.747   6.503 -0.1478  0.7623  0.4150
  807MOL0     C 8823   2.942   8.711   6.447 -0.5900 -0.1018  0.2642
  807MOL0     C 8824   2.830   8.765   6.545  0.0507 -0.2070 -1.0091
  807MOL0     C 8825   2.827   8.919   6.573 -0.6256  0.0184 -0.8221
  807MOL0     C 8826   2.732   8.981   6.470  0.5502 -0.0585  0.4460
  807MOL0     N 8827   2.588   8.938   6.474 -0.4182 -0.4433  0.2171
  807MOL0     C 8828   2.516   8.904   6.591 -0.4971 -0.1364  0.8753
  807MOL0     C 8829   2.400   8.864   6.536  0.7045  0.0544 -0.7489
  807MOL0     C 8830   2.279   8.816   6.615 -0.6035 -0.0311  0.4325
  807MOL0     C 8831   2.222   8.678   6.572 -0.0708 -0.2833  0.3388
  807MOL0     C 8832   2.090   8.638   6.647  0.2364  0.0424 -0.3211
  807MOL0     C 8833   2.020   8.512   6.579 -0.2332 -0.4205  0.1589
  807MOL0     O 8834   1.894   8.476   6.646 -0.6213 -0.0068 -0.0208
  807MOL0     C 8835   1.786   8.560   6.634  0.1915 -0.0534 -0.2045
  807MOL0     C 8836   1.785   8.653   6.524  1.0666 -0.0805  0.1855
  807MOL0     C 8837   1.679   8.734   6.490  0.1840  0.3994 -0.0217
  807MOL0     C 8838   1.675   8.805   6.364 -0.0678  0.9984  0.6427
  807MOL0     C 8839   1.565   8.736   6.582 -0.3747  0.8104 -0.1787
  807MOL0     C 8840   1.448   8.833   6.578 -0.9890 -0.2071 -0.1074
  807MOL0     O 8841   1.356   8.829   6.684  0.0447 -0.2186  0.3261
  807MOL0     C 8842   1.243   8.902   6.683  0.8462 -0.1286  1.0558
  807MOL0     C 8843   1.124   8.838   6.716 -0.2687 -0.1003 -1.2749
  807MOL0     C 8844   1.003   8.912   6.742  0.5726 -0.0595  0.0452
  807MOL0     C 8845   0.996   9.054   6.707 -0.3638  0.1658 -0.8926
  807MOL0     O 8846   0.873   9.109   6.710 -0.1293 -0.3666 -0.6356
  807MOL0     C 8847   0.861   9.254   6.681 -0.1777  0.0166 -0.4638
  807MOL0     C 8848   0.895   9.339   6.804  0.8505 -0.9607 -0.2232
  807MOL0     C 8849   0.791   9.305   6.926 -0.4983  0.6434  0.1518
  807MOL0     C 8850   0.652   9.341   6.875  0.0134 -0.4497  0.2627
  807MOL0     C 8851   0.563   9.353   6.997 -0.5278 -1.1980 -0.2069
  807MOL0     C 8852   0.589   9.475   7.076 -0.2302  0.1916  0.6223
  807MOL0     C 8853   0.485   9.512   7.183  0.9370  0.2938  0.6572
  807MOL0     C 8854   0.529   9.461   7.322  0.3418  0.3234  0.5918
  807MOL0    Cl 8855   0.521   9.277   7.346 -0.1944 -0.0426 -0.2865
  807MOL0     C 8856   1.120   9.111   6.658  0.5574  1.4260  0.4545
  807MOL0     C 8857   1.241   9.041   6.653 -0.0540  0.4754  0.6890
  807MOL0     O 8858   1.441   8.910   6.486  0.2531  0.0609  0.3459
  807MOL0     C 8859   1.564   8.642   6.690  0.0338  0.2059 -0.3374
  807MOL0     C 8860   1.681   8.561   6.724 -0.0939 -0.4644  0.4386
  807MOL0     N 8861   2.409   8.867   6.397 -0.3134  0.2626  0.2267
  807MOL0     N 8862   2.521   8.911   6.367 -0.2581 -0.0858  0.6315
  807MOL0     C 8863   3.672   9.002   6.680 -0.0926 -0.3951  0.4283
  807MOL0     C 8864   3.758   9.017   6.781 -0.8595  0.0844 -0.8062
  807MOL0     C 8865   3.993   9.048   7.138 -0.0451  0.6066  0.0258
  807MOL0     C 8866   4.089   8.949   7.135 -0.1595  0.3175 -0.7378
  807MOL0     C 8867   4.204   8.946   7.217  0.3930 -0.1048 -0.0229
  807MOL0     C 8868   4.227   9.054   7.307  0.4741  0.6927 -0.6866
  807MOL0     O 8869   4.340   9.061   7.387  0.3004 -0.1543 -0.5877
  807MOL0     C 8870   4.425   8.953   7.411  0.3728 -0.7602  0.5110
  807MOL0     C 8871   4.498   8.983   7.547  0.9149 -0.0091  0.3254
  807MOL0     C 8872   4.584   9.110   7.549  0.0151 -0.3495  0.1454
  807MOL0     C 8873   4.673   9.122   7.427 -0.2536  0.3231  0.0184
  807MOL0     C 8874   4.768   9.228   7.435 -0.3519  0.0407 -0.2559
  807MOL0     C 8875   4.861   9.303   7.454 -0.3130  0.4236  0.1630
  807MOL0     C 8876   4.134   9.154   7.310 -0.5424 -0.3454 -0.5565
  807MOL0     C 8877   4.024   9.154   7.229  0.1213 -0.2479  0.5883
  807MOL0     H 8878   3.686   8.713   6.933  0.5573  1.9718  2.6032
  807MOL0     H 8879   3.540   8.703   6.770 -0.6101  0.3484 -0.1457
  807MOL0     H 8880   3.444   8.681   6.530  0.3686  0.2504  1.0662
  807MOL0     H 8881   3.342   8.776   6.645 -0.4030 -0.4992 -0.0979
  807MOL0     H 8882   3.278   8.919   6.426 -0.2860 -0.2282 -2.0452
  807MOL0     H 8883   3.388   8.812   6.338 -1.3561  5.1426 -1.8619
  807MOL0     H 8884   3.161   8.786   6.314  1.3537  0.7330 -0.2179
  807MOL0     H 8885   3.224   8.631   6.372  1.2816  0.6642 -0.1529
  807MOL0     H 8886   3.123   8.674   6.577  1.6265 -1.0285 -2.0168
  807MOL0     H 8887   3.085   8.849   6.543 -0.0967  1.1279 -0.5121
  807MOL0     H 8888   2.929   8.764   6.351 -0.7910  1.0469  0.9059
  807MOL0     H 8889   2.931   8.604   6.431 -4.0817  0.1806 -0.0148
  807MOL0     H 8890   2.736   8.725   6.507 -0.4038 -1.9302  1.6858
  807MOL0     H 8891   2.868   8.714   6.634  1.0543 -1.5009 -2.1364
  807MOL0     H 8892   2.797   8.929   6.678 -0.1169  0.7129 -0.7382
  807MOL0     H 8893   2.926   8.966   6.569 -0.9268  0.5933 -1.5783
  807MOL0     H 8894   2.767   8.969   6.368 -0.0613 -0.2943  0.2596
  807MOL0     H 8895   2.735   9.089   6.485  0.5594  0.1505 -0.9675
  807MOL0     H 8896   2.556   8.906   6.691 -0.0849  4.2024  0.8058
  807MOL0     H 8897   2.303   8.806   6.721 -0.4705  1.0339  0.5144
  807MOL0     H 8898   2.216   8.905   6.609  0.6299  0.8440  0.0868
  807MOL0     H 8899   2.297   8.599   6.580  1.2049  0.7779 -0.6822
  807MOL0     H 8900   2.203   8.691   6.465  0.8013 -2.5792 -0.1551
  807MOL0     H 8901   2.027   8.725   6.626  1.1875  0.3515 -2.0120
  807MOL0     H 8902   2.108   8.630   6.755 -0.2568 -1.8644 -0.3472
  807MOL0     H 8903   2.095   8.433   6.586  1.6318  1.0541 -1.8253
  807MOL0     H 8904   2.018   8.528   6.471 -0.0226  0.2697  0.2494
  807MOL0     H 8905   1.862   8.654   6.448 -0.1739  1.5424 -1.1225
  807MOL0     H 8906   1.589   8.765   6.310  1.3802  1.0259 -1.8066
  807MOL0     H 8907   1.665   8.913   6.381  0.1399  0.8833  1.5288
  807MOL0     H 8908   1.759   8.773   6.301 -0.8149 -0.9417  0.5735
  807MOL0     H 8909   1.147   8.733   6.730  2.1611  0.5369  0.0929
  807MOL0     H 8910   0.907   8.864   6.753 -0.0932  1.0360 -0.7413
  807MOL0     H 8911   0.940   9.270   6.607 -0.7572 -0.8422 -1.2855
  807MOL0     H 8912   0.768   9.290   6.636 -1.1820 -1.6734  0.1596
  807MOL0     H 8913   0.996   9.321   6.843  0.8974 -1.6318 -0.6380
  807MOL0     H 8914   0.899   9.445   6.779  1.4101 -1.1085 -0.7680
  807MOL0     H 8915   0.821   9.360   7.016 -0.1800  0.1632  0.3455
  807MOL0     H 8916   0.803   9.203   6.963  1.7765  1.9906  3.7084
  807MOL0     H 8917   0.655   9.438   6.825  3.4817 -1.4775 -1.8231
  807MOL0     H 8918   0.618   9.254   6.817  0.5974  0.3917 -1.4070
  807MOL0     H 8919   0.563   9.260   7.055 -1.5782 -0.1834  1.4999
  807MOL0     H 8920   0.465   9.362   6.948  1.3952 -2.3381 -4.7998
  807MOL0     H 8921   0.687   9.464   7.123  0.9301  2.4509 -1.0508
  807MOL0     H 8922   0.602   9.558   7.005  0.1835  1.4820  2.1475
  807MOL0     H 8923   0.386   9.479   7.150  0.2956  1.3937  1.4203
  807MOL0     H 8924   0.463   9.619   7.184 -2.1559 -0.2332  1.6126
  807MOL0     H 8925   0.465   9.498   7.403  0.9475 -0.9202  1.6879
  807MOL0     H 8926   0.628   9.502   7.341  0.1288  0.9795  0.3269
  807MOL0     H 8927   1.137   9.216   6.636  0.8085  0.7866 -2.9138
  807MOL0     H 8928   1.335   9.084   6.619 -1.7255  2.5934 -1.6347
  807MOL0     H 8929   1.473   8.623   6.747 -0.9691 -0.8889 -2.1966
  807MOL0     H 8930   1.676   8.499   6.813 -0.9448 -1.7333 -0.4480
  807MOL0     H 8931   3.658   9.070   6.597  2.0806  0.3764  0.6267
  807MOL0     H 8932   3.815   9.109   6.782  1.9923 -1.5431  1.2513
  807MOL0     H 8933   4.084   8.871   7.060  2.7906 -0.5694 -0.1670
  807MOL0     H 8934   4.273   8.865   7.196  0.1641  0.0515 -1.4645
  807MOL0     H 8935   4.381   8.853   7.412  1.3120 -1.2686 -2.3690
  807MOL0     H 8936   4.497   8.957   7.329  1.0876 -0.8593  1.1208
  807MOL0     H 8937   4.559   8.894   7.567  1.6463 -0.0021 -1.7002
  807MOL0     H 8938   4.417   8.994   7.620  3.2929  2.3630  2.8450
  807MOL0     H 8939   4.646   9.115   7.639  0.9043  0.7290 -0.5002
  807MOL0     H 8940   4.510   9.189   7.558 -1.5703 -1.8889  1.2185
  807MOL0     H 8941   4.614   9.160   7.344 -0.4399  0.9565  0.4294
  807MOL0     H 8942   4.718   9.025   7.405  0.1985  1.0880 -2.7019
  807MOL0     H 8943   4.924   9.387   7.475 -0.6625  0.4159  1.3267
  807MOL0     H 8944   4.144   9.231   7.386  3.3651 -0.5605 -0.6667
  807MOL0     H 8945   3.975   9.249   7.211  0.1404 -0.6658 -2.0684
  808MOL0     O 8946   2.449   9.908   1.931  0.6353  0.2611 -0.3552
  808MOL0     C 8947   2.473   9.992   1.846 -0.7054  0.5503 -0.3309
  808MOL0     O 8948   2.404  10.113   1.833 -0.3389  0.6220 -0.2726
  808MOL0     C 8949   2.326  10.161   1.932  0.2848 -0.3110  0.8054
  808MOL0     C 8950   2.385  10.191   2.059 -0.0075 -0.0023  0.1618
  808MOL0     C 8951   2.317  10.262   2.155  0.8488 -0.0933 -0.1545
  808MOL0     C 8952   2.178  10.281   2.145  0.2293  0.2259 -0.3686
  808MOL0     O 8953   2.110  10.318   2.259 -0.5054  0.4898 -0.5818
  808MOL0     C 8954   1.966  10.333   2.270  0.2548 -0.0866  0.0812
  808MOL0     C 8955   1.912  10.386   2.398 -0.3101  0.1341 -0.3833
  808MOL0     C 8956   1.897  10.541   2.389 -0.1084 -1.0277  0.5922
  808MOL0     C 8957   2.037  10.606   2.354  0.2512  0.2662  0.0057
  808MOL0     C 8958   2.023  10.768   2.351 -0.3196  0.8828  0.3276
  808MOL0     C 8959   1.970  10.824   2.220 -1.0285  0.4651  0.3599
  808MOL0     C 8960   1.964  10.979   2.227  1.0063 -0.3854 -0.3168
  808MOL0     C 8961   1.833  11.037   2.287 -0.7586 -0.0972 -0.1382
  808MOL0     N 8962   1.722  10.991   2.193  0.0093  0.0854 -0.0714
  808MOL0     C 8963   1.606  10.923   2.237 -0.7296 -0.6190  0.1572
  808MOL0     C 8964   1.548  10.883   2.120 -0.1563  1.0315  0.5546
  808MOL0     C 8965   1.418  10.809   2.101 -0.1608 -0.4023 -0.7135
  808MOL0     C 8966   1.445  10.663   2.056 -0.5646  0.0194  0.2199
  808MOL0     C 8967   1.325  10.574   2.044  0.1634  0.5838 -0.4399
  808MOL0     C 8968   1.212  10.622   1.963  0.3297 -1.1984  0.3998
  808MOL0     O 8969   1.102  10.531   1.947 -0.0083  0.7967 -1.2092
  808MOL0     C 8970   0.986  10.573   1.882 -0.2034  0.1905  0.2192
  808MOL0     C 8971   0.954  10.700   1.839 -0.2806 -0.0100 -0.4479
  808MOL0     C 8972   0.838  10.726   1.763 -0.3170 -0.5193  0.3385
  808MOL0     C 8973   0.818  10.873   1.717 -0.4662  0.3529 -0.6485
  808MOL0     C 8974   0.743  10.616   1.741 -0.9393 -0.5378  0.3515
  808MOL0     C 8975   0.611  10.644   1.691  1.3614 -0.3861 -0.1921
  808MOL0     O 8976   0.554  10.766   1.682  0.9228 -0.2898 -0.1335
  808MOL0     C 8977   0.414  10.784   1.656 -0.3453 -0.1278 -0.0922
  808MOL0     C 8978   0.324  10.715   1.739  0.9268  0.2746  0.6603
  808MOL0     C 8979   0.191  10.747   1.726 -0.0955 -0.3365 -0.1402
  808MOL0     C 8980   0.145  10.825   1.626  0.3269 -0.8129  0.4657
  808MOL0     O 8981   0.009  10.832   1.609 -0.2143  0.0724 -0.3321
  808MOL0     C 8982  -0.051  10.702   1.587 -0.3566 -0.5106  1.1422
  808MOL0     C 8983  -0.148  10.658   1.698  0.0621 -0.2027  0.4524
  808MOL0     C 8984  -0.289  10.715   1.686  0.5130  0.2095 -0.0249
  808MOL0     C 8985  -0.316  10.837   1.775 -0.2121  1.3291  0.1017
  808MOL0     C 8986  -0.465  10.866   1.773 -0.7368  0.8215  0.0155
  808MOL0     C 8987  -0.495  10.965   1.885 -0.2295 -0.0491  0.0020
  808MOL0     C 8988  -0.649  10.989   1.881 -0.6149 -0.0089 -0.3679
  808MOL0     C 8989  -0.682  11.073   2.003  0.4727  1.1720 -0.4703
  808MOL0    Cl 8990  -0.730  10.958   2.134  0.0351 -0.1535 -0.5346
  808MOL0     C 8991   0.234  10.911   1.558 -0.5513 -0.2110 -0.1028
  808MOL0     C 8992   0.374  10.886   1.574  0.6469  0.4001 -0.2228
  808MOL0     O 8993   0.548  10.544   1.647 -0.2666 -0.1140  0.1835
  808MOL0     C 8994   0.778  10.484   1.783 -0.1600  0.6239 -0.6378
  808MOL0     C 8995   0.908  10.465   1.838  0.3546  0.5131  0.1148
  808MOL0     N 8996   1.611  10.941   2.012  0.0017  0.7370  0.1477
  808MOL0     N 8997   1.723  10.999   2.055  0.2160 -0.1482 -0.3642
  808MOL0     C 8998   2.111  10.247   2.021 -0.2388  1.0242 -0.2490
  808MOL0     C 8999   2.187  10.181   1.918  0.1674 -0.2201  0.7057
  808MOL0     C 9000   2.573   9.951   1.742  0.1892 -0.1181  0.6590
  808MOL0     C 9001   2.610  10.050   1.647  0.7730 -0.2878  0.4631
  808MOL0     C 9002   2.708  10.029   1.556 -0.5265 -0.2248  0.3200
  808MOL0     C 9003   2.777   9.906   1.552 -0.9841  0.1012 -0.0529
  808MOL0     O 9004   2.885   9.901   1.479  1.0919  0.0107  0.2854
  808MOL0     C 9005   3.012   9.867   1.540 -0.6090  0.1651  0.1186
  808MOL0     C 9006   3.065   9.984   1.614 -0.0836 -0.2022  0.1621
  808MOL0     C 9007   3.203   9.980   1.679 -0.2293 -0.3660 -0.7224
  808MOL0     C 9008   3.209   9.857   1.773  0.2156  0.3295 -0.5786
  808MOL0     C 9009   3.120   9.879   1.890 -0.9461 -0.4333 -0.6220
  808MOL0     C 9010   3.050   9.900   1.984 -0.6608 -0.3580 -0.2021
  808MOL0     C 9011   2.737   9.801   1.636  0.3235  0.1549  0.1687
  808MOL0     C 9012   2.629   9.824   1.720  0.0611 -0.5396  0.0264
  808MOL0     H 9013   2.490  10.166   2.075  0.9586  1.8635 -2.5036
  808MOL0     H 9014   2.356  10.294   2.251 -1.6833  1.0449  0.6035
  808MOL0     H 9015   1.934  10.394   2.185 -0.2826 -2.3444 -1.4269
  808MOL0     H 9016   1.918  10.234   2.269  3.0115 -1.6646  3.3965
  808MOL0     H 9017   1.817  10.338   2.424  1.0001 -2.4914 -0.0552
  808MOL0     H 9018   1.986  10.351   2.471  1.4288 -1.1992 -2.6037
  808MOL0     H 9019   1.812  10.560   2.322 -0.1036  1.4698  1.2264
  808MOL0     H 9020   1.875  10.562   2.494 -1.8213 -2.2915  0.5447
  808MOL0     H 9021   2.113  10.576   2.427  1.2434  2.4739 -0.0326
  808MOL0     H 9022   2.074  10.570   2.257 -1.1861 -0.1657 -0.4092
  808MOL0     H 9023   1.958  10.804   2.431 -2.7201 -2.5512  0.1294
  808MOL0     H 9024   2.120  10.813   2.375  0.1516 -0.3290  0.7973
  808MOL0     H 9025   2.031  10.800   2.132 -0.5816  2.4013  0.0936
  808MOL0     H 9026   1.879  10.771   2.191  0.2330 -0.5630 -1.9501
  808MOL0     H 9027   2.048  11.008   2.291  0.2519 -4.5674  3.1005
  808MOL0     H 9028   1.987  11.021   2.129  1.2674  1.7571  0.6132
  808MOL0     H 9029   1.834  11.146   2.297  2.1008  0.3162 -3.1762
  808MOL0     H 9030   1.806  10.992   2.384  3.2092 -2.2345  0.1888
  808MOL0     H 9031   1.576  10.883   2.333 -0.7665 -3.7085 -1.0316
  808MOL0     H 9032   1.357  10.813   2.192 -1.2304  2.8887 -1.4357
  808MOL0     H 9033   1.357  10.859   2.026  0.6487 -0.9266 -1.7382
  808MOL0     H 9034   1.507  10.615   2.132  2.1498  3.7604  0.6520
  808MOL0     H 9035   1.506  10.664   1.965  2.4560  2.9469  2.0882
  808MOL0     H 9036   1.292  10.569   2.148 -1.4729  0.4459 -0.9361
  808MOL0     H 9037   1.351  10.471   2.016 -0.3683  0.4724 -0.5407
  808MOL0     H 9038   1.247  10.645   1.862 -3.4437  1.5701 -0.5010
  808MOL0     H 9039   1.171  10.712   2.009 -1.1797 -2.9908  2.8407
  808MOL0     H 9040   1.017  10.782   1.870  2.7771 -0.8371 -3.7530
  808MOL0     H 9041   0.785  10.935   1.801 -0.3228  0.9713 -1.0386
  808MOL0     H 9042   0.911  10.922   1.685  2.2959 -4.1647 -0.4462
  808MOL0     H 9043   0.758  10.874   1.626 -1.0060  0.8164 -0.2997
  808MOL0     H 9044   0.361  10.636   1.805  1.7968 -0.3382 -0.5237
  808MOL0     H 9045   0.121  10.697   1.793  1.7627 -1.2760  1.1834
  808MOL0     H 9046  -0.114  10.710   1.498  1.9168  1.4639 -0.4306
  808MOL0     H 9047   0.022  10.622   1.573  1.4206  1.2698 -0.4544
  808MOL0     H 9048  -0.162  10.550   1.696 -0.9676 -0.1061  1.2586
  808MOL0     H 9049  -0.105  10.690   1.794  0.2709  0.4677  0.1464
  808MOL0     H 9050  -0.362  10.634   1.687  1.6967 -1.1133 -3.8778
  808MOL0     H 9051  -0.299  10.742   1.581  1.8854  0.7162 -0.0430
  808MOL0     H 9052  -0.294  10.802   1.876  1.6546 -0.6757 -0.9354
  808MOL0     H 9053  -0.248  10.916   1.741 -0.4336  1.4263 -0.1223
  808MOL0     H 9054  -0.519  10.771   1.784 -1.3787  1.1779 -0.0295
  808MOL0     H 9055  -0.479  10.907   1.672  0.8566  1.2594 -0.0475
  808MOL0     H 9056  -0.460  10.917   1.977  1.3018 -1.2187 -1.1427
  808MOL0     H 9057  -0.437  11.057   1.870  3.2038 -2.3019 -2.0134
  808MOL0     H 9058  -0.707  10.896   1.879  0.7894 -0.9735  0.8225
  808MOL0     H 9059  -0.668  11.045   1.790  0.2153 -2.1824 -1.9752
  808MOL0     H 9060  -0.773  11.128   1.979  0.1827  1.9590  2.0955
  808MOL0     H 9061  -0.603  11.138   2.042 -1.2358  1.2505  3.2622
  808MOL0     H 9062   0.200  10.983   1.485 -0.0779 -1.2852 -1.4235
  808MOL0     H 9063   0.449  10.958   1.544  1.8011  0.0402  1.6345
  808MOL0     H 9064   0.719  10.398   1.754  0.9788 -0.1049 -0.8968
  808MOL0     H 9065   0.940  10.363   1.857 -0.9348  0.3135  1.3666
  808MOL0     H 9066   2.007  10.261   1.994  0.1701  2.8682 -1.0756
  808MOL0     H 9067   2.142  10.157   1.822 -1.1628  0.7628  1.0477
  808MOL0     H 9068   2.576  10.153   1.656  0.4403  0.1033 -3.4296
  808MOL0     H 9069   2.741  10.112   1.494 -0.6742 -0.7239 -0.4520
  808MOL0     H 9070   3.002   9.783   1.610  3.1256  0.3644  1.0899
  808MOL0     H 9071   3.082   9.842   1.460 -0.1210  1.1145  0.2364
  808MOL0     H 9072   2.997  10.021   1.691 -1.8061  0.5985 -1.6617
  808MOL0     H 9073   3.068  10.064   1.540  0.6711 -0.1404  0.2453
  808MOL0     H 9074   3.226  10.080   1.719  0.7290 -0.3408 -1.2905
  808MOL0     H 9075   3.284   9.964   1.607  3.2115 -1.0738  2.9568
  808MOL0     H 9076   3.311   9.836   1.808 -0.3589 -3.0271 -0.5967
  808MOL0     H 9077   3.180   9.760   1.732  1.9494 -0.5351  0.1377
  808MOL0     H 9078   2.997   9.915   2.076 -0.6685 -0.1102 -0.2468
  808MOL0     H 9079   2.791   9.707   1.628 -1.8988 -1.0997 -1.1136
  808MOL0     H 9080   2.603   9.742   1.787 -1.7362 -0.2871 -0.3074
  809MOL0     O 9081  11.280   2.013   7.466  0.1104 -0.1876  0.9493
  809MOL0     C 9082  11.269   2.003   7.583  0.1295  0.1493 -0.0845
  809MOL0     O 9083  11.372   1.984   7.669 -0.1746  0.1868 -0.2886
  809MOL0     C 9084  11.499   1.984   7.623  0.0079  0.0232  0.9475
  809MOL0     C 9085  11.584   1.871   7.632  0.8493  0.0182  0.7162
  809MOL0     C 9086  11.717   1.889   7.602 -0.3609 -0.2046  0.4239
  809MOL0     C 9087  11.770   2.006   7.537 -0.3923 -0.5492 -0.2388
  809MOL0     O 9088  11.900   2.019   7.488  0.6262 -0.1785  0.3302
  809MOL0     C 9089  12.000   1.935   7.550 -0.2782  0.6404 -0.4780
  809MOL0     C 9090  12.135   1.948   7.484 -0.5356 -0.7672 -0.0668
  809MOL0     C 9091  12.153   1.904   7.336 -0.2637 -0.0592  0.3063
  809MOL0     C 9092  12.146   1.750   7.329 -0.0251  0.4415  0.1654
  809MOL0     C 9093  12.166   1.707   7.190 -0.3285 -0.6116  0.2047
  809MOL0     C 9094  12.151   1.557   7.194  0.0568  1.1813  0.2540
  809MOL0     C 9095  12.005   1.504   7.181 -0.8198 -0.4330  0.0111
  809MOL0     C 9096  11.997   1.359   7.144  0.1857 -0.0139 -0.7076
  809MOL0     N 9097  11.872   1.330   7.066  0.2713  0.6077  0.2537
  809MOL0     C 9098  11.740   1.382   7.086  0.1217  0.5642 -0.4949
  809MOL0     C 9099  11.661   1.360   6.971 -0.3455  0.2377 -0.0690
  809MOL0     C 9100  11.514   1.396   6.938 -0.0498 -0.9169  0.6778
  809MOL0     C 9101  11.409   1.317   7.006 -0.5638  0.4023 -0.2117
  809MOL0     C 9102  11.290   1.311   6.922  0.1088  0.4267  0.9085
  809MOL0     C 9103  11.210   1.439   6.903 -0.2316  0.1205 -0.4299
  809MOL0     O 9104  11.149   1.466   7.034  0.4582 -0.0267  0.3371
  809MOL0     C 9105  11.091   1.587   7.042  0.0491 -0.0727  0.6314
  809MOL0     C 9106  11.160   1.705   7.003  0.1389 -0.3510 -0.0542
  809MOL0     C 9107  11.099   1.830   7.019  1.2117 -0.6336 -0.2403
  809MOL0     C 9108  11.149   1.966   6.979  0.2500 -0.4909 -0.0019
  809MOL0     C 9109  10.971   1.833   7.082  0.9720  0.0783  0.4421
  809MOL0     C 9110  10.902   1.960   7.120 -0.8064 -0.4923 -0.3623
  809MOL0     O 9111  10.776   1.989   7.092 -0.0622 -1.0691  1.0979
  809MOL0     C 9112  10.708   1.929   6.992  0.2827  0.1649 -0.0474
  809MOL0     C 9113  10.603   1.837   7.031 -0.1599 -0.0097 -0.6171
  809MOL0     C 9114  10.532   1.787   6.922 -0.1204  0.0850 -0.2009
  809MOL0     C 9115  10.549   1.822   6.789  0.0388  0.5758 -0.5526
  809MOL0     O 9116  10.470   1.754   6.697 -0.1382 -0.0899 -0.0709
  809MOL0     C 9117  10.490   1.772   6.559  0.2386  0.4736  0.9957
  809MOL0     C 9118  10.381   1.705   6.471 -0.0082  0.2630 -0.1467
  809MOL0     C 9119  10.382   1.553   6.481 -0.1493  0.9539 -0.1371
  809MOL0     C 9120  10.450   1.487   6.361  1.0313  1.3876 -0.0524
  809MOL0     C 9121  10.486   1.345   6.401  0.6948  0.6090 -0.1509
  809MOL0     C 9122  10.557   1.257   6.297 -0.0615 -0.8403 -0.1881
  809MOL0     C 9123  10.694   1.307   6.247  0.1664  0.2661  0.0092
  809MOL0     C 9124  10.724   1.260   6.112 -0.0296  0.5024 -0.5468
  809MOL0    Cl 9125  10.745   1.079   6.123 -0.1206  0.2768  0.4260
  809MOL0     C 9126  10.647   1.916   6.758  0.6103  0.0238  0.2775
  809MOL0     C 9127  10.731   1.967   6.859 -0.2149  0.8553 -0.8332
  809MOL0     O 9128  10.969   2.030   7.198  0.1660 -0.5304 -0.1459
  809MOL0     C 9129  10.906   1.711   7.121  0.2575 -0.6680 -0.1647
  809MOL0     C 9130  10.971   1.592   7.109  0.0092  0.4551 -0.0656
  809MOL0     N 9131  11.746   1.295   6.882  0.6472 -0.0951 -0.8537
  809MOL0     N 9132  11.860   1.273   6.939 -1.1120 -0.6809  0.0499
  809MOL0     C 9133  11.682   2.119   7.523  0.2157  0.0766 -1.1098
  809MOL0     C 9134  11.548   2.098   7.558 -1.3589 -0.4716  0.0647
  809MOL0     C 9135  11.132   1.991   7.638 -0.3197 -1.7137 -0.5579
  809MOL0     C 9136  11.111   1.955   7.772 -0.6272 -0.1797 -0.1678
  809MOL0     C 9137  10.987   1.926   7.818  0.6125 -0.2491 -0.0424
  809MOL0     C 9138  10.875   1.928   7.729  0.7538  0.0605  0.0622
  809MOL0     O 9139  10.747   1.890   7.772 -0.5580 -0.5986  0.1269
  809MOL0     C 9140  10.735   1.758   7.805  0.2007  0.0424 -0.4309
  809MOL0     C 9141  10.696   1.687   7.678 -0.6904 -0.2653  0.2363
  809MOL0     C 9142  10.821   1.612   7.620  0.2596  0.4882  1.0948
  809MOL0     C 9143  10.781   1.550   7.485  0.4151  0.4999 -0.3714
  809MOL0     C 9144  10.884   1.468   7.420 -0.1124 -0.2266  0.1163
  809MOL0     C 9145  10.969   1.387   7.382 -0.0966 -0.8461  0.5039
  809MOL0     C 9146  10.892   1.970   7.600 -0.2262  0.2251  0.4180
  809MOL0     C 9147  11.023   1.998   7.555 -0.6398 -0.6354  0.5614
  809MOL0     H 9148  11.544   1.782   7.680  0.3030 -0.0757  0.1006
  809MOL0     H 9149  11.784   1.806   7.624  0.3569  0.1864 -0.2371
  809MOL0     H 9150  12.007   1.948   7.658 -0.1238  0.2297 -0.4388
  809MOL0     H 9151  11.976   1.829   7.536 -0.9030  0.6624  0.3774
  809MOL0     H 9152  12.157   2.056   7.491 -1.1939 -0.6733  0.6745
  809MOL0     H 9153  12.212   1.906   7.549 -0.4957  0.2389  0.5668
  809MOL0     H 9154  12.080   1.957   7.273 -1.3010 -1.9721 -0.1687
  809MOL0     H 9155  12.257   1.926   7.308  0.0707  0.3130  1.7917
  809MOL0     H 9156  12.222   1.702   7.391 -0.3263 -1.8557 -1.1164
  809MOL0     H 9157  12.045   1.718   7.359 -1.0186  1.0278 -2.3178
  809MOL0     H 9158  12.089   1.760   7.134  0.7989  0.1953 -0.6291
  809MOL0     H 9159  12.264   1.731   7.147 -1.8390 -0.5261 -3.4908
  809MOL0     H 9160  12.198   1.527   7.099 -2.8790  2.4572 -1.7661
  809MOL0     H 9161  12.215   1.513   7.271 -0.0314  1.2547  0.3695
  809MOL0     H 9162  11.946   1.524   7.271 -1.2237  1.7865 -0.6948
  809MOL0     H 9163  11.955   1.562   7.103 -0.0326  0.6628  0.2929
  809MOL0     H 9164  11.988   1.302   7.237 -1.7738  1.3433 -0.0048
  809MOL0     H 9165  12.085   1.320   7.091  1.6587 -0.0730  1.6464
  809MOL0     H 9166  11.697   1.424   7.176 -4.0764  1.1431 -2.5123
  809MOL0     H 9167  11.510   1.505   6.945 -0.0460 -0.9066  0.5210
  809MOL0     H 9168  11.503   1.380   6.830 -0.7188  0.3523  0.5323
  809MOL0     H 9169  11.389   1.364   7.103  1.7067  2.2950 -0.5592
  809MOL0     H 9170  11.454   1.221   7.030 -0.2515  0.3140 -1.1216
  809MOL0     H 9171  11.221   1.240   6.968  2.8451 -1.7071  2.0025
  809MOL0     H 9172  11.321   1.273   6.824  1.7227 -2.2963  2.3476
  809MOL0     H 9173  11.134   1.404   6.832 -4.5942  1.6920  3.0043
  809MOL0     H 9174  11.273   1.518   6.861 -0.2458  0.0476 -0.5890
  809MOL0     H 9175  11.265   1.696   6.976  0.2714  1.1104 -0.1144
  809MOL0     H 9176  11.073   2.010   6.914 -0.6497 -0.6818  0.8913
  809MOL0     H 9177  11.167   2.025   7.069  0.5504 -0.2098 -0.2440
  809MOL0     H 9178  11.240   1.964   6.918  0.0754  1.8061 -0.4149
  809MOL0     H 9179  10.579   1.819   7.135 -0.4439 -1.4944 -0.9296
  809MOL0     H 9180  10.458   1.712   6.947 -0.7359  0.5461 -0.6222
  809MOL0     H 9181  10.496   1.878   6.532  1.2119  0.3590  0.7286
  809MOL0     H 9182  10.592   1.741   6.537 -0.1437 -0.4916  0.5409
  809MOL0     H 9183  10.282   1.750   6.486 -0.5307 -0.0523 -2.2903
  809MOL0     H 9184  10.384   1.747   6.370 -3.1111  2.2088  0.4312
  809MOL0     H 9185  10.281   1.513   6.489  0.3333 -0.1224  1.0000
  809MOL0     H 9186  10.416   1.520   6.580  0.5252  2.1658  0.0578
  809MOL0     H 9187  10.380   1.485   6.277 -0.6240 -1.1729  1.2617
  809MOL0     H 9188  10.540   1.535   6.321 -0.6427  2.0725 -3.3495
  809MOL0     H 9189  10.395   1.295   6.434 -0.1842  1.3221 -1.4456
  809MOL0     H 9190  10.543   1.364   6.492 -0.7460  1.3092  0.6384
  809MOL0     H 9191  10.569   1.161   6.348  3.8872 -0.5648 -0.2480
  809MOL0     H 9192  10.484   1.259   6.217 -0.7969 -1.6542  0.4436
  809MOL0     H 9193  10.776   1.275   6.313 -1.1120 -0.1851  1.4368
  809MOL0     H 9194  10.692   1.416   6.244  0.8685  0.2769 -2.7650
  809MOL0     H 9195  10.816   1.307   6.077  0.4005  0.8998  1.0536
  809MOL0     H 9196  10.644   1.296   6.046 -0.3327  4.5749  1.7300
  809MOL0     H 9197  10.661   1.941   6.653 -2.9201  0.0868 -0.3072
  809MOL0     H 9198  10.813   2.034   6.835 -0.4478  0.6884 -2.1767
  809MOL0     H 9199  10.815   1.724   7.179  2.1110 -3.9114  4.0519
  809MOL0     H 9200  10.928   1.496   7.138  2.2041 -0.9041 -1.0030
  809MOL0     H 9201  11.723   2.209   7.477  1.4984 -0.1328 -0.4394
  809MOL0     H 9202  11.484   2.185   7.555  1.1507  1.4795 -1.7489
  809MOL0     H 9203  11.197   1.937   7.836 -1.1674  4.1637  2.1849
  809MOL0     H 9204  10.982   1.875   7.914  1.5466  0.7071  0.5350
  809MOL0     H 9205  10.819   1.706   7.852  0.2324 -2.6795 -3.1934
  809MOL0     H 9206  10.653   1.743   7.876 -3.1893 -1.3481 -4.2501
  809MOL0     H 9207  10.655   1.768   7.618 -0.8035 -0.6087 -0.1516
  809MOL0     H 9208  10.613   1.624   7.711 -0.7734  0.3177  1.1848
  809MOL0     H 9209  10.833   1.524   7.685  0.1407 -2.1803 -2.1873
  809MOL0     H 9210  10.910   1.675   7.610  0.2851  0.3870  0.6588
  809MOL0     H 9211  10.746   1.622   7.410 -2.5602 -1.0973 -0.6629
  809MOL0     H 9212  10.696   1.482   7.487 -0.1208  1.1527 -0.7347
  809MOL0     H 9213  11.041   1.314   7.349  0.3403 -1.1118  1.9969
  809MOL0     H 9214  10.808   1.957   7.532  0.0316 -1.9761  0.4442
  809MOL0     H 9215  11.031   2.019   7.449  0.5729  0.0022  0.7585
  810MOL0     O 9216   8.114   1.061   8.858  0.9402  0.5473  0.3731
  810MOL0     C 9217   8.118   0.947   8.803 -0.0780  0.5984  0.4562
  810MOL0     O 9218   8.022   0.900   8.716 -0.2820  0.9037 -0.1646
  810MOL0     C 9219   7.913   0.987   8.684  0.6416  0.4435 -0.8837
  810MOL0     C 9220   7.927   1.107   8.617 -0.3586 -0.1785  0.5632
  810MOL0     C 9221   7.809   1.177   8.571 -0.6164 -0.2311  0.6369
  810MOL0     C 9222   7.679   1.121   8.593  0.5668 -0.3517 -0.2133
  810MOL0     O 9223   7.574   1.206   8.557 -0.6425  0.1611  0.7450
  810MOL0     C 9224   7.449   1.141   8.540  0.3253 -0.1160  0.0695
  810MOL0     C 9225   7.337   1.241   8.521 -0.0202  0.4156 -0.6829
  810MOL0     C 9226   7.322   1.341   8.633  0.2029  0.1327  0.2037
  810MOL0     C 9227   7.216   1.456   8.587 -1.3192 -0.6958 -0.0742
  810MOL0     C 9228   7.134   1.524   8.701 -0.1920  0.6479 -0.4430
  810MOL0     C 9229   7.031   1.426   8.777 -0.1694 -1.1926  0.0123
  810MOL0     C 9230   6.917   1.503   8.850  0.6212  0.3823  0.3485
  810MOL0     C 9231   6.842   1.420   8.954  0.4491 -0.0861 -0.1415
  810MOL0     N 9232   6.752   1.504   9.032  1.0736 -0.1157 -0.0908
  810MOL0     C 9233   6.794   1.580   9.141  0.2241  0.4019  0.2210
  810MOL0     C 9234   6.681   1.616   9.204  0.6327  0.0053  0.5784
  810MOL0     C 9235   6.675   1.701   9.327  0.0209  0.6961  0.4141
  810MOL0     C 9236   6.658   1.851   9.292 -0.0972  0.0472  0.2637
  810MOL0     C 9237   6.649   1.946   9.414 -0.2106  1.0200  0.2411
  810MOL0     C 9238   6.519   1.929   9.502  0.0555  0.6896  0.0848
  810MOL0     O 9239   6.406   1.889   9.431 -0.1656  0.1634  0.4741
  810MOL0     C 9240   6.351   1.987   9.352  0.1938 -0.5190 -0.4971
  810MOL0     C 9241   6.367   2.127   9.361 -0.7300 -0.1129 -0.0113
  810MOL0     C 9242   6.293   2.218   9.289 -0.0832 -0.2577 -0.3558
  810MOL0     C 9243   6.334   2.368   9.305  0.6170 -0.6678 -0.2102
  810MOL0     C 9244   6.204   2.171   9.186  0.8287 -1.3454  0.0774
  810MOL0     C 9245   6.116   2.259   9.096  0.4197  0.3245 -0.2669
  810MOL0     O 9246   6.065   2.189   8.983  0.6085  0.5011 -0.1673
  810MOL0     C 9247   5.965   2.243   8.899  0.5310  0.0433  0.1429
  810MOL0     C 9248   5.827   2.257   8.932  0.6235  0.3220  0.3802
  810MOL0     C 9249   5.732   2.310   8.847 -0.5347 -0.8379 -0.3820
  810MOL0     C 9250   5.779   2.376   8.725  0.2791  0.1970  0.6933
  810MOL0     O 9251   5.702   2.442   8.632 -0.5438 -0.0914 -0.1954
  810MOL0     C 9252   5.579   2.491   8.669  0.2332 -0.5889 -0.5532
  810MOL0     C 9253   5.462   2.415   8.600 -1.3920 -0.0362  0.7837
  810MOL0     C 9254   5.330   2.494   8.596 -0.4401 -0.8562  0.0792
  810MOL0     C 9255   5.251   2.496   8.729 -0.1096 -0.3862  0.0453
  810MOL0     C 9256   5.164   2.623   8.733  0.0901 -0.2226  0.2396
  810MOL0     C 9257   5.042   2.609   8.637  0.3271 -0.5587 -0.5828
  810MOL0     C 9258   4.937   2.736   8.661 -0.1507 -0.3975 -1.6476
  810MOL0     C 9259   4.869   2.780   8.534  0.2803 -1.9312 -0.1473
  810MOL0    Cl 9260   4.841   2.957   8.552 -0.2190 -0.0728 -0.2802
  810MOL0     C 9261   5.915   2.356   8.687 -0.3610 -0.2564  0.3922
  810MOL0     C 9262   6.000   2.299   8.776 -0.1459  0.1495 -0.3304
  810MOL0     O 9263   6.099   2.379   9.119  0.1654 -0.3292  0.6797
  810MOL0     C 9264   6.197   2.033   9.167  0.7525  0.0833  0.1344
  810MOL0     C 9265   6.266   1.945   9.250 -0.0790 -0.1210  0.4394
  810MOL0     N 9266   6.571   1.571   9.128 -0.3797  0.7087  0.3826
  810MOL0     N 9267   6.616   1.509   9.026 -0.6209  0.6347  0.7373
  810MOL0     C 9268   7.664   1.004   8.673 -0.6485 -0.2722 -0.2486
  810MOL0     C 9269   7.781   0.931   8.711 -0.3506 -0.3162  0.3595
  810MOL0     C 9270   8.243   0.868   8.822  0.1484  0.1342  0.4462
  810MOL0     C 9271   8.264   0.745   8.749 -0.3478  0.0960  0.8019
  810MOL0     C 9272   8.392   0.676   8.755  0.0125 -0.0565 -0.3336
  810MOL0     C 9273   8.499   0.732   8.825 -0.6512 -0.1352  0.9986
  810MOL0     O 9274   8.627   0.683   8.826  0.1205  0.0043 -0.2283
  810MOL0     C 9275   8.644   0.547   8.790 -0.1128  0.2424 -0.7685
  810MOL0     C 9276   8.788   0.531   8.771  0.9962 -0.5758  0.1839
  810MOL0     C 9277   8.843   0.564   8.625  0.5098 -0.8255 -0.5885
  810MOL0     C 9278   8.989   0.595   8.623  0.3077 -1.3742  0.7602
  810MOL0     C 9279   9.030   0.573   8.486  0.9848 -0.4648 -0.5145
  810MOL0     C 9280   9.076   0.557   8.375  0.4555 -0.6379 -0.2154
  810MOL0     C 9281   8.468   0.853   8.900 -0.5768 -0.0127  0.0539
  810MOL0     C 9282   8.348   0.924   8.899 -0.1531 -0.8418 -0.5019
  810MOL0     H 9283   8.026   1.144   8.593 -0.4837 -1.6972 -2.8244
  810MOL0     H 9284   7.821   1.267   8.513  0.8324 -1.4679 -1.1150
  810MOL0     H 9285   7.458   1.079   8.451  4.1598  1.1189 -0.6021
  810MOL0     H 9286   7.417   1.084   8.627  1.5014  0.4811  0.9234
  810MOL0     H 9287   7.344   1.307   8.434 -0.7534  1.9293  0.3373
  810MOL0     H 9288   7.243   1.188   8.503 -1.2955  2.2901  0.0608
  810MOL0     H 9289   7.297   1.295   8.729  1.8016  2.3322  1.7834
  810MOL0     H 9290   7.422   1.383   8.650  1.0254 -1.8668  0.5647
  810MOL0     H 9291   7.270   1.528   8.525  1.4696 -1.2393  1.5427
  810MOL0     H 9292   7.142   1.415   8.518 -0.7950  2.1897 -2.5560
  810MOL0     H 9293   7.210   1.555   8.773 -0.7210 -1.0064  0.8919
  810MOL0     H 9294   7.086   1.616   8.666  0.2388  0.9735 -0.1894
  810MOL0     H 9295   6.997   1.346   8.710 -2.8399 -1.4998  1.5636
  810MOL0     H 9296   7.084   1.376   8.859 -2.9761 -0.4930  2.4116
  810MOL0     H 9297   6.964   1.587   8.901  0.4528  0.1021  0.9763
  810MOL0     H 9298   6.844   1.535   8.774  1.6368 -1.9226 -1.7577
  810MOL0     H 9299   6.912   1.382   9.029 -1.1988  2.2246  2.7508
  810MOL0     H 9300   6.789   1.340   8.902  0.3617  0.1404 -0.4069
  810MOL0     H 9301   6.895   1.600   9.173  1.0225 -3.8855  0.9339
  810MOL0     H 9302   6.588   1.658   9.378 -1.3523  0.7241 -1.7664
  810MOL0     H 9303   6.768   1.684   9.383 -0.2323 -0.5580  0.4899
  810MOL0     H 9304   6.570   1.863   9.228 -0.3141 -3.4382 -0.2973
  810MOL0     H 9305   6.749   1.870   9.234 -0.0658  2.2225  0.9462
  810MOL0     H 9306   6.650   2.050   9.381  1.2972  1.0699  0.3698
  810MOL0     H 9307   6.739   1.927   9.473  0.5445  1.7975 -0.6479
  810MOL0     H 9308   6.510   2.026   9.551 -0.0376  0.9297 -0.3998
  810MOL0     H 9309   6.537   1.843   9.567 -2.0856 -0.5844 -0.8946
  810MOL0     H 9310   6.429   2.164   9.442 -2.5905 -0.5461  1.6889
  810MOL0     H 9311   6.432   2.374   9.353 -0.7407 -2.0504  2.9760
  810MOL0     H 9312   6.344   2.417   9.207  2.0190 -2.4059 -0.9926
  810MOL0     H 9313   6.280   2.424   9.382  1.6126 -2.3641  1.8062
  810MOL0     H 9314   5.796   2.218   9.028 -2.1138  0.8417 -0.2064
  810MOL0     H 9315   5.627   2.308   8.875  0.0117  0.5381  2.0486
  810MOL0     H 9316   5.548   2.484   8.774  1.6241 -1.0396 -0.1517
  810MOL0     H 9317   5.570   2.596   8.639  3.8412  0.1065  0.3466
  810MOL0     H 9318   5.501   2.401   8.498  0.3209 -1.3825  1.5750
  810MOL0     H 9319   5.461   2.312   8.636  0.3252 -0.8862 -1.3065
  810MOL0     H 9320   5.254   2.456   8.528 -0.3909 -0.7928 -0.0108
  810MOL0     H 9321   5.342   2.600   8.572 -4.4717  0.0886  1.5460
  810MOL0     H 9322   5.184   2.409   8.730  0.0377 -0.5507 -1.4836
  810MOL0     H 9323   5.321   2.499   8.813  1.3676  3.2661 -1.1282
  810MOL0     H 9324   5.238   2.701   8.721 -0.0944 -0.2665 -1.3782
  810MOL0     H 9325   5.124   2.632   8.835  0.8757 -0.5973  0.5929
  810MOL0     H 9326   5.085   2.616   8.536 -2.1234  1.7274 -1.5889
  810MOL0     H 9327   4.983   2.519   8.656 -1.2479  0.4309 -0.5853
  810MOL0     H 9328   4.994   2.810   8.717  1.0609 -2.0649 -0.5626
  810MOL0     H 9329   4.863   2.700   8.733  2.0626 -3.3088 -0.6093
  810MOL0     H 9330   4.774   2.726   8.531 -0.3627 -0.8424 -3.8428
  810MOL0     H 9331   4.925   2.749   8.446  3.7252 -1.5618  1.7284
  810MOL0     H 9332   5.944   2.381   8.586 -3.4395 -0.6708 -0.7078
  810MOL0     H 9333   6.102   2.275   8.749 -1.4299 -3.0234 -2.8960
  810MOL0     H 9334   6.124   1.997   9.096  1.8085 -0.6045 -0.6342
  810MOL0     H 9335   6.262   1.838   9.234 -4.8444  0.0365 -1.3765
  810MOL0     H 9336   7.566   0.969   8.705  0.6643 -1.8520  2.3329
  810MOL0     H 9337   7.779   0.830   8.750  2.1933 -0.4657  0.2675
  810MOL0     H 9338   8.194   0.701   8.679  0.8328 -1.0256  0.2930
  810MOL0     H 9339   8.408   0.578   8.712  0.1406 -1.3465  2.4048
  810MOL0     H 9340   8.608   0.487   8.874  1.1403  3.3119  2.1735
  810MOL0     H 9341   8.598   0.506   8.700  0.4599  2.2144 -2.0311
  810MOL0     H 9342   8.808   0.426   8.794 -1.6298 -1.4711 -1.1945
  810MOL0     H 9343   8.832   0.594   8.848 -0.2164 -0.3048  0.6824
  810MOL0     H 9344   8.787   0.647   8.581 -1.3790 -2.6268 -1.7508
  810MOL0     H 9345   8.814   0.477   8.566 -1.7935 -0.4639 -0.0781
  810MOL0     H 9346   9.039   0.519   8.683  1.8198 -2.1098 -1.2944
  810MOL0     H 9347   9.019   0.697   8.646  0.8563 -1.5467  0.8196
  810MOL0     H 9348   9.113   0.550   8.274 -1.2661  1.3433 -1.0592
  810MOL0     H 9349   8.547   0.895   8.962  0.7233 -0.5248 -1.2139
  810MOL0     H 9350   8.344   1.010   8.965  0.9539 -0.1366 -1.3197
  811MOL0     O 9351   5.302   4.015   0.492  0.6887  0.0973 -0.5856
  811MOL0     C 9352   5.265   3.941   0.400  0.7364 -0.0137 -0.3478
  811MOL0     O 9353   5.135   3.902   0.383  0.0693 -0.3540 -0.8618
  811MOL0     C 9354   5.034   3.898   0.491 -0.4185  0.0575  0.3723
  811MOL0     C 9355   4.902   3.866   0.456 -0.1190 -0.2683  0.4942
  811MOL0     C 9356   4.802   3.878   0.553 -0.2785  0.5842 -0.0711
  811MOL0     C 9357   4.826   3.904   0.690 -0.1288 -0.4128 -0.2210
  811MOL0     O 9358   4.734   3.918   0.789  0.5611  0.5716  1.0253
  811MOL0     C 9359   4.595   3.898   0.745 -0.4932 -0.9877  0.1048
  811MOL0     C 9360   4.509   3.908   0.868  0.9628  0.5037 -0.9123
  811MOL0     C 9361   4.503   4.052   0.929  0.6068  0.3070  0.2813
  811MOL0     C 9362   4.429   4.054   1.063  0.2524 -0.4194 -0.3103
  811MOL0     C 9363   4.372   4.196   1.103  0.8234 -0.5028 -0.2009
  811MOL0     C 9364   4.483   4.300   1.120  0.0688  0.2190  0.5552
  811MOL0     C 9365   4.432   4.440   1.119  0.1940 -0.4668  0.1935
  811MOL0     C 9366   4.373   4.490   1.262 -0.1424 -0.6469  0.6509
  811MOL0     N 9367   4.345   4.634   1.267  0.3081  0.2490 -0.0700
  811MOL0     C 9368   4.293   4.699   1.156 -0.0155  0.3590 -0.7046
  811MOL0     C 9369   4.252   4.820   1.209  0.3901  0.3801 -0.1825
  811MOL0     C 9370   4.179   4.933   1.142  0.9479 -0.5579 -0.0638
  811MOL0     C 9371   4.053   4.878   1.078 -0.5600 -0.4131  0.2033
  811MOL0     C 9372   4.005   4.988   0.989  0.4536  0.2072  0.5479
  811MOL0     C 9373   3.851   4.982   0.960  0.1312  0.1932 -0.0110
  811MOL0     O 9374   3.810   4.856   0.909  0.1095  0.2329 -0.2275
  811MOL0     C 9375   3.685   4.845   0.855  0.0155 -1.0765  0.6053
  811MOL0     C 9376   3.576   4.935   0.868  0.1980 -0.3774  0.2740
  811MOL0     C 9377   3.444   4.903   0.818  1.3871 -0.2008  0.5612
  811MOL0     C 9378   3.335   5.002   0.856 -0.7226  0.0418 -0.3659
  811MOL0     C 9379   3.410   4.778   0.754  0.7719  0.1047  1.1689
  811MOL0     C 9380   3.270   4.739   0.692 -0.2479  0.3109  0.1814
  811MOL0     O 9381   3.258   4.622   0.637 -0.1510  0.6829  0.0830
  811MOL0     C 9382   3.152   4.600   0.550  1.2239 -0.3321  0.1458
  811MOL0     C 9383   3.113   4.695   0.451  0.0042  0.0397  0.6465
  811MOL0     C 9384   3.009   4.667   0.355  0.3110  0.3670 -1.7298
  811MOL0     C 9385   2.947   4.543   0.352  0.1942  0.7959  0.3903
  811MOL0     O 9386   2.851   4.509   0.257 -0.5507  0.3643 -0.4429
  811MOL0     C 9387   2.823   4.601   0.161 -0.0939 -0.3631 -0.3457
  811MOL0     C 9388   2.711   4.545   0.063 -0.4490 -0.2804 -1.2582
  811MOL0     C 9389   2.668   4.647  -0.040 -0.2320 -0.5463  0.1787
  811MOL0     C 9390   2.574   4.583  -0.137  0.5859 -0.8506 -0.0868
  811MOL0     C 9391   2.547   4.684  -0.247  0.4949 -0.4914  0.5101
  811MOL0     C 9392   2.442   4.619  -0.337  0.4463 -0.0716  0.2579
  811MOL0     C 9393   2.367   4.728  -0.414 -0.0355 -0.5560 -0.3069
  811MOL0     C 9394   2.461   4.809  -0.512 -0.3586 -0.2456 -0.7721
  811MOL0    Cl 9395   2.367   4.902  -0.631 -0.2733 -0.2365  0.1516
  811MOL0     C 9396   2.990   4.448   0.445  0.2605 -0.1823  0.4591
  811MOL0     C 9397   3.082   4.475   0.543  0.7241  0.7363  0.5008
  811MOL0     O 9398   3.181   4.822   0.701 -0.4311  0.3439  0.0870
  811MOL0     C 9399   3.519   4.691   0.743 -0.0963 -0.0026  0.4152
  811MOL0     C 9400   3.650   4.724   0.790  1.2713 -0.3676  0.0815
  811MOL0     N 9401   4.277   4.819   1.349 -0.2345  0.1461  0.0044
  811MOL0     N 9402   4.331   4.711   1.381 -0.3678  0.6821 -0.1852
  811MOL0     C 9403   4.961   3.928   0.721 -0.3485 -1.3179 -0.1908
  811MOL0     C 9404   5.061   3.920   0.626 -0.0991  0.3247  0.1431
  811MOL0     C 9405   5.354   3.908   0.293 -0.1580 -1.0953 -0.3760
  811MOL0     C 9406   5.312   3.876   0.161  0.5745  0.6350 -0.2459
  811MOL0     C 9407   5.396   3.862   0.058 -0.1806  0.4740  0.2792
  811MOL0     C 9408   5.533   3.874   0.069  0.0870 -0.4855 -0.7966
  811MOL0     O 9409   5.599   3.843  -0.046  0.5458 -0.7458  0.1672
  811MOL0     C 9410   5.745   3.822  -0.044  0.6467  0.3460 -0.5975
  811MOL0     C 9411   5.791   3.772  -0.183  0.8300  0.3274  0.4743
  811MOL0     C 9412   5.939   3.766  -0.190  0.5781 -0.3197 -0.5389
  811MOL0     C 9413   5.981   3.696  -0.319  0.7534 -0.2967  0.1430
  811MOL0     C 9414   6.119   3.746  -0.337  0.0481  0.3223  0.1221
  811MOL0     C 9415   6.221   3.808  -0.366 -0.9853  0.2086 -0.0366
  811MOL0     C 9416   5.584   3.916   0.196 -1.0019  0.2633 -0.2457
  811MOL0     C 9417   5.495   3.922   0.305  0.1682  0.0855 -0.3720
  811MOL0     H 9418   4.876   3.861   0.351  3.6129  1.4014 -0.6904
  811MOL0     H 9419   4.702   3.860   0.517 -0.2574  1.2989 -0.4964
  811MOL0     H 9420   4.556   3.967   0.670  1.6871 -1.1555 -1.2677
  811MOL0     H 9421   4.582   3.794   0.713 -0.3300 -1.8149  2.4994
  811MOL0     H 9422   4.406   3.882   0.841  1.0562  0.5167 -1.2974
  811MOL0     H 9423   4.537   3.842   0.951 -1.7516  1.6177  1.0448
  811MOL0     H 9424   4.610   4.074   0.940  1.1607 -2.1323  0.2933
  811MOL0     H 9425   4.451   4.113   0.855 -1.1226 -0.8777  0.4645
  811MOL0     H 9426   4.342   3.988   1.051  0.8339 -1.6496  1.7573
  811MOL0     H 9427   4.496   4.003   1.133  0.7165 -0.7957 -1.0265
  811MOL0     H 9428   4.302   4.221   1.022 -0.4839 -2.3932  0.2945
  811MOL0     H 9429   4.319   4.195   1.198 -2.1458  0.4769 -1.7336
  811MOL0     H 9430   4.555   4.293   1.202 -0.9685  1.3510  1.6126
  811MOL0     H 9431   4.549   4.291   1.033 -0.2895  0.6663  0.2293
  811MOL0     H 9432   4.510   4.508   1.081  0.7935 -1.4347 -0.3559
  811MOL0     H 9433   4.349   4.452   1.050  0.4972  0.3864 -0.0397
  811MOL0     H 9434   4.447   4.477   1.341  0.9113  1.5509  0.0891
  811MOL0     H 9435   4.285   4.431   1.291  0.1736 -1.1247  0.6532
  811MOL0     H 9436   4.275   4.662   1.055 -0.9712  0.4186 -0.5655
  811MOL0     H 9437   4.145   5.008   1.214 -0.1348 -2.2091  1.2304
  811MOL0     H 9438   4.237   4.989   1.068 -0.2379 -1.1777 -1.5275
  811MOL0     H 9439   3.978   4.845   1.149 -0.3330 -0.2757  0.5104
  811MOL0     H 9440   4.071   4.787   1.020  0.6499  0.2131 -0.4694
  811MOL0     H 9441   4.053   4.979   0.891 -1.6701 -2.0324 -0.3817
  811MOL0     H 9442   4.033   5.086   1.028  1.1483  0.3362 -0.2439
  811MOL0     H 9443   3.829   5.051   0.878  1.4538  1.5949  0.7479
  811MOL0     H 9444   3.794   5.003   1.051 -2.3506  0.7857 -1.6124
  811MOL0     H 9445   3.590   5.029   0.920  1.3677 -0.3354 -0.0901
  811MOL0     H 9446   3.389   5.080   0.910  0.7740 -1.5544  0.5687
  811MOL0     H 9447   3.272   5.034   0.773 -2.6891  2.0949  1.7625
  811MOL0     H 9448   3.269   4.954   0.928 -1.2356  2.0414  0.5673
  811MOL0     H 9449   3.163   4.791   0.452  2.1415 -0.9786 -0.7508
  811MOL0     H 9450   2.990   4.742   0.279 -1.3233  1.6412 -0.1553
  811MOL0     H 9451   2.780   4.690   0.208 -0.5874 -0.8338  0.1122
  811MOL0     H 9452   2.916   4.615   0.105  0.5880 -3.6691 -0.2578
  811MOL0     H 9453   2.741   4.446   0.029  3.3062 -0.2081  1.2447
  811MOL0     H 9454   2.620   4.545   0.123 -0.1264 -3.5678 -0.6072
  811MOL0     H 9455   2.750   4.683  -0.104 -2.1129 -0.7859 -2.5285
  811MOL0     H 9456   2.620   4.734   0.007 -1.1552 -1.7383  1.5022
  811MOL0     H 9457   2.625   4.494  -0.177 -1.3165 -3.1423  2.2985
  811MOL0     H 9458   2.486   4.546  -0.085  0.8224  0.7350  1.5106
  811MOL0     H 9459   2.637   4.703  -0.305 -0.4543  0.6580 -0.6402
  811MOL0     H 9460   2.503   4.781  -0.220 -0.2056 -0.4902 -0.5785
  811MOL0     H 9461   2.469   4.544  -0.412 -1.9701 -1.2646  0.4935
  811MOL0     H 9462   2.377   4.566  -0.267  0.7023  1.2134  1.5267
  811MOL0     H 9463   2.335   4.812  -0.351 -1.3217  0.7211 -2.5391
  811MOL0     H 9464   2.275   4.684  -0.454 -1.0325  1.6282 -0.5434
  811MOL0     H 9465   2.522   4.739  -0.571 -0.7611 -0.8841 -0.4393
  811MOL0     H 9466   2.524   4.874  -0.451 -1.5028 -1.1123  1.4159
  811MOL0     H 9467   2.937   4.353   0.440 -2.4280  1.2790 -0.8453
  811MOL0     H 9468   3.098   4.397   0.617  2.9566  0.7932  0.1415
  811MOL0     H 9469   3.518   4.603   0.679  0.0988  1.7215 -2.1041
  811MOL0     H 9470   3.724   4.646   0.776  0.9923 -0.4776 -0.8657
  811MOL0     H 9471   5.002   3.945   0.820  0.4525 -2.7902 -0.2396
  811MOL0     H 9472   5.166   3.928   0.653  0.9371 -5.0956 -1.1158
  811MOL0     H 9473   5.207   3.853   0.145  0.7359  0.2080 -0.7031
  811MOL0     H 9474   5.346   3.827  -0.032 -1.7907 -2.3308  2.1009
  811MOL0     H 9475   5.794   3.916  -0.016  2.0672 -0.5474  0.0559
  811MOL0     H 9476   5.774   3.745   0.028  1.0663 -0.1887 -1.3237
  811MOL0     H 9477   5.760   3.832  -0.269  0.7570  0.6629  0.7321
  811MOL0     H 9478   5.752   3.671  -0.204 -0.5071  0.5946  1.5075
  811MOL0     H 9479   5.974   3.704  -0.107  0.5473  1.8560  1.2049
  811MOL0     H 9480   5.974   3.869  -0.178 -4.9525  1.8366 -0.0664
  811MOL0     H 9481   5.922   3.731  -0.405  1.9735  0.3302 -0.4669
  811MOL0     H 9482   5.977   3.588  -0.307 -2.6084 -0.2891  0.0841
  811MOL0     H 9483   6.310   3.863  -0.388 -0.7153  0.3143  1.2055
  811MOL0     H 9484   5.689   3.937   0.212 -0.9373  2.1657 -2.5932
  811MOL0     H 9485   5.539   3.945   0.401  0.4135  0.3280 -0.5390
  812MOL0     O 9486   0.523   0.294   3.356 -0.6354 -0.3903  0.3104
  812MOL0     C 9487   0.607   0.326   3.269  0.7960  0.1507 -0.0435
  812MOL0     O 9488   0.630   0.262   3.146 -0.5503 -0.4039 -0.5288
  812MOL0     C 9489   0.543   0.156   3.119 -0.6828  0.2607 -0.5519
  812MOL0     C 9490   0.575   0.020   3.145 -0.0428  1.2794  0.5167
  812MOL0     C 9491   0.495  -0.078   3.111  0.1598  0.2708 -0.1807
  812MOL0     C 9492   0.370  -0.061   3.043 -0.5733  1.0840  0.5414
  812MOL0     O 9493   0.281  -0.154   3.004 -0.3220  0.3874 -0.0679
  812MOL0     C 9494   0.305  -0.290   3.039 -0.0912  0.5035  0.1493
  812MOL0     C 9495   0.170  -0.378   3.019 -0.3929  0.1052  0.1932
  812MOL0     C 9496   0.175  -0.511   3.093  0.7867  0.2263  0.5042
  812MOL0     C 9497   0.032  -0.566   3.099  0.4747 -0.4236 -0.5078
  812MOL0     C 9498   0.013  -0.687   3.202  0.0740 -0.3297  0.6928
  812MOL0     C 9499   0.106  -0.811   3.170 -0.1705 -0.2840  0.0679
  812MOL0     C 9500   0.080  -0.931   3.278  0.2755 -0.4455  0.5521
  812MOL0     C 9501  -0.031  -1.019   3.243  0.2084 -0.6917  0.2433
  812MOL0     N 9502  -0.048  -1.130   3.344  0.2728  0.2604 -0.5269
  812MOL0     C 9503  -0.125  -1.125   3.455  0.1538  0.1741 -0.2974
  812MOL0     C 9504  -0.134  -1.253   3.492 -0.3734  0.2063  0.3870
  812MOL0     C 9505  -0.201  -1.311   3.611 -0.5563  0.0991  0.1569
  812MOL0     C 9506  -0.130  -1.284   3.741  0.5898 -0.6504 -0.4126
  812MOL0     C 9507  -0.203  -1.348   3.857 -0.2575  0.5013  0.6085
  812MOL0     C 9508  -0.348  -1.306   3.874 -0.6748  0.3554  1.1530
  812MOL0     O 9509  -0.407  -1.396   3.964 -0.4385 -0.3064  0.9460
  812MOL0     C 9510  -0.545  -1.388   3.978 -0.1855 -0.4866  0.0036
  812MOL0     C 9511  -0.619  -1.501   4.016  0.0078  0.4220 -0.1430
  812MOL0     C 9512  -0.758  -1.512   4.034 -0.0953 -0.7432  0.2221
  812MOL0     C 9513  -0.820  -1.651   4.080  0.7866  0.7096  0.3561
  812MOL0     C 9514  -0.831  -1.392   4.025 -0.8726 -0.2532  0.0243
  812MOL0     C 9515  -0.975  -1.378   4.044  0.6489  0.5856 -0.2147
  812MOL0     O 9516  -1.056  -1.487   4.007 -0.3623  0.3791 -0.1104
  812MOL0     C 9517  -1.185  -1.473   4.049  0.8624  0.2463 -0.3582
  812MOL0     C 9518  -1.272  -1.402   3.959 -0.3663 -0.0724 -0.8582
  812MOL0     C 9519  -1.387  -1.353   4.022 -0.3797  0.3196 -0.3616
  812MOL0     C 9520  -1.426  -1.375   4.147  0.8263  0.3267 -0.3348
  812MOL0     O 9521  -1.548  -1.316   4.182 -0.8436  0.2760  0.2836
  812MOL0     C 9522  -1.622  -1.383   4.281 -0.4232 -0.0902  0.9580
  812MOL0     C 9523  -1.769  -1.350   4.254 -0.5530  0.4577 -0.2342
  812MOL0     C 9524  -1.831  -1.405   4.116  0.4139 -0.0046 -0.1779
  812MOL0     C 9525  -1.985  -1.387   4.116  0.3805 -0.3480 -0.0826
  812MOL0     C 9526  -2.061  -1.451   4.003 -0.1646 -0.2979 -0.5681
  812MOL0     C 9527  -2.209  -1.416   4.017  0.3065  0.0198 -0.2008
  812MOL0     C 9528  -2.291  -1.522   4.087  0.1807  0.0777  0.1845
  812MOL0     C 9529  -2.441  -1.500   4.065 -0.6140 -0.4557  0.8133
  812MOL0    Cl 9530  -2.500  -1.344   4.132 -0.0114 -0.1030 -0.1152
  812MOL0     C 9531  -1.344  -1.453   4.231 -0.5748  0.1593  0.1714
  812MOL0     C 9532  -1.226  -1.499   4.178 -0.3776  0.3505 -0.1500
  812MOL0     O 9533  -1.016  -1.266   4.071 -0.0466 -0.2884 -0.1482
  812MOL0     C 9534  -0.762  -1.271   3.985 -0.7851  0.5541  0.7791
  812MOL0     C 9535  -0.619  -1.270   3.969  0.3905  0.5456 -0.2869
  812MOL0     N 9536  -0.071  -1.332   3.396  0.2944  0.7216 -0.3392
  812MOL0     N 9537  -0.035  -1.257   3.303 -0.1939  0.2344  0.4063
  812MOL0     C 9538   0.330   0.072   3.037  0.0900  0.5677  1.0304
  812MOL0     C 9539   0.419   0.183   3.067  0.6226 -0.0816 -0.1988
  812MOL0     C 9540   0.699   0.440   3.299 -0.5340 -0.4819 -0.5033
  812MOL0     C 9541   0.725   0.492   3.432 -0.2600  0.2831 -0.7582
  812MOL0     C 9542   0.823   0.591   3.453  1.0114 -0.1558 -0.1054
  812MOL0     C 9543   0.899   0.639   3.349 -0.0306 -0.1977  0.0672
  812MOL0     O 9544   1.002   0.728   3.364  0.7057  0.2722 -0.3532
  812MOL0     C 9545   1.099   0.698   3.469 -0.8715 -0.7848 -0.1739
  812MOL0     C 9546   1.233   0.777   3.449  0.1663 -0.0375  0.3669
  812MOL0     C 9547   1.214   0.934   3.450 -0.5586 -0.0232  0.2427
  812MOL0     C 9548   1.339   1.017   3.445 -0.7570  0.5433 -0.4857
  812MOL0     C 9549   1.416   0.986   3.320 -0.3289 -1.4462  0.6583
  812MOL0     C 9550   1.473   0.971   3.217 -0.9367 -0.0780 -0.2030
  812MOL0     C 9551   0.871   0.595   3.220  0.1045 -0.1685 -0.5222
  812MOL0     C 9552   0.776   0.496   3.192  0.0189  0.6071 -0.0012
  812MOL0     H 9553   0.675  -0.003   3.179  0.7774  0.0199 -2.4304
  812MOL0     H 9554   0.533  -0.177   3.135  4.5895  1.9864  0.8211
  812MOL0     H 9555   0.383  -0.334   2.975 -0.8541  0.7045 -0.9576
  812MOL0     H 9556   0.329  -0.287   3.145 -0.2488 -0.0506  0.2052
  812MOL0     H 9557   0.087  -0.316   3.053  0.7269  1.4131  0.5906
  812MOL0     H 9558   0.155  -0.399   2.912 -3.0303 -1.3043  0.7511
  812MOL0     H 9559   0.240  -0.582   3.042 -0.2044  1.2376 -2.3265
  812MOL0     H 9560   0.209  -0.486   3.194  0.7687  0.4032  0.4661
  812MOL0     H 9561  -0.039  -0.486   3.124  1.9106  0.3070  1.5169
  812MOL0     H 9562   0.006  -0.609   3.002 -0.0994 -2.8673  0.6559
  812MOL0     H 9563   0.031  -0.652   3.304 -0.4761  1.3554  0.2530
  812MOL0     H 9564  -0.090  -0.716   3.183 -0.5095  2.4393 -1.0276
  812MOL0     H 9565   0.081  -0.852   3.072  0.6919 -0.2833 -0.1540
  812MOL0     H 9566   0.210  -0.782   3.182  0.7274 -3.4290  0.8837
  812MOL0     H 9567   0.176  -0.982   3.294  0.8684  1.0108  1.9595
  812MOL0     H 9568   0.065  -0.897   3.381  1.2361  1.2471  0.1749
  812MOL0     H 9569  -0.011  -1.064   3.146 -1.3893 -0.9872  0.0245
  812MOL0     H 9570  -0.121  -0.957   3.241 -0.1670 -1.0883  2.2175
  812MOL0     H 9571  -0.192  -1.052   3.498 -0.3582 -0.2113 -0.4244
  812MOL0     H 9572  -0.299  -1.264   3.599 -0.3191  0.1279 -2.0343
  812MOL0     H 9573  -0.216  -1.418   3.591 -0.3638  0.5386 -2.7795
  812MOL0     H 9574  -0.122  -1.177   3.765  0.1304 -0.4068 -1.3149
  812MOL0     H 9575  -0.031  -1.327   3.724  0.7709 -0.2856 -0.3099
  812MOL0     H 9576  -0.134  -1.335   3.940  1.0828  0.0088 -0.3830
  812MOL0     H 9577  -0.210  -1.456   3.840  2.5344  0.1268  1.4073
  812MOL0     H 9578  -0.392  -1.319   3.774  3.3968  0.4122 -0.8583
  812MOL0     H 9579  -0.367  -1.201   3.898  0.2627  0.3165  2.1411
  812MOL0     H 9580  -0.565  -1.593   4.034 -0.3682  0.2413  0.0881
  812MOL0     H 9581  -0.890  -1.644   4.164 -2.2766  0.5128 -1.9983
  812MOL0     H 9582  -0.876  -1.684   3.992 -1.2146  5.0947 -0.2606
  812MOL0     H 9583  -0.741  -1.722   4.107 -1.7008 -1.3490  2.8688
  812MOL0     H 9584  -1.237  -1.381   3.858  0.9419  0.5729 -0.2885
  812MOL0     H 9585  -1.458  -1.295   3.963  0.7098  1.1033 -0.9339
  812MOL0     H 9586  -1.596  -1.489   4.285 -1.1046 -0.3836 -1.0194
  812MOL0     H 9587  -1.585  -1.338   4.374  3.4243 -1.6724  0.3932
  812MOL0     H 9588  -1.822  -1.402   4.334  0.3487 -2.3124 -1.2997
  812MOL0     H 9589  -1.784  -1.244   4.277  0.7100  0.0572  2.9095
  812MOL0     H 9590  -1.819  -1.513   4.106  2.0943  0.2345 -1.0866
  812MOL0     H 9591  -1.780  -1.357   4.032  0.6576 -3.4980 -2.1925
  812MOL0     H 9592  -2.027  -1.426   4.210 -0.1498 -1.4007 -0.7253
  812MOL0     H 9593  -1.998  -1.279   4.104  2.2991 -0.1967 -1.1230
  812MOL0     H 9594  -2.049  -1.559   4.020 -1.7115 -0.5154 -0.7126
  812MOL0     H 9595  -2.018  -1.423   3.907 -0.7397 -0.0899 -0.7674
  812MOL0     H 9596  -2.222  -1.329   4.082  1.3683 -0.6235  0.9232
  812MOL0     H 9597  -2.249  -1.393   3.917  0.4509  1.7397  0.1011
  812MOL0     H 9598  -2.274  -1.506   4.194 -3.2260  2.0185  0.5674
  812MOL0     H 9599  -2.253  -1.620   4.055  2.6108  1.4011 -1.2822
  812MOL0     H 9600  -2.500  -1.580   4.110 -0.9278 -2.6820 -3.1486
  812MOL0     H 9601  -2.461  -1.507   3.958 -1.0094 -0.1147  0.8625
  812MOL0     H 9602  -1.350  -1.466   4.339  3.6667  1.1591  0.7384
  812MOL0     H 9603  -1.160  -1.556   4.242 -0.4622  0.7164  0.2663
  812MOL0     H 9604  -0.819  -1.180   3.975 -1.7132  0.1539  2.1575
  812MOL0     H 9605  -0.568  -1.175   3.963 -1.0468  1.3764  0.3095
  812MOL0     H 9606   0.250   0.110   2.974  0.7774  1.1719  0.5046
  812MOL0     H 9607   0.393   0.284   3.039 -0.4547 -1.3798 -4.7624
  812MOL0     H 9608   0.665   0.443   3.508  1.0949 -0.2426  0.0161
  812MOL0     H 9609   0.833   0.627   3.555 -0.7263 -2.7496  1.0724
  812MOL0     H 9610   1.056   0.703   3.570 -0.7310 -2.1837 -0.0290
  812MOL0     H 9611   1.145   0.600   3.456  1.6515  0.4666 -1.2439
  812MOL0     H 9612   1.276   0.736   3.357 -2.0264 -0.5892 -0.4640
  812MOL0     H 9613   1.306   0.762   3.529  0.3370  0.6567  0.3470
  812MOL0     H 9614   1.169   0.968   3.543  2.7713 -0.7070  2.2864
  812MOL0     H 9615   1.154   0.967   3.365  0.5908  1.5484 -0.0105
  812MOL0     H 9616   1.399   0.992   3.533 -0.5023  1.9662 -0.2348
  812MOL0     H 9617   1.313   1.123   3.451 -2.5965  0.0299  2.5518
  812MOL0     H 9618   1.532   0.957   3.129 -1.7952  1.4204 -1.0537
  812MOL0     H 9619   0.928   0.636   3.138  0.5719  0.5501  0.1393
  812MOL0     H 9620   0.764   0.465   3.089  0.3708 -3.9836  1.1228
  813MOL0     O 9621   8.803   2.254   6.250 -0.0257 -0.3222  0.3223
  813MOL0     C 9622   8.829   2.346   6.332 -1.0167  0.4414  0.8197
  813MOL0     O 9623   8.752   2.450   6.361  0.1514 -0.3726  0.6679
  813MOL0     C 9624   8.631   2.465   6.304  0.2481  0.4385  0.8659
  813MOL0     C 9625   8.539   2.363   6.285  0.3611  0.2462  0.4415
  813MOL0     C 9626   8.410   2.385   6.247 -0.0956  0.0918  0.8097
  813MOL0     C 9627   8.370   2.506   6.193 -0.0122 -0.7019  0.5409
  813MOL0     O 9628   8.245   2.521   6.140  0.1534  0.5318 -0.5107
  813MOL0     C 9629   8.232   2.511   5.999 -0.2509  0.1683 -0.9934
  813MOL0     C 9630   8.085   2.485   5.970 -0.4075  0.0522  0.3497
  813MOL0     C 9631   8.027   2.348   6.025 -0.5563 -0.8485  1.0304
  813MOL0     C 9632   7.878   2.337   5.977 -0.5499  0.0275 -0.1050
  813MOL0     C 9633   7.793   2.225   6.029 -0.2259 -0.8295  0.1031
  813MOL0     C 9634   7.640   2.249   5.987  0.5229  0.5660  0.7299
  813MOL0     C 9635   7.538   2.129   6.008 -0.2202  0.5791  0.3825
  813MOL0     C 9636   7.519   2.087   6.150 -0.6591  0.1794 -0.4654
  813MOL0     N 9637   7.479   2.182   6.258  0.0763 -0.5553 -0.0318
  813MOL0     C 9638   7.385   2.278   6.229  0.3383 -0.3743  0.4151
  813MOL0     C 9639   7.383   2.359   6.339 -0.2797 -0.2033 -0.3134
  813MOL0     C 9640   7.304   2.479   6.377 -0.4316 -0.8512 -0.5594
  813MOL0     C 9641   7.161   2.453   6.425 -0.4277  0.5570  0.0956
  813MOL0     C 9642   7.091   2.580   6.461 -0.4942  0.4861 -0.7738
  813MOL0     C 9643   6.950   2.541   6.511 -0.4424 -1.3687 -1.1273
  813MOL0     O 9644   6.892   2.661   6.579  0.4957 -0.3765 -0.6425
  813MOL0     C 9645   6.763   2.666   6.621  0.4599 -0.4133  0.0166
  813MOL0     C 9646   6.670   2.561   6.596  0.0838  0.2819 -0.3910
  813MOL0     C 9647   6.537   2.565   6.644 -0.4205 -0.1489  0.5926
  813MOL0     C 9648   6.440   2.448   6.617  0.0993  0.5199 -0.2643
  813MOL0     C 9649   6.493   2.679   6.718 -0.2631 -0.7896 -0.2040
  813MOL0     C 9650   6.351   2.707   6.761  0.1549 -0.2147 -0.4335
  813MOL0     O 9651   6.331   2.756   6.888 -0.5917 -0.4169  0.0204
  813MOL0     C 9652   6.209   2.755   6.953 -0.0617  0.4897  0.9593
  813MOL0     C 9653   6.146   2.631   6.949 -0.6131 -0.1120 -0.7697
  813MOL0     C 9654   6.024   2.620   7.020  0.1744  0.7109  0.2377
  813MOL0     C 9655   5.977   2.720   7.105 -0.1602 -0.7345 -0.5475
  813MOL0     O 9656   5.857   2.691   7.174 -0.6079  0.0896 -0.8135
  813MOL0     C 9657   5.806   2.811   7.238 -0.1332  0.1063  0.1624
  813MOL0     C 9658   5.699   2.759   7.337 -0.2850 -0.3341 -0.6549
  813MOL0     C 9659   5.615   2.878   7.388  0.2304 -0.0768 -1.0940
  813MOL0     C 9660   5.513   2.849   7.493  0.1964  0.3868  0.6159
  813MOL0     C 9661   5.437   2.969   7.530  0.8353  1.3649 -0.3560
  813MOL0     C 9662   5.356   3.036   7.429 -0.2215  1.0483 -1.2486
  813MOL0     C 9663   5.254   3.137   7.485 -0.6277 -0.3843 -0.3619
  813MOL0     C 9664   5.291   3.285   7.471  0.0057  0.3885  0.5581
  813MOL0    Cl 9665   5.459   3.310   7.522 -0.1004 -0.4563 -0.3785
  813MOL0     C 9666   6.055   2.840   7.109 -0.8251 -0.1650  0.0847
  813MOL0     C 9667   6.174   2.858   7.038 -0.0658  0.7642 -0.0798
  813MOL0     O 9668   6.264   2.687   6.676  0.2985 -0.3595  0.7091
  813MOL0     C 9669   6.582   2.792   6.732 -0.1976 -0.3274 -0.3585
  813MOL0     C 9670   6.718   2.786   6.680  0.1007 -0.1831  0.6116
  813MOL0     N 9671   7.468   2.304   6.431 -0.5389  1.1032  0.7068
  813MOL0     N 9672   7.524   2.195   6.388  0.5290  0.1464 -0.7890
  813MOL0     C 9673   8.462   2.616   6.208 -0.4314  0.9463 -0.7180
  813MOL0     C 9674   8.584   2.596   6.262 -0.1475 -0.4575  0.5690
  813MOL0     C 9675   8.966   2.348   6.401  0.2129  0.4301 -0.2057
  813MOL0     C 9676   9.045   2.235   6.386  0.2697 -0.6093  0.1334
  813MOL0     C 9677   9.178   2.230   6.436 -0.4705  0.5143  0.3147
  813MOL0     C 9678   9.230   2.331   6.518 -0.6220 -0.6863  0.9457
  813MOL0     O 9679   9.352   2.299   6.577 -0.1809 -0.6366 -0.2573
  813MOL0     C 9680   9.429   2.414   6.629  0.4394  0.0879 -0.1373
  813MOL0     C 9681   9.579   2.365   6.650 -0.4094 -0.2662 -0.2068
  813MOL0     C 9682   9.639   2.297   6.518  0.6055 -0.3210  0.6436
  813MOL0     C 9683   9.675   2.398   6.414 -0.1200  0.3339 -0.4056
  813MOL0     C 9684   9.778   2.492   6.456 -0.3629  0.0498  0.0063
  813MOL0     C 9685   9.871   2.556   6.498  0.5989  0.4610 -0.0043
  813MOL0     C 9686   9.154   2.447   6.525  0.4435 -0.7441 -0.6215
  813MOL0     C 9687   9.020   2.452   6.486  0.0541  0.3638  0.5380
  813MOL0     H 9688   8.571   2.264   6.318 -1.9028 -0.8701 -0.4791
  813MOL0     H 9689   8.347   2.297   6.237  0.9331 -0.4460 -1.4722
  813MOL0     H 9690   8.257   2.604   5.946  1.6568  1.0132  1.2060
  813MOL0     H 9691   8.299   2.436   5.957  1.0180  1.1908 -0.8745
  813MOL0     H 9692   8.023   2.571   5.998 -2.1048 -0.1297 -2.4407
  813MOL0     H 9693   8.077   2.476   5.861  0.1946 -0.8607  0.3730
  813MOL0     H 9694   8.075   2.258   5.986  0.2607  0.2135 -0.5081
  813MOL0     H 9695   8.023   2.345   6.134 -0.8994 -0.9926  1.0159
  813MOL0     H 9696   7.815   2.422   6.005 -1.2576 -0.3135 -0.6072
  813MOL0     H 9697   7.886   2.348   5.868 -5.1321 -0.9203 -0.7306
  813MOL0     H 9698   7.838   2.134   5.988  0.2381 -1.6285  2.2490
  813MOL0     H 9699   7.796   2.213   6.138 -0.1659  1.1661  0.3509
  813MOL0     H 9700   7.601   2.337   6.038 -2.4422 -1.1208  1.6341
  813MOL0     H 9701   7.634   2.264   5.879 -0.0051  0.8096  0.7899
  813MOL0     H 9702   7.437   2.158   5.979 -0.4837  1.2982  1.9175
  813MOL0     H 9703   7.575   2.053   5.938 -0.0414  1.2330 -0.2410
  813MOL0     H 9704   7.606   2.038   6.194 -0.3859  0.4997 -0.6386
  813MOL0     H 9705   7.435   2.017   6.148 -1.8189  1.5410 -1.4502
  813MOL0     H 9706   7.319   2.279   6.143 -1.0227 -1.0161  1.4389
  813MOL0     H 9707   7.361   2.533   6.453  0.4687  2.9756 -3.6542
  813MOL0     H 9708   7.308   2.545   6.290  0.8866 -3.4918 -2.6640
  813MOL0     H 9709   7.168   2.376   6.502  2.4898  0.6082  0.0071
  813MOL0     H 9710   7.105   2.402   6.346  1.1288 -1.4700  0.2254
  813MOL0     H 9711   7.073   2.654   6.382 -1.1748  2.5624  1.2043
  813MOL0     H 9712   7.133   2.628   6.550  1.1248 -2.3389  0.1095
  813MOL0     H 9713   6.974   2.460   6.580  0.2587 -0.2505 -0.0030
  813MOL0     H 9714   6.887   2.495   6.434 -3.9971 -3.1002  2.4101
  813MOL0     H 9715   6.705   2.472   6.546  2.7893  1.3920 -0.6531
  813MOL0     H 9716   6.365   2.469   6.541  1.2377 -0.8885 -1.8647
  813MOL0     H 9717   6.492   2.356   6.587 -4.1412 -2.2546  0.0681
  813MOL0     H 9718   6.389   2.402   6.702 -1.5639 -1.5865 -2.2730
  813MOL0     H 9719   6.181   2.548   6.889  3.0445  0.5647  0.2012
  813MOL0     H 9720   5.962   2.531   7.015 -3.1038  2.6860  2.2859
  813MOL0     H 9721   5.873   2.880   7.289  0.2196 -0.4210  0.4157
  813MOL0     H 9722   5.758   2.870   7.159 -0.3942  0.1466  0.3474
  813MOL0     H 9723   5.636   2.682   7.292  0.4222 -0.3658 -1.6287
  813MOL0     H 9724   5.750   2.715   7.423  1.8970  0.4950 -1.4464
  813MOL0     H 9725   5.566   2.925   7.302  1.7898  1.0475 -1.3980
  813MOL0     H 9726   5.685   2.951   7.428  0.0130 -0.4479  0.0103
  813MOL0     H 9727   5.445   2.768   7.465  0.7142 -0.2245  1.1030
  813MOL0     H 9728   5.580   2.813   7.572  2.7757  1.0331 -1.1703
  813MOL0     H 9729   5.520   3.034   7.558 -0.5079  2.5426  1.0287
  813MOL0     H 9730   5.385   2.949   7.624  1.9416 -3.0316 -0.4400
  813MOL0     H 9731   5.431   3.088   7.368  0.9704 -0.6710 -1.3145
  813MOL0     H 9732   5.304   2.960   7.370 -1.2199 -0.5212  1.4687
  813MOL0     H 9733   5.236   3.122   7.592 -0.6185  2.5939  0.1388
  813MOL0     H 9734   5.161   3.120   7.430 -1.2651  0.4388  0.4214
  813MOL0     H 9735   5.220   3.357   7.514  1.2115  0.3198  2.8154
  813MOL0     H 9736   5.280   3.305   7.364  3.3435 -0.2769 -0.0174
  813MOL0     H 9737   6.023   2.917   7.178  0.4168 -1.7127  2.5552
  813MOL0     H 9738   6.240   2.944   7.049  3.5016 -0.9220 -5.0747
  813MOL0     H 9739   6.540   2.878   6.782  1.7820  1.0538 -0.9629
  813MOL0     H 9740   6.778   2.876   6.689  0.4086  0.1741 -3.2486
  813MOL0     H 9741   8.426   2.709   6.164 -1.0506  0.6095 -0.9389
  813MOL0     H 9742   8.645   2.683   6.278  1.4816 -2.0633  4.1693
  813MOL0     H 9743   9.000   2.157   6.327 -0.2723  0.9987 -1.6773
  813MOL0     H 9744   9.238   2.141   6.424  0.7720  1.5287 -1.5780
  813MOL0     H 9745   9.428   2.498   6.560 -2.3635 -0.9009 -1.4647
  813MOL0     H 9746   9.385   2.442   6.725  0.1380  0.8336 -0.4871
  813MOL0     H 9747   9.578   2.291   6.732 -2.1754  0.0842  0.1354
  813MOL0     H 9748   9.640   2.449   6.685  0.1483  0.7514 -3.3391
  813MOL0     H 9749   9.565   2.234   6.469 -1.3768  1.7474  0.8173
  813MOL0     H 9750   9.718   2.223   6.532  1.4754  0.4268 -0.1550
  813MOL0     H 9751   9.590   2.457   6.379  0.2639 -0.8401 -3.6588
  813MOL0     H 9752   9.720   2.343   6.332  1.6390 -1.8071  1.8366
  813MOL0     H 9753   9.945   2.613   6.550  0.2153 -0.3865  1.5465
  813MOL0     H 9754   9.158   2.537   6.585 -3.5122 -0.7329 -0.1141
  813MOL0     H 9755   8.966   2.541   6.517 -0.2003  0.3140  0.2387
  814MOL0     O 9756   5.636   2.391   3.314 -0.7693 -0.4699 -0.2722
  814MOL0     C 9757   5.628   2.463   3.414  0.2323  0.4319 -0.5550
  814MOL0     O 9758   5.522   2.491   3.492 -0.1816  0.6161 -0.2707
  814MOL0     C 9759   5.399   2.442   3.475 -0.3869 -0.4059 -0.5927
  814MOL0     C 9760   5.355   2.344   3.385  0.3202 -0.0439  0.3670
  814MOL0     C 9761   5.220   2.307   3.376 -0.7635  0.0779  1.1427
  814MOL0     C 9762   5.132   2.354   3.470  1.1513  0.4171  0.1701
  814MOL0     O 9763   5.002   2.299   3.477 -0.1135  0.7960  0.4428
  814MOL0     C 9764   4.967   2.181   3.394 -0.1076 -0.0679  0.2110
  814MOL0     C 9765   4.860   2.104   3.470  0.1135 -0.4221 -0.8089
  814MOL0     C 9766   4.788   2.009   3.383 -0.7087  0.4464  0.3121
  814MOL0     C 9767   4.659   1.954   3.457 -0.0060 -0.9017  0.0234
  814MOL0     C 9768   4.545   1.888   3.376  0.1062  0.0267  0.7288
  814MOL0     C 9769   4.430   1.970   3.320  0.2650 -0.1100 -0.4909
  814MOL0     C 9770   4.349   1.881   3.230  1.0188 -0.0291  0.3264
  814MOL0     C 9771   4.232   1.947   3.172  1.0168 -0.3041 -0.5072
  814MOL0     N 9772   4.134   2.004   3.272  0.2781  0.0270 -0.2328
  814MOL0     C 9773   4.060   1.930   3.363  0.3572 -0.3750 -0.0981
  814MOL0     C 9774   4.008   2.018   3.452  0.9580 -0.0276 -0.2792
  814MOL0     C 9775   3.923   1.999   3.576 -0.0625 -0.0343  0.9087
  814MOL0     C 9776   3.785   1.983   3.533 -0.8472 -0.0628  0.2962
  814MOL0     C 9777   3.723   2.117   3.486  0.2253  0.6932  0.1040
  814MOL0     C 9778   3.572   2.107   3.471 -0.7476  0.7461 -1.2469
  814MOL0     O 9779   3.526   2.028   3.356 -0.2760 -0.4327  0.2774
  814MOL0     C 9780   3.402   1.980   3.348  0.2457 -0.3359  0.2237
  814MOL0     C 9781   3.376   1.883   3.256 -1.0255 -0.2562  0.0456
  814MOL0     C 9782   3.247   1.831   3.239 -0.0191  0.7435 -0.3987
  814MOL0     C 9783   3.225   1.726   3.133  0.0993  0.1200  0.4595
  814MOL0     C 9784   3.138   1.886   3.315 -0.1057 -0.6018  0.4285
  814MOL0     C 9785   3.001   1.841   3.302 -0.5022 -0.6763  0.0966
  814MOL0     O 9786   2.907   1.940   3.328 -0.3510  0.0815 -0.7658
  814MOL0     C 9787   2.779   1.907   3.306  0.8474 -0.0901  0.7561
  814MOL0     C 9788   2.698   1.933   3.415 -0.0149  0.3059  0.0331
  814MOL0     C 9789   2.561   1.903   3.426 -0.0962 -0.3032  0.8225
  814MOL0     C 9790   2.498   1.829   3.320  0.0870 -0.6053  0.4184
  814MOL0     O 9791   2.366   1.794   3.339 -0.5800 -0.2292  0.3450
  814MOL0     C 9792   2.328   1.685   3.251  0.4312 -0.3438 -0.7876
  814MOL0     C 9793   2.178   1.672   3.264  0.3760  0.4548  0.1557
  814MOL0     C 9794   2.124   1.546   3.188 -0.2959  0.0211 -0.1488
  814MOL0     C 9795   2.045   1.456   3.285  0.7059  0.5622 -0.1048
  814MOL0     C 9796   1.905   1.506   3.332 -0.7591  0.3946 -0.2366
  814MOL0     C 9797   1.815   1.557   3.215  0.0071 -0.5057  0.1112
  814MOL0     C 9798   1.680   1.539   3.266  0.0313 -0.1916 -0.4477
  814MOL0     C 9799   1.575   1.566   3.155  0.1459  0.1875 -0.6324
  814MOL0    Cl 9800   1.594   1.735   3.086  0.1357  0.2069 -0.0642
  814MOL0     C 9801   2.576   1.806   3.197  0.1410  0.1855 -0.3404
  814MOL0     C 9802   2.711   1.835   3.195  0.0706 -0.4257 -0.4619
  814MOL0     O 9803   2.971   1.730   3.250  0.3895  0.5529 -0.0510
  814MOL0     C 9804   3.163   1.980   3.419  0.1188  0.5017  0.2797
  814MOL0     C 9805   3.293   2.030   3.428  0.6282  0.5442  0.1216
  814MOL0     N 9806   4.043   2.142   3.408 -0.5210 -0.5010 -0.0921
  814MOL0     N 9807   4.120   2.134   3.297 -0.8144 -0.0758  0.1730
  814MOL0     C 9808   5.173   2.447   3.562  0.0585 -0.2821 -0.5795
  814MOL0     C 9809   5.302   2.491   3.564  0.5170 -0.4709 -0.0903
  814MOL0     C 9810   5.758   2.525   3.462  0.5330  0.9101  0.4376
  814MOL0     C 9811   5.872   2.520   3.374  0.2329  0.6944  0.1808
  814MOL0     C 9812   5.987   2.590   3.415 -0.8808  0.7010 -0.1143
  814MOL0     C 9813   6.017   2.646   3.539 -0.6399  0.6990  0.0959
  814MOL0     O 9814   6.142   2.694   3.581  0.0160 -0.3529  0.1503
  814MOL0     C 9815   6.255   2.715   3.487 -0.4543  0.6669 -0.1391
  814MOL0     C 9816   6.319   2.569   3.472 -0.1030  0.2057 -0.8163
  814MOL0     C 9817   6.415   2.557   3.358 -0.8143 -0.5334 -0.1386
  814MOL0     C 9818   6.555   2.611   3.379 -0.1241 -0.3957  0.7543
  814MOL0     C 9819   6.557   2.751   3.446  0.5278  0.3985  0.3787
  814MOL0     C 9820   6.574   2.867   3.474  0.8809  0.1348 -0.2339
  814MOL0     C 9821   5.906   2.646   3.628  0.3308 -0.0021  0.2942
  814MOL0     C 9822   5.783   2.585   3.592 -0.9931  0.2497  0.1741
  814MOL0     H 9823   5.410   2.292   3.308 -1.3475 -1.3088 -0.0285
  814MOL0     H 9824   5.190   2.241   3.296 -1.8285 -1.3338  2.6592
  814MOL0     H 9825   4.936   2.229   3.300 -0.8684  3.8817  2.2703
  814MOL0     H 9826   5.050   2.113   3.373 -1.7296 -1.5623 -1.8341
  814MOL0     H 9827   4.889   2.047   3.559 -0.8276 -2.6056 -1.8323
  814MOL0     H 9828   4.783   2.173   3.508 -2.6205 -3.6961  0.1114
  814MOL0     H 9829   4.752   2.064   3.296 -0.5925  4.6396  2.6215
  814MOL0     H 9830   4.855   1.926   3.357  0.7853  0.8081  2.6524
  814MOL0     H 9831   4.701   1.870   3.514  0.4201 -0.0957  0.9434
  814MOL0     H 9832   4.618   2.031   3.523  2.2566 -1.4652  2.2607
  814MOL0     H 9833   4.594   1.848   3.287  1.5909  0.7470  1.1877
  814MOL0     H 9834   4.510   1.806   3.439  1.1702  1.0171  2.7007
  814MOL0     H 9835   4.376   2.001   3.410  2.0266 -1.5196  1.1352
  814MOL0     H 9836   4.464   2.054   3.258 -3.7404  0.2004 -2.6115
  814MOL0     H 9837   4.414   1.847   3.148  2.5158 -0.3215  1.5856
  814MOL0     H 9838   4.311   1.795   3.286  2.0629 -0.3175  0.6233
  814MOL0     H 9839   4.180   1.875   3.108 -2.4348  0.4239  1.2751
  814MOL0     H 9840   4.272   2.027   3.108  1.5204  0.6999  1.0119
  814MOL0     H 9841   4.042   1.823   3.357 -0.6349 -0.2234 -0.0556
  814MOL0     H 9842   3.950   1.911   3.635  1.4810 -0.6387 -0.6263
  814MOL0     H 9843   3.938   2.085   3.641  2.8990 -1.5253  2.4335
  814MOL0     H 9844   3.727   1.938   3.615 -0.0612  0.6744  1.2888
  814MOL0     H 9845   3.779   1.914   3.449  1.9147  2.1346 -1.8898
  814MOL0     H 9846   3.768   2.141   3.389  0.8924 -0.5462  0.0769
  814MOL0     H 9847   3.751   2.196   3.555  5.2453 -0.3701 -0.3433
  814MOL0     H 9848   3.542   2.212   3.467  2.3213  1.8515  0.8126
  814MOL0     H 9849   3.536   2.059   3.563  2.9624 -0.0806 -0.0430
  814MOL0     H 9850   3.453   1.859   3.184 -0.3608  0.2846  0.5661
  814MOL0     H 9851   3.152   1.761   3.059  0.0682  3.2615  1.8325
  814MOL0     H 9852   3.317   1.705   3.078  0.2332 -0.0550  0.7428
  814MOL0     H 9853   3.189   1.627   3.166 -2.0188  0.5912 -0.2319
  814MOL0     H 9854   2.754   1.979   3.496  1.4009 -3.2437  1.3020
  814MOL0     H 9855   2.516   1.907   3.524  0.4102  5.6022  1.1574
  814MOL0     H 9856   2.341   1.718   3.147 -0.4272  2.2836 -0.1396
  814MOL0     H 9857   2.391   1.598   3.272  0.7929  0.4051  1.5477
  814MOL0     H 9858   2.165   1.650   3.371  1.1703  1.2812  0.4458
  814MOL0     H 9859   2.125   1.761   3.231  0.6122 -0.3874 -2.7219
  814MOL0     H 9860   2.205   1.494   3.135 -0.4425  1.5905 -2.0346
  814MOL0     H 9861   2.046   1.579   3.119  1.6088 -1.1676 -3.0705
  814MOL0     H 9862   2.025   1.356   3.245 -3.5917  1.0971  0.2405
  814MOL0     H 9863   2.098   1.430   3.377 -1.7654 -1.8261  0.7704
  814MOL0     H 9864   1.920   1.581   3.410 -1.1677  1.2190 -0.9408
  814MOL0     H 9865   1.850   1.422   3.377 -1.0261 -0.1490 -1.5456
  814MOL0     H 9866   1.842   1.662   3.200  1.1794  0.0979  4.8453
  814MOL0     H 9867   1.827   1.500   3.123 -0.6562 -2.9332  1.4415
  814MOL0     H 9868   1.671   1.606   3.351  1.9060 -0.4283 -0.0235
  814MOL0     H 9869   1.661   1.439   3.307 -2.1568  0.4068  0.1416
  814MOL0     H 9870   1.476   1.548   3.197  1.1239 -2.3531  0.7728
  814MOL0     H 9871   1.587   1.489   3.078  0.5920 -0.2158 -0.1647
  814MOL0     H 9872   2.537   1.753   3.110 -0.5294  0.4665 -0.2175
  814MOL0     H 9873   2.780   1.809   3.116 -0.4639  1.6580 -1.7040
  814MOL0     H 9874   3.087   2.024   3.482 -1.2630  0.0002 -0.9715
  814MOL0     H 9875   3.303   2.110   3.500  0.4605  1.7165 -1.1100
  814MOL0     H 9876   5.096   2.476   3.633  1.7370  1.9430  0.4415
  814MOL0     H 9877   5.336   2.563   3.638 -1.1565 -0.2810  0.5356
  814MOL0     H 9878   5.876   2.471   3.277  0.3342 -0.7398  0.8920
  814MOL0     H 9879   6.068   2.592   3.342  1.1684 -2.6733  1.8269
  814MOL0     H 9880   6.223   2.755   3.390 -2.6640 -1.3860 -0.3410
  814MOL0     H 9881   6.315   2.799   3.522 -0.1312  0.1067  0.6821
  814MOL0     H 9882   6.236   2.499   3.465  0.6041 -0.7828  0.3131
  814MOL0     H 9883   6.364   2.539   3.567  0.1349  0.0372 -0.9817
  814MOL0     H 9884   6.366   2.602   3.271 -0.8280 -1.0391 -0.3946
  814MOL0     H 9885   6.430   2.450   3.341  0.9196 -0.2465 -0.6436
  814MOL0     H 9886   6.603   2.620   3.281 -2.7732  1.1610 -0.5309
  814MOL0     H 9887   6.612   2.532   3.429 -1.5585 -3.4333 -2.0077
  814MOL0     H 9888   6.590   2.963   3.518 -0.9258 -0.0440  0.9449
  814MOL0     H 9889   5.917   2.684   3.729  0.7554 -3.3868  1.6726
  814MOL0     H 9890   5.703   2.578   3.666 -2.5830  3.6451 -0.9839
  815MOL0     O 9891   8.899   4.153   4.729 -0.1591 -0.4280  0.2720
  815MOL0     C 9892   8.967   4.063   4.779  0.6185  0.2289  0.4868
  815MOL0     O 9893   8.926   3.962   4.874  0.3135 -0.3963 -0.9249
  815MOL0     C 9894   8.789   3.964   4.884  0.5724 -0.3179  0.2739
  815MOL0     C 9895   8.719   3.891   4.796 -0.0388  0.0794  0.4938
  815MOL0     C 9896   8.585   3.865   4.818 -0.2137 -0.4533  0.7641
  815MOL0     C 9897   8.514   3.933   4.915 -0.1867 -0.6429 -0.0233
  815MOL0     O 9898   8.384   3.937   4.915 -0.2295 -0.4916  0.2183
  815MOL0     C 9899   8.307   3.898   4.798  0.0964 -0.1788  1.4665
  815MOL0     C 9900   8.165   3.936   4.813  0.7814 -1.0026 -0.6141
  815MOL0     C 9901   8.082   3.869   4.920  0.1943  0.2299 -0.0625
  815MOL0     C 9902   7.941   3.907   4.908  0.5218  0.4384 -0.3218
  815MOL0     C 9903   7.856   3.834   5.009 -0.6485 -0.2377  0.4015
  815MOL0     C 9904   7.706   3.882   5.018  0.4453 -0.1104 -0.0839
  815MOL0     C 9905   7.693   4.028   5.060  0.5377  0.1126 -0.1645
  815MOL0     C 9906   7.567   4.058   5.143 -0.0885  0.6091 -0.3898
  815MOL0     N 9907   7.439   4.006   5.088  0.4549  0.3698 -0.1135
  815MOL0     C 9908   7.328   4.086   5.052 -1.0325 -0.3418 -0.0134
  815MOL0     C 9909   7.229   3.999   5.023  0.1678 -0.3908 -0.6287
  815MOL0     C 9910   7.091   4.051   4.983 -0.1900  0.1653  0.2362
  815MOL0     C 9911   7.032   3.959   4.876  0.2599  0.2152  0.0048
  815MOL0     C 9912   6.972   3.825   4.937  0.2264 -0.2090  0.8608
  815MOL0     C 9913   6.888   3.748   4.836  0.1912 -0.0834  0.2941
  815MOL0     O 9914   6.762   3.808   4.809  0.0225 -0.0078 -0.5878
  815MOL0     C 9915   6.646   3.740   4.779  0.4485  1.1226 -0.3265
  815MOL0     C 9916   6.632   3.598   4.776 -0.6974 -0.4810  0.1755
  815MOL0     C 9917   6.504   3.546   4.749 -0.1980 -0.4839 -0.5644
  815MOL0     C 9918   6.493   3.396   4.737  0.1392  0.0175  0.2658
  815MOL0     C 9919   6.396   3.634   4.733  0.1755 -0.5861  0.0836
  815MOL0     C 9920   6.264   3.592   4.701 -0.5803  0.1723 -0.1520
  815MOL0     O 9921   6.189   3.552   4.801  0.2999 -0.0233 -0.0190
  815MOL0     C 9922   6.059   3.507   4.782 -0.6976  0.1953 -0.1460
  815MOL0     C 9923   6.025   3.437   4.664 -0.4480  0.3128 -0.2023
  815MOL0     C 9924   5.889   3.410   4.643 -0.1483  0.5387 -0.2129
  815MOL0     C 9925   5.788   3.439   4.734  0.4155  0.4673  0.0848
  815MOL0     O 9926   5.667   3.394   4.714  0.2285  0.9179 -0.5672
  815MOL0     C 9927   5.543   3.449   4.773 -0.0746 -0.2863  0.6825
  815MOL0     C 9928   5.484   3.348   4.870 -0.0537 -0.4922  0.9843
  815MOL0     C 9929   5.364   3.400   4.945 -0.3455  0.7001  0.1816
  815MOL0     C 9930   5.232   3.372   4.870 -1.2371 -0.1147 -0.2102
  815MOL0     C 9931   5.095   3.371   4.949  0.5160 -0.6037 -0.3161
  815MOL0     C 9932   4.982   3.346   4.841  0.1286 -0.8387  0.1388
  815MOL0     C 9933   4.912   3.476   4.786 -0.0260  0.4243 -0.2698
  815MOL0     C 9934   4.795   3.445   4.709  0.3520  0.0021  0.9566
  815MOL0    Cl 9935   4.824   3.381   4.545  0.7042  0.0887  0.1447
  815MOL0     C 9936   5.825   3.508   4.851  0.1435 -0.5678 -0.1612
  815MOL0     C 9937   5.958   3.548   4.870 -1.0757  0.3203 -0.6025
  815MOL0     O 9938   6.226   3.619   4.585  0.8213 -0.4075 -0.7842
  815MOL0     C 9939   6.406   3.769   4.739 -0.5202  0.3870  0.5112
  815MOL0     C 9940   6.537   3.820   4.755 -0.5952  0.2225  0.5351
  815MOL0     N 9941   7.281   3.868   5.040  0.7162 -0.4393  0.9080
  815MOL0     N 9942   7.405   3.874   5.076  0.0337  0.7251 -0.1162
  815MOL0     C 9943   8.585   4.017   5.005 -0.6404  0.7875  0.0619
  815MOL0     C 9944   8.725   4.024   4.987  0.2845  0.9083 -0.1235
  815MOL0     C 9945   9.110   4.064   4.749  0.8172 -0.1431 -0.2940
  815MOL0     C 9946   9.203   4.024   4.850 -0.1024  0.2905  0.4407
  815MOL0     C 9947   9.338   4.009   4.823  0.4499  0.1713 -0.1252
  815MOL0     C 9948   9.386   4.059   4.701 -0.0342  0.0215  0.6842
  815MOL0     O 9949   9.519   4.079   4.691 -1.0550  0.0604 -0.0693
  815MOL0     C 9950   9.573   4.101   4.557  0.5410 -0.1581  0.3474
  815MOL0     C 9951   9.726   4.080   4.545  0.2523  0.1338  0.5615
  815MOL0     C 9952   9.790   3.976   4.631  0.1861  0.4012  0.0023
  815MOL0     C 9953   9.928   3.939   4.569 -1.0064  0.0080 -0.5326
  815MOL0     C 9954   9.965   3.814   4.635 -0.2474 -0.2698  0.3191
  815MOL0     C 9955  10.004   3.714   4.691 -0.4383  0.8384  0.3303
  815MOL0     C 9956   9.297   4.106   4.593 -0.8917  0.0675 -0.0593
  815MOL0     C 9957   9.159   4.100   4.620  0.7078  0.4040  0.0487
  815MOL0     H 9958   8.768   3.839   4.715 -2.4796  1.3219 -1.9607
  815MOL0     H 9959   8.545   3.797   4.744 -3.1953  2.9962 -1.1686
  815MOL0     H 9960   8.344   3.957   4.714 -0.9660  0.8343  1.6834
  815MOL0     H 9961   8.320   3.790   4.781 -0.0570 -0.0111  0.1334
  815MOL0     H 9962   8.169   4.044   4.828  0.1387 -0.9084 -1.0855
  815MOL0     H 9963   8.111   3.905   4.722 -1.4951  1.1759 -0.1139
  815MOL0     H 9964   8.098   3.761   4.909  2.8593  0.4399  1.0006
  815MOL0     H 9965   8.117   3.903   5.018 -4.0352 -1.7744  2.4471
  815MOL0     H 9966   7.926   4.014   4.919 -3.9456  0.1048 -1.4875
  815MOL0     H 9967   7.893   3.880   4.814 -0.6376 -2.1816  0.9218
  815MOL0     H 9968   7.871   3.727   4.994  0.3810 -0.0416 -0.0265
  815MOL0     H 9969   7.899   3.859   5.106  0.1533 -0.5777  0.1409
  815MOL0     H 9970   7.657   3.877   4.920 -1.8046  1.5445  0.8759
  815MOL0     H 9971   7.657   3.814   5.088  0.6019  2.0477  2.2778
  815MOL0     H 9972   7.781   4.054   5.119  0.2925  1.1110 -0.2303
  815MOL0     H 9973   7.688   4.086   4.967 -3.4842  1.3364  0.6014
  815MOL0     H 9974   7.566   4.167   5.147 -0.9358  0.5753  1.4650
  815MOL0     H 9975   7.582   4.007   5.238  3.0889 -2.1091 -2.1672
  815MOL0     H 9976   7.321   4.194   5.057  1.1738 -0.2087  2.2550
  815MOL0     H 9977   7.028   4.069   5.070 -1.5198  2.0167 -1.0282
  815MOL0     H 9978   7.112   4.144   4.929 -0.2700 -1.0693 -2.0537
  815MOL0     H 9979   7.110   3.946   4.801 -0.1673  0.2771 -0.4598
  815MOL0     H 9980   6.950   4.007   4.822  0.9565  0.1394 -1.1513
  815MOL0     H 9981   6.905   3.857   5.018  0.5494 -0.5494  1.2651
  815MOL0     H 9982   7.056   3.764   4.972  0.4981 -1.3065 -1.4658
  815MOL0     H 9983   6.870   3.651   4.883 -0.0712 -0.4705 -0.5815
  815MOL0     H 9984   6.949   3.729   4.747 -0.6077  0.9243 -0.4973
  815MOL0     H 9985   6.710   3.530   4.805 -2.4158 -0.8127  4.7705
  815MOL0     H 9986   6.586   3.344   4.762  1.3903  2.3832  0.8273
  815MOL0     H 9987   6.400   3.355   4.776 -0.4564  2.0894  1.1735
  815MOL0     H 9988   6.472   3.386   4.630  1.7135  3.1661 -0.4585
  815MOL0     H 9989   6.090   3.416   4.580 -1.1816  0.0529 -0.7182
  815MOL0     H 9990   5.865   3.372   4.544  3.3971  1.4368 -1.5648
  815MOL0     H 9991   5.555   3.548   4.817 -4.9124  1.5016 -1.2651
  815MOL0     H 9992   5.470   3.470   4.694  0.6630  0.0842  0.0987
  815MOL0     H 9993   5.474   3.246   4.831  2.2726 -1.1290  1.8531
  815MOL0     H 9994   5.569   3.326   4.936  0.4571 -0.7196  0.2691
  815MOL0     H 9995   5.366   3.507   4.966 -3.2080  1.2553 -1.6986
  815MOL0     H 9996   5.364   3.352   5.044  0.3265  1.4822  0.5630
  815MOL0     H 9997   5.221   3.449   4.794  2.6477  0.5125 -0.3058
  815MOL0     H 9998   5.240   3.278   4.815  2.0574  2.1295 -4.0502
  815MOL0     H 9999   5.092   3.469   4.997  2.0915 -0.2610 -0.8638
  815MOL0     H10000   5.094   3.293   5.026  0.8481 -1.0365 -0.7374
  815MOL0     H10001   5.021   3.282   4.761  1.7888  2.0055 -1.4796
  815MOL0     H10002   4.912   3.284   4.898  0.9830 -1.4829  0.5048
  815MOL0     H10003   4.986   3.536   4.732  0.6844  1.4978  1.7757
  815MOL0     H10004   4.880   3.533   4.874  1.3169  1.6371 -0.5206
  815MOL0     H10005   4.736   3.535   4.693  1.5199  0.8308  1.1499
  815MOL0     H10006   4.731   3.374   4.761  0.3716 -0.9915 -0.3278
  815MOL0     H10007   5.750   3.536   4.923  1.1357 -0.8537  1.0200
  815MOL0     H10008   5.970   3.594   4.968 -1.1365 -0.1716 -0.3591
  815MOL0     H10009   6.328   3.843   4.726 -1.4752 -0.5371  0.8956
  815MOL0     H10010   6.549   3.928   4.763 -0.8741  0.2238  0.9603
  815MOL0     H10011   8.537   4.078   5.080  0.9017  0.7314  1.1398
  815MOL0     H10012   8.792   4.070   5.059  2.4693 -1.1682 -0.7008
  815MOL0     H10013   9.162   4.000   4.948 -2.3343  1.6531 -0.0736
  815MOL0     H10014   9.405   3.981   4.904 -0.7426 -2.5304  0.0334
  815MOL0     H10015   9.523   4.034   4.487  1.9959 -1.0425  0.1109
  815MOL0     H10016   9.558   4.206   4.529 -2.2029 -0.4703  0.4169
  815MOL0     H10017   9.766   4.179   4.572 -0.1511 -0.4004  3.4787
  815MOL0     H10018   9.751   4.064   4.440 -1.3955 -1.8034  0.4078
  815MOL0     H10019   9.724   3.889   4.622  0.0969  0.6229 -1.9011
  815MOL0     H10020   9.795   4.009   4.735 -0.4123  1.1424 -0.1976
  815MOL0     H10021  10.005   4.015   4.590 -3.0839  1.5708  2.0301
  815MOL0     H10022   9.923   3.919   4.462 -1.7704 -1.3620 -0.2570
  815MOL0     H10023  10.054   3.631   4.737 -1.5615  0.7300  1.4455
  815MOL0     H10024   9.334   4.147   4.499 -3.3130 -2.0390 -2.0848
  815MOL0     H10025   9.103   4.137   4.535  1.6245  1.4973 -0.1181
  816MOL0     O10026   5.876   6.151   3.580 -0.3684 -0.0271 -0.3158
  816MOL0     C10027   5.920   6.108   3.474  0.2966 -0.6120 -0.2479
  816MOL0     O10028   5.862   6.107   3.357  0.0157 -0.4620 -0.4275
  816MOL0     C10029   5.732   6.153   3.331 -0.2415 -0.8457 -1.2605
  816MOL0     C10030   5.710   6.213   3.204 -0.0495  0.5246 -1.0847
  816MOL0     C10031   5.578   6.223   3.166 -0.5003  0.1423 -0.5750
  816MOL0     C10032   5.468   6.185   3.246 -0.6199 -0.3689  0.0858
  816MOL0     O10033   5.341   6.185   3.195  0.5197 -0.2550  0.0844
  816MOL0     C10034   5.259   6.073   3.232  0.4130  0.6163 -0.3428
  816MOL0     C10035   5.167   6.057   3.112 -0.5243  0.9547 -0.6546
  816MOL0     C10036   5.072   5.931   3.126  0.2217 -0.3355 -0.2780
  816MOL0     C10037   4.997   5.909   2.998 -0.5495  1.2532  0.1010
  816MOL0     C10038   4.893   5.797   3.005 -0.1844  0.4481  0.7893
  816MOL0     C10039   4.824   5.786   2.862  0.1447 -0.2812  0.2947
  816MOL0     C10040   4.757   5.652   2.840 -0.1992  0.2449  0.3369
  816MOL0     C10041   4.695   5.637   2.702  0.3191  0.1496  0.0455
  816MOL0     N10042   4.589   5.738   2.679  0.5498  0.3238 -0.8443
  816MOL0     C10043   4.458   5.724   2.708 -0.5476  0.1995 -1.1602
  816MOL0     C10044   4.393   5.824   2.635 -0.0565  0.8478 -0.1663
  816MOL0     C10045   4.245   5.846   2.648 -0.5075  0.1456 -0.3451
  816MOL0     C10046   4.216   5.998   2.621 -0.0698  0.0879  0.0263
  816MOL0     C10047   4.253   6.075   2.485  0.8422 -0.4743 -0.6111
  816MOL0     C10048   4.244   5.996   2.359  0.8601 -0.3698  0.2406
  816MOL0     O10049   4.141   5.898   2.349 -0.4725  0.2430 -0.0349
  816MOL0     C10050   4.004   5.934   2.348 -0.3092 -0.4048 -0.2235
  816MOL0     C10051   3.965   6.061   2.310 -0.0354  0.4925 -0.0168
  816MOL0     C10052   3.835   6.077   2.257  0.3594  0.3880  0.8879
  816MOL0     C10053   3.787   6.214   2.229 -0.1313  0.0289  0.4161
  816MOL0     C10054   3.738   5.975   2.278 -0.3517 -0.5334 -0.7546
  816MOL0     C10055   3.587   5.992   2.257 -0.4267 -0.1184  0.5130
  816MOL0     O10056   3.490   5.931   2.331  0.0478  0.4886 -0.4586
  816MOL0     C10057   3.360   5.917   2.285 -0.1302 -0.1939  1.1386
  816MOL0     C10058   3.282   6.016   2.228  0.5018 -0.2156 -0.3013
  816MOL0     C10059   3.151   5.987   2.191  1.0417 -0.4723 -0.4176
  816MOL0     C10060   3.088   5.869   2.224  0.1260 -0.2872 -0.1243
  816MOL0     O10061   2.957   5.860   2.193  0.0641 -0.1220  0.1120
  816MOL0     C10062   2.875   5.765   2.262 -0.0482 -0.6962 -0.4356
  816MOL0     C10063   2.734   5.821   2.268  0.1728  0.6610 -0.2868
  816MOL0     C10064   2.666   5.793   2.135 -0.0388  0.2813 -0.1382
  816MOL0     C10065   2.515   5.799   2.133 -0.7374 -0.3044 -0.1977
  816MOL0     C10066   2.446   5.766   2.001 -0.6362 -0.5427  0.8163
  816MOL0     C10067   2.294   5.772   2.018  0.4796 -0.8512  0.1102
  816MOL0     C10068   2.226   5.761   1.882  1.3382  0.2090  0.5829
  816MOL0     C10069   2.069   5.769   1.878  0.1222  0.1640  0.2478
  816MOL0    Cl10070   2.011   5.922   1.921 -0.0987 -0.5323  0.1101
  816MOL0     C10071   3.168   5.778   2.286  0.2306 -0.3059  0.4403
  816MOL0     C10072   3.305   5.797   2.317  0.5515 -1.3640  0.2608
  816MOL0     O10073   3.560   6.043   2.148 -0.5184 -0.7226 -0.0837
  816MOL0     C10074   3.781   5.851   2.327  0.0308 -0.0741  0.8915
  816MOL0     C10075   3.914   5.833   2.352 -0.5082  0.2922 -0.6037
  816MOL0     N10076   4.497   5.898   2.577 -0.0980  0.2423 -0.8440
  816MOL0     N10077   4.608   5.845   2.605  0.2205  0.2662 -0.5482
  816MOL0     C10078   5.496   6.142   3.374 -0.3725 -0.0338  0.2044
  816MOL0     C10079   5.627   6.121   3.416 -0.7429  0.3266 -1.1968
  816MOL0     C10080   6.054   6.045   3.492  1.0815  0.7010 -0.0011
  816MOL0     C10081   6.120   5.977   3.393 -0.5570 -0.5806  0.0297
  816MOL0     C10082   6.242   5.916   3.414 -0.4227  0.0384 -0.5473
  816MOL0     C10083   6.302   5.917   3.537 -0.0814  0.4905  0.2556
  816MOL0     O10084   6.430   5.858   3.549  0.2694  0.2336  0.4230
  816MOL0     C10085   6.546   5.939   3.511  0.6143 -0.6121  0.2411
  816MOL0     C10086   6.648   5.870   3.406  0.6605  0.1998 -0.3113
  816MOL0     C10087   6.722   5.759   3.479 -0.1042  0.5275  0.3778
  816MOL0     C10088   6.658   5.620   3.492 -0.1653 -0.6984 -0.0373
  816MOL0     C10089   6.613   5.563   3.364 -0.1839 -0.6141  0.3447
  816MOL0     C10090   6.578   5.524   3.251  0.0955 -0.2396 -0.2382
  816MOL0     C10091   6.245   5.984   3.638  0.9446  0.0585 -0.6971
  816MOL0     C10092   6.116   6.043   3.620 -1.0949 -0.7508 -0.4108
  816MOL0     H10093   5.789   6.248   3.140  1.7848 -2.5822 -0.7165
  816MOL0     H10094   5.544   6.275   3.077  0.5483  0.8536 -0.5770
  816MOL0     H10095   5.315   5.979   3.241  3.0538  1.6230 -3.7963
  816MOL0     H10096   5.213   6.096   3.328  0.0621  0.4385 -0.4675
  816MOL0     H10097   5.100   6.144   3.111  0.1940  1.6011  1.7637
  816MOL0     H10098   5.222   6.047   3.018 -2.2859 -1.5942 -1.5571
  816MOL0     H10099   5.120   5.841   3.164 -2.0211 -3.3949 -4.0016
  816MOL0     H10100   4.993   5.955   3.197 -1.0389  1.3662 -2.1420
  816MOL0     H10101   4.953   6.000   2.957  1.4118  2.1648 -0.1405
  816MOL0     H10102   5.066   5.874   2.920 -1.0131 -0.5795  0.4617
  816MOL0     H10103   4.946   5.704   3.025 -0.4169 -0.1968 -1.3826
  816MOL0     H10104   4.830   5.828   3.090  0.6957 -1.5473  2.2507
  816MOL0     H10105   4.743   5.860   2.857 -0.3498 -0.8509 -0.1893
  816MOL0     H10106   4.897   5.809   2.784 -0.8782  0.8574 -0.3642
  816MOL0     H10107   4.831   5.573   2.859 -1.4065 -0.8953  0.4100
  816MOL0     H10108   4.679   5.633   2.915  0.0365  1.4432  0.9119
  816MOL0     H10109   4.652   5.537   2.692  1.8058 -0.6862  1.4523
  816MOL0     H10110   4.774   5.648   2.627 -0.5024 -1.4605 -1.1145
  816MOL0     H10111   4.389   5.662   2.765 -0.5198  2.0326  1.0077
  816MOL0     H10112   4.200   5.787   2.568  0.6156  0.4313 -1.2216
  816MOL0     H10113   4.203   5.816   2.744 -0.2093  0.5344 -0.0891
  816MOL0     H10114   4.267   6.048   2.704  1.0182  0.6741 -0.9779
  816MOL0     H10115   4.107   6.007   2.627 -0.0295  0.1513  0.7134
  816MOL0     H10116   4.359   6.095   2.501  1.1275 -2.5413  0.4133
  816MOL0     H10117   4.189   6.162   2.470 -1.8877 -2.4628 -1.2642
  816MOL0     H10118   4.342   5.951   2.346  0.6666 -0.6574 -0.2573
  816MOL0     H10119   4.233   6.073   2.282 -1.6098 -0.2013  0.6557
  816MOL0     H10120   4.038   6.140   2.298  1.8858 -1.1038  0.6133
  816MOL0     H10121   3.717   6.238   2.310 -0.1823 -1.7192  0.9316
  816MOL0     H10122   3.864   6.291   2.230  1.6200 -1.5717 -1.5332
  816MOL0     H10123   3.728   6.226   2.138 -2.1284  0.2671  1.6628
  816MOL0     H10124   3.331   6.111   2.211 -0.4447  0.1955 -0.7870
  816MOL0     H10125   3.095   6.077   2.168  2.6194  0.6623  0.0969
  816MOL0     H10126   2.887   5.674   2.203  1.9932 -0.3321 -0.6477
  816MOL0     H10127   2.920   5.760   2.362 -1.0422 -0.9855  0.0100
  816MOL0     H10128   2.675   5.774   2.348  0.7634 -0.1367 -0.3120
  816MOL0     H10129   2.719   5.929   2.280 -2.7427  0.2923  0.2058
  816MOL0     H10130   2.697   5.692   2.108  4.3533  1.6094 -0.7815
  816MOL0     H10131   2.710   5.863   2.063 -1.4206  2.5774  1.1291
  816MOL0     H10132   2.470   5.745   2.217  4.8671 -0.5950  3.0904
  816MOL0     H10133   2.492   5.902   2.162 -2.7429 -0.7458 -0.0177
  816MOL0     H10134   2.480   5.670   1.963 -1.5241  0.1773 -2.0643
  816MOL0     H10135   2.483   5.836   1.926 -1.1095 -1.9302 -0.7583
  816MOL0     H10136   2.257   5.679   2.062 -2.8749  0.3201 -0.0139
  816MOL0     H10137   2.265   5.857   2.080  2.6592  0.3841 -0.4378
  816MOL0     H10138   2.266   5.671   1.834  0.6185  1.1275 -1.8612
  816MOL0     H10139   2.272   5.837   1.819 -0.8599 -0.2018 -1.7016
  816MOL0     H10140   2.024   5.694   1.945  1.4418 -0.4238  0.5091
  816MOL0     H10141   2.039   5.747   1.775 -0.2898 -0.0839  0.4193
  816MOL0     H10142   3.111   5.696   2.329  2.4195 -1.1004  2.0418
  816MOL0     H10143   3.374   5.732   2.370  1.5468  0.4521  1.2988
  816MOL0     H10144   3.718   5.767   2.352 -0.5638  0.6349  1.8490
  816MOL0     H10145   3.933   5.732   2.387 -2.2086 -0.1715 -0.8970
  816MOL0     H10146   5.409   6.126   3.438  0.3374  0.3912  1.3138
  816MOL0     H10147   5.646   6.067   3.508  0.0783  0.8305 -1.0564
  816MOL0     H10148   6.086   5.971   3.290  3.1423  0.2401 -1.4048
  816MOL0     H10149   6.280   5.872   3.323 -1.4111  0.0950 -0.9999
  816MOL0     H10150   6.510   6.024   3.452  4.1821  1.6711  1.0447
  816MOL0     H10151   6.599   5.975   3.599  0.9445 -2.4608  0.8397
  816MOL0     H10152   6.710   5.955   3.378 -1.6356  3.3651  3.1607
  816MOL0     H10153   6.593   5.822   3.325 -1.1138 -1.3746  1.6951
  816MOL0     H10154   6.757   5.797   3.576  0.3018  1.0231  0.0488
  816MOL0     H10155   6.818   5.740   3.429 -0.2618 -0.8316  0.5677
  816MOL0     H10156   6.576   5.630   3.563  0.9287 -2.2460  1.5090
  816MOL0     H10157   6.732   5.558   3.543  0.2510 -0.8325 -0.7890
  816MOL0     H10158   6.551   5.486   3.155  0.8140 -1.8542  0.1731
  816MOL0     H10159   6.287   6.011   3.735 -0.0995 -1.4690  0.2126
  816MOL0     H10160   6.072   6.103   3.699  1.6541  0.9193 -0.0066
  817MOL0     O10161   2.953   7.345  11.383 -0.9590 -0.2085 -0.7980
  817MOL0     C10162   2.955   7.318  11.264 -0.1011  0.3468 -0.6442
  817MOL0     O10163   2.844   7.296  11.179 -0.5349  0.1217  1.0092
  817MOL0     C10164   2.713   7.310  11.222  0.3676  0.0547 -0.6887
  817MOL0     C10165   2.615   7.252  11.141 -0.7719  0.3235  1.0071
  817MOL0     C10166   2.481   7.287  11.139 -0.3948 -0.0370  0.5665
  817MOL0     C10167   2.434   7.378  11.236  1.4264  0.3964  0.1577
  817MOL0     O10168   2.303   7.412  11.233 -0.1867  0.1011  0.2687
  817MOL0     C10169   2.255   7.521  11.311 -0.6116 -1.1215  0.2333
  817MOL0     C10170   2.112   7.570  11.281  0.1113  0.3299  0.2699
  817MOL0     C10171   2.023   7.450  11.300 -0.3333  0.5263 -0.1495
  817MOL0     C10172   1.884   7.474  11.257  0.0831 -1.1120  0.3324
  817MOL0     C10173   1.818   7.586  11.344 -0.5026  0.1629 -0.5786
  817MOL0     C10174   1.681   7.621  11.280 -0.0338 -1.5007 -0.1077
  817MOL0     C10175   1.599   7.724  11.362 -0.2852 -0.3765 -0.5220
  817MOL0     C10176   1.506   7.802  11.279  0.3767 -0.9440 -0.2159
  817MOL0     N10177   1.377   7.724  11.261 -0.4581  0.1126 -0.0117
  817MOL0     C10178   1.286   7.703  11.363  0.7282  0.4270  0.5645
  817MOL0     C10179   1.197   7.613  11.300 -1.0925  0.2707 -0.3715
  817MOL0     C10180   1.063   7.569  11.342  0.2441 -0.4473  0.0263
  817MOL0     C10181   0.954   7.636  11.252 -0.5121  0.4675 -0.2412
  817MOL0     C10182   0.910   7.567  11.130  0.7200 -0.1287  0.4896
  817MOL0     C10183   0.787   7.647  11.056 -0.5287 -0.2340 -0.5130
  817MOL0     O10184   0.760   7.568  10.935  0.2776 -0.9676 -0.4224
  817MOL0     C10185   0.645   7.596  10.869  0.2582 -0.3351 -0.5168
  817MOL0     C10186   0.574   7.706  10.887  0.3020 -0.2941  0.9863
  817MOL0     C10187   0.462   7.735  10.803  1.1979  0.6497 -0.2881
  817MOL0     C10188   0.373   7.858  10.833 -0.3444 -0.1825  0.1989
  817MOL0     C10189   0.434   7.653  10.691 -0.0249  1.1314 -0.5356
  817MOL0     C10190   0.319   7.665  10.593 -0.4099 -0.3584 -0.6769
  817MOL0     O10191   0.299   7.556  10.512  0.0473  0.2875 -0.6552
  817MOL0     C10192   0.195   7.556  10.421 -0.5563  0.5108 -0.1088
  817MOL0     C10193   0.213   7.466  10.309  0.7705  0.0457  0.0524
  817MOL0     C10194   0.101   7.451  10.216  0.3447 -0.4685 -0.2054
  817MOL0     C10195  -0.019   7.523  10.229 -1.2184 -0.1765 -0.2222
  817MOL0     O10196  -0.120   7.495  10.142 -0.2291  1.2630  0.1603
  817MOL0     C10197  -0.250   7.553  10.168  0.1944  0.1868 -0.3756
  817MOL0     C10198  -0.346   7.517  10.052  0.4318 -0.1283  0.5458
  817MOL0     C10199  -0.481   7.587  10.069  0.0875 -0.0011  0.1525
  817MOL0     C10200  -0.586   7.555   9.965  1.0608  0.2081 -0.1774
  817MOL0     C10201  -0.711   7.645   9.982  0.4863  0.1173  0.7117
  817MOL0     C10202  -0.817   7.643   9.867  0.0424  0.1539  0.5004
  817MOL0     C10203  -0.832   7.499   9.816  1.5584 -0.3653  0.5757
  817MOL0     C10204  -0.940   7.481   9.711  0.3145 -0.5984  1.3979
  817MOL0    Cl10205  -1.092   7.575   9.748 -0.3333  0.4980 -0.1827
  817MOL0     C10206  -0.025   7.618  10.345 -0.6846 -0.3912  0.2451
  817MOL0     C10207   0.076   7.630  10.435 -0.5086 -0.1177 -0.0473
  817MOL0     O10208   0.265   7.776  10.582 -0.2914 -0.3532  0.0809
  817MOL0     C10209   0.510   7.535  10.676 -0.7877  0.8185 -0.6570
  817MOL0     C10210   0.611   7.511  10.766 -0.3709  0.9508  0.6164
  817MOL0     N10211   1.258   7.571  11.176  0.6729  0.0005  0.3230
  817MOL0     N10212   1.352   7.653  11.143  0.0076 -0.3812  0.1538
  817MOL0     C10213   2.528   7.434  11.325  1.3175 -0.0211  0.9801
  817MOL0     C10214   2.659   7.400  11.321 -0.0719  0.3359 -0.1142
  817MOL0     C10215   3.085   7.271  11.201 -0.0943  0.0259 -0.2884
  817MOL0     C10216   3.100   7.307  11.065 -0.5509 -0.1364 -0.0422
  817MOL0     C10217   3.213   7.255  10.999 -0.5022  0.0129 -0.2962
  817MOL0     C10218   3.303   7.164  11.060  0.6601  0.1645 -1.0978
  817MOL0     O10219   3.396   7.098  10.994  0.5029  0.7256 -0.2576
  817MOL0     C10220   3.511   7.164  10.939  0.2988  0.2817  0.4705
  817MOL0     C10221   3.488   7.168  10.784  0.4760 -0.1837 -0.6366
  817MOL0     C10222   3.571   7.269  10.711  0.8536  0.0817  0.2421
  817MOL0     C10223   3.513   7.408  10.729 -0.1215 -0.4181  0.3616
  817MOL0     C10224   3.622   7.495  10.695  0.5965  0.0024  0.6090
  817MOL0     C10225   3.699   7.573  10.658 -0.1234  0.1437 -1.2685
  817MOL0     C10226   3.293   7.136  11.195 -0.9280 -0.3118 -0.2765
  817MOL0     C10227   3.184   7.196  11.273  0.0596 -0.2704  0.4761
  817MOL0     H10228   2.657   7.199  11.056  1.7104  2.1827  0.9819
  817MOL0     H10229   2.419   7.261  11.055 -1.6300  2.8783  0.4505
  817MOL0     H10230   2.250   7.493  11.417 -0.5825 -2.4167 -0.0882
  817MOL0     H10231   2.322   7.607  11.315 -2.7703  0.7410 -1.2850
  817MOL0     H10232   2.096   7.658  11.344 -1.5777  1.3951 -1.5485
  817MOL0     H10233   2.106   7.614  11.181  0.5447  0.4098  0.2736
  817MOL0     H10234   2.045   7.366  11.234 -0.4901  0.1564  0.2675
  817MOL0     H10235   2.021   7.410  11.402 -2.4064 -0.3585 -0.5068
  817MOL0     H10236   1.894   7.505  11.152  4.5765 -2.9851 -0.0319
  817MOL0     H10237   1.818   7.387  11.259 -1.3302 -0.1262 -0.9479
  817MOL0     H10238   1.809   7.555  11.449  1.3173  0.5150 -0.2827
  817MOL0     H10239   1.885   7.672  11.345  1.4273 -1.2851 -0.7063
  817MOL0     H10240   1.698   7.666  11.181 -1.0364 -0.4204  0.1826
  817MOL0     H10241   1.613   7.538  11.258 -0.9640 -0.5595 -0.9476
  817MOL0     H10242   1.551   7.673  11.446 -0.2321 -0.3470 -0.4724
  817MOL0     H10243   1.666   7.794  11.414 -0.8676  1.3320 -1.9974
  817MOL0     H10244   1.550   7.834  11.184 -0.3713  0.6968 -0.0378
  817MOL0     H10245   1.482   7.894  11.333  1.7864 -0.3992 -0.4585
  817MOL0     H10246   1.260   7.766  11.447 -0.2367  1.6389 -0.5867
  817MOL0     H10247   1.053   7.460  11.333  0.7679 -0.4351 -0.7561
  817MOL0     H10248   1.046   7.585  11.449  0.9075 -0.2813  0.1108
  817MOL0     H10249   0.988   7.738  11.232 -2.1025  0.7171 -2.0208
  817MOL0     H10250   0.866   7.632  11.316 -0.4674 -1.5679 -0.2363
  817MOL0     H10251   0.881   7.464  11.153 -0.8040  0.5458  1.7758
  817MOL0     H10252   0.999   7.562  11.067 -0.2422  1.0838 -1.0641
  817MOL0     H10253   0.804   7.753  11.039 -3.1276  0.4019  0.3315
  817MOL0     H10254   0.697   7.651  11.119 -1.2238  0.7896 -1.5265
  817MOL0     H10255   0.579   7.776  10.969 -0.0280 -0.5131  1.1986
  817MOL0     H10256   0.386   7.924  10.747 -0.9647 -1.4598 -0.9128
  817MOL0     H10257   0.270   7.822  10.833 -0.9309  1.4207  0.0994
  817MOL0     H10258   0.399   7.912  10.925 -1.7118 -0.7143  0.9244
  817MOL0     H10259   0.307   7.416  10.288  0.6018 -0.5838  0.7350
  817MOL0     H10260   0.097   7.387  10.129 -2.5181 -0.3044 -0.2909
  817MOL0     H10261  -0.289   7.503  10.258 -0.1527 -0.1227 -0.6907
  817MOL0     H10262  -0.242   7.660  10.185 -0.1996 -0.1244  2.2712
  817MOL0     H10263  -0.306   7.552   9.957  0.3590 -0.4586  0.3919
  817MOL0     H10264  -0.355   7.409  10.040  1.8693 -0.0467 -1.7603
  817MOL0     H10265  -0.461   7.695  10.066  2.5198 -0.4078 -0.5753
  817MOL0     H10266  -0.521   7.560  10.167 -3.2341  0.4348 -0.9586
  817MOL0     H10267  -0.550   7.575   9.864 -3.2370 -1.8371 -2.4367
  817MOL0     H10268  -0.612   7.448   9.965 -1.9286  0.8320 -0.3801
  817MOL0     H10269  -0.686   7.751   9.999  0.6748  0.7711 -2.8700
  817MOL0     H10270  -0.760   7.610  10.073  1.7639  0.4586  1.5706
  817MOL0     H10271  -0.914   7.675   9.906 -0.0259  0.4894  0.0712
  817MOL0     H10272  -0.779   7.707   9.787  1.2485 -0.2203  0.7579
  817MOL0     H10273  -0.867   7.441   9.902  1.4551 -0.5370  0.4172
  817MOL0     H10274  -0.733   7.465   9.784  1.2413 -0.2114 -0.6150
  817MOL0     H10275  -0.960   7.375   9.695  4.1496 -1.0195 -2.3820
  817MOL0     H10276  -0.899   7.516   9.616 -0.3704 -0.2047  1.2412
  817MOL0     H10277  -0.117   7.674  10.358 -0.0016  0.6944  0.4634
  817MOL0     H10278   0.055   7.704  10.512 -1.1025  1.4813 -1.6850
  817MOL0     H10279   0.495   7.464  10.596  1.7773  0.6466 -1.0654
  817MOL0     H10280   0.676   7.424  10.761  1.1301  1.7093  3.9368
  817MOL0     H10281   2.495   7.494  11.409  0.2279  0.2347  0.3861
  817MOL0     H10282   2.722   7.431  11.403  2.2610  0.2963 -1.7910
  817MOL0     H10283   3.027   7.364  11.009  0.2781  1.5863  0.5713
  817MOL0     H10284   3.220   7.262  10.891  3.1007 -4.2176 -0.6266
  817MOL0     H10285   3.513   7.268  10.973 -2.3922  1.8005 -3.3016
  817MOL0     H10286   3.611   7.122  10.956  1.5071  1.8142 -2.1291
  817MOL0     H10287   3.384   7.191  10.760  0.1638  0.6706  1.2807
  817MOL0     H10288   3.514   7.073  10.736 -2.3873 -2.1609  1.4102
  817MOL0     H10289   3.579   7.239  10.606 -1.4483  3.8048 -1.1981
  817MOL0     H10290   3.663   7.262  10.769 -0.7368 -1.1722  2.7873
  817MOL0     H10291   3.496   7.421  10.836 -0.1228 -0.7903  0.4070
  817MOL0     H10292   3.420   7.428  10.676  0.1439  1.2264  0.4676
  817MOL0     H10293   3.776   7.645  10.638 -1.9301  2.6319  0.2287
  817MOL0     H10294   3.353   7.071  11.258 -1.4242 -0.9084 -0.4170
  817MOL0     H10295   3.174   7.180  11.380  1.6161 -1.8084  0.4347
  818MOL0     O10296   9.662   9.325   1.656  1.1765  0.0811  0.0199
  818MOL0     C10297   9.772   9.378   1.671  1.4979  0.1583  1.0726
  818MOL0     O10298   9.791   9.497   1.717 -0.3889  0.1430 -0.1477
  818MOL0     C10299   9.687   9.567   1.757 -1.2263  0.5441  0.5994
  818MOL0     C10300   9.608   9.620   1.656 -0.0928 -0.2346  0.4780
  818MOL0     C10301   9.502   9.701   1.690  0.5943  0.1997 -0.1210
  818MOL0     C10302   9.466   9.726   1.823  0.3922 -0.4822  0.1502
  818MOL0     O10303   9.363   9.808   1.867  0.2780  0.4303  0.2457
  818MOL0     C10304   9.324   9.918   1.774  0.6724 -0.1244  0.5285
  818MOL0     C10305   9.266  10.028   1.858 -1.1699 -0.4648  0.1397
  818MOL0     C10306   9.155   9.995   1.951 -0.0497 -0.0087  0.1484
  818MOL0     C10307   9.110  10.122   2.011  0.4248 -0.8990 -0.0456
  818MOL0     C10308   9.010  10.199   1.926  0.0684 -0.0494  0.5468
  818MOL0     C10309   8.875  10.136   1.919  0.0771  0.7380  0.6098
  818MOL0     C10310   8.774  10.229   1.854  0.2017  0.8788  0.3521
  818MOL0     C10311   8.631  10.162   1.825  0.6505  0.6377 -0.4088
  818MOL0     N10312   8.576  10.104   1.944 -0.3012 -0.2203  0.1232
  818MOL0     C10313   8.495  10.173   2.029 -0.4301  0.1050  0.6503
  818MOL0     C10314   8.482  10.087   2.134 -0.0719  0.0068 -0.5596
  818MOL0     C10315   8.412  10.105   2.269  0.1950  0.1138 -0.7689
  818MOL0     C10316   8.277  10.179   2.254 -1.0314  0.4013  0.6673
  818MOL0     C10317   8.161  10.091   2.185  0.0954 -0.5157 -0.3080
  818MOL0     C10318   8.131   9.951   2.247  0.2911 -0.3352  0.7537
  818MOL0     O10319   8.024   9.902   2.166  0.3638  0.3443 -0.1872
  818MOL0     C10320   7.896   9.939   2.203  0.2228 -1.7679 -0.2424
  818MOL0     C10321   7.791   9.877   2.130 -0.0684 -0.3032 -0.2788
  818MOL0     C10322   7.651   9.899   2.153 -0.2857 -0.4323 -0.5668
  818MOL0     C10323   7.553   9.824   2.053  0.3086  0.5053  0.0950
  818MOL0     C10324   7.612   9.983   2.261  0.0076  0.3481  0.2721
  818MOL0     C10325   7.469  10.015   2.306 -0.3305  0.5630  0.0864
  818MOL0     O10326   7.446  10.145   2.340 -0.6983  0.5144 -1.0391
  818MOL0     C10327   7.335  10.203   2.404 -0.6162  0.6946  0.4080
  818MOL0     C10328   7.222  10.127   2.441  0.1970  0.4712  0.8711
  818MOL0     C10329   7.113  10.190   2.502 -0.0771  0.7547  0.6369
  818MOL0     C10330   7.114  10.325   2.538  0.2145  0.1181  0.4752
  818MOL0     O10331   7.001  10.387   2.596  0.2460 -0.1315  0.3283
  818MOL0     C10332   6.910  10.308   2.672 -0.5467 -0.1826 -0.2086
  818MOL0     C10333   6.806  10.406   2.739 -0.5956  0.8585 -0.6661
  818MOL0     C10334   6.741  10.330   2.859 -0.5846 -0.5036  0.5503
  818MOL0     C10335   6.656  10.211   2.818 -0.0262 -0.0492  0.3341
  818MOL0     C10336   6.520  10.269   2.754 -0.7685  0.4126  0.0928
  818MOL0     C10337   6.413  10.294   2.857 -0.0957  1.2836  0.0827
  818MOL0     C10338   6.273  10.306   2.795 -0.8265 -0.4788  0.2869
  818MOL0     C10339   6.192  10.394   2.893  0.2429  0.0165  0.0181
  818MOL0    Cl10340   6.206  10.319   3.059  0.4961  0.1428 -0.2374
  818MOL0     C10341   7.228  10.399   2.500 -0.0734  0.1952  0.2533
  818MOL0     C10342   7.333  10.339   2.425 -0.2136 -0.6087  0.0554
  818MOL0     O10343   7.389   9.920   2.304 -0.4397  1.0812  0.3051
  818MOL0     C10344   7.713  10.039   2.349 -0.0619 -0.3087  0.2566
  818MOL0     C10345   7.847  10.018   2.321 -0.4145  0.2068  0.3316
  818MOL0     N10346   8.550   9.971   2.109 -0.3725 -0.1903 -0.4975
  818MOL0     N10347   8.599   9.981   1.994 -0.4471 -0.5214  0.5607
  818MOL0     C10348   9.554   9.680   1.929 -0.2590 -0.4248  0.2197
  818MOL0     C10349   9.668   9.609   1.890 -0.3015  0.7020 -0.1701
  818MOL0     C10350   9.887   9.298   1.629 -0.0122  0.0455 -0.3916
  818MOL0     C10351  10.028   9.335   1.648  0.3037  0.0173 -0.7729
  818MOL0     C10352  10.138   9.249   1.605  0.2929 -0.2726  0.3421
  818MOL0     C10353  10.116   9.120   1.549 -0.8355 -0.2554  0.2495
  818MOL0     O10354  10.215   9.020   1.549  1.1064  0.2488 -0.1159
  818MOL0     C10355  10.352   9.033   1.579 -1.0583  1.2958  0.3606
  818MOL0     C10356  10.415   8.893   1.583  0.6014 -0.3393 -0.3589
  818MOL0     C10357  10.367   8.811   1.701  0.4568 -0.1554 -0.1493
  818MOL0     C10358  10.418   8.670   1.699  0.8280  0.3686 -0.0900
  818MOL0     C10359  10.570   8.672   1.698  0.3431  0.4602 -0.0445
  818MOL0     C10360  10.691   8.683   1.695  0.8093  0.7071  0.4459
  818MOL0     C10361   9.981   9.088   1.529 -0.0519  0.7821 -0.4352
  818MOL0     C10362   9.872   9.170   1.566 -0.3514 -0.3735 -0.4914
  818MOL0     H10363   9.644   9.610   1.554  0.1881  0.9186  0.4488
  818MOL0     H10364   9.455   9.742   1.601  1.9953  1.0243 -0.5263
  818MOL0     H10365   9.404   9.963   1.715 -0.8933  0.3481 -1.3586
  818MOL0     H10366   9.244   9.874   1.713  0.1572  0.9991  0.3691
  818MOL0     H10367   9.352  10.068   1.913 -0.5960 -0.3531 -0.8208
  818MOL0     H10368   9.230  10.101   1.785 -0.2671 -1.5022 -1.3826
  818MOL0     H10369   9.081   9.959   1.879 -0.3308  3.4849 -1.5340
  818MOL0     H10370   9.196   9.920   2.019 -1.8359  0.2887  1.6544
  818MOL0     H10371   9.065  10.098   2.108  0.6995 -2.9242 -0.3737
  818MOL0     H10372   9.188  10.197   2.024 -1.3027  1.3386 -1.7405
  818MOL0     H10373   8.989  10.297   1.970  2.2806  1.1249 -0.8337
  818MOL0     H10374   9.049  10.230   1.828 -2.6461  0.5062 -0.4544
  818MOL0     H10375   8.875  10.046   1.856 -0.0675 -0.2052  1.9012
  818MOL0     H10376   8.849  10.094   2.017  0.5413 -3.2599 -0.7550
  818MOL0     H10377   8.762  10.326   1.903 -1.6049  2.8396 -3.5058
  818MOL0     H10378   8.816  10.262   1.758  0.4996  2.2575  0.9336
  818MOL0     H10379   8.659  10.084   1.754 -0.4891  2.0259 -2.4632
  818MOL0     H10380   8.556  10.226   1.778  1.9121  0.9821 -2.0086
  818MOL0     H10381   8.452  10.273   2.024 -1.8336 -0.5527 -1.9764
  818MOL0     H10382   8.399  10.016   2.332  0.6353 -0.3459 -1.3163
  818MOL0     H10383   8.474  10.168   2.333 -1.0390  0.8181 -0.2137
  818MOL0     H10384   8.293  10.278   2.210  0.3335  0.8974  2.1518
  818MOL0     H10385   8.239  10.197   2.355  0.8280  2.0684  1.1441
  818MOL0     H10386   8.169  10.073   2.077  0.4902  0.9235 -0.5377
  818MOL0     H10387   8.079  10.164   2.181  1.8347  1.5615  0.3821
  818MOL0     H10388   8.106   9.979   2.350 -0.2702 -0.1627  0.5733
  818MOL0     H10389   8.212   9.878   2.253  1.9510  1.4069  0.7509
  818MOL0     H10390   7.831   9.810   2.054  3.9625  3.5211 -1.9030
  818MOL0     H10391   7.462   9.885   2.052 -1.5137 -1.9886 -1.8255
  818MOL0     H10392   7.592   9.791   1.956  0.9960  1.3575  0.0676
  818MOL0     H10393   7.537   9.728   2.102 -0.0196  1.0959  1.1788
  818MOL0     H10394   7.213  10.024   2.409  1.7347  1.3535 -2.9375
  818MOL0     H10395   7.029  10.126   2.524  0.3456  0.2379  0.7693
  818MOL0     H10396   6.858  10.237   2.606  1.8755 -2.2626 -0.0339
  818MOL0     H10397   6.963  10.243   2.742  0.9082 -0.4546 -1.5089
  818MOL0     H10398   6.859  10.490   2.785 -1.2170  1.1200 -0.4290
  818MOL0     H10399   6.721  10.438   2.678 -3.0924  0.6435  2.4523
  818MOL0     H10400   6.670  10.383   2.924 -3.0380 -1.8141 -0.9044
  818MOL0     H10401   6.823  10.293   2.921  0.7125 -1.0720 -1.4265
  818MOL0     H10402   6.708  10.154   2.741  2.2212  1.6201  0.4985
  818MOL0     H10403   6.628  10.154   2.907  0.3518  1.5773  1.5409
  818MOL0     H10404   6.474  10.207   2.676  0.9466  0.3237 -0.9054
  818MOL0     H10405   6.530  10.371   2.714 -1.5711  1.1682  1.7195
  818MOL0     H10406   6.412  10.195   2.903 -1.2215  1.0389 -0.4335
  818MOL0     H10407   6.441  10.375   2.925 -0.6604  0.9611  0.7032
  818MOL0     H10408   6.227  10.209   2.774 -0.3890 -0.9964  1.6324
  818MOL0     H10409   6.283  10.360   2.700  1.2987 -0.6294  0.3612
  818MOL0     H10410   6.086  10.404   2.864 -0.3318  0.6206  2.1874
  818MOL0     H10411   6.230  10.496   2.887 -1.8356  0.9107  1.1377
  818MOL0     H10412   7.228  10.505   2.519  1.1606  0.2927 -0.2272
  818MOL0     H10413   7.421  10.388   2.387  0.3403 -0.2489  1.7090
  818MOL0     H10414   7.672  10.087   2.437  1.3789  0.4948  0.5106
  818MOL0     H10415   7.913  10.051   2.400  0.2179 -3.9633  1.8216
  818MOL0     H10416   9.546   9.715   2.031  3.0793 -3.0275  1.5520
  818MOL0     H10417   9.748   9.574   1.953  0.2240 -0.0690 -1.2374
  818MOL0     H10418  10.053   9.425   1.703 -1.0517  1.2903 -2.1366
  818MOL0     H10419  10.236   9.274   1.643 -0.3337  2.5821  0.3625
  818MOL0     H10420  10.398   9.096   1.502  1.2151 -0.3060  0.3004
  818MOL0     H10421  10.377   9.072   1.678  1.0892  0.4242  0.2280
  818MOL0     H10422  10.524   8.899   1.584  0.6469 -1.1996  0.1715
  818MOL0     H10423  10.387   8.843   1.490 -0.9397 -1.1386  0.4949
  818MOL0     H10424  10.258   8.809   1.712  0.1865  2.7956 -1.4361
  818MOL0     H10425  10.394   8.860   1.795 -0.6135 -1.5380  0.9349
  818MOL0     H10426  10.376   8.624   1.609 -0.6525  0.2037  0.6395
  818MOL0     H10427  10.385   8.621   1.792  3.3978 -3.2072 -0.8406
  818MOL0     H10428  10.797   8.692   1.704  0.8064 -0.8301  2.7670
  818MOL0     H10429   9.962   8.988   1.492 -1.2542  1.5610 -1.9730
  818MOL0     H10430   9.776   9.121   1.556 -0.6667  0.4740 -1.8225
  819MOL0     O10431   1.466   6.252  10.187 -0.0753 -0.2691 -0.8547
  819MOL0     C10432   1.522   6.166  10.120  0.0852 -0.3280  0.0810
  819MOL0     O10433   1.464   6.078  10.030  0.4804  0.0889  0.8092
  819MOL0     C10434   1.325   6.076  10.036  0.5223  0.0630 -0.4973
  819MOL0     C10435   1.269   5.966  10.105 -0.6293  0.5984 -0.0504
  819MOL0     C10436   1.132   5.954  10.103  0.4077 -0.2358 -0.2831
  819MOL0     C10437   1.048   6.047  10.041  0.3920 -1.1051  0.3620
  819MOL0     O10438   0.907   6.030  10.043 -0.3426 -0.5815 -0.0407
  819MOL0     C10439   0.860   5.897  10.020  0.1946  0.3152  0.1179
  819MOL0     C10440   0.724   5.931   9.943 -0.5774 -0.3305  0.7310
  819MOL0     C10441   0.644   5.815   9.899  0.8689  0.7114 -0.4963
  819MOL0     C10442   0.584   5.831   9.762  0.8953 -0.0805  0.0438
  819MOL0     C10443   0.487   5.946   9.746 -0.0679  0.1126 -0.0746
  819MOL0     C10444   0.391   5.919   9.632  0.0741 -0.4262 -0.4753
  819MOL0     C10445   0.450   5.924   9.494 -0.3654 -0.2508 -0.6991
  819MOL0     C10446   0.346   5.959   9.378  0.7948  0.6620  0.2973
  819MOL0     N10447   0.243   5.853   9.369  0.1940  0.6274  0.3244
  819MOL0     C10448   0.249   5.737   9.295 -0.6170 -0.4664  0.5181
  819MOL0     C10449   0.134   5.676   9.325  0.2409 -0.1238  0.7422
  819MOL0     C10450   0.089   5.547   9.249  0.2168 -0.8307 -0.1802
  819MOL0     C10451  -0.027   5.485   9.322 -1.3575 -0.7680 -0.0087
  819MOL0     C10452  -0.084   5.358   9.256 -0.6774 -0.4798  0.0720
  819MOL0     C10453  -0.219   5.322   9.299 -0.3609 -0.0649 -0.3800
  819MOL0     O10454  -0.318   5.413   9.248 -0.1495  0.3734 -0.4474
  819MOL0     C10455  -0.436   5.420   9.313 -0.0356  0.3616 -0.1078
  819MOL0     C10456  -0.477   5.356   9.434 -0.4703 -0.1583 -0.7327
  819MOL0     C10457  -0.600   5.378   9.500 -0.0174  1.1198 -0.7058
  819MOL0     C10458  -0.627   5.301   9.621 -0.3367  0.3152 -0.8464
  819MOL0     C10459  -0.692   5.453   9.427  0.9564  0.6921 -0.2797
  819MOL0     C10460  -0.838   5.478   9.467 -1.0415  0.2241  0.3343
  819MOL0     O10461  -0.919   5.525   9.370  0.2991  1.2932 -0.5064
  819MOL0     C10462  -1.057   5.523   9.399 -0.9300  0.4240 -0.0961
  819MOL0     C10463  -1.114   5.610   9.496  0.1200  0.0962 -0.0181
  819MOL0     C10464  -1.247   5.602   9.529  0.8306  0.0528  0.6739
  819MOL0     C10465  -1.335   5.502   9.469  1.1425  0.3445 -0.6672
  819MOL0     O10466  -1.475   5.489   9.495  0.5241 -0.2508  0.1044
  819MOL0     C10467  -1.528   5.549   9.615 -0.2540 -0.0320 -0.4663
  819MOL0     C10468  -1.672   5.494   9.645 -0.2563  0.3506 -0.6922
  819MOL0     C10469  -1.731   5.562   9.765 -0.1208 -0.4943 -0.5820
  819MOL0     C10470  -1.876   5.533   9.785 -0.4937 -0.9808  0.3733
  819MOL0     C10471  -1.917   5.609   9.912  0.2308 -0.7867 -0.1780
  819MOL0     C10472  -2.070   5.595   9.934  0.1796 -0.3512 -1.1419
  819MOL0     C10473  -2.114   5.721  10.012  1.2325 -1.0412 -0.7927
  819MOL0     C10474  -2.273   5.727  10.048 -0.4511  0.2610  0.1222
  819MOL0    Cl10475  -2.317   5.596  10.166 -0.2545  0.4563 -0.2600
  819MOL0     C10476  -1.281   5.414   9.379  0.1658  0.1746 -0.2620
  819MOL0     C10477  -1.146   5.424   9.344 -0.8877 -0.1872  0.0394
  819MOL0     O10478  -0.871   5.466   9.579 -0.4900 -0.6680 -0.5253
  819MOL0     C10479  -0.654   5.507   9.302 -0.0745  0.3292 -0.2991
  819MOL0     C10480  -0.530   5.493   9.247 -0.7339  0.2275  0.0210
  819MOL0     N10481   0.076   5.746   9.430  1.1534  0.1837 -0.1118
  819MOL0     N10482   0.134   5.851   9.448  0.2125 -0.0092 -0.0347
  819MOL0     C10483   1.106   6.154   9.983 -0.3081 -0.0261  0.1558
  819MOL0     C10484   1.244   6.169   9.968 -0.2302  0.6146 -0.6364
  819MOL0     C10485   1.667   6.135  10.153 -0.9616 -0.2459  0.9134
  819MOL0     C10486   1.734   6.013  10.138 -1.1754  0.7495 -0.5746
  819MOL0     C10487   1.873   6.003  10.145 -0.1933 -1.1684 -0.5706
  819MOL0     C10488   1.960   6.106  10.206 -0.8512  0.6201  0.5563
  819MOL0     O10489   2.096   6.099  10.220 -0.6316  0.2686  0.8649
  819MOL0     C10490   2.142   6.079  10.355  0.7952  0.6521  0.6083
  819MOL0     C10491   2.148   6.210  10.416 -0.2536 -0.5445 -0.2108
  819MOL0     C10492   2.215   6.201  10.554  0.2152  0.0587 -0.0539
  819MOL0     C10493   2.312   6.315  10.591  0.5040  0.0509  0.7124
  819MOL0     C10494   2.250   6.441  10.591 -0.2827  0.7563 -0.1221
  819MOL0     C10495   2.201   6.552  10.597  0.1870 -0.1582  0.7198
  819MOL0     C10496   1.889   6.227  10.235  0.9049  0.2842 -0.2796
  819MOL0     C10497   1.746   6.236  10.210  0.2276  0.3222  0.0745
  819MOL0     H10498   1.330   5.892  10.155 -1.8448  0.6179  1.5476
  819MOL0     H10499   1.085   5.872  10.156  0.9647  0.4000  1.2482
  819MOL0     H10500   0.919   5.834   9.952 -0.9656 -1.9279  1.0840
  819MOL0     H10501   0.843   5.841  10.112  0.2545 -0.4118 -0.3024
  819MOL0     H10502   0.661   5.994  10.006 -0.0151 -0.0869  1.0555
  819MOL0     H10503   0.759   5.988   9.857 -0.4027 -1.9822 -0.3544
  819MOL0     H10504   0.708   5.726   9.898  1.7258  1.3160 -0.6342
  819MOL0     H10505   0.567   5.783   9.970  1.1309 -0.6700 -0.7950
  819MOL0     H10506   0.661   5.855   9.689  1.8683  0.1448  1.1276
  819MOL0     H10507   0.529   5.738   9.743 -2.8226  1.5972  1.5387
  819MOL0     H10508   0.429   5.961   9.837 -3.2471  0.8066 -2.0924
  819MOL0     H10509   0.547   6.035   9.726  0.9343 -0.1081  1.6838
  819MOL0     H10510   0.342   5.821   9.645 -2.0355  0.5989 -0.3337
  819MOL0     H10511   0.313   5.995   9.636  1.0372  0.6253  3.9073
  819MOL0     H10512   0.526   6.004   9.492  1.7196 -2.1194 -0.4079
  819MOL0     H10513   0.514   5.837   9.479  0.9843  1.0663 -3.4057
  819MOL0     H10514   0.392   5.954   9.279 -1.1694  0.8284 -0.6747
  819MOL0     H10515   0.311   6.061   9.396 -0.7520 -0.1787  2.5562
  819MOL0     H10516   0.325   5.692   9.232 -0.6393 -0.5354  0.5409
  819MOL0     H10517   0.049   5.586   9.155 -2.8719  0.8979  1.6957
  819MOL0     H10518   0.171   5.477   9.232  1.4612  0.4767  0.2150
  819MOL0     H10519  -0.103   5.564   9.321  0.1803  0.7941 -1.9842
  819MOL0     H10520   0.000   5.463   9.425  2.9039  1.5418 -0.4290
  819MOL0     H10521  -0.018   5.271   9.251 -3.3028 -2.5302 -1.7665
  819MOL0     H10522  -0.100   5.374   9.149  1.9472 -1.9023 -0.6149
  819MOL0     H10523  -0.210   5.328   9.408  0.1458 -0.4961 -0.3929
  819MOL0     H10524  -0.252   5.225   9.259  0.1999 -1.0156  1.3414
  819MOL0     H10525  -0.414   5.282   9.484 -1.7070 -0.0951  0.9976
  819MOL0     H10526  -0.661   5.374   9.695  1.5401 -0.0279  0.3936
  819MOL0     H10527  -0.709   5.231   9.599 -1.2000  1.4027 -1.2127
  819MOL0     H10528  -0.539   5.249   9.659 -0.0239  1.8571  0.6388
  819MOL0     H10529  -1.048   5.677   9.550  0.3861 -0.3868  0.2605
  819MOL0     H10530  -1.285   5.676   9.599  0.9014  0.3009  0.4497
  819MOL0     H10531  -1.471   5.518   9.703  0.1402  1.2434 -0.2534
  819MOL0     H10532  -1.526   5.658   9.622  1.3313 -0.0285 -0.4776
  819MOL0     H10533  -1.739   5.502   9.559 -0.7249  0.3734 -0.3270
  819MOL0     H10534  -1.662   5.388   9.667 -0.5293  0.8119  2.0357
  819MOL0     H10535  -1.713   5.670   9.758  4.7898 -0.9580  0.7413
  819MOL0     H10536  -1.673   5.521   9.848  3.1697 -0.8990 -2.8866
  819MOL0     H10537  -1.937   5.571   9.703  1.7467  0.3410 -0.7575
  819MOL0     H10538  -1.891   5.429   9.816  2.9103 -1.9843 -0.9534
  819MOL0     H10539  -1.886   5.710   9.884 -0.8189 -0.4601 -0.1938
  819MOL0     H10540  -1.866   5.572  10.001  0.0082 -0.0778  0.2475
  819MOL0     H10541  -2.133   5.580   9.846 -1.8484  3.2278 -0.5427
  819MOL0     H10542  -2.083   5.508   9.999  0.7674  0.8339  0.6580
  819MOL0     H10543  -2.093   5.811   9.954 -1.0939  1.5839  2.1220
  819MOL0     H10544  -2.058   5.725  10.106 -1.6626 -7.2241  1.7319
  819MOL0     H10545  -2.321   5.721   9.950 -1.1082 -1.5995  0.5263
  819MOL0     H10546  -2.314   5.824  10.078 -1.6849 -0.5608  1.2308
  819MOL0     H10547  -1.352   5.341   9.343  0.1924 -0.6010  1.1932
  819MOL0     H10548  -1.116   5.362   9.260 -0.8284  0.5195 -0.4764
  819MOL0     H10549  -0.723   5.572   9.251  0.1277  0.8443  0.0666
  819MOL0     H10550  -0.485   5.536   9.158  0.7102 -2.5840 -0.6925
  819MOL0     H10551   1.051   6.235   9.937  0.9884  0.5489 -0.4463
  819MOL0     H10552   1.284   6.252   9.912 -2.1189  1.0562 -1.4091
  819MOL0     H10553   1.684   5.925  10.100 -0.9153  0.7719 -0.9722
  819MOL0     H10554   1.913   5.906  10.117  1.1398 -1.5508  2.3136
  819MOL0     H10555   2.086   6.003  10.410 -0.2624 -0.9037 -2.4058
  819MOL0     H10556   2.238   6.027  10.353 -0.6318 -2.1678 -2.5772
  819MOL0     H10557   2.046   6.246  10.436  0.1607  1.3734 -1.3704
  819MOL0     H10558   2.196   6.279  10.346 -2.1814  2.0731  0.8974
  819MOL0     H10559   2.263   6.102  10.552 -0.8550 -0.4732 -1.4475
  819MOL0     H10560   2.145   6.192  10.637 -0.0487  1.2445 -0.1335
  819MOL0     H10561   2.388   6.314  10.511  1.9554 -0.4232  2.0374
  819MOL0     H10562   2.361   6.302  10.688 -1.2397 -0.6524  1.5439
  819MOL0     H10563   2.157   6.643  10.632  1.0445  0.0370  1.3507
  819MOL0     H10564   1.929   6.319  10.277 -2.9509  1.5473  1.0899
  819MOL0     H10565   1.704   6.334  10.231  1.6361  1.1787 -0.9241
  820MOL0     O10566   1.185  10.829   5.996  0.2712  0.7496 -0.0755
  820MOL0     C10567   1.229  10.716   6.031 -0.4216 -0.4094  0.2013
  820MOL0     O10568   1.184  10.632   6.127 -0.1749  0.2679  0.2305
  820MOL0     C10569   1.070  10.646   6.194  0.2839 -0.2575 -0.5783
  820MOL0     C10570   1.065  10.588   6.321  0.6005 -0.1478 -0.1923
  820MOL0     C10571   0.957  10.609   6.405 -0.5473  0.0111 -0.3388
  820MOL0     C10572   0.848  10.686   6.371  0.7247  0.6272 -0.4390
  820MOL0     O10573   0.757  10.714   6.466  1.4920  0.4058 -0.2384
  820MOL0     C10574   0.633  10.790   6.443  0.3038 -0.1943 -0.0582
  820MOL0     C10575   0.510  10.695   6.456 -0.2935 -0.2091  0.7041
  820MOL0     C10576   0.448  10.709   6.600 -0.0256  0.5354 -0.3670
  820MOL0     C10577   0.307  10.647   6.592  0.0631  0.0303  0.0520
  820MOL0     C10578   0.223  10.693   6.712  0.1069  0.1851  0.4854
  820MOL0     C10579   0.103  10.598   6.740 -0.1972 -0.4837 -0.3107
  820MOL0     C10580   0.011  10.577   6.626  0.5481 -0.6156 -0.6288
  820MOL0     C10581  -0.083  10.692   6.606  1.2654 -0.1426 -0.5513
  820MOL0     N10582  -0.197  10.652   6.522 -0.6597  0.8462 -0.8471
  820MOL0     C10583  -0.299  10.577   6.578 -0.2007 -0.4419 -0.7590
  820MOL0     C10584  -0.377  10.547   6.469  0.5086 -0.9976  0.0398
  820MOL0     C10585  -0.507  10.479   6.475  0.7211 -0.0678  0.0585
  820MOL0     C10586  -0.624  10.579   6.504  0.0654 -0.7415 -0.0470
  820MOL0     C10587  -0.755  10.497   6.521 -0.3587 -0.3962  0.2943
  820MOL0     C10588  -0.875  10.592   6.533 -0.0874  0.6387 -0.1576
  820MOL0     O10589  -0.895  10.658   6.407 -0.0817 -0.2698  0.3993
  820MOL0     C10590  -1.021  10.713   6.394  0.1744  0.3196 -0.5030
  820MOL0     C10591  -1.120  10.657   6.315 -0.5943 -0.7980 -0.3616
  820MOL0     C10592  -1.241  10.711   6.284 -0.5048 -1.0381 -0.1923
  820MOL0     C10593  -1.335  10.644   6.193 -0.6437  0.1437 -0.3064
  820MOL0     C10594  -1.274  10.840   6.335 -0.2118 -0.1548  0.1722
  820MOL0     C10595  -1.395  10.908   6.311 -0.0692 -0.6334  0.2529
  820MOL0     O10596  -1.466  10.949   6.423 -0.0676 -0.0889 -0.1353
  820MOL0     C10597  -1.590  10.994   6.406  0.1394  0.2647 -0.7993
  820MOL0     C10598  -1.684  10.935   6.321  0.4738 -0.4782  0.1360
  820MOL0     C10599  -1.807  11.001   6.308  0.0701 -0.1260  0.8027
  820MOL0     C10600  -1.835  11.113   6.387 -0.8499 -0.3750  0.6042
  820MOL0     O10601  -1.948  11.185   6.385  0.4010  0.0585 -0.4429
  820MOL0     C10602  -2.056  11.137   6.309 -0.0438  0.5316 -0.0649
  820MOL0     C10603  -2.143  11.081   6.418 -0.3730  0.8249 -0.3076
  820MOL0     C10604  -2.214  11.183   6.515 -0.1152  0.5761  0.6024
  820MOL0     C10605  -2.246  11.317   6.450  0.1230 -0.1092  0.2638
  820MOL0     C10606  -2.345  11.410   6.521  0.5499 -0.2085 -1.0979
  820MOL0     C10607  -2.356  11.549   6.448 -0.8252  0.3032  0.0054
  820MOL0     C10608  -2.438  11.653   6.530 -0.9478  0.1240 -0.0347
  820MOL0     C10609  -2.448  11.784   6.450 -0.1591  0.4090  0.4648
  820MOL0    Cl10610  -2.321  11.893   6.473 -0.3471 -0.4593  0.2259
  820MOL0     C10611  -1.735  11.173   6.469  0.3175 -0.4286  0.0799
  820MOL0     C10612  -1.615  11.110   6.482 -0.7394  0.0625 -0.7796
  820MOL0     O10613  -1.427  10.932   6.188 -0.5936 -0.4931  0.1090
  820MOL0     C10614  -1.175  10.908   6.413 -0.3703  0.1714  0.0062
  820MOL0     C10615  -1.043  10.845   6.433  0.7364 -0.1275 -0.7535
  820MOL0     N10616  -0.323  10.610   6.355  0.1646  0.9462 -0.3582
  820MOL0     N10617  -0.227  10.678   6.395  0.6884  0.0780  0.5077
  820MOL0     C10618   0.844  10.736   6.238 -0.2286 -0.2058 -0.0407
  820MOL0     C10619   0.956  10.715   6.153 -0.3280  0.4701  0.6306
  820MOL0     C10620   1.350  10.680   5.960 -0.9289 -0.6231 -0.0214
  820MOL0     C10621   1.438  10.598   6.037  0.8086 -0.2045  0.3602
  820MOL0     C10622   1.547  10.540   5.979 -0.1943 -0.3261  0.0682
  820MOL0     C10623   1.578  10.558   5.844  0.0347  0.4095 -0.3518
  820MOL0     O10624   1.680  10.498   5.768 -0.3277 -0.2314  0.7571
  820MOL0     C10625   1.782  10.411   5.827  0.5044  0.3234 -0.2032
  820MOL0     C10626   1.871  10.482   5.932  0.5028  0.6077  0.0141
  820MOL0     C10627   1.962  10.385   6.001  0.0595 -0.5518  0.6370
  820MOL0     C10628   2.060  10.326   5.896 -0.3654  0.0328  0.3700
  820MOL0     C10629   1.997  10.201   5.847 -0.4866  0.1242  0.1314
  820MOL0     C10630   1.949  10.097   5.811  0.2660 -0.4649  0.1714
  820MOL0     C10631   1.505  10.653   5.774  0.1967 -1.3301 -0.1167
  820MOL0     C10632   1.391  10.708   5.831  0.4022 -0.5479 -0.1292
  820MOL0     H10633   1.150  10.531   6.356  2.3690  3.0635  1.2141
  820MOL0     H10634   0.965  10.577   6.509  0.5501  2.5614  0.4199
  820MOL0     H10635   0.621  10.875   6.511 -1.5107 -0.3197 -0.1678
  820MOL0     H10636   0.629  10.840   6.345 -1.3170  0.5740  0.3627
  820MOL0     H10637   0.435  10.717   6.380 -2.1883  0.2678  2.6247
  820MOL0     H10638   0.543  10.592   6.442  2.8688  0.7700  0.1377
  820MOL0     H10639   0.513  10.671   6.679 -0.1547  1.8079  0.3895
  820MOL0     H10640   0.435  10.815   6.625  0.4523  0.8104 -1.2614
  820MOL0     H10641   0.251  10.683   6.505 -2.2284  1.3864  1.9652
  820MOL0     H10642   0.313  10.538   6.590 -3.4025 -0.3431  1.8836
  820MOL0     H10643   0.282  10.692   6.804 -3.2261 -0.9583  2.7876
  820MOL0     H10644   0.184  10.794   6.702 -5.8883 -1.7224  0.9989
  820MOL0     H10645   0.140  10.498   6.763 -4.6138 -2.3004 -0.0352
  820MOL0     H10646   0.048  10.634   6.828 -1.1113 -2.5426  0.0212
  820MOL0     H10647   0.064  10.564   6.532 -0.5778 -0.4485 -1.3037
  820MOL0     H10648  -0.041  10.485   6.656  1.7693 -1.6416 -1.5491
  820MOL0     H10649  -0.030  10.781   6.571 -2.5134  1.6119 -2.4267
  820MOL0     H10650  -0.127  10.716   6.703  0.2650 -1.3685 -0.6792
  820MOL0     H10651  -0.302  10.551   6.683 -4.4422 -0.8481 -0.8072
  820MOL0     H10652  -0.521  10.431   6.378  0.3231  3.1241 -1.6162
  820MOL0     H10653  -0.494  10.405   6.555  2.8382  0.0946 -0.0948
  820MOL0     H10654  -0.636  10.648   6.421  1.9178 -0.0962  0.1685
  820MOL0     H10655  -0.598  10.638   6.592  2.5647 -0.3942 -0.9332
  820MOL0     H10656  -0.758  10.436   6.612 -0.8383  0.6727  1.0170
  820MOL0     H10657  -0.781  10.437   6.433  0.3372 -0.6006  0.2235
  820MOL0     H10658  -0.860  10.665   6.613 -1.0640  1.2472 -0.5135
  820MOL0     H10659  -0.966  10.537   6.559  0.7555 -0.4454  0.5981
  820MOL0     H10660  -1.100  10.562   6.266  0.3220 -2.0228  2.1652
  820MOL0     H10661  -1.331  10.690   6.094  0.7683  0.9680  0.1103
  820MOL0     H10662  -1.311  10.537   6.194 -0.7168  0.0444 -2.8889
  820MOL0     H10663  -1.441  10.656   6.215 -0.3589  1.8157  0.3047
  820MOL0     H10664  -1.664  10.846   6.263  2.4707  1.2577 -2.0308
  820MOL0     H10665  -1.878  10.958   6.237  0.7695 -1.2255  0.7409
  820MOL0     H10666  -2.102  11.214   6.246  1.9205  1.5799 -0.3175
  820MOL0     H10667  -2.034  11.071   6.225  0.5559  0.8457 -0.1636
  820MOL0     H10668  -2.225  11.025   6.371  2.2888 -2.2822 -1.6625
  820MOL0     H10669  -2.082  11.006   6.470  0.3932  0.4744 -1.6564
  820MOL0     H10670  -2.159  11.193   6.609 -1.3400 -0.1793  1.4228
  820MOL0     H10671  -2.311  11.141   6.542 -0.1830 -0.0122 -0.4870
  820MOL0     H10672  -2.154  11.375   6.433  0.7756 -0.3465  2.6657
  820MOL0     H10673  -2.282  11.293   6.350 -0.1427  0.7956  0.1324
  820MOL0     H10674  -2.330  11.417   6.629 -2.2926 -0.2710 -0.6355
  820MOL0     H10675  -2.443  11.362   6.519 -0.8951  2.4115  0.4126
  820MOL0     H10676  -2.256  11.591   6.434 -1.4377  1.8653  0.0387
  820MOL0     H10677  -2.400  11.539   6.348 -1.8575 -1.1102  0.5664
  820MOL0     H10678  -2.383  11.667   6.624 -0.6252 -2.4838  0.2422
  820MOL0     H10679  -2.533  11.605   6.554 -0.2476 -0.6133  1.4285
  820MOL0     H10680  -2.539  11.840   6.475 -0.0417 -0.0533  2.0087
  820MOL0     H10681  -2.454  11.765   6.342 -0.2762  2.7515 -0.0100
  820MOL0     H10682  -1.748  11.271   6.514 -2.4790 -0.7124  0.0767
  820MOL0     H10683  -1.543  11.150   6.552 -2.3725  1.4994  0.1590
  820MOL0     H10684  -1.195  11.001   6.466  2.3146  0.2439  1.0019
  820MOL0     H10685  -0.968  10.897   6.491  1.0004 -3.1386  1.9166
  820MOL0     H10686   0.770  10.796   6.186  3.6679  1.8309 -3.9552
  820MOL0     H10687   0.954  10.758   6.053 -1.0369  1.5352  1.0811
  820MOL0     H10688   1.418  10.578   6.142  0.6017  2.2330  0.8558
  820MOL0     H10689   1.605  10.477   6.046 -0.7914  0.4991  1.4181
  820MOL0     H10690   1.734  10.325   5.876 -0.5386  0.5887 -0.7311
  820MOL0     H10691   1.837  10.375   5.739  0.4632  0.9911 -0.5033
  820MOL0     H10692   1.814  10.517   6.018  0.7703  1.0707  0.0102
  820MOL0     H10693   1.914  10.569   5.880  2.1594  0.4786  1.0832
  820MOL0     H10694   1.909  10.311   6.062 -1.6225 -0.5950 -0.7699
  820MOL0     H10695   2.026  10.440   6.070 -0.2611  1.2422 -0.4225
  820MOL0     H10696   2.161  10.294   5.924 -0.5231 -2.1195 -1.3134
  820MOL0     H10697   2.071  10.396   5.812 -0.5540  1.1554  1.2441
  820MOL0     H10698   1.920  10.004   5.765  2.2620 -1.0427 -0.0208
  820MOL0     H10699   1.530  10.687   5.675 -1.0166  4.1624  1.1562
  820MOL0     H10700   1.330  10.778   5.774 -0.5839 -0.4268  1.0335
  821MOL0     O10701   2.892  10.232   9.003  0.4241 -0.5443  1.1119
  821MOL0     C10702   2.896  10.226   9.125 -0.3949 -0.8841  0.7979
  821MOL0     O10703   2.829  10.310   9.205  0.0583  0.1262  0.4195
  821MOL0     C10704   2.742  10.406   9.160 -1.1966  0.8205 -0.1473
  821MOL0     C10705   2.682  10.407   9.035  0.2577 -0.2837 -0.4305
  821MOL0     C10706   2.590  10.508   9.008 -0.1987 -0.4761 -0.0871
  821MOL0     C10707   2.565  10.613   9.099  0.1089  0.7201  0.7420
  821MOL0     O10708   2.478  10.713   9.068  0.5497  0.2805 -0.7382
  821MOL0     C10709   2.335  10.677   9.079  0.1900 -0.0637  0.2782
  821MOL0     C10710   2.254  10.735   8.964  0.5216 -0.1145 -0.0603
  821MOL0     C10711   2.110  10.699   8.968  0.5336 -0.3603  1.3948
  821MOL0     C10712   2.053  10.734   8.835  0.3596 -0.2521  0.5741
  821MOL0     C10713   1.911  10.682   8.809 -0.9793 -0.1291  0.8214
  821MOL0     C10714   1.804  10.740   8.904  0.6668  0.3934  0.2203
  821MOL0     C10715   1.667  10.684   8.865  0.2454 -0.4225  1.1179
  821MOL0     C10716   1.546  10.717   8.959 -0.7326  0.9240  0.2183
  821MOL0     N10717   1.414  10.671   8.903 -0.4029 -0.7573  0.3406
  821MOL0     C10718   1.298  10.751   8.896 -0.6584  0.4224 -0.4516
  821MOL0     C10719   1.203  10.667   8.833  0.5249  0.7942 -0.3301
  821MOL0     C10720   1.068  10.691   8.784  0.5564  0.1942  0.1416
  821MOL0     C10721   0.960  10.711   8.887 -0.0215  0.1777  0.2506
  821MOL0     C10722   1.003  10.836   8.972  0.0044  0.9512  0.6004
  821MOL0     C10723   0.872  10.862   9.060  0.4246  0.1241 -0.6394
  821MOL0     O10724   0.781  10.946   8.991  0.3146  0.1988  0.4546
  821MOL0     C10725   0.659  10.974   9.047  0.7324 -1.0477 -0.9240
  821MOL0     C10726   0.556  11.017   8.955 -0.0920 -0.0937  0.4780
  821MOL0     C10727   0.430  11.057   9.000  1.1627 -0.8291  0.0738
  821MOL0     C10728   0.329  11.123   8.895  0.0722 -0.3297 -0.0687
  821MOL0     C10729   0.399  11.047   9.136 -0.1969  0.5440 -0.3733
  821MOL0     C10730   0.266  11.083   9.195  0.1386 -0.3054  0.1494
  821MOL0     O10731   0.267  11.150   9.315 -0.2182  0.0452  0.3926
  821MOL0     C10732   0.166  11.252   9.345 -1.3440  0.6803 -0.2780
  821MOL0     C10733   0.130  11.259   9.483 -0.1982  0.6731  0.1041
  821MOL0     C10734   0.032  11.349   9.524 -0.0141  0.5454 -0.8809
  821MOL0     C10735  -0.039  11.417   9.433  0.0647  0.5745  0.5404
  821MOL0     O10736  -0.138  11.509   9.469 -0.3228 -0.5577 -0.0892
  821MOL0     C10737  -0.092  11.638   9.493 -0.7545 -0.9063  0.3350
  821MOL0     C10738  -0.184  11.748   9.424  0.2331  0.9413  0.3698
  821MOL0     C10739  -0.193  11.761   9.278 -0.0777 -0.0560  0.4627
  821MOL0     C10740  -0.316  11.686   9.218  0.1932 -1.0688  0.2362
  821MOL0     C10741  -0.290  11.662   9.067  0.7615  0.6808 -0.6547
  821MOL0     C10742  -0.355  11.767   8.979 -0.1163 -0.4087  0.1339
  821MOL0     C10743  -0.316  11.776   8.831 -0.1950 -0.5814  1.0074
  821MOL0     C10744  -0.373  11.650   8.756  0.1251 -0.1146 -1.2213
  821MOL0    Cl10745  -0.564  11.655   8.770  0.0966 -0.2331 -0.1370
  821MOL0     C10746  -0.005  11.414   9.298 -0.6871 -0.1562 -0.6301
  821MOL0     C10747   0.095  11.328   9.248 -0.3228 -0.5084 -0.0809
  821MOL0     O10748   0.170  11.060   9.128 -0.7154  0.5639  0.3098
  821MOL0     C10749   0.502  11.009   9.224 -0.0229  0.1191 -0.6475
  821MOL0     C10750   0.623  10.972   9.180 -0.1355 -0.0130 -0.2769
  821MOL0     N10751   1.254  10.542   8.825 -0.1937 -0.1510 -0.6883
  821MOL0     N10752   1.380  10.542   8.875  0.4457 -0.1931  0.6863
  821MOL0     C10753   2.636  10.617   9.218  0.8469 -0.6206  0.5038
  821MOL0     C10754   2.712  10.510   9.252 -0.6424  0.7477 -0.3179
  821MOL0     C10755   2.974  10.125   9.190  0.0871 -0.0330  0.3325
  821MOL0     C10756   3.063  10.044   9.115 -0.1387  1.1933  0.2381
  821MOL0     C10757   3.152   9.942   9.181 -0.4996 -0.8021  0.9037
  821MOL0     C10758   3.153   9.937   9.319 -0.3788  0.7503 -0.7760
  821MOL0     O10759   3.219   9.845   9.398  0.3384 -0.0280  0.3557
  821MOL0     C10760   3.352   9.819   9.357  0.9140 -0.3022  0.6153
  821MOL0     C10761   3.420   9.741   9.454  0.3464  0.1526 -0.6633
  821MOL0     C10762   3.550   9.664   9.410  0.8129 -0.7135  0.7816
  821MOL0     C10763   3.615   9.581   9.519  1.3367 -0.1403 -0.0915
  821MOL0     C10764   3.737   9.500   9.491  0.4317 -0.0539  0.0633
  821MOL0     C10765   3.846   9.437   9.482  0.8053 -1.2318  0.4137
  821MOL0     C10766   3.061  10.014   9.389 -0.0253  0.0614  0.7078
  821MOL0     C10767   2.974  10.108   9.330 -0.9176 -0.0615  0.2219
  821MOL0     H10768   2.691  10.329   8.960  3.6118 -0.2303 -0.2613
  821MOL0     H10769   2.537  10.509   8.913  1.6754 -1.5943 -1.2222
  821MOL0     H10770   2.321  10.569   9.074 -2.0185  0.2089 -0.7872
  821MOL0     H10771   2.293  10.722   9.170 -0.0357 -0.7801  0.5374
  821MOL0     H10772   2.272  10.842   8.959  0.4874 -0.1366 -0.8574
  821MOL0     H10773   2.299  10.700   8.870 -2.0267 -1.1189 -1.0151
  821MOL0     H10774   2.084  10.594   8.986 -1.2518 -0.4456 -1.2308
  821MOL0     H10775   2.059  10.749   9.051 -1.6249  1.3132 -0.7893
  821MOL0     H10776   2.048  10.843   8.824  1.6501 -0.4322 -4.4833
  821MOL0     H10777   2.119  10.697   8.756 -1.6696 -3.7103  0.2574
  821MOL0     H10778   1.871  10.715   8.713  1.2768 -0.6236 -0.3501
  821MOL0     H10779   1.909  10.573   8.808  1.0065 -0.2702 -2.7849
  821MOL0     H10780   1.831  10.703   9.004 -1.7018  0.3074  0.8731
  821MOL0     H10781   1.802  10.848   8.892 -2.1619  0.2994 -0.6900
  821MOL0     H10782   1.650  10.711   8.760 -3.3215  0.0840  1.6795
  821MOL0     H10783   1.681  10.576   8.866 -0.4898 -0.6589 -2.2018
  821MOL0     H10784   1.541  10.826   8.967  1.1097  0.9826  1.0559
  821MOL0     H10785   1.569  10.670   9.055 -0.9699 -0.4751 -0.3852
  821MOL0     H10786   1.298  10.859   8.907  2.3575  0.6471 -1.7191
  821MOL0     H10787   1.070  10.781   8.722  0.4707 -1.7893 -2.9525
  821MOL0     H10788   1.032  10.607   8.724  1.1136  1.2410 -1.7603
  821MOL0     H10789   0.959  10.619   8.945  0.1314  1.5220  2.5011
  821MOL0     H10790   0.862  10.728   8.842 -1.0688  0.0533  2.3598
  821MOL0     H10791   1.028  10.918   8.904  1.0779 -0.9148 -1.3939
  821MOL0     H10792   1.085  10.824   9.043 -0.2281  0.7506  0.8411
  821MOL0     H10793   0.894  10.926   9.147 -3.0430  2.6143 -1.3529
  821MOL0     H10794   0.838  10.764   9.094  3.6882  0.1933  3.7377
  821MOL0     H10795   0.586  11.018   8.851  0.8791  0.7564  0.7593
  821MOL0     H10796   0.396  11.181   8.830 -0.4982  0.1297 -0.2552
  821MOL0     H10797   0.287  11.042   8.836  0.7967 -1.2878  0.7057
  821MOL0     H10798   0.237  11.172   8.929 -0.7900 -0.0947 -2.5028
  821MOL0     H10799   0.172  11.188   9.554 -0.1452 -0.8940 -1.4384
  821MOL0     H10800  -0.004  11.358   9.626 -0.1602 -1.3236 -0.7372
  821MOL0     H10801  -0.094  11.642   9.602  0.8710 -3.5995  0.5398
  821MOL0     H10802   0.010  11.657   9.458 -1.4447 -1.4555 -2.2183
  821MOL0     H10803  -0.287  11.737   9.460  0.8376 -3.4237  1.3218
  821MOL0     H10804  -0.148  11.841   9.469 -0.9935  1.7174 -0.2058
  821MOL0     H10805  -0.101  11.721   9.236 -0.2703  0.6469 -0.6485
  821MOL0     H10806  -0.200  11.868   9.259  1.6007  0.3034  1.6194
  821MOL0     H10807  -0.332  11.591   9.269  1.5645 -1.7813 -0.5780
  821MOL0     H10808  -0.409  11.743   9.231  2.3995  2.7747  0.8887
  821MOL0     H10809  -0.337  11.566   9.044 -0.6501  1.3209 -0.5530
  821MOL0     H10810  -0.184  11.662   9.040  0.9859  2.8577  0.0379
  821MOL0     H10811  -0.463  11.755   8.984  0.0439 -2.9169 -0.8643
  821MOL0     H10812  -0.336  11.861   9.033  0.8118 -1.0445  0.9479
  821MOL0     H10813  -0.207  11.783   8.823 -0.3097  0.4777  0.1491
  821MOL0     H10814  -0.358  11.869   8.791 -0.3263 -1.7325 -1.7795
  821MOL0     H10815  -0.338  11.559   8.805 -4.1340 -1.2513  0.1134
  821MOL0     H10816  -0.341  11.656   8.651  2.3075 -1.0866 -0.6751
  821MOL0     H10817  -0.063  11.470   9.225 -2.0243 -1.3401 -0.5155
  821MOL0     H10818   0.115  11.332   9.142  1.1873 -0.4403  0.1897
  821MOL0     H10819   0.485  10.992   9.330 -0.0545  0.2757 -0.6279
  821MOL0     H10820   0.692  10.926   9.250 -1.0764 -0.1496  0.5842
  821MOL0     H10821   2.622  10.699   9.288  5.2041  0.4733  0.3858
  821MOL0     H10822   2.763  10.522   9.347 -0.6263 -0.6829 -0.1290
  821MOL0     H10823   3.060  10.062   9.008 -1.2564 -3.8282 -0.8378
  821MOL0     H10824   3.212   9.876   9.120 -1.1551  2.2574 -3.6007
  821MOL0     H10825   3.348   9.767   9.261  0.1257  0.4020  0.2541
  821MOL0     H10826   3.403   9.916   9.346  1.3839 -0.6011  0.0956
  821MOL0     H10827   3.350   9.665   9.490  1.6198 -1.2113 -0.9822
  821MOL0     H10828   3.450   9.800   9.541 -0.8831  0.5792 -0.5104
  821MOL0     H10829   3.618   9.739   9.369 -2.2684  1.1453 -1.3724
  821MOL0     H10830   3.513   9.595   9.334 -2.2844  0.9354  0.5735
  821MOL0     H10831   3.541   9.515   9.565  0.5650  1.0497  0.4455
  821MOL0     H10832   3.646   9.647   9.601  3.8213 -1.6478  0.2827
  821MOL0     H10833   3.928   9.378   9.447 -0.2819 -2.0803 -0.8483
  821MOL0     H10834   3.054   9.996   9.496  0.0114 -2.2912  0.3689
  821MOL0     H10835   2.904  10.153   9.400 -0.4464  0.5502  0.3123
  822MOL0     O10836   6.971   5.633   9.265 -0.0536 -0.3898 -0.1645
  822MOL0     C10837   7.047   5.713   9.212 -0.2756  0.3609  0.5568
  822MOL0     O10838   7.014   5.809   9.119 -0.2789  0.0116 -0.7583
  822MOL0     C10839   6.884   5.833   9.087  0.2547  0.3717  0.2104
  822MOL0     C10840   6.874   5.935   8.992  1.2204  0.5506  0.9595
  822MOL0     C10841   6.750   6.001   8.955 -0.5160  0.3852 -0.4516
  822MOL0     C10842   6.629   5.943   8.996  0.1769 -0.5611 -0.2117
  822MOL0     O10843   6.503   5.997   8.960 -0.6118  0.2926 -0.3355
  822MOL0     C10844   6.500   6.114   8.873  0.0271 -0.4538 -0.3210
  822MOL0     C10845   6.351   6.157   8.847 -0.4704  0.9396  1.1447
  822MOL0     C10846   6.343   6.258   8.732  0.5047 -0.3933 -0.6465
  822MOL0     C10847   6.203   6.303   8.716  0.2664 -0.0507  0.0067
  822MOL0     C10848   6.180   6.404   8.613 -0.7732 -0.3516 -0.2035
  822MOL0     C10849   6.037   6.469   8.634 -0.8057 -0.2390 -0.1742
  822MOL0     C10850   6.011   6.581   8.528  0.0587 -0.1857 -0.7009
  822MOL0     C10851   5.878   6.662   8.544 -0.4218  1.0703 -0.4181
  822MOL0     N10852   5.778   6.582   8.613 -0.4854  0.0747  0.7001
  822MOL0     C10853   5.658   6.525   8.561  0.5433 -1.0234 -0.1263
  822MOL0     C10854   5.600   6.475   8.672 -0.5214 -0.0459  0.1727
  822MOL0     C10855   5.475   6.394   8.682  0.4579 -0.5501 -0.1034
  822MOL0     C10856   5.357   6.479   8.627  0.3047 -0.2414  0.0269
  822MOL0     C10857   5.230   6.396   8.592 -0.8921 -0.2885  0.4795
  822MOL0     C10858   5.121   6.485   8.546  0.8679 -0.9532  0.0546
  822MOL0     O10859   5.148   6.490   8.399 -0.8025 -0.1548 -0.0149
  822MOL0     C10860   5.052   6.547   8.318 -0.2020 -0.3910 -0.0739
  822MOL0     C10861   5.071   6.529   8.173 -0.0855  0.0901 -0.9380
  822MOL0     C10862   4.980   6.599   8.091  1.1688  0.2570  0.1897
  822MOL0     C10863   4.989   6.573   7.939  0.3786  0.5566  0.1169
  822MOL0     C10864   4.871   6.674   8.139  0.2484 -0.0778  0.1378
  822MOL0     C10865   4.781   6.752   8.054  0.2412  0.0321 -0.3788
  822MOL0     O10866   4.837   6.840   7.961 -0.1114 -0.4467  0.1247
  822MOL0     C10867   4.757   6.919   7.873 -0.5609 -0.1857 -0.3885
  822MOL0     C10868   4.651   6.860   7.799 -0.1649 -0.1016  0.5170
  822MOL0     C10869   4.584   6.938   7.706  0.5948  0.3972  0.0368
  822MOL0     C10870   4.614   7.074   7.696 -0.3224  0.1618  0.1486
  822MOL0     O10871   4.545   7.159   7.612 -0.1689  0.4549 -0.5696
  822MOL0     C10872   4.401   7.141   7.589  0.3635  0.5947 -0.1849
  822MOL0     C10873   4.331   7.283   7.582 -0.1175 -0.4646  0.7041
  822MOL0     C10874   4.412   7.384   7.500  0.1961  0.0098 -0.9508
  822MOL0     C10875   4.350   7.517   7.507  0.5670  0.4899  0.6962
  822MOL0     C10876   4.402   7.602   7.387  0.7081 -0.5969 -1.1533
  822MOL0     C10877   4.359   7.749   7.390 -0.9335  0.5661 -0.9629
  822MOL0     C10878   4.215   7.781   7.439  0.3595 -0.5321 -0.1031
  822MOL0     C10879   4.095   7.744   7.349  0.2864  0.1074  0.4462
  822MOL0    Cl10880   3.936   7.775   7.416  0.3163  0.0887 -0.2967
  822MOL0     C10881   4.728   7.126   7.765  0.4393 -0.2003 -1.1925
  822MOL0     C10882   4.796   7.047   7.860  0.0129  0.1815 -0.5177
  822MOL0     O10883   4.655   6.731   8.064 -0.1243  0.7880 -0.1834
  822MOL0     C10884   4.840   6.670   8.270  0.2241  0.2762 -0.6053
  822MOL0     C10885   4.938   6.618   8.359 -0.7496  0.8093 -0.2684
  822MOL0     N10886   5.682   6.519   8.785 -0.5058  0.2967  0.3332
  822MOL0     N10887   5.788   6.585   8.745  0.2044 -0.1860 -1.0900
  822MOL0     C10888   6.641   5.831   9.080  0.3890 -0.1164 -0.7493
  822MOL0     C10889   6.762   5.776   9.131  0.0693 -0.7254 -0.7220
  822MOL0     C10890   7.185   5.696   9.237 -0.0706 -0.4977 -0.1426
  822MOL0     C10891   7.229   5.608   9.334  0.7088 -0.1804  0.2089
  822MOL0     C10892   7.365   5.579   9.352  0.4380  0.1049  0.2821
  822MOL0     C10893   7.463   5.638   9.267 -0.1600 -0.3946 -0.3485
  822MOL0     O10894   7.594   5.625   9.283 -0.7245 -0.2924 -0.0120
  822MOL0     C10895   7.638   5.589   9.409  0.3471 -0.7935  0.0227
  822MOL0     C10896   7.775   5.649   9.409 -0.7985  0.0357 -0.6492
  822MOL0     C10897   7.839   5.593   9.536 -0.6857  0.3023  1.0681
  822MOL0     C10898   7.979   5.637   9.565  0.9240  0.4299 -0.6815
  822MOL0     C10899   7.985   5.775   9.531 -0.0694 -1.5923 -0.3279
  822MOL0     C10900   7.995   5.891   9.483 -1.0175  0.4108 -0.4120
  822MOL0     C10901   7.420   5.717   9.165 -0.1381  0.3793  0.6924
  822MOL0     C10902   7.283   5.748   9.154  0.0610  0.5147  0.4960
  822MOL0     H10903   6.957   5.989   8.946  0.6027  0.1553 -0.7070
  822MOL0     H10904   6.756   6.096   8.902 -1.4263  1.9111  1.9995
  822MOL0     H10905   6.553   6.206   8.902 -1.1699  0.3240 -0.5494
  822MOL0     H10906   6.546   6.088   8.777 -3.5780  1.3329 -2.7795
  822MOL0     H10907   6.303   6.067   8.807  0.0966  1.1738 -0.1329
  822MOL0     H10908   6.310   6.194   8.941 -1.2644 -1.0085  1.6090
  822MOL0     H10909   6.413   6.339   8.754 -1.4574  1.3299 -0.3175
  822MOL0     H10910   6.373   6.218   8.636 -1.2929 -0.4743 -1.2210
  822MOL0     H10911   6.137   6.217   8.699 -0.9227  0.2265  2.6797
  822MOL0     H10912   6.175   6.349   8.811 -0.5573 -2.7468  1.1649
  822MOL0     H10913   6.252   6.486   8.620  0.1405 -1.0382 -1.1272
  822MOL0     H10914   6.183   6.364   8.511 -3.2472  0.7743 -0.7898
  822MOL0     H10915   5.959   6.395   8.614 -1.5914  0.3073  0.7869
  822MOL0     H10916   6.029   6.509   8.735 -0.0813 -0.8679  0.1394
  822MOL0     H10917   6.094   6.652   8.520  0.8515 -1.2460 -2.1878
  822MOL0     H10918   6.019   6.546   8.425  1.2292  2.9563 -1.8143
  822MOL0     H10919   5.853   6.704   8.446 -0.0735  0.0323 -0.9618
  822MOL0     H10920   5.906   6.749   8.605  3.5789 -1.2607  1.4752
  822MOL0     H10921   5.628   6.507   8.458  1.8531 -1.6467 -0.4090
  822MOL0     H10922   5.469   6.304   8.620  0.1612  1.3780 -3.0940
  822MOL0     H10923   5.454   6.379   8.788 -0.7523 -1.7848 -0.4824
  822MOL0     H10924   5.389   6.532   8.537 -0.7700 -0.4806 -0.5042
  822MOL0     H10925   5.331   6.553   8.703  1.9557  0.7526 -0.3070
  822MOL0     H10926   5.208   6.328   8.675 -0.6278 -0.7656  0.1677
  822MOL0     H10927   5.254   6.311   8.527 -1.2212 -0.0169 -0.0007
  822MOL0     H10928   5.129   6.582   8.595  0.1639 -1.4833  1.2803
  822MOL0     H10929   5.026   6.439   8.577  0.1016  0.7382  0.3008
  822MOL0     H10930   5.153   6.465   8.142  0.7164  0.2501  0.7242
  822MOL0     H10931   5.042   6.483   7.906 -2.0683 -0.9273 -0.0212
  822MOL0     H10932   4.900   6.569   7.875  1.2698 -4.6125 -1.2883
  822MOL0     H10933   5.047   6.654   7.895 -0.7856 -1.3070 -5.8253
  822MOL0     H10934   4.620   6.757   7.803 -1.6239  0.3470  1.5767
  822MOL0     H10935   4.500   6.890   7.657 -0.6810  2.4980  0.0253
  822MOL0     H10936   4.376   7.111   7.487  0.7824  0.9226 -0.3864
  822MOL0     H10937   4.349   7.084   7.667  3.1153 -1.5250  0.2456
  822MOL0     H10938   4.229   7.276   7.545  0.8132 -0.0155 -2.1215
  822MOL0     H10939   4.328   7.316   7.687 -2.9100  1.5946  0.0754
  822MOL0     H10940   4.421   7.336   7.402  2.4393 -1.3235 -0.1613
  822MOL0     H10941   4.507   7.389   7.554 -1.8361 -0.9402  3.1003
  822MOL0     H10942   4.241   7.507   7.513  0.6511  0.3616  2.2233
  822MOL0     H10943   4.375   7.565   7.602 -1.6318  1.6274  0.7593
  822MOL0     H10944   4.367   7.546   7.300  2.0398 -3.6939  0.1672
  822MOL0     H10945   4.511   7.590   7.385  0.8393  0.0244  0.5078
  822MOL0     H10946   4.427   7.804   7.456 -0.7218  1.6552 -2.0504
  822MOL0     H10947   4.375   7.783   7.287  1.9362 -0.5613 -0.9846
  822MOL0     H10948   4.216   7.889   7.456  2.6753 -0.9607  3.6519
  822MOL0     H10949   4.195   7.738   7.538  0.2653 -1.1498 -0.3835
  822MOL0     H10950   4.100   7.635   7.335 -4.6165 -0.3822  0.8691
  822MOL0     H10951   4.095   7.778   7.245 -1.3408 -0.9159  0.0634
  822MOL0     H10952   4.760   7.227   7.742 -0.3555  1.0693  2.6203
  822MOL0     H10953   4.870   7.086   7.929 -1.3540 -0.3619  1.3396
  822MOL0     H10954   4.757   6.734   8.300  1.9577  2.9747 -1.1597
  822MOL0     H10955   4.922   6.625   8.466  0.9522  1.4653 -0.0213
  822MOL0     H10956   6.547   5.779   9.098  0.6613 -0.2018  0.5109
  822MOL0     H10957   6.758   5.686   9.192 -4.5134 -0.8827 -0.9531
  822MOL0     H10958   7.151   5.567   9.397 -1.1517  2.7791  0.0543
  822MOL0     H10959   7.409   5.511   9.425  3.1932  1.9181  0.4429
  822MOL0     H10960   7.590   5.646   9.489 -0.8997 -0.8080 -0.6858
  822MOL0     H10961   7.636   5.480   9.425  2.0562 -1.0273 -1.1950
  822MOL0     H10962   7.779   5.759   9.409  0.3752  0.0251  0.9005
  822MOL0     H10963   7.832   5.631   9.318 -0.2995  3.4996 -1.1511
  822MOL0     H10964   7.845   5.484   9.522 -0.2310  0.2582  1.5534
  822MOL0     H10965   7.775   5.618   9.621 -0.9273  1.8405  0.4508
  822MOL0     H10966   8.045   5.580   9.499 -1.6782 -0.5581 -2.5740
  822MOL0     H10967   8.001   5.611   9.669 -1.4147 -0.2975 -0.3272
  822MOL0     H10968   8.008   5.981   9.427 -2.2203 -0.8822 -2.9392
  822MOL0     H10969   7.490   5.766   9.098 -0.2561 -1.4021 -0.8244
  822MOL0     H10970   7.261   5.810   9.068  0.4761 -2.1660 -1.7212
  823MOL0     O10971   4.408   0.700   5.794 -0.6505  0.3136  0.2481
  823MOL0     C10972   4.423   0.599   5.726  1.0772 -0.0426 -0.0621
  823MOL0     O10973   4.361   0.474   5.755  0.1330 -0.9422 -0.5171
  823MOL0     C10974   4.250   0.464   5.845 -0.2657 -0.0194 -0.4345
  823MOL0     C10975   4.130   0.548   5.836 -0.7998  0.2564  0.4724
  823MOL0     C10976   4.020   0.501   5.901  0.3945  0.7261 -0.6677
  823MOL0     C10977   4.023   0.385   5.987 -0.2882  0.1519  0.1027
  823MOL0     O10978   3.919   0.337   6.059 -0.3466 -0.1164 -0.0443
  823MOL0     C10979   3.801   0.420   6.067  0.5063 -0.3905  0.2585
  823MOL0     C10980   3.705   0.366   6.170 -0.0496  0.3006  1.6081
  823MOL0     C10981   3.635   0.240   6.118  0.2180 -0.6982 -0.4510
  823MOL0     C10982   3.520   0.214   6.224 -0.1647 -0.0824  0.4819
  823MOL0     C10983   3.402   0.115   6.177  0.1685 -0.1011  0.2423
  823MOL0     C10984   3.301   0.127   6.296  1.0906 -0.8718 -0.5476
  823MOL0     C10985   3.167   0.049   6.286  1.2646  0.0554 -0.2901
  823MOL0     C10986   3.060   0.121   6.202  0.1156 -0.6423 -0.5235
  823MOL0     N10987   2.941   0.042   6.172 -0.4241  0.0855 -0.3417
  823MOL0     C10988   2.886  -0.061   6.244  0.4163 -0.2542 -0.4268
  823MOL0     C10989   2.804  -0.121   6.153  0.0221 -0.1789  0.0384
  823MOL0     C10990   2.716  -0.240   6.183 -0.6743 -0.5119 -0.1508
  823MOL0     C10991   2.606  -0.253   6.075  0.4830 -0.1457  0.7054
  823MOL0     C10992   2.506  -0.132   6.072  0.2269  0.9332  1.1000
  823MOL0     C10993   2.446  -0.099   6.214  0.3402  0.4468 -0.1393
  823MOL0     O10994   2.403  -0.220   6.280 -0.1278 -0.9284 -0.3013
  823MOL0     C10995   2.282  -0.281   6.270 -0.4198 -0.0079 -0.0444
  823MOL0     C10996   2.174  -0.233   6.188 -0.3421 -0.2359 -0.5452
  823MOL0     C10997   2.047  -0.289   6.193  0.1506 -0.5168  0.3770
  823MOL0     C10998   1.935  -0.229   6.110  0.0732 -0.3801 -0.5854
  823MOL0     C10999   2.031  -0.401   6.280 -0.5907  0.0806  0.4328
  823MOL0     C11000   1.905  -0.480   6.298 -0.8277 -0.5611  0.6619
  823MOL0     O11001   1.897  -0.575   6.405 -0.1188 -0.0729  0.6135
  823MOL0     C11002   1.788  -0.654   6.404  0.3249 -0.0180  0.7131
  823MOL0     C11003   1.803  -0.784   6.353 -0.0751  0.1469  0.0020
  823MOL0     C11004   1.693  -0.869   6.348 -0.1248  0.1673 -0.0949
  823MOL0     C11005   1.562  -0.817   6.382  0.1688  0.5525  0.1217
  823MOL0     O11006   1.454  -0.896   6.378 -0.3557 -0.7973  0.2116
  823MOL0     C11007   1.466  -1.027   6.321 -0.7388  0.8201  0.2150
  823MOL0     C11008   1.335  -1.105   6.328  1.1855  0.3452 -0.4058
  823MOL0     C11009   1.284  -1.107   6.473  0.3884  0.5321 -0.7598
  823MOL0     C11010   1.350  -1.221   6.546  0.4470 -0.6142 -0.2856
  823MOL0     C11011   1.301  -1.240   6.693 -0.0436 -0.3628 -0.1308
  823MOL0     C11012   1.366  -1.365   6.754  0.2780 -0.3565  0.2022
  823MOL0     C11013   1.309  -1.402   6.882  1.2994 -0.5785 -0.4010
  823MOL0     C11014   1.376  -1.526   6.938  0.9194  0.9283 -0.1298
  823MOL0    Cl11015   1.529  -1.508   7.033  0.1981  0.3672 -0.3722
  823MOL0     C11016   1.546  -0.683   6.418  0.4947 -0.6810  0.4498
  823MOL0     C11017   1.656  -0.595   6.432 -0.3688 -0.3854  0.4116
  823MOL0     O11018   1.819  -0.452   6.212 -0.0218  0.3823  0.0394
  823MOL0     C11019   2.141  -0.453   6.356 -0.5484  0.0011 -0.0973
  823MOL0     C11020   2.262  -0.389   6.350  0.1008  0.2823  0.1352
  823MOL0     N11021   2.808  -0.058   6.029  0.2028 -0.3249  0.5621
  823MOL0     N11022   2.896   0.040   6.045 -0.0395 -0.0084 -0.2708
  823MOL0     C11023   4.142   0.309   5.988 -0.1984  0.3514 -0.0528
  823MOL0     C11024   4.252   0.344   5.920 -0.2899 -0.3172  0.0680
  823MOL0     C11025   4.479   0.617   5.588  0.6141 -0.4013  0.7188
  823MOL0     C11026   4.514   0.747   5.546  1.1099 -0.1124  0.6644
  823MOL0     C11027   4.594   0.765   5.442  0.5530  0.9296  0.3433
  823MOL0     C11028   4.660   0.655   5.375 -0.1984  0.9284 -0.4285
  823MOL0     O11029   4.751   0.679   5.276  0.0960  1.2536 -0.2084
  823MOL0     C11030   4.828   0.568   5.232 -0.4585  0.2651  0.5076
  823MOL0     C11031   4.917   0.620   5.125 -0.3985 -0.6834 -0.7184
  823MOL0     C11032   5.015   0.506   5.067 -0.2437 -0.5911 -0.1072
  823MOL0     C11033   5.160   0.563   5.033  0.1114  0.4911 -0.3834
  823MOL0     C11034   5.243   0.463   4.948  0.1604 -0.4764  0.5059
  823MOL0     C11035   5.299   0.384   4.878  0.4539  0.5926 -0.6578
  823MOL0     C11036   4.622   0.526   5.418 -0.3149  0.4161  0.1932
  823MOL0     C11037   4.524   0.501   5.522 -1.0514 -0.4344 -0.2727
  823MOL0     H11038   4.122   0.642   5.783  0.0632  1.7548  2.8385
  823MOL0     H11039   3.936   0.569   5.890  1.2348  1.6468 -1.5690
  823MOL0     H11040   3.842   0.517   6.099  1.2499 -0.8392  0.6855
  823MOL0     H11041   3.748   0.434   5.972  3.1279  0.2946 -1.2036
  823MOL0     H11042   3.759   0.345   6.263  1.7290  0.8378  0.7459
  823MOL0     H11043   3.635   0.446   6.194 -0.0444 -0.2719  3.6815
  823MOL0     H11044   3.591   0.276   6.024 -2.6093  3.3219  2.0949
  823MOL0     H11045   3.699   0.152   6.114  0.6885 -0.5546  2.1308
  823MOL0     H11046   3.557   0.177   6.320 -0.6209 -1.2308  0.2294
  823MOL0     H11047   3.484   0.312   6.257  0.0062  0.3483 -0.5583
  823MOL0     H11048   3.348   0.148   6.087  0.2436 -1.6145 -0.3984
  823MOL0     H11049   3.434   0.010   6.176 -0.1479 -0.2080 -0.9405
  823MOL0     H11050   3.348   0.098   6.390 -0.2246 -2.0289 -0.2200
  823MOL0     H11051   3.277   0.234   6.298  2.2985 -0.5901  1.4243
  823MOL0     H11052   3.184  -0.051   6.244  1.7673  0.6612 -1.5824
  823MOL0     H11053   3.135   0.048   6.391  0.9258  1.4324 -0.3645
  823MOL0     H11054   3.112   0.157   6.112  1.5262  0.7232  0.7622
  823MOL0     H11055   3.019   0.207   6.255 -1.8669  0.8092 -4.0353
  823MOL0     H11056   2.909  -0.082   6.348  2.6451 -0.3100 -0.8964
  823MOL0     H11057   2.776  -0.332   6.186  0.4559  0.0211 -2.8714
  823MOL0     H11058   2.667  -0.221   6.279 -0.9937  2.3938 -0.8114
  823MOL0     H11059   2.551  -0.347   6.084 -1.0483  0.6355 -0.0466
  823MOL0     H11060   2.645  -0.267   5.974  1.7338 -2.5916  1.4526
  823MOL0     H11061   2.438  -0.171   5.995  3.4984 -2.7057 -0.2700
  823MOL0     H11062   2.540  -0.041   6.022 -0.1535  0.1941 -0.5962
  823MOL0     H11063   2.372  -0.020   6.199  2.3092  2.0413 -2.0401
  823MOL0     H11064   2.524  -0.054   6.276  1.7792  0.0175 -1.5739
  823MOL0     H11065   2.188  -0.148   6.122  1.2203  0.5308  0.6882
  823MOL0     H11066   1.910  -0.283   6.019  1.2734 -0.3531 -0.9503
  823MOL0     H11067   1.844  -0.217   6.170  0.4752 -1.3176  0.2389
  823MOL0     H11068   1.956  -0.123   6.092  0.8677 -0.6048 -1.0043
  823MOL0     H11069   1.896  -0.821   6.310  0.6479 -1.3573  2.6523
  823MOL0     H11070   1.706  -0.972   6.317  0.8222  0.9454 -2.5140
  823MOL0     H11071   1.498  -1.025   6.216 -4.0273  2.2435 -0.9045
  823MOL0     H11072   1.534  -1.085   6.383 -1.2531 -0.8062 -0.6817
  823MOL0     H11073   1.262  -1.051   6.267 -0.0875 -0.8716 -0.0110
  823MOL0     H11074   1.337  -1.206   6.286  2.2973 -0.2560  1.0197
  823MOL0     H11075   1.175  -1.118   6.471  0.0654  1.4446  3.0111
  823MOL0     H11076   1.303  -1.011   6.522  1.8454  0.4630 -1.1413
  823MOL0     H11077   1.328  -1.319   6.503  2.9791 -2.4388  2.1713
  823MOL0     H11078   1.457  -1.197   6.543  0.0153  1.8155  0.8135
  823MOL0     H11079   1.192  -1.246   6.697 -0.0132 -0.4912  0.6901
  823MOL0     H11080   1.335  -1.158   6.756 -0.9940  1.2355 -1.6089
  823MOL0     H11081   1.355  -1.455   6.694  1.5442 -0.4077  0.0097
  823MOL0     H11082   1.473  -1.352   6.775  0.8260  0.0872 -2.5250
  823MOL0     H11083   1.204  -1.424   6.862  0.8556  2.8428 -2.6783
  823MOL0     H11084   1.308  -1.313   6.946 -0.5821  0.2645 -1.5254
  823MOL0     H11085   1.407  -1.587   6.853 -0.3314  0.9315 -0.6203
  823MOL0     H11086   1.306  -1.592   6.990  3.0819 -2.0262 -0.7423
  823MOL0     H11087   1.447  -0.652   6.451  0.3309 -1.6206  0.8928
  823MOL0     H11088   1.645  -0.490   6.459 -1.6432 -0.2278 -0.6219
  823MOL0     H11089   2.129  -0.533   6.427 -3.5291  1.7297  1.5558
  823MOL0     H11090   2.346  -0.418   6.413  0.2045  0.9842  0.3287
  823MOL0     H11091   4.126   0.213   6.035  0.3394  0.4127  0.2642
  823MOL0     H11092   4.341   0.283   5.906  0.0482  0.1026  0.3495
  823MOL0     H11093   4.470   0.838   5.586 -1.6405 -2.3561  3.1443
  823MOL0     H11094   4.616   0.863   5.401 -0.0306  0.2672 -1.6773
  823MOL0     H11095   4.892   0.540   5.317 -0.0655  2.1942  0.8966
  823MOL0     H11096   4.773   0.480   5.197  0.2364 -1.8220  4.1234
  823MOL0     H11097   4.989   0.688   5.171  0.2512 -0.5476 -1.8932
  823MOL0     H11098   4.853   0.673   5.053  1.3247  1.4548 -0.7748
  823MOL0     H11099   4.962   0.462   4.981 -1.1326  1.1553 -0.4881
  823MOL0     H11100   5.038   0.437   5.149 -1.4698  1.3140  1.9346
  823MOL0     H11101   5.209   0.590   5.126 -1.9555  2.0526  0.3270
  823MOL0     H11102   5.163   0.656   4.975 -1.0575  0.0518 -1.1994
  823MOL0     H11103   5.332   0.306   4.812 -1.0006 -0.9038  0.3199
  823MOL0     H11104   4.673   0.440   5.376  1.9287  1.3342  0.9047
  823MOL0     H11105   4.500   0.403   5.561 -2.6230 -0.6442 -1.6406
  824MOL0     O11106   1.925   6.668   5.491 -0.1565  0.0360  0.0335
  824MOL0     C11107   1.969   6.616   5.386  0.2474 -0.9209  0.3203
  824MOL0     O11108   1.900   6.563   5.270  0.0617  0.1096 -0.1509
  824MOL0     C11109   1.767   6.585   5.284  0.1238  0.3047 -0.9294
  824MOL0     C11110   1.686   6.485   5.344  0.0837 -0.4870  0.4020
  824MOL0     C11111   1.551   6.491   5.341 -0.0977 -0.5990 -0.0207
  824MOL0     C11112   1.484   6.595   5.271 -0.4275  0.4570  0.0265
  824MOL0     O11113   1.347   6.596   5.267 -0.0687  0.0919 -1.0457
  824MOL0     C11114   1.280   6.688   5.179  0.5664 -0.7371  0.0812
  824MOL0     C11115   1.128   6.652   5.176 -0.5569  0.2558 -0.0441
  824MOL0     C11116   1.093   6.509   5.134 -0.3798 -0.1212  0.1171
  824MOL0     C11117   0.941   6.488   5.157  0.8712 -0.3303  0.9425
  824MOL0     C11118   0.892   6.473   5.296 -0.1869 -0.2858  0.0294
  824MOL0     C11119   0.747   6.489   5.311 -0.5540 -0.2142  0.1875
  824MOL0     C11120   0.653   6.386   5.264 -0.3418 -0.3269  0.2734
  824MOL0     C11121   0.666   6.339   5.118  0.7206  0.1634  0.2326
  824MOL0     N11122   0.531   6.284   5.072  0.5101 -0.3195 -0.0687
  824MOL0     C11123   0.487   6.163   5.116 -0.1892 -0.0669  0.4238
  824MOL0     C11124   0.359   6.149   5.059  0.3337 -0.0633 -0.5979
  824MOL0     C11125   0.267   6.036   5.102 -0.0926  0.0695 -0.0251
  824MOL0     C11126   0.119   6.078   5.090  0.2343 -0.5384 -0.7653
  824MOL0     C11127   0.035   6.005   5.200 -0.1657  0.3331 -0.3420
  824MOL0     C11128  -0.115   6.030   5.192 -0.1669 -0.3725 -0.6519
  824MOL0     O11129  -0.181   6.029   5.320  0.2191 -0.6863 -0.7301
  824MOL0     C11130  -0.310   6.070   5.319  0.4104  0.8148  0.2664
  824MOL0     C11131  -0.378   6.078   5.432  0.3520 -0.6058  0.4472
  824MOL0     C11132  -0.497   6.144   5.454  0.6683  0.7618  0.6295
  824MOL0     C11133  -0.549   6.175   5.585 -0.7259 -0.1688  0.0634
  824MOL0     C11134  -0.558   6.199   5.333  0.0642 -0.5861 -0.3797
  824MOL0     C11135  -0.680   6.287   5.332  0.6805 -0.0562 -1.0288
  824MOL0     O11136  -0.775   6.279   5.426 -0.0434  0.8443 -0.2777
  824MOL0     C11137  -0.868   6.388   5.437 -0.6268  0.4366 -0.5519
  824MOL0     C11138  -0.939   6.428   5.330  0.3546  0.1998 -0.3929
  824MOL0     C11139  -1.029   6.543   5.347 -0.0269  0.3932  0.6098
  824MOL0     C11140  -1.049   6.604   5.468 -0.2688 -0.6075 -0.8231
  824MOL0     O11141  -1.126   6.716   5.500 -0.3973 -0.6672  0.0718
  824MOL0     C11142  -1.231   6.757   5.412  0.4815  0.7147  0.7689
  824MOL0     C11143  -1.366   6.701   5.461  0.1202 -1.0533  0.1139
  824MOL0     C11144  -1.454   6.678   5.334  0.1060 -0.1284 -0.0513
  824MOL0     C11145  -1.587   6.632   5.382 -0.2405  0.1401 -0.1234
  824MOL0     C11146  -1.684   6.619   5.269 -0.6220  0.6919 -0.1637
  824MOL0     C11147  -1.823   6.599   5.326 -0.1858 -0.7492 -1.0499
  824MOL0     C11148  -1.916   6.604   5.210  0.8739 -0.1975 -0.8521
  824MOL0     C11149  -1.969   6.737   5.172  0.2905 -0.4634  0.2634
  824MOL0    Cl11150  -2.099   6.748   5.046  0.1361  0.1790  0.1506
  824MOL0     C11151  -0.977   6.559   5.575 -0.3120  0.0947 -0.4688
  824MOL0     C11152  -0.888   6.451   5.563 -0.7575 -0.5481 -0.4849
  824MOL0     O11153  -0.676   6.376   5.252  0.0781  0.2177 -0.1360
  824MOL0     C11154  -0.493   6.186   5.208  0.1561 -1.0541 -0.1366
  824MOL0     C11155  -0.385   6.114   5.202 -0.0046  0.9112  0.3321
  824MOL0     N11156   0.337   6.250   4.969  0.3895  0.5430 -0.6265
  824MOL0     N11157   0.440   6.332   4.977 -0.6594  0.3574  0.0207
  824MOL0     C11158   1.566   6.690   5.208 -0.0438 -0.1521 -0.1435
  824MOL0     C11159   1.706   6.692   5.226  0.3312 -0.0781  0.1574
  824MOL0     C11160   2.119   6.618   5.365  0.9602  0.0663 -0.2164
  824MOL0     C11161   2.181   6.521   5.288  0.1949  0.6476 -0.5777
  824MOL0     C11162   2.323   6.520   5.281  0.1571  0.5012 -0.2576
  824MOL0     C11163   2.399   6.593   5.361  0.1082 -0.4532  0.3818
  824MOL0     O11164   2.533   6.602   5.333 -0.0193  0.1251 -0.4119
  824MOL0     C11165   2.607   6.500   5.404  1.2488 -0.1698 -0.2402
  824MOL0     C11166   2.757   6.505   5.387 -0.5716  0.7950 -0.5910
  824MOL0     C11167   2.818   6.632   5.440 -0.0856 -0.6480  0.3934
  824MOL0     C11168   2.969   6.620   5.441 -0.6721  0.1549 -0.4844
  824MOL0     C11169   3.013   6.532   5.551  0.5165  0.1520 -0.9120
  824MOL0     C11170   3.056   6.468   5.644  0.6972 -0.0189  0.9425
  824MOL0     C11171   2.343   6.679   5.456 -0.0396 -0.5300  0.2713
  824MOL0     C11172   2.197   6.693   5.459  0.0935  0.2267 -0.3231
  824MOL0     H11173   1.732   6.398   5.390 -0.9573 -0.9503  0.5740
  824MOL0     H11174   1.504   6.404   5.386  0.1906 -0.2747  0.9229
  824MOL0     H11175   1.300   6.792   5.207  0.0217 -0.2056 -1.3890
  824MOL0     H11176   1.311   6.673   5.075  1.0404  0.8599 -0.0388
  824MOL0     H11177   1.095   6.657   5.281  0.1560 -4.4511  0.6574
  824MOL0     H11178   1.081   6.724   5.109 -1.7915 -0.7362 -0.2757
  824MOL0     H11179   1.118   6.488   5.030  2.7774  0.2251  0.7025
  824MOL0     H11180   1.145   6.433   5.194  0.7937  0.0040 -0.7160
  824MOL0     H11181   0.884   6.567   5.107 -4.2722 -2.0539  3.3667
  824MOL0     H11182   0.914   6.400   5.097 -0.7563  0.1436  0.9221
  824MOL0     H11183   0.931   6.379   5.335  0.0714  0.1869  0.9379
  824MOL0     H11184   0.935   6.550   5.361  0.6446 -1.5018  0.9628
  824MOL0     H11185   0.734   6.507   5.419  2.4505 -1.2207  0.8239
  824MOL0     H11186   0.724   6.585   5.265 -0.4262  0.1266  0.8205
  824MOL0     H11187   0.663   6.303   5.335  2.3005  0.1339  0.5458
  824MOL0     H11188   0.560   6.445   5.261  1.9950  3.9256 -4.5766
  824MOL0     H11189   0.741   6.262   5.097  0.2878 -0.0368 -0.6045
  824MOL0     H11190   0.697   6.425   5.059  1.0547  1.9099  2.7721
  824MOL0     H11191   0.527   6.095   5.191 -1.7993  1.1194  2.4595
  824MOL0     H11192   0.264   5.946   5.039 -4.5814  0.1238 -0.2103
  824MOL0     H11193   0.285   6.012   5.207 -0.2260 -0.5602 -0.1406
  824MOL0     H11194   0.073   6.064   4.991 -1.1859 -0.4788 -0.1371
  824MOL0     H11195   0.109   6.186   5.101  2.4827  0.0008 -3.0310
  824MOL0     H11196   0.075   6.034   5.297 -0.1541  0.5676 -0.4158
  824MOL0     H11197   0.056   5.898   5.189  1.1723  0.4150  1.1206
  824MOL0     H11198  -0.157   5.948   5.133 -2.1827 -1.3661  1.9459
  824MOL0     H11199  -0.135   6.125   5.142  0.1360  0.8126  1.3659
  824MOL0     H11200  -0.326   6.036   5.518 -0.9470 -1.4583  0.8517
  824MOL0     H11201  -0.630   6.102   5.597  1.4322 -2.7913 -0.3631
  824MOL0     H11202  -0.468   6.157   5.657 -1.9164 -2.0291  1.0409
  824MOL0     H11203  -0.585   6.278   5.590  0.3274  0.1618  1.6441
  824MOL0     H11204  -0.934   6.368   5.240  1.1652 -0.5935  0.1621
  824MOL0     H11205  -1.078   6.576   5.256 -0.8854 -1.7251  0.2453
  824MOL0     H11206  -1.229   6.864   5.437  4.4943  1.3893 -1.5084
  824MOL0     H11207  -1.213   6.756   5.304 -1.9621 -1.3647  0.2833
  824MOL0     H11208  -1.349   6.604   5.507  0.5040 -0.8138  0.4823
  824MOL0     H11209  -1.421   6.767   5.528  1.3988  1.5692 -1.2715
  824MOL0     H11210  -1.412   6.608   5.261  2.7985  0.1430  1.1142
  824MOL0     H11211  -1.476   6.773   5.285 -1.2402 -1.2067 -1.6615
  824MOL0     H11212  -1.582   6.533   5.428  3.0461  0.8999  1.4713
  824MOL0     H11213  -1.637   6.709   5.442 -2.8456  0.5223 -2.5756
  824MOL0     H11214  -1.660   6.536   5.201  1.0587  1.3475 -0.4116
  824MOL0     H11215  -1.668   6.707   5.205 -0.5688 -0.9053 -2.4741
  824MOL0     H11216  -1.832   6.507   5.385  1.0578  0.5253  1.3013
  824MOL0     H11217  -1.846   6.681   5.394  0.8651 -1.7163  0.5645
  824MOL0     H11218  -1.994   6.536   5.247  2.2222 -0.9702  0.7300
  824MOL0     H11219  -1.873   6.564   5.118  0.2578  0.9052 -1.6497
  824MOL0     H11220  -1.877   6.783   5.135  0.6085  0.2858  1.9115
  824MOL0     H11221  -1.999   6.801   5.255  0.5925  3.3531 -2.2891
  824MOL0     H11222  -0.994   6.606   5.671  1.6746 -0.1492  0.0255
  824MOL0     H11223  -0.834   6.426   5.653  1.1058  1.3938 -0.9738
  824MOL0     H11224  -0.541   6.235   5.124 -0.6217  0.6145  1.2225
  824MOL0     H11225  -0.351   6.116   5.099 -1.9982 -0.2429 -0.4005
  824MOL0     H11226   1.534   6.783   5.163  1.7284  0.6174  0.0827
  824MOL0     H11227   1.758   6.780   5.190  0.9585 -0.1972  0.7484
  824MOL0     H11228   2.126   6.457   5.220  1.3511  0.0684 -0.9711
  824MOL0     H11229   2.373   6.461   5.205  1.7624  1.2415  0.1795
  824MOL0     H11230   2.581   6.483   5.509 -1.8852  1.3031 -0.6665
  824MOL0     H11231   2.565   6.414   5.351 -0.1349  0.5177 -0.3041
  824MOL0     H11232   2.804   6.490   5.290  2.6143  1.9235  0.6421
  824MOL0     H11233   2.794   6.426   5.453  2.6810  2.0552 -0.7272
  824MOL0     H11234   2.787   6.656   5.542 -0.1390  2.8501 -0.3063
  824MOL0     H11235   2.796   6.707   5.363  0.4004 -1.5271 -0.6250
  824MOL0     H11236   3.017   6.716   5.458 -1.4573  0.1935  1.9677
  824MOL0     H11237   3.010   6.576   5.350 -0.3087 -0.7347  0.0901
  824MOL0     H11238   3.097   6.423   5.732 -0.3769 -3.9530 -0.3738
  824MOL0     H11239   2.402   6.741   5.524  0.5718 -1.1826  0.3517
  824MOL0     H11240   2.155   6.762   5.532  1.1253  2.1348 -1.4672
  825MOL0     O11241   8.024   0.593   4.031  1.1222  0.3284 -0.6566
  825MOL0     C11242   8.027   0.519   4.131  0.5600 -0.4869  0.7716
  825MOL0     O11243   7.922   0.452   4.179 -0.0902  0.5625  0.8723
  825MOL0     C11244   7.804   0.465   4.113 -0.3496 -0.4459  0.1117
  825MOL0     C11245   7.758   0.370   4.025 -0.9824 -0.3891 -0.8539
  825MOL0     C11246   7.641   0.392   3.955  0.2658 -0.2026 -0.0885
  825MOL0     C11247   7.569   0.516   3.972 -0.5661  0.2493  0.2050
  825MOL0     O11248   7.451   0.556   3.910 -0.4001  0.8222 -0.1079
  825MOL0     C11249   7.408   0.484   3.800 -0.5637 -0.2031 -0.0875
  825MOL0     C11250   7.273   0.523   3.763  0.3486  0.4415  0.0475
  825MOL0     C11251   7.158   0.435   3.818  0.0209 -0.3889 -0.1110
  825MOL0     C11252   7.176   0.414   3.973 -0.0058 -0.4263 -0.0125
  825MOL0     C11253   7.064   0.334   4.058 -0.0910 -0.2981  0.0537
  825MOL0     C11254   6.917   0.366   4.015 -0.1814 -0.1560  0.4513
  825MOL0     C11255   6.818   0.322   4.129 -0.4431 -0.8467 -0.5798
  825MOL0     C11256   6.794   0.170   4.145  0.4132  0.7484 -0.1853
  825MOL0     N11257   6.687   0.128   4.240  0.2685 -0.2075 -0.5258
  825MOL0     C11258   6.572   0.204   4.268 -0.6045  0.3756  0.0765
  825MOL0     C11259   6.499   0.128   4.345 -0.5605 -0.4389 -0.1152
  825MOL0     C11260   6.355   0.161   4.368  0.2719 -0.0550 -0.2368
  825MOL0     C11261   6.343   0.262   4.484  0.7677  0.5419  0.0142
  825MOL0     C11262   6.190   0.296   4.483 -0.3765  0.8329  0.5192
  825MOL0     C11263   6.177   0.394   4.592  1.1108  0.4632  0.5720
  825MOL0     O11264   6.213   0.522   4.545  0.5862  0.4763 -0.1532
  825MOL0     C11265   6.126   0.592   4.458 -0.0463 -0.5060 -1.6345
  825MOL0     C11266   6.177   0.709   4.394 -0.4421  0.2294 -0.4733
  825MOL0     C11267   6.110   0.790   4.316  0.0802 -0.2564 -0.6674
  825MOL0     C11268   6.177   0.924   4.272  0.2322  0.0943  0.3920
  825MOL0     C11269   5.979   0.751   4.272 -0.3911  0.3988 -0.7359
  825MOL0     C11270   5.884   0.831   4.188 -0.0465 -0.4450  0.5520
  825MOL0     O11271   5.770   0.767   4.151  0.5018 -0.0639 -0.3270
  825MOL0     C11272   5.687   0.829   4.056  0.4398  0.3101  1.0118
  825MOL0     C11273   5.553   0.775   4.033  0.4374  0.0194  0.0945
  825MOL0     C11274   5.466   0.843   3.959 -0.9044  0.0493 -0.2421
  825MOL0     C11275   5.499   0.957   3.881  1.0490  0.0553  0.0006
  825MOL0     O11276   5.404   1.024   3.810  0.3781 -0.4128 -0.6940
  825MOL0     C11277   5.303   0.944   3.741 -0.5339  0.1197 -0.3441
  825MOL0     C11278   5.302   0.999   3.606 -0.1391  0.1433  0.0128
  825MOL0     C11279   5.172   0.945   3.530  0.7683 -0.3595  0.4406
  825MOL0     C11280   5.144   1.027   3.403 -0.4348  0.9872  0.5042
  825MOL0     C11281   5.031   0.962   3.324 -0.6684 -0.3481 -0.7857
  825MOL0     C11282   5.013   1.036   3.196  0.1723  0.1641 -0.6440
  825MOL0     C11283   4.891   0.977   3.123 -0.2628  0.1968  0.0380
  825MOL0     C11284   4.764   0.939   3.206 -0.4658  0.8454  0.1275
  825MOL0    Cl11285   4.642   0.904   3.083 -0.3377  0.1685  0.3764
  825MOL0     C11286   5.628   1.002   3.886 -0.5645  1.0062  0.1529
  825MOL0     C11287   5.721   0.936   3.966 -0.2335 -0.0524  0.7990
  825MOL0     O11288   5.905   0.954   4.177  0.1996 -0.4323  0.1472
  825MOL0     C11289   5.918   0.632   4.327 -1.6705  0.7787 -0.1543
  825MOL0     C11290   5.992   0.556   4.430 -0.5439  0.0048 -0.7327
  825MOL0     N11291   6.579   0.016   4.384 -1.1355  0.1834  0.2029
  825MOL0     N11292   6.689   0.022   4.320  0.1504 -0.2906 -0.0440
  825MOL0     C11293   7.613   0.604   4.074 -0.3210 -0.7528 -0.0721
  825MOL0     C11294   7.728   0.575   4.150  0.4859 -0.5160  0.0073
  825MOL0     C11295   8.155   0.499   4.196  0.0220  0.1314 -0.4178
  825MOL0     C11296   8.169   0.406   4.301 -0.3177  0.2351  0.3812
  825MOL0     C11297   8.292   0.404   4.366 -0.0741 -0.9714  0.2109
  825MOL0     C11298   8.400   0.496   4.328  0.1880 -0.1931 -0.3698
  825MOL0     O11299   8.505   0.486   4.414  0.2173 -0.2227  0.3954
  825MOL0     C11300   8.641   0.472   4.356  0.5803 -0.3502 -0.4558
  825MOL0     C11301   8.668   0.342   4.291 -0.0995 -0.0830  0.1467
  825MOL0     C11302   8.819   0.323   4.264  0.1113 -0.4931 -0.3223
  825MOL0     C11303   8.849   0.192   4.196  0.1353 -0.0760 -0.0006
  825MOL0     C11304   8.990   0.174   4.219  0.0314  0.5149  0.7633
  825MOL0     C11305   9.113   0.183   4.224  0.3511 -0.4895 -0.0302
  825MOL0     C11306   8.393   0.570   4.206 -0.2764 -0.2397 -0.1107
  825MOL0     C11307   8.266   0.579   4.147  0.3407  0.8286  0.4683
  825MOL0     H11308   7.818   0.282   4.009 -2.8935 -2.2650  1.5782
  825MOL0     H11309   7.614   0.319   3.879 -1.9564 -0.5497  0.9527
  825MOL0     H11310   7.465   0.494   3.706  0.3013  1.9034  0.5961
  825MOL0     H11311   7.418   0.375   3.802  3.4301 -0.0242 -1.2042
  825MOL0     H11312   7.250   0.625   3.795 -1.2367  0.7973 -2.0075
  825MOL0     H11313   7.273   0.541   3.655 -0.2808  2.0992  0.2949
  825MOL0     H11314   7.058   0.472   3.793 -1.4119 -4.2105 -0.8910
  825MOL0     H11315   7.164   0.329   3.789  1.8693 -0.6237  0.9960
  825MOL0     H11316   7.271   0.363   3.989 -0.0335 -0.3254  0.4935
  825MOL0     H11317   7.189   0.510   4.023 -2.7033  0.1383 -0.2450
  825MOL0     H11318   7.080   0.228   4.034  2.9659  0.5657 -2.4321
  825MOL0     H11319   7.077   0.357   4.164  1.3365  0.7110 -0.3151
  825MOL0     H11320   6.901   0.473   4.006  1.9925  0.2186  0.5351
  825MOL0     H11321   6.893   0.315   3.921 -2.9786  1.0622  0.3909
  825MOL0     H11322   6.846   0.374   4.222 -3.2546  1.8432 -1.0606
  825MOL0     H11323   6.724   0.371   4.103  0.3198 -1.2955 -4.9660
  825MOL0     H11324   6.887   0.116   4.167  0.0641  0.9463  2.0402
  825MOL0     H11325   6.756   0.132   4.050 -1.0256 -2.5418  1.5332
  825MOL0     H11326   6.543   0.291   4.210  0.2759  0.4152 -0.3257
  825MOL0     H11327   6.306   0.191   4.275  2.0608 -1.9564 -1.9009
  825MOL0     H11328   6.301   0.069   4.396 -1.9543  0.2808 -3.0077
  825MOL0     H11329   6.409   0.346   4.459  0.8285  0.7384  0.8316
  825MOL0     H11330   6.366   0.201   4.572 -1.0093 -0.0766  0.0955
  825MOL0     H11331   6.146   0.197   4.498  2.8335 -1.1144 -1.7051
  825MOL0     H11332   6.160   0.333   4.385  1.1891  0.5505 -0.0950
  825MOL0     H11333   6.247   0.370   4.672  0.3707  0.4871  1.2426
  825MOL0     H11334   6.075   0.390   4.632  0.8231 -0.6870 -0.2122
  825MOL0     H11335   6.277   0.740   4.425  0.5539 -0.3096 -2.8819
  825MOL0     H11336   6.111   1.003   4.311 -1.0827 -0.5840 -0.3972
  825MOL0     H11337   6.274   0.938   4.321  1.3488  2.1443 -2.1473
  825MOL0     H11338   6.185   0.929   4.164 -2.6090  0.3882  0.1184
  825MOL0     H11339   5.512   0.685   4.078 -2.0769  0.3313 -1.3910
  825MOL0     H11340   5.366   0.802   3.949 -0.8123  0.2039 -2.1893
  825MOL0     H11341   5.328   0.837   3.742  1.6171  0.5668 -0.1223
  825MOL0     H11342   5.202   0.964   3.777 -0.1561 -0.3236  1.0303
  825MOL0     H11343   5.288   1.106   3.617 -1.8965 -0.2827  3.1833
  825MOL0     H11344   5.393   0.976   3.550 -1.9183 -1.9349 -2.2219
  825MOL0     H11345   5.082   0.934   3.592 -0.6818 -1.2454 -1.6649
  825MOL0     H11346   5.183   0.842   3.493 -3.4108 -0.4717 -1.1377
  825MOL0     H11347   5.125   1.134   3.409  0.3146  1.0758  1.6027
  825MOL0     H11348   5.234   1.024   3.341  1.0106 -0.6148  2.5286
  825MOL0     H11349   4.940   0.979   3.382 -0.0673  1.3520 -0.2580
  825MOL0     H11350   5.057   0.860   3.296  1.3651 -0.8633  2.4020
  825MOL0     H11351   4.995   1.141   3.221  0.5067 -0.3607  2.0871
  825MOL0     H11352   5.107   1.029   3.139 -0.4168  0.8143 -1.7484
  825MOL0     H11353   4.911   0.892   3.057  2.7354  2.1071 -1.7297
  825MOL0     H11354   4.846   1.046   3.051  0.6472 -0.0388 -0.7641
  825MOL0     H11355   4.734   1.028   3.262 -1.8314  0.7298 -0.3715
  825MOL0     H11356   4.784   0.857   3.276  2.5855  3.2031  2.2747
  825MOL0     H11357   5.653   1.086   3.822  0.1344  0.7621  0.1003
  825MOL0     H11358   5.830   0.938   3.965 -0.1201 -1.9293  2.7638
  825MOL0     H11359   5.824   0.592   4.292 -0.7669 -1.9235  0.2785
  825MOL0     H11360   5.951   0.465   4.471 -2.6620  0.5925 -1.4244
  825MOL0     H11361   7.561   0.694   4.104  1.6522  0.0750  1.1375
  825MOL0     H11362   7.777   0.644   4.218  1.1171 -1.9301  1.0255
  825MOL0     H11363   8.087   0.336   4.317  0.0653 -0.4165 -0.4558
  825MOL0     H11364   8.304   0.337   4.450 -3.6357  0.4319  2.0252
  825MOL0     H11365   8.666   0.546   4.279  0.2485  0.0704 -0.1649
  825MOL0     H11366   8.710   0.485   4.440 -1.1414  1.4687  0.7522
  825MOL0     H11367   8.629   0.331   4.190  0.4960 -1.5403  0.0540
  825MOL0     H11368   8.640   0.253   4.348  0.1631 -0.1415  0.1880
  825MOL0     H11369   8.866   0.328   4.363 -1.4151  1.1958  0.3736
  825MOL0     H11370   8.863   0.398   4.198  2.0327 -2.1597 -1.0292
  825MOL0     H11371   8.815   0.190   4.092  0.7444 -1.1209 -0.1952
  825MOL0     H11372   8.784   0.120   4.246 -2.3114  1.1208 -1.2367
  825MOL0     H11373   9.220   0.178   4.220  0.3684  0.0738 -3.7779
  825MOL0     H11374   8.465   0.642   4.169 -1.2140 -0.1421 -1.8463
  825MOL0     H11375   8.244   0.655   4.073 -1.0170  0.1959  0.1983
  826MOL0     O11376  11.081  10.745  10.198  0.9460  0.2319 -0.1612
  826MOL0     C11377  11.042  10.625  10.189  0.0421 -0.4291  0.2283
  826MOL0     O11378  10.921  10.585  10.143 -0.3475 -0.3467 -0.4085
  826MOL0     C11379  10.826  10.680  10.127 -0.5384 -0.9340 -0.2653
  826MOL0     C11380  10.698  10.635  10.172  1.1453  0.3780 -0.7451
  826MOL0     C11381  10.588  10.725  10.157 -0.0942 -0.2528  0.8694
  826MOL0     C11382  10.608  10.865  10.107 -0.0171  0.4307  0.4432
  826MOL0     O11383  10.504  10.953  10.107 -0.4468  0.0491  0.3052
  826MOL0     C11384  10.374  10.897  10.053 -0.6007 -1.1717  0.3102
  826MOL0     C11385  10.262  10.892  10.156  0.8812 -0.0113  0.7317
  826MOL0     C11386  10.231  11.038  10.188 -0.7789 -0.1326 -0.2220
  826MOL0     C11387  10.110  11.063  10.275  0.4340  0.0503  0.5868
  826MOL0     C11388   9.980  11.021  10.205 -0.0146  0.2757  0.0048
  826MOL0     C11389   9.861  11.040  10.298  0.1002 -0.7372 -1.0777
  826MOL0     C11390   9.740  10.950  10.264  0.0613  0.0094  0.6089
  826MOL0     C11391   9.614  10.979  10.354 -0.5636  0.4322  0.1111
  826MOL0     N11392   9.546  11.101  10.315  0.4607 -0.4610  0.2780
  826MOL0     C11393   9.439  11.106  10.230  0.2092 -0.0579 -0.5377
  826MOL0     C11394   9.404  11.234  10.221 -0.9327 -0.4113  0.0589
  826MOL0     C11395   9.290  11.294  10.147 -0.0778  0.1700 -0.2711
  826MOL0     C11396   9.324  11.400  10.049 -0.0033  0.7756  0.0062
  826MOL0     C11397   9.422  11.359   9.941 -0.8439  0.8211 -0.3832
  826MOL0     C11398   9.572  11.374   9.978  0.0935  0.2102 -0.2043
  826MOL0     O11399   9.647  11.321   9.867 -0.6608  0.0299  0.0806
  826MOL0     C11400   9.783  11.328   9.860 -0.2772  0.0913 -0.1197
  826MOL0     C11401   9.842  11.301   9.742 -0.6610 -0.3445 -0.3115
  826MOL0     C11402   9.982  11.296   9.718 -0.4708  1.0041  0.1237
  826MOL0     C11403  10.021  11.272   9.571 -0.0122 -0.0140  0.0705
  826MOL0     C11404  10.068  11.330   9.828  0.5965  0.0946  0.7266
  826MOL0     C11405  10.211  11.322   9.819  0.8106  0.0300 -0.2147
  826MOL0     O11406  10.274  11.342   9.937 -0.0794  0.0574  0.3474
  826MOL0     C11407  10.414  11.357   9.930 -0.2240  0.4620 -0.7611
  826MOL0     C11408  10.476  11.466   9.872  0.3546 -0.4110 -0.0686
  826MOL0     C11409  10.616  11.491   9.893  0.5706  1.3726 -0.0549
  826MOL0     C11410  10.697  11.393   9.953 -0.7051 -0.9903  0.1207
  826MOL0     O11411  10.833  11.393   9.965  0.1360 -0.3401  0.3493
  826MOL0     C11412  10.911  11.490   9.898 -0.0313 -0.5025  0.0397
  826MOL0     C11413  11.054  11.437   9.913  0.1667  0.4673  0.0111
  826MOL0     C11414  11.083  11.286   9.921 -0.6976 -0.2039 -0.2632
  826MOL0     C11415  11.231  11.256   9.906 -0.8308  0.1216 -0.4140
  826MOL0     C11416  11.260  11.102   9.920 -0.8895  0.3356 -0.1935
  826MOL0     C11417  11.402  11.063   9.889 -0.6257 -0.1016  0.5468
  826MOL0     C11418  11.506  11.115  10.001 -0.2351 -0.5290  0.1762
  826MOL0     C11419  11.637  11.039  10.001 -0.2849 -0.2274  0.1551
  826MOL0    Cl11420  11.709  11.070   9.844  0.0298  0.5486  0.0739
  826MOL0     C11421  10.630  11.288  10.016  0.1175  1.0568  0.6594
  826MOL0     C11422  10.487  11.265  10.003 -0.0538 -0.3718  0.3187
  826MOL0     O11423  10.269  11.298   9.709 -0.3913  0.0522  0.3339
  826MOL0     C11424  10.013  11.369   9.955  0.5791 -0.0934  0.3776
  826MOL0     C11425   9.871  11.361   9.968  0.1852 -0.2735 -0.2885
  826MOL0     N11426   9.490  11.314  10.302 -0.0438  0.3388  0.6219
  826MOL0     N11427   9.561  11.231  10.363  0.3824  0.7552  0.3004
  826MOL0     C11428  10.735  10.900  10.072  0.0903  0.0588 -0.4970
  826MOL0     C11429  10.843  10.808  10.069 -0.4353  0.3937  0.3476
  826MOL0     C11430  11.149  10.534  10.221 -0.1675 -0.1696 -0.3369
  826MOL0     C11431  11.132  10.397  10.210 -0.4952 -0.0274 -0.0890
  826MOL0     C11432  11.231  10.307  10.250  0.1041 -0.1173  0.1289
  826MOL0     C11433  11.358  10.350  10.291 -0.2108 -0.9406  0.4109
  826MOL0     O11434  11.454  10.257  10.332  0.5250 -0.0743  0.1975
  826MOL0     C11435  11.553  10.309  10.427  0.3087  0.3700 -0.5118
  826MOL0     C11436  11.675  10.357  10.357 -0.5101 -1.4993  0.0913
  826MOL0     C11437  11.760  10.458  10.438  0.6556  0.6520 -0.1653
  826MOL0     C11438  11.851  10.538  10.347  0.0380 -0.4223  0.1441
  826MOL0     C11439  11.768  10.660  10.302  0.4948  0.1907 -0.3104
  826MOL0     C11440  11.687  10.747  10.270  0.4667 -0.6722  0.2605
  826MOL0     C11441  11.383  10.495  10.295  0.4687 -0.1258  0.1213
  826MOL0     C11442  11.273  10.581  10.267  0.5995 -0.3155  0.1172
  826MOL0     H11443  10.686  10.537  10.215 -0.7817  1.9345  2.7159
  826MOL0     H11444  10.490  10.695  10.194 -0.2472 -0.9826 -0.0960
  826MOL0     H11445  10.339  10.959   9.970  2.2518 -0.5611 -0.5558
  826MOL0     H11446  10.385  10.796  10.011 -0.1725  0.6262 -4.5717
  826MOL0     H11447  10.174  10.845  10.112  1.0833 -1.0807  1.4424
  826MOL0     H11448  10.288  10.834  10.246  1.6231  0.3991  0.7919
  826MOL0     H11449  10.319  11.091  10.225 -2.3439  1.5207  1.3141
  826MOL0     H11450  10.208  11.089  10.094  2.3408  3.6291  0.8125
  826MOL0     H11451  10.110  11.005  10.367  2.3213 -1.3702 -0.2341
  826MOL0     H11452  10.118  11.171  10.293 -2.2870  0.2272  1.0997
  826MOL0     H11453   9.974  11.073  10.109  0.2692  1.9556  0.8627
  826MOL0     H11454   9.985  10.914  10.184 -1.2998 -0.6594  3.7532
  826MOL0     H11455   9.896  11.015  10.398 -1.5156  1.3892  0.0946
  826MOL0     H11456   9.829  11.144  10.294  0.9994 -0.2769  1.7908
  826MOL0     H11457   9.718  10.972  10.159  0.7060 -1.3067  0.1846
  826MOL0     H11458   9.776  10.847  10.271  1.1169  0.3606  0.4742
  826MOL0     H11459   9.637  10.989  10.460  2.0496 -0.3339 -0.3118
  826MOL0     H11460   9.548  10.895  10.334 -0.5359  0.8796 -2.2303
  826MOL0     H11461   9.382  11.031  10.174 -0.6072  0.8723 -0.9852
  826MOL0     H11462   9.232  11.217  10.096 -1.3312  1.8004 -1.4135
  826MOL0     H11463   9.222  11.341  10.218  2.1044  0.4342  1.7768
  826MOL0     H11464   9.352  11.490  10.103  0.1589  0.0507  1.1594
  826MOL0     H11465   9.227  11.423  10.005 -0.9705 -0.1124  1.6045
  826MOL0     H11466   9.403  11.437   9.867 -0.0835  1.5353  0.1612
  826MOL0     H11467   9.394  11.262   9.897  0.1088 -0.1147  0.9818
  826MOL0     H11468   9.597  11.327  10.073 -1.3179 -1.2117 -0.4909
  826MOL0     H11469   9.591  11.482   9.981 -0.9051  0.7274 -4.8847
  826MOL0     H11470   9.771  11.288   9.661 -2.7258  0.7739  1.2288
  826MOL0     H11471   9.937  11.252   9.503  1.4727 -4.1975 -0.8160
  826MOL0     H11472  10.076  11.360   9.537 -0.9421  0.2671 -0.7541
  826MOL0     H11473  10.088  11.187   9.555  1.9102  1.6750 -1.3479
  826MOL0     H11474  10.409  11.534   9.821  0.1489 -0.5996 -0.0476
  826MOL0     H11475  10.665  11.572   9.840  4.2114 -0.2267  0.5605
  826MOL0     H11476  10.882  11.498   9.793 -1.0531  1.2547  0.4178
  826MOL0     H11477  10.907  11.589   9.944 -1.1760 -0.2220 -0.6197
  826MOL0     H11478  11.099  11.471   9.819 -1.6306 -1.5675 -1.6969
  826MOL0     H11479  11.106  11.489   9.994  0.6769  3.5907 -2.1626
  826MOL0     H11480  11.028  11.235   9.841  1.1782 -2.4156 -0.2500
  826MOL0     H11481  11.038  11.248  10.013 -1.4391  3.1580  0.9280
  826MOL0     H11482  11.268  11.297   9.812 -0.7278  0.0666 -0.3973
  826MOL0     H11483  11.290  11.312   9.979  0.7799 -0.2423 -1.3781
  826MOL0     H11484  11.194  11.045   9.854  0.9066 -2.5261  0.3102
  826MOL0     H11485  11.235  11.066  10.020  0.2564 -0.9055 -0.3246
  826MOL0     H11486  11.405  10.954   9.877 -0.8606 -0.0020 -0.5534
  826MOL0     H11487  11.417  11.113   9.793 -3.3968  1.6620  0.9139
  826MOL0     H11488  11.456  11.098  10.097 -0.3160  1.8142  0.5993
  826MOL0     H11489  11.512  11.222   9.982 -2.3590 -0.6599 -1.7642
  826MOL0     H11490  11.609  10.935  10.020 -3.6180  0.6863  1.0306
  826MOL0     H11491  11.700  11.078  10.082  0.9809  1.9528 -1.7602
  826MOL0     H11492  10.683  11.218  10.081 -0.4425  0.6405  0.6831
  826MOL0     H11493  10.428  11.189  10.054 -1.3067 -1.3631 -2.3729
  826MOL0     H11494  10.074  11.405  10.038  0.3525 -0.3794  0.6717
  826MOL0     H11495   9.824  11.395  10.060  2.5256  3.0919 -0.1815
  826MOL0     H11496  10.763  10.996  10.028 -2.3800  0.8687 -0.4519
  826MOL0     H11497  10.934  10.837  10.017 -0.2389 -1.6112 -0.5188
  826MOL0     H11498  11.033  10.355  10.197 -0.7907  1.1943 -2.2614
  826MOL0     H11499  11.210  10.201  10.264  2.2986 -0.3324  2.6095
  826MOL0     H11500  11.507  10.386  10.488  0.2712  0.2391 -0.3755
  826MOL0     H11501  11.583  10.242  10.508  1.7205  1.3339 -0.1898
  826MOL0     H11502  11.635  10.408  10.269  1.1369 -0.5022 -0.1182
  826MOL0     H11503  11.744  10.281  10.318  2.7541  1.0334  0.5449
  826MOL0     H11504  11.818  10.393  10.506 -0.1327 -0.4626 -0.5320
  826MOL0     H11505  11.685  10.517  10.491  0.0184  0.2402 -0.6033
  826MOL0     H11506  11.893  10.481  10.263  3.0190 -0.2959  1.4463
  826MOL0     H11507  11.939  10.579  10.398 -0.6767  2.3055 -0.6320
  826MOL0     H11508  11.627  10.832  10.246  0.2528 -0.6473  0.8646
  826MOL0     H11509  11.478  10.540  10.321  2.6644 -2.4223 -3.1535
  826MOL0     H11510  11.292  10.687  10.274 -0.5549 -0.1329  0.6404
  827MOL0     O11511  10.843   4.790   9.971  0.0610  0.8646  0.5190
  827MOL0     C11512  10.902   4.745  10.069 -0.1410 -0.0747  0.0099
  827MOL0     O11513  10.842   4.701  10.184 -0.5857 -0.5386 -0.2552
  827MOL0     C11514  10.713   4.679  10.193 -0.3931  0.2378  0.3826
  827MOL0     C11515  10.642   4.626  10.086  0.0959 -0.5184 -0.0214
  827MOL0     C11516  10.510   4.594  10.098 -0.7929 -0.1687 -0.6300
  827MOL0     C11517  10.433   4.630  10.209 -0.0688  0.3095 -0.2697
  827MOL0     O11518  10.298   4.604  10.213 -0.8467 -1.0358 -0.3178
  827MOL0     C11519  10.223   4.631  10.098 -0.3406  0.5920 -0.3361
  827MOL0     C11520  10.101   4.697  10.153  0.4592 -0.4345 -0.0875
  827MOL0     C11521  10.030   4.590  10.227 -0.4638  0.6489  0.5842
  827MOL0     C11522   9.880   4.610  10.215 -0.2716 -0.0196 -0.7731
  827MOL0     C11523   9.804   4.532  10.321  0.3859 -0.6599 -0.3794
  827MOL0     C11524   9.809   4.382  10.323  0.3157 -0.0397 -0.9307
  827MOL0     C11525   9.710   4.320  10.431  0.2872  0.1303 -0.9153
  827MOL0     C11526   9.563   4.341  10.407  0.3044 -0.1347  0.5822
  827MOL0     N11527   9.523   4.294  10.274  0.4422  0.7056 -0.1391
  827MOL0     C11528   9.475   4.372  10.158  0.1701 -0.2749 -0.4032
  827MOL0     C11529   9.441   4.268  10.072  0.8419  0.0485 -0.1629
  827MOL0     C11530   9.382   4.281   9.933 -0.1384  0.9680  0.6029
  827MOL0     C11531   9.349   4.425   9.907 -0.5885 -1.0452  0.4579
  827MOL0     C11532   9.279   4.464   9.769 -0.5020  0.5293  0.8783
  827MOL0     C11533   9.127   4.492   9.780 -0.5512  0.1958  0.6308
  827MOL0     O11534   9.061   4.389   9.854  0.3994  0.2316  0.5195
  827MOL0     C11535   8.923   4.364   9.833 -0.0718  0.4121  1.0624
  827MOL0     C11536   8.837   4.437   9.739 -0.6967  0.2805 -0.0671
  827MOL0     C11537   8.706   4.394   9.718  0.0512  0.0081 -0.1822
  827MOL0     C11538   8.621   4.465   9.619  0.4631 -0.1892  0.4756
  827MOL0     C11539   8.657   4.273   9.790  0.4681 -0.6735  0.0667
  827MOL0     C11540   8.521   4.221   9.773  0.6956  0.1327 -0.4864
  827MOL0     O11541   8.486   4.119   9.863  0.5029  0.5551  0.0103
  827MOL0     C11542   8.349   4.088   9.882  0.2467 -0.6583  0.0092
  827MOL0     C11543   8.258   4.068   9.772 -0.1940 -0.2761 -0.0208
  827MOL0     C11544   8.121   4.046   9.799  0.0508 -0.1783  0.7311
  827MOL0     C11545   8.080   4.024   9.932  0.4757  0.1381 -0.3956
  827MOL0     O11546   7.952   3.993   9.972  0.6704 -0.5172 -0.3618
  827MOL0     C11547   7.846   4.018   9.879 -0.9500 -0.2126 -0.9749
  827MOL0     C11548   7.727   3.971   9.965 -0.0251 -0.0141  1.0446
  827MOL0     C11549   7.592   4.011   9.897 -0.4487 -0.6677  0.0352
  827MOL0     C11550   7.470   3.957   9.967 -0.6329 -0.1739  0.6706
  827MOL0     C11551   7.351   3.942   9.870  0.5197 -0.2013 -0.1500
  827MOL0     C11552   7.274   4.064   9.821  0.5246 -1.2800  0.6869
  827MOL0     C11553   7.141   4.045   9.736  0.0860  0.0989 -0.2482
  827MOL0     C11554   7.163   3.944   9.626  0.1516 -0.0767  0.6145
  827MOL0    Cl11555   7.013   3.961   9.512 -0.9728  0.0243 -0.1818
  827MOL0     C11556   8.171   4.028  10.033 -0.8001 -0.1917 -0.1154
  827MOL0     C11557   8.303   4.066  10.010 -0.1770 -0.8737 -0.1212
  827MOL0     O11558   8.435   4.280   9.711 -0.0353 -0.5031  0.5179
  827MOL0     C11559   8.739   4.221   9.892  0.0949  0.7608  0.3934
  827MOL0     C11560   8.863   4.256   9.909  0.1300  0.6802  1.0706
  827MOL0     N11561   9.460   4.141  10.131 -0.6372  0.5276 -1.0724
  827MOL0     N11562   9.511   4.156  10.253  0.1655  1.0304  0.1608
  827MOL0     C11563  10.501   4.682  10.323  0.0647  0.5024 -0.4429
  827MOL0     C11564  10.641   4.705  10.307 -0.7472 -0.0713  0.2566
  827MOL0     C11565  11.051   4.738  10.057  0.4875  0.6735  0.0191
  827MOL0     C11566  11.121   4.800   9.960  0.9351  0.1551  0.6893
  827MOL0     C11567  11.261   4.794   9.943 -0.4394  0.4232 -0.4086
  827MOL0     C11568  11.336   4.723  10.043 -0.7016  0.2111  0.6216
  827MOL0     O11569  11.479   4.710  10.044 -0.1000 -0.0667  0.3229
  827MOL0     C11570  11.549   4.728   9.917 -0.4066 -0.6961 -0.7295
  827MOL0     C11571  11.530   4.596   9.832  0.6881 -0.3546  0.6547
  827MOL0     C11572  11.604   4.472   9.890  0.0617  0.0147 -0.1376
  827MOL0     C11573  11.601   4.349   9.806  0.4144 -0.2898 -0.1468
  827MOL0     C11574  11.695   4.247   9.853  0.1183  0.2924  0.1172
  827MOL0     C11575  11.775   4.160   9.889  0.0860 -0.0358 -0.9574
  827MOL0     C11576  11.264   4.656  10.138  0.0116  0.4969  0.2464
  827MOL0     C11577  11.125   4.662  10.149  0.8716 -0.9782  0.7506
  827MOL0     H11578  10.682   4.609   9.987 -2.3856  1.6282 -1.5129
  827MOL0     H11579  10.456   4.568  10.007 -3.3183  0.4060  0.6063
  827MOL0     H11580  10.262   4.709  10.032 -0.3995  2.5563  1.8310
  827MOL0     H11581  10.200   4.538  10.046 -0.9479 -0.1391  1.1703
  827MOL0     H11582  10.123   4.782  10.219 -1.4661 -0.0305  0.1187
  827MOL0     H11583  10.046   4.733  10.065  2.9171 -1.0453 -1.9925
  827MOL0     H11584  10.059   4.492  10.189 -2.2609  0.8163 -1.4562
  827MOL0     H11585  10.052   4.603  10.333  0.0356 -0.3203  0.6063
  827MOL0     H11586   9.848   4.714  10.207  1.5007  0.8199  1.6915
  827MOL0     H11587   9.862   4.564  10.117  2.0136  1.8350 -2.1911
  827MOL0     H11588   9.830   4.575  10.418 -4.1859 -0.6448  1.1061
  827MOL0     H11589   9.703   4.569  10.300  1.7203  2.9393 -1.2006
  827MOL0     H11590   9.791   4.341  10.223  1.9840  0.2483 -1.3752
  827MOL0     H11591   9.908   4.347  10.354 -0.7779 -2.1051  0.4948
  827MOL0     H11592   9.729   4.212  10.432  2.1258  0.4190 -0.8152
  827MOL0     H11593   9.733   4.366  10.528  0.1843 -4.6167  1.6388
  827MOL0     H11594   9.548   4.449  10.402  4.1230  0.4667 -2.0257
  827MOL0     H11595   9.504   4.285  10.480 -1.0850  1.3940  0.6981
  827MOL0     H11596   9.479   4.480  10.148  1.9297 -0.2526  0.2121
  827MOL0     H11597   9.451   4.243   9.857  0.5136  0.2988  1.5005
  827MOL0     H11598   9.295   4.216   9.930  0.3204  0.3954 -0.8655
  827MOL0     H11599   9.442   4.482   9.915 -0.3453 -1.6927  3.2406
  827MOL0     H11600   9.289   4.468   9.988  4.5315  3.3162  2.5862
  827MOL0     H11601   9.286   4.370   9.713  1.0241  0.4103  1.2479
  827MOL0     H11602   9.344   4.535   9.718  2.9452 -2.2674  1.0039
  827MOL0     H11603   9.102   4.487   9.674  0.9359 -3.5238  0.3001
  827MOL0     H11604   9.110   4.592   9.822  0.2094 -0.3520  2.3356
  827MOL0     H11605   8.880   4.521   9.685 -0.4634 -0.8187 -1.6760
  827MOL0     H11606   8.606   4.389   9.541  0.2792  1.5117 -1.2140
  827MOL0     H11607   8.538   4.504   9.679  1.0685  1.0248  0.5335
  827MOL0     H11608   8.663   4.554   9.571 -0.3852  0.6668  1.2865
  827MOL0     H11609   8.299   4.077   9.672  1.8427  3.6482  0.9601
  827MOL0     H11610   8.058   4.045   9.710  3.6772 -1.5488 -2.1011
  827MOL0     H11611   7.852   4.124   9.850  0.5117  0.1925  0.6449
  827MOL0     H11612   7.850   3.948   9.795 -2.4736 -0.2495 -1.0574
  827MOL0     H11613   7.733   3.863   9.978 -3.4424 -0.4152  0.1703
  827MOL0     H11614   7.734   4.004  10.070 -1.2060 -2.2017  1.8803
  827MOL0     H11615   7.603   3.983   9.792  2.3927 -0.2786  0.1659
  827MOL0     H11616   7.573   4.118   9.907  0.6979 -0.6130  2.1614
  827MOL0     H11617   7.493   3.856  10.004 -1.2064 -0.0393  1.4100
  827MOL0     H11618   7.467   4.017  10.059 -0.3025  0.3434  0.3495
  827MOL0     H11619   7.277   3.876   9.918  1.1543  0.7754  2.3006
  827MOL0     H11620   7.385   3.888   9.780  1.3430 -1.5261  0.9206
  827MOL0     H11621   7.244   4.103   9.919  0.6441  3.1523 -0.8024
  827MOL0     H11622   7.342   4.129   9.765  1.8865 -2.5891  0.7621
  827MOL0     H11623   7.110   4.142   9.695 -1.2596  0.5422  1.7036
  827MOL0     H11624   7.054   4.012   9.794  0.8006 -0.5321  0.4969
  827MOL0     H11625   7.179   3.843   9.666  0.8037  0.5482  1.9983
  827MOL0     H11626   7.257   3.979   9.581 -1.6043  2.1454 -1.6021
  827MOL0     H11627   8.138   4.008  10.134 -1.7562  0.8120 -0.2095
  827MOL0     H11628   8.377   4.067  10.090  0.8196 -4.1286 -0.8095
  827MOL0     H11629   8.694   4.149   9.959 -1.1681  2.0739  1.0279
  827MOL0     H11630   8.933   4.207   9.977 -0.3637 -0.5899  0.6917
  827MOL0     H11631  10.457   4.704  10.419 -0.1463  0.8396 -0.6178
  827MOL0     H11632  10.694   4.749  10.390  0.1995  0.9206 -0.8377
  827MOL0     H11633  11.071   4.875   9.901  0.6050 -0.9712 -0.5214
  827MOL0     H11634  11.303   4.856   9.865 -0.5940 -0.3512 -1.1225
  827MOL0     H11635  11.528   4.821   9.863  0.9900 -0.4495 -0.8817
  827MOL0     H11636  11.656   4.725   9.939 -0.6676 -1.8222  0.4566
  827MOL0     H11637  11.582   4.602   9.735 -0.4531 -0.9805 -0.0098
  827MOL0     H11638  11.423   4.582   9.820  0.7429  1.0285 -2.4644
  827MOL0     H11639  11.575   4.442   9.991 -1.9725  2.3728  0.0804
  827MOL0     H11640  11.702   4.519   9.898 -0.5718  2.4386 -4.0951
  827MOL0     H11641  11.631   4.377   9.705  3.9943  0.4853  0.9949
  827MOL0     H11642  11.497   4.316   9.793  0.2084  0.7493 -1.3709
  827MOL0     H11643  11.844   4.086   9.925 -1.7905  0.0265  3.3439
  827MOL0     H11644  11.322   4.601  10.212 -0.2370  2.5184  2.0562
  827MOL0     H11645  11.071   4.601  10.221 -1.6885 -0.8872 -0.9537
  828MOL0     O11646   9.605   0.289   7.245 -0.2254  0.2026 -0.1842
  828MOL0     C11647   9.659   0.189   7.290 -0.3740 -0.0013 -0.1054
  828MOL0     O11648   9.600   0.105   7.383 -0.6440  0.5694  0.3870
  828MOL0     C11649   9.478   0.127   7.438  0.0779 -0.0988 -0.2247
  828MOL0     C11650   9.389   0.024   7.441 -0.1905 -0.6275 -0.0645
  828MOL0     C11651   9.271   0.033   7.515 -0.2952  0.5877  0.1536
  828MOL0     C11652   9.230   0.153   7.565  0.2029  0.6435  1.2712
  828MOL0     O11653   9.112   0.147   7.626 -0.4098 -0.2639  0.3062
  828MOL0     C11654   9.022   0.253   7.606 -0.1539 -0.1662 -0.8619
  828MOL0     C11655   8.950   0.262   7.465 -0.7346  0.2307 -0.4769
  828MOL0     C11656   8.826   0.348   7.481  0.7316  0.6001 -0.7177
  828MOL0     C11657   8.756   0.373   7.356  0.1056  0.1053 -0.3659
  828MOL0     C11658   8.633   0.475   7.368  0.3118  0.0473 -0.3638
  828MOL0     C11659   8.521   0.429   7.451 -0.0277  0.1451 -1.3015
  828MOL0     C11660   8.408   0.532   7.453 -0.1714  0.4324 -0.0840
  828MOL0     C11661   8.289   0.479   7.521  0.4755 -0.9935 -1.1931
  828MOL0     N11662   8.291   0.495   7.673 -0.1630  0.9365 -0.2166
  828MOL0     C11663   8.295   0.615   7.737  0.8253 -0.6619 -0.1123
  828MOL0     C11664   8.284   0.586   7.869 -0.1049 -0.6871  0.1170
  828MOL0     C11665   8.282   0.692   7.978 -0.2323 -0.2309  0.0542
  828MOL0     C11666   8.150   0.757   8.030  0.1514  0.3056 -0.4575
  828MOL0     C11667   8.151   0.818   8.168 -0.5095  0.6160 -0.2097
  828MOL0     C11668   8.034   0.907   8.187  1.0640  0.0855  0.5136
  828MOL0     O11669   7.921   0.820   8.199 -0.0205  0.5057 -0.3392
  828MOL0     C11670   7.791   0.869   8.192  0.0803 -0.0334 -0.6393
  828MOL0     C11671   7.687   0.779   8.169 -0.3917  0.3871 -0.1073
  828MOL0     C11672   7.554   0.811   8.179 -0.9584  0.9408 -0.0713
  828MOL0     C11673   7.466   0.688   8.179 -0.3537  0.6267 -0.5099
  828MOL0     C11674   7.514   0.949   8.194 -0.0599  0.7938  0.1462
  828MOL0     C11675   7.371   0.990   8.192  0.0683  1.0347 -0.0963
  828MOL0     O11676   7.346   1.112   8.141  1.1141  0.0438  0.1355
  828MOL0     C11677   7.217   1.166   8.155  0.4317  0.0097 -0.4169
  828MOL0     C11678   7.208   1.299   8.174 -0.6298 -0.3467  0.1683
  828MOL0     C11679   7.089   1.370   8.162 -0.2537  1.0426  1.0125
  828MOL0     C11680   6.970   1.299   8.124 -0.4089  0.4753 -0.1840
  828MOL0     O11681   6.854   1.356   8.091  0.0753 -0.1376  0.7100
  828MOL0     C11682   6.860   1.494   8.048 -0.4656  0.3996  0.0543
  828MOL0     C11683   6.721   1.551   8.026  0.5112  0.1112 -0.1680
  828MOL0     C11684   6.641   1.536   8.159 -0.2077 -0.0876 -0.3582
  828MOL0     C11685   6.532   1.649   8.165 -0.5627  0.2331 -0.2911
  828MOL0     C11686   6.454   1.649   8.303  0.3253 -0.2047 -0.1100
  828MOL0     C11687   6.350   1.766   8.297 -0.0260 -0.6724 -0.1123
  828MOL0     C11688   6.287   1.791   8.436  0.1191 -0.1697  0.8634
  828MOL0     C11689   6.236   1.665   8.509 -0.7118  0.1988  0.2575
  828MOL0    Cl11690   6.111   1.591   8.397 -0.3866 -0.2097 -0.5261
  828MOL0     C11691   6.977   1.165   8.101 -0.1772 -0.3470  0.3036
  828MOL0     C11692   7.099   1.101   8.110 -0.2658  0.3042  0.0886
  828MOL0     O11693   7.289   0.918   8.256  0.7338 -0.4927 -0.3836
  828MOL0     C11694   7.613   1.043   8.210 -0.7824  0.1409 -0.4876
  828MOL0     C11695   7.747   0.994   8.218  0.0748 -0.0421  0.1846
  828MOL0     N11696   8.287   0.450   7.886  0.6024  0.4873 -0.1103
  828MOL0     N11697   8.304   0.396   7.773  0.6159  0.0749 -0.4607
  828MOL0     C11698   9.315   0.262   7.559 -0.0799  0.9678 -0.1207
  828MOL0     C11699   9.443   0.242   7.503  0.1929  0.1009 -0.6866
  828MOL0     C11700   9.788   0.166   7.232  0.4521 -1.0287 -0.6160
  828MOL0     C11701   9.860   0.266   7.170 -0.0805  0.0972 -0.3566
  828MOL0     C11702   9.987   0.235   7.114  0.1370 -0.5905  1.0845
  828MOL0     C11703  10.040   0.102   7.109  0.5687  0.0657 -1.1786
  828MOL0     O11704  10.155   0.065   7.045 -0.8461 -0.3612  0.6895
  828MOL0     C11705  10.238   0.163   6.987  0.7304  0.3242  0.1225
  828MOL0     C11706  10.357   0.101   6.908  0.0508  0.0687  0.1500
  828MOL0     C11707  10.325   0.009   6.785 -0.4157  0.2679  0.2448
  828MOL0     C11708  10.394  -0.128   6.799  0.5953  0.2881 -0.1883
  828MOL0     C11709  10.418  -0.179   6.662  0.2325 -0.4722  0.4566
  828MOL0     C11710  10.415  -0.198   6.541 -0.1772  0.0519  0.2187
  828MOL0     C11711   9.967   0.011   7.187  0.7600  0.0088 -0.6275
  828MOL0     C11712   9.845   0.042   7.247  0.0219  0.0177  0.1782
  828MOL0     H11713   9.405  -0.075   7.399  2.3273 -0.2061 -0.2889
  828MOL0     H11714   9.231  -0.064   7.542  3.7222 -1.3825 -0.2156
  828MOL0     H11715   8.947   0.224   7.680  0.9352 -0.9106 -0.0193
  828MOL0     H11716   9.067   0.348   7.637  0.9559 -0.6114 -1.0627
  828MOL0     H11717   9.015   0.308   7.390 -1.8809  2.5845 -0.1270
  828MOL0     H11718   8.914   0.163   7.435 -1.9032  0.4910  0.0105
  828MOL0     H11719   8.758   0.295   7.550  2.5817  2.3568  2.7388
  828MOL0     H11720   8.850   0.445   7.525 -2.4442  1.0967  0.1549
  828MOL0     H11721   8.836   0.400   7.286  0.7524 -0.4822  0.1332
  828MOL0     H11722   8.702   0.286   7.319 -1.1600 -0.1465  1.9141
  828MOL0     H11723   8.649   0.582   7.388 -1.8880 -0.0021  2.1968
  828MOL0     H11724   8.594   0.473   7.265 -0.0499  1.4157 -0.2849
  828MOL0     H11725   8.490   0.331   7.413  0.7757 -0.8539  0.4527
  828MOL0     H11726   8.551   0.417   7.556 -0.0310  1.3579 -1.1531
  828MOL0     H11727   8.437   0.632   7.487  0.4121  0.3416 -0.3073
  828MOL0     H11728   8.382   0.542   7.347 -0.2004  1.2866 -0.0029
  828MOL0     H11729   8.273   0.374   7.498 -1.5869 -1.0973  0.4639
  828MOL0     H11730   8.202   0.536   7.487  0.8009 -1.3674 -2.7340
  828MOL0     H11731   8.287   0.718   7.704 -0.1930 -0.0215  1.9415
  828MOL0     H11732   8.334   0.642   8.059  0.2723 -0.5164 -0.4385
  828MOL0     H11733   8.342   0.776   7.941 -3.1336  1.9302 -0.1038
  828MOL0     H11734   8.073   0.679   8.030 -0.1634  0.5978 -2.0661
  828MOL0     H11735   8.121   0.829   7.954 -2.2074 -0.5777 -0.4975
  828MOL0     H11736   8.245   0.872   8.186 -0.3362  0.6345 -1.0912
  828MOL0     H11737   8.154   0.729   8.231  1.4389  0.7543 -0.0430
  828MOL0     H11738   8.018   0.975   8.103 -2.3509 -2.2907 -1.0284
  828MOL0     H11739   8.044   0.960   8.282 -0.2845  1.0366  0.1606
  828MOL0     H11740   7.717   0.681   8.134  0.4686  0.0341  1.5384
  828MOL0     H11741   7.391   0.700   8.100  1.2105 -2.3624 -2.6227
  828MOL0     H11742   7.523   0.596   8.168 -0.9521 -0.1800  2.3225
  828MOL0     H11743   7.423   0.687   8.280 -0.1596 -1.2644 -0.4116
  828MOL0     H11744   7.300   1.342   8.212 -0.0298  0.2152 -1.7813
  828MOL0     H11745   7.081   1.475   8.188 -0.6339  1.4576 -0.6569
  828MOL0     H11746   6.898   1.561   8.125  0.2622 -1.5797  1.4858
  828MOL0     H11747   6.906   1.507   7.949 -0.8545  1.2982 -0.0208
  828MOL0     H11748   6.727   1.657   7.999 -0.0235  0.3429  0.5889
  828MOL0     H11749   6.669   1.494   7.949 -1.0426  0.2808  0.7107
  828MOL0     H11750   6.703   1.541   8.249  3.1537  1.6868 -2.5827
  828MOL0     H11751   6.595   1.437   8.167 -1.5586  0.4261 -1.4430
  828MOL0     H11752   6.577   1.748   8.156  1.2080 -0.4755  0.3721
  828MOL0     H11753   6.464   1.631   8.081  1.0650 -1.9723 -1.2493
  828MOL0     H11754   6.526   1.675   8.381  2.2353 -0.1206 -1.8011
  828MOL0     H11755   6.417   1.549   8.325  1.4251 -0.2935  1.4507
  828MOL0     H11756   6.393   1.861   8.264  1.6579 -0.4345  2.5137
  828MOL0     H11757   6.272   1.740   8.224 -3.6434  1.9706  2.4259
  828MOL0     H11758   6.207   1.864   8.419  0.9934  1.2872  2.6572
  828MOL0     H11759   6.351   1.846   8.505 -2.3736 -0.7983  3.9017
  828MOL0     H11760   6.187   1.691   8.603  0.7815 -1.8054  1.6567
  828MOL0     H11761   6.308   1.586   8.532  1.1559  0.7179 -3.1631
  828MOL0     H11762   6.888   1.111   8.074  0.6859 -0.3554 -2.9049
  828MOL0     H11763   7.109   0.999   8.074  1.4375 -0.2655  2.0071
  828MOL0     H11764   7.598   1.150   8.215 -1.7935 -0.0186  0.2125
  828MOL0     H11765   7.819   1.065   8.259 -0.9489  1.1158  0.0082
  828MOL0     H11766   9.276   0.355   7.598 -4.7174 -0.2981 -1.1478
  828MOL0     H11767   9.527   0.310   7.512  0.4403 -0.3782  1.0140
  828MOL0     H11768   9.823   0.367   7.152 -0.2957  0.1544  0.3747
  828MOL0     H11769  10.035   0.316   7.061 -1.1062  0.1809  1.0964
  828MOL0     H11770  10.182   0.228   6.920  1.3025 -1.9754 -2.8011
  828MOL0     H11771  10.278   0.225   7.067  0.9643 -0.6162  0.7519
  828MOL0     H11772  10.413   0.042   6.981 -0.9466  0.7249  1.4779
  828MOL0     H11773  10.417   0.188   6.883 -0.5577  1.0375  1.8755
  828MOL0     H11774  10.355   0.063   6.695  2.4307 -2.1325 -0.3999
  828MOL0     H11775  10.217  -0.002   6.794 -0.2882 -1.1218  0.3578
  828MOL0     H11776  10.339  -0.190   6.870  0.7801 -0.6037 -0.8013
  828MOL0     H11777  10.495  -0.124   6.840  1.8858 -1.6360 -2.8846
  828MOL0     H11778  10.395  -0.213   6.437  1.1041  2.3137 -0.4144
  828MOL0     H11779  10.008  -0.089   7.197 -0.8372 -0.6103 -0.0012
  828MOL0     H11780   9.807  -0.049   7.293 -0.4214 -0.0782 -0.3644
  829MOL0     O11781   7.414   2.737  10.041  0.3209 -0.7317 -0.4027
  829MOL0     C11782   7.424   2.839   9.968  0.0781 -0.7160 -0.1779
  829MOL0     O11783   7.320   2.919   9.910 -0.1280  0.1639 -0.2802
  829MOL0     C11784   7.196   2.873   9.930 -0.3799 -0.9257 -0.0696
  829MOL0     C11785   7.140   2.835   9.806  0.1358  0.1480 -0.8592
  829MOL0     C11786   7.011   2.793   9.801  0.3536  0.8440 -0.3670
  829MOL0     C11787   6.936   2.788   9.925 -0.7206 -0.5514 -0.5253
  829MOL0     O11788   6.810   2.748   9.892  0.3640 -0.3785 -0.2963
  829MOL0     C11789   6.714   2.736   9.997  0.5677  0.1599 -0.0842
  829MOL0     C11790   6.569   2.712   9.932 -0.0945 -0.0456  0.2105
  829MOL0     C11791   6.562   2.578   9.853 -0.6875  0.6298 -0.2211
  829MOL0     C11792   6.430   2.562   9.797 -0.6499 -0.1193  0.9393
  829MOL0     C11793   6.407   2.419   9.735 -0.7586  0.2825  1.0130
  829MOL0     C11794   6.264   2.395   9.679 -0.5305  0.4679  0.3625
  829MOL0     C11795   6.157   2.397   9.793 -0.4843  0.3226 -0.2534
  829MOL0     C11796   6.032   2.459   9.735 -0.6170 -0.1467 -0.5321
  829MOL0     N11797   5.904   2.439   9.808  0.8287  0.8268  0.4092
  829MOL0     C11798   5.848   2.501   9.919 -0.1281  1.1514 -0.5742
  829MOL0     C11799   5.715   2.462   9.917 -0.5031 -0.0956 -0.2871
  829MOL0     C11800   5.604   2.510  10.012 -0.6253  1.1109  0.4732
  829MOL0     C11801   5.542   2.381  10.072 -0.3091  0.1395  0.4902
  829MOL0     C11802   5.411   2.397  10.160 -0.8012  0.1590  0.4853
  829MOL0     C11803   5.286   2.420  10.073 -0.0116  0.6646 -0.4057
  829MOL0     O11804   5.173   2.406  10.156  0.0706 -0.3302 -0.0182
  829MOL0     C11805   5.056   2.455  10.095 -0.5877 -1.3516  0.1011
  829MOL0     C11806   5.014   2.406   9.970 -0.1037 -0.6762  0.3935
  829MOL0     C11807   4.898   2.443   9.909  0.1519  0.1433 -0.2729
  829MOL0     C11808   4.866   2.388   9.774 -0.0421  0.1697  0.4054
  829MOL0     C11809   4.815   2.535   9.976  0.5868 -0.1565 -0.9408
  829MOL0     C11810   4.684   2.589   9.914  0.2172  1.0993  0.1251
  829MOL0     O11811   4.611   2.665   9.999  0.1952 -0.4253  0.8089
  829MOL0     C11812   4.474   2.676   9.968  0.5469 -0.4838  0.1627
  829MOL0     C11813   4.431   2.746   9.861 -0.3754  0.2738  0.4182
  829MOL0     C11814   4.293   2.759   9.831  0.0667  0.6187  0.2722
  829MOL0     C11815   4.206   2.712   9.925  0.0571  0.5569  0.2007
  829MOL0     O11816   4.078   2.745   9.901 -0.3787 -0.1970 -0.0051
  829MOL0     C11817   3.981   2.728  10.004 -0.5164  0.2420  0.2358
  829MOL0     C11818   3.862   2.788   9.941 -0.0131 -0.5327  0.0824
  829MOL0     C11819   3.884   2.936   9.903  0.3494  0.6418  0.0131
  829MOL0     C11820   3.758   3.016   9.872  0.2652  1.3574  0.4792
  829MOL0     C11821   3.784   3.167   9.861  1.1287  0.9205 -0.6223
  829MOL0     C11822   3.862   3.235   9.987 -0.1336 -0.1172 -0.4114
  829MOL0     C11823   3.768   3.258  10.108  0.3388 -0.5916 -0.8072
  829MOL0     C11824   3.665   3.378  10.079 -0.1485 -0.5546  0.4624
  829MOL0    Cl11825   3.565   3.416  10.224 -0.2999 -0.2487  0.1433
  829MOL0     C11826   4.247   2.626  10.028  0.2582  0.1547  0.0477
  829MOL0     C11827   4.387   2.604  10.047 -0.2216  0.0284 -0.1325
  829MOL0     O11828   4.637   2.546   9.806 -0.7643 -0.2930 -0.4756
  829MOL0     C11829   4.854   2.574  10.102 -0.5388  0.1533  0.5404
  829MOL0     C11830   4.970   2.531  10.169  0.0030  0.1323 -0.6328
  829MOL0     N11831   5.694   2.383   9.803 -0.0650  0.0523  0.8506
  829MOL0     N11832   5.801   2.374   9.740 -0.2728  0.2379 -0.1921
  829MOL0     C11833   6.995   2.818  10.050  1.0936  0.4780 -0.1892
  829MOL0     C11834   7.123   2.869  10.056 -0.5913  0.0829  0.0919
  829MOL0     C11835   7.567   2.878   9.927  0.0160 -0.3548  0.4840
  829MOL0     C11836   7.590   2.964   9.815 -0.3231 -0.2637  0.6019
  829MOL0     C11837   7.720   2.992   9.776 -0.3993 -0.4111  0.3609
  829MOL0     C11838   7.831   2.959   9.858  0.4731 -0.1022 -1.1501
  829MOL0     O11839   7.959   3.000   9.818 -0.1307  0.7201  0.8254
  829MOL0     C11840   8.068   2.934   9.885 -0.0230 -0.4108  0.0064
  829MOL0     C11841   8.195   2.987   9.839  0.2253  0.2926 -0.1884
  829MOL0     C11842   8.223   2.981   9.693 -0.2429 -0.3479 -0.5142
  829MOL0     C11843   8.358   3.050   9.655  0.3713  0.5667 -0.0956
  829MOL0     C11844   8.466   2.971   9.715 -0.1030  0.2459 -0.0205
  829MOL0     C11845   8.567   2.909   9.756  0.7800  0.4616  0.8670
  829MOL0     C11846   7.804   2.872   9.966 -0.3765  0.5797  0.4288
  829MOL0     C11847   7.676   2.829  10.001 -0.1770  0.3825  0.9591
  829MOL0     H11848   7.201   2.837   9.716 -0.5969  0.4951 -1.3607
  829MOL0     H11849   6.973   2.760   9.705  0.0380 -1.9339  0.6154
  829MOL0     H11850   6.736   2.652  10.063 -1.2092  1.1563  1.9065
  829MOL0     H11851   6.716   2.828  10.056 -1.7722  0.8285 -0.9480
  829MOL0     H11852   6.490   2.715  10.007  0.2467  0.2850  0.5661
  829MOL0     H11853   6.551   2.785   9.853  2.4146 -1.5264 -1.8933
  829MOL0     H11854   6.639   2.577   9.774  1.7036  4.4216  1.7498
  829MOL0     H11855   6.591   2.499   9.923 -0.4681 -0.6492 -1.6961
  829MOL0     H11856   6.358   2.578   9.878 -0.8717 -1.2444  0.9749
  829MOL0     H11857   6.418   2.644   9.726  2.9089 -0.3304 -0.0862
  829MOL0     H11858   6.475   2.402   9.651 -4.0625  3.1222 -2.5920
  829MOL0     H11859   6.420   2.348   9.818  0.3297 -1.2937 -0.4353
  829MOL0     H11860   6.239   2.471   9.604 -1.5905 -1.4225 -1.2979
  829MOL0     H11861   6.263   2.297   9.630 -1.3475  0.7448 -0.1926
  829MOL0     H11862   6.141   2.296   9.831 -0.0007  0.3105 -0.0794
  829MOL0     H11863   6.195   2.459   9.874 -0.3107 -0.6639  0.4402
  829MOL0     H11864   6.015   2.405   9.641  0.3256 -0.4193 -0.5532
  829MOL0     H11865   6.044   2.565   9.716 -2.0725 -0.0408 -0.9523
  829MOL0     H11866   5.885   2.566   9.997  0.6578  1.9771 -1.6032
  829MOL0     H11867   5.647   2.572  10.091  1.1450  1.2755 -0.5565
  829MOL0     H11868   5.517   2.562   9.972 -1.7323 -0.9341  0.0843
  829MOL0     H11869   5.613   2.332  10.139 -0.8197 -3.5126 -1.4029
  829MOL0     H11870   5.536   2.316   9.985  1.5327  1.7285 -0.9279
  829MOL0     H11871   5.425   2.477  10.234 -1.0936 -0.7302  1.5159
  829MOL0     H11872   5.386   2.306  10.215  2.0326 -0.1011  1.4852
  829MOL0     H11873   5.276   2.334  10.006 -1.5923 -1.7878  2.6822
  829MOL0     H11874   5.273   2.517  10.026  0.9801  1.5592  1.0826
  829MOL0     H11875   5.080   2.339   9.917  0.0847 -0.0776 -0.1467
  829MOL0     H11876   4.768   2.340   9.780 -0.4066  0.6861 -1.0028
  829MOL0     H11877   4.860   2.466   9.698 -0.1832  1.2866  1.5430
  829MOL0     H11878   4.937   2.314   9.736 -1.6780 -2.7373  2.6254
  829MOL0     H11879   4.507   2.799   9.805  3.0489 -3.6000  0.9401
  829MOL0     H11880   4.247   2.809   9.747 -0.1254 -2.1707 -1.3938
  829MOL0     H11881   3.947   2.625  10.015  0.7252 -0.3880 -1.4365
  829MOL0     H11882   4.002   2.769  10.103 -0.7772  0.1307  0.3375
  829MOL0     H11883   3.827   2.722   9.861  0.4356 -3.5306  2.1901
  829MOL0     H11884   3.780   2.770  10.012  0.3033  0.7122  0.7933
  829MOL0     H11885   3.946   2.938   9.813 -0.7502  2.5367 -0.7669
  829MOL0     H11886   3.933   2.976   9.993 -0.2763 -3.1713  2.2462
  829MOL0     H11887   3.729   2.972   9.776  0.9344  1.8536  0.0468
  829MOL0     H11888   3.677   2.995   9.943  1.2448  3.0816  2.1748
  829MOL0     H11889   3.688   3.213   9.833 -1.6055 -3.5306  0.3453
  829MOL0     H11890   3.852   3.177   9.776  3.2027 -2.5527  0.4452
  829MOL0     H11891   3.941   3.178  10.037 -2.1144 -2.0537  0.6941
  829MOL0     H11892   3.911   3.329   9.958  0.2705 -0.3945 -0.6230
  829MOL0     H11893   3.828   3.297  10.190 -0.5504 -0.7266 -0.0781
  829MOL0     H11894   3.718   3.168  10.144 -2.7115 -0.0511 -3.2128
  829MOL0     H11895   3.594   3.346  10.003 -0.9296  1.8439  0.0908
  829MOL0     H11896   3.723   3.464  10.042 -3.4429  0.7304 -2.2536
  829MOL0     H11897   4.173   2.578  10.092  0.6438  2.6887  2.6255
  829MOL0     H11898   4.417   2.551  10.137 -2.0913 -1.4758 -0.3141
  829MOL0     H11899   4.788   2.643  10.154 -0.4928  0.6607 -0.0602
  829MOL0     H11900   4.996   2.553  10.272 -1.7479 -0.2357 -0.0656
  829MOL0     H11901   6.931   2.804  10.137  1.2976  0.8868  0.0281
  829MOL0     H11902   7.181   2.914  10.136  3.5472 -1.9791 -1.4541
  829MOL0     H11903   7.509   3.005   9.756 -0.0114 -0.7709 -0.2039
  829MOL0     H11904   7.741   3.058   9.693 -0.4756  2.4037  2.4154
  829MOL0     H11905   8.051   2.948   9.992 -2.2430  0.3407 -0.3842
  829MOL0     H11906   8.070   2.824   9.881  0.9820 -0.3674 -2.2406
  829MOL0     H11907   8.266   2.929   9.898 -1.4047 -0.7573  0.8424
  829MOL0     H11908   8.194   3.093   9.866 -1.8627  0.6495 -1.4261
  829MOL0     H11909   8.134   3.026   9.647 -2.5722 -3.3794  0.7318
  829MOL0     H11910   8.225   2.879   9.654 -2.8056  0.2699 -2.5246
  829MOL0     H11911   8.371   3.153   9.691  0.0094  0.2884  0.8399
  829MOL0     H11912   8.375   3.040   9.547  2.5557 -1.5619  0.3633
  829MOL0     H11913   8.651   2.849   9.782  1.1997  1.8388  2.9481
  829MOL0     H11914   7.890   2.833  10.018  0.4699 -0.5605 -1.6913
  829MOL0     H11915   7.656   2.759  10.082 -1.0279  0.2914  0.6857
  830MOL0     O11916   7.527   2.000   7.979 -0.2308  0.2469 -0.3586
  830MOL0     C11917   7.477   1.927   7.892  0.3349  0.2375 -0.3786
  830MOL0     O11918   7.552   1.839   7.821  0.1439  0.3907  0.2216
  830MOL0     C11919   7.686   1.818   7.844  1.0200 -0.0804  0.6944
  830MOL0     C11920   7.790   1.907   7.823 -0.3739 -0.3611  0.3144
  830MOL0     C11921   7.923   1.886   7.852  0.0588  0.1228 -0.4733
  830MOL0     C11922   7.962   1.766   7.906 -0.5246 -0.1136 -0.2059
  830MOL0     O11923   8.089   1.740   7.945 -0.2922 -0.4858  0.4207
  830MOL0     C11924   8.166   1.642   7.876  0.4737  0.0436  0.4667
  830MOL0     C11925   8.299   1.698   7.865 -0.2313 -0.5405 -0.9919
  830MOL0     C11926   8.411   1.610   7.812 -0.6221  0.2731 -1.0356
  830MOL0     C11927   8.445   1.621   7.665 -0.0657 -0.4111  0.7178
  830MOL0     C11928   8.517   1.509   7.587  0.4134 -0.0831  0.0998
  830MOL0     C11929   8.626   1.436   7.677  0.0142  0.1086 -0.0751
  830MOL0     C11930   8.738   1.527   7.710  0.5922 -0.2294 -0.4863
  830MOL0     C11931   8.851   1.442   7.764 -0.8218 -0.4442  0.1526
  830MOL0     N11932   8.837   1.418   7.908  0.1541  0.0614  0.0480
  830MOL0     C11933   8.882   1.489   8.014 -0.1209 -0.7544 -0.2979
  830MOL0     C11934   8.833   1.441   8.134  0.2097  0.3998  0.0525
  830MOL0     C11935   8.879   1.483   8.279  0.1933  0.2477  0.2247
  830MOL0     C11936   8.806   1.410   8.384 -0.0261  0.1153 -0.1021
  830MOL0     C11937   8.652   1.423   8.380  0.1241 -1.0669 -0.9834
  830MOL0     C11938   8.584   1.305   8.444 -0.6337  0.0071 -0.6033
  830MOL0     O11939   8.450   1.353   8.458 -0.0534  0.9015 -0.3089
  830MOL0     C11940   8.353   1.321   8.366  0.1250  0.3677  0.3142
  830MOL0     C11941   8.374   1.255   8.243  0.1010 -0.2497 -0.1573
  830MOL0     C11942   8.278   1.233   8.142  0.7911  0.0966 -0.8948
  830MOL0     C11943   8.323   1.164   8.021  0.7080  0.6442  0.1289
  830MOL0     C11944   8.153   1.285   8.170  0.1500  0.1920 -0.7195
  830MOL0     C11945   8.034   1.274   8.088 -0.8844 -0.2535 -0.4610
  830MOL0     O11946   7.927   1.346   8.133 -0.4037 -0.4496  0.1987
  830MOL0     C11947   7.798   1.349   8.063 -0.6365  0.2827 -0.2550
  830MOL0     C11948   7.691   1.383   8.141 -0.9219 -0.2143 -0.5171
  830MOL0     C11949   7.565   1.400   8.085 -0.7440 -0.2697  0.9926
  830MOL0     C11950   7.539   1.352   7.953 -0.9224 -0.5544 -0.1385
  830MOL0     O11951   7.416   1.379   7.907  0.1976  0.2049 -0.4833
  830MOL0     C11952   7.372   1.298   7.804  0.2643  0.1427 -0.2525
  830MOL0     C11953   7.218   1.303   7.807 -0.2512 -0.1743  0.1563
  830MOL0     C11954   7.174   1.252   7.656  0.1326  0.2343 -0.5237
  830MOL0     C11955   7.232   1.124   7.592  0.4541 -0.4533  1.0518
  830MOL0     C11956   7.167   1.094   7.457  0.1149 -0.1541 -0.1009
  830MOL0     C11957   7.218   1.189   7.348  0.0862  0.6388 -0.0537
  830MOL0     C11958   7.127   1.157   7.232 -0.2179  0.3570  1.6440
  830MOL0     C11959   7.050   1.277   7.183 -0.2743 -0.5171  0.1108
  830MOL0    Cl11960   6.911   1.299   7.285  0.1088 -0.1097  0.0213
  830MOL0     C11961   7.645   1.295   7.886 -0.7773 -0.7833  0.0215
  830MOL0     C11962   7.779   1.307   7.935  0.2722  0.9536  0.3501
  830MOL0     O11963   8.048   1.211   7.982 -0.4685  0.2638  0.9082
  830MOL0     C11964   8.132   1.347   8.290 -0.0237 -0.3277 -0.4152
  830MOL0     C11965   8.232   1.365   8.387  0.0474 -0.5219 -0.1000
  830MOL0     N11966   8.759   1.330   8.093 -1.0138  0.3829  0.0709
  830MOL0     N11967   8.759   1.322   7.964  0.1394 -0.2260  0.4892
  830MOL0     C11968   7.864   1.667   7.919 -0.3383  0.5771  0.5165
  830MOL0     C11969   7.727   1.696   7.884  0.5654  0.5679 -0.3907
  830MOL0     C11970   7.328   1.932   7.866  0.2450 -1.2427 -0.0423
  830MOL0     C11971   7.264   1.874   7.760  0.4161  0.1291  0.4164
  830MOL0     C11972   7.124   1.893   7.744 -0.5284 -0.1687  0.2077
  830MOL0     C11973   7.047   1.981   7.829  0.1839  0.2952 -1.0958
  830MOL0     O11974   6.912   2.007   7.806 -0.0277  0.2946 -0.0091
  830MOL0     C11975   6.835   1.891   7.776  0.0979  0.5449 -0.2270
  830MOL0     C11976   6.698   1.936   7.749 -0.2145 -0.5016 -0.5028
  830MOL0     C11977   6.601   1.941   7.868 -0.1537 -0.5690  0.0318
  830MOL0     C11978   6.471   2.020   7.831  0.4108  0.5781  0.4483
  830MOL0     C11979   6.415   2.058   7.957  0.1216  0.5215 -1.0724
  830MOL0     C11980   6.369   2.099   8.061  0.1933  0.5587 -0.7371
  830MOL0     C11981   7.112   2.035   7.940 -0.0653  0.4474  0.6097
  830MOL0     C11982   7.253   2.012   7.957 -0.0390  0.0929 -0.9133
  830MOL0     H11983   7.773   2.004   7.776  0.7908 -1.8746 -3.6130
  830MOL0     H11984   8.000   1.957   7.824  0.6354 -0.2668  0.0959
  830MOL0     H11985   8.151   1.543   7.921 -2.0129  1.0884  2.1571
  830MOL0     H11986   8.122   1.636   7.776 -1.9979  1.4066  1.3713
  830MOL0     H11987   8.315   1.784   7.798  0.8440  0.3738  0.3868
  830MOL0     H11988   8.329   1.729   7.965 -1.5597 -0.1490 -0.6900
  830MOL0     H11989   8.497   1.624   7.878 -2.7753 -1.1871  2.3702
  830MOL0     H11990   8.398   1.503   7.833  2.4834  0.3746  2.4635
  830MOL0     H11991   8.361   1.660   7.606 -1.0783  3.5745  4.2655
  830MOL0     H11992   8.515   1.705   7.666 -0.2053 -0.2102 -1.4695
  830MOL0     H11993   8.445   1.435   7.552 -0.6903  0.2799  1.4960
  830MOL0     H11994   8.567   1.554   7.501  1.0530  2.6448  1.7648
  830MOL0     H11995   8.572   1.405   7.767  1.1217 -0.3927  0.4263
  830MOL0     H11996   8.672   1.347   7.633 -3.0586 -1.5881 -0.1569
  830MOL0     H11997   8.768   1.572   7.615  5.2559  1.2624  1.4194
  830MOL0     H11998   8.704   1.604   7.779 -5.2863 -3.1905  0.5330
  830MOL0     H11999   8.940   1.505   7.752  0.8487 -2.5758  0.8222
  830MOL0     H12000   8.861   1.344   7.717  0.9456 -0.7865  1.1407
  830MOL0     H12001   8.944   1.578   8.014  0.3382 -1.0719 -0.2143
  830MOL0     H12002   8.988   1.477   8.287  0.3052 -1.5564 -1.6098
  830MOL0     H12003   8.855   1.589   8.280  0.5363  0.3385 -0.7392
  830MOL0     H12004   8.827   1.427   8.490 -1.3371 -0.9923  0.3580
  830MOL0     H12005   8.833   1.309   8.351  0.5122 -0.6055  2.3783
  830MOL0     H12006   8.614   1.438   8.278 -2.4592 -0.0679  0.0448
  830MOL0     H12007   8.630   1.516   8.433  3.3036 -1.4254  1.2743
  830MOL0     H12008   8.613   1.279   8.546  0.0407  0.0057 -0.7909
  830MOL0     H12009   8.587   1.215   8.382 -0.8428  1.7206 -3.2574
  830MOL0     H12010   8.473   1.215   8.222 -0.6669 -2.0807 -0.5000
  830MOL0     H12011   8.279   1.063   8.018  1.4827  0.3101 -0.1973
  830MOL0     H12012   8.292   1.212   7.928 -0.5756  0.6019  0.5070
  830MOL0     H12013   8.431   1.147   8.018  0.7895  1.2810 -0.6578
  830MOL0     H12014   7.703   1.410   8.245 -0.7992 -0.2628 -0.5188
  830MOL0     H12015   7.472   1.425   8.135 -1.3024 -0.9840  0.3345
  830MOL0     H12016   7.418   1.340   7.713 -2.9274  2.1693 -1.0999
  830MOL0     H12017   7.403   1.196   7.828  0.3457  0.4922  1.2140
  830MOL0     H12018   7.186   1.237   7.888 -2.9019 -1.9946 -2.1652
  830MOL0     H12019   7.173   1.403   7.812 -1.3607 -0.3239 -3.7731
  830MOL0     H12020   7.213   1.335   7.596 -1.2703  0.7274 -0.7927
  830MOL0     H12021   7.066   1.247   7.645 -0.1488  0.7312  1.5109
  830MOL0     H12022   7.338   1.147   7.578  0.0453  1.1820  0.3664
  830MOL0     H12023   7.215   1.042   7.662 -2.9793 -1.2463 -0.5112
  830MOL0     H12024   7.059   1.111   7.464  0.5219  2.1162  3.5792
  830MOL0     H12025   7.184   0.990   7.428 -3.4350 -0.5669 -1.1346
  830MOL0     H12026   7.218   1.293   7.381  1.0696  0.3335  1.0087
  830MOL0     H12027   7.322   1.173   7.319 -0.5872  0.8828 -2.8321
  830MOL0     H12028   7.061   1.073   7.253 -2.0641  1.4551  0.5498
  830MOL0     H12029   7.189   1.136   7.144 -0.6801  1.6302  0.9821
  830MOL0     H12030   7.027   1.269   7.076  3.4424  2.5296 -1.1221
  830MOL0     H12031   7.112   1.365   7.196 -3.1584  1.3837  2.2288
  830MOL0     H12032   7.628   1.255   7.787 -0.7120 -0.1521 -0.2418
  830MOL0     H12033   7.857   1.261   7.876 -2.8854 -2.8826 -1.3252
  830MOL0     H12034   8.040   1.399   8.317 -0.8604 -1.1248 -1.5996
  830MOL0     H12035   8.213   1.422   8.478  2.0234 -0.7908  0.5322
  830MOL0     H12036   7.884   1.568   7.957 -0.7396  1.1196  2.2200
  830MOL0     H12037   7.658   1.612   7.896  0.1329  1.0384  0.5719
  830MOL0     H12038   7.326   1.815   7.693  1.8743 -1.2215  2.7810
  830MOL0     H12039   7.061   1.861   7.662  1.3838  1.0973 -1.8885
  830MOL0     H12040   6.861   1.839   7.683 -1.9541  0.7595 -0.9725
  830MOL0     H12041   6.839   1.830   7.866 -0.4849 -0.3135 -0.7715
  830MOL0     H12042   6.653   1.876   7.670 -0.6247  1.5899 -1.9010
  830MOL0     H12043   6.707   2.035   7.704  1.6476 -1.6477 -2.8400
  830MOL0     H12044   6.656   2.000   7.942 -0.3423  1.0378 -1.0535
  830MOL0     H12045   6.575   1.842   7.906  2.5200 -1.0997  0.7463
  830MOL0     H12046   6.401   1.954   7.777  0.8556 -2.6910  3.4970
  830MOL0     H12047   6.488   2.104   7.763 -1.6367  0.6236 -0.0877
  830MOL0     H12048   6.324   2.124   8.155 -0.4907 -2.2160 -0.2379
  830MOL0     H12049   7.064   2.098   8.014  2.0485  2.9281  0.0380
  830MOL0     H12050   7.292   2.059   8.047 -2.7022 -0.3757  0.5823
  831MOL0     O12051   0.287   7.903   9.028  0.7948  0.0193  0.0432
  831MOL0     C12052   0.250   7.876   9.143  0.6621  0.5654 -0.5298
  831MOL0     O12053   0.302   7.905   9.266  0.3308  0.9458 -0.2966
  831MOL0     C12054   0.393   8.010   9.260 -0.0892 -0.0537 -0.2690
  831MOL0     C12055   0.351   8.137   9.276  0.3949  0.2017  0.3336
  831MOL0     C12056   0.437   8.252   9.301 -0.2452  0.7285  0.3067
  831MOL0     C12057   0.574   8.232   9.310  0.0788 -0.0948 -0.9205
  831MOL0     O12058   0.654   8.342   9.324  0.2263 -0.0285  0.4801
  831MOL0     C12059   0.776   8.340   9.388  0.2806  0.5062  0.8082
  831MOL0     C12060   0.774   8.329   9.537 -0.2406 -0.0681 -0.3737
  831MOL0     C12061   0.711   8.451   9.613 -0.0293  0.1508 -0.6152
  831MOL0     C12062   0.564   8.461   9.645  0.3406  0.4040 -0.2616
  831MOL0     C12063   0.532   8.564   9.768 -0.8211 -0.5458  0.7255
  831MOL0     C12064   0.438   8.517   9.878  1.1880  0.2616 -0.6765
  831MOL0     C12065   0.297   8.493   9.825  0.5587 -0.2523  0.1042
  831MOL0     C12066   0.208   8.427   9.925  0.0622  0.3818  0.5295
  831MOL0     N12067   0.141   8.531  10.001  0.9366 -0.8368  0.5715
  831MOL0     C12068   0.053   8.632   9.952  0.8536 -0.3262  0.4856
  831MOL0     C12069   0.032   8.724  10.053 -0.1540  0.3454 -0.5289
  831MOL0     C12070  -0.021   8.855  10.029 -0.3592  0.2674 -0.8217
  831MOL0     C12071  -0.158   8.864  10.089 -0.4600 -0.0932 -1.2349
  831MOL0     C12072  -0.266   8.817   9.995 -0.5981  0.5620 -0.4869
  831MOL0     C12073  -0.409   8.847  10.064 -0.0617  0.3911 -0.1015
  831MOL0     O12074  -0.415   8.763  10.183 -0.0510  0.3407 -0.1747
  831MOL0     C12075  -0.532   8.763  10.249  0.3009 -0.6622 -0.0983
  831MOL0     C12076  -0.639   8.857  10.231 -0.6052 -0.1727  0.3209
  831MOL0     C12077  -0.758   8.843  10.293  0.6574 -0.0505  0.7016
  831MOL0     C12078  -0.855   8.958  10.279  0.5259  0.8564 -0.2500
  831MOL0     C12079  -0.784   8.734  10.381  0.3717 -0.1219  0.1379
  831MOL0     C12080  -0.912   8.699  10.443  0.7405 -0.0388 -0.2667
  831MOL0     O12081  -0.955   8.570  10.471 -0.0532  0.1546  1.0007
  831MOL0     C12082  -1.083   8.568  10.534  0.0208  1.0412 -0.2677
  831MOL0     C12083  -1.092   8.616  10.664 -0.1456 -0.2030 -0.0088
  831MOL0     C12084  -1.215   8.627  10.740 -0.2188 -0.5023 -0.0147
  831MOL0     C12085  -1.333   8.590  10.676  0.7405  0.2531 -0.5541
  831MOL0     O12086  -1.456   8.595  10.740 -0.4839 -0.2845  0.4739
  831MOL0     C12087  -1.483   8.696  10.836 -0.3765  0.4193  0.0223
  831MOL0     C12088  -1.610   8.667  10.911 -0.3330  0.5516  0.6118
  831MOL0     C12089  -1.746   8.672  10.831 -0.2840  0.0128  0.0407
  831MOL0     C12090  -1.847   8.580  10.907 -0.7970 -0.2530 -0.6755
  831MOL0     C12091  -1.968   8.564  10.817  0.2558 -0.7378 -0.1840
  831MOL0     C12092  -2.087   8.487  10.893 -0.1514  0.0724 -0.9498
  831MOL0     C12093  -2.220   8.541  10.831 -1.0600  0.7841 -0.0199
  831MOL0     C12094  -2.345   8.483  10.898  0.3573  0.2737  0.2439
  831MOL0    Cl12095  -2.350   8.307  10.893  0.1308 -0.2879  0.1213
  831MOL0     C12096  -1.328   8.539  10.536 -0.6832  0.2664  0.1155
  831MOL0     C12097  -1.205   8.530  10.477  0.2374  0.4311  0.3652
  831MOL0     O12098  -0.975   8.806  10.472  0.2481  0.2051  0.1391
  831MOL0     C12099  -0.681   8.642  10.408 -0.2109 -0.5514  0.0839
  831MOL0     C12100  -0.553   8.663  10.348  0.5193  0.0379  0.1705
  831MOL0     N12101   0.108   8.680  10.160  0.0650  0.0951  0.1385
  831MOL0     N12102   0.159   8.567  10.131 -0.1470  0.3518  0.2381
  831MOL0     C12103   0.623   8.105   9.276 -0.0651 -0.3106  1.1153
  831MOL0     C12104   0.530   7.995   9.253 -0.7433 -0.8350  0.1322
  831MOL0     C12105   0.135   7.777   9.139 -0.4813  0.1806  0.4289
  831MOL0     C12106   0.079   7.726   9.255 -0.4581 -0.5332  1.2185
  831MOL0     C12107  -0.034   7.653   9.264  0.4398 -0.6770  0.1750
  831MOL0     C12108  -0.105   7.620   9.151  0.0273 -0.8738 -0.2084
  831MOL0     O12109  -0.205   7.530   9.159 -0.1156  0.2146  0.0124
  831MOL0     C12110  -0.332   7.572   9.219  1.2903  0.0330 -0.0817
  831MOL0     C12111  -0.425   7.476   9.150  0.5151 -0.2519  0.2729
  831MOL0     C12112  -0.578   7.516   9.174 -0.1536 -1.3560 -0.3351
  831MOL0     C12113  -0.671   7.436   9.089  0.5131  0.6864  0.6739
  831MOL0     C12114  -0.801   7.470   9.141  0.0076 -0.1502  0.6596
  831MOL0     C12115  -0.911   7.512   9.176 -0.4285  0.3007 -0.7429
  831MOL0     C12116  -0.061   7.678   9.030  0.0388 -0.0873  0.8896
  831MOL0     C12117   0.061   7.753   9.017 -1.0451 -0.3443 -0.2065
  831MOL0     H12118   0.246   8.156   9.294 -0.0404 -1.6902 -0.0130
  831MOL0     H12119   0.415   8.354   9.328 -3.6661  0.4324 -0.9291
  831MOL0     H12120   0.854   8.276   9.345 -0.8007  0.6103 -1.4472
  831MOL0     H12121   0.811   8.442   9.370 -2.8405  1.0829 -3.4827
  831MOL0     H12122   0.712   8.240   9.549  0.0592 -0.2475 -0.1379
  831MOL0     H12123   0.877   8.320   9.571 -0.3849  0.5479  0.2561
  831MOL0     H12124   0.759   8.458   9.711  0.2145 -0.7981 -0.6562
  831MOL0     H12125   0.752   8.539   9.564  1.3271 -1.3334 -2.3074
  831MOL0     H12126   0.509   8.491   9.556  0.2877  0.5321 -0.1851
  831MOL0     H12127   0.536   8.361   9.681  1.2041  0.7979  1.6384
  831MOL0     H12128   0.625   8.591   9.818 -0.1192 -1.5352 -0.0045
  831MOL0     H12129   0.497   8.663   9.736 -1.0026  0.0975  2.8013
  831MOL0     H12130   0.480   8.424   9.916 -0.0659  0.3933  1.1824
  831MOL0     H12131   0.422   8.587   9.960 -0.3477 -0.9280  0.1090
  831MOL0     H12132   0.251   8.587   9.793 -1.3265 -1.0676  0.2895
  831MOL0     H12133   0.308   8.421   9.743  0.5935 -1.2879  0.9990
  831MOL0     H12134   0.269   8.377  10.001  1.2126 -1.2560 -1.3755
  831MOL0     H12135   0.138   8.368   9.865 -0.9924  2.9548 -0.8911
  831MOL0     H12136   0.002   8.631   9.856 -1.0388 -4.7270  1.2466
  831MOL0     H12137   0.055   8.923  10.068  0.3167 -1.0834  0.3160
  831MOL0     H12138  -0.028   8.869   9.920 -2.9063 -1.4930 -0.9798
  831MOL0     H12139  -0.174   8.961  10.137  2.1101 -1.9558  4.0910
  831MOL0     H12140  -0.157   8.801  10.178  0.2480 -1.0094 -1.8755
  831MOL0     H12141  -0.250   8.710   9.979 -2.5838 -0.3706  2.7605
  831MOL0     H12142  -0.259   8.868   9.898  3.5971  1.2743 -0.0093
  831MOL0     H12143  -0.491   8.820   9.998 -0.1872 -1.3678  0.6939
  831MOL0     H12144  -0.420   8.953  10.088 -2.3004  0.3087 -0.5499
  831MOL0     H12145  -0.633   8.942  10.164  1.5072  2.1514  3.1796
  831MOL0     H12146  -0.946   8.906  10.249  1.8327 -1.7571 -0.0114
  831MOL0     H12147  -0.862   9.021  10.368  1.1094 -1.7764  1.8104
  831MOL0     H12148  -0.827   9.027  10.199 -2.4776 -0.0884 -2.2884
  831MOL0     H12149  -1.005   8.653  10.718 -1.1795  0.6732  1.1243
  831MOL0     H12150  -1.206   8.684  10.831 -0.1669  0.4912 -0.6316
  831MOL0     H12151  -1.406   8.698  10.914  2.2328  2.3301 -2.3873
  831MOL0     H12152  -1.488   8.796  10.792  2.8485  0.8984  0.5031
  831MOL0     H12153  -1.595   8.580  10.975  1.6516  1.4657  1.4674
  831MOL0     H12154  -1.614   8.752  10.980  1.1360  2.2815 -1.3442
  831MOL0     H12155  -1.734   8.640  10.727 -3.7092  0.4785 -0.5950
  831MOL0     H12156  -1.790   8.772  10.829 -2.1550 -0.7744 -0.1656
  831MOL0     H12157  -1.806   8.481  10.927  1.0664  0.0427 -2.6920
  831MOL0     H12158  -1.878   8.620  11.004  0.1776 -1.0955  0.0051
  831MOL0     H12159  -1.938   8.501  10.733 -0.4263  0.0029 -0.9950
  831MOL0     H12160  -2.006   8.663  10.791  1.7737 -0.1696 -0.3910
  831MOL0     H12161  -2.079   8.378  10.890 -0.4525 -0.0828  1.8801
  831MOL0     H12162  -2.079   8.514  10.999 -2.8500  0.1545 -0.7007
  831MOL0     H12163  -2.217   8.512  10.726  1.4630 -0.1307  0.2410
  831MOL0     H12164  -2.222   8.650  10.835 -0.6464  0.7672  1.5739
  831MOL0     H12165  -2.433   8.531  10.855 -1.5124 -0.9047  2.5309
  831MOL0     H12166  -2.343   8.500  11.006  2.3552 -0.9177  0.4601
  831MOL0     H12167  -1.422   8.501  10.498  0.4400 -2.4828 -0.2226
  831MOL0     H12168  -1.186   8.504  10.374  3.2841 -0.8504  1.1358
  831MOL0     H12169  -0.692   8.557  10.474 -0.0929 -0.1451  0.6371
  831MOL0     H12170  -0.471   8.595  10.366 -0.1022 -0.5916  0.7102
  831MOL0     H12171   0.728   8.088   9.254 -0.7031 -0.6493 -2.2358
  831MOL0     H12172   0.572   7.899   9.225  1.3677  0.0922 -0.0797
  831MOL0     H12173   0.130   7.753   9.347 -2.8067  0.5015  2.2831
  831MOL0     H12174  -0.056   7.614   9.363  1.0860 -3.6002 -0.7295
  831MOL0     H12175  -0.335   7.557   9.328  1.7167  0.7439  0.0364
  831MOL0     H12176  -0.360   7.676   9.202  3.1710  0.4319 -1.0754
  831MOL0     H12177  -0.419   7.372   9.183 -1.9767 -0.3712  0.5453
  831MOL0     H12178  -0.408   7.481   9.042  0.8883  1.2059  0.3740
  831MOL0     H12179  -0.604   7.620   9.152 -1.2566 -1.2530  1.2692
  831MOL0     H12180  -0.599   7.502   9.281 -0.4373  1.3588  0.0314
  831MOL0     H12181  -0.634   7.333   9.083  3.0373  1.5184  0.5759
  831MOL0     H12182  -0.671   7.464   8.983 -3.6287  1.1103  0.6136
  831MOL0     H12183  -1.011   7.540   9.203  0.0734  2.0480 -0.5537
  831MOL0     H12184  -0.114   7.658   8.938 -1.6804  2.4740  1.2261
  831MOL0     H12185   0.111   7.786   8.927  0.5658 -1.5937  0.1903
  832MOL0     O12186   6.409   8.873   6.349  0.1709 -0.4790  0.2609
  832MOL0     C12187   6.515   8.918   6.302  1.5907  0.3468  0.5002
  832MOL0     O12188   6.569   8.890   6.175 -0.0440 -0.2306  0.0115
  832MOL0     C12189   6.491   8.824   6.082 -0.1376 -0.3844  0.1795
  832MOL0     C12190   6.353   8.827   6.062 -0.0895 -0.7286 -0.8598
  832MOL0     C12191   6.295   8.743   5.964  0.2549 -0.3311 -0.1771
  832MOL0     C12192   6.368   8.660   5.879 -0.2245  0.2468 -0.2994
  832MOL0     O12193   6.294   8.593   5.788 -0.0461 -0.1084 -0.4872
  832MOL0     C12194   6.377   8.516   5.698 -0.6107  0.2405 -0.1275
  832MOL0     C12195   6.309   8.412   5.628  0.0627  0.1684 -0.4708
  832MOL0     C12196   6.193   8.468   5.529 -0.0939  0.2933 -1.4257
  832MOL0     C12197   6.221   8.448   5.384 -0.0727  0.3486 -0.3281
  832MOL0     C12198   6.109   8.511   5.302  0.2617  0.7965 -0.3932
  832MOL0     C12199   6.129   8.471   5.157 -0.3962  0.5799  0.0157
  832MOL0     C12200   6.027   8.538   5.060 -0.6961  0.3440 -0.2642
  832MOL0     C12201   5.887   8.511   5.110  0.7423  0.6390 -0.6937
  832MOL0     N12202   5.779   8.569   5.020  0.2801  0.8786 -0.5909
  832MOL0     C12203   5.644   8.523   5.016 -0.0229 -1.0660 -0.1186
  832MOL0     C12204   5.592   8.564   4.899 -0.3185 -0.7919  0.5686
  832MOL0     C12205   5.451   8.558   4.849 -0.5887 -0.6207  0.2342
  832MOL0     C12206   5.413   8.479   4.732  0.4017  1.1726  0.9838
  832MOL0     C12207   5.414   8.332   4.770 -0.5879  1.0328  0.1042
  832MOL0     C12208   5.396   8.247   4.654 -0.6617 -0.2826 -0.2998
  832MOL0     O12209   5.266   8.262   4.585  0.5289 -0.4112 -0.6907
  832MOL0     C12210   5.150   8.186   4.607 -1.3093 -1.1832 -0.8571
  832MOL0     C12211   5.136   8.088   4.706 -0.0693  0.0204 -0.6994
  832MOL0     C12212   5.015   8.014   4.716  0.0716 -0.0090 -0.9394
  832MOL0     C12213   5.025   7.913   4.831  0.7136 -0.8808 -1.0901
  832MOL0     C12214   4.900   8.049   4.641  0.3593  0.1132  0.7532
  832MOL0     C12215   4.766   7.990   4.658  0.3580  0.3165 -0.5619
  832MOL0     O12216   4.668   8.007   4.561 -0.5811 -0.5514  0.1084
  832MOL0     C12217   4.541   7.968   4.581 -0.6576  0.0344 -0.2539
  832MOL0     C12218   4.499   7.845   4.629 -0.4370  0.2741 -0.4083
  832MOL0     C12219   4.362   7.805   4.632 -0.2281  0.3302  0.4535
  832MOL0     C12220   4.263   7.901   4.608  0.1798  0.5293  0.5058
  832MOL0     O12221   4.138   7.865   4.618  0.2134  0.7805 -0.0329
  832MOL0     C12222   4.035   7.936   4.545  0.5528 -0.1172 -0.5959
  832MOL0     C12223   3.904   7.875   4.594 -0.3498 -0.4399  0.0869
  832MOL0     C12224   3.797   7.940   4.501 -0.1147  0.4832 -0.1321
  832MOL0     C12225   3.675   7.864   4.515 -0.2809  0.6558  0.2858
  832MOL0     C12226   3.552   7.926   4.445  0.7221  0.5637  0.3503
  832MOL0     C12227   3.423   7.839   4.421 -0.2843  0.0349 -0.3273
  832MOL0     C12228   3.358   7.805   4.557 -0.1491  0.2948 -0.2672
  832MOL0     C12229   3.266   7.683   4.545  0.0910  0.8651  0.3793
  832MOL0    Cl12230   3.193   7.639   4.699  0.3194 -0.3120 -0.5485
  832MOL0     C12231   4.307   8.023   4.558 -0.4744 -0.6996  0.2914
  832MOL0     C12232   4.448   8.060   4.553 -0.2336 -0.3969 -1.1137
  832MOL0     O12233   4.750   7.934   4.759  0.3837  0.2768 -0.4487
  832MOL0     C12234   4.917   8.147   4.535  0.4756 -0.6028 -0.0494
  832MOL0     C12235   5.042   8.211   4.522  0.0667 -0.5748 -0.2354
  832MOL0     N12236   5.693   8.632   4.836 -0.8668  0.3086 -0.1440
  832MOL0     N12237   5.796   8.649   4.919 -0.9609  0.3231  0.1192
  832MOL0     C12238   6.507   8.675   5.891  0.6898  0.0736 -0.2866
  832MOL0     C12239   6.569   8.750   5.997  0.2803  0.3165  0.1176
  832MOL0     C12240   6.583   9.015   6.380  0.3323  0.0955  0.1879
  832MOL0     C12241   6.497   9.093   6.465  0.2215  0.5051  0.6845
  832MOL0     C12242   6.543   9.201   6.534  0.2084 -0.4428  0.0614
  832MOL0     C12243   6.674   9.245   6.516 -0.6126 -0.1087  0.8062
  832MOL0     O12244   6.728   9.358   6.577  0.1149 -0.2500 -0.2755
  832MOL0     C12245   6.656   9.428   6.678 -0.3013 -0.8317 -0.7395
  832MOL0     C12246   6.568   9.546   6.618  0.3500  0.4421  0.3381
  832MOL0     C12247   6.536   9.662   6.707  0.4693 -0.9453  0.0865
  832MOL0     C12248   6.426   9.735   6.640  0.5372  0.8204 -0.0382
  832MOL0     C12249   6.490   9.823   6.540 -0.5047 -0.0328  0.0601
  832MOL0     C12250   6.540   9.899   6.457 -0.0366 -0.1942  1.0020
  832MOL0     C12251   6.762   9.168   6.432  0.1631 -0.5515  0.4502
  832MOL0     C12252   6.712   9.058   6.358  0.6667 -0.7692  0.4719
  832MOL0     H12253   6.287   8.899   6.107  0.8382  2.5627 -4.2737
  832MOL0     H12254   6.187   8.731   5.953  0.3344 -0.0878 -1.3414
  832MOL0     H12255   6.413   8.587   5.623 -0.5126 -1.8029 -2.1091
  832MOL0     H12256   6.455   8.462   5.752 -1.1617  0.5488  1.0178
  832MOL0     H12257   6.380   8.340   5.587  0.3618 -1.8277  3.1090
  832MOL0     H12258   6.258   8.356   5.708  0.7404  4.3504  3.2494
  832MOL0     H12259   6.102   8.413   5.554 -0.2251  0.0411 -2.4274
  832MOL0     H12260   6.164   8.569   5.557  0.5955 -0.6627  3.9119
  832MOL0     H12261   6.308   8.510   5.359 -0.4325  1.0000  0.0321
  832MOL0     H12262   6.232   8.342   5.360 -0.2138 -0.1504  1.6335
  832MOL0     H12263   6.019   8.474   5.353  0.9102 -1.6707 -0.8760
  832MOL0     H12264   6.105   8.620   5.303  0.9585  0.9169 -3.1763
  832MOL0     H12265   6.220   8.519   5.121 -1.5448  2.0782 -1.0253
  832MOL0     H12266   6.135   8.364   5.138 -2.2401  0.5606 -0.6223
  832MOL0     H12267   6.040   8.646   5.064 -1.8006  0.4523  1.8949
  832MOL0     H12268   6.042   8.507   4.956 -0.4549  1.7244 -0.6504
  832MOL0     H12269   5.868   8.540   5.213 -1.6038 -2.4370 -0.1100
  832MOL0     H12270   5.881   8.402   5.108  1.4139  0.5875 -0.2747
  832MOL0     H12271   5.593   8.467   5.093 -0.6778  0.8006  0.8609
  832MOL0     H12272   5.380   8.545   4.931 -1.5998  0.9718 -0.3371
  832MOL0     H12273   5.431   8.663   4.823 -1.7607 -0.9948 -0.4257
  832MOL0     H12274   5.491   8.490   4.657  1.9682  0.1239  2.3913
  832MOL0     H12275   5.317   8.524   4.704  1.0386  3.1035  1.7513
  832MOL0     H12276   5.328   8.315   4.835  0.5046 -1.2119  1.0672
  832MOL0     H12277   5.504   8.294   4.819  0.2673  0.4682 -1.8133
  832MOL0     H12278   5.403   8.141   4.681 -1.7225 -0.3646 -0.3114
  832MOL0     H12279   5.476   8.263   4.581 -0.5451  0.6245  0.0132
  832MOL0     H12280   5.220   8.060   4.769  0.8337 -0.5174 -2.0862
  832MOL0     H12281   4.967   7.820   4.825  0.4065 -1.2121  3.3805
  832MOL0     H12282   5.125   7.878   4.858  0.0311 -3.9191 -2.0962
  832MOL0     H12283   4.982   7.959   4.921  0.9840 -0.8798 -0.9607
  832MOL0     H12284   4.576   7.774   4.660 -0.8800  0.0156  0.1231
  832MOL0     H12285   4.346   7.705   4.670  1.8768 -0.3612 -0.2988
  832MOL0     H12286   4.032   8.042   4.572  0.3493 -0.6267  1.5623
  832MOL0     H12287   4.054   7.941   4.438  1.9270 -0.4727 -0.3959
  832MOL0     H12288   3.914   7.767   4.580 -0.0723 -0.5092  0.7800
  832MOL0     H12289   3.893   7.897   4.701  1.5723 -1.4254  0.5317
  832MOL0     H12290   3.818   7.946   4.394 -2.0659 -3.0413 -0.8803
  832MOL0     H12291   3.780   8.042   4.535 -2.1782 -0.1344  0.8431
  832MOL0     H12292   3.687   7.760   4.483 -1.8828  0.1139  1.2993
  832MOL0     H12293   3.656   7.852   4.623  0.1672 -1.5506  0.1675
  832MOL0     H12294   3.573   7.963   4.345 -1.0137 -0.3466 -0.3918
  832MOL0     H12295   3.515   8.009   4.506 -0.8266  1.1487 -1.2930
  832MOL0     H12296   3.347   7.894   4.364  0.5581  1.1019 -0.4531
  832MOL0     H12297   3.451   7.746   4.371 -0.0718  0.0637 -0.2606
  832MOL0     H12298   3.308   7.892   4.603  0.0518  0.0007  0.5273
  832MOL0     H12299   3.430   7.786   4.637 -0.9117 -0.2504  0.3116
  832MOL0     H12300   3.333   7.602   4.520  1.1785  1.7384  0.3952
  832MOL0     H12301   3.179   7.694   4.480  0.5673 -2.2839 -0.9566
  832MOL0     H12302   4.244   8.101   4.516  0.8779  0.6283  0.6489
  832MOL0     H12303   4.463   8.165   4.532  0.9693  0.0654  1.5854
  832MOL0     H12304   4.834   8.180   4.474  2.5917  2.8551 -1.3196
  832MOL0     H12305   5.047   8.276   4.435 -1.5258  0.4567  0.3874
  832MOL0     H12306   6.570   8.614   5.828 -2.4523 -2.0738 -1.5736
  832MOL0     H12307   6.677   8.746   6.002  0.2482 -1.9700 -0.1574
  832MOL0     H12308   6.399   9.055   6.494 -0.0339  1.2060  0.7677
  832MOL0     H12309   6.478   9.258   6.599  1.0314  2.3324 -1.3797
  832MOL0     H12310   6.584   9.372   6.738 -1.0305  0.1437 -0.6735
  832MOL0     H12311   6.725   9.465   6.754  0.7139 -2.5693 -0.7643
  832MOL0     H12312   6.475   9.502   6.583  1.1629 -2.1913  1.2306
  832MOL0     H12313   6.617   9.590   6.531  1.4369 -1.8816 -0.3110
  832MOL0     H12314   6.627   9.721   6.723 -0.3153  0.2885  0.1794
  832MOL0     H12315   6.502   9.628   6.805 -1.9536 -1.4501 -0.8432
  832MOL0     H12316   6.374   9.804   6.708  0.0020 -0.0097  0.4061
  832MOL0     H12317   6.341   9.680   6.599  0.9292  2.0240 -2.6924
  832MOL0     H12318   6.568   9.958   6.373  0.2766 -3.8712 -1.7213
  832MOL0     H12319   6.857   9.217   6.411 -1.1655  1.4429 -1.2229
  832MOL0     H12320   6.775   9.000   6.290  0.5199 -0.8717  0.4207
  833MOL0     O12321   5.668   6.315   1.245 -0.2434 -0.0838 -1.0979
  833MOL0     C12322   5.697   6.399   1.156  1.3948  0.0721 -0.0939
  833MOL0     O12323   5.604   6.478   1.088  0.4791 -0.2490 -0.6120
  833MOL0     C12324   5.470   6.460   1.126 -0.1055 -1.3211 -0.0848
  833MOL0     C12325   5.382   6.422   1.031  0.1236  1.2135  0.2680
  833MOL0     C12326   5.242   6.421   1.052 -0.7224 -1.1128  1.4632
  833MOL0     C12327   5.189   6.476   1.167  0.2756 -1.0613  0.4802
  833MOL0     O12328   5.054   6.472   1.185  0.5140  0.3355  0.2644
  833MOL0     C12329   5.010   6.540   1.298 -0.2131 -0.3818 -1.2643
  833MOL0     C12330   4.851   6.544   1.304 -0.1013 -0.6574 -0.2853
  833MOL0     C12331   4.788   6.575   1.437 -0.5651  0.7372 -0.9743
  833MOL0     C12332   4.637   6.553   1.429 -0.6025  0.7297  0.5728
  833MOL0     C12333   4.563   6.609   1.550 -0.3285 -0.8660 -0.4511
  833MOL0     C12334   4.424   6.572   1.543  0.7363  0.7725  0.0510
  833MOL0     C12335   4.340   6.631   1.655 -0.2632 -0.6292  0.4075
  833MOL0     C12336   4.206   6.563   1.656  0.5767 -0.4305  0.8371
  833MOL0     N12337   4.101   6.657   1.690 -0.4519  0.6029 -0.4404
  833MOL0     C12338   4.104   6.729   1.803  0.5806  0.3372 -0.3363
  833MOL0     C12339   3.998   6.811   1.787 -0.4335  0.3214  0.1723
  833MOL0     C12340   3.962   6.916   1.898 -0.8419  0.8935  0.3983
  833MOL0     C12341   3.945   7.054   1.836  0.2742 -0.6474  0.3839
  833MOL0     C12342   4.088   7.115   1.797  0.5228  0.1274 -0.7025
  833MOL0     C12343   4.087   7.230   1.695  0.4651 -0.5261 -1.0402
  833MOL0     O12344   4.001   7.206   1.586  0.1306 -0.2661 -0.4233
  833MOL0     C12345   4.047   7.133   1.475  0.2668 -0.2285 -1.0881
  833MOL0     C12346   4.158   7.054   1.461 -0.6396 -1.2623  0.4709
  833MOL0     C12347   4.196   6.994   1.337  0.0019 -0.0372  0.5556
  833MOL0     C12348   4.328   6.922   1.330  0.1859  0.0305 -0.0814
  833MOL0     C12349   4.124   7.033   1.211  0.1788 -0.3314 -0.7888
  833MOL0     C12350   4.152   6.994   1.078 -0.2881 -1.3223  0.2781
  833MOL0     O12351   4.221   6.880   1.049 -0.4033  0.4688  0.1633
  833MOL0     C12352   4.250   6.835   0.917  0.3043  0.1428 -0.3125
  833MOL0     C12353   4.153   6.813   0.821 -0.4459 -0.4957 -0.1065
  833MOL0     C12354   4.189   6.766   0.695  0.9820 -0.3943  0.3402
  833MOL0     C12355   4.317   6.731   0.657  0.2023 -0.2195 -0.2374
  833MOL0     O12356   4.333   6.661   0.537  0.6606 -0.2505  0.5331
  833MOL0     C12357   4.467   6.615   0.502  0.1928  0.1083  1.2368
  833MOL0     C12358   4.492   6.602   0.353  0.7031  0.7393 -0.1494
  833MOL0     C12359   4.463   6.724   0.257  0.7823  0.1230 -0.0932
  833MOL0     C12360   4.312   6.752   0.226 -0.5097  0.1396 -0.0699
  833MOL0     C12361   4.286   6.851   0.112  0.7561 -0.4443 -0.0734
  833MOL0     C12362   4.134   6.863   0.066 -0.5033 -0.1704  0.0502
  833MOL0     C12363   4.071   6.727   0.021 -0.4405 -0.4653  0.2159
  833MOL0     C12364   4.012   6.726  -0.117  0.1251  0.4278  0.2856
  833MOL0    Cl12365   3.941   6.564  -0.144 -0.2175 -0.3697 -0.1935
  833MOL0     C12366   4.413   6.744   0.760 -1.3366  0.2243 -0.7345
  833MOL0     C12367   4.380   6.803   0.886  0.5984 -0.4536 -0.4285
  833MOL0     O12368   4.110   7.070   0.988  0.5417 -0.3613 -0.3038
  833MOL0     C12369   4.022   7.137   1.226 -0.2148  0.9294 -0.2368
  833MOL0     C12370   3.977   7.168   1.354  0.1620 -0.3239  0.8464
  833MOL0     N12371   3.931   6.779   1.673 -0.6222 -0.6756  0.9557
  833MOL0     N12372   4.001   6.690   1.605 -0.1804  0.1159  0.4101
  833MOL0     C12373   5.285   6.524   1.258  0.4111 -0.2809  1.0399
  833MOL0     C12374   5.425   6.521   1.233  1.2985 -0.4466 -0.6509
  833MOL0     C12375   5.831   6.416   1.088  0.4224  0.7424 -0.5312
  833MOL0     C12376   5.929   6.319   1.102  0.3608  0.1057  0.1186
  833MOL0     C12377   6.053   6.324   1.035 -0.8799  0.4088 -0.3244
  833MOL0     C12378   6.083   6.437   0.963  0.5298 -1.2639 -0.4693
  833MOL0     O12379   6.207   6.454   0.905 -0.5164  0.0731  0.6186
  833MOL0     C12380   6.291   6.557   0.954  0.0801 -0.1168 -0.6565
  833MOL0     C12381   6.336   6.509   1.096 -0.2119 -0.0231  0.0157
  833MOL0     C12382   6.412   6.621   1.170  0.5682 -0.0410  0.5835
  833MOL0     C12383   6.512   6.567   1.274 -0.3326 -0.1223 -0.1995
  833MOL0     C12384   6.572   6.675   1.367 -0.6636  0.3548 -0.1739
  833MOL0     C12385   6.610   6.754   1.452 -0.6349 -0.5076  0.2932
  833MOL0     C12386   5.988   6.540   0.946 -0.8569 -0.2476 -0.2224
  833MOL0     C12387   5.870   6.531   1.023  0.0530  0.0636 -0.5158
  833MOL0     H12388   5.426   6.385   0.938  0.0151 -3.6340  1.8571
  833MOL0     H12389   5.181   6.403   0.964  2.4168 -1.6484 -0.7790
  833MOL0     H12390   5.053   6.498   1.389 -0.1288  0.6184 -0.8356
  833MOL0     H12391   5.034   6.647   1.297  4.4905 -1.2247 -0.2648
  833MOL0     H12392   4.813   6.618   1.234 -1.3908 -0.2772  0.7817
  833MOL0     H12393   4.815   6.448   1.267  2.1212 -0.1747 -4.3471
  833MOL0     H12394   4.825   6.507   1.514 -0.7718  1.4134 -0.2649
  833MOL0     H12395   4.820   6.677   1.463  0.5687  0.0233  0.6192
  833MOL0     H12396   4.607   6.595   1.332  0.7554  0.6181  0.0827
  833MOL0     H12397   4.617   6.446   1.431 -0.6298  0.7355  2.6692
  833MOL0     H12398   4.607   6.566   1.640 -1.6156 -0.7995  0.2279
  833MOL0     H12399   4.561   6.718   1.555 -0.0236 -0.8422 -0.7349
  833MOL0     H12400   4.372   6.609   1.454 -0.8636  2.6890  1.6657
  833MOL0     H12401   4.422   6.463   1.539  3.0987  0.6756  0.1344
  833MOL0     H12402   4.397   6.625   1.748  0.6149  0.8596  0.0034
  833MOL0     H12403   4.316   6.737   1.639 -3.6661 -1.5630 -2.1358
  833MOL0     H12404   4.218   6.480   1.726  2.3547 -0.9116  0.0236
  833MOL0     H12405   4.170   6.529   1.558 -0.2213  0.3600  0.8377
  833MOL0     H12406   4.166   6.717   1.892 -1.4686  1.3807  1.3215
  833MOL0     H12407   3.864   6.886   1.937  0.1074 -0.6243  1.7145
  833MOL0     H12408   4.036   6.935   1.976  0.1285  3.3394 -1.0244
  833MOL0     H12409   3.900   7.116   1.915  0.2501  1.2550 -1.0554
  833MOL0     H12410   3.889   7.046   1.743  3.4606 -0.0703 -1.7254
  833MOL0     H12411   4.145   7.028   1.763  0.2444  0.2158 -1.3983
  833MOL0     H12412   4.145   7.147   1.885  1.5072 -3.2861  0.0708
  833MOL0     H12413   4.186   7.251   1.656 -0.3046 -0.1237 -2.8517
  833MOL0     H12414   4.057   7.320   1.751 -3.6025 -0.4375 -3.0045
  833MOL0     H12415   4.208   7.034   1.555  0.3343  1.4581  0.6246
  833MOL0     H12416   4.324   6.828   1.274  0.1168  1.1015 -1.9573
  833MOL0     H12417   4.396   6.993   1.283 -1.7303  2.2611  0.3244
  833MOL0     H12418   4.365   6.907   1.431 -0.0154  1.2159  0.1807
  833MOL0     H12419   4.058   6.859   0.843  1.4527  2.4438  2.8053
  833MOL0     H12420   4.117   6.762   0.614  1.3642  2.3299 -0.2445
  833MOL0     H12421   4.545   6.682   0.540 -1.7267  4.0909 -1.2228
  833MOL0     H12422   4.478   6.519   0.554 -0.7762 -0.3505  0.6270
  833MOL0     H12423   4.596   6.575   0.333  1.2187  2.5981 -0.1755
  833MOL0     H12424   4.432   6.519   0.315  0.2075 -0.0728  2.2411
  833MOL0     H12425   4.521   6.716   0.164  1.0886  1.1580 -0.0028
  833MOL0     H12426   4.496   6.819   0.302 -2.1940  1.7685 -1.1206
  833MOL0     H12427   4.257   6.659   0.208  1.4248 -1.6474  2.4444
  833MOL0     H12428   4.283   6.790   0.324  0.3211 -1.9384  1.0483
  833MOL0     H12429   4.337   6.809   0.024  1.3903  1.5831 -0.7404
  833MOL0     H12430   4.324   6.947   0.146  4.6352 -1.0584 -2.0920
  833MOL0     H12431   4.083   6.893   0.158 -0.7529 -1.4533  0.3443
  833MOL0     H12432   4.123   6.939  -0.012  1.0583 -1.0086 -1.0219
  833MOL0     H12433   4.000   6.697   0.099 -0.6114  0.1198  0.2869
  833MOL0     H12434   4.148   6.649   0.023  1.2539  1.1570  1.6437
  833MOL0     H12435   4.090   6.738  -0.192  0.2837  1.8777  0.6488
  833MOL0     H12436   3.932   6.800  -0.130  0.2424  0.2887 -1.3671
  833MOL0     H12437   4.518   6.718   0.757 -1.0962  1.1620 -0.6249
  833MOL0     H12438   4.451   6.799   0.968  0.5649 -4.9980 -0.3938
  833MOL0     H12439   3.968   7.177   1.141  0.3811  1.7348 -0.2527
  833MOL0     H12440   3.895   7.238   1.368  0.3600  0.6985 -2.2519
  833MOL0     H12441   5.269   6.572   1.354  0.1153  0.9292  0.4192
  833MOL0     H12442   5.492   6.576   1.299  1.6759 -0.8118 -0.7251
  833MOL0     H12443   5.911   6.226   1.156 -3.2685  0.6382  0.0550
  833MOL0     H12444   6.123   6.241   1.036 -1.5502 -0.1718  0.9561
  833MOL0     H12445   6.374   6.576   0.886 -0.0382 -0.2211 -0.8287
  833MOL0     H12446   6.229   6.647   0.950  0.5757  0.1768 -2.3091
  833MOL0     H12447   6.417   6.437   1.080 -0.6436 -0.4219 -0.4103
  833MOL0     H12448   6.258   6.467   1.160  0.7527 -0.1804  1.1194
  833MOL0     H12449   6.332   6.677   1.218 -2.1972 -1.4099 -2.0931
  833MOL0     H12450   6.465   6.679   1.093 -0.9117 -1.2883 -1.4971
  833MOL0     H12451   6.604   6.520   1.239  1.2012  1.8766  0.9331
  833MOL0     H12452   6.453   6.498   1.335 -0.9509 -0.2531 -0.9303
  833MOL0     H12453   6.642   6.820   1.530 -0.6717  0.2120 -0.2861
  833MOL0     H12454   6.020   6.631   0.898  1.1214  0.0091  1.4459
  833MOL0     H12455   5.795   6.610   1.021  0.1318  0.1347 -0.7396
  834MOL0     O12456   1.504   4.099   4.258  0.0007 -0.6358  0.0476
  834MOL0     C12457   1.457   4.172   4.350 -0.5688 -0.4181 -0.5089
  834MOL0     O12458   1.534   4.273   4.411  0.0226  1.3898  1.2587
  834MOL0     C12459   1.663   4.285   4.366 -0.2506  0.5412 -0.2696
  834MOL0     C12460   1.713   4.400   4.303  0.2767 -0.3664 -0.1325
  834MOL0     C12461   1.849   4.408   4.258  0.0490 -0.0226 -0.5294
  834MOL0     C12462   1.942   4.308   4.293  0.3812 -0.8339  0.1399
  834MOL0     O12463   2.073   4.326   4.255  0.0622 -0.2551  0.7987
  834MOL0     C12464   2.157   4.310   4.364 -0.0433 -0.5684  0.2099
  834MOL0     C12465   2.267   4.215   4.326 -0.9180  0.0483  0.0649
  834MOL0     C12466   2.355   4.177   4.449 -0.4361 -0.0688  0.0663
  834MOL0     C12467   2.475   4.096   4.398 -1.4459  0.9187 -0.6446
  834MOL0     C12468   2.531   4.010   4.524 -1.1123  0.6337  0.0775
  834MOL0     C12469   2.673   3.946   4.490 -0.9313  0.6909 -0.3685
  834MOL0     C12470   2.751   3.904   4.614 -0.2479 -0.4369 -0.5193
  834MOL0     C12471   2.891   3.847   4.579  0.1251 -0.0585  0.4790
  834MOL0     N12472   2.954   3.835   4.708 -0.2943 -0.4359  0.5073
  834MOL0     C12473   2.952   3.718   4.788  0.5257  0.5856 -0.0952
  834MOL0     C12474   3.020   3.755   4.894 -0.0016  0.3240 -0.1094
  834MOL0     C12475   3.057   3.644   4.990 -0.1769  0.2908  0.0714
  834MOL0     C12476   3.200   3.585   4.961 -0.3878  0.5875 -0.4125
  834MOL0     C12477   3.297   3.639   5.064  0.8304  0.5386  0.3778
  834MOL0     C12478   3.441   3.582   5.053 -0.5092 -0.0747 -0.6244
  834MOL0     O12479   3.444   3.444   5.078 -0.4492  0.2279 -0.4489
  834MOL0     C12480   3.553   3.370   5.055  0.4069  0.3163 -0.1632
  834MOL0     C12481   3.643   3.412   4.954 -0.1495 -0.3979  0.2861
  834MOL0     C12482   3.754   3.331   4.924 -0.4020  0.3408 -0.2812
  834MOL0     C12483   3.845   3.381   4.820  0.4363 -0.4441  0.1030
  834MOL0     C12484   3.770   3.210   4.993 -0.5578 -0.2158 -0.0544
  834MOL0     C12485   3.882   3.118   4.958 -0.4509 -0.6217  0.3602
  834MOL0     O12486   3.958   3.071   5.069  0.3891 -0.1333  0.1768
  834MOL0     C12487   4.084   3.017   5.047  0.5426 -0.2541  0.9626
  834MOL0     C12488   4.184   3.096   4.986  0.2854 -0.7539  0.0861
  834MOL0     C12489   4.312   3.041   4.968  0.3054 -0.2831  0.3719
  834MOL0     C12490   4.340   2.911   5.007 -0.1469  0.1518  1.2255
  834MOL0     O12491   4.467   2.859   4.998 -0.5195 -0.0194 -0.3848
  834MOL0     C12492   4.456   2.739   4.915  0.7146 -0.6813 -0.4365
  834MOL0     C12493   4.587   2.705   4.840 -0.2676  0.0318  0.5964
  834MOL0     C12494   4.667   2.826   4.808 -0.6241 -0.3060 -0.3212
  834MOL0     C12495   4.810   2.773   4.762  1.3678  0.8419 -0.3364
  834MOL0     C12496   4.884   2.875   4.675  0.0209 -0.1282  0.3099
  834MOL0     C12497   5.034   2.888   4.702 -0.2174 -0.2253  0.0255
  834MOL0     C12498   5.051   2.940   4.839 -0.1515 -0.1785 -0.4203
  834MOL0     C12499   5.198   2.933   4.877  0.1201  0.2511 -0.8839
  834MOL0    Cl12500   5.306   3.026   4.767  0.3014  0.0971  0.2523
  834MOL0     C12501   4.236   2.833   5.060  0.8992 -0.1729 -0.2618
  834MOL0     C12502   4.110   2.885   5.079  0.7944 -0.1220  0.3144
  834MOL0     O12503   3.914   3.091   4.842 -0.1904  0.1741  0.5268
  834MOL0     C12504   3.686   3.174   5.100 -0.3758  0.2538 -0.7788
  834MOL0     C12505   3.576   3.250   5.128 -0.8408 -0.6667 -0.4260
  834MOL0     N12506   3.076   3.878   4.877  0.0543  0.7342  0.2879
  834MOL0     N12507   3.035   3.924   4.766 -1.0128 -0.8471 -0.0539
  834MOL0     C12508   1.894   4.199   4.375  0.8016  0.0831  0.5449
  834MOL0     C12509   1.757   4.188   4.410 -0.2942  0.5596  0.0566
  834MOL0     C12510   1.312   4.160   4.389  0.6732  0.7258 -0.0167
  834MOL0     C12511   1.240   4.278   4.421 -0.6342  0.3360  0.3553
  834MOL0     C12512   1.103   4.270   4.454  0.2758 -0.4380  0.0498
  834MOL0     C12513   1.032   4.152   4.437 -0.0841  0.9610 -0.4257
  834MOL0     O12514   0.901   4.120   4.469 -0.3503 -0.1911 -0.1927
  834MOL0     C12515   0.804   4.214   4.504 -0.1146  0.2848 -0.5418
  834MOL0     C12516   0.767   4.296   4.381  0.4890  0.3379  0.2704
  834MOL0     C12517   0.708   4.432   4.415 -0.0104 -0.6988  0.0157
  834MOL0     C12518   0.611   4.498   4.315  0.1871  1.0712  1.0789
  834MOL0     C12519   0.665   4.522   4.180 -0.6192  0.2023 -0.2325
  834MOL0     C12520   0.725   4.543   4.070 -0.3005 -0.9202 -0.6571
  834MOL0     C12521   1.107   4.042   4.387  1.5337  0.8021 -0.8857
  834MOL0     C12522   1.240   4.045   4.356 -0.2886  0.3270 -0.3374
  834MOL0     H12523   1.651   4.484   4.276 -0.9935 -1.7598 -1.8078
  834MOL0     H12524   1.887   4.488   4.195  0.8673  0.3336  0.3835
  834MOL0     H12525   2.206   4.407   4.374 -0.9001  0.3231 -3.1304
  834MOL0     H12526   2.124   4.264   4.458 -0.5114 -0.9560 -0.1430
  834MOL0     H12527   2.211   4.131   4.282 -1.1089  0.2974 -0.1678
  834MOL0     H12528   2.324   4.265   4.248 -1.5302  0.6192 -0.0296
  834MOL0     H12529   2.385   4.273   4.491 -0.2843  0.3124 -0.8742
  834MOL0     H12530   2.291   4.115   4.512  0.6736 -0.2820  0.9940
  834MOL0     H12531   2.460   4.022   4.318 -0.2222 -0.6430  0.5082
  834MOL0     H12532   2.556   4.159   4.360 -0.1281  0.7596  1.6836
  834MOL0     H12533   2.542   4.085   4.603  1.5752 -0.6834  1.0835
  834MOL0     H12534   2.464   3.927   4.546  1.3176 -1.9804 -1.7249
  834MOL0     H12535   2.661   3.862   4.421  3.0207 -0.2840 -0.0695
  834MOL0     H12536   2.738   4.026   4.454  0.7129 -0.7214 -0.6852
  834MOL0     H12537   2.758   3.991   4.680 -4.7183  0.1504 -0.5166
  834MOL0     H12538   2.701   3.826   4.671  0.4033 -0.6214 -0.1886
  834MOL0     H12539   2.945   3.915   4.513  2.4966 -2.2479  0.0244
  834MOL0     H12540   2.879   3.747   4.537  0.5013  0.0423  0.1389
  834MOL0     H12541   2.903   3.625   4.761 -0.7291  1.4583 -0.9260
  834MOL0     H12542   3.031   3.671   5.093 -2.8305 -1.7965  0.0835
  834MOL0     H12543   2.989   3.561   4.969 -1.2342  1.8038 -3.0041
  834MOL0     H12544   3.231   3.609   4.859 -0.3227 -1.4694 -0.9343
  834MOL0     H12545   3.193   3.478   4.982  0.8183  0.0662 -2.4204
  834MOL0     H12546   3.252   3.608   5.159  1.2053  0.2099  0.4492
  834MOL0     H12547   3.297   3.748   5.059  0.7893  0.4959 -0.5777
  834MOL0     H12548   3.514   3.646   5.104 -0.9942  1.2398 -1.5151
  834MOL0     H12549   3.466   3.592   4.946  0.2376 -1.1682 -0.5653
  834MOL0     H12550   3.646   3.506   4.900 -0.7177 -0.0842  0.7846
  834MOL0     H12551   3.821   3.339   4.722 -1.2775  1.8822 -0.5767
  834MOL0     H12552   3.860   3.489   4.813  1.1562 -0.3052  2.5280
  834MOL0     H12553   3.943   3.358   4.863  2.7379  2.0597 -3.2787
  834MOL0     H12554   4.160   3.198   4.956  1.9588 -0.6669 -1.1551
  834MOL0     H12555   4.389   3.107   4.927  2.2042 -2.7565 -0.2544
  834MOL0     H12556   4.426   2.656   4.979 -0.6599  0.1651  0.0517
  834MOL0     H12557   4.382   2.756   4.836 -0.7562  0.5728  1.1399
  834MOL0     H12558   4.640   2.628   4.896 -1.1763 -1.0178  0.0520
  834MOL0     H12559   4.558   2.671   4.740  1.3001  2.9691 -0.9863
  834MOL0     H12560   4.668   2.883   4.901 -2.8300 -2.2478  1.0080
  834MOL0     H12561   4.633   2.890   4.727  1.3546  2.7299  1.0731
  834MOL0     H12562   4.852   2.733   4.855 -0.3266 -0.7117 -0.1940
  834MOL0     H12563   4.783   2.687   4.700  0.6059  0.7153  0.1578
  834MOL0     H12564   4.848   2.977   4.696  1.3505  0.4631 -0.1911
  834MOL0     H12565   4.880   2.871   4.566  1.1521  2.5286  0.0893
  834MOL0     H12566   5.080   2.789   4.696  2.0233  0.3980  3.6265
  834MOL0     H12567   5.090   2.951   4.634 -0.5605 -0.5874 -0.6047
  834MOL0     H12568   4.994   2.893   4.919 -0.5448  1.1763  0.1313
  834MOL0     H12569   5.025   3.046   4.851  0.5864  0.4114 -3.2667
  834MOL0     H12570   5.216   2.826   4.886 -1.9457 -0.0060  1.2264
  834MOL0     H12571   5.204   2.983   4.975 -2.7971 -0.6743 -0.1471
  834MOL0     H12572   4.237   2.737   5.110  1.0623  0.1681  0.4103
  834MOL0     H12573   4.036   2.825   5.130 -1.0725  1.5441 -0.2854
  834MOL0     H12574   3.690   3.082   5.158 -0.8447  0.7812  0.1046
  834MOL0     H12575   3.508   3.196   5.193  1.6947 -1.1296  2.0455
  834MOL0     H12576   1.959   4.121   4.412  1.7916 -0.3945 -1.9865
  834MOL0     H12577   1.725   4.102   4.468 -3.8418  2.0316  0.5932
  834MOL0     H12578   1.296   4.370   4.434 -2.0201  1.7921 -2.9762
  834MOL0     H12579   1.056   4.360   4.492  1.2150  0.2874 -0.4631
  834MOL0     H12580   0.713   4.172   4.548  0.4125 -0.7653 -0.4281
  834MOL0     H12581   0.832   4.282   4.586 -2.8611  3.8208 -2.2380
  834MOL0     H12582   0.701   4.239   4.315  1.4886  0.0809 -0.5276
  834MOL0     H12583   0.845   4.321   4.308 -1.9733  1.2028 -2.2435
  834MOL0     H12584   0.786   4.507   4.434 -0.5340 -0.3138  0.6586
  834MOL0     H12585   0.659   4.430   4.512  0.0389  0.9086  0.0983
  834MOL0     H12586   0.560   4.581   4.364 -0.8760  0.4210  1.1268
  834MOL0     H12587   0.532   4.430   4.281  0.9250  0.4630  0.5605
  834MOL0     H12588   0.765   4.587   3.981 -3.7339  1.7658 -1.0872
  834MOL0     H12589   1.043   3.956   4.371  2.1878 -0.1080  1.0764
  834MOL0     H12590   1.280   3.955   4.310 -0.0496 -0.0571  0.5877
  835MOL0     O12591   1.989   2.012   8.906 -0.3074  0.2865  0.3990
  835MOL0     C12592   2.021   2.012   9.023  0.4717 -0.3380 -0.3487
  835MOL0     O12593   1.932   2.017   9.131  0.3779  0.2840 -0.3848
  835MOL0     C12594   1.799   2.042   9.100 -0.9409 -0.1748  0.2972
  835MOL0     C12595   1.760   2.170   9.080  0.0231 -0.4171  0.4626
  835MOL0     C12596   1.632   2.202   9.041  0.9595  0.6856 -1.1714
  835MOL0     C12597   1.536   2.099   9.030 -0.4816 -0.1988  0.0148
  835MOL0     O12598   1.406   2.138   8.998  0.1833 -0.1105 -0.0442
  835MOL0     C12599   1.300   2.075   9.076 -0.3349 -0.0731 -1.0111
  835MOL0     C12600   1.216   2.188   9.141  0.7647  0.5802  0.4461
  835MOL0     C12601   1.297   2.255   9.252  0.2796  1.2509 -0.8148
  835MOL0     C12602   1.212   2.276   9.378  0.1306 -0.1473 -0.3047
  835MOL0     C12603   1.307   2.329   9.486  1.3504 -0.1687 -0.0816
  835MOL0     C12604   1.220   2.352   9.614  0.0299  0.4460 -0.2657
  835MOL0     C12605   1.109   2.470   9.594 -0.2258 -0.5565 -0.7130
  835MOL0     C12606   1.092   2.546   9.729  0.0097 -0.5051 -0.2653
  835MOL0     N12607   1.066   2.447   9.841 -0.2232 -0.1253 -0.0622
  835MOL0     C12608   1.161   2.403   9.935  0.1885 -0.4056 -0.1366
  835MOL0     C12609   1.104   2.293   9.993 -0.4630  0.3672  0.1088
  835MOL0     C12610   1.170   2.198  10.092  1.2170 -0.6782 -0.1297
  835MOL0     C12611   1.318   2.176  10.049  1.0041  0.3631 -0.6491
  835MOL0     C12612   1.335   2.104   9.922 -0.0951  0.7578 -0.0694
  835MOL0     C12613   1.460   2.129   9.834 -0.6112  0.2692 -0.3381
  835MOL0     O12614   1.581   2.099   9.905 -0.3547  0.5255 -0.3468
  835MOL0     C12615   1.695   2.125   9.834  0.7363 -0.2670 -0.8696
  835MOL0     C12616   1.710   2.203   9.720 -0.2396 -0.5994  0.3433
  835MOL0     C12617   1.832   2.195   9.640  1.1189  0.0550 -0.1355
  835MOL0     C12618   1.827   2.266   9.512  0.5386  0.0764  0.0528
  835MOL0     C12619   1.939   2.121   9.683  0.6509  0.6967 -0.1198
  835MOL0     C12620   2.063   2.105   9.603 -1.2091 -0.0273  0.8635
  835MOL0     O12621   2.179   2.081   9.665  0.3917  0.3285 -1.1105
  835MOL0     C12622   2.294   2.064   9.602 -1.2176 -0.4972  0.5360
  835MOL0     C12623   2.385   2.174   9.599  0.3712 -0.4366  1.8073
  835MOL0     C12624   2.516   2.157   9.545 -0.7320 -1.2324  0.4333
  835MOL0     C12625   2.559   2.029   9.508 -0.7236  0.2693  1.0797
  835MOL0     O12626   2.672   2.001   9.436 -0.5146 -0.4101 -0.0578
  835MOL0     C12627   2.784   2.092   9.460 -0.2151  0.4209 -0.2761
  835MOL0     C12628   2.909   2.011   9.434 -0.2990 -0.2611  0.4015
  835MOL0     C12629   3.027   2.094   9.481  0.3528  0.4108  0.2026
  835MOL0     C12630   3.152   2.003   9.506  0.3331  0.3145 -0.1197
  835MOL0     C12631   3.269   2.086   9.544 -0.7033  0.0241 -0.0020
  835MOL0     C12632   3.395   1.998   9.556  0.2181 -1.0199 -0.4892
  835MOL0     C12633   3.508   2.083   9.611 -0.5483 -0.0830 -0.3456
  835MOL0     C12634   3.633   1.992   9.635 -0.8809 -0.2338 -0.8637
  835MOL0    Cl12635   3.784   2.073   9.692 -0.5320 -0.3694  0.3193
  835MOL0     C12636   2.474   1.919   9.520 -0.9936 -0.2030 -0.3436
  835MOL0     C12637   2.346   1.938   9.567 -0.9368  0.7504  0.3221
  835MOL0     O12638   2.048   2.105   9.478 -1.0038 -0.0397 -0.3669
  835MOL0     C12639   1.920   2.043   9.795  0.1036  0.1092 -0.0612
  835MOL0     C12640   1.808   2.057   9.872  0.5006  0.8770  0.2265
  835MOL0     N12641   0.990   2.274   9.929 -0.0072  0.1452  0.5414
  835MOL0     N12642   0.954   2.372   9.852 -0.3367  0.1106  0.0030
  835MOL0     C12643   1.580   1.965   9.046 -0.1444 -0.2103  0.7916
  835MOL0     C12644   1.714   1.937   9.078  0.3640 -0.2148  0.3142
  835MOL0     C12645   2.163   1.999   9.059  0.0548 -0.3363  0.5831
  835MOL0     C12646   2.248   1.926   8.974  0.1207 -0.2052 -1.0582
  835MOL0     C12647   2.379   1.903   9.007 -0.7476 -0.1978 -0.7911
  835MOL0     C12648   2.439   1.950   9.123 -0.3268  0.5749 -0.2852
  835MOL0     O12649   2.572   1.925   9.147  0.2317  0.3784 -0.3732
  835MOL0     C12650   2.651   2.004   9.063 -0.1377  0.7476 -0.0572
  835MOL0     C12651   2.790   1.925   9.042  0.2327  0.1054 -0.4973
  835MOL0     C12652   2.901   2.031   9.005  0.0564  0.3915  0.0169
  835MOL0     C12653   3.024   1.968   8.941  0.0059 -0.1165 -0.5745
  835MOL0     C12654   3.103   1.907   9.055 -0.7372 -0.2853 -0.1794
  835MOL0     C12655   3.182   1.871   9.140 -0.5823 -0.0025 -0.3186
  835MOL0     C12656   2.356   2.033   9.204 -0.2285  0.1303 -0.5131
  835MOL0     C12657   2.218   2.045   9.172 -0.0061  0.3746  0.8573
  835MOL0     H12658   1.831   2.252   9.089  1.9885 -2.1454  1.5551
  835MOL0     H12659   1.599   2.303   9.022  1.1808  0.6748 -1.6184
  835MOL0     H12660   1.238   2.033   8.996  2.2822  1.6847 -4.2442
  835MOL0     H12661   1.335   2.004   9.151  1.0743  1.9380  0.3433
  835MOL0     H12662   1.191   2.263   9.065  0.8913  0.9823  0.7936
  835MOL0     H12663   1.119   2.155   9.179  1.5334  0.9586  2.8987
  835MOL0     H12664   1.387   2.202   9.282 -0.0290  1.6034  0.7946
  835MOL0     H12665   1.318   2.356   9.216 -1.2484  2.6811  1.9602
  835MOL0     H12666   1.127   2.342   9.357 -0.8968 -1.5990 -0.8271
  835MOL0     H12667   1.169   2.182   9.414 -0.9365  1.3934  2.8786
  835MOL0     H12668   1.385   2.258   9.514 -0.0254 -1.4182  0.6975
  835MOL0     H12669   1.348   2.424   9.449 -0.4210  1.6672  2.2854
  835MOL0     H12670   1.166   2.259   9.631  2.7110 -0.8708  1.7663
  835MOL0     H12671   1.282   2.381   9.700 -1.3201  2.9213 -0.0259
  835MOL0     H12672   1.143   2.539   9.515  3.7607 -2.2087 -0.6856
  835MOL0     H12673   1.016   2.432   9.552 -0.5371  0.0047 -0.5460
  835MOL0     H12674   1.001   2.604   9.710  0.3258  0.2685  0.5407
  835MOL0     H12675   1.179   2.610   9.744 -0.6694  0.6669 -1.1178
  835MOL0     H12676   1.259   2.434   9.970 -0.3010 -0.7039  1.5817
  835MOL0     H12677   1.169   2.240  10.193 -1.7410  1.8525 -1.0299
  835MOL0     H12678   1.108   2.109  10.084  0.6263 -0.0975 -3.8347
  835MOL0     H12679   1.371   2.115  10.123  1.2636 -0.9663 -1.8774
  835MOL0     H12680   1.369   2.272  10.041  1.2523  0.0933 -2.7914
  835MOL0     H12681   1.250   2.123   9.856  0.3335 -0.0574 -0.8773
  835MOL0     H12682   1.336   1.995   9.935  0.5527  0.7373 -0.2446
  835MOL0     H12683   1.458   2.231   9.796 -2.0943 -0.5747 -2.7204
  835MOL0     H12684   1.453   2.062   9.748  0.8032 -0.2281 -0.0792
  835MOL0     H12685   1.644   2.281   9.685 -1.4206 -0.2401  3.1200
  835MOL0     H12686   1.916   2.322   9.482  0.7739 -0.8103 -0.9547
  835MOL0     H12687   1.811   2.195   9.430 -0.7857  2.1371 -1.6194
  835MOL0     H12688   1.748   2.342   9.506  1.2675  0.7854 -0.9769
  835MOL0     H12689   2.344   2.273   9.617  1.3521 -0.0188  1.8144
  835MOL0     H12690   2.567   2.251   9.526 -2.3392 -0.3142  0.5027
  835MOL0     H12691   2.781   2.177   9.390  0.5281  2.3986  1.9531
  835MOL0     H12692   2.789   2.126   9.564 -2.4071  0.3196 -0.0943
  835MOL0     H12693   2.915   1.913   9.483  2.2445  0.2285  1.1908
  835MOL0     H12694   2.904   1.991   9.326  0.5977  3.7043 -0.5280
  835MOL0     H12695   3.004   2.146   9.574 -1.2649 -0.3866  0.2836
  835MOL0     H12696   3.056   2.156   9.395  2.2265 -1.8572 -0.9081
  835MOL0     H12697   3.133   1.918   9.572  0.4943 -0.6675 -1.3044
  835MOL0     H12698   3.193   1.955   9.417 -1.2425 -2.5282  0.5850
  835MOL0     H12699   3.253   2.139   9.638 -1.6121  1.0878 -0.7303
  835MOL0     H12700   3.281   2.167   9.471 -2.9556  0.8310  0.4299
  835MOL0     H12701   3.368   1.905   9.607 -0.0441 -1.9423 -2.2304
  835MOL0     H12702   3.433   1.976   9.455 -0.5103  1.5337 -1.4022
  835MOL0     H12703   3.470   2.124   9.705  0.4682  1.2059 -0.4778
  835MOL0     H12704   3.524   2.168   9.544  1.0408 -1.3058 -1.5975
  835MOL0     H12705   3.654   1.947   9.538 -3.5247 -0.3069 -1.4733
  835MOL0     H12706   3.611   1.910   9.704 -3.7493  1.5671  0.5398
  835MOL0     H12707   2.528   1.827   9.502  0.2910  0.0672  1.8632
  835MOL0     H12708   2.279   1.853   9.569  0.1998 -0.4193 -3.3554
  835MOL0     H12709   2.000   1.970   9.806  0.4931  0.4148 -0.7545
  835MOL0     H12710   1.799   1.997   9.962 -0.9750 -1.5686 -1.4107
  835MOL0     H12711   1.519   1.877   9.029  0.3802 -0.4517  0.1106
  835MOL0     H12712   1.744   1.836   9.101 -0.8607 -0.5005  0.7264
  835MOL0     H12713   2.207   1.878   8.886 -0.8587 -1.6108  0.1198
  835MOL0     H12714   2.433   1.839   8.938 -0.7481  0.5382 -1.4830
  835MOL0     H12715   2.602   2.023   8.967 -0.3284 -0.3258 -0.1858
  835MOL0     H12716   2.672   2.106   9.097  0.1705  1.0174 -1.0167
  835MOL0     H12717   2.787   1.864   8.952  3.2616  0.3486 -0.8667
  835MOL0     H12718   2.818   1.854   9.121 -0.2485 -0.0125 -0.4288
  835MOL0     H12719   2.921   2.094   9.092 -1.0992 -0.8442  1.2320
  835MOL0     H12720   2.855   2.090   8.926  1.6573 -0.5405 -1.6870
  835MOL0     H12721   3.080   2.057   8.911  0.4886 -0.1997  0.0506
  835MOL0     H12722   2.996   1.903   8.858 -0.8620 -0.8567  0.2736
  835MOL0     H12723   3.254   1.836   9.212  1.9750  0.0640 -2.6520
  835MOL0     H12724   2.404   2.076   9.291 -0.6561 -2.3765  1.0760
  835MOL0     H12725   2.154   2.094   9.245 -2.2401 -0.2823 -0.5788
  836MOL0     O12726   0.236   9.803  10.744 -0.0502  0.2192 -0.2579
  836MOL0     C12727   0.253   9.924  10.714  0.4508  0.4457 -0.3029
  836MOL0     O12728   0.159  10.011  10.673 -0.3239 -0.4173  0.1115
  836MOL0     C12729   0.027   9.996  10.693 -0.5352  0.6404 -0.3687
  836MOL0     C12730  -0.050  10.073  10.619  0.1720 -0.1996 -0.6203
  836MOL0     C12731  -0.185  10.066  10.626 -0.2045 -0.7842 -0.1704
  836MOL0     C12732  -0.251   9.975  10.710  0.0598  0.4429  0.2963
  836MOL0     O12733  -0.388   9.965  10.717 -0.1515 -0.0670 -0.2137
  836MOL0     C12734  -0.437   9.980  10.860  0.0244  0.7967 -0.5789
  836MOL0     C12735  -0.584  10.032  10.863  0.4492  0.9558  0.6542
  836MOL0     C12736  -0.699   9.942  10.790  0.1991 -0.3551  0.4734
  836MOL0     C12737  -0.842  10.001  10.790 -0.0561  0.8841 -0.3872
  836MOL0     C12738  -0.949   9.918  10.724  0.0914 -0.3462  0.3218
  836MOL0     C12739  -1.087   9.981  10.739 -0.6700  0.3904 -0.1277
  836MOL0     C12740  -1.191   9.889  10.661  0.2517  0.5483 -0.1036
  836MOL0     C12741  -1.197   9.741  10.712 -0.2819  0.4494 -0.2978
  836MOL0     N12742  -1.317   9.665  10.673 -0.0426  0.1347  0.3886
  836MOL0     C12743  -1.361   9.638  10.543  0.1331 -0.3417 -0.2909
  836MOL0     C12744  -1.491   9.598  10.552 -0.5403 -0.3420 -0.3180
  836MOL0     C12745  -1.570   9.541  10.436  0.5507  0.6378  0.5515
  836MOL0     C12746  -1.694   9.455  10.473 -0.5161 -0.1434  1.2866
  836MOL0     C12747  -1.818   9.529  10.517 -0.0857 -0.0891  0.5764
  836MOL0     C12748  -1.951   9.448  10.504 -0.0473 -0.2174 -0.0405
  836MOL0     O12749  -2.065   9.534  10.516  0.2060 -0.2011  0.4665
  836MOL0     C12750  -2.190   9.485  10.562 -0.2674  0.2452  0.8547
  836MOL0     C12751  -2.271   9.568  10.629  0.3612 -0.5857 -0.6525
  836MOL0     C12752  -2.408   9.541  10.656 -0.7945 -0.4891 -0.1490
  836MOL0     C12753  -2.488   9.633  10.733  0.0304  0.3866 -0.3540
  836MOL0     C12754  -2.460   9.415  10.614 -0.6756  0.7212  0.2046
  836MOL0     C12755  -2.601   9.367  10.620  0.4487  0.4206  0.3596
  836MOL0     O12756  -2.622   9.234  10.637 -0.3800  0.0880  0.1019
  836MOL0     C12757  -2.743   9.167  10.617 -0.8346 -0.9325  0.5050
  836MOL0     C12758  -2.737   9.037  10.640 -0.3434  0.2002 -1.0223
  836MOL0     C12759  -2.854   8.950  10.618 -1.0113  0.2051 -0.8958
  836MOL0     C12760  -2.967   9.001  10.561 -0.1234 -0.1020  0.3007
  836MOL0     O12761  -3.079   8.909  10.540 -0.5366 -0.5404 -0.7937
  836MOL0     C12762  -3.194   8.960  10.479  0.0544  0.0950  0.8828
  836MOL0     C12763  -3.309   8.857  10.470  0.3229 -0.5518 -0.9906
  836MOL0     C12764  -3.431   8.901  10.396  0.5098 -0.1647  0.5196
  836MOL0     C12765  -3.546   8.805  10.403  0.3277  0.0898 -0.3348
  836MOL0     C12766  -3.663   8.867  10.343 -1.0811  0.4670 -0.3064
  836MOL0     C12767  -3.782   8.774  10.353  0.6230  0.1867  0.1264
  836MOL0     C12768  -3.838   8.768  10.502  0.5158  0.2314  0.3803
  836MOL0     C12769  -3.983   8.743  10.504  0.3895 -0.9352  0.0272
  836MOL0    Cl12770  -4.039   8.581  10.447 -0.4882  0.0641 -0.0043
  836MOL0     C12771  -2.973   9.141  10.546 -0.7739 -0.2762  0.7103
  836MOL0     C12772  -2.868   9.230  10.572  0.7061  0.1460 -0.2249
  836MOL0     O12773  -2.686   9.457  10.613  0.0106  0.0298  1.0066
  836MOL0     C12774  -2.372   9.324  10.557 -0.7491 -0.2286  0.4095
  836MOL0     C12775  -2.241   9.363  10.524 -0.3698 -0.2347  0.2110
  836MOL0     N12776  -1.523   9.614  10.683  0.0883 -0.1166  0.3998
  836MOL0     N12777  -1.426   9.664  10.754  0.3450  0.5718  0.0382
  836MOL0     C12778  -0.179   9.886  10.784  0.1459  0.9485  0.4761
  836MOL0     C12779  -0.041   9.896  10.769  0.5956 -0.0407 -1.1268
  836MOL0     C12780   0.395   9.970  10.717 -0.4412  0.7793  0.1033
  836MOL0     C12781   0.499   9.871  10.712  0.5146 -0.0335 -1.5009
  836MOL0     C12782   0.631   9.913  10.723 -0.2272  0.7460 -0.3088
  836MOL0     C12783   0.673  10.048  10.730  0.1549 -0.4164  0.2439
  836MOL0     O12784   0.798  10.102  10.740  1.1081 -0.7055 -0.2993
  836MOL0     C12785   0.900  10.015  10.786 -0.0983 -1.0670 -0.4925
  836MOL0     C12786   0.991   9.970  10.671 -0.8221 -0.0359  0.3692
  836MOL0     C12787   1.110   9.896  10.734 -0.7560  0.1126  0.2368
  836MOL0     C12788   1.184   9.798  10.636 -0.6400  0.4047  0.1225
  836MOL0     C12789   1.095   9.739  10.534  0.6336 -0.3355 -0.5228
  836MOL0     C12790   1.008   9.700  10.457 -0.1302 -0.5334 -0.2952
  836MOL0     C12791   0.572  10.144  10.708 -0.6759 -0.0328  0.6488
  836MOL0     C12792   0.435  10.103  10.711 -0.4638  0.0996 -0.0778
  836MOL0     H12793  -0.016  10.155  10.556 -4.2216  2.3799 -0.0804
  836MOL0     H12794  -0.241  10.148  10.581  0.1198  0.0859  0.9754
  836MOL0     H12795  -0.417   9.892  10.921  0.7742  2.3416  1.5194
  836MOL0     H12796  -0.377  10.055  10.911 -1.1064  1.5721 -0.3514
  836MOL0     H12797  -0.609  10.046  10.968  2.8548  2.0728  1.1394
  836MOL0     H12798  -0.597  10.132  10.819  0.0132  0.6560  0.0825
  836MOL0     H12799  -0.661   9.931  10.688  0.6630  0.3221  0.5663
  836MOL0     H12800  -0.693   9.846  10.841  2.5577  0.4389  1.8515
  836MOL0     H12801  -0.869  10.006  10.896 -2.8523  0.6662 -1.0228
  836MOL0     H12802  -0.833  10.101  10.745  1.3533  0.0951 -2.0107
  836MOL0     H12803  -0.920   9.897  10.621  0.7851 -1.6389  0.7664
  836MOL0     H12804  -0.944   9.820  10.773  2.2762 -1.4003 -1.8585
  836MOL0     H12805  -1.127  10.001  10.839 -3.7148  0.1240 -1.1774
  836MOL0     H12806  -1.078  10.079  10.693 -0.3253  0.3957 -0.0526
  836MOL0     H12807  -1.291   9.929  10.680  0.4860  1.8110 -1.3716
  836MOL0     H12808  -1.180   9.895  10.553 -2.6622 -0.7722 -0.5575
  836MOL0     H12809  -1.196   9.747  10.822 -0.7077 -0.0420 -0.2658
  836MOL0     H12810  -1.107   9.684  10.684  1.3264  2.1053  1.1952
  836MOL0     H12811  -1.293   9.644  10.458  1.6791  0.3043  0.9458
  836MOL0     H12812  -1.614   9.609  10.363 -0.7775  0.5204  1.2009
  836MOL0     H12813  -1.517   9.478  10.365 -3.7838 -1.4673 -1.2194
  836MOL0     H12814  -1.668   9.385  10.553  0.0078 -1.1522  0.2383
  836MOL0     H12815  -1.734   9.403  10.386  1.1458  1.2077 -0.3490
  836MOL0     H12816  -1.826   9.613  10.449 -0.4118 -2.0585 -1.9729
  836MOL0     H12817  -1.808   9.554  10.623  1.9305 -2.1467  0.9667
  836MOL0     H12818  -1.972   9.372  10.580  1.0084 -0.6254 -0.1454
  836MOL0     H12819  -1.960   9.406  10.403 -2.4213  1.9923 -0.8637
  836MOL0     H12820  -2.232   9.668  10.647 -1.4533  0.1850 -0.7562
  836MOL0     H12821  -2.531   9.595  10.826  2.1087 -2.0906 -0.2892
  836MOL0     H12822  -2.425   9.713  10.773 -0.3813  1.7505 -2.3229
  836MOL0     H12823  -2.578   9.670  10.682  0.3852  0.6712 -0.7776
  836MOL0     H12824  -2.651   9.001  10.695 -3.9075 -2.3575  3.6954
  836MOL0     H12825  -2.823   8.847  10.631 -2.2765  0.0294  1.2210
  836MOL0     H12826  -3.235   9.046  10.534  0.8137  1.7403 -0.9659
  836MOL0     H12827  -3.169   8.996  10.378 -2.1270  3.4150  1.3656
  836MOL0     H12828  -3.262   8.768  10.427 -0.1367 -1.0267 -0.5276
  836MOL0     H12829  -3.345   8.840  10.572 -1.3788  2.1502 -1.0466
  836MOL0     H12830  -3.414   8.913  10.289 -1.8362  0.9161  0.1969
  836MOL0     H12831  -3.460   9.001  10.429 -0.5235  0.0885 -1.0633
  836MOL0     H12832  -3.515   8.720  10.341  1.6144 -0.6199  1.2089
  836MOL0     H12833  -3.569   8.767  10.503  0.5979  0.7715 -0.0086
  836MOL0     H12834  -3.645   8.884  10.236  1.1588 -3.3452 -0.7171
  836MOL0     H12835  -3.684   8.956  10.403  2.3701 -1.2445  4.0427
  836MOL0     H12836  -3.863   8.817  10.293  2.5285  1.7970 -1.4858
  836MOL0     H12837  -3.751   8.674  10.321  0.8881 -0.0040  0.9711
  836MOL0     H12838  -3.816   8.863  10.551 -0.0355  2.2343 -2.9698
  836MOL0     H12839  -3.799   8.681  10.557  0.7872  0.0643 -0.0698
  836MOL0     H12840  -4.032   8.826  10.451  0.3407 -2.6567 -2.8346
  836MOL0     H12841  -4.023   8.749  10.606 -2.4718  3.0179 -1.0989
  836MOL0     H12842  -3.061   9.190  10.507  0.2658  2.4272  1.4702
  836MOL0     H12843  -2.877   9.334  10.544  0.0637 -0.4295 -2.3691
  836MOL0     H12844  -2.402   9.233  10.506  1.7052 -0.3383 -0.9592
  836MOL0     H12845  -2.182   9.290  10.470 -0.7427 -1.3891  1.2998
  836MOL0     H12846  -0.224   9.806  10.843 -0.9287  2.0522  1.2026
  836MOL0     H12847   0.010   9.824  10.832  1.4684  1.5984  0.1224
  836MOL0     H12848   0.471   9.766  10.703 -3.6760  0.8937 -1.4259
  836MOL0     H12849   0.708   9.836  10.731 -2.3897 -1.6013 -0.6713
  836MOL0     H12850   0.956  10.067  10.864 -1.3620  2.2836 -1.6443
  836MOL0     H12851   0.863   9.935  10.850 -0.1582  1.0206  2.2769
  836MOL0     H12852   1.033  10.049  10.608  1.1603 -1.1642  0.1901
  836MOL0     H12853   0.929   9.912  10.603 -3.3513  2.4259  0.3960
  836MOL0     H12854   1.079   9.840  10.823  0.7604 -0.8704  0.1678
  836MOL0     H12855   1.189   9.956  10.780 -1.2423 -0.4367  1.8615
  836MOL0     H12856   1.231   9.722  10.699 -0.3666  0.1297 -0.4070
  836MOL0     H12857   1.265   9.852  10.586  0.6776  0.1253  1.8817
  836MOL0     H12858   0.940   9.672  10.379  1.7009 -0.0413 -2.1761
  836MOL0     H12859   0.609  10.246  10.708 -1.2024  0.1775  2.1269
  836MOL0     H12860   0.361  10.181  10.695  0.4824  0.3888 -4.1389
  837MOL0     O12861   5.575   7.983   3.036 -0.0108 -0.0929 -0.2054
  837MOL0     C12862   5.628   7.876   3.067  0.2884  0.3841  0.9583
  837MOL0     O12863   5.570   7.753   3.071 -0.4968 -0.4863  0.3288
  837MOL0     C12864   5.436   7.734   3.082  0.6038 -0.5217  0.0531
  837MOL0     C12865   5.382   7.616   3.034 -0.1846 -0.3059 -0.5816
  837MOL0     C12866   5.242   7.592   3.042  0.2474 -0.8812  0.2563
  837MOL0     C12867   5.159   7.686   3.105 -0.7907  0.4510 -0.1963
  837MOL0     O12868   5.028   7.668   3.131  0.1097 -0.0477  0.3324
  837MOL0     C12869   4.965   7.546   3.109 -0.1236  0.0849  0.5590
  837MOL0     C12870   4.811   7.564   3.105  0.8360  1.3552 -0.5085
  837MOL0     C12871   4.746   7.425   3.090 -0.1175  0.3116 -0.0920
  837MOL0     C12872   4.602   7.449   3.037  0.0265  0.5313  0.6871
  837MOL0     C12873   4.532   7.313   3.032  0.2829  0.5885 -0.6081
  837MOL0     C12874   4.382   7.338   2.990 -1.1186 -0.8786 -0.4385
  837MOL0     C12875   4.317   7.201   2.976 -0.1168  0.0295 -0.2766
  837MOL0     C12876   4.170   7.221   2.982  0.6361 -0.1067 -0.1566
  837MOL0     N12877   4.118   7.319   2.886  0.6831 -0.0504 -0.3722
  837MOL0     C12878   4.075   7.436   2.928 -0.2844 -0.1620  0.0519
  837MOL0     C12879   3.988   7.486   2.837  0.3630  0.8644 -0.0326
  837MOL0     C12880   3.925   7.614   2.849 -0.0973  0.4817  0.2562
  837MOL0     C12881   3.793   7.627   2.787 -0.2600  0.8640  0.8986
  837MOL0     C12882   3.730   7.760   2.824 -0.3779  0.7067  0.0031
  837MOL0     C12883   3.586   7.769   2.766 -0.3420 -0.3863 -0.0878
  837MOL0     O12884   3.533   7.888   2.806  0.3642  0.2581  1.4436
  837MOL0     C12885   3.405   7.903   2.782  0.0363 -0.8509 -0.2527
  837MOL0     C12886   3.337   7.984   2.873 -0.6290  0.1478  0.2069
  837MOL0     C12887   3.197   8.009   2.859 -0.6817  0.0061  0.0795
  837MOL0     C12888   3.156   8.122   2.949 -0.1910 -0.0700  0.2944
  837MOL0     C12889   3.128   7.958   2.745  0.4197 -0.0916 -0.3126
  837MOL0     C12890   2.983   7.981   2.733  0.1419 -0.3227  0.0491
  837MOL0     O12891   2.926   7.961   2.605  0.4034 -0.3761 -0.7780
  837MOL0     C12892   2.795   7.983   2.592  0.1262 -0.3268  0.1997
  837MOL0     C12893   2.699   7.906   2.658 -1.0072  0.1418  1.2635
  837MOL0     C12894   2.563   7.912   2.624 -0.5186 -0.5107 -0.6534
  837MOL0     C12895   2.518   8.001   2.527 -0.5198  0.0888 -0.0436
  837MOL0     O12896   2.390   8.015   2.481 -0.1365 -0.0726  0.0368
  837MOL0     C12897   2.301   7.902   2.505  0.6367 -0.6236  0.0289
  837MOL0     C12898   2.160   7.913   2.461  0.3620 -0.3981  0.3912
  837MOL0     C12899   2.105   8.058   2.431 -0.6272  0.0165 -0.1525
  837MOL0     C12900   1.955   8.061   2.431  1.4689  0.2022 -0.4038
  837MOL0     C12901   1.884   8.196   2.400  0.7945  0.0329 -1.1837
  837MOL0     C12902   1.732   8.180   2.412 -0.6404  0.4161  0.4786
  837MOL0     C12903   1.674   8.316   2.456  0.9345  0.3933 -0.4046
  837MOL0     C12904   1.520   8.317   2.453 -0.0812 -0.4857 -0.7388
  837MOL0    Cl12905   1.460   8.481   2.502 -0.5934  0.1989 -0.3993
  837MOL0     C12906   2.621   8.080   2.466  0.9063 -0.2772  1.3168
  837MOL0     C12907   2.754   8.073   2.492 -0.1514  0.1096 -0.7333
  837MOL0     O12908   2.922   8.005   2.835 -0.7618  0.7038  0.0093
  837MOL0     C12909   3.196   7.884   2.649  0.2564  0.3602  0.1844
  837MOL0     C12910   3.336   7.860   2.670  0.4416 -0.0835 -0.6680
  837MOL0     N12911   3.981   7.398   2.733  0.0243  0.1541  0.2321
  837MOL0     N12912   4.040   7.289   2.776  0.3479  0.4096  0.2387
  837MOL0     C12913   5.219   7.801   3.157 -0.7343 -1.0044 -0.0861
  837MOL0     C12914   5.349   7.828   3.142 -0.6407 -0.7407  1.8168
  837MOL0     C12915   5.775   7.865   3.096  0.1358 -0.1709 -0.9592
  837MOL0     C12916   5.860   7.985   3.076  0.5575  0.6071 -0.4634
  837MOL0     C12917   5.993   7.982   3.106  0.0596 -0.1217 -0.7646
  837MOL0     C12918   6.056   7.865   3.141  0.7528 -0.8957  0.2601
  837MOL0     O12919   6.195   7.880   3.157 -0.1076  0.2112 -0.7964
  837MOL0     C12920   6.270   7.771   3.222  0.7043 -0.4446  0.4863
  837MOL0     C12921   6.410   7.814   3.254  0.2813  0.5665  0.0070
  837MOL0     C12922   6.499   7.841   3.135  0.2868 -0.3337  0.1306
  837MOL0     C12923   6.644   7.871   3.194 -0.9713  0.2788  0.0663
  837MOL0     C12924   6.720   7.973   3.124  0.2750 -0.3997  0.4878
  837MOL0     C12925   6.774   8.056   3.054  0.7267 -0.4963 -0.0742
  837MOL0     C12926   5.984   7.745   3.140 -0.4465  0.2962  0.7803
  837MOL0     C12927   5.842   7.753   3.127  0.5061 -1.3986  0.4026
  837MOL0     H12928   5.453   7.545   2.993 -0.7709  0.0321 -2.2595
  837MOL0     H12929   5.219   7.497   2.995  1.2460  0.0990 -2.4090
  837MOL0     H12930   4.981   7.505   3.009  3.7830  1.7143  0.3582
  837MOL0     H12931   4.985   7.466   3.181  0.3718  1.9839  2.6356
  837MOL0     H12932   4.772   7.615   3.194  0.9082  1.4367 -0.5229
  837MOL0     H12933   4.795   7.633   3.021  0.6631  0.7889 -0.9441
  837MOL0     H12934   4.797   7.366   3.014  0.9878  3.0340 -1.6073
  837MOL0     H12935   4.732   7.382   3.190 -1.9826 -1.2998 -0.9716
  837MOL0     H12936   4.554   7.525   3.098  1.0565  3.5328 -1.9832
  837MOL0     H12937   4.611   7.475   2.931  0.2183 -4.1146 -0.6527
  837MOL0     H12938   4.593   7.249   2.967  0.7465  1.8873 -1.4950
  837MOL0     H12939   4.541   7.275   3.134  1.3430 -1.9558 -1.5798
  837MOL0     H12940   4.336   7.404   3.064 -0.4883 -1.2236  0.2782
  837MOL0     H12941   4.377   7.385   2.891 -1.6589 -2.1940 -1.0583
  837MOL0     H12942   4.339   7.169   2.874 -2.1972 -1.2933 -0.3702
  837MOL0     H12943   4.358   7.129   3.048 -0.4053  2.0824  2.0900
  837MOL0     H12944   4.150   7.245   3.087 -1.7183  0.4000 -0.6673
  837MOL0     H12945   4.116   7.136   2.939  1.5653 -0.6843 -0.1980
  837MOL0     H12946   4.103   7.471   3.027 -1.8457 -2.1505  1.2868
  837MOL0     H12947   3.911   7.641   2.954  0.9294 -0.1671  0.5727
  837MOL0     H12948   3.988   7.686   2.795 -1.6754  0.2933 -1.9529
  837MOL0     H12949   3.730   7.544   2.823  0.6875  0.5740  1.9330
  837MOL0     H12950   3.788   7.620   2.678 -0.0285 -1.6102  0.9703
  837MOL0     H12951   3.796   7.840   2.790  3.4408 -2.1054  0.1387
  837MOL0     H12952   3.716   7.756   2.933 -0.0759  0.6168  0.0373
  837MOL0     H12953   3.519   7.689   2.799  0.1007 -0.3293  1.0140
  837MOL0     H12954   3.589   7.768   2.657 -3.0198  2.0778 -0.2892
  837MOL0     H12955   3.384   8.025   2.962 -2.5641  1.7266  0.5832
  837MOL0     H12956   3.064   8.177   2.923  2.0973  2.7233 -2.7041
  837MOL0     H12957   3.154   8.086   3.052  0.5135 -1.8733 -0.2768
  837MOL0     H12958   3.233   8.199   2.952 -2.3730  2.2211  1.8801
  837MOL0     H12959   2.720   7.832   2.735 -1.4810 -0.7009  0.6068
  837MOL0     H12960   2.484   7.865   2.683 -0.5468  1.1863  0.7167
  837MOL0     H12961   2.330   7.816   2.444  0.8599 -0.2917 -0.3387
  837MOL0     H12962   2.289   7.895   2.613 -0.5991  0.2871 -0.0186
  837MOL0     H12963   2.150   7.847   2.375 -0.7407  1.6925 -1.2075
  837MOL0     H12964   2.098   7.874   2.543  0.8604  2.1230  2.1003
  837MOL0     H12965   2.131   8.076   2.326 -3.0401  0.6616 -0.7025
  837MOL0     H12966   2.154   8.132   2.495 -3.5010  1.8228  0.1146
  837MOL0     H12967   1.914   7.991   2.358 -0.2919  0.6788  0.0821
  837MOL0     H12968   1.904   8.021   2.519 -2.6509 -1.3670 -3.2083
  837MOL0     H12969   1.916   8.226   2.299 -0.7720  0.9525 -1.4365
  837MOL0     H12970   1.911   8.271   2.475 -4.7186  0.3639  0.8749
  837MOL0     H12971   1.700   8.136   2.317 -0.6559 -0.8666  1.0597
  837MOL0     H12972   1.712   8.107   2.491  0.8291 -0.6311 -0.0827
  837MOL0     H12973   1.693   8.389   2.377  0.6040  1.5070  0.5273
  837MOL0     H12974   1.713   8.351   2.552 -0.9962 -0.6683  0.8488
  837MOL0     H12975   1.484   8.240   2.521 -0.9182 -3.0357 -3.8534
  837MOL0     H12976   1.473   8.301   2.356 -0.4480  0.7147 -0.7766
  837MOL0     H12977   2.595   8.152   2.389  1.9756 -1.0174  0.2221
  837MOL0     H12978   2.826   8.132   2.435  0.9141  1.8135  2.1549
  837MOL0     H12979   3.146   7.849   2.559  0.5519 -2.0273  0.8805
  837MOL0     H12980   3.384   7.797   2.597  2.2929  0.6071 -0.0922
  837MOL0     H12981   5.159   7.876   3.207 -0.9480 -0.1633 -1.5522
  837MOL0     H12982   5.394   7.917   3.185  0.8074 -0.1007 -0.8100
  837MOL0     H12983   5.813   8.077   3.043  0.0134  0.5285  0.0786
  837MOL0     H12984   6.051   8.074   3.109 -2.4692  1.5503  0.3035
  837MOL0     H12985   6.216   7.742   3.312  3.3733  0.5938  2.5458
  837MOL0     H12986   6.271   7.676   3.169 -0.6329 -0.8097  1.0757
  837MOL0     H12987   6.454   7.739   3.320 -0.1700 -0.8947 -1.2896
  837MOL0     H12988   6.394   7.906   3.311 -5.7688 -0.7106  1.0407
  837MOL0     H12989   6.480   7.933   3.078  5.6374  1.2301  0.3067
  837MOL0     H12990   6.489   7.760   3.063  2.5862 -0.8781  0.3349
  837MOL0     H12991   6.702   7.779   3.194 -2.0674 -0.4319 -0.7611
  837MOL0     H12992   6.640   7.909   3.297  3.2751  0.6016  0.2664
  837MOL0     H12993   6.829   8.121   2.989 -0.2436  1.7948  1.2821
  837MOL0     H12994   6.022   7.646   3.164 -0.4817  0.0330 -0.2103
  837MOL0     H12995   5.778   7.667   3.146 -1.1355 -0.4940 -0.8475
  838MOL0     O12996   1.032  10.831   9.753  0.3481  0.5668  0.3327
  838MOL0     C12997   1.120  10.908   9.713 -0.0776 -0.1715  0.0131
  838MOL0     O12998   1.098  11.035   9.656 -0.0147  0.3130 -0.1710
  838MOL0     C12999   0.972  11.080   9.647  0.5986  0.6460 -0.2970
  838MOL0     C13000   0.885  11.059   9.543  0.3112  0.6481  0.0233
  838MOL0     C13001   0.760  11.123   9.534  0.1410  0.8153  0.8232
  838MOL0     C13002   0.707  11.208   9.625 -0.7587 -0.4956 -0.7411
  838MOL0     O13003   0.587  11.264   9.600 -0.0191  0.2177  0.8584
  838MOL0     C13004   0.543  11.361   9.699  0.2200  0.3510 -1.6635
  838MOL0     C13005   0.400  11.399   9.666 -0.2807 -0.0682  0.2952
  838MOL0     C13006   0.355  11.521   9.748 -0.3410  0.3559  0.9104
  838MOL0     C13007   0.411  11.657   9.706 -0.8982 -0.6603  0.5562
  838MOL0     C13008   0.493  11.729   9.813 -0.3973  0.4245  0.3672
  838MOL0     C13009   0.408  11.793   9.928 -0.3631 -0.6014  0.1783
  838MOL0     C13010   0.509  11.851  10.037  0.5513  0.5672  0.3758
  838MOL0     C13011   0.429  11.906  10.152 -0.3950  0.0117  0.7358
  838MOL0     N13012   0.330  11.992  10.098  0.2958  0.3374  0.1126
  838MOL0     C13013   0.342  12.130  10.067  0.7960  0.9042  0.1721
  838MOL0     C13014   0.220  12.187  10.089  0.9173 -0.0524  0.0396
  838MOL0     C13015   0.193  12.328  10.069 -0.0318 -0.3222  0.6886
  838MOL0     C13016   0.138  12.360   9.920 -0.3250  0.0103 -0.4545
  838MOL0     C13017   0.010  12.279   9.893  0.7023  0.3692  0.0902
  838MOL0     C13018  -0.109  12.291   9.987 -0.2751 -0.4810 -0.5548
  838MOL0     O13019  -0.233  12.246   9.921 -0.2433  0.0736 -0.1278
  838MOL0     C13020  -0.348  12.243   9.987 -0.3672  0.0665 -0.1725
  838MOL0     C13021  -0.368  12.204  10.117 -0.2503  0.7052  0.7592
  838MOL0     C13022  -0.491  12.199  10.176  0.1579  0.3114  0.4415
  838MOL0     C13023  -0.497  12.133  10.314  0.5503 -0.0372 -0.2006
  838MOL0     C13024  -0.609  12.238  10.106 -0.6985 -0.5458  0.2767
  838MOL0     C13025  -0.744  12.235  10.163 -0.1732  1.0257  0.1518
  838MOL0     O13026  -0.841  12.254  10.072  0.7996 -0.0466  0.1114
  838MOL0     C13027  -0.970  12.297  10.088 -0.1267  0.0419  0.5524
  838MOL0     C13028  -1.059  12.259   9.990  1.1155 -0.4235 -0.0360
  838MOL0     C13029  -1.199  12.271  10.017  0.0199  0.0467 -0.4572
  838MOL0     C13030  -1.239  12.340  10.134 -0.1462 -0.5349  0.0765
  838MOL0     O13031  -1.376  12.372  10.146 -0.2656 -0.0389 -0.2395
  838MOL0     C13032  -1.414  12.503  10.202  0.3692  0.0897  0.4016
  838MOL0     C13033  -1.567  12.509  10.230 -0.1533 -0.3959  0.8591
  838MOL0     C13034  -1.601  12.624  10.324  0.4789 -0.7302  0.0896
  838MOL0     C13035  -1.746  12.628  10.366  0.0058 -0.7791  0.6067
  838MOL0     C13036  -1.839  12.681  10.254 -0.6851 -0.4132  0.2245
  838MOL0     C13037  -1.994  12.676  10.310 -0.3119 -0.0935 -0.3759
  838MOL0     C13038  -2.092  12.632  10.207  0.3912 -0.0728  0.0127
  838MOL0     C13039  -2.106  12.723  10.089  0.5839  0.0788 -0.4914
  838MOL0    Cl13040  -2.238  12.838  10.110 -0.2647 -0.0783 -0.2185
  838MOL0     C13041  -1.145  12.375  10.232  0.5595  0.3236 -0.4109
  838MOL0     C13042  -1.011  12.367  10.204 -0.8232  0.4294  0.0471
  838MOL0     O13043  -0.765  12.235  10.287 -0.1257 -0.6850 -0.7343
  838MOL0     C13044  -0.592  12.281   9.973 -0.4162  0.4779  0.3270
  838MOL0     C13045  -0.465  12.281   9.918  0.0856  0.7185 -0.3471
  838MOL0     N13046   0.140  12.089  10.143  0.1492  0.2788  0.1409
  838MOL0     N13047   0.205  11.978  10.145  0.4143  0.2251  0.2718
  838MOL0     C13048   0.787  11.220   9.741 -0.2188  0.0611  0.1948
  838MOL0     C13049   0.914  11.157   9.752 -0.6082 -0.1988  0.1547
  838MOL0     C13050   1.257  10.867   9.730  0.0077  0.6331  0.5580
  838MOL0     C13051   1.288  10.790   9.841  0.3685  0.0138 -1.0151
  838MOL0     C13052   1.423  10.739   9.856  0.1981  0.2250 -0.3162
  838MOL0     C13053   1.527  10.774   9.765  0.1164  0.0132 -0.6372
  838MOL0     O13054   1.660  10.735   9.770 -0.1876 -0.0633  0.4880
  838MOL0     C13055   1.713  10.705   9.904 -0.2629 -0.0275  1.1267
  838MOL0     C13056   1.749  10.834   9.973 -0.6043 -0.2118 -0.1248
  838MOL0     C13057   1.871  10.919   9.913 -0.9642 -0.9053 -0.0626
  838MOL0     C13058   2.009  10.851   9.931 -0.2516  0.1191  0.4142
  838MOL0     C13059   2.025  10.740   9.834 -0.7887 -1.1677  0.7148
  838MOL0     C13060   2.036  10.653   9.746 -0.8914 -0.1778 -0.5718
  838MOL0     C13061   1.490  10.858   9.660 -0.3561 -0.4556 -0.0735
  838MOL0     C13062   1.357  10.901   9.647  0.4928  0.0583  0.1804
  838MOL0     H13063   0.901  10.984   9.466 -1.1865 -1.5165  1.6940
  838MOL0     H13064   0.698  11.113   9.445 -1.4690  2.1620  1.7359
  838MOL0     H13065   0.547  11.317   9.800 -0.0930  3.7409 -0.0363
  838MOL0     H13066   0.604  11.451   9.690 -0.3751  1.2890  1.8962
  838MOL0     H13067   0.399  11.427   9.560  1.7726 -1.5713 -0.1818
  838MOL0     H13068   0.337  11.310   9.679 -0.9489  0.5247  1.2454
  838MOL0     H13069   0.249  11.527   9.723 -0.2848 -0.6422  0.3677
  838MOL0     H13070   0.361  11.502   9.856 -0.0411 -0.6188  0.7309
  838MOL0     H13071   0.462  11.652   9.610  0.5838 -1.6295  1.3560
  838MOL0     H13072   0.327  11.726   9.699 -0.0003  0.5237  1.0101
  838MOL0     H13073   0.575  11.669   9.854  0.7386 -0.9707 -3.4478
  838MOL0     H13074   0.558  11.800   9.762  3.0909 -1.2900  2.0997
  838MOL0     H13075   0.344  11.870   9.885  2.3687  2.9327  1.9422
  838MOL0     H13076   0.361  11.715   9.989  0.1648  2.4050  4.9152
  838MOL0     H13077   0.563  11.760  10.065  0.1439 -0.0813 -0.8920
  838MOL0     H13078   0.582  11.922   9.997  1.1559  2.6253  4.4890
  838MOL0     H13079   0.504  11.959  10.210  2.4722 -3.3435  0.4223
  838MOL0     H13080   0.379  11.825  10.206 -0.0354 -0.2906  0.6154
  838MOL0     H13081   0.429  12.168  10.015  1.4482  0.2168  0.7270
  838MOL0     H13082   0.111  12.357  10.137  2.0329  1.1090  2.7139
  838MOL0     H13083   0.280  12.383  10.107 -0.0650 -1.6593  2.8947
  838MOL0     H13084   0.217  12.346   9.846 -0.1433  0.2183 -0.3024
  838MOL0     H13085   0.107  12.464   9.909  1.7757  0.6143 -1.2322
  838MOL0     H13086   0.030  12.172   9.885 -0.1018  0.2322 -0.2169
  838MOL0     H13087  -0.026  12.318   9.797  3.1548  2.9230  0.0683
  838MOL0     H13088  -0.116  12.396  10.016  5.1605 -0.1069  0.3000
  838MOL0     H13089  -0.096  12.237  10.081  3.9283  1.9271  0.4988
  838MOL0     H13090  -0.286  12.170  10.179  0.0722  2.6615  1.4842
  838MOL0     H13091  -0.567  12.049  10.323  0.5975 -0.0793 -0.2280
  838MOL0     H13092  -0.397  12.100  10.344  1.2182  1.1801 -1.0173
  838MOL0     H13093  -0.525  12.204  10.394  1.8451  2.3485 -1.7581
  838MOL0     H13094  -1.035  12.190   9.910  0.9409  2.5596 -2.8801
  838MOL0     H13095  -1.280  12.239   9.952 -0.1720  1.7073 -1.0944
  838MOL0     H13096  -1.365  12.521  10.298 -3.1667 -1.9017  2.8094
  838MOL0     H13097  -1.383  12.589  10.142  2.1233 -0.2121  0.8173
  838MOL0     H13098  -1.622  12.551  10.146  1.2634  1.6150  0.8451
  838MOL0     H13099  -1.614  12.412  10.245 -1.3960  0.0361 -0.0522
  838MOL0     H13100  -1.558  12.712  10.275  4.1736 -2.1766  0.3781
  838MOL0     H13101  -1.541  12.626  10.416  0.4775 -2.0815  0.1387
  838MOL0     H13102  -1.782  12.530  10.399 -2.2477 -0.2791 -0.1496
  838MOL0     H13103  -1.772  12.689  10.453 -0.2295  0.3112 -0.2132
  838MOL0     H13104  -1.834  12.613  10.169 -4.8070 -0.4906 -0.1700
  838MOL0     H13105  -1.814  12.785  10.231  2.5722 -1.4855 -1.6777
  838MOL0     H13106  -1.999  12.590  10.377 -0.0825  0.3304  0.1969
  838MOL0     H13107  -2.013  12.758  10.380 -0.2230 -0.6841  0.3534
  838MOL0     H13108  -2.191  12.628  10.253 -0.4491  1.0224 -1.6152
  838MOL0     H13109  -2.071  12.530  10.174  3.3924  0.2740  0.5736
  838MOL0     H13110  -2.128  12.661  10.001 -2.4591 -0.0421  0.2303
  838MOL0     H13111  -2.013  12.774  10.064 -0.3824  1.3245 -1.7156
  838MOL0     H13112  -1.174  12.411  10.330 -2.9820  2.4023 -1.9891
  838MOL0     H13113  -0.935  12.400  10.274 -0.0940 -0.1049 -0.4760
  838MOL0     H13114  -0.679  12.320   9.922  0.3923  2.4587  0.3584
  838MOL0     H13115  -0.446  12.306   9.814  1.5884 -2.8502 -1.0873
  838MOL0     H13116   0.759  11.281   9.826 -3.4925 -2.0969  0.8324
  838MOL0     H13117   0.966  11.184   9.844 -2.4168  0.9419  0.8963
  838MOL0     H13118   1.213  10.756   9.912  0.4524 -0.2409 -1.0492
  838MOL0     H13119   1.441  10.671   9.939  1.5037 -1.0068 -1.5451
  838MOL0     H13120   1.637  10.657   9.966 -1.9559  0.2800 -0.5943
  838MOL0     H13121   1.798  10.636   9.894 -2.1485 -2.5914  1.6897
  838MOL0     H13122   1.764  10.809  10.079  0.0302 -0.0586 -0.1764
  838MOL0     H13123   1.660  10.897   9.964 -0.9097 -0.6345 -0.0771
  838MOL0     H13124   1.880  11.020   9.954 -1.0759 -0.7463 -0.4244
  838MOL0     H13125   1.845  10.934   9.808  1.2721  1.0710 -0.4203
  838MOL0     H13126   2.005  10.809  10.032 -2.6211 -2.4843 -0.6434
  838MOL0     H13127   2.094  10.918   9.912  0.8505 -0.7113  2.1259
  838MOL0     H13128   2.038  10.578   9.669 -1.6484  0.0194 -0.7908
  838MOL0     H13129   1.567  10.894   9.592 -0.4963 -0.0277 -0.0079
  838MOL0     H13130   1.338  10.971   9.566  1.3858 -2.7808 -2.7232
  839MOL0     O13131   7.921   5.656  10.524 -1.0798  0.0665  0.6659
  839MOL0     C13132   7.881   5.686  10.633 -0.5896 -0.8015  0.7241
  839MOL0     O13133   7.949   5.713  10.747  0.3570 -0.7031 -0.3143
  839MOL0     C13134   8.085   5.703  10.751  0.5673 -0.7638  0.6873
  839MOL0     C13135   8.148   5.595  10.818  0.2786 -0.0856  0.6874
  839MOL0     C13136   8.284   5.587  10.810 -0.8125  0.9530  0.3560
  839MOL0     C13137   8.364   5.691  10.756 -0.6505  0.5312 -0.1502
  839MOL0     O13138   8.503   5.678  10.740 -1.0097  0.3185 -1.2337
  839MOL0     C13139   8.568   5.642  10.860  0.7468 -0.1442  0.6314
  839MOL0     C13140   8.695   5.564  10.829  0.3765  0.4329 -0.5521
  839MOL0     C13141   8.825   5.641  10.786  0.0671 -0.1321 -0.7411
  839MOL0     C13142   8.811   5.738  10.667 -0.8775 -0.2929 -0.6625
  839MOL0     C13143   8.937   5.753  10.586  0.2829 -0.1436  0.0749
  839MOL0     C13144   9.068   5.806  10.663 -0.2202 -0.2987  0.1567
  839MOL0     C13145   9.078   5.957  10.678 -0.6239 -0.1143  0.3919
  839MOL0     C13146   9.083   6.034  10.539  0.4517  0.3497 -0.4309
  839MOL0     N13147   9.198   5.979  10.463  0.2453 -0.1059 -0.0515
  839MOL0     C13148   9.327   6.009  10.490 -0.1941 -0.1461 -0.4610
  839MOL0     C13149   9.398   5.949  10.385  0.2676 -0.4088 -0.5850
  839MOL0     C13150   9.542   5.927  10.353  0.0958 -0.5614  0.4136
  839MOL0     C13151   9.649   5.970  10.466  0.9829 -0.5177 -0.2750
  839MOL0     C13152   9.783   5.957  10.401 -0.7586 -0.4203 -1.2893
  839MOL0     C13153   9.881   5.926  10.506 -0.2988  0.1178 -0.5704
  839MOL0     O13154  10.011   5.920  10.445 -0.0798 -0.9015  0.1500
  839MOL0     C13155  10.124   5.912  10.518  0.2414  0.2976  0.9688
  839MOL0     C13156  10.233   5.926  10.434 -0.2117  0.4078  0.2578
  839MOL0     C13157  10.365   5.912  10.481  0.1748  0.3309  0.4984
  839MOL0     C13158  10.475   5.946  10.385 -0.3254  0.8000 -0.4425
  839MOL0     C13159  10.383   5.886  10.619 -0.6087  1.3334  0.0834
  839MOL0     C13160  10.519   5.875  10.671 -2.0877 -0.7965 -0.4210
  839MOL0     O13161  10.544   5.771  10.758  0.1947  0.3144 -0.1113
  839MOL0     C13162  10.666   5.727  10.808 -0.2012 -0.2968  0.0023
  839MOL0     C13163  10.671   5.602  10.868 -0.9124  0.1398 -0.5226
  839MOL0     C13164  10.784   5.546  10.925 -0.0689 -0.6029 -0.0927
  839MOL0     C13165  10.908   5.621  10.921  0.7817  0.1424  0.3385
  839MOL0     O13166  11.019   5.575  10.982  0.0299  0.0063  0.1560
  839MOL0     C13167  11.130   5.586  10.888  0.4348 -0.0069  0.9332
  839MOL0     C13168  11.237   5.491  10.929 -0.4310 -0.4071  0.2420
  839MOL0     C13169  11.358   5.494  10.835 -0.0284  0.1776 -0.6182
  839MOL0     C13170  11.463   5.599  10.889  0.3244  0.3881  0.3782
  839MOL0     C13171  11.584   5.619  10.800  0.3946  0.0662 -0.1621
  839MOL0     C13172  11.667   5.727  10.876  0.1289  0.1531 -0.2549
  839MOL0     C13173  11.806   5.701  10.831  0.5487  0.1232  0.2625
  839MOL0     C13174  11.836   5.781  10.704  0.2744 -0.0727 -0.1792
  839MOL0    Cl13175  11.845   5.955  10.729 -0.3118 -0.0940 -0.1589
  839MOL0     C13176  10.893   5.751  10.872 -0.7416 -0.6062  0.0088
  839MOL0     C13177  10.781   5.796  10.801 -0.5369  0.0614  0.3419
  839MOL0     O13178  10.598   5.965  10.640 -0.6752 -0.1774 -0.3442
  839MOL0     C13179  10.272   5.865  10.702  0.2286 -1.0052  0.3660
  839MOL0     C13180  10.137   5.871  10.653  0.1658 -1.2553 -0.0105
  839MOL0     N13181   9.296   5.893  10.302 -0.1609 -0.2522 -0.2241
  839MOL0     N13182   9.176   5.914  10.346  1.1579 -0.5412 -0.0438
  839MOL0     C13183   8.300   5.805  10.709  0.8458 -0.5137 -0.1118
  839MOL0     C13184   8.162   5.812  10.700  0.8081  0.6410  0.0027
  839MOL0     C13185   7.734   5.675  10.648  0.3712 -0.0208 -0.4005
  839MOL0     C13186   7.647   5.694  10.539  0.4347 -0.3673  0.6873
  839MOL0     C13187   7.507   5.680  10.551  0.6189 -0.0875 -0.0050
  839MOL0     C13188   7.451   5.651  10.681  0.1191 -0.3739  0.8207
  839MOL0     O13189   7.316   5.620  10.714  0.1797  0.3099 -0.6065
  839MOL0     C13190   7.222   5.607  10.605  0.3342 -0.7197  0.1556
  839MOL0     C13191   7.162   5.732  10.546 -0.8383 -0.2536 -0.1433
  839MOL0     C13192   7.103   5.695  10.410  0.1946 -0.2798 -0.3942
  839MOL0     C13193   6.994   5.794  10.360 -1.1572 -0.2381  0.1132
  839MOL0     C13194   6.864   5.789  10.429 -0.1157 -0.0260 -0.6899
  839MOL0     C13195   6.757   5.786  10.484 -0.8050 -0.1993  0.0926
  839MOL0     C13196   7.541   5.640  10.789 -0.5127 -0.0238  0.2272
  839MOL0     C13197   7.678   5.646  10.780  0.5735 -0.2170 -0.8419
  839MOL0     H13198   8.075   5.523  10.855 -2.9764  2.7547  0.3358
  839MOL0     H13199   8.337   5.492  10.809  3.6594  3.1694  0.0674
  839MOL0     H13200   8.588   5.729  10.924  1.3884  0.2782 -0.1253
  839MOL0     H13201   8.508   5.566  10.911  1.4546 -0.3646  1.1584
  839MOL0     H13202   8.704   5.514  10.925 -0.3889  1.8061  0.2541
  839MOL0     H13203   8.668   5.492  10.751  1.0970 -2.4465  1.6973
  839MOL0     H13204   8.862   5.693  10.875 -0.3449  0.8100 -1.1048
  839MOL0     H13205   8.898   5.564  10.759  1.0909 -0.2185  1.9589
  839MOL0     H13206   8.733   5.701  10.600  0.3664 -4.1066 -0.2408
  839MOL0     H13207   8.781   5.831  10.716 -1.4891 -1.5647  1.5201
  839MOL0     H13208   8.948   5.654  10.541  0.1065 -1.2602  2.3867
  839MOL0     H13209   8.907   5.820  10.504 -2.3938 -0.8060  0.4064
  839MOL0     H13210   9.076   5.765  10.764  0.3188 -0.5991 -0.0051
  839MOL0     H13211   9.163   5.777  10.616  0.6419 -1.7738  2.6024
  839MOL0     H13212   9.003   6.007  10.740  0.2557  1.2032  0.4252
  839MOL0     H13213   9.176   5.974  10.723 -1.4848  2.2396  1.5734
  839MOL0     H13214   9.100   6.141  10.554  0.3222  0.4072 -0.6884
  839MOL0     H13215   8.988   6.009  10.490  2.3468 -3.7671 -2.5964
  839MOL0     H13216   9.361   6.074  10.571 -0.7566 -2.2684  1.5939
  839MOL0     H13217   9.549   5.819  10.340 -0.8235 -0.2606 -4.0520
  839MOL0     H13218   9.578   5.980  10.264  0.7617 -4.1193 -1.6398
  839MOL0     H13219   9.622   5.908  10.552 -3.1232  1.6979  0.3091
  839MOL0     H13220   9.639   6.075  10.497  0.9624 -1.0771  1.7887
  839MOL0     H13221   9.806   6.052  10.353 -2.3748 -0.2436 -1.7597
  839MOL0     H13222   9.785   5.876  10.327  1.7367 -0.7044 -1.0199
  839MOL0     H13223   9.860   5.834  10.561  0.0194 -1.3847 -2.8434
  839MOL0     H13224   9.890   6.007  10.579  2.6667 -2.0533  1.7178
  839MOL0     H13225  10.211   5.951  10.331 -1.6092 -0.7833  0.2296
  839MOL0     H13226  10.510   6.048  10.401 -0.2902  0.4947  1.8684
  839MOL0     H13227  10.561   5.878  10.392 -0.2632  0.7601 -1.5156
  839MOL0     H13228  10.431   5.938  10.285  0.4851  2.5326 -0.9741
  839MOL0     H13229  10.585   5.537  10.873 -1.7503  1.2640  0.0947
  839MOL0     H13230  10.784   5.448  10.974  1.8065 -0.9641 -0.7242
  839MOL0     H13231  11.092   5.561  10.789  1.8889 -0.0246  0.3630
  839MOL0     H13232  11.166   5.688  10.877 -1.2942  0.4152 -1.4734
  839MOL0     H13233  11.245   5.522  11.033 -0.6896  0.5212 -0.0064
  839MOL0     H13234  11.185   5.394  10.931 -0.0924 -0.5803  0.6722
  839MOL0     H13235  11.318   5.522  10.737 -2.8494  1.6704  0.8476
  839MOL0     H13236  11.404   5.395  10.829  1.7500  0.8275  1.0715
  839MOL0     H13237  11.418   5.699  10.894 -2.8268 -0.9244  0.4742
  839MOL0     H13238  11.480   5.572  10.993  0.5018 -0.8249  0.0492
  839MOL0     H13239  11.576   5.647  10.694  2.5090 -2.2354 -1.0398
  839MOL0     H13240  11.630   5.520  10.790  0.4182  0.1107 -0.5082
  839MOL0     H13241  11.634   5.829  10.859  0.0174 -0.0888 -1.5584
  839MOL0     H13242  11.672   5.696  10.981 -0.6282  0.9214  0.0142
  839MOL0     H13243  11.829   5.596  10.811 -2.8078 -0.5765 -0.4887
  839MOL0     H13244  11.879   5.736  10.905  2.0953 -1.1300 -0.5982
  839MOL0     H13245  11.752   5.773  10.634  1.5687 -1.2222 -1.6700
  839MOL0     H13246  11.920   5.739  10.647  0.3306 -0.2328  0.0223
  839MOL0     H13247  10.981   5.814  10.882  1.7533 -3.7284 -0.6535
  839MOL0     H13248  10.782   5.896  10.757 -3.8417  0.3139  0.6179
  839MOL0     H13249  10.284   5.825  10.802 -4.4630 -2.0398  0.7607
  839MOL0     H13250  10.055   5.837  10.715  0.1384 -0.5017  0.3770
  839MOL0     H13251   8.368   5.886  10.685  0.6515  0.0831  1.2651
  839MOL0     H13252   8.122   5.899  10.649 -2.2677 -0.2477  0.7209
  839MOL0     H13253   7.695   5.703  10.442  0.4865  0.9441  0.8131
  839MOL0     H13254   7.442   5.696  10.466  3.1930  0.3978 -2.0166
  839MOL0     H13255   7.272   5.556  10.522 -1.4512  1.2798 -2.3207
  839MOL0     H13256   7.137   5.543  10.631  1.4559 -1.4646  2.2327
  839MOL0     H13257   7.236   5.811  10.528  1.6022 -1.9730  1.6864
  839MOL0     H13258   7.095   5.780  10.618  1.2687  0.4700  1.4748
  839MOL0     H13259   7.055   5.598  10.422 -0.5683  0.3369  2.2745
  839MOL0     H13260   7.175   5.688  10.329 -0.2267  0.6311 -0.8699
  839MOL0     H13261   6.998   5.791  10.251 -0.2197 -2.2560  0.1656
  839MOL0     H13262   7.039   5.891  10.384 -0.1825  0.6987 -4.5841
  839MOL0     H13263   6.661   5.797  10.529 -0.6879 -0.3047  0.3743
  839MOL0     H13264   7.490   5.625  10.883  1.0821 -1.9566  0.8398
  839MOL0     H13265   7.737   5.623  10.867  1.0428 -2.5223 -1.7045
  840MOL0     O13266   3.164   7.186   4.086  0.6710  0.6815  0.2061
  840MOL0     C13267   3.225   7.286   4.101 -0.6905 -0.4352 -0.7910
  840MOL0     O13268   3.242   7.380   4.001  0.0155  0.5514 -0.1001
  840MOL0     C13269   3.189   7.357   3.872 -0.3607  0.1287  0.1228
  840MOL0     C13270   3.243   7.441   3.769 -0.6381  0.0380 -0.0005
  840MOL0     C13271   3.191   7.428   3.643  0.6790 -0.6210 -0.0306
  840MOL0     C13272   3.089   7.335   3.611  0.9482  0.8017 -1.2841
  840MOL0     O13273   3.034   7.327   3.483 -0.2180 -0.1299 -0.2391
  840MOL0     C13274   3.108   7.371   3.374  0.3042 -0.4038 -0.6262
  840MOL0     C13275   3.034   7.340   3.247  0.2388 -0.7619 -0.2586
  840MOL0     C13276   2.907   7.426   3.238 -1.0112  0.2031  0.0953
  840MOL0     C13277   2.831   7.390   3.116  0.7511  0.0322  0.0805
  840MOL0     C13278   2.687   7.438   3.122  0.4093 -0.8914  0.5615
  840MOL0     C13279   2.673   7.593   3.134 -0.1371  0.3332  0.7226
  840MOL0     C13280   2.530   7.645   3.096  0.9336 -0.0416  0.7779
  840MOL0     C13281   2.529   7.673   2.947 -0.5529  0.1210  0.4874
  840MOL0     N13282   2.396   7.657   2.891  0.4487 -0.3730  0.1854
  840MOL0     C13283   2.279   7.718   2.942 -0.5943 -0.5495  0.5677
  840MOL0     C13284   2.183   7.661   2.863  0.6764  0.2928 -0.2899
  840MOL0     C13285   2.035   7.687   2.880 -0.0870  0.2515 -0.0219
  840MOL0     C13286   1.959   7.681   2.755  0.3380 -0.5600  1.1605
  840MOL0     C13287   1.820   7.738   2.770 -0.2255 -0.0115 -0.5128
  840MOL0     C13288   1.740   7.684   2.890 -0.2230  0.4468 -0.0661
  840MOL0     O13289   1.599   7.697   2.867 -0.0522  0.0555 -0.2551
  840MOL0     C13290   1.532   7.628   2.771 -0.1789  0.9591 -0.2343
  840MOL0     C13291   1.404   7.672   2.738  0.2871 -0.6509 -0.9498
  840MOL0     C13292   1.306   7.604   2.662  0.0303  0.2019 -0.0629
  840MOL0     C13293   1.172   7.680   2.640  0.2184  0.2321  0.5200
  840MOL0     C13294   1.358   7.484   2.596 -0.4220  0.6021  0.7965
  840MOL0     C13295   1.284   7.402   2.499  0.0761 -0.2608  0.9618
  840MOL0     O13296   1.321   7.272   2.495 -0.0088 -0.1791  0.6373
  840MOL0     C13297   1.249   7.190   2.410 -0.7370 -0.5764 -0.2456
  840MOL0     C13298   1.248   7.197   2.276  0.4514 -0.8502 -0.4884
  840MOL0     C13299   1.170   7.123   2.194  0.5641 -0.6269  0.4135
  840MOL0     C13300   1.089   7.021   2.246  0.4394  0.4199  1.0353
  840MOL0     O13301   1.030   6.938   2.150 -0.3338 -1.1123 -0.1280
  840MOL0     C13302   0.968   6.815   2.198  0.2018  0.2528  0.8759
  840MOL0     C13303   0.907   6.743   2.082 -0.9987 -1.2660 -0.2188
  840MOL0     C13304   0.781   6.814   2.040 -0.1365 -0.7027 -0.2432
  840MOL0     C13305   0.721   6.731   1.940  0.0884 -0.0665  0.6829
  840MOL0     C13306   0.582   6.783   1.910  0.3880 -0.9143  0.8685
  840MOL0     C13307   0.571   6.934   1.866  0.3356  0.3237  0.0977
  840MOL0     C13308   0.438   6.968   1.807  0.1993 -0.0547  0.8506
  840MOL0     C13309   0.424   7.111   1.744 -0.8008 -0.0213  0.2630
  840MOL0    Cl13310   0.476   7.107   1.571 -0.3342  0.3103 -0.3964
  840MOL0     C13311   1.090   7.002   2.387  0.1533 -0.6116  0.0006
  840MOL0     C13312   1.179   7.084   2.465  0.1483 -0.2326 -0.0489
  840MOL0     O13313   1.193   7.452   2.426 -0.0833 -0.6424 -0.3971
  840MOL0     C13314   1.486   7.437   2.633 -0.5613 -0.7622 -0.1270
  840MOL0     C13315   1.575   7.507   2.709  0.4352 -0.2207  0.1076
  840MOL0     N13316   2.233   7.575   2.766  1.0340  0.2370 -0.0389
  840MOL0     N13317   2.360   7.589   2.783 -0.0712  0.1717  0.8214
  840MOL0     C13318   3.037   7.252   3.712  0.1770 -0.6902  0.1793
  840MOL0     C13319   3.078   7.277   3.837 -0.1799  0.0847 -0.1783
  840MOL0     C13320   3.290   7.311   4.231 -0.1366  0.8671  0.4885
  840MOL0     C13321   3.236   7.257   4.347 -0.3002  0.1115 -0.9376
  840MOL0     C13322   3.296   7.287   4.470 -0.5793 -0.0612 -0.2395
  840MOL0     C13323   3.412   7.369   4.480 -0.4836  0.2267  0.3264
  840MOL0     O13324   3.479   7.406   4.593 -0.4160 -0.2131  0.0535
  840MOL0     C13325   3.524   7.295   4.675  0.5087  0.5898  1.1330
  840MOL0     C13326   3.641   7.346   4.746 -1.1955  0.0025 -0.3467
  840MOL0     C13327   3.778   7.344   4.677 -0.0915  0.5221  0.2011
  840MOL0     C13328   3.795   7.435   4.547  0.4541 -0.3485  0.2216
  840MOL0     C13329   3.928   7.427   4.500 -0.8029  0.0997  0.7821
  840MOL0     C13330   4.035   7.424   4.443  0.1113  0.5740 -0.0709
  840MOL0     C13331   3.463   7.429   4.362 -0.1088 -0.0353 -0.3091
  840MOL0     C13332   3.399   7.400   4.241  0.2810  0.6920 -0.4153
  840MOL0     H13333   3.320   7.512   3.796  0.8566 -1.1658 -0.9432
  840MOL0     H13334   3.236   7.491   3.567  2.8410  0.2019  1.8154
  840MOL0     H13335   3.120   7.479   3.382 -0.9417 -0.3319  0.5864
  840MOL0     H13336   3.206   7.322   3.362  0.2879 -0.1091 -2.1597
  840MOL0     H13337   3.106   7.372   3.171  0.4999  0.6076  0.5374
  840MOL0     H13338   3.004   7.236   3.234 -1.6460 -0.4280  0.9778
  840MOL0     H13339   2.845   7.387   3.319 -0.1975 -2.6639 -0.5393
  840MOL0     H13340   2.926   7.532   3.253  0.0644  0.0266  0.0962
  840MOL0     H13341   2.864   7.457   3.035  2.9460  2.7754  3.0020
  840MOL0     H13342   2.846   7.287   3.084  1.4028 -0.3703  1.6064
  840MOL0     H13343   2.648   7.400   3.027  0.9122 -0.9523  0.3783
  840MOL0     H13344   2.641   7.385   3.206  0.1058 -0.3377  0.7520
  840MOL0     H13345   2.702   7.616   3.237  1.3133 -0.3561  0.4935
  840MOL0     H13346   2.746   7.638   3.067 -2.7099  0.8729 -1.9250
  840MOL0     H13347   2.458   7.564   3.106  1.5095 -0.6612  0.0148
  840MOL0     H13348   2.506   7.722   3.170  1.7097 -3.0344  4.4818
  840MOL0     H13349   2.591   7.602   2.891 -0.7607 -0.6189  1.1656
  840MOL0     H13350   2.579   7.768   2.931  1.7481 -0.9972  0.5828
  840MOL0     H13351   2.269   7.791   3.022 -1.2920 -0.6147  0.5520
  840MOL0     H13352   2.001   7.611   2.951 -0.9480 -0.7358 -1.4695
  840MOL0     H13353   2.018   7.785   2.926  1.1929  1.6619 -2.4043
  840MOL0     H13354   1.949   7.582   2.710  1.6366 -0.0500 -0.3737
  840MOL0     H13355   2.015   7.735   2.677  0.1412  0.0164  1.4186
  840MOL0     H13356   1.770   7.709   2.677 -0.3674 -2.9517  0.3601
  840MOL0     H13357   1.821   7.846   2.782 -1.0771 -0.3078  3.0231
  840MOL0     H13358   1.772   7.741   2.978  1.0770 -3.6153  2.3425
  840MOL0     H13359   1.765   7.579   2.904  0.7858  0.9002  1.9145
  840MOL0     H13360   1.370   7.762   2.789 -3.5111 -2.5656  0.2998
  840MOL0     H13361   1.085   7.625   2.675 -2.1017  1.5346 -2.6993
  840MOL0     H13362   1.172   7.773   2.697 -2.5903  0.3166  0.5007
  840MOL0     H13363   1.161   7.711   2.535 -1.4647  3.6871  1.5935
  840MOL0     H13364   1.311   7.276   2.237  2.4661 -2.4577 -0.7140
  840MOL0     H13365   1.158   7.142   2.088  1.1259 -1.6485  0.1444
  840MOL0     H13366   1.045   6.742   2.224 -0.0573 -0.8759 -1.3214
  840MOL0     H13367   0.889   6.841   2.269 -0.6378  2.4107 -0.7178
  840MOL0     H13368   0.981   6.742   2.001  0.9808  1.9615  1.3619
  840MOL0     H13369   0.889   6.638   2.108 -0.0750 -0.7371  2.9900
  840MOL0     H13370   0.821   6.903   1.991  2.8463 -0.5917  2.0879
  840MOL0     H13371   0.715   6.834   2.125  0.5484  0.4691  0.0342
  840MOL0     H13372   0.777   6.712   1.848 -1.3378 -1.0358 -0.0153
  840MOL0     H13373   0.705   6.630   1.980 -1.3041  0.0921  0.5661
  840MOL0     H13374   0.513   6.760   1.991  1.9585 -2.2808  1.8776
  840MOL0     H13375   0.546   6.721   1.827 -1.1538  0.7151  0.2638
  840MOL0     H13376   0.572   7.002   1.952 -1.5646  0.6892 -0.1145
  840MOL0     H13377   0.648   6.964   1.794  0.1678  0.0774 -0.1898
  840MOL0     H13378   0.364   6.977   1.886 -0.4213  1.1725  0.1631
  840MOL0     H13379   0.407   6.894   1.732 -1.6182  1.3003  0.1697
  840MOL0     H13380   0.487   7.169   1.813  0.6031 -0.3938 -0.6562
  840MOL0     H13381   0.324   7.153   1.753 -0.7937  0.5099 -1.5939
  840MOL0     H13382   1.044   6.917   2.436 -2.2213  0.7541  0.3186
  840MOL0     H13383   1.226   7.052   2.557  1.7700  2.7911  0.3079
  840MOL0     H13384   1.532   7.355   2.579  0.4006 -0.5994  0.4372
  840MOL0     H13385   1.676   7.468   2.715 -0.0844 -1.6521  0.0760
  840MOL0     H13386   2.966   7.175   3.684  0.2739 -1.7955  2.7496
  840MOL0     H13387   3.024   7.213   3.906 -0.9049 -0.9747 -1.6764
  840MOL0     H13388   3.139   7.207   4.349 -1.8690  2.8173  3.2672
  840MOL0     H13389   3.254   7.242   4.559 -3.7066 -0.9348 -1.9855
  840MOL0     H13390   3.444   7.274   4.747  1.8985 -2.3675  1.9924
  840MOL0     H13391   3.533   7.196   4.629 -0.2307  0.4049  1.3649
  840MOL0     H13392   3.648   7.282   4.834  0.1679 -0.7303 -0.9457
  840MOL0     H13393   3.628   7.449   4.781  1.5135 -0.1488  1.4061
  840MOL0     H13394   3.803   7.240   4.655  1.0314  0.4627  1.5958
  840MOL0     H13395   3.854   7.384   4.744  0.1465 -0.9173  0.8216
  840MOL0     H13396   3.785   7.539   4.579  1.6557  0.3432 -1.5293
  840MOL0     H13397   3.721   7.416   4.469 -0.8967  2.8732  0.5746
  840MOL0     H13398   4.129   7.412   4.392  0.9386 -0.6077  1.6280
  840MOL0     H13399   3.546   7.499   4.369 -1.6809  1.8113  1.4221
  840MOL0     H13400   3.436   7.461   4.159  1.9201  0.5934  0.2010
  841MOL0     O13401  11.210   0.400   6.801  0.2859 -0.4518 -0.1790
  841MOL0     C13402  11.318   0.364   6.843 -0.5444  0.2315 -0.5887
  841MOL0     O13403  11.341   0.278   6.941 -1.0746 -0.2063  0.6827
  841MOL0     C13404  11.253   0.256   7.046 -0.3995 -0.8452  0.0689
  841MOL0     C13405  11.291   0.149   7.124 -0.6203 -0.0085  0.5184
  841MOL0     C13406  11.221   0.110   7.245  0.7056  0.0266  0.5137
  841MOL0     C13407  11.119   0.189   7.287  0.2900  0.9208 -0.4411
  841MOL0     O13408  11.046   0.146   7.400  0.6711 -0.1515 -0.0230
  841MOL0     C13409  10.903   0.121   7.386  0.7267 -0.4227  0.4059
  841MOL0     C13410  10.856   0.006   7.295  0.1289  0.2496  0.4457
  841MOL0     C13411  10.700   0.001   7.304 -0.1324 -0.0782 -0.9502
  841MOL0     C13412  10.636  -0.126   7.250  0.7080 -0.2232  0.0420
  841MOL0     C13413  10.502  -0.136   7.322  0.3705  1.2314  0.0822
  841MOL0     C13414  10.421  -0.250   7.252 -0.4209 -0.5914  0.4755
  841MOL0     C13415  10.275  -0.231   7.290 -0.3542  0.5414  0.2995
  841MOL0     C13416  10.185  -0.359   7.268  0.6873  0.4022 -0.7892
  841MOL0     N13417  10.058  -0.354   7.347  0.0207  0.2519 -0.0664
  841MOL0     C13418   9.938  -0.394   7.293 -1.1562  0.4689 -0.2010
  841MOL0     C13419   9.855  -0.389   7.400  0.4920 -0.1903 -0.5015
  841MOL0     C13420   9.707  -0.402   7.391  0.6509 -0.3366 -0.0066
  841MOL0     C13421   9.668  -0.497   7.269  0.0827  1.1319 -0.1544
  841MOL0     C13422   9.521  -0.532   7.264  0.5435  0.3690  0.0743
  841MOL0     C13423   9.421  -0.420   7.262 -0.0926  0.0303 -0.3375
  841MOL0     O13424   9.390  -0.382   7.135 -0.0062 -0.0453  0.6109
  841MOL0     C13425   9.289  -0.283   7.109  0.1520 -0.0992 -1.3014
  841MOL0     C13426   9.202  -0.214   7.203  0.3139  1.0277 -0.1737
  841MOL0     C13427   9.104  -0.121   7.161 -0.5283 -0.3591  0.4013
  841MOL0     C13428   9.030  -0.042   7.276  0.1644 -0.3818 -0.4251
  841MOL0     C13429   9.073  -0.099   7.024 -0.0208  0.3030 -0.3458
  841MOL0     C13430   8.959  -0.019   6.969  0.3866  0.6921 -0.1094
  841MOL0     O13431   8.899   0.064   7.051  0.5615 -0.1885 -0.3230
  841MOL0     C13432   8.771   0.109   7.027 -0.6735 -0.2480  1.0255
  841MOL0     C13433   8.734   0.172   6.906  0.3458  0.4435 -0.0336
  841MOL0     C13434   8.608   0.237   6.903 -0.1564  1.0132 -0.4007
  841MOL0     C13435   8.509   0.226   7.006  0.0254 -0.2685  0.0601
  841MOL0     O13436   8.387   0.289   7.005 -0.4828 -0.2821  0.5244
  841MOL0     C13437   8.385   0.384   6.893  0.7834  0.2005 -0.1634
  841MOL0     C13438   8.253   0.453   6.875  0.1002  0.3877 -0.9238
  841MOL0     C13439   8.146   0.350   6.842 -0.2319  0.1659  0.4559
  841MOL0     C13440   8.018   0.413   6.789 -0.2387 -0.4086  0.8845
  841MOL0     C13441   8.046   0.463   6.648 -0.0518  0.1017 -0.4490
  841MOL0     C13442   8.056   0.347   6.536  0.3729  0.2137  0.1993
  841MOL0     C13443   8.105   0.407   6.405 -0.7991  0.3872  0.4294
  841MOL0     C13444   8.050   0.316   6.299  0.2137 -0.2258  1.1682
  841MOL0    Cl13445   7.875   0.349   6.283  0.1865  0.2009  0.0268
  841MOL0     C13446   8.550   0.161   7.119  0.0274 -0.0825 -0.0452
  841MOL0     C13447   8.675   0.102   7.127  0.6638 -0.1225 -0.0550
  841MOL0     O13448   8.923  -0.044   6.856 -1.2022 -0.2360 -0.2524
  841MOL0     C13449   9.160  -0.165   6.937 -0.1419  0.7260 -0.6756
  841MOL0     C13450   9.261  -0.253   6.979 -0.1234  0.8339  1.1036
  841MOL0     N13451   9.927  -0.340   7.510  0.4311 -0.4532 -0.9644
  841MOL0     N13452  10.050  -0.320   7.470 -0.1339  0.1092 -0.0408
  841MOL0     C13453  11.077   0.300   7.204  0.0718  0.2146 -0.0102
  841MOL0     C13454  11.144   0.329   7.089 -1.0805 -0.8247  0.1595
  841MOL0     C13455  11.437   0.415   6.782  0.2633  0.5852  0.9434
  841MOL0     C13456  11.564   0.413   6.843 -0.0207  0.2278 -0.1009
  841MOL0     C13457  11.676   0.472   6.779  0.2537 -0.5406  0.3763
  841MOL0     C13458  11.663   0.515   6.645 -0.1471 -0.4235 -0.1610
  841MOL0     O13459  11.770   0.564   6.573 -0.9354  0.4929 -0.2383
  841MOL0     C13460  11.908   0.522   6.597  0.7219 -0.8226  0.6299
  841MOL0     C13461  11.997   0.554   6.482  0.5522 -0.6971  0.3384
  841MOL0     C13462  12.037   0.707   6.469  0.3556  0.6234 -0.2487
  841MOL0     C13463  12.143   0.723   6.358  0.2489 -0.6143 -0.2014
  841MOL0     C13464  12.151   0.864   6.326  0.4144  0.3859 -0.8280
  841MOL0     C13465  12.150   0.974   6.293 -0.0288  0.2839  0.6039
  841MOL0     C13466  11.537   0.519   6.591  0.9200  0.0265 -0.7323
  841MOL0     C13467  11.427   0.463   6.650  0.2872  0.5842  0.9166
  841MOL0     H13468  11.383   0.093   7.108 -0.2359  0.2614  1.7378
  841MOL0     H13469  11.248   0.028   7.310 -2.1137 -0.6954  0.9044
  841MOL0     H13470  10.857   0.117   7.485 -2.7106  2.4982 -0.8502
  841MOL0     H13471  10.855   0.212   7.350 -1.1539 -2.0669 -1.4899
  841MOL0     H13472  10.896   0.015   7.193  2.9884  2.4310  1.6159
  841MOL0     H13473  10.895  -0.084   7.342 -1.3707 -0.1317  1.0167
  841MOL0     H13474  10.665   0.021   7.405 -0.6740  0.2461 -1.1933
  841MOL0     H13475  10.649   0.086   7.256 -2.2295 -1.2230 -0.8929
  841MOL0     H13476  10.619  -0.116   7.143  0.3024  1.4990  0.2376
  841MOL0     H13477  10.697  -0.212   7.279 -0.5959 -0.1182  3.5536
  841MOL0     H13478  10.525  -0.162   7.425 -0.1000 -0.0300 -0.1024
  841MOL0     H13479  10.456  -0.037   7.325  1.2889  1.6584  0.4405
  841MOL0     H13480  10.434  -0.240   7.144  1.3653  1.7755  0.8214
  841MOL0     H13481  10.457  -0.344   7.293  2.6995  0.2146 -0.1485
  841MOL0     H13482  10.275  -0.206   7.397 -0.8811 -0.7088  0.6136
  841MOL0     H13483  10.228  -0.148   7.238  0.5959  0.7218 -0.2966
  841MOL0     H13484  10.234  -0.452   7.300 -1.0291  0.2732  1.8195
  841MOL0     H13485  10.158  -0.368   7.163 -0.9705 -2.1969 -0.2248
  841MOL0     H13486   9.913  -0.417   7.190  1.5729 -1.0479 -0.6506
  841MOL0     H13487   9.678  -0.450   7.485  0.2991  2.1621  1.2497
  841MOL0     H13488   9.671  -0.300   7.376  0.3351 -0.5525 -0.7788
  841MOL0     H13489   9.728  -0.589   7.273  0.8428  1.6511  1.8313
  841MOL0     H13490   9.681  -0.446   7.174 -2.4345  0.7374 -0.7801
  841MOL0     H13491   9.495  -0.602   7.345  0.1918 -3.3161 -2.9255
  841MOL0     H13492   9.507  -0.594   7.174 -3.6922 -0.8091  1.3215
  841MOL0     H13493   9.464  -0.337   7.319  1.1337  0.2451 -1.5264
  841MOL0     H13494   9.331  -0.455   7.316 -1.1013 -1.5112 -2.8476
  841MOL0     H13495   9.204  -0.242   7.308  1.5864  0.7323 -0.2528
  841MOL0     H13496   9.092  -0.068   7.363  2.0288 -1.4076 -1.9628
  841MOL0     H13497   9.045   0.063   7.253  2.4261 -0.4779  0.2963
  841MOL0     H13498   8.926  -0.074   7.286 -0.1981  0.9904  0.4733
  841MOL0     H13499   8.794   0.175   6.815 -0.9917  0.0878 -0.9539
  841MOL0     H13500   8.585   0.281   6.807  0.4785 -1.1074 -1.5971
  841MOL0     H13501   8.458   0.465   6.903  0.3865  0.6879 -1.0823
  841MOL0     H13502   8.393   0.335   6.795 -1.6381  1.3354 -1.0195
  841MOL0     H13503   8.216   0.515   6.957  1.2951 -0.1989  0.0831
  841MOL0     H13504   8.274   0.526   6.797  1.1635  0.9761 -0.1146
  841MOL0     H13505   8.120   0.292   6.931  0.2154  3.7024  3.1492
  841MOL0     H13506   8.188   0.276   6.775 -1.3764  1.9330 -2.3902
  841MOL0     H13507   7.941   0.337   6.777  2.9192 -3.6103 -0.9316
  841MOL0     H13508   7.979   0.483   6.864  3.1148  0.8639  1.6348
  841MOL0     H13509   8.129   0.534   6.636  0.6478 -0.6928 -0.3418
  841MOL0     H13510   7.956   0.515   6.616 -0.0493 -0.2651 -1.0541
  841MOL0     H13511   8.128   0.269   6.562 -0.0294 -0.5153 -0.8593
  841MOL0     H13512   7.956   0.303   6.531  0.9164 -1.1689  0.8798
  841MOL0     H13513   8.214   0.400   6.399 -0.9667 -1.7237 -1.2757
  841MOL0     H13514   8.081   0.513   6.392 -1.9617  0.2866  1.5797
  841MOL0     H13515   8.056   0.212   6.331 -0.8310 -1.4068 -2.0367
  841MOL0     H13516   8.102   0.328   6.203 -0.2739 -1.7380  0.6961
  841MOL0     H13517   8.483   0.154   7.204  2.5367  1.6291  2.2567
  841MOL0     H13518   8.707   0.043   7.213  3.7012  2.5792  0.8793
  841MOL0     H13519   9.130  -0.149   6.834 -3.6413 -1.5891 -0.2209
  841MOL0     H13520   9.318  -0.314   6.910 -3.2784  1.9683 -2.9159
  841MOL0     H13521  10.996   0.365   7.236 -0.3043  0.8220 -2.0390
  841MOL0     H13522  11.112   0.418   7.036  1.9586 -0.3603 -1.0930
  841MOL0     H13523  11.581   0.375   6.944  0.6433  0.0484 -0.2806
  841MOL0     H13524  11.767   0.472   6.839  0.6736 -3.0425 -0.1540
  841MOL0     H13525  11.947   0.576   6.684 -0.4120  0.4162  0.3894
  841MOL0     H13526  11.905   0.415   6.620 -0.4453 -1.4385 -2.0248
  841MOL0     H13527  11.948   0.526   6.388 -0.9693  1.6324  0.3510
  841MOL0     H13528  12.087   0.495   6.504 -0.4771 -1.8333  1.7333
  841MOL0     H13529  12.058   0.741   6.571 -1.1927 -2.7916  1.3821
  841MOL0     H13530  11.942   0.755   6.443  0.6612  2.1646  1.2964
  841MOL0     H13531  12.110   0.674   6.266  1.4098 -1.5746 -0.1331
  841MOL0     H13532  12.240   0.691   6.396  0.6950  1.4900  0.5583
  841MOL0     H13533  12.164   1.058   6.228  0.4560 -2.5322 -3.2141
  841MOL0     H13534  11.514   0.577   6.501 -1.1681 -0.8842 -0.8571
  841MOL0     H13535  11.337   0.483   6.593  0.9918  0.2957 -0.3230
  842MOL0     O13536   1.412   9.395   7.551 -0.3428  0.5799  0.3655
  842MOL0     C13537   1.527   9.355   7.560 -0.5285  0.5759 -0.3551
  842MOL0     O13538   1.565   9.230   7.613 -0.5046  0.3301 -0.7486
  842MOL0     C13539   1.470   9.138   7.645 -0.1519 -0.3147 -0.1519
  842MOL0     C13540   1.484   9.075   7.767 -0.2631  0.0008 -0.4754
  842MOL0     C13541   1.397   8.978   7.807  0.4939  0.0159  1.2802
  842MOL0     C13542   1.286   8.949   7.733 -0.3075  0.2708 -0.2250
  842MOL0     O13543   1.191   8.874   7.800  0.2712  0.5541  0.3827
  842MOL0     C13544   1.095   8.804   7.724 -0.9830 -0.2367 -0.4245
  842MOL0     C13545   0.991   8.728   7.805  0.1544 -0.0658 -0.3334
  842MOL0     C13546   1.065   8.613   7.873  0.2627 -0.1081 -0.3925
  842MOL0     C13547   0.970   8.506   7.927  0.0302 -0.7194  0.1371
  842MOL0     C13548   1.049   8.403   8.006  0.2953  0.0238  0.0113
  842MOL0     C13549   1.109   8.298   7.908  0.6299 -0.5773 -0.5563
  842MOL0     C13550   1.203   8.204   7.984  0.2460  0.6177  0.3624
  842MOL0     C13551   1.290   8.109   7.890  0.1752  0.0939  0.0667
  842MOL0     N13552   1.230   7.974   7.877  0.2815 -0.4010 -0.5644
  842MOL0     C13553   1.106   7.962   7.824  0.0214 -0.1431 -0.4908
  842MOL0     C13554   1.106   7.829   7.800 -0.2706  0.5374  0.2171
  842MOL0     C13555   0.971   7.775   7.748  0.6254  0.1706 -0.7130
  842MOL0     C13556   0.971   7.617   7.750  1.6552  0.5179 -0.7973
  842MOL0     C13557   0.951   7.568   7.890 -0.7820 -0.5464 -0.3886
  842MOL0     C13558   0.955   7.412   7.890  0.3635  0.4504  0.4201
  842MOL0     O13559   0.989   7.373   8.027  0.3121 -0.1707 -0.3372
  842MOL0     C13560   1.118   7.386   8.074  1.1036 -0.2402  0.0432
  842MOL0     C13561   1.239   7.405   7.999 -0.1831  0.3272  0.2417
  842MOL0     C13562   1.362   7.419   8.057 -0.4802 -0.5306  0.0691
  842MOL0     C13563   1.483   7.438   7.962  0.7915 -0.5633  0.1107
  842MOL0     C13564   1.374   7.389   8.199  0.0413  0.2863  0.0879
  842MOL0     C13565   1.514   7.400   8.255  0.5637  0.1990  0.5074
  842MOL0     O13566   1.592   7.287   8.248 -0.3062  0.1511 -0.5449
  842MOL0     C13567   1.720   7.303   8.285  0.7366 -0.5845  0.9775
  842MOL0     C13568   1.773   7.317   8.419 -1.0841  0.6310 -0.2699
  842MOL0     C13569   1.911   7.345   8.434  0.2753 -0.4896 -0.1947
  842MOL0     C13570   1.998   7.352   8.324 -0.9359  0.1977 -0.1371
  842MOL0     O13571   2.126   7.401   8.351 -0.1641  0.2307  0.5831
  842MOL0     C13572   2.225   7.351   8.260 -0.1787  0.3057  0.7716
  842MOL0     C13573   2.372   7.364   8.294  0.9331 -0.1605  0.2153
  842MOL0     C13574   2.467   7.291   8.196 -0.0275 -0.4919 -0.6818
  842MOL0     C13575   2.596   7.363   8.182 -0.5935 -0.8906 -1.1177
  842MOL0     C13576   2.684   7.331   8.301 -0.3550 -0.5364  0.0365
  842MOL0     C13577   2.825   7.395   8.293  0.1347  0.2449  0.5256
  842MOL0     C13578   2.926   7.323   8.388  0.6285 -0.4842  0.0037
  842MOL0     C13579   3.065   7.385   8.347  0.1953 -0.8599 -0.0947
  842MOL0    Cl13580   3.194   7.300   8.438  0.2158 -0.0145 -0.0455
  842MOL0     C13581   1.947   7.339   8.195  0.2497  0.3108  0.1134
  842MOL0     C13582   1.814   7.312   8.176  0.2544  0.2757 -0.1417
  842MOL0     O13583   1.540   7.502   8.307 -0.1698 -0.1652  0.5139
  842MOL0     C13584   1.254   7.365   8.277  0.3724 -0.5267 -0.4131
  842MOL0     C13585   1.132   7.367   8.207  0.6990 -0.5704  0.1672
  842MOL0     N13586   1.224   7.765   7.833 -0.6071 -0.6360  0.1769
  842MOL0     N13587   1.298   7.860   7.877 -0.4712  0.8956 -0.3357
  842MOL0     C13588   1.269   9.010   7.608  0.3414  0.1270 -0.2765
  842MOL0     C13589   1.355   9.109   7.572  0.2980  0.1262 -0.5985
  842MOL0     C13590   1.650   9.440   7.521  0.7622 -0.0714  0.7993
  842MOL0     C13591   1.637   9.581   7.516  0.2987 -0.2056 -0.1726
  842MOL0     C13592   1.727   9.658   7.445 -1.3785  0.4719 -0.3793
  842MOL0     C13593   1.847   9.602   7.384  0.8736 -0.3612  0.1216
  842MOL0     O13594   1.943   9.691   7.332 -0.8464 -0.1320  0.4085
  842MOL0     C13595   2.069   9.656   7.277  0.5008  0.1329  0.0461
  842MOL0     C13596   2.129   9.747   7.165 -0.0717 -0.6268 -0.4903
  842MOL0     C13597   2.091   9.897   7.197  0.9251 -0.5779  0.4150
  842MOL0     C13598   2.175   9.956   7.300 -1.2748  0.9518 -0.4439
  842MOL0     C13599   2.309   9.991   7.245  0.5415  0.5935  0.0254
  842MOL0     C13600   2.412  10.017   7.196 -0.5568 -0.1387  0.5094
  842MOL0     C13601   1.854   9.462   7.381 -0.0927  0.2278 -0.9651
  842MOL0     C13602   1.758   9.388   7.449  0.0367  0.5552  0.2694
  842MOL0     H13603   1.558   9.103   7.841 -0.7099 -1.5278  0.5957
  842MOL0     H13604   1.420   8.939   7.905  1.6911  0.3560  1.1439
  842MOL0     H13605   1.037   8.878   7.669 -1.0456  1.0586  1.2891
  842MOL0     H13606   1.140   8.734   7.652 -2.6964 -0.0425 -1.7443
  842MOL0     H13607   0.950   8.794   7.882  0.1289  1.6152 -1.7239
  842MOL0     H13608   0.913   8.696   7.735  1.3997 -0.6043 -1.5241
  842MOL0     H13609   1.125   8.554   7.802  1.5396  1.5116 -0.7313
  842MOL0     H13610   1.134   8.647   7.950 -0.1401 -1.8269  0.7918
  842MOL0     H13611   0.897   8.558   7.990  0.4714 -0.1284  0.1729
  842MOL0     H13612   0.912   8.462   7.846  1.1191 -2.6235  0.3311
  842MOL0     H13613   1.124   8.456   8.065  0.0534  0.0793  0.2683
  842MOL0     H13614   0.981   8.344   8.068 -0.9891 -0.0693 -1.4152
  842MOL0     H13615   1.023   8.241   7.870 -1.9916  1.6132  1.6445
  842MOL0     H13616   1.170   8.345   7.830  1.8661  0.3943  0.9304
  842MOL0     H13617   1.270   8.271   8.039  1.2549  1.3565 -1.6713
  842MOL0     H13618   1.149   8.142   8.056 -2.3690  0.5148 -1.5457
  842MOL0     H13619   1.381   8.093   7.949 -1.8934  1.4295  4.0492
  842MOL0     H13620   1.305   8.152   7.791  0.4228 -0.4410 -0.1296
  842MOL0     H13621   1.017   8.023   7.818 -0.8912 -0.2741  5.5336
  842MOL0     H13622   0.889   7.815   7.808  0.5360 -1.2853  0.1838
  842MOL0     H13623   0.954   7.798   7.642 -0.4040 -0.4472 -0.6985
  842MOL0     H13624   1.063   7.574   7.710  1.9073  0.1712  0.1327
  842MOL0     H13625   0.880   7.591   7.696  0.5974  0.2929  1.0208
  842MOL0     H13626   0.856   7.600   7.934 -0.9743  3.3699 -3.1266
  842MOL0     H13627   1.030   7.611   7.952 -3.1572  1.9875  1.0892
  842MOL0     H13628   1.023   7.357   7.825  1.4722 -0.1039  1.9911
  842MOL0     H13629   0.857   7.373   7.863  1.3459 -2.6019  0.8774
  842MOL0     H13630   1.235   7.386   7.893 -2.0871  0.0526  0.3379
  842MOL0     H13631   1.572   7.458   8.022  0.7848 -0.4798  0.0925
  842MOL0     H13632   1.508   7.344   7.912  0.3605 -0.6855  0.1218
  842MOL0     H13633   1.469   7.521   7.891  0.9645 -2.8385 -2.7831
  842MOL0     H13634   1.702   7.316   8.501 -0.9922 -0.1948 -0.1933
  842MOL0     H13635   1.938   7.365   8.536 -3.0575  1.2740  0.4783
  842MOL0     H13636   2.202   7.247   8.240 -3.5534  1.1389 -0.2787
  842MOL0     H13637   2.214   7.397   8.161  1.4668  3.8556  2.0340
  842MOL0     H13638   2.397   7.470   8.295  0.7006 -0.0901  1.8534
  842MOL0     H13639   2.382   7.336   8.399  1.1630  1.7015  0.7262
  842MOL0     H13640   2.431   7.296   8.093 -0.1409 -1.8781 -0.7335
  842MOL0     H13641   2.477   7.189   8.235  0.7560 -0.8200 -1.6852
  842MOL0     H13642   2.661   7.338   8.099  3.2624 -0.0076  1.3820
  842MOL0     H13643   2.578   7.471   8.184  2.9256 -0.1682  1.8821
  842MOL0     H13644   2.701   7.224   8.310  3.2150  0.0255  1.5916
  842MOL0     H13645   2.643   7.365   8.396  2.4606 -0.1667  1.2205
  842MOL0     H13646   2.866   7.377   8.193  1.6754 -2.9142  1.5876
  842MOL0     H13647   2.827   7.498   8.329 -0.7433 -0.1516  1.7735
  842MOL0     H13648   2.927   7.214   8.397 -0.2359 -0.3688  2.0173
  842MOL0     H13649   2.902   7.361   8.488  2.2126  0.3145  0.1077
  842MOL0     H13650   3.068   7.490   8.378 -1.6339 -0.9260  0.4396
  842MOL0     H13651   3.090   7.372   8.241 -0.8437  0.5359 -0.5417
  842MOL0     H13652   2.000   7.361   8.102 -1.2593 -0.3366 -0.9419
  842MOL0     H13653   1.786   7.318   8.071 -0.3690  1.5216  0.0754
  842MOL0     H13654   1.262   7.363   8.385  1.4593  0.6968 -0.4493
  842MOL0     H13655   1.044   7.346   8.266 -2.1946  0.8565 -3.2149
  842MOL0     H13656   1.180   9.001   7.548 -0.4538  0.4242  0.8215
  842MOL0     H13657   1.323   9.175   7.493  2.4024  4.3339  1.7461
  842MOL0     H13658   1.550   9.618   7.569  0.5677  2.7304 -1.5919
  842MOL0     H13659   1.725   9.767   7.445  0.1171  0.6474  3.1895
  842MOL0     H13660   2.148   9.656   7.353  0.8779 -0.2753 -0.3367
  842MOL0     H13661   2.059   9.558   7.229 -1.5090 -1.4130  3.2591
  842MOL0     H13662   2.090   9.721   7.066 -0.7970 -0.6098 -0.2133
  842MOL0     H13663   2.237   9.734   7.166 -0.0916 -0.7845  0.4050
  842MOL0     H13664   1.987   9.908   7.227  0.1633 -1.9451 -1.5523
  842MOL0     H13665   2.111   9.953   7.105  1.2377  0.8587  1.3235
  842MOL0     H13666   2.180   9.888   7.385 -3.9942  1.1023 -0.0687
  842MOL0     H13667   2.127  10.051   7.327 -0.8924  0.6382  1.4520
  842MOL0     H13668   2.492  10.060   7.139 -2.2326  0.4217 -1.5823
  842MOL0     H13669   1.932   9.412   7.324  0.6795  2.0188 -1.5639
  842MOL0     H13670   1.774   9.281   7.459  4.4064  0.9084 -0.8863
  843MOL0     O13671   4.647   8.295   7.260  0.7715 -0.1415  0.5024
  843MOL0     C13672   4.549   8.241   7.211 -0.0783  0.8095  0.9888
  843MOL0     O13673   4.454   8.174   7.273  0.2678 -0.0465  0.5053
  843MOL0     C13674   4.458   8.153   7.409 -0.0245  0.7907 -0.0757
  843MOL0     C13675   4.334   8.129   7.476 -0.0520  0.1365  0.6985
  843MOL0     C13676   4.335   8.092   7.612  0.0852  0.4336 -0.6098
  843MOL0     C13677   4.447   8.064   7.692  0.7496  0.7051  0.4467
  843MOL0     O13678   4.441   8.024   7.825 -0.9541  0.4132  0.5876
  843MOL0     C13679   4.322   8.004   7.899  0.5016 -0.6020  0.3030
  843MOL0     C13680   4.339   8.003   8.056 -0.6946 -0.5511  1.1525
  843MOL0     C13681   4.347   8.147   8.096  0.6830  0.2297  0.2253
  843MOL0     C13682   4.362   8.180   8.242  0.5809  0.2504  0.2011
  843MOL0     C13683   4.383   8.328   8.264  0.1017  0.5371  0.1277
  843MOL0     C13684   4.246   8.414   8.241 -0.2500  0.0775  0.3541
  843MOL0     C13685   4.285   8.562   8.259  1.1218 -0.6283 -0.5723
  843MOL0     C13686   4.158   8.650   8.226  0.7366 -0.1992 -0.5338
  843MOL0     N13687   4.115   8.631   8.088 -0.1296  0.0883  0.9447
  843MOL0     C13688   4.206   8.638   7.981 -0.3410 -0.3294 -1.2393
  843MOL0     C13689   4.137   8.583   7.881 -0.3386 -0.8957  0.3570
  843MOL0     C13690   4.206   8.580   7.746  0.1761 -1.0194  0.3297
  843MOL0     C13691   4.338   8.497   7.751  0.5584  0.0706  0.1417
  843MOL0     C13692   4.393   8.457   7.624  0.4563  0.4194 -0.8729
  843MOL0     C13693   4.435   8.571   7.534  0.1049  0.0932  0.1409
  843MOL0     O13694   4.542   8.647   7.603  0.2992  0.6221  0.2402
  843MOL0     C13695   4.670   8.612   7.575  0.2487 -0.0453  0.0961
  843MOL0     C13696   4.759   8.701   7.621 -0.1493  0.3867  0.6220
  843MOL0     C13697   4.897   8.688   7.606  1.2309  0.8176 -0.7980
  843MOL0     C13698   4.997   8.780   7.673  0.5484 -0.3088 -0.1108
  843MOL0     C13699   4.946   8.569   7.544  0.1766 -0.4469 -0.6498
  843MOL0     C13700   5.087   8.539   7.529  0.2039  1.2834  0.8511
  843MOL0     O13701   5.133   8.454   7.619 -0.0340  0.7342 -0.2322
  843MOL0     C13702   5.243   8.382   7.584  0.3064 -0.4008 -0.1173
  843MOL0     C13703   5.233   8.264   7.520  0.4434 -0.7773  0.4774
  843MOL0     C13704   5.349   8.216   7.470 -0.1993  0.4905  0.2118
  843MOL0     C13705   5.475   8.258   7.490 -0.7165  0.7333 -0.0925
  843MOL0     O13706   5.589   8.189   7.436  0.8700 -0.3085  0.0779
  843MOL0     C13707   5.702   8.260   7.384  0.1095  0.3689 -0.9001
  843MOL0     C13708   5.798   8.159   7.305  0.4355 -0.1227  0.8348
  843MOL0     C13709   5.715   8.060   7.207 -0.7061 -0.0091  0.2397
  843MOL0     C13710   5.803   7.957   7.120  0.2534 -0.4084 -0.8257
  843MOL0     C13711   5.858   7.853   7.213 -1.2108  0.9698 -0.1229
  843MOL0     C13712   5.977   7.783   7.145 -0.6834 -0.7561  0.1861
  843MOL0     C13713   6.042   7.692   7.255  0.3752 -0.4754 -0.1434
  843MOL0     C13714   6.158   7.611   7.193  0.0381 -0.6037  0.4448
  843MOL0    Cl13715   6.316   7.710   7.176 -0.3630 -0.0489  0.2357
  843MOL0     C13716   5.485   8.380   7.562 -0.5949  0.2887 -0.8332
  843MOL0     C13717   5.368   8.437   7.612  0.2402 -0.7541  0.1857
  843MOL0     O13718   5.158   8.581   7.431 -0.1802 -0.3474  0.1033
  843MOL0     C13719   4.852   8.478   7.502  0.2246 -0.9687 -0.0054
  843MOL0     C13720   4.714   8.498   7.513  0.4365  0.0739  0.6188
  843MOL0     N13721   4.019   8.536   7.917  0.3706  0.3740  0.2472
  843MOL0     N13722   4.004   8.559   8.039 -0.1411  0.1525  0.1754
  843MOL0     C13723   4.567   8.077   7.627 -0.2705 -0.7052  0.0154
  843MOL0     C13724   4.575   8.119   7.493  0.4455  0.0387  0.2492
  843MOL0     C13725   4.524   8.251   7.063 -0.2949 -0.4917 -0.0519
  843MOL0     C13726   4.600   8.336   6.980  0.1252  0.2392 -0.7739
  843MOL0     C13727   4.556   8.359   6.845 -0.4482  0.0153 -0.9790
  843MOL0     C13728   4.434   8.302   6.792 -0.5622 -0.8046  1.3644
  843MOL0     O13729   4.398   8.331   6.661  0.1701 -0.2999 -0.4193
  843MOL0     C13730   4.293   8.261   6.595 -0.0044 -0.0608  0.0128
  843MOL0     C13731   4.317   8.111   6.583 -0.5296 -0.7025 -0.4363
  843MOL0     C13732   4.464   8.077   6.553 -0.0921 -0.4131  0.1428
  843MOL0     C13733   4.472   7.949   6.474 -0.2102  0.1252  0.1973
  843MOL0     C13734   4.610   7.901   6.470  0.0886 -1.0815  0.7234
  843MOL0     C13735   4.724   7.862   6.469  0.8021 -0.6842  0.4074
  843MOL0     C13736   4.360   8.229   6.882 -0.1825  0.5703 -1.1115
  843MOL0     C13737   4.401   8.202   7.013  0.1512  0.2144 -0.6605
  843MOL0     H13738   4.239   8.150   7.428  0.3930 -1.4406 -0.9788
  843MOL0     H13739   4.238   8.088   7.661  0.6027  1.3621  0.5645
  843MOL0     H13740   4.253   8.086   7.875  0.9233  0.2127  1.7658
  843MOL0     H13741   4.282   7.905   7.874 -0.7466 -0.1350  0.3487
  843MOL0     H13742   4.257   7.952   8.108 -0.4533 -1.2312  0.8893
  843MOL0     H13743   4.427   7.944   8.082 -0.6724 -0.8687  0.3937
  843MOL0     H13744   4.434   8.186   8.042  1.0694 -1.9924 -0.8351
  843MOL0     H13745   4.253   8.193   8.065  0.9850  1.2727  0.7821
  843MOL0     H13746   4.270   8.141   8.286 -0.5039  0.8414 -1.4425
  843MOL0     H13747   4.450   8.130   8.284  1.2224  0.2003 -1.1252
  843MOL0     H13748   4.402   8.338   8.371 -1.5661  0.8810  0.4269
  843MOL0     H13749   4.470   8.355   8.203  1.2077  0.1226  1.4678
  843MOL0     H13750   4.236   8.400   8.133  3.6450  0.2947 -0.1928
  843MOL0     H13751   4.158   8.382   8.297  1.0588 -3.3350  0.6509
  843MOL0     H13752   4.318   8.566   8.363 -1.6426 -1.6265  0.4189
  843MOL0     H13753   4.374   8.596   8.204  2.9203 -1.0664  1.8980
  843MOL0     H13754   4.168   8.758   8.243  1.5513 -0.1041 -1.5515
  843MOL0     H13755   4.078   8.612   8.291  3.6511 -0.9263  2.9299
  843MOL0     H13756   4.302   8.686   7.965 -1.6760  1.3288 -5.4112
  843MOL0     H13757   4.142   8.542   7.666 -0.8483 -2.6769  1.8676
  843MOL0     H13758   4.239   8.682   7.728 -0.3325 -0.7579  0.8467
  843MOL0     H13759   4.311   8.409   7.810 -0.2822  2.4284  3.5496
  843MOL0     H13760   4.412   8.542   7.817  1.3048  0.3814 -0.8776
  843MOL0     H13761   4.325   8.392   7.567  0.6608 -1.1711  0.6139
  843MOL0     H13762   4.480   8.391   7.630 -0.7014 -1.3160 -2.0731
  843MOL0     H13763   4.346   8.634   7.523  0.9546  1.2941 -0.0130
  843MOL0     H13764   4.467   8.547   7.433 -1.3502 -0.4907 -0.2159
  843MOL0     H13765   4.716   8.790   7.667 -1.9653 -0.3839  0.4895
  843MOL0     H13766   5.045   8.729   7.757 -1.2219  0.2571  1.3113
  843MOL0     H13767   5.060   8.823   7.595 -0.9280  0.5893 -0.8543
  843MOL0     H13768   4.942   8.864   7.717  3.3805  0.6047  1.9765
  843MOL0     H13769   5.134   8.222   7.506 -1.0183  2.7543 -0.9567
  843MOL0     H13770   5.351   8.121   7.417  2.1778 -0.4967  1.8697
  843MOL0     H13771   5.670   8.345   7.323  0.7595  1.3290  0.0612
  843MOL0     H13772   5.753   8.300   7.472  3.9970 -1.9594 -1.8274
  843MOL0     H13773   5.869   8.217   7.244  0.5812 -0.8529  0.3050
  843MOL0     H13774   5.845   8.101   7.384 -2.0921 -0.9152  1.8483
  843MOL0     H13775   5.658   8.125   7.140 -0.2937  2.0320  1.7607
  843MOL0     H13776   5.641   8.006   7.267  0.0394 -0.1086  1.0914
  843MOL0     H13777   5.746   7.913   7.038  0.6864 -2.1105 -0.2600
  843MOL0     H13778   5.889   8.017   7.086  1.1944  0.7156  3.0587
  843MOL0     H13779   5.782   7.779   7.241  0.0290 -1.1329 -1.9730
  843MOL0     H13780   5.889   7.905   7.304 -0.0373 -1.2061  0.7843
  843MOL0     H13781   5.948   7.723   7.059 -0.2558  0.1036 -0.5851
  843MOL0     H13782   6.044   7.864   7.113  1.7410 -1.1198  3.7787
  843MOL0     H13783   5.969   7.628   7.306  0.1825  1.1635  1.7889
  843MOL0     H13784   6.092   7.758   7.326  1.5244 -1.6164  0.1514
  843MOL0     H13785   6.130   7.565   7.098  0.1804 -0.0163  0.1154
  843MOL0     H13786   6.175   7.530   7.264  2.5298  0.1252  0.7760
  843MOL0     H13787   5.587   8.414   7.577 -0.3029  0.3977 -2.8468
  843MOL0     H13788   5.367   8.528   7.671 -2.1335  0.1329 -1.0807
  843MOL0     H13789   4.891   8.383   7.467  4.4926  0.7895 -0.6449
  843MOL0     H13790   4.649   8.420   7.475  0.8454 -0.4599  1.0095
  843MOL0     H13791   4.655   8.045   7.683  0.4543 -0.1311 -0.7878
  843MOL0     H13792   4.676   8.141   7.460  0.8493 -0.6633  0.9874
  843MOL0     H13793   4.681   8.390   7.027  0.6996 -1.8546  0.8335
  843MOL0     H13794   4.614   8.438   6.799 -0.4886 -0.1533 -1.3282
  843MOL0     H13795   4.201   8.278   6.651  0.2376 -0.1382  0.4357
  843MOL0     H13796   4.292   8.295   6.491 -2.7175 -1.2654 -0.4412
  843MOL0     H13797   4.246   8.065   6.514  0.1626  1.3637 -2.6714
  843MOL0     H13798   4.297   8.065   6.681  2.6084 -1.4418 -0.0329
  843MOL0     H13799   4.517   8.062   6.647 -0.5139 -1.3335  0.2542
  843MOL0     H13800   4.511   8.157   6.496  1.5800 -0.6194  1.1558
  843MOL0     H13801   4.435   7.979   6.376 -2.4929  0.5216  1.1241
  843MOL0     H13802   4.417   7.867   6.521  0.3753  0.5200  1.6207
  843MOL0     H13803   4.828   7.848   6.444  0.4536  1.7291 -3.2539
  843MOL0     H13804   4.259   8.193   6.861  0.4519 -0.9276 -1.7499
  843MOL0     H13805   4.329   8.154   7.079 -2.7143  3.9009 -0.7344
  844MOL0     O13806   3.501   4.904   6.906 -0.0381 -0.1208  0.6094
  844MOL0     C13807   3.487   4.846   7.014  0.2004  0.1559  0.6796
  844MOL0     O13808   3.370   4.789   7.046  0.0316  0.1417 -0.1059
  844MOL0     C13809   3.265   4.796   6.963 -0.4781 -0.3158 -0.2450
  844MOL0     C13810   3.197   4.683   6.912 -0.0541 -0.5242  0.0142
  844MOL0     C13811   3.077   4.701   6.847  0.3811  0.0349  0.7943
  844MOL0     C13812   3.021   4.825   6.815  0.0894  0.0467 -0.4112
  844MOL0     O13813   2.909   4.825   6.738  0.1820  0.4232 -0.9103
  844MOL0     C13814   2.821   4.941   6.743  0.3636  0.7418 -0.3341
  844MOL0     C13815   2.675   4.905   6.736 -0.2146 -0.2237  0.5546
  844MOL0     C13816   2.590   5.037   6.723  0.2907  0.0704  0.8608
  844MOL0     C13817   2.448   5.006   6.676  0.2570  0.0984 -0.5180
  844MOL0     C13818   2.369   5.127   6.620  0.1739  0.3653  0.3031
  844MOL0     C13819   2.219   5.095   6.601 -0.5268  0.1599 -0.5516
  844MOL0     C13820   2.135   5.222   6.580 -0.6392 -0.0429 -0.0503
  844MOL0     C13821   1.984   5.197   6.624 -0.6878  0.1420 -0.1343
  844MOL0     N13822   1.916   5.328   6.653  0.2052 -0.0365 -0.1407
  844MOL0     C13823   1.950   5.404   6.757  0.1593  0.4586  0.1419
  844MOL0     C13824   1.866   5.512   6.756 -1.0263  0.0414  0.7824
  844MOL0     C13825   1.865   5.627   6.853 -0.1684  0.6817 -0.3043
  844MOL0     C13826   1.730   5.648   6.915  0.0366 -0.0022 -0.5234
  844MOL0     C13827   1.707   5.784   6.987  1.2205 -0.0920 -0.6371
  844MOL0     C13828   1.815   5.825   7.090  0.5990  0.1209  0.3173
  844MOL0     O13829   1.826   5.733   7.198  0.3167 -0.0674 -0.2498
  844MOL0     C13830   1.748   5.742   7.311  0.3512 -0.1751 -1.2003
  844MOL0     C13831   1.768   5.831   7.419 -0.1547  0.0999  0.1266
  844MOL0     C13832   1.698   5.815   7.540 -0.2366 -0.4210 -0.2516
  844MOL0     C13833   1.729   5.918   7.649 -0.1044 -0.0941  0.6890
  844MOL0     C13834   1.599   5.713   7.557  0.2002  0.5040 -0.3450
  844MOL0     C13835   1.510   5.700   7.671  0.2338 -0.8064 -0.2751
  844MOL0     O13836   1.416   5.597   7.662  0.2625  0.5050 -0.7639
  844MOL0     C13837   1.314   5.598   7.755  0.5831  0.1711  0.3165
  844MOL0     C13838   1.323   5.560   7.889 -0.0442  0.1729  0.3769
  844MOL0     C13839   1.220   5.567   7.979  0.1023  0.3870 -0.3472
  844MOL0     C13840   1.098   5.607   7.929  0.5953  0.5831  0.6533
  844MOL0     O13841   0.996   5.604   8.011 -0.8396 -0.2770  0.3785
  844MOL0     C13842   0.967   5.737   8.066  0.1021  0.1586  0.1513
  844MOL0     C13843   0.843   5.707   8.162  0.1386 -0.1944 -0.9374
  844MOL0     C13844   0.718   5.638   8.100  0.8179  0.3964  1.0636
  844MOL0     C13845   0.640   5.543   8.199 -0.6255  0.3904 -1.0665
  844MOL0     C13846   0.502   5.487   8.147 -0.1622 -1.1282  0.0870
  844MOL0     C13847   0.418   5.441   8.270 -0.6072 -0.6194 -0.3408
  844MOL0     C13848   0.298   5.366   8.213  0.7137  0.8441 -0.0181
  844MOL0     C13849   0.218   5.289   8.328  0.2571  0.7486  0.3095
  844MOL0    Cl13850   0.139   5.384   8.454 -0.5488  0.1340 -0.3298
  844MOL0     C13851   1.085   5.647   7.792  0.0227  0.3774 -0.0449
  844MOL0     C13852   1.194   5.640   7.702 -0.5417  1.1644 -0.0938
  844MOL0     O13853   1.509   5.782   7.760 -0.6625 -0.2811 -0.0436
  844MOL0     C13854   1.569   5.634   7.443  0.0855 -0.6278  0.8264
  844MOL0     C13855   1.647   5.647   7.323  0.0817  0.1092  0.0928
  844MOL0     N13856   1.787   5.506   6.636  0.0317  0.8409 -0.6379
  844MOL0     N13857   1.817   5.389   6.588 -0.7953  0.9152  0.1341
  844MOL0     C13858   3.089   4.937   6.867  0.9524 -0.1837 -0.5974
  844MOL0     C13859   3.208   4.927   6.938 -0.0785 -0.1590 -1.0107
  844MOL0     C13860   3.596   4.850   7.108 -0.5891  0.3461  0.2279
  844MOL0     C13861   3.720   4.906   7.073 -0.2927 -0.2412 -0.0821
  844MOL0     C13862   3.828   4.920   7.162 -0.0158 -0.5455  0.3164
  844MOL0     C13863   3.826   4.850   7.292  0.0621  0.2097 -0.4477
  844MOL0     O13864   3.942   4.853   7.357  0.0923 -0.3748 -0.6345
  844MOL0     C13865   3.937   4.804   7.494  0.3758  0.3627 -0.7880
  844MOL0     C13866   3.948   4.920   7.600 -0.5138  0.0674 -0.1153
  844MOL0     C13867   4.089   4.947   7.637  0.5690  0.5002  0.3347
  844MOL0     C13868   4.183   4.986   7.522  0.0571  0.2107  0.1360
  844MOL0     C13869   4.319   4.997   7.576 -0.3886 -0.2981 -0.8654
  844MOL0     C13870   4.436   5.009   7.612 -0.5152  0.9224  0.2926
  844MOL0     C13871   3.699   4.791   7.324  0.2826  0.5317  0.3500
  844MOL0     C13872   3.590   4.796   7.238 -0.6777  0.3449 -1.0833
  844MOL0     H13873   3.242   4.584   6.904 -2.7912 -1.6922 -4.3310
  844MOL0     H13874   3.021   4.618   6.804 -0.2898 -0.2667  2.1900
  844MOL0     H13875   2.826   4.992   6.839 -1.2817 -2.5219  1.6861
  844MOL0     H13876   2.856   5.002   6.659  0.0974 -1.0198 -1.8168
  844MOL0     H13877   2.653   4.829   6.660 -0.0211 -3.6581  3.6430
  844MOL0     H13878   2.653   4.852   6.829 -1.8637 -0.7790 -0.1238
  844MOL0     H13879   2.600   5.108   6.806  2.3642 -0.2698  0.9465
  844MOL0     H13880   2.630   5.094   6.640  0.4079  1.5068  1.8696
  844MOL0     H13881   2.451   4.927   6.601 -0.8928 -0.4923  0.0305
  844MOL0     H13882   2.396   4.972   6.766 -2.3626  1.4525 -1.4223
  844MOL0     H13883   2.372   5.214   6.688 -2.2153  0.2184  0.6767
  844MOL0     H13884   2.415   5.162   6.528 -1.8736  0.8313 -0.6002
  844MOL0     H13885   2.204   5.023   6.521  2.1002 -0.5425 -0.4987
  844MOL0     H13886   2.178   5.062   6.697 -4.2860  1.2355 -1.6356
  844MOL0     H13887   2.182   5.296   6.645 -1.5155 -1.3502  2.1747
  844MOL0     H13888   2.132   5.250   6.474  2.0844  2.6636  0.4522
  844MOL0     H13889   1.988   5.145   6.720 -1.2595  1.2392  0.4915
  844MOL0     H13890   1.930   5.127   6.559 -2.8523  1.4075  0.2067
  844MOL0     H13891   2.029   5.387   6.830  0.4646  3.2796  0.5737
  844MOL0     H13892   1.916   5.601   6.946 -0.6531  2.8638  0.6262
  844MOL0     H13893   1.901   5.719   6.807 -1.5353 -0.5312 -4.2389
  844MOL0     H13894   1.699   5.574   6.989  2.6311  0.2595  0.9217
  844MOL0     H13895   1.665   5.639   6.827  1.7969  0.4279 -1.9238
  844MOL0     H13896   1.607   5.777   7.029  0.7435 -0.7693 -1.8458
  844MOL0     H13897   1.708   5.861   6.909 -1.2468 -2.2949 -3.0470
  844MOL0     H13898   1.791   5.927   7.123 -2.5507 -0.7821  1.1823
  844MOL0     H13899   1.915   5.830   7.046  0.6532 -0.6381  0.3477
  844MOL0     H13900   1.832   5.914   7.389 -2.3024  0.9301 -2.5406
  844MOL0     H13901   1.636   5.973   7.668 -0.8538 -1.0332 -0.1081
  844MOL0     H13902   1.775   5.888   7.743  0.0419 -0.8905  0.3762
  844MOL0     H13903   1.799   5.994   7.612 -0.2456 -1.1801 -2.0543
  844MOL0     H13904   1.420   5.536   7.931 -0.9084 -3.3726  0.6795
  844MOL0     H13905   1.222   5.556   8.087 -0.4702  1.6443 -0.1967
  844MOL0     H13906   1.051   5.777   8.123  0.2393 -2.3162  1.8218
  844MOL0     H13907   0.942   5.801   7.981  0.2910  1.0012  0.7257
  844MOL0     H13908   0.880   5.659   8.253 -0.8380  3.3251  1.5547
  844MOL0     H13909   0.818   5.811   8.185  1.6655  0.2860 -1.3496
  844MOL0     H13910   0.753   5.583   8.013 -0.0003 -0.0377  0.9953
  844MOL0     H13911   0.643   5.713   8.072 -0.3827 -0.8476  0.8275
  844MOL0     H13912   0.698   5.455   8.229 -0.9602  0.3906 -0.3908
  844MOL0     H13913   0.618   5.605   8.287 -0.1390  0.6086 -1.1019
  844MOL0     H13914   0.526   5.412   8.072  1.5249  0.8879 -1.4931
  844MOL0     H13915   0.447   5.563   8.091 -0.7198 -0.4694  1.4610
  844MOL0     H13916   0.481   5.386   8.340 -0.0506  1.1882  0.6718
  844MOL0     H13917   0.389   5.535   8.319 -2.9174 -0.8149 -1.2287
  844MOL0     H13918   0.333   5.280   8.154  1.4552  0.4711  0.9325
  844MOL0     H13919   0.234   5.421   8.143 -1.3251 -0.6134  0.6122
  844MOL0     H13920   0.286   5.216   8.372 -1.3543 -0.8886  0.2166
  844MOL0     H13921   0.136   5.240   8.273 -1.5792  3.6460  0.2599
  844MOL0     H13922   0.991   5.676   7.746 -0.5286 -0.9076  0.2387
  844MOL0     H13923   1.173   5.670   7.600 -1.1595  1.3010  0.0725
  844MOL0     H13924   1.485   5.565   7.443  1.6893 -2.7664 -1.4728
  844MOL0     H13925   1.624   5.586   7.236  0.2869 -0.9533  0.7581
  844MOL0     H13926   3.043   5.034   6.851  0.8017 -0.1508  0.0130
  844MOL0     H13927   3.263   5.015   6.971 -0.5486 -0.2750  0.1015
  844MOL0     H13928   3.729   4.959   6.978 -3.3745  1.0330  0.2252
  844MOL0     H13929   3.915   4.974   7.126 -1.4761  1.6219 -0.1662
  844MOL0     H13930   3.843   4.755   7.521  0.3886  1.1573  0.8145
  844MOL0     H13931   4.026   4.741   7.502 -1.7526 -2.9941 -1.4285
  844MOL0     H13932   3.897   4.896   7.694  0.4707 -4.4630 -0.4865
  844MOL0     H13933   3.897   5.008   7.560  1.4822  0.7034 -1.4047
  844MOL0     H13934   4.132   4.857   7.683 -3.4529 -1.1353  1.3485
  844MOL0     H13935   4.083   5.035   7.702  1.5771  0.5827  0.3253
  844MOL0     H13936   4.153   5.086   7.487  2.5935  1.1150  0.3003
  844MOL0     H13937   4.177   4.910   7.444 -2.7918  0.8367 -0.3851
  844MOL0     H13938   4.539   4.999   7.640 -0.4356  1.0870  0.0595
  844MOL0     H13939   3.675   4.735   7.414 -2.5524 -0.3900 -0.8616
  844MOL0     H13940   3.497   4.748   7.267  1.4321 -2.6743  1.2395
  845MOL0     O13941   8.610   3.356   6.658 -0.4602  0.1432 -0.5477
  845MOL0     C13942   8.689   3.412   6.579  0.8915 -0.0679 -0.3909
  845MOL0     O13943   8.678   3.416   6.441  0.2791  0.0385 -0.7432
  845MOL0     C13944   8.560   3.372   6.385  0.0050 -0.4295  0.4795
  845MOL0     C13945   8.445   3.442   6.418 -0.0341  0.6865 -0.2228
  845MOL0     C13946   8.322   3.414   6.357 -0.2910 -0.0626 -0.3163
  845MOL0     C13947   8.323   3.326   6.249 -0.2142 -0.2304 -0.3351
  845MOL0     O13948   8.203   3.283   6.194  0.0994  0.1337 -0.1431
  845MOL0     C13949   8.073   3.310   6.256  0.1025  0.8064  0.2191
  845MOL0     C13950   7.978   3.205   6.196  0.4405  0.4701  0.3228
  845MOL0     C13951   7.832   3.245   6.213 -0.6129  0.6532 -0.3231
  845MOL0     C13952   7.765   3.182   6.330 -0.4207 -0.5730 -0.0496
  845MOL0     C13953   7.614   3.236   6.321  0.6166 -0.4073  0.5254
  845MOL0     C13954   7.537   3.184   6.207  0.0070  0.5561 -0.2845
  845MOL0     C13955   7.386   3.193   6.193  0.7346 -0.1535 -0.0365
  845MOL0     C13956   7.341   3.328   6.198 -0.0723 -0.4943 -0.6069
  845MOL0     N13957   7.192   3.331   6.225 -0.5623 -0.3136  0.1366
  845MOL0     C13958   7.090   3.240   6.194  0.5856 -0.5574 -0.9395
  845MOL0     C13959   6.984   3.287   6.253  0.3092 -0.9493  0.5895
  845MOL0     C13960   6.850   3.235   6.228 -0.3941 -0.1146 -0.0921
  845MOL0     C13961   6.752   3.246   6.352  0.1478 -0.4633  0.9952
  845MOL0     C13962   6.792   3.145   6.456  0.2545  0.4120  0.2015
  845MOL0     C13963   6.690   3.152   6.570 -0.6541  0.1580 -1.0328
  845MOL0     O13964   6.737   3.119   6.701  0.6659 -0.0564 -0.2682
  845MOL0     C13965   6.677   3.188   6.813  0.1899  0.1306  1.4747
  845MOL0     C13966   6.540   3.210   6.810 -0.2996 -0.0354 -0.4826
  845MOL0     C13967   6.476   3.263   6.924 -0.3358 -0.8456  0.5064
  845MOL0     C13968   6.331   3.279   6.922 -0.0992 -0.0571 -0.2292
  845MOL0     C13969   6.555   3.308   7.035  0.1886  0.2226  0.4643
  845MOL0     C13970   6.502   3.386   7.152  0.4005  0.2957 -0.1925
  845MOL0     O13971   6.380   3.371   7.194 -0.0016  0.5150 -0.1472
  845MOL0     C13972   6.318   3.484   7.238  0.2889 -0.4781 -0.8921
  845MOL0     C13973   6.250   3.465   7.355 -0.3721 -0.1957 -0.3494
  845MOL0     C13974   6.198   3.575   7.424  0.0820 -0.0322  0.1932
  845MOL0     C13975   6.197   3.704   7.361 -0.4975 -0.2066 -0.1675
  845MOL0     O13976   6.129   3.797   7.434 -0.0753 -0.0983 -0.5267
  845MOL0     C13977   6.056   3.897   7.363 -0.7743 -0.7034  0.9036
  845MOL0     C13978   6.110   4.028   7.390  0.8782 -0.8160  0.8915
  845MOL0     C13979   6.059   4.104   7.514  0.6070 -0.3533  0.3978
  845MOL0     C13980   6.140   4.232   7.544 -0.1053 -0.4001  0.1874
  845MOL0     C13981   6.098   4.292   7.680  0.1006 -0.1610 -0.5385
  845MOL0     C13982   5.948   4.296   7.720 -0.7728 -1.1930 -0.2129
  845MOL0     C13983   5.925   4.381   7.848  0.4187  0.0668  0.6616
  845MOL0     C13984   5.792   4.455   7.838 -0.1274 -0.3061  0.0088
  845MOL0    Cl13985   5.656   4.329   7.833  0.6342  0.1546 -0.2658
  845MOL0     C13986   6.254   3.716   7.229 -0.5270 -0.2139 -0.6952
  845MOL0     C13987   6.314   3.608   7.169  0.7193 -0.1333 -0.0462
  845MOL0     O13988   6.581   3.484   7.186 -0.0297  1.2881  0.3204
  845MOL0     C13989   6.697   3.283   7.030  0.3956  0.5327  0.5731
  845MOL0     C13990   6.747   3.218   6.918 -0.0963  0.0748 -0.2742
  845MOL0     N13991   7.022   3.400   6.329  0.9479  0.4168  0.1957
  845MOL0     N13992   7.144   3.426   6.307 -0.6739 -0.0820  0.2160
  845MOL0     C13993   8.442   3.258   6.216 -0.2661 -0.4183  0.4021
  845MOL0     C13994   8.556   3.281   6.284 -0.3692  0.9556 -0.2447
  845MOL0     C13995   8.807   3.463   6.636  0.2642  0.3323  0.1133
  845MOL0     C13996   8.844   3.440   6.767 -0.9965  0.4390 -0.1974
  845MOL0     C13997   8.964   3.489   6.822 -0.5979 -0.4886  0.1661
  845MOL0     C13998   9.049   3.569   6.747  0.1479  0.0330 -0.4197
  845MOL0     O13999   9.174   3.613   6.776 -0.4457  0.2784 -0.3904
  845MOL0     C14000   9.215   3.599   6.908  0.0487  0.8587 -0.5208
  845MOL0     C14001   9.354   3.660   6.927  0.6299 -0.1360  0.1848
  845MOL0     C14002   9.476   3.587   6.860  0.6275  0.7873  0.5571
  845MOL0     C14003   9.606   3.656   6.883 -1.3145 -0.2620  0.1264
  845MOL0     C14004   9.721   3.592   6.829 -1.6602 -0.2814 -0.0505
  845MOL0     C14005   9.823   3.525   6.788  0.7431  0.3948  0.2241
  845MOL0     C14006   8.997   3.609   6.624  1.1062 -0.1698 -0.4874
  845MOL0     C14007   8.883   3.551   6.566  0.0464  0.2448  0.9486
  845MOL0     H14008   8.461   3.512   6.499 -3.1198 -1.3331  2.3713
  845MOL0     H14009   8.231   3.449   6.406 -0.2220  1.0000 -0.9061
  845MOL0     H14010   8.069   3.279   6.361 -1.8677 -0.6013 -0.2243
  845MOL0     H14011   8.051   3.416   6.241  0.7685  0.7762 -1.0865
  845MOL0     H14012   8.002   3.204   6.089 -0.8208  1.0284  0.0165
  845MOL0     H14013   7.996   3.100   6.218  0.1937  0.1227 -1.0253
  845MOL0     H14014   7.821   3.353   6.225  0.3974  0.8512 -1.0204
  845MOL0     H14015   7.786   3.213   6.119 -0.7679 -0.1744  0.0280
  845MOL0     H14016   7.766   3.075   6.310 -0.0891 -0.8563  1.3881
  845MOL0     H14017   7.820   3.198   6.423  3.3534  2.8359 -2.5037
  845MOL0     H14018   7.563   3.203   6.412 -2.4775  0.8537 -0.6318
  845MOL0     H14019   7.618   3.345   6.310 -1.3637 -0.4337 -0.8938
  845MOL0     H14020   7.579   3.241   6.124  1.2480  0.5436  0.3127
  845MOL0     H14021   7.559   3.079   6.191 -1.1921  0.3754 -0.8148
  845MOL0     H14022   7.342   3.139   6.108 -1.6065 -0.0356  1.0035
  845MOL0     H14023   7.353   3.133   6.278  0.5441 -0.4110 -0.2869
  845MOL0     H14024   7.348   3.378   6.101 -0.8116  5.2221  1.8771
  845MOL0     H14025   7.393   3.390   6.271 -0.1326 -0.7290 -0.3612
  845MOL0     H14026   7.101   3.150   6.134 -1.0827  0.1225 -2.3115
  845MOL0     H14027   6.809   3.279   6.136  0.9232  2.5041  0.5026
  845MOL0     H14028   6.858   3.126   6.215  1.9755  0.1104 -1.0350
  845MOL0     H14029   6.650   3.232   6.313  0.0257  0.1783  1.0697
  845MOL0     H14030   6.737   3.348   6.388  0.6746  0.1515 -0.4659
  845MOL0     H14031   6.895   3.152   6.492  1.1085 -4.3063 -0.6279
  845MOL0     H14032   6.790   3.043   6.416 -0.4236 -0.9701  3.4836
  845MOL0     H14033   6.597   3.101   6.541  0.5166 -2.0156 -1.1934
  845MOL0     H14034   6.665   3.258   6.577 -2.8958 -0.2499 -2.0220
  845MOL0     H14035   6.489   3.171   6.722 -0.1023 -1.2722 -0.0713
  845MOL0     H14036   6.305   3.386   6.919 -0.0542  0.0295  1.3929
  845MOL0     H14037   6.280   3.226   6.841  0.8256 -1.7434  0.2507
  845MOL0     H14038   6.287   3.247   7.017 -0.2824  0.7109 -0.0439
  845MOL0     H14039   6.244   3.370   7.406  0.3493 -0.1308 -0.1396
  845MOL0     H14040   6.151   3.559   7.521 -0.5584 -2.9457 -0.4953
  845MOL0     H14041   6.049   3.879   7.256 -1.8116 -0.6810  0.9628
  845MOL0     H14042   5.952   3.909   7.395 -1.3289  5.9019 -1.9225
  845MOL0     H14043   6.219   4.021   7.381  1.1301  2.8405 -0.4101
  845MOL0     H14044   6.079   4.077   7.298  0.5687 -1.5727  0.5864
  845MOL0     H14045   6.065   4.026   7.591 -0.0978 -0.0716  0.7499
  845MOL0     H14046   5.953   4.128   7.506  0.8557  0.1834 -1.8056
  845MOL0     H14047   6.246   4.207   7.549  0.4391 -0.1175 -4.8521
  845MOL0     H14048   6.146   4.305   7.463  0.5656 -0.5988  0.0522
  845MOL0     H14049   6.147   4.390   7.684  0.0000  0.0406 -2.8635
  845MOL0     H14050   6.154   4.227   7.748  2.9728 -1.3874 -3.8130
  845MOL0     H14051   5.878   4.332   7.644 -1.2524  1.4001  1.3299
  845MOL0     H14052   5.906   4.198   7.743 -1.3835 -0.2736  3.2354
  845MOL0     H14053   6.012   4.446   7.861  0.9972 -0.7643  1.0193
  845MOL0     H14054   5.913   4.320   7.938 -1.3214  3.5206  2.9921
  845MOL0     H14055   5.788   4.527   7.756  0.9056 -0.4225 -0.1526
  845MOL0     H14056   5.781   4.516   7.928 -0.9686  0.5579 -0.6595
  845MOL0     H14057   6.254   3.815   7.185 -3.2131 -0.3093 -1.0889
  845MOL0     H14058   6.351   3.621   7.068  1.3080  1.4982  0.3490
  845MOL0     H14059   6.756   3.318   7.114  2.5514  4.2761 -2.1645
  845MOL0     H14060   6.854   3.211   6.900 -0.0935  2.4484 -1.6596
  845MOL0     H14061   8.435   3.188   6.134  1.8891  0.6392 -0.7687
  845MOL0     H14062   8.652   3.237   6.260 -1.4444 -2.3343  1.0339
  845MOL0     H14063   8.784   3.378   6.833  2.0460  0.4389  2.7985
  845MOL0     H14064   8.994   3.468   6.924  1.4415  1.6229  0.0743
  845MOL0     H14065   9.150   3.649   6.981  1.7821  0.7438  1.1999
  845MOL0     H14066   9.209   3.496   6.942 -3.6801  1.1102  0.0018
  845MOL0     H14067   9.365   3.680   7.034 -1.3243 -0.0440  0.4101
  845MOL0     H14068   9.350   3.759   6.882 -2.2129 -0.4183 -0.3589
  845MOL0     H14069   9.452   3.589   6.754 -0.7679 -0.3322  0.8254
  845MOL0     H14070   9.477   3.484   6.896  2.2780  0.3539 -0.6558
  845MOL0     H14071   9.612   3.672   6.991  0.6507 -3.3174  0.5845
  845MOL0     H14072   9.597   3.753   6.833 -2.2297  0.7558  2.1236
  845MOL0     H14073   9.900   3.463   6.747  0.5648  0.9867 -1.0646
  845MOL0     H14074   9.054   3.662   6.548  2.8340 -5.9431 -3.8997
  845MOL0     H14075   8.853   3.574   6.464 -1.9358  2.4582  1.9243
  846MOL0     O14076   8.990   0.649   1.366  0.5176  0.5257  0.5307
  846MOL0     C14077   8.923   0.677   1.268  0.9266  0.0772  0.4862
  846MOL0     O14078   8.789   0.702   1.271  0.6377 -0.3639 -0.5669
  846MOL0     C14079   8.712   0.686   1.387  1.0459 -0.0014 -0.6263
  846MOL0     C14080   8.743   0.617   1.511 -0.4451  0.2492  0.7154
  846MOL0     C14081   8.657   0.615   1.618 -0.1929  0.4833  0.2551
  846MOL0     C14082   8.523   0.649   1.605  0.5932  0.1971 -0.2062
  846MOL0     O14083   8.446   0.639   1.718 -0.4655 -0.1679  0.3796
  846MOL0     C14084   8.306   0.669   1.712  0.2188 -0.1762  0.7717
  846MOL0     C14085   8.286   0.806   1.771 -0.0726 -0.8705  0.1670
  846MOL0     C14086   8.274   0.803   1.919 -0.0563 -0.1683 -1.1096
  846MOL0     C14087   8.190   0.913   1.985  0.4636  0.0042 -0.6165
  846MOL0     C14088   8.044   0.875   1.970  0.5878  0.8432 -0.5522
  846MOL0     C14089   7.962   0.965   2.064  0.3759  0.6830 -0.6986
  846MOL0     C14090   7.985   1.114   2.052  0.5378 -0.3220 -0.4542
  846MOL0     C14091   7.925   1.189   2.178 -0.0729  0.5773 -0.1544
  846MOL0     N14092   7.788   1.209   2.153  0.5997 -0.5680 -0.0159
  846MOL0     C14093   7.693   1.159   2.235 -0.5816  0.8933 -0.3497
  846MOL0     C14094   7.579   1.223   2.206  0.0600 -0.9247  0.6219
  846MOL0     C14095   7.442   1.192   2.264 -0.8444  0.4563 -0.3887
  846MOL0     C14096   7.355   1.108   2.176 -0.1956 -1.1161 -0.3519
  846MOL0     C14097   7.280   1.192   2.079 -0.3534 -0.1432 -0.0547
  846MOL0     C14098   7.167   1.280   2.141 -0.3877  0.6693 -0.0833
  846MOL0     O14099   7.080   1.191   2.223 -0.0467  0.0628  0.5190
  846MOL0     C14100   6.965   1.241   2.275 -0.3470  0.7741 -0.0838
  846MOL0     C14101   6.898   1.357   2.244 -0.5958  0.1735  0.4598
  846MOL0     C14102   6.786   1.388   2.313  0.6853 -0.3090 -1.2853
  846MOL0     C14103   6.708   1.517   2.278  0.2964 -0.6480  1.1928
  846MOL0     C14104   6.724   1.303   2.402 -0.0710 -0.3648  0.4096
  846MOL0     C14105   6.606   1.332   2.478  0.8678  0.0379  0.7941
  846MOL0     O14106   6.499   1.247   2.462  0.2346  0.7201  0.5966
  846MOL0     C14107   6.381   1.260   2.542 -0.8818 -0.6388 -0.3066
  846MOL0     C14108   6.321   1.386   2.587 -0.1134  0.3930 -1.1963
  846MOL0     C14109   6.207   1.385   2.659 -0.2294  0.1890 -0.2159
  846MOL0     C14110   6.138   1.267   2.701 -0.4926 -0.5903 -0.2030
  846MOL0     O14111   6.027   1.261   2.782 -0.3567 -0.0807 -0.3801
  846MOL0     C14112   5.948   1.384   2.819  0.7402  0.5022  0.2802
  846MOL0     C14113   5.820   1.359   2.896  0.5797 -0.3869 -0.2484
  846MOL0     C14114   5.715   1.276   2.822  0.3280  0.4973  0.1010
  846MOL0     C14115   5.573   1.284   2.871  0.7210 -0.2804  0.3714
  846MOL0     C14116   5.484   1.177   2.804  0.7512 -0.1150  0.0363
  846MOL0     C14117   5.337   1.186   2.853 -0.2582  0.5652 -0.2789
  846MOL0     C14118   5.254   1.075   2.789 -1.4421 -0.3397  0.4164
  846MOL0     C14119   5.116   1.092   2.843  0.1523  0.0646  0.2507
  846MOL0    Cl14120   5.040   1.257   2.796 -0.1068  0.1034 -0.3622
  846MOL0     C14121   6.192   1.148   2.656  0.1768 -0.1762  0.6846
  846MOL0     C14122   6.311   1.144   2.571 -0.3522  0.2188 -0.4210
  846MOL0     O14123   6.616   1.423   2.567  0.2856  0.5153  0.4210
  846MOL0     C14124   6.796   1.182   2.434  0.4196 -0.7017 -0.5718
  846MOL0     C14125   6.916   1.155   2.373 -0.9072 -0.4316  0.2280
  846MOL0     N14126   7.610   1.309   2.099  0.7726  0.6741  0.9016
  846MOL0     N14127   7.735   1.304   2.073 -1.0587 -0.4412  0.7208
  846MOL0     C14128   8.485   0.718   1.477  0.2073 -0.1175 -0.3023
  846MOL0     C14129   8.579   0.738   1.379  1.1115 -0.1408 -0.5001
  846MOL0     C14130   8.990   0.722   1.149  0.2568 -0.3523  0.9148
  846MOL0     C14131   8.927   0.730   1.018  1.0132  0.8680 -0.7171
  846MOL0     C14132   9.001   0.794   0.912 -0.2881  0.4375 -0.4427
  846MOL0     C14133   9.134   0.846   0.929 -0.1167 -0.3778  0.0190
  846MOL0     O14134   9.190   0.923   0.832 -0.4175  0.1380  0.4576
  846MOL0     C14135   9.280   0.851   0.747  0.2808  0.6904  0.0107
  846MOL0     C14136   9.230   0.719   0.686  0.6907  0.0081  0.1421
  846MOL0     C14137   9.320   0.660   0.578 -0.3910  0.8643 -0.8417
  846MOL0     C14138   9.441   0.575   0.620  0.0285  0.8969 -0.8483
  846MOL0     C14139   9.509   0.530   0.503 -0.5258  0.0241 -0.8693
  846MOL0     C14140   9.559   0.478   0.403 -0.2360 -0.0568 -0.6578
  846MOL0     C14141   9.187   0.836   1.053 -0.4901  0.2618  0.6944
  846MOL0     C14142   9.123   0.768   1.159  1.4169  0.1668  0.0197
  846MOL0     H14143   8.833   0.555   1.511 -0.9212 -0.4760  1.8530
  846MOL0     H14144   8.695   0.569   1.709  0.4414 -0.4504 -0.4621
  846MOL0     H14145   8.273   0.679   1.608  3.6934 -0.4577 -0.4923
  846MOL0     H14146   8.238   0.597   1.759  0.6986 -1.3221 -0.2279
  846MOL0     H14147   8.366   0.876   1.744 -1.2197 -0.7926 -3.5969
  846MOL0     H14148   8.194   0.843   1.726  0.5390 -0.1896 -0.5522
  846MOL0     H14149   8.234   0.705   1.949  2.2622 -1.1902 -1.0862
  846MOL0     H14150   8.373   0.799   1.967 -1.5834 -1.1375  2.2603
  846MOL0     H14151   8.215   0.926   2.091 -0.1573  1.5464 -0.6257
  846MOL0     H14152   8.207   1.009   1.935 -0.2924  0.5285  0.1015
  846MOL0     H14153   8.015   0.880   1.865 -1.2280 -2.1108 -0.3058
  846MOL0     H14154   8.042   0.771   2.002  1.6395  0.9180 -0.2002
  846MOL0     H14155   7.855   0.954   2.044 -0.5377  2.9783  2.0364
  846MOL0     H14156   7.977   0.933   2.168  2.7552  0.1840 -1.1270
  846MOL0     H14157   8.089   1.142   2.034  0.0219  1.7910 -0.4181
  846MOL0     H14158   7.934   1.158   1.966 -0.2185  1.3357  0.7687
  846MOL0     H14159   7.976   1.286   2.175  1.1626 -0.0653 -0.6123
  846MOL0     H14160   7.939   1.142   2.276  1.1884  0.0830 -0.5457
  846MOL0     H14161   7.705   1.088   2.316 -0.0277  1.2793 -0.0838
  846MOL0     H14162   7.440   1.126   2.351 -0.9814 -0.5173 -1.1122
  846MOL0     H14163   7.391   1.285   2.288  1.3394  1.3123  1.2566
  846MOL0     H14164   7.282   1.054   2.237  0.3983 -0.4919  0.9543
  846MOL0     H14165   7.428   1.041   2.130  1.7149  1.9183 -2.0431
  846MOL0     H14166   7.224   1.129   2.009 -0.8869  0.2399  0.0171
  846MOL0     H14167   7.348   1.250   2.017 -0.6826 -0.4584 -0.7224
  846MOL0     H14168   7.098   1.316   2.063  1.3549  0.1712 -1.9568
  846MOL0     H14169   7.206   1.366   2.197  1.3727 -1.5517  2.3140
  846MOL0     H14170   6.940   1.424   2.170 -1.9229  1.0688  0.4936
  846MOL0     H14171   6.641   1.495   2.195 -1.7394 -1.8482  3.0180
  846MOL0     H14172   6.640   1.540   2.361  0.1195 -4.6816  2.4115
  846MOL0     H14173   6.781   1.593   2.252  1.8327 -2.1911  0.7908
  846MOL0     H14174   6.369   1.481   2.563  0.6267  0.5734  0.7757
  846MOL0     H14175   6.154   1.476   2.683 -0.4324  0.4732 -1.7002
  846MOL0     H14176   6.018   1.452   2.870  0.3373  0.7644  0.4955
  846MOL0     H14177   5.924   1.434   2.725  1.6356  2.7488  1.1693
  846MOL0     H14178   5.845   1.303   2.987  0.3300  0.8011  0.5693
  846MOL0     H14179   5.777   1.456   2.921 -0.6650 -1.0591  0.2995
  846MOL0     H14180   5.744   1.174   2.847  2.0952  1.4027  2.0932
  846MOL0     H14181   5.710   1.310   2.718 -1.4366  1.3724  0.4318
  846MOL0     H14182   5.574   1.268   2.980 -2.1406  1.3875  0.7479
  846MOL0     H14183   5.536   1.386   2.863  0.9588 -0.1582  0.8110
  846MOL0     H14184   5.535   1.081   2.818  0.6623 -0.1503  0.1219
  846MOL0     H14185   5.478   1.208   2.699 -1.1805 -4.4770 -1.3754
  846MOL0     H14186   5.331   1.170   2.961 -1.9831 -1.7682 -0.6591
  846MOL0     H14187   5.285   1.281   2.837  0.0187  1.0443  1.4675
  846MOL0     H14188   5.298   0.975   2.798  2.7959  1.1236 -1.5957
  846MOL0     H14189   5.261   1.097   2.682 -2.0845  1.3282  0.6805
  846MOL0     H14190   5.122   1.083   2.951  2.8389 -1.3105  0.0554
  846MOL0     H14191   5.053   1.010   2.808  0.9146 -0.9288  1.1632
  846MOL0     H14192   6.131   1.060   2.672 -0.7771  0.6381  1.6565
  846MOL0     H14193   6.351   1.050   2.534  2.7947  1.6420 -0.9039
  846MOL0     H14194   6.759   1.112   2.507  0.2804 -1.2293 -1.1371
  846MOL0     H14195   6.978   1.069   2.400 -0.8540 -0.3604  0.3361
  846MOL0     H14196   8.388   0.767   1.474 -1.2324 -2.5074  2.6789
  846MOL0     H14197   8.552   0.796   1.291 -1.3729 -0.6237 -0.1262
  846MOL0     H14198   8.823   0.705   1.001  1.2498 -0.5279 -0.2232
  846MOL0     H14199   8.967   0.797   0.809 -0.0594  1.2859 -0.4964
  846MOL0     H14200   9.311   0.921   0.669  2.2731  1.8291  1.7217
  846MOL0     H14201   9.367   0.829   0.810  1.9531  0.0855 -2.3750
  846MOL0     H14202   9.129   0.737   0.650 -0.0320  0.7369  2.3353
  846MOL0     H14203   9.211   0.641   0.760 -1.6201 -1.0095 -1.4170
  846MOL0     H14204   9.349   0.737   0.505 -0.8324  0.6350 -1.2611
  846MOL0     H14205   9.251   0.590   0.531  0.6114 -0.7466  0.0002
  846MOL0     H14206   9.407   0.488   0.676  0.0687  1.2164 -0.3210
  846MOL0     H14207   9.515   0.634   0.676 -1.2612  0.0569  1.9005
  846MOL0     H14208   9.623   0.433   0.329  0.8122 -3.6404  2.1324
  846MOL0     H14209   9.288   0.873   1.066 -0.3736  0.0234  0.4876
  846MOL0     H14210   9.167   0.749   1.257 -1.8204 -0.5775  1.4507
  847MOL0     O14211   3.547  11.178   3.902  0.8013  0.2556  0.4817
  847MOL0     C14212   3.539  11.281   3.966 -0.4763  1.2763 -0.5467
  847MOL0     O14213   3.439  11.313   4.050 -0.1993  0.6407 -0.1219
  847MOL0     C14214   3.336  11.230   4.077 -0.0859  0.6177  0.6730
  847MOL0     C14215   3.347  11.091   4.093 -0.0725  0.1599  0.0261
  847MOL0     C14216   3.235  11.010   4.126 -0.2587 -0.2994  0.1132
  847MOL0     C14217   3.109  11.069   4.129  0.6696  0.0792 -0.6212
  847MOL0     O14218   2.994  11.005   4.152  0.2097 -0.2564 -0.2503
  847MOL0     C14219   2.972  10.863   4.132 -0.7596  0.7595  0.5294
  847MOL0     C14220   2.828  10.823   4.126  0.0967  0.3473  0.4417
  847MOL0     C14221   2.828  10.667   4.137 -0.6214  0.0678  0.0379
  847MOL0     C14222   2.701  10.593   4.094 -0.1855 -0.4832 -0.3401
  847MOL0     C14223   2.650  10.637   3.958  0.0031  0.3110 -0.3653
  847MOL0     C14224   2.544  10.539   3.906 -0.6975  0.2011  0.4611
  847MOL0     C14225   2.476  10.619   3.795  0.5875  0.5410  0.2716
  847MOL0     C14226   2.368  10.531   3.736  0.9450  0.0700 -0.2399
  847MOL0     N14227   2.264  10.605   3.657 -0.5491  0.5479  0.4398
  847MOL0     C14228   2.296  10.691   3.553  0.3237  0.9147  0.0911
  847MOL0     C14229   2.175  10.737   3.504  0.5909  0.1423  0.0011
  847MOL0     C14230   2.161  10.847   3.401 -0.2366 -0.0582  0.0504
  847MOL0     C14231   2.060  10.806   3.295 -0.6478  0.2193  0.5450
  847MOL0     C14232   2.027  10.922   3.189 -0.2384  0.1004 -0.5521
  847MOL0     C14233   1.937  11.029   3.245 -0.8733 -0.3940 -1.0209
  847MOL0     O14234   1.918  11.129   3.143 -0.8789 -0.1264 -0.6273
  847MOL0     C14235   1.862  11.081   3.027  0.4007  0.3537 -0.4644
  847MOL0     C14236   1.913  11.129   2.901 -0.4165 -0.2595 -0.2890
  847MOL0     C14237   1.856  11.086   2.783  0.0901  0.4379 -0.2349
  847MOL0     C14238   1.900  11.171   2.664  0.2069  0.1026 -0.2715
  847MOL0     C14239   1.744  11.002   2.780 -0.4005  0.4666  0.0617
  847MOL0     C14240   1.666  10.964   2.662 -0.0147 -0.8872 -0.6739
  847MOL0     O14241   1.605  10.844   2.669 -0.2515  0.4117 -0.0980
  847MOL0     C14242   1.500  10.803   2.586 -0.5143  0.1132  0.0332
  847MOL0     C14243   1.400  10.889   2.540  0.4543  0.3747  0.2624
  847MOL0     C14244   1.283  10.837   2.486  0.4936 -0.0517 -0.4663
  847MOL0     C14245   1.263  10.700   2.474 -0.2854  0.3770 -0.1943
  847MOL0     O14246   1.154  10.639   2.424  0.1842 -0.2233 -0.0032
  847MOL0     C14247   1.056  10.710   2.349  0.1682  0.3991 -0.2205
  847MOL0     C14248   0.961  10.599   2.296 -0.8112 -0.8852  0.2169
  847MOL0     C14249   0.824  10.649   2.255 -0.0269 -0.2256 -0.5932
  847MOL0     C14250   0.744  10.526   2.218  0.2275 -0.4780 -0.4043
  847MOL0     C14251   0.594  10.550   2.188 -0.3057  0.6720  0.6618
  847MOL0     C14252   0.507  10.580   2.315 -0.1558 -0.2107  0.0900
  847MOL0     C14253   0.357  10.603   2.290 -0.1685 -0.6016 -0.0253
  847MOL0     C14254   0.263  10.488   2.295  0.4536 -0.3805  0.3163
  847MOL0    Cl14255   0.208  10.464   2.469  0.0430  0.3298  0.2558
  847MOL0     C14256   1.370  10.613   2.506  0.0793 -0.7086  0.2774
  847MOL0     C14257   1.486  10.668   2.567  0.1145 -1.1474 -0.0378
  847MOL0     O14258   1.655  11.043   2.570 -0.0076 -0.3761 -0.2420
  847MOL0     C14259   1.702  10.948   2.903 -0.3489  0.1174 -0.1701
  847MOL0     C14260   1.765  10.983   3.022  0.0226 -0.0568  0.7217
  847MOL0     N14261   2.077  10.666   3.575 -0.4743  0.4963  0.0819
  847MOL0     N14262   2.131  10.602   3.667  0.4514  0.0696  0.1184
  847MOL0     C14263   3.101  11.209   4.117  0.0389  0.3873 -0.1671
  847MOL0     C14264   3.212  11.283   4.085 -0.1544 -0.0480 -0.6367
  847MOL0     C14265   3.657  11.367   3.942 -1.1109 -0.5977 -0.6311
  847MOL0     C14266   3.751  11.336   3.841  0.4051  0.2201  0.0474
  847MOL0     C14267   3.847  11.431   3.808  1.0015  0.1221  0.6716
  847MOL0     C14268   3.860  11.548   3.884 -0.6817  1.2348  0.5143
  847MOL0     O14269   3.947  11.638   3.834  0.3898  0.2246 -0.3108
  847MOL0     C14270   3.970  11.759   3.909  0.0757 -0.3703  0.2624
  847MOL0     C14271   4.063  11.862   3.823  0.4155  0.3189  0.0410
  847MOL0     C14272   4.208  11.811   3.819  0.1283 -0.3135  0.0943
  847MOL0     C14273   4.297  11.901   3.746  0.3680  0.5452 -0.8206
  847MOL0     C14274   4.440  11.857   3.745  0.0972 -0.7145 -0.5275
  847MOL0     C14275   4.555  11.822   3.734  0.1731  0.4625  0.2565
  847MOL0     C14276   3.769  11.573   3.987 -1.1815  0.2123 -0.2518
  847MOL0     C14277   3.666  11.485   4.014 -0.0102  0.6406  0.0774
  847MOL0     H14278   3.447  11.049   4.104 -1.1202 -2.0014  2.6819
  847MOL0     H14279   3.260  10.904   4.134 -0.2143 -0.5473 -2.4576
  847MOL0     H14280   3.023  10.819   4.046  1.6779 -1.5587  2.9479
  847MOL0     H14281   3.016  10.809   4.217 -2.9765 -1.2857  0.4701
  847MOL0     H14282   2.758  10.863   4.200 -2.1866 -3.0340  0.3434
  847MOL0     H14283   2.797  10.862   4.028  1.9555 -1.3084 -0.8988
  847MOL0     H14284   2.912  10.640   4.072 -0.4939 -0.3533  0.3743
  847MOL0     H14285   2.852  10.644   4.242 -3.9296 -1.4002  0.5734
  847MOL0     H14286   2.723  10.489   4.067 -1.4411 -0.5473 -1.2333
  847MOL0     H14287   2.616  10.608   4.162  0.6601  1.3763  0.3553
  847MOL0     H14288   2.607  10.736   3.976 -1.3986 -0.2059 -0.7223
  847MOL0     H14289   2.737  10.654   3.894  2.1514  1.3086  2.6078
  847MOL0     H14290   2.595  10.448   3.873  0.7537  0.6952  1.2457
  847MOL0     H14291   2.480  10.503   3.987  1.7643 -3.0909  1.1598
  847MOL0     H14292   2.427  10.701   3.848 -2.2241 -0.8609  0.0907
  847MOL0     H14293   2.551  10.653   3.723  2.7758  0.5570  2.4324
  847MOL0     H14294   2.319  10.482   3.821 -0.6383 -0.5902 -1.4768
  847MOL0     H14295   2.415  10.454   3.673  1.2216 -0.4672  0.6078
  847MOL0     H14296   2.389  10.736   3.521 -1.2355  2.7677 -2.1343
  847MOL0     H14297   2.126  10.935   3.455 -1.7291 -1.7486  1.9961
  847MOL0     H14298   2.260  10.871   3.361 -1.1964  0.7113 -2.0311
  847MOL0     H14299   1.968  10.763   3.334  0.2040 -2.1645  0.0895
  847MOL0     H14300   2.108  10.728   3.235 -1.3399  0.9112 -0.9650
  847MOL0     H14301   1.986  10.878   3.098 -0.8636  1.2726 -0.8613
  847MOL0     H14302   2.118  10.968   3.148  0.1946 -0.8018 -0.6130
  847MOL0     H14303   1.984  11.067   3.336 -1.7705 -0.8957 -0.3310
  847MOL0     H14304   1.845  10.985   3.286  0.7730 -0.6746  2.7576
  847MOL0     H14305   2.000  11.194   2.903 -0.8987  0.4498 -1.3772
  847MOL0     H14306   1.815  11.227   2.624 -0.3441  0.1160  0.8980
  847MOL0     H14307   1.979  11.241   2.694 -1.9656  2.0669  1.2712
  847MOL0     H14308   1.927  11.108   2.579 -0.1947 -2.8367  1.6716
  847MOL0     H14309   1.424  10.994   2.552  1.2299  0.1485  0.7387
  847MOL0     H14310   1.210  10.915   2.462  1.7094  2.9061  4.1764
  847MOL0     H14311   1.008  10.783   2.414  0.9513  1.5313 -0.8682
  847MOL0     H14312   1.103  10.759   2.263  0.2322  0.3022 -0.2409
  847MOL0     H14313   1.007  10.556   2.207 -1.5177 -1.1770 -0.0160
  847MOL0     H14314   0.950  10.518   2.369  1.1116 -0.9563  0.4910
  847MOL0     H14315   0.831  10.732   2.185  0.5719 -0.8421 -1.2787
  847MOL0     H14316   0.767  10.687   2.340  0.8266  0.4421 -0.3107
  847MOL0     H14317   0.798  10.487   2.131  4.1612  0.8167  1.2423
  847MOL0     H14318   0.751  10.451   2.297  0.2953  0.0456  0.0908
  847MOL0     H14319   0.548  10.458   2.151 -1.7372  2.1682 -1.4794
  847MOL0     H14320   0.567  10.622   2.110 -1.9473 -0.7173 -0.1253
  847MOL0     H14321   0.511  10.505   2.394  0.5055 -1.3246 -0.9573
  847MOL0     H14322   0.546  10.680   2.339 -1.9884  0.9761 -1.5235
  847MOL0     H14323   0.334  10.652   2.195 -1.2640 -0.2209  0.4130
  847MOL0     H14324   0.320  10.665   2.372  0.0646 -1.3107  0.6278
  847MOL0     H14325   0.284  10.396   2.240  0.0952 -0.9795  1.1421
  847MOL0     H14326   0.176  10.529   2.244  0.8920 -2.1421 -1.9945
  847MOL0     H14327   1.363  10.505   2.502 -0.1686 -0.9797  4.3571
  847MOL0     H14328   1.564  10.601   2.602 -0.1986 -0.8304  1.3371
  847MOL0     H14329   1.617  10.881   2.910 -1.1427  1.0434 -0.6207
  847MOL0     H14330   1.722  10.934   3.109  0.2118 -2.7183 -0.5928
  847MOL0     H14331   3.012  11.267   4.140 -0.1185  0.0376  0.1125
  847MOL0     H14332   3.202  11.390   4.069 -2.0322 -0.3469 -1.7862
  847MOL0     H14333   3.736  11.250   3.776 -0.6234 -0.1818  0.7879
  847MOL0     H14334   3.915  11.417   3.724  0.1219  1.5968 -0.3326
  847MOL0     H14335   3.871  11.803   3.915  0.4806  0.3766  2.9642
  847MOL0     H14336   4.014  11.738   4.007 -0.0892 -1.7428  0.0595
  847MOL0     H14337   4.053  11.965   3.857 -0.3493  0.0225  0.7422
  847MOL0     H14338   4.025  11.854   3.721 -0.7801  1.9862  0.3300
  847MOL0     H14339   4.217  11.713   3.772  1.9096 -0.0866 -0.1371
  847MOL0     H14340   4.244  11.805   3.922  2.5422  1.6089 -0.5162
  847MOL0     H14341   4.296  11.999   3.796 -0.0703 -0.7195  1.8440
  847MOL0     H14342   4.266  11.912   3.642  0.5434  2.1058 -0.7408
  847MOL0     H14343   4.654  11.781   3.728  0.3393  0.8397  0.3602
  847MOL0     H14344   3.768  11.663   4.047  1.7124  1.2723 -1.6239
  847MOL0     H14345   3.599  11.505   4.097  2.0466 -1.6737  2.4863
  848MOL0     O14346  10.860   6.817   1.926  0.1352  0.0393  0.3814
  848MOL0     C14347  10.898   6.838   2.039  0.1081 -0.1437 -0.9801
  848MOL0     O14348  11.025   6.872   2.080 -0.4646 -0.0192 -0.1543
  848MOL0     C14349  11.128   6.826   2.003 -0.2353 -0.7017  0.8547
  848MOL0     C14350  11.145   6.698   1.941 -0.2889 -0.0419 -0.3808
  848MOL0     C14351  11.251   6.663   1.857  0.3295 -0.4544  0.2319
  848MOL0     C14352  11.358   6.759   1.834 -0.4413  0.2062 -0.9034
  848MOL0     O14353  11.473   6.739   1.763  0.4733  0.3108 -0.4352
  848MOL0     C14354  11.510   6.600   1.732 -0.2244 -0.3399  0.0854
  848MOL0     C14355  11.661   6.580   1.691  0.8761  0.0634 -0.1685
  848MOL0     C14356  11.694   6.454   1.616  0.7522 -0.5305  0.5202
  848MOL0     C14357  11.693   6.325   1.700  0.0088  0.1901 -0.5596
  848MOL0     C14358  11.714   6.210   1.602  0.0505 -1.0842 -0.1470
  848MOL0     C14359  11.572   6.180   1.526 -0.3046 -0.2047 -0.2432
  848MOL0     C14360  11.586   6.095   1.389 -0.3061 -0.3558  0.5048
  848MOL0     C14361  11.664   5.968   1.422  0.6223  0.6035  0.4067
  848MOL0     N14362  11.671   5.861   1.325  0.1822 -0.0402 -0.0990
  848MOL0     C14363  11.706   5.889   1.193 -0.0072  0.0495  0.6788
  848MOL0     C14364  11.672   5.776   1.133 -0.4880 -0.7420  0.6422
  848MOL0     C14365  11.675   5.747   0.981  0.3895 -0.4644 -0.0742
  848MOL0     C14366  11.802   5.668   0.945 -1.0111  0.2899 -0.4170
  848MOL0     C14367  11.820   5.655   0.791 -0.0659 -0.3070  0.2644
  848MOL0     C14368  11.932   5.555   0.762 -0.4859  0.1370  0.6784
  848MOL0     O14369  11.939   5.555   0.615 -0.0687 -0.2997 -0.0620
  848MOL0     C14370  12.037   5.625   0.550 -0.0221 -0.1441  0.5743
  848MOL0     C14371  12.011   5.661   0.412 -0.8291 -0.1144  0.1172
  848MOL0     C14372  12.095   5.749   0.334 -0.3172  0.2555 -0.1911
  848MOL0     C14373  12.049   5.779   0.191 -0.1557 -0.4077  0.6323
  848MOL0     C14374  12.213   5.800   0.391  0.1983  0.0385 -0.2884
  848MOL0     C14375  12.310   5.891   0.330 -0.9726  0.6744  0.4596
  848MOL0     O14376  12.309   5.904   0.196  0.2401 -0.3805  0.0340
  848MOL0     C14377  12.387   5.996   0.135 -0.3635  0.1701 -0.7081
  848MOL0     C14378  12.304   6.088   0.068  0.9759  0.7596 -0.0095
  848MOL0     C14379  12.360   6.191  -0.011 -0.7061  0.1632  0.9335
  848MOL0     C14380  12.495   6.197  -0.036  0.0779 -0.7937 -0.2613
  848MOL0     O14381  12.571   6.288  -0.110  0.0818  0.1488 -0.4442
  848MOL0     C14382  12.513   6.415  -0.145  0.8838  0.1451 -0.4156
  848MOL0     C14383  12.609   6.484  -0.248  0.8152 -0.4403  0.1407
  848MOL0     C14384  12.721   6.572  -0.197 -0.5568 -0.3718 -0.3179
  848MOL0     C14385  12.805   6.499  -0.099 -0.1119  0.2879  0.0792
  848MOL0     C14386  12.920   6.577  -0.039  0.0725 -0.9900 -0.4013
  848MOL0     C14387  13.036   6.601  -0.133  0.4037  0.0115  1.0364
  848MOL0     C14388  13.148   6.672  -0.063 -0.2841  0.5790  0.2806
  848MOL0     C14389  13.270   6.709  -0.153 -0.5356 -0.2740 -0.2125
  848MOL0    Cl14390  13.377   6.567  -0.191  0.2082  0.0075  0.1094
  848MOL0     C14391  12.575   6.109   0.036 -0.3950  0.1690 -0.3355
  848MOL0     C14392  12.523   6.011   0.125  0.3139 -0.1854  0.3957
  848MOL0     O14393  12.392   5.952   0.401  0.5567  0.2939  0.0173
  848MOL0     C14394  12.237   5.758   0.521 -0.4513 -0.0775 -0.2488
  848MOL0     C14395  12.154   5.676   0.601 -0.6207  0.6235  0.3429
  848MOL0     N14396  11.642   5.682   1.227 -0.2952  0.7960 -0.4134
  848MOL0     N14397  11.639   5.735   1.343 -0.1200  0.1611 -0.7694
  848MOL0     C14398  11.354   6.877   1.908  0.7103 -0.0862 -0.3115
  848MOL0     C14399  11.249   6.908   1.998 -0.3636  0.9312  0.4172
  848MOL0     C14400  10.785   6.817   2.137  1.0191  0.1446  1.1418
  848MOL0     C14401  10.677   6.730   2.119 -0.1338  0.7893  0.7796
  848MOL0     C14402  10.571   6.726   2.215  1.1925 -0.1307  1.0589
  848MOL0     C14403  10.594   6.791   2.344 -0.5553  0.0211  0.7993
  848MOL0     O14404  10.516   6.780   2.457  0.6807  0.4931 -0.2467
  848MOL0     C14405  10.388   6.697   2.454 -0.3943 -0.0404 -0.1724
  848MOL0     C14406  10.274   6.780   2.386  0.1758 -0.9819 -0.2873
  848MOL0     C14407  10.159   6.701   2.332  0.0883  0.3709 -0.3849
  848MOL0     C14408  10.104   6.599   2.435  0.5585  0.1372 -0.5624
  848MOL0     C14409  10.036   6.666   2.553 -1.0313  0.4850 -0.6607
  848MOL0     C14410   9.963   6.709   2.634  1.3085  0.3791  0.3871
  848MOL0     C14411  10.715   6.860   2.363  0.1474 -0.2155  0.1883
  848MOL0     C14412  10.800   6.884   2.259 -1.1283 -0.4910 -0.2157
  848MOL0     H14413  11.064   6.626   1.950 -1.7500  1.6468  0.5319
  848MOL0     H14414  11.251   6.560   1.822 -0.7044 -0.8048  1.2130
  848MOL0     H14415  11.499   6.532   1.817 -0.4522 -2.3448 -1.4684
  848MOL0     H14416  11.449   6.572   1.646 -0.4353 -1.3142  0.5444
  848MOL0     H14417  11.689   6.666   1.630  1.1539 -0.1786 -0.3884
  848MOL0     H14418  11.721   6.577   1.782  3.9426  3.1338 -1.8778
  848MOL0     H14419  11.625   6.443   1.531  2.9598  2.0564 -1.7840
  848MOL0     H14420  11.797   6.466   1.583  1.6683 -1.5547  2.8142
  848MOL0     H14421  11.772   6.324   1.775 -0.9058  0.9118  0.4530
  848MOL0     H14422  11.595   6.308   1.746 -0.4672  0.5649 -1.3959
  848MOL0     H14423  11.790   6.228   1.525  0.1150 -1.8307 -0.2680
  848MOL0     H14424  11.746   6.127   1.665 -2.4809  0.7287  3.9107
  848MOL0     H14425  11.509   6.115   1.587  0.3036 -0.9467 -0.3932
  848MOL0     H14426  11.510   6.263   1.492  1.5431  1.2536 -0.2338
  848MOL0     H14427  11.489   6.078   1.343 -0.7199  2.0099  0.3612
  848MOL0     H14428  11.655   6.152   1.325  1.1968 -3.5102 -0.9348
  848MOL0     H14429  11.631   5.924   1.517  2.7975 -2.0685  0.0306
  848MOL0     H14430  11.771   5.984   1.436  1.3005 -2.7269 -0.1687
  848MOL0     H14431  11.732   5.989   1.158 -2.3017  0.0721 -1.1739
  848MOL0     H14432  11.583   5.689   0.966 -0.0725 -0.7615  3.0298
  848MOL0     H14433  11.663   5.836   0.919 -4.1245  0.8608  2.2677
  848MOL0     H14434  11.800   5.566   0.985  1.7604 -0.5948 -2.2250
  848MOL0     H14435  11.884   5.717   0.998 -0.9718  0.7953 -0.9495
  848MOL0     H14436  11.841   5.755   0.753  0.1362 -0.5780 -0.3454
  848MOL0     H14437  11.729   5.616   0.746  0.8137 -2.0658 -0.0809
  848MOL0     H14438  11.910   5.457   0.807  0.4401 -0.4377 -0.0973
  848MOL0     H14439  12.026   5.593   0.802 -0.3687  0.2665  0.2799
  848MOL0     H14440  11.922   5.617   0.370 -1.7063 -0.0451  1.8123
  848MOL0     H14441  11.940   5.782   0.194 -0.1375 -0.2866  1.5482
  848MOL0     H14442  12.076   5.877   0.151 -0.1802 -1.6282 -2.7411
  848MOL0     H14443  12.083   5.708   0.115 -0.2188  1.6278 -1.4003
  848MOL0     H14444  12.201   6.095   0.100  0.5307 -1.1982 -0.8777
  848MOL0     H14445  12.299   6.259  -0.069  1.5516  1.9952  0.5691
  848MOL0     H14446  12.417   6.388  -0.191  0.3110 -0.7869  1.2324
  848MOL0     H14447  12.482   6.476  -0.060 -0.0167 -1.9993  0.9080
  848MOL0     H14448  12.654   6.404  -0.308 -2.1197 -1.0198 -1.4909
  848MOL0     H14449  12.544   6.543  -0.314  3.7822  3.4954  0.3654
  848MOL0     H14450  12.685   6.658  -0.140 -1.1002 -1.4230  0.9690
  848MOL0     H14451  12.784   6.608  -0.279 -0.1615 -0.2834  0.0134
  848MOL0     H14452  12.742   6.454  -0.022 -0.3633 -1.6125 -1.1452
  848MOL0     H14453  12.841   6.412  -0.155 -0.2446  0.1941  0.1403
  848MOL0     H14454  12.957   6.523   0.047 -0.2942 -3.8484 -1.9278
  848MOL0     H14455  12.878   6.672  -0.002  0.2128 -1.3408  0.6755
  848MOL0     H14456  13.076   6.510  -0.176  0.4766 -0.2255  1.5988
  848MOL0     H14457  12.996   6.670  -0.209  0.8119 -0.1955  0.6305
  848MOL0     H14458  13.178   6.612   0.024  0.6808  0.0410 -0.4011
  848MOL0     H14459  13.114   6.764  -0.015 -1.6858 -0.1944  0.8078
  848MOL0     H14460  13.325   6.797  -0.116  0.1270 -0.0228 -1.7336
  848MOL0     H14461  13.225   6.743  -0.247  0.5305  1.5148 -0.1286
  848MOL0     H14462  12.683   6.099   0.031 -0.3681  0.7944 -1.6456
  848MOL0     H14463  12.597   5.941   0.161  0.0090 -1.5682 -1.4750
  848MOL0     H14464  12.324   5.794   0.576 -2.3407 -0.3841  3.2246
  848MOL0     H14465  12.181   5.644   0.701 -1.9361  0.9396  0.8235
  848MOL0     H14466  11.429   6.954   1.902  1.4807 -0.5742  1.9379
  848MOL0     H14467  11.247   7.002   2.053  1.1366 -0.3743  2.8771
  848MOL0     H14468  10.673   6.678   2.024  1.4579  2.2506 -0.1296
  848MOL0     H14469  10.481   6.667   2.199  0.1209  1.1849  1.9632
  848MOL0     H14470  10.414   6.599   2.415 -0.1106  0.0556 -0.2285
  848MOL0     H14471  10.354   6.676   2.556 -1.8789  2.8776  0.0479
  848MOL0     H14472  10.325   6.826   2.301  0.6856 -0.7566  0.1349
  848MOL0     H14473  10.228   6.862   2.444 -1.9125  0.0323 -3.1455
  848MOL0     H14474  10.188   6.645   2.242 -0.9148  0.6803 -0.9208
  848MOL0     H14475  10.084   6.776   2.303  0.7983  0.6819 -1.4714
  848MOL0     H14476  10.186   6.535   2.467 -0.4390 -0.0814  1.7418
  848MOL0     H14477  10.023   6.537   2.394 -2.0299  2.7625  0.2093
  848MOL0     H14478   9.897   6.757   2.703 -0.3912  0.6962 -1.3692
  848MOL0     H14479  10.728   6.903   2.462 -0.8691  1.3734 -0.3295
  848MOL0     H14480  10.882   6.953   2.277 -0.6598 -0.7539 -1.2451
  849MOL0     O14481   7.583   5.493  10.049 -0.4935 -0.2580  0.3185
  849MOL0     C14482   7.659   5.546   9.970 -0.0258  0.4495 -0.5509
  849MOL0     O14483   7.637   5.546   9.836 -0.2751 -0.4245 -0.2223
  849MOL0     C14484   7.524   5.492   9.787  0.7257 -0.6522 -0.5975
  849MOL0     C14485   7.536   5.380   9.706 -0.0082  0.1257  0.1360
  849MOL0     C14486   7.428   5.319   9.644 -1.0319 -0.6587  0.0278
  849MOL0     C14487   7.303   5.364   9.669  0.6810 -0.2581  0.5821
  849MOL0     O14488   7.204   5.315   9.581 -0.1404 -0.2806 -0.1444
  849MOL0     C14489   7.075   5.286   9.632  0.7700  0.7900 -0.0928
  849MOL0     C14490   7.053   5.129   9.642  1.0006  0.1671  0.8856
  849MOL0     C14491   7.094   5.069   9.779 -0.7875  0.5028 -0.7291
  849MOL0     C14492   7.233   5.000   9.778  0.8400 -0.5950  0.6706
  849MOL0     C14493   7.314   5.047   9.893  0.0007  0.7028  0.3935
  849MOL0     C14494   7.278   4.999  10.036  0.7711  0.0087  0.4933
  849MOL0     C14495   7.270   4.847  10.048 -0.1084 -0.2552 -0.7041
  849MOL0     C14496   7.237   4.827  10.198 -0.6828 -0.1228 -0.7735
  849MOL0     N14497   7.088   4.821  10.217  0.5896  0.1308 -0.0032
  849MOL0     C14498   7.011   4.936  10.226  0.1147 -0.6288  1.4142
  849MOL0     C14499   6.886   4.893  10.221  0.2504 -0.2083  0.5784
  849MOL0     C14500   6.771   4.982  10.234  0.8485  0.2073 -0.7886
  849MOL0     C14501   6.748   5.063  10.097 -0.2411  0.4328 -0.0415
  849MOL0     C14502   6.733   4.968   9.979 -0.4068  0.4986 -0.2458
  849MOL0     C14503   6.678   5.043   9.853 -0.5014  0.3477  0.5025
  849MOL0     O14504   6.676   4.952   9.733  0.4002  0.3687  0.4111
  849MOL0     C14505   6.598   4.985   9.620  0.7314  0.0295 -0.3955
  849MOL0     C14506   6.519   5.100   9.599  0.3069  0.5232  0.2137
  849MOL0     C14507   6.427   5.109   9.489  0.4435 -0.4951  0.8941
  849MOL0     C14508   6.360   5.242   9.469  0.4790 -0.9690  0.2150
  849MOL0     C14509   6.406   4.996   9.398 -0.0799  0.9633 -0.4200
  849MOL0     C14510   6.316   4.987   9.285 -0.4124  0.0611  0.3423
  849MOL0     O14511   6.372   4.959   9.169 -0.4982 -0.7351  0.5290
  849MOL0     C14512   6.296   4.967   9.049 -0.5679 -0.1236  0.4081
  849MOL0     C14513   6.313   4.866   8.963  0.0126 -0.2358 -0.4591
  849MOL0     C14514   6.246   4.865   8.840 -0.0807 -0.9191 -0.4593
  849MOL0     C14515   6.163   4.971   8.795  0.1954  0.8776 -0.2025
  849MOL0     O14516   6.111   4.960   8.669  0.1882 -0.9132  0.1050
  849MOL0     C14517   6.032   5.077   8.630 -0.4342 -0.0039  0.4308
  849MOL0     C14518   5.955   5.027   8.501  0.5212 -1.0664 -0.2370
  849MOL0     C14519   5.902   5.143   8.417 -0.0451 -0.1856  0.0538
  849MOL0     C14520   5.797   5.108   8.316  0.3270 -0.4803 -0.7744
  849MOL0     C14521   5.751   5.232   8.243  0.9341 -0.0335  0.7977
  849MOL0     C14522   5.642   5.192   8.142  1.1875 -0.4723  0.2939
  849MOL0     C14523   5.593   5.320   8.071 -0.5558 -0.6776  0.5051
  849MOL0     C14524   5.475   5.303   7.969 -0.0470  0.6101 -0.5397
  849MOL0    Cl14525   5.317   5.241   8.029  0.0146 -0.1241 -0.2411
  849MOL0     C14526   6.156   5.076   8.890 -0.6522  0.4639 -0.0127
  849MOL0     C14527   6.220   5.072   9.013 -0.3520 -0.5172 -0.6758
  849MOL0     O14528   6.196   5.003   9.306 -0.6459  0.1758  0.9610
  849MOL0     C14529   6.496   4.887   9.421 -0.9953 -0.9012  0.0869
  849MOL0     C14530   6.578   4.879   9.533 -0.6531  0.1295  0.3990
  849MOL0     N14531   6.884   4.759  10.223  0.0181  0.4302  0.4941
  849MOL0     N14532   7.010   4.715  10.222  0.2901 -0.1329 -0.4420
  849MOL0     C14533   7.287   5.469   9.756 -0.1156 -0.5373  0.1989
  849MOL0     C14534   7.391   5.544   9.812  0.1261 -0.0043  0.0352
  849MOL0     C14535   7.787   5.607  10.017  0.8043  0.6609 -0.7743
  849MOL0     C14536   7.849   5.570  10.137 -0.4430 -0.0933  0.6521
  849MOL0     C14537   7.967   5.638  10.175  0.5766  0.4507 -0.4409
  849MOL0     C14538   8.033   5.720  10.094 -0.5870 -0.4312  0.2114
  849MOL0     O14539   8.154   5.785  10.123  0.4820  0.3963  0.1446
  849MOL0     C14540   8.213   5.775  10.257  0.3061  0.0895  0.5072
  849MOL0     C14541   8.355   5.822  10.236  0.6779  1.0946  0.3179
  849MOL0     C14542   8.448   5.760  10.342 -0.5617  0.0131  1.3107
  849MOL0     C14543   8.602   5.788  10.338 -0.0952  0.0825 -0.1954
  849MOL0     C14544   8.689   5.717  10.237  0.8765  0.0609 -0.5522
  849MOL0     C14545   8.744   5.652  10.151 -0.4257 -0.0808  0.5739
  849MOL0     C14546   7.973   5.751   9.972 -0.0026 -0.1806 -0.5144
  849MOL0     C14547   7.849   5.700   9.934 -0.0995 -0.2477 -0.2053
  849MOL0     H14548   7.638   5.345   9.695 -1.0340 -3.8315  1.7653
  849MOL0     H14549   7.430   5.244   9.566 -2.8080  0.7537 -1.4679
  849MOL0     H14550   7.055   5.340   9.725 -3.2309 -1.7280  0.7477
  849MOL0     H14551   7.003   5.335   9.566  0.2180  1.9451  1.3126
  849MOL0     H14552   6.947   5.103   9.634  1.0696  0.4321 -2.3014
  849MOL0     H14553   7.108   5.080   9.562  1.5975  0.8346  0.8793
  849MOL0     H14554   7.097   5.154   9.847 -0.5337 -0.1458  0.0802
  849MOL0     H14555   7.024   4.989   9.806 -1.0337  0.4145 -1.5757
  849MOL0     H14556   7.224   4.891   9.772  1.5973 -0.8377  3.0795
  849MOL0     H14557   7.287   5.034   9.689 -0.4189  1.3153  0.5823
  849MOL0     H14558   7.418   5.019   9.879 -0.4687 -0.3757 -1.3480
  849MOL0     H14559   7.320   5.157   9.896  0.9612  0.7219 -1.2847
  849MOL0     H14560   7.342   5.044  10.113  1.9954 -1.5689  0.4552
  849MOL0     H14561   7.174   5.033  10.043  0.0151 -1.3307 -2.6108
  849MOL0     H14562   7.192   4.800   9.988  0.7508 -0.7454 -1.4553
  849MOL0     H14563   7.366   4.801  10.025 -0.2121  0.0233 -1.7378
  849MOL0     H14564   7.276   4.907  10.261 -1.6653  0.1319 -0.4659
  849MOL0     H14565   7.275   4.733  10.240  1.6969  1.5226  1.0330
  849MOL0     H14566   7.044   5.038  10.242 -0.2940 -0.0705 -0.8714
  849MOL0     H14567   6.682   4.919  10.251  1.4640 -0.4964 -0.0715
  849MOL0     H14568   6.777   5.052  10.318 -4.1175  0.1413 -0.0657
  849MOL0     H14569   6.832   5.133  10.084 -0.2220  0.2379 -1.0780
  849MOL0     H14570   6.656   5.121  10.110 -1.4918 -0.9002 -2.3715
  849MOL0     H14571   6.672   4.881  10.002  2.3343 -1.7596 -0.9643
  849MOL0     H14572   6.830   4.928   9.948 -1.4747 -1.7068 -0.9652
  849MOL0     H14573   6.737   5.135   9.843  2.6142 -1.3754  1.6532
  849MOL0     H14574   6.575   5.077   9.870 -0.0630  1.8145  0.3477
  849MOL0     H14575   6.532   5.186   9.664 -0.7952  0.0396  1.1121
  849MOL0     H14576   6.261   5.223   9.427  0.6562 -0.0761 -0.6440
  849MOL0     H14577   6.347   5.298   9.563  3.7293  0.5844 -0.1508
  849MOL0     H14578   6.417   5.305   9.400  1.3844  3.2086  4.2610
  849MOL0     H14579   6.376   4.784   8.995  0.0243 -0.2888 -0.6187
  849MOL0     H14580   6.259   4.771   8.787 -1.3315 -1.6978  0.5544
  849MOL0     H14581   5.959   5.102   8.708 -0.0308  0.3392  0.6971
  849MOL0     H14582   6.091   5.165   8.602 -0.0076 -0.4974 -0.2484
  849MOL0     H14583   6.018   4.959   8.444  2.6631 -2.0201  2.9626
  849MOL0     H14584   5.875   4.967   8.546  1.2967 -3.2376 -1.6156
  849MOL0     H14585   5.994   5.180   8.370  1.3673 -0.6025  2.2820
  849MOL0     H14586   5.865   5.226   8.479  2.0127  0.3928  0.6134
  849MOL0     H14587   5.839   5.038   8.243  3.4186  0.9023 -0.5052
  849MOL0     H14588   5.716   5.071   8.379  2.7275 -0.7244  2.4280
  849MOL0     H14589   5.832   5.288   8.196  0.6905  0.6933  1.2254
  849MOL0     H14590   5.698   5.302   8.308  0.9174  0.8780 -0.1594
  849MOL0     H14591   5.686   5.119   8.073 -0.2705  0.0100 -1.2198
  849MOL0     H14592   5.559   5.143   8.193  0.0915 -0.7361 -1.6502
  849MOL0     H14593   5.671   5.368   8.010  0.2057  1.7667  3.2040
  849MOL0     H14594   5.558   5.390   8.146 -1.4003  0.2195 -0.6923
  849MOL0     H14595   5.506   5.251   7.878 -0.2409 -5.4572  2.3698
  849MOL0     H14596   5.451   5.409   7.953 -0.4377  1.1053  2.6795
  849MOL0     H14597   6.101   5.166   8.865 -0.2049  1.2482  1.6481
  849MOL0     H14598   6.224   5.162   9.074  4.6711 -1.7978  1.3733
  849MOL0     H14599   6.474   4.800   9.359 -3.2440 -0.5863  0.3496
  849MOL0     H14600   6.640   4.792   9.553  2.0312  2.1810  1.7582
  849MOL0     H14601   7.189   5.516   9.763  0.4944  0.7245  0.6449
  849MOL0     H14602   7.372   5.640   9.859 -3.4479 -0.8363  0.5743
  849MOL0     H14603   7.804   5.491  10.196 -2.6479 -0.8457 -1.8269
  849MOL0     H14604   8.010   5.611  10.271  0.1411  0.2416 -0.3025
  849MOL0     H14605   8.160   5.844  10.322 -2.2783  0.6378 -1.9425
  849MOL0     H14606   8.205   5.673  10.296 -2.0528  0.1479  0.2973
  849MOL0     H14607   8.363   5.931  10.244  0.7654  1.1754 -0.7504
  849MOL0     H14608   8.379   5.809  10.130 -2.2555 -2.4458 -0.1118
  849MOL0     H14609   8.428   5.653  10.356 -1.4204  0.1196  0.9626
  849MOL0     H14610   8.410   5.808  10.433 -0.4805  0.6963  0.9908
  849MOL0     H14611   8.634   5.743  10.433 -1.4095  0.4636  0.4515
  849MOL0     H14612   8.631   5.892  10.353  0.1559 -0.1496  1.0573
  849MOL0     H14613   8.801   5.599  10.078  1.0311  0.6323  1.1611
  849MOL0     H14614   8.032   5.821   9.914 -0.0413  1.5824  1.4644
  849MOL0     H14615   7.795   5.737   9.848 -0.9417  0.5613  0.6413
  850MOL0     O14616   5.136   4.207   5.275 -0.1794 -0.2167 -0.3261
  850MOL0     C14617   5.103   4.321   5.237  0.4329 -0.0161  0.8848
  850MOL0     O14618   4.996   4.352   5.164  0.5124  0.0104 -0.7182
  850MOL0     C14619   4.894   4.263   5.122 -0.3523  0.1282 -0.7815
  850MOL0     C14620   4.905   4.122   5.121 -0.2925  0.3714  0.2079
  850MOL0     C14621   4.799   4.042   5.067 -0.0632 -0.8516  0.2950
  850MOL0     C14622   4.687   4.106   5.009  0.0430  0.1070 -0.7809
  850MOL0     O14623   4.577   4.040   4.949 -0.2146 -0.4264  0.4169
  850MOL0     C14624   4.594   3.894   4.926 -0.4437 -0.9456 -0.0384
  850MOL0     C14625   4.485   3.859   4.828 -0.7334 -0.4080  0.0366
  850MOL0     C14626   4.471   3.712   4.821  0.1833  0.1459  0.9845
  850MOL0     C14627   4.337   3.682   4.760  0.1059  1.3017  0.2380
  850MOL0     C14628   4.339   3.528   4.725  0.0137 -0.2890 -0.3112
  850MOL0     C14629   4.404   3.477   4.606  0.1414  0.4387  0.7257
  850MOL0     C14630   4.357   3.346   4.576 -0.5295 -0.5476  0.6098
  850MOL0     C14631   4.454   3.241   4.645 -0.3549 -0.3992 -0.0468
  850MOL0     N14632   4.413   3.104   4.608 -0.7972  0.6330 -0.3507
  850MOL0     C14633   4.291   3.048   4.632 -0.2390  0.2076 -0.3910
  850MOL0     C14634   4.301   2.923   4.573  0.1878 -0.7389  1.0023
  850MOL0     C14635   4.198   2.815   4.556  0.2595  0.0424 -0.0347
  850MOL0     C14636   4.099   2.808   4.670 -0.1103 -0.5692  0.3685
  850MOL0     C14637   3.977   2.730   4.636 -0.2379  0.0089  0.1633
  850MOL0     C14638   3.882   2.744   4.750 -0.1513 -0.4199  0.1047
  850MOL0     O14639   3.795   2.635   4.738 -0.6268  0.1723 -0.0502
  850MOL0     C14640   3.678   2.637   4.811 -0.1286 -0.1973  0.5876
  850MOL0     C14641   3.575   2.570   4.753  0.1576 -0.8821 -0.4599
  850MOL0     C14642   3.447   2.560   4.810  0.7891  0.4664 -0.1568
  850MOL0     C14643   3.339   2.474   4.744 -0.8578  0.1601 -0.4019
  850MOL0     C14644   3.423   2.635   4.929  0.5135  0.1729  0.2108
  850MOL0     C14645   3.292   2.648   5.006 -0.1424  1.3275  0.3803
  850MOL0     O14646   3.180   2.651   4.934 -0.0368 -0.4356  0.1694
  850MOL0     C14647   3.054   2.682   4.982 -0.2684  0.1924 -1.3512
  850MOL0     C14648   3.012   2.664   5.112  0.2807  0.0948  0.0907
  850MOL0     C14649   2.878   2.711   5.149  0.2220 -1.1366 -0.4034
  850MOL0     C14650   2.797   2.778   5.052 -0.3084  0.0767  0.1703
  850MOL0     O14651   2.671   2.824   5.097 -0.6865 -0.6797 -0.1989
  850MOL0     C14652   2.557   2.852   5.012  1.1372 -0.5604 -0.6143
  850MOL0     C14653   2.564   2.992   4.941  0.2990  0.3959 -0.2425
  850MOL0     C14654   2.426   3.002   4.855  0.6639  0.7517  0.2113
  850MOL0     C14655   2.295   3.026   4.945 -0.4907 -0.1308  0.0155
  850MOL0     C14656   2.170   3.035   4.859  0.4811  0.7117  0.1429
  850MOL0     C14657   2.041   3.064   4.927  0.3612 -0.7004  0.1135
  850MOL0     C14658   2.037   3.207   4.977  0.5958  0.8120  0.2097
  850MOL0     C14659   2.067   3.306   4.867 -0.5456 -0.7362  0.1695
  850MOL0    Cl14660   1.976   3.276   4.720 -0.5937  0.1190 -0.6116
  850MOL0     C14661   2.844   2.770   4.915  0.8593  0.5329 -0.6175
  850MOL0     C14662   2.974   2.734   4.885  0.4323 -0.1338  0.1619
  850MOL0     O14663   3.304   2.635   5.127 -0.2829  0.3228  0.4296
  850MOL0     C14664   3.529   2.707   4.974 -0.2867 -1.0185 -0.6569
  850MOL0     C14665   3.654   2.704   4.921 -0.4303  0.1545 -0.7567
  850MOL0     N14666   4.420   2.914   4.507  0.1512  0.2482 -0.4472
  850MOL0     N14667   4.493   3.022   4.535  0.3715  0.0512 -0.0139
  850MOL0     C14668   4.684   4.247   5.011  1.7403 -0.0047  0.2369
  850MOL0     C14669   4.783   4.327   5.067  0.0055 -0.2257  0.6951
  850MOL0     C14670   5.178   4.430   5.302  0.2964 -0.0799 -0.4296
  850MOL0     C14671   5.145   4.567   5.295 -0.1930  0.8887  0.5106
  850MOL0     C14672   5.215   4.655   5.383 -0.3496  0.7844 -0.9076
  850MOL0     C14673   5.334   4.618   5.442 -0.2050  1.3707 -0.6681
  850MOL0     O14674   5.407   4.711   5.508 -0.0215  0.1861 -0.3171
  850MOL0     C14675   5.544   4.684   5.552  0.1645  0.3301  0.4506
  850MOL0     C14676   5.629   4.809   5.543  0.0089 -0.1313  0.2800
  850MOL0     C14677   5.602   4.904   5.421  0.3195 -0.2023  0.3148
  850MOL0     C14678   5.641   4.842   5.283 -0.1836  0.1258 -0.1832
  850MOL0     C14679   5.774   4.792   5.285  0.8337  0.0088 -0.0156
  850MOL0     C14680   5.879   4.749   5.265 -0.4735  0.1288 -1.4285
  850MOL0     C14681   5.373   4.484   5.444 -1.2975 -0.4859  0.4806
  850MOL0     C14682   5.294   4.390   5.378  0.1882 -1.4762  0.0699
  850MOL0     H14683   4.999   4.073   5.142  0.3490  0.3864 -2.3210
  850MOL0     H14684   4.810   3.934   5.063  2.0385 -0.6854  0.1210
  850MOL0     H14685   4.691   3.884   4.878 -0.6833  0.9957 -1.0660
  850MOL0     H14686   4.585   3.839   5.020 -2.8833  0.5055  0.6837
  850MOL0     H14687   4.402   3.907   4.881 -0.5149 -1.6288  1.5619
  850MOL0     H14688   4.499   3.912   4.734  4.1795  2.6437  2.0583
  850MOL0     H14689   4.543   3.680   4.745 -2.9550  3.2744 -3.7802
  850MOL0     H14690   4.483   3.663   4.918  0.0465  1.6454  1.7914
  850MOL0     H14691   4.256   3.713   4.827 -2.7920  1.0432 -2.8754
  850MOL0     H14692   4.321   3.733   4.664 -0.7321 -0.2229 -0.4753
  850MOL0     H14693   4.374   3.465   4.807  0.1816 -1.5124 -1.3126
  850MOL0     H14694   4.231   3.509   4.724  0.0781 -1.0265  1.6159
  850MOL0     H14695   4.370   3.537   4.521 -2.2930  2.7241  3.1291
  850MOL0     H14696   4.513   3.477   4.606  0.1806  2.6717  0.7305
  850MOL0     H14697   4.253   3.323   4.605 -0.0443 -0.4453  2.5793
  850MOL0     H14698   4.373   3.331   4.469  3.0639  1.3517  0.7415
  850MOL0     H14699   4.453   3.255   4.753  0.3710  4.3700 -0.4732
  850MOL0     H14700   4.557   3.267   4.620 -0.4993 -1.9612 -2.6567
  850MOL0     H14701   4.203   3.082   4.685  0.1054  1.9130 -0.8559
  850MOL0     H14702   4.149   2.821   4.458  2.5750 -0.2999 -1.3131
  850MOL0     H14703   4.253   2.723   4.536 -0.0744 -0.2314  0.2934
  850MOL0     H14704   4.069   2.911   4.691  1.0408 -1.0643  6.3654
  850MOL0     H14705   4.150   2.781   4.763  0.8884  1.3915  0.4548
  850MOL0     H14706   3.991   2.622   4.628  2.7920  0.0217  2.8837
  850MOL0     H14707   3.931   2.775   4.548 -1.9406 -0.3716  0.8279
  850MOL0     H14708   3.830   2.840   4.735 -0.2934 -0.6713 -1.1071
  850MOL0     H14709   3.925   2.753   4.850 -0.2558  1.7310  0.0120
  850MOL0     H14710   3.602   2.515   4.664  1.7818 -0.1276 -0.4586
  850MOL0     H14711   3.379   2.378   4.709  1.6939  1.7190 -2.0904
  850MOL0     H14712   3.255   2.441   4.805 -1.4545 -1.0552 -1.8123
  850MOL0     H14713   3.304   2.526   4.655  0.0062 -1.3779 -1.7107
  850MOL0     H14714   3.074   2.614   5.186 -0.2399 -1.7577 -0.6679
  850MOL0     H14715   2.841   2.697   5.250 -1.9570 -3.8582 -1.4387
  850MOL0     H14716   2.548   2.769   4.941  0.6275 -2.2170  1.3244
  850MOL0     H14717   2.466   2.857   5.071  1.2220  1.5478 -0.5823
  850MOL0     H14718   2.579   3.061   5.025 -1.2979 -1.6056  1.8297
  850MOL0     H14719   2.643   2.995   4.866  1.9681  3.1872  1.4386
  850MOL0     H14720   2.415   2.905   4.805  0.6457  1.0113 -0.3013
  850MOL0     H14721   2.438   3.083   4.782  0.8854 -0.5258 -1.2331
  850MOL0     H14722   2.278   2.948   5.020 -2.4689 -0.2503 -0.4986
  850MOL0     H14723   2.307   3.124   4.992 -2.3996  1.1460 -1.9438
  850MOL0     H14724   2.162   2.932   4.823 -0.0551  0.1991  1.6109
  850MOL0     H14725   2.188   3.104   4.777 -0.7521  2.3202  1.1637
  850MOL0     H14726   1.960   3.042   4.857 -0.6803  0.0238  1.0432
  850MOL0     H14727   2.034   3.005   5.019  1.5135  0.1612  0.7861
  850MOL0     H14728   2.098   3.216   5.067  1.6305 -0.2200 -0.3617
  850MOL0     H14729   1.936   3.218   5.018 -0.5161 -0.2651 -2.0110
  850MOL0     H14730   2.176   3.309   4.854 -0.0681 -0.6289  3.3391
  850MOL0     H14731   2.034   3.405   4.902  1.4258  0.1741 -0.3428
  850MOL0     H14732   2.775   2.799   4.837 -0.5341 -3.0902 -0.9185
  850MOL0     H14733   3.012   2.744   4.784  0.9119 -0.5871  0.2914
  850MOL0     H14734   3.508   2.760   5.067  0.0739  0.7264 -1.5248
  850MOL0     H14735   3.737   2.749   4.973 -2.8211  1.2729  2.3899
  850MOL0     H14736   4.604   4.301   4.961  1.7256 -0.2611 -0.0215
  850MOL0     H14737   4.771   4.434   5.078 -0.1188 -0.3208  1.5279
  850MOL0     H14738   5.052   4.586   5.243 -0.6389  0.4386  1.1296
  850MOL0     H14739   5.186   4.758   5.400  1.9282  1.1899  1.2561
  850MOL0     H14740   5.548   4.651   5.657 -2.3168 -1.6980 -0.0055
  850MOL0     H14741   5.589   4.608   5.488  1.8981 -0.3798  2.3950
  850MOL0     H14742   5.729   4.768   5.533 -0.8773 -3.1659  2.3055
  850MOL0     H14743   5.631   4.866   5.636  2.1903  1.3369 -0.5869
  850MOL0     H14744   5.659   4.997   5.430  1.3276 -0.4266 -2.7126
  850MOL0     H14745   5.496   4.928   5.420 -0.0397 -0.9998  3.8096
  850MOL0     H14746   5.636   4.920   5.206 -1.7067  0.0487 -0.1919
  850MOL0     H14747   5.571   4.762   5.260 -1.6373  1.1793  0.4058
  850MOL0     H14748   5.966   4.691   5.239 -0.2120  0.2434 -0.8132
  850MOL0     H14749   5.454   4.453   5.510 -2.8148 -0.9306  2.1964
  850MOL0     H14750   5.331   4.288   5.384  2.7419 -0.5561  3.4636
  851MOL0     O14751   4.819   2.330   9.472  0.1472  0.1052  0.1456
  851MOL0     C14752   4.796   2.209   9.484  0.5259  0.2352  0.3121
  851MOL0     O14753   4.668   2.153   9.475  0.4965  0.0448  0.7904
  851MOL0     C14754   4.558   2.241   9.485  0.5415  0.5693  0.0537
  851MOL0     C14755   4.494   2.264   9.605 -0.5404 -0.1234 -0.5383
  851MOL0     C14756   4.379   2.346   9.603  0.5724 -0.4406 -0.8043
  851MOL0     C14757   4.320   2.398   9.482  0.5941 -0.2687 -0.0754
  851MOL0     O14758   4.213   2.480   9.468  0.5300  0.7081 -0.2507
  851MOL0     C14759   4.128   2.506   9.586  0.2528  0.2955 -0.5787
  851MOL0     C14760   4.014   2.602   9.544 -0.2956  1.0743 -0.2146
  851MOL0     C14761   3.892   2.607   9.629 -0.6034 -0.1420  1.0918
  851MOL0     C14762   3.776   2.520   9.562  0.2389  0.0706  0.1150
  851MOL0     C14763   3.655   2.515   9.654 -0.1844  0.2980 -0.1782
  851MOL0     C14764   3.567   2.645   9.637 -0.8436  0.4076  0.2038
  851MOL0     C14765   3.443   2.654   9.721  0.5236  0.4626 -0.0092
  851MOL0     C14766   3.332   2.746   9.664 -0.9531 -0.4439  1.0299
  851MOL0     N14767   3.345   2.888   9.706  1.0147  1.1505  0.4548
  851MOL0     C14768   3.272   2.929   9.818 -0.0483 -0.1370 -0.7276
  851MOL0     C14769   3.326   3.055   9.833  0.1502  0.8203  0.7654
  851MOL0     C14770   3.296   3.163   9.931 -0.6998 -0.4170  0.8506
  851MOL0     C14771   3.158   3.212   9.917  0.2478  0.6357  0.7672
  851MOL0     C14772   3.123   3.259   9.777  0.3589  0.1403 -0.4192
  851MOL0     C14773   3.001   3.357   9.783 -0.4173  0.2188 -0.7548
  851MOL0     O14774   3.028   3.473   9.857  0.5988 -0.5279 -1.1618
  851MOL0     C14775   2.921   3.549   9.897  0.3106 -0.4728 -0.0151
  851MOL0     C14776   2.940   3.612  10.020 -0.3914 -0.6409 -0.9878
  851MOL0     C14777   2.839   3.703  10.072 -1.1493  0.6284 -0.4929
  851MOL0     C14778   2.862   3.749  10.213 -0.0107 -0.1098 -0.1304
  851MOL0     C14779   2.717   3.712  10.003  0.4366 -0.5106 -0.2315
  851MOL0     C14780   2.612   3.811  10.038  0.4412  0.7559  0.0814
  851MOL0     O14781   2.492   3.794   9.961 -0.4763 -0.3200  0.5646
  851MOL0     C14782   2.370   3.857   9.991  0.5369  0.4547  0.2712
  851MOL0     C14783   2.313   3.856  10.117 -0.0532 -0.0827  0.1545
  851MOL0     C14784   2.184   3.921  10.136  0.3552  0.0925  0.2677
  851MOL0     C14785   2.112   3.972  10.029  0.0905 -0.0398 -0.0025
  851MOL0     O14786   1.984   4.030  10.032  0.4536 -0.9073 -0.0376
  851MOL0     C14787   1.915   4.024  10.155  0.2995  0.7852  0.4353
  851MOL0     C14788   1.779   4.090  10.137  0.3706  0.0350 -0.1752
  851MOL0     C14789   1.666   4.066  10.236 -0.1651  0.4890 -0.1146
  851MOL0     C14790   1.542   4.146  10.209 -0.8056 -0.5061 -0.7480
  851MOL0     C14791   1.442   4.149  10.328  1.0297  0.4033  0.0717
  851MOL0     C14792   1.352   4.028  10.328  0.6533 -0.2882  0.6523
  851MOL0     C14793   1.228   4.041  10.423 -0.0734  0.0466 -0.0890
  851MOL0     C14794   1.126   4.152  10.392 -0.1970  0.1960  0.2874
  851MOL0    Cl14795   1.077   4.155  10.221  0.1743  0.3872 -0.1672
  851MOL0     C14796   2.177   3.977   9.909  0.4149 -0.4148 -0.3370
  851MOL0     C14797   2.299   3.920   9.888  0.2634 -0.2578 -1.1672
  851MOL0     O14798   2.623   3.900  10.123  0.0283 -0.0264 -0.3455
  851MOL0     C14799   2.699   3.638   9.882 -0.3765  0.1302  0.1198
  851MOL0     C14800   2.800   3.559   9.827 -0.1184  0.2492 -0.9468
  851MOL0     N14801   3.435   3.076   9.744  0.2490  0.2593  0.6268
  851MOL0     N14802   3.443   2.970   9.670  0.1631  0.4376  0.5324
  851MOL0     C14803   4.393   2.369   9.371  0.5934 -0.6264 -0.2180
  851MOL0     C14804   4.516   2.304   9.372  0.2294 -0.1912  0.6853
  851MOL0     C14805   4.909   2.111   9.487 -0.1504  0.0895  0.8824
  851MOL0     C14806   4.888   1.969   9.508 -0.0448 -0.4893  0.5434
  851MOL0     C14807   4.993   1.886   9.497  0.1271  0.0301  0.2688
  851MOL0     C14808   5.126   1.945   9.487  0.3345  0.3804  0.7205
  851MOL0     O14809   5.236   1.861   9.474  0.5969  0.1972  0.1764
  851MOL0     C14810   5.222   1.722   9.483 -0.3195  0.0033 -0.2265
  851MOL0     C14811   5.234   1.686   9.629 -0.3718 -0.0556 -0.1886
  851MOL0     C14812   5.372   1.693   9.681 -0.2454  0.5372  0.2519
  851MOL0     C14813   5.380   1.657   9.836 -0.8041  0.2073 -1.0403
  851MOL0     C14814   5.520   1.630   9.874  0.0099 -0.2972 -0.9019
  851MOL0     C14815   5.635   1.593   9.887  0.5765 -0.1486 -0.1254
  851MOL0     C14816   5.145   2.083   9.485 -0.0150  0.7439 -0.2878
  851MOL0     C14817   5.040   2.168   9.483  0.1478  0.1349  0.9559
  851MOL0     H14818   4.528   2.215   9.696  0.3704  2.6971  0.7663
  851MOL0     H14819   4.334   2.371   9.698 -1.0347  2.6433 -2.2203
  851MOL0     H14820   4.077   2.421   9.634  1.9819 -0.0525  0.7163
  851MOL0     H14821   4.177   2.555   9.670  1.7633  2.3170 -2.5215
  851MOL0     H14822   4.063   2.698   9.526  3.3956 -0.3958  1.1350
  851MOL0     H14823   3.984   2.568   9.444 -4.5983 -2.8294  2.0015
  851MOL0     H14824   3.920   2.566   9.726  2.1069  2.8433  1.7158
  851MOL0     H14825   3.853   2.709   9.628  1.7641  1.0046 -3.5826
  851MOL0     H14826   3.751   2.561   9.464  0.6995 -3.2793 -1.5544
  851MOL0     H14827   3.805   2.416   9.540 -1.2001  0.0395 -1.8483
  851MOL0     H14828   3.599   2.424   9.629 -0.3492  0.3634 -0.0501
  851MOL0     H14829   3.689   2.505   9.757 -0.6616 -3.2504 -0.2242
  851MOL0     H14830   3.628   2.731   9.666 -0.6046  0.1083  0.5987
  851MOL0     H14831   3.532   2.659   9.534 -2.3678  2.4695  0.9510
  851MOL0     H14832   3.396   2.558   9.743 -3.4758  2.7928  2.7273
  851MOL0     H14833   3.471   2.689   9.821  1.8160  1.6911 -0.7611
  851MOL0     H14834   3.227   2.719   9.679 -1.9200  2.1105 -0.4794
  851MOL0     H14835   3.346   2.765   9.557 -1.2259  1.7631  1.3518
  851MOL0     H14836   3.183   2.888   9.864  1.5219 -2.5916  0.3602
  851MOL0     H14837   3.312   3.119  10.030  1.8183 -1.7264 -0.0463
  851MOL0     H14838   3.372   3.237   9.905  0.5639 -1.9785 -0.1317
  851MOL0     H14839   3.136   3.285   9.995  1.3159  1.8073  0.0125
  851MOL0     H14840   3.094   3.125   9.931 -0.4681  1.0620  0.2287
  851MOL0     H14841   3.100   3.173   9.713 -4.3857  0.5030  0.4625
  851MOL0     H14842   3.204   3.325   9.745  2.1196 -2.1856 -1.0714
  851MOL0     H14843   2.924   3.314   9.847 -0.7034  1.3680 -0.2909
  851MOL0     H14844   2.955   3.380   9.686 -0.2521 -1.8734 -1.3749
  851MOL0     H14845   3.041   3.597  10.059  0.7165 -0.3177 -3.5212
  851MOL0     H14846   2.968   3.737  10.237 -0.2797  0.0282  1.2182
  851MOL0     H14847   2.831   3.854  10.221 -0.3712 -0.3481  2.5835
  851MOL0     H14848   2.800   3.688  10.280 -0.8804 -1.1656 -1.8384
  851MOL0     H14849   2.360   3.810  10.204  0.6362  0.3167  0.0001
  851MOL0     H14850   2.149   3.910  10.238  0.0316 -0.3843  0.1089
  851MOL0     H14851   1.897   3.918  10.173 -4.7044  1.4734  0.7977
  851MOL0     H14852   1.963   4.078  10.237  0.4262 -1.7318  2.1209
  851MOL0     H14853   1.803   4.196  10.144  0.7298 -0.1140  1.0055
  851MOL0     H14854   1.754   4.055  10.037 -0.8276 -1.2443  0.5300
  851MOL0     H14855   1.699   4.073  10.340  1.2516 -2.3748 -0.2853
  851MOL0     H14856   1.636   3.961  10.227  2.1157 -0.3844  1.5494
  851MOL0     H14857   1.567   4.251  10.192 -1.9146  0.7997  4.1180
  851MOL0     H14858   1.497   4.107  10.118 -0.5460 -2.0288 -0.2551
  851MOL0     H14859   1.380   4.237  10.308 -1.3746 -0.3861  3.2514
  851MOL0     H14860   1.478   4.164  10.429  0.5305  1.3217  0.1328
  851MOL0     H14861   1.323   4.001  10.226  1.5553 -0.5240  0.4534
  851MOL0     H14862   1.409   3.945  10.373  2.0760  0.7050  0.7440
  851MOL0     H14863   1.265   4.071  10.521 -3.1084  1.8078  0.6594
  851MOL0     H14864   1.172   3.947  10.430  1.0540 -0.6237  0.1387
  851MOL0     H14865   1.164   4.249  10.426  0.0170 -0.8280  3.3010
  851MOL0     H14866   1.037   4.130  10.452 -1.4622  2.2429 -0.6940
  851MOL0     H14867   2.124   4.030   9.831  1.1858 -1.1157 -1.3637
  851MOL0     H14868   2.346   3.924   9.791 -0.0337  0.2438 -1.2983
  851MOL0     H14869   2.612   3.659   9.821 -0.3164 -1.0721 -0.4111
  851MOL0     H14870   2.783   3.518   9.728 -0.3439  0.5823 -1.0491
  851MOL0     H14871   4.339   2.409   9.287  0.3044 -0.5842 -0.0130
  851MOL0     H14872   4.564   2.287   9.276 -1.5335 -0.7833 -0.1319
  851MOL0     H14873   4.797   1.910   9.509  0.7513 -2.0174 -3.0331
  851MOL0     H14874   4.974   1.779   9.492 -3.1961  0.5539 -0.2980
  851MOL0     H14875   5.144   1.674   9.423  0.2856 -0.3285 -0.7676
  851MOL0     H14876   5.314   1.698   9.428 -1.3266 -0.4211 -1.7840
  851MOL0     H14877   5.193   1.588   9.653 -0.0478 -0.2922 -0.5925
  851MOL0     H14878   5.190   1.766   9.690  1.8190  0.7954  0.3908
  851MOL0     H14879   5.429   1.779   9.643  2.3642 -1.9529 -1.9239
  851MOL0     H14880   5.435   1.623   9.625 -1.7960  1.5034 -2.9214
  851MOL0     H14881   5.319   1.569   9.859 -1.7953  1.4912  1.6272
  851MOL0     H14882   5.342   1.747   9.884 -0.8254  1.4096 -3.1651
  851MOL0     H14883   5.741   1.575   9.880  0.8565  1.0010  0.7255
  851MOL0     H14884   5.246   2.123   9.482  0.6055 -0.7984 -0.5202
  851MOL0     H14885   5.059   2.275   9.490  1.6988 -0.0618  0.0784
  852MOL0     O14886   8.803   2.041   9.342 -0.4961  0.3469 -0.6482
  852MOL0     C14887   8.724   2.091   9.263 -0.4992  0.2100 -0.2449
  852MOL0     O14888   8.759   2.120   9.137  0.0840 -0.2785 -0.1045
  852MOL0     C14889   8.895   2.131   9.096  0.6562  1.0295 -0.7336
  852MOL0     C14890   8.948   2.012   9.041 -0.9564 -0.4823 -0.0121
  852MOL0     C14891   9.085   2.025   8.997  0.2969 -0.2670  0.2858
  852MOL0     C14892   9.169   2.141   9.022 -0.1206 -0.3178 -0.4786
  852MOL0     O14893   9.301   2.139   8.975  0.5002  0.1704 -0.3757
  852MOL0     C14894   9.373   2.262   9.000  0.0698 -0.4365 -0.0408
  852MOL0     C14895   9.502   2.255   8.926 -0.2246  0.3897  0.5378
  852MOL0     C14896   9.568   2.393   8.901 -0.2851 -0.5232  0.0909
  852MOL0     C14897   9.684   2.374   8.811 -0.4505 -0.1358 -0.6036
  852MOL0     C14898   9.786   2.483   8.793 -0.2069  0.3268 -0.0619
  852MOL0     C14899   9.869   2.461   8.660 -1.0487  0.1278 -0.7069
  852MOL0     C14900   9.962   2.575   8.634  0.5360 -0.5668  0.2064
  852MOL0     C14901  10.018   2.574   8.493  0.1023  0.0744 -0.4857
  852MOL0     N14902   9.925   2.610   8.381  0.0464  0.1956  0.4965
  852MOL0     C14903   9.812   2.678   8.398  0.2990  0.5525 -0.0920
  852MOL0     C14904   9.745   2.657   8.285 -0.2908 -0.0842  0.4762
  852MOL0     C14905   9.599   2.672   8.251 -0.7252  0.4215 -0.1111
  852MOL0     C14906   9.517   2.643   8.372  0.4097  0.4664  0.1275
  852MOL0     C14907   9.536   2.502   8.442 -0.0848  0.6949 -0.4727
  852MOL0     C14908   9.408   2.461   8.518  0.5403  0.0340 -0.3016
  852MOL0     O14909   9.371   2.560   8.615  0.0491  0.0026 -0.3429
  852MOL0     C14910   9.249   2.557   8.688 -0.3784  0.2161  0.9442
  852MOL0     C14911   9.185   2.685   8.718  0.2410  0.9638 -0.1841
  852MOL0     C14912   9.050   2.685   8.768 -1.0304  0.1003 -0.8172
  852MOL0     C14913   8.995   2.819   8.804 -0.3559  0.0141  0.7218
  852MOL0     C14914   8.990   2.558   8.804  0.2596 -0.3138  0.4275
  852MOL0     C14915   8.853   2.539   8.864 -0.4694 -0.4039  0.1241
  852MOL0     O14916   8.792   2.410   8.860 -0.0234  0.3000 -0.0652
  852MOL0     C14917   8.659   2.384   8.880  1.0322  0.4774 -0.1438
  852MOL0     C14918   8.553   2.479   8.898 -0.0333  0.6509 -0.9844
  852MOL0     C14919   8.423   2.443   8.925  0.8779 -0.6339  0.5527
  852MOL0     C14920   8.384   2.311   8.923 -0.6998 -0.3916  0.9591
  852MOL0     O14921   8.250   2.287   8.932 -0.5736 -0.6980  0.2626
  852MOL0     C14922   8.201   2.165   8.868 -0.0281  0.2934 -0.5798
  852MOL0     C14923   8.049   2.171   8.857  0.3381  0.1331 -0.6090
  852MOL0     C14924   7.975   2.064   8.783 -0.4863 -0.0140 -0.4779
  852MOL0     C14925   7.823   2.078   8.758 -0.3397 -0.6733 -0.8009
  852MOL0     C14926   7.796   2.015   8.627 -0.5241  0.6782 -0.0858
  852MOL0     C14927   7.652   1.989   8.598  1.0023  0.3223  1.3161
  852MOL0     C14928   7.569   1.920   8.702 -0.4648  0.2765 -0.7890
  852MOL0     C14929   7.448   1.836   8.640 -0.9649 -0.6019  0.4118
  852MOL0    Cl14930   7.292   1.915   8.631 -0.3194  0.4035 -0.0714
  852MOL0     C14931   8.483   2.220   8.890  0.9222 -0.1545  0.0998
  852MOL0     C14932   8.623   2.247   8.870 -0.1571 -0.2078 -0.5401
  852MOL0     O14933   8.810   2.636   8.929  0.3892 -0.3359 -0.1423
  852MOL0     C14934   9.058   2.437   8.782 -0.2762  0.0041  0.5345
  852MOL0     C14935   9.192   2.439   8.730 -0.1924  1.1500 -0.0319
  852MOL0     N14936   9.829   2.593   8.198 -0.3871  0.6668  0.0046
  852MOL0     N14937   9.950   2.576   8.251 -0.1513  0.1738 -0.8977
  852MOL0     C14938   9.103   2.257   9.075  0.0387  0.7182  0.3789
  852MOL0     C14939   8.969   2.249   9.109 -0.2624 -0.1230  0.4466
  852MOL0     C14940   8.596   2.143   9.311 -0.8054  0.4497 -0.3531
  852MOL0     C14941   8.543   2.264   9.265  0.8814 -0.4397 -0.2796
  852MOL0     C14942   8.416   2.308   9.305  0.0058 -0.5933  0.3363
  852MOL0     C14943   8.336   2.224   9.386  0.5225 -0.2196  0.3252
  852MOL0     O14944   8.207   2.256   9.426 -0.2474 -0.5456 -0.2005
  852MOL0     C14945   8.150   2.392   9.395 -0.4286  0.0468  0.4505
  852MOL0     C14946   8.108   2.415   9.250 -0.0596  0.1192 -0.1161
  852MOL0     C14947   7.997   2.315   9.224 -1.0023 -0.4944 -1.1677
  852MOL0     C14948   7.894   2.381   9.130  0.2191  0.3229  0.1438
  852MOL0     C14949   7.774   2.308   9.085  0.0967  0.0562 -0.7232
  852MOL0     C14950   7.673   2.274   9.032  0.6402 -0.6418  0.3845
  852MOL0     C14951   8.386   2.099   9.419 -0.8129  0.4783  0.1294
  852MOL0     C14952   8.516   2.058   9.384 -0.0434  0.6578  0.2072
  852MOL0     H14953   8.885   1.926   9.023  2.1069 -2.5575 -1.8546
  852MOL0     H14954   9.131   1.941   8.947 -0.3586  0.0872 -0.9687
  852MOL0     H14955   9.321   2.352   8.966  2.9333  1.2527 -0.2416
  852MOL0     H14956   9.402   2.285   9.102 -1.4753  1.9562 -0.0598
  852MOL0     H14957   9.563   2.187   8.987 -1.0346  1.1288  2.2213
  852MOL0     H14958   9.484   2.214   8.826  1.6242  1.9047 -0.4871
  852MOL0     H14959   9.503   2.457   8.841 -0.2355  1.2560  1.8462
  852MOL0     H14960   9.587   2.444   8.995 -0.3224  1.3431 -0.8598
  852MOL0     H14961   9.739   2.288   8.850  1.3585  0.6976 -1.1701
  852MOL0     H14962   9.632   2.347   8.718  0.5744  0.8167 -1.4880
  852MOL0     H14963   9.735   2.578   8.773 -3.0270 -0.8964  0.8723
  852MOL0     H14964   9.850   2.480   8.882  1.4998  0.8894 -1.2073
  852MOL0     H14965   9.930   2.370   8.660  0.2772  0.9810 -2.0521
  852MOL0     H14966   9.805   2.464   8.571  0.9952  1.5658 -2.2167
  852MOL0     H14967   9.924   2.676   8.653  2.1746  0.1331 -0.0261
  852MOL0     H14968  10.051   2.555   8.695 -0.3731 -0.0873  1.7284
  852MOL0     H14969  10.069   2.479   8.478  0.9142 -0.1801  3.0477
  852MOL0     H14970  10.089   2.657   8.486  1.0001 -0.2233  3.2709
  852MOL0     H14971   9.765   2.724   8.485  2.4558 -1.0783  2.0840
  852MOL0     H14972   9.585   2.773   8.211  1.7699  1.5016  1.4676
  852MOL0     H14973   9.563   2.605   8.172 -3.4500 -0.4675  1.7484
  852MOL0     H14974   9.413   2.652   8.338  0.2508 -0.8491  0.2152
  852MOL0     H14975   9.525   2.716   8.452  2.2733 -0.7573  1.1231
  852MOL0     H14976   9.623   2.501   8.507 -1.2068 -0.4404  1.0744
  852MOL0     H14977   9.550   2.427   8.363 -1.0934  2.6019 -2.5829
  852MOL0     H14978   9.415   2.365   8.572 -0.7471 -0.1588 -0.4439
  852MOL0     H14979   9.325   2.446   8.448  1.9981  1.4731 -2.4568
  852MOL0     H14980   9.234   2.779   8.695  0.3945  0.3496 -2.6799
  852MOL0     H14981   9.054   2.894   8.751  0.8284 -2.5984 -1.9347
  852MOL0     H14982   8.893   2.835   8.768 -0.8711  0.2893  2.2196
  852MOL0     H14983   9.000   2.822   8.913  1.0341  1.6780  0.6518
  852MOL0     H14984   8.573   2.585   8.901  4.5429 -0.0003 -0.5436
  852MOL0     H14985   8.339   2.512   8.928  1.2980  0.0863 -2.0170
  852MOL0     H14986   8.235   2.172   8.764 -3.2175  2.4408 -1.6326
  852MOL0     H14987   8.241   2.077   8.919 -2.0101  1.1328  2.7145
  852MOL0     H14988   8.010   2.180   8.959  0.1283 -2.1861 -0.4232
  852MOL0     H14989   8.036   2.268   8.809 -0.4810 -0.3044 -1.3036
  852MOL0     H14990   7.999   1.964   8.820 -0.0025  1.0333  2.1989
  852MOL0     H14991   8.024   2.053   8.685 -0.8888 -0.5333 -0.6198
  852MOL0     H14992   7.762   2.035   8.838  0.1909  1.2622  0.7008
  852MOL0     H14993   7.794   2.183   8.762  1.9933  0.1560 -2.8865
  852MOL0     H14994   7.856   1.925   8.611  1.4740  2.2546 -2.1252
  852MOL0     H14995   7.829   2.082   8.548  0.4684  1.8444  1.2654
  852MOL0     H14996   7.600   2.084   8.583  0.5025 -0.4740 -3.9035
  852MOL0     H14997   7.648   1.935   8.503  1.5495  3.1731 -0.4502
  852MOL0     H14998   7.532   2.002   8.765 -1.6165 -0.2876 -0.6968
  852MOL0     H14999   7.636   1.853   8.757 -3.0931 -1.6779  0.2535
  852MOL0     H15000   7.431   1.746   8.699  0.5283 -0.1835  1.5416
  852MOL0     H15001   7.474   1.814   8.536 -0.7123 -0.1244  0.3701
  852MOL0     H15002   8.461   2.114   8.896 -0.2958  0.0986  0.4176
  852MOL0     H15003   8.700   2.172   8.861 -0.8122 -0.7607 -1.6459
  852MOL0     H15004   9.018   2.341   8.812  1.3169 -0.2898  1.8601
  852MOL0     H15005   9.243   2.344   8.716 -2.4848 -0.3467  1.1292
  852MOL0     H15006   9.165   2.346   9.088  4.1970 -1.7023 -0.9208
  852MOL0     H15007   8.917   2.341   9.133  0.8044  0.4308  0.6536
  852MOL0     H15008   8.587   2.332   9.193 -0.2564 -1.3880 -1.9509
  852MOL0     H15009   8.380   2.408   9.282 -2.2636 -1.2632  0.7015
  852MOL0     H15010   8.064   2.401   9.463 -0.0045  3.1655  0.7077
  852MOL0     H15011   8.210   2.476   9.430 -0.5613  0.3907 -0.1323
  852MOL0     H15012   8.196   2.401   9.187 -0.1726 -1.2700 -0.0086
  852MOL0     H15013   8.085   2.521   9.235  0.8496  0.2229 -0.8554
  852MOL0     H15014   7.953   2.296   9.323  0.6751 -4.3156 -0.9739
  852MOL0     H15015   8.044   2.231   9.173  0.5082 -1.2605  1.2758
  852MOL0     H15016   7.944   2.417   9.040  3.0455  0.8418  1.8151
  852MOL0     H15017   7.847   2.464   9.184  0.3647  0.0976  0.6307
  852MOL0     H15018   7.604   2.224   8.968  0.4920  2.4504 -2.1176
  852MOL0     H15019   8.332   2.029   9.483  1.3197 -1.9730 -0.5597
  852MOL0     H15020   8.548   1.955   9.393 -0.3084  0.1544 -3.2400
  853MOL0     O15021   4.966   8.134   2.983  0.5580  0.1926  0.5709
  853MOL0     C15022   4.984   8.162   2.863 -0.5363 -0.4530  0.0084
  853MOL0     O15023   4.909   8.254   2.794  0.1530 -0.6463 -0.2956
  853MOL0     C15024   4.814   8.323   2.852  0.7616  0.1317  0.5171
  853MOL0     C15025   4.845   8.434   2.918  0.3108  0.4020  0.2540
  853MOL0     C15026   4.747   8.526   2.973  0.5441  0.5428 -0.2348
  853MOL0     C15027   4.605   8.490   2.965 -0.0994  0.1804 -0.2270
  853MOL0     O15028   4.505   8.573   3.022  0.1762 -0.6234 -0.2333
  853MOL0     C15029   4.367   8.546   3.002 -0.6407  0.1997 -0.1992
  853MOL0     C15030   4.275   8.649   3.064  0.3496  0.2305 -0.1324
  853MOL0     C15031   4.236   8.763   2.965  0.5109 -0.0982  0.6034
  853MOL0     C15032   4.130   8.863   3.026  0.3292 -0.0040  0.0107
  853MOL0     C15033   3.988   8.816   3.047 -0.0669 -0.2878 -0.1128
  853MOL0     C15034   3.897   8.928   3.116  0.8271 -0.0197 -0.4805
  853MOL0     C15035   3.757   8.871   3.158 -0.0767  0.6402 -0.6978
  853MOL0     C15036   3.662   8.964   3.234  0.2714 -0.3483  0.2658
  853MOL0     N15037   3.541   8.887   3.278  0.2734 -0.3738 -0.1097
  853MOL0     C15038   3.409   8.925   3.256  0.4301 -0.4532 -0.1868
  853MOL0     C15039   3.336   8.826   3.323  1.0292  1.0163  0.8084
  853MOL0     C15040   3.184   8.822   3.335 -0.8092 -0.0744 -0.0100
  853MOL0     C15041   3.136   8.922   3.451 -0.6456  0.8176  0.4787
  853MOL0     C15042   2.989   8.926   3.481 -0.1619  0.3885  0.2670
  853MOL0     C15043   2.895   8.806   3.451  0.1395 -0.4222 -0.7396
  853MOL0     O15044   2.866   8.808   3.312 -0.7014  0.4269  0.2944
  853MOL0     C15045   2.750   8.853   3.265  1.1177 -0.0243  0.3584
  853MOL0     C15046   2.702   8.791   3.157  0.2445  0.9014 -0.5049
  853MOL0     C15047   2.570   8.815   3.112  0.0432  0.7579 -0.4633
  853MOL0     C15048   2.524   8.723   3.003  0.7950 -0.4298 -0.1455
  853MOL0     C15049   2.486   8.914   3.182 -0.1551 -0.3376 -0.5478
  853MOL0     C15050   2.350   8.944   3.145 -0.0226 -0.2152  0.4652
  853MOL0     O15051   2.292   9.063   3.201 -0.0016 -0.1683  0.0079
  853MOL0     C15052   2.152   9.086   3.178 -0.3070  0.3521  1.0487
  853MOL0     C15053   2.061   8.982   3.206 -0.0274  0.1215  0.0147
  853MOL0     C15054   1.920   9.009   3.187 -0.5820 -0.3252 -1.1054
  853MOL0     C15055   1.878   9.122   3.121  0.0927  0.5219  0.3557
  853MOL0     O15056   1.744   9.141   3.084 -0.5629 -0.2247 -0.2396
  853MOL0     C15057   1.636   9.063   3.134 -0.0414 -1.5471 -0.7899
  853MOL0     C15058   1.591   9.121   3.265  0.3091 -0.4410  0.4986
  853MOL0     C15059   1.463   9.048   3.325  0.1785 -0.2396  0.7256
  853MOL0     C15060   1.334   9.055   3.234  0.3155  0.1595 -0.6884
  853MOL0     C15061   1.208   9.126   3.302 -0.1876 -0.5155 -0.0422
  853MOL0     C15062   1.086   9.103   3.212  0.2046  0.8744 -0.6676
  853MOL0     C15063   1.075   9.186   3.080  0.3066 -0.5144  1.1577
  853MOL0     C15064   0.923   9.200   3.027 -0.6098  1.1113 -0.0596
  853MOL0    Cl15065   0.849   9.038   3.009  0.6256  0.0228 -0.2144
  853MOL0     C15066   1.972   9.217   3.085 -0.6852  0.0454  0.5145
  853MOL0     C15067   2.109   9.200   3.118  0.0033  0.2908  0.3569
  853MOL0     O15068   2.291   8.863   3.072 -0.4926 -0.3292  0.7407
  853MOL0     C15069   2.544   8.991   3.287 -0.6975 -1.4532  0.7138
  853MOL0     C15070   2.675   8.956   3.319 -1.1949 -0.7424 -0.3227
  853MOL0     N15071   3.423   8.730   3.373 -0.1458  0.3792 -0.5837
  853MOL0     N15072   3.544   8.765   3.337 -0.1500 -0.5477  0.4043
  853MOL0     C15073   4.579   8.369   2.897  0.0984 -0.2810 -0.0805
  853MOL0     C15074   4.679   8.287   2.838 -0.6345 -0.6886 -0.0880
  853MOL0     C15075   5.071   8.070   2.789 -0.8378 -0.7909  0.5470
  853MOL0     C15076   5.137   7.965   2.855 -0.6220  0.7624 -0.2669
  853MOL0     C15077   5.224   7.884   2.778  0.2887 -0.2707  0.0265
  853MOL0     C15078   5.224   7.890   2.639 -0.3186  0.2190 -0.1608
  853MOL0     O15079   5.287   7.794   2.568  0.2644  0.1934  0.1024
  853MOL0     C15080   5.304   7.659   2.624 -0.5000  0.1541  0.7065
  853MOL0     C15081   5.380   7.579   2.526  0.3595  0.4130 -0.3473
  853MOL0     C15082   5.310   7.559   2.391  0.1887 -0.1364  0.3858
  853MOL0     C15083   5.372   7.472   2.293 -0.2056 -1.3903  0.3033
  853MOL0     C15084   5.384   7.333   2.338  0.6703  1.1957 -0.0981
  853MOL0     C15085   5.397   7.213   2.358  0.8331 -1.5464  0.3708
  853MOL0     C15086   5.155   7.996   2.577  0.7090  0.5053 -0.1186
  853MOL0     C15087   5.082   8.081   2.652  0.5685  1.1998  0.3448
  853MOL0     H15088   4.949   8.461   2.928 -0.0550  1.8607  0.2577
  853MOL0     H15089   4.788   8.607   3.032 -0.0887  0.1633  0.7678
  853MOL0     H15090   4.345   8.529   2.896 -1.8340 -0.9350  0.2100
  853MOL0     H15091   4.350   8.446   3.044 -0.1768  1.3821  3.1361
  853MOL0     H15092   4.184   8.599   3.099  0.9601 -1.2113 -0.5372
  853MOL0     H15093   4.329   8.686   3.152 -1.5768  1.8868  0.4093
  853MOL0     H15094   4.319   8.832   2.949 -0.2073  0.8069  0.7068
  853MOL0     H15095   4.209   8.718   2.869 -1.5745 -0.0405  1.1256
  853MOL0     H15096   4.172   8.908   3.116 -0.4028  2.4397 -0.8118
  853MOL0     H15097   4.113   8.945   2.957 -0.0435  0.8787  1.1196
  853MOL0     H15098   3.940   8.786   2.953 -0.5912 -0.7896  0.3057
  853MOL0     H15099   3.990   8.723   3.104  1.8890 -1.6067 -2.1874
  853MOL0     H15100   3.946   8.954   3.210  0.3735  2.7096 -0.9296
  853MOL0     H15101   3.870   9.009   3.048 -0.4678 -2.7117 -3.4635
  853MOL0     H15102   3.697   8.827   3.078  3.0034 -2.8474 -1.4108
  853MOL0     H15103   3.776   8.782   3.220  0.3828  0.7532 -0.6728
  853MOL0     H15104   3.632   9.061   3.192 -1.8405  0.0381  2.3938
  853MOL0     H15105   3.713   8.999   3.324 -0.4671  2.1137 -0.1919
  853MOL0     H15106   3.380   9.010   3.195 -1.5596 -1.0273 -0.0942
  853MOL0     H15107   3.145   8.858   3.240  1.6854  0.5035 -0.8975
  853MOL0     H15108   3.144   8.720   3.341 -0.7030 -0.0842  0.6659
  853MOL0     H15109   3.157   9.025   3.422 -1.4616  1.5673  2.4466
  853MOL0     H15110   3.196   8.904   3.540  0.8192  1.5140 -0.3209
  853MOL0     H15111   2.954   9.009   3.418  0.1398  0.7846  0.6129
  853MOL0     H15112   2.962   8.962   3.581  1.8451 -0.4902  1.1684
  853MOL0     H15113   2.802   8.818   3.507  0.5131  1.3983 -0.4159
  853MOL0     H15114   2.941   8.711   3.478 -1.6390 -0.9280  0.6626
  853MOL0     H15115   2.761   8.712   3.113 -3.1403 -0.8027 -2.4521
  853MOL0     H15116   2.505   8.779   2.911  0.9229 -0.7151 -0.3485
  853MOL0     H15117   2.604   8.650   2.983 -0.6268 -2.4315  1.1117
  853MOL0     H15118   2.430   8.671   3.025 -0.5263  2.0085  0.2795
  853MOL0     H15119   2.089   8.883   3.240 -0.4897  0.3407  1.0969
  853MOL0     H15120   1.852   8.927   3.209  1.0735 -1.2306  0.9908
  853MOL0     H15121   1.563   9.056   3.053  0.9744 -0.8655 -1.7940
  853MOL0     H15122   1.664   8.960   3.156 -2.4840 -1.7690  1.8482
  853MOL0     H15123   1.676   9.118   3.333 -0.0328 -1.4475  0.8907
  853MOL0     H15124   1.563   9.226   3.252  0.2451 -0.5063  0.0998
  853MOL0     H15125   1.444   9.100   3.419  2.4925 -0.5633  1.4236
  853MOL0     H15126   1.503   8.950   3.350  3.1930  0.1870 -1.7299
  853MOL0     H15127   1.347   9.112   3.141 -3.4566  1.7517 -0.4025
  853MOL0     H15128   1.310   8.951   3.210  0.8844 -0.0945 -0.1749
  853MOL0     H15129   1.222   9.234   3.301 -1.0011 -0.3819 -2.1136
  853MOL0     H15130   1.188   9.095   3.405  1.4901  2.1788  1.2097
  853MOL0     H15131   1.063   8.997   3.194  0.3535  0.9060 -1.0593
  853MOL0     H15132   1.000   9.126   3.275  2.0147 -0.4696  2.5260
  853MOL0     H15133   1.126   9.147   2.991 -1.4626  1.1585 -0.7023
  853MOL0     H15134   1.126   9.282   3.091 -1.2664  0.4317  0.5407
  853MOL0     H15135   0.914   9.263   2.937 -2.1705 -1.2017 -1.6250
  853MOL0     H15136   0.868   9.254   3.104 -3.8007 -0.3957 -1.1125
  853MOL0     H15137   1.929   9.300   3.031 -0.8315 -1.4556 -1.8150
  853MOL0     H15138   2.179   9.273   3.079  0.0585 -0.0743 -0.2318
  853MOL0     H15139   2.485   9.067   3.337  1.7492  0.1232  1.3840
  853MOL0     H15140   2.710   8.990   3.416 -1.3476 -1.1056 -0.1396
  853MOL0     H15141   4.478   8.329   2.895 -0.5012  1.1624 -0.6479
  853MOL0     H15142   4.660   8.196   2.782 -2.3565  0.3526 -1.3204
  853MOL0     H15143   5.151   7.965   2.963  1.6148 -0.0895 -0.4973
  853MOL0     H15144   5.285   7.811   2.830  1.6127 -0.7392 -2.0686
  853MOL0     H15145   5.352   7.647   2.722  0.6524  3.0206  0.5867
  853MOL0     H15146   5.205   7.613   2.633 -0.0089 -1.3872 -1.1903
  853MOL0     H15147   5.399   7.479   2.567  2.2797  0.9699  0.2123
  853MOL0     H15148   5.480   7.624   2.520  0.3462  0.3305 -1.3127
  853MOL0     H15149   5.307   7.657   2.343  2.8873  0.2986  0.9587
  853MOL0     H15150   5.211   7.517   2.409 -0.0075  0.4040  0.6099
  853MOL0     H15151   5.471   7.510   2.270 -1.3253 -0.2317 -3.2204
  853MOL0     H15152   5.312   7.459   2.202  1.1279 -1.2415 -0.6167
  853MOL0     H15153   5.416   7.112   2.389  2.4797 -0.7666  2.1158
  853MOL0     H15154   5.141   7.995   2.469 -2.4204 -1.4924  0.1670
  853MOL0     H15155   5.026   8.162   2.606 -0.7296 -1.0120 -2.2176
  854MOL0     O15156  10.421   4.381   8.527  0.1933 -0.1866 -0.3833
  854MOL0     C15157  10.364   4.411   8.636  0.4567 -0.6436  0.4712
  854MOL0     O15158  10.383   4.345   8.757 -1.0558 -0.4495 -1.2214
  854MOL0     C15159  10.486   4.256   8.764  0.5933 -0.1232  0.5701
  854MOL0     C15160  10.457   4.118   8.753 -1.2211  0.0609  0.4017
  854MOL0     C15161  10.562   4.025   8.744  0.1559  0.9164  0.3042
  854MOL0     C15162  10.698   4.064   8.739 -0.1118  0.9682  0.4909
  854MOL0     O15163  10.792   3.971   8.710  0.8270  0.3041  1.2190
  854MOL0     C15164  10.850   3.891   8.808 -0.9636  0.0008 -0.0076
  854MOL0     C15165  10.923   3.769   8.737  0.5331 -0.1303 -0.5456
  854MOL0     C15166  10.970   3.680   8.855  0.1241 -1.0407  0.6327
  854MOL0     C15167  11.031   3.552   8.790  0.1231 -0.6356  0.2652
  854MOL0     C15168  10.930   3.440   8.778 -0.1564  0.0596  0.6614
  854MOL0     C15169  10.868   3.391   8.921 -0.7877 -1.2414 -0.2411
  854MOL0     C15170  10.931   3.262   8.980  0.4239 -0.9929 -0.5962
  854MOL0     C15171  11.072   3.300   9.035  0.5645 -0.6318 -0.0291
  854MOL0     N15172  11.142   3.208   9.137 -0.1481  0.1917  0.3918
  854MOL0     C15173  11.277   3.173   9.132 -0.2457  0.7344  0.1933
  854MOL0     C15174  11.297   3.092   9.241  0.0582 -0.5228 -0.7322
  854MOL0     C15175  11.422   3.024   9.275 -0.1918 -0.6927 -0.5964
  854MOL0     C15176  11.528   3.109   9.338 -0.6423  0.9273 -0.2946
  854MOL0     C15177  11.486   3.197   9.453 -1.0153 -0.1799 -1.1162
  854MOL0     C15178  11.457   3.133   9.585 -0.3713  0.1391  0.4407
  854MOL0     O15179  11.424   3.230   9.683 -0.0777 -0.7346  0.5714
  854MOL0     C15180  11.298   3.277   9.715  0.2785 -0.0716  0.5304
  854MOL0     C15181  11.182   3.229   9.660  0.0937 -0.9332  0.2725
  854MOL0     C15182  11.061   3.279   9.705 -0.6954 -0.1486  0.4873
  854MOL0     C15183  10.936   3.227   9.636  0.2693 -0.7204  0.3552
  854MOL0     C15184  11.052   3.380   9.810 -0.0421 -0.2807 -0.1156
  854MOL0     C15185  10.920   3.411   9.883 -1.1250 -0.0152 -0.1153
  854MOL0     O15186  10.921   3.528   9.960 -0.0911  0.1100 -0.5579
  854MOL0     C15187  10.801   3.554  10.016  0.0869  0.5717  0.7460
  854MOL0     C15188  10.771   3.507  10.138  0.6339  0.6211 -0.4134
  854MOL0     C15189  10.650   3.536  10.198 -0.5109  0.0736 -0.2826
  854MOL0     C15190  10.557   3.622  10.141  0.7485 -0.0306  0.2052
  854MOL0     O15191  10.429   3.655  10.190  0.2243  0.7786 -0.3226
  854MOL0     C15192  10.393   3.597  10.317  0.1036 -0.5052 -0.6889
  854MOL0     C15193  10.236   3.616  10.343 -0.4073 -0.3007  0.6060
  854MOL0     C15194  10.193   3.756  10.379  0.5548 -0.1742  0.8591
  854MOL0     C15195  10.044   3.761  10.418 -0.2146  0.4234 -0.6564
  854MOL0     C15196   9.986   3.899  10.422 -0.1700 -0.1593 -0.4173
  854MOL0     C15197   9.831   3.892  10.437  0.5641 -0.6088 -0.1445
  854MOL0     C15198   9.791   3.859  10.582 -0.5019  0.8860  0.8118
  854MOL0     C15199   9.643   3.881  10.588 -0.2720 -0.0545 -0.2904
  854MOL0    Cl15200   9.582   3.820  10.743  0.2004 -0.2093  0.1276
  854MOL0     C15201  10.590   3.681  10.027 -0.8136 -0.4374 -0.1296
  854MOL0     C15202  10.708   3.644   9.958  0.8208 -0.0789  0.0455
  854MOL0     O15203  10.819   3.347   9.861  0.6827  0.1340 -1.4275
  854MOL0     C15204  11.173   3.438   9.854 -0.2016 -0.4660 -0.0921
  854MOL0     C15205  11.296   3.375   9.816  0.0754 -0.6729  0.9636
  854MOL0     N15206  11.178   3.081   9.305  0.4578  0.5752  0.2117
  854MOL0     N15207  11.088   3.148   9.248 -0.1814 -0.0080 -0.4151
  854MOL0     C15208  10.726   4.198   8.758 -0.8241 -0.2184 -0.4079
  854MOL0     C15209  10.628   4.294   8.769 -0.5634 -0.8060 -0.7561
  854MOL0     C15210  10.280   4.533   8.632  0.3595  0.0068  0.1351
  854MOL0     C15211  10.226   4.577   8.513 -0.4805 -0.6760 -0.1494
  854MOL0     C15212  10.156   4.696   8.523  0.7137 -0.2082 -1.0148
  854MOL0     C15213  10.127   4.769   8.639 -1.0860 -0.1683 -0.2808
  854MOL0     O15214  10.062   4.889   8.640 -0.1093 -0.5191  0.6744
  854MOL0     C15215  10.017   4.955   8.513  0.8660 -0.2054  0.9087
  854MOL0     C15216   9.967   5.101   8.530  0.1820 -0.4042 -0.2763
  854MOL0     C15217   9.850   5.121   8.636  0.1129  0.1311 -0.7059
  854MOL0     C15218   9.720   5.056   8.595 -1.0065  0.2455  0.0629
  854MOL0     C15219   9.643   5.033   8.720  0.1558  0.9215 -0.4702
  854MOL0     C15220   9.584   5.032   8.834 -1.3434 -0.1728  0.1087
  854MOL0     C15221  10.173   4.717   8.759 -0.1879  0.5263 -0.1281
  854MOL0     C15222  10.257   4.598   8.754 -0.3424 -0.2647 -0.0186
  854MOL0     H15223  10.351   4.100   8.736 -0.9038  0.9564 -3.6598
  854MOL0     H15224  10.530   3.922   8.730  0.5772  0.6632  1.1522
  854MOL0     H15225  10.926   3.950   8.860  0.4354 -0.6189 -1.2837
  854MOL0     H15226  10.772   3.859   8.878 -0.7628  1.2141  0.7983
  854MOL0     H15227  10.855   3.708   8.677 -0.1842  0.9192 -0.8185
  854MOL0     H15228  11.006   3.806   8.677 -1.2393 -0.0715 -3.0940
  854MOL0     H15229  11.050   3.729   8.910 -1.9645  0.4504  2.5318
  854MOL0     H15230  10.889   3.662   8.926  0.7764 -1.0950  1.3646
  854MOL0     H15231  11.082   3.557   8.693  1.4152 -1.1538  0.8921
  854MOL0     H15232  11.107   3.523   8.864 -0.1681 -1.3476  0.2941
  854MOL0     H15233  10.852   3.463   8.705  1.6103 -0.6968 -1.5724
  854MOL0     H15234  10.980   3.348   8.747 -4.0055 -1.5485 -1.4480
  854MOL0     H15235  10.878   3.466   8.999  0.8121 -2.9841  1.3216
  854MOL0     H15236  10.759   3.392   8.908 -0.8082  2.7634 -0.9343
  854MOL0     H15237  10.869   3.228   9.063  0.6706 -1.2630 -0.5213
  854MOL0     H15238  10.935   3.182   8.906  1.3481 -3.3028  1.7856
  854MOL0     H15239  11.081   3.402   9.073  0.5767  0.0545 -1.7713
  854MOL0     H15240  11.131   3.297   8.943 -0.5316  2.7449 -0.9602
  854MOL0     H15241  11.336   3.209   9.048 -0.8431  0.1684 -0.4828
  854MOL0     H15242  11.396   2.947   9.348 -0.8526 -3.5450 -3.5685
  854MOL0     H15243  11.458   2.966   9.189  2.0533  1.6075 -1.3269
  854MOL0     H15244  11.566   3.162   9.251 -1.4753 -1.5432 -2.2969
  854MOL0     H15245  11.605   3.038   9.370 -0.2841  2.6194  3.0133
  854MOL0     H15246  11.404   3.264   9.426 -1.4782 -0.9289 -1.6184
  854MOL0     H15247  11.574   3.260   9.467  1.4388 -3.4689 -0.4900
  854MOL0     H15248  11.546   3.080   9.621 -1.2191 -1.4470  0.2712
  854MOL0     H15249  11.385   3.051   9.586 -0.6897  0.4057 -0.2615
  854MOL0     H15250  11.175   3.149   9.586 -5.3956 -0.5919  0.0257
  854MOL0     H15251  10.948   3.172   9.542 -1.6602  1.5340 -1.3344
  854MOL0     H15252  10.877   3.173   9.710 -1.4625 -0.9042 -1.1007
  854MOL0     H15253  10.864   3.303   9.605 -0.7924 -2.0294 -0.4957
  854MOL0     H15254  10.828   3.431  10.190 -0.9924 -0.2140  0.2168
  854MOL0     H15255  10.632   3.476  10.287 -2.2656 -0.1359 -0.7256
  854MOL0     H15256  10.411   3.489  10.323 -3.4599 -1.1318  2.1125
  854MOL0     H15257  10.445   3.658  10.393  1.1311  2.8156 -3.7886
  854MOL0     H15258  10.186   3.593  10.248  2.7154  1.0792 -1.5818
  854MOL0     H15259  10.211   3.554  10.429  0.5245 -1.2776  0.1964
  854MOL0     H15260  10.216   3.821  10.294 -0.7267 -0.0831  0.5581
  854MOL0     H15261  10.245   3.808  10.460  1.2080  1.5717 -0.6150
  854MOL0     H15262   9.993   3.711  10.336 -1.0618  4.5836 -2.9732
  854MOL0     H15263  10.022   3.715  10.515  0.6448 -0.7338 -0.9884
  854MOL0     H15264  10.010   3.937  10.322  0.1320  2.3165  0.5400
  854MOL0     H15265  10.038   3.963  10.493 -0.5558 -0.3541  0.0451
  854MOL0     H15266   9.790   3.986  10.401 -0.6296 -1.3543 -0.7814
  854MOL0     H15267   9.810   3.817  10.361  1.7562  0.0924 -1.2013
  854MOL0     H15268   9.833   3.925  10.659 -0.2333 -0.0918  1.5248
  854MOL0     H15269   9.802   3.751  10.595  1.0846  1.2954  3.8696
  854MOL0     H15270   9.592   3.835  10.502  1.8041 -2.2014 -0.4938
  854MOL0     H15271   9.630   3.989  10.585  0.7978  0.1319  1.0856
  854MOL0     H15272  10.521   3.747   9.975 -0.8315  0.2454  0.7331
  854MOL0     H15273  10.744   3.677   9.861  0.0421 -2.5447 -1.1553
  854MOL0     H15274  11.183   3.520   9.925  0.7756  0.3397 -1.1157
  854MOL0     H15275  11.385   3.415   9.862  0.3066 -1.2096  0.9824
  854MOL0     H15276  10.827   4.238   8.751 -1.9607  3.0907  0.1037
  854MOL0     H15277  10.638   4.402   8.777  0.2595 -1.0044  4.4819
  854MOL0     H15278  10.250   4.525   8.421  1.0704 -0.2569 -0.0149
  854MOL0     H15279  10.107   4.722   8.430 -3.1826  1.6006  1.2798
  854MOL0     H15280  10.102   4.960   8.445 -0.6640  1.2352 -0.9963
  854MOL0     H15281   9.930   4.902   8.474 -0.2119  2.0975  0.0334
  854MOL0     H15282   9.928   5.153   8.442  1.9926  3.3350  0.9224
  854MOL0     H15283  10.054   5.157   8.566 -1.1922  1.3244  0.5069
  854MOL0     H15284   9.839   5.227   8.660 -0.2395  0.0420 -0.4754
  854MOL0     H15285   9.881   5.088   8.735  1.0744  2.9808  0.0461
  854MOL0     H15286   9.739   4.965   8.536  0.2498 -0.2446  1.1935
  854MOL0     H15287   9.669   5.133   8.536  0.0286  0.3277 -0.7462
  854MOL0     H15288   9.533   5.038   8.927 -0.0038  0.7678  0.8210
  854MOL0     H15289  10.161   4.774   8.851  1.3366  0.3253  0.2253
  854MOL0     H15290  10.299   4.551   8.842 -1.8316 -3.0880 -0.6877
  855MOL0     O15291   1.728   1.433   4.869 -0.6227  0.0762  0.5038
  855MOL0     C15292   1.688   1.453   4.981 -0.1571 -0.3647  0.3881
  855MOL0     O15293   1.567   1.498   5.010 -0.1262 -0.3809  0.3115
  855MOL0     C15294   1.478   1.543   4.912  0.5866 -0.8192  0.0670
  855MOL0     C15295   1.403   1.447   4.841 -0.1633 -1.0888  0.6856
  855MOL0     C15296   1.302   1.484   4.750  0.0131  0.6662 -0.6886
  855MOL0     C15297   1.266   1.623   4.746 -0.0117  0.0201 -0.0316
  855MOL0     O15298   1.162   1.658   4.654 -0.5360  0.0139 -0.3685
  855MOL0     C15299   1.153   1.793   4.611  0.0539 -0.1192 -0.4264
  855MOL0     C15300   1.068   1.800   4.480 -0.1513 -0.6961 -0.0779
  855MOL0     C15301   1.112   1.917   4.396  0.2746  0.6179 -1.1540
  855MOL0     C15302   1.059   1.915   4.252 -0.7771 -0.4174 -1.3661
  855MOL0     C15303   1.089   2.055   4.187 -0.4037  0.7746  0.5691
  855MOL0     C15304   1.237   2.088   4.145 -0.0713  0.0200  0.2026
  855MOL0     C15305   1.264   2.231   4.094 -0.6544 -0.2210 -0.2635
  855MOL0     C15306   1.226   2.335   4.195 -0.2545 -0.2741 -0.8345
  855MOL0     N15307   1.286   2.290   4.326 -0.4942  0.1227  0.5875
  855MOL0     C15308   1.214   2.230   4.431 -0.4093  0.6985 -0.1808
  855MOL0     C15309   1.312   2.198   4.521 -0.5198  0.4467  0.4446
  855MOL0     C15310   1.300   2.146   4.663  0.1346 -0.7380  0.2280
  855MOL0     C15311   1.346   2.251   4.772  0.5282  0.2294  0.5441
  855MOL0     C15312   1.436   2.193   4.879 -0.2511 -0.1971 -0.1879
  855MOL0     C15313   1.509   2.305   4.962 -0.8254 -0.8682 -0.1166
  855MOL0     O15314   1.599   2.387   4.879 -0.5524  0.0526 -0.3597
  855MOL0     C15315   1.712   2.333   4.825  0.2592  0.0162  1.0601
  855MOL0     C15316   1.808   2.272   4.911 -0.4566 -0.2372 -0.0677
  855MOL0     C15317   1.935   2.234   4.863 -0.6328 -0.0204  0.3176
  855MOL0     C15318   2.037   2.190   4.971 -0.8449  0.6711 -0.2507
  855MOL0     C15319   1.962   2.248   4.723  0.2409 -0.3519 -0.1856
  855MOL0     C15320   2.097   2.224   4.670 -0.0633 -0.4593  1.1412
  855MOL0     O15321   2.144   2.100   4.676  0.0073 -0.3469 -0.2071
  855MOL0     C15322   2.282   2.072   4.661  0.4970 -0.3337  0.1496
  855MOL0     C15323   2.365   2.073   4.775  0.3673  0.4443  0.0501
  855MOL0     C15324   2.500   2.047   4.773 -0.0617  0.0015 -0.0108
  855MOL0     C15325   2.557   2.007   4.653 -0.1972  0.3152 -0.2970
  855MOL0     O15326   2.684   1.956   4.648  0.4352  0.4142  0.5973
  855MOL0     C15327   2.686   1.815   4.656 -0.2805  0.0092  0.1697
  855MOL0     C15328   2.828   1.752   4.646 -0.1738 -1.1777 -0.4218
  855MOL0     C15329   2.907   1.805   4.531 -0.7070  0.6935  0.9517
  855MOL0     C15330   3.029   1.718   4.501 -0.1969  0.0043  0.7974
  855MOL0     C15331   3.118   1.789   4.396  0.0709 -0.3069  0.1225
  855MOL0     C15332   3.055   1.783   4.255 -1.1687 -0.4071 -0.1756
  855MOL0     C15333   3.169   1.820   4.144  1.0597  0.0101 -0.6863
  855MOL0     C15334   3.287   1.731   4.143  0.1506  0.7376 -0.0666
  855MOL0    Cl15335   3.218   1.594   4.048  0.0947 -0.1430 -0.5077
  855MOL0     C15336   2.477   2.013   4.537 -1.2939 -0.7205 -0.0613
  855MOL0     C15337   2.335   2.036   4.542  0.2546  0.6484  0.5111
  855MOL0     O15338   2.160   2.324   4.619  0.2313  0.4292  0.2655
  855MOL0     C15339   1.855   2.280   4.646 -0.2566  1.0856  0.9004
  855MOL0     C15340   1.729   2.322   4.689 -0.5269  1.0292  0.5860
  855MOL0     N15341   1.434   2.238   4.470 -0.7981 -0.7663  0.5730
  855MOL0     N15342   1.418   2.296   4.361  0.3733 -0.8691  0.2249
  855MOL0     C15343   1.337   1.717   4.817 -0.1455 -0.4807  0.1238
  855MOL0     C15344   1.442   1.678   4.899  0.8687  0.9967 -0.4129
  855MOL0     C15345   1.779   1.401   5.092  0.3366  0.8114 -0.2226
  855MOL0     C15346   1.910   1.396   5.072  0.4103  0.1310  0.3780
  855MOL0     C15347   2.007   1.344   5.161  0.2214  0.1108 -0.4775
  855MOL0     C15348   1.949   1.297   5.289 -0.3649  0.5967  0.1473
  855MOL0     O15349   2.014   1.256   5.402  0.4777 -0.1776  0.1840
  855MOL0     C15350   2.124   1.165   5.381 -0.4352  0.2424 -1.0023
  855MOL0     C15351   2.218   1.154   5.507  0.2196 -0.2911 -0.1509
  855MOL0     C15352   2.312   1.265   5.505 -0.1293  0.1451  0.3822
  855MOL0     C15353   2.419   1.269   5.614  0.4349  0.6371  0.5144
  855MOL0     C15354   2.488   1.145   5.640  0.0603 -0.7727 -0.0253
  855MOL0     C15355   2.567   1.058   5.663  0.5204  0.4558 -0.0880
  855MOL0     C15356   1.817   1.295   5.307 -1.3590  0.2556  0.9005
  855MOL0     C15357   1.727   1.353   5.217 -1.0022 -0.0211  0.6284
  855MOL0     H15358   1.424   1.341   4.844 -0.1039 -1.0866  0.3980
  855MOL0     H15359   1.237   1.413   4.702 -1.8756  1.1854  0.9751
  855MOL0     H15360   1.115   1.865   4.683 -2.2427 -0.9682 -0.6947
  855MOL0     H15361   1.252   1.827   4.577 -1.5073  4.6921 -0.9016
  855MOL0     H15362   1.079   1.711   4.418 -0.5880  0.8118 -2.4454
  855MOL0     H15363   0.966   1.823   4.515 -0.4337  0.5946 -1.6452
  855MOL0     H15364   1.087   2.009   4.450  1.3713 -1.0382  2.5090
  855MOL0     H15365   1.222   1.915   4.394  0.7044  4.4337  3.2906
  855MOL0     H15366   1.128   1.845   4.204 -0.6912 -1.7145  0.5152
  855MOL0     H15367   0.952   1.893   4.253 -0.6530 -1.3672  1.8120
  855MOL0     H15368   1.028   2.051   4.097 -1.2631 -3.6981  1.1205
  855MOL0     H15369   1.046   2.127   4.257  1.4447  1.1684  1.3712
  855MOL0     H15370   1.303   2.054   4.225 -2.7283 -3.8074  1.0185
  855MOL0     H15371   1.272   2.026   4.062  0.4148 -1.7809  1.6844
  855MOL0     H15372   1.372   2.238   4.082 -0.4338 -0.8719  1.1900
  855MOL0     H15373   1.211   2.261   4.003 -0.0191 -1.7006 -1.1581
  855MOL0     H15374   1.118   2.340   4.215  0.0246 -1.5302  1.2722
  855MOL0     H15375   1.266   2.429   4.156  0.6807 -0.7096 -0.9489
  855MOL0     H15376   1.107   2.212   4.441 -0.2214  0.4036  1.8930
  855MOL0     H15377   1.193   2.132   4.682 -0.1007  1.3634  0.6985
  855MOL0     H15378   1.369   2.061   4.654  2.2870  0.9423  0.1468
  855MOL0     H15379   1.261   2.296   4.824  1.5066  2.1148  0.5999
  855MOL0     H15380   1.396   2.334   4.720  0.9421 -0.5809 -0.3781
  855MOL0     H15381   1.498   2.124   4.822 -1.0583 -1.8085  0.8234
  855MOL0     H15382   1.377   2.131   4.947 -1.8070 -0.9060 -2.0902
  855MOL0     H15383   1.567   2.264   5.045  2.9161  2.7587 -0.6085
  855MOL0     H15384   1.441   2.368   5.019  2.0997  1.3996  1.1495
  855MOL0     H15385   1.790   2.289   5.016  1.8454  2.7883 -0.0048
  855MOL0     H15386   2.056   2.083   4.965 -0.1960  0.6111  1.9646
  855MOL0     H15387   2.134   2.238   4.957 -0.6225 -0.4593 -3.2997
  855MOL0     H15388   1.989   2.204   5.068  0.6909 -0.3775  0.7060
  855MOL0     H15389   2.333   2.084   4.878 -0.1697 -1.6264  0.1444
  855MOL0     H15390   2.553   2.060   4.867  1.3625 -2.2213 -0.4266
  855MOL0     H15391   2.626   1.780   4.740  0.0121  2.6585  1.5889
  855MOL0     H15392   2.633   1.772   4.570  0.4015 -0.6628  0.0707
  855MOL0     H15393   2.881   1.768   4.740  0.4421 -3.4556 -0.3189
  855MOL0     H15394   2.806   1.645   4.642 -0.0312 -1.3634  2.2612
  855MOL0     H15395   2.949   1.905   4.548  2.9743 -0.7099  1.0468
  855MOL0     H15396   2.843   1.818   4.444  1.8376  0.1773 -1.1103
  855MOL0     H15397   3.085   1.717   4.594  1.3675  3.8614  0.0997
  855MOL0     H15398   2.997   1.623   4.455 -0.7103  0.1000  0.9608
  855MOL0     H15399   3.212   1.733   4.398 -0.8375 -1.9487 -0.7984
  855MOL0     H15400   3.132   1.893   4.427  0.0193  0.4308 -2.1386
  855MOL0     H15401   3.035   1.677   4.237  2.1323 -1.4513  1.4087
  855MOL0     H15402   2.965   1.844   4.250 -0.4905  0.6260  0.0241
  855MOL0     H15403   3.196   1.921   4.176  0.3715  0.7716 -2.4212
  855MOL0     H15404   3.133   1.829   4.041 -1.4128  1.6197  0.2122
  855MOL0     H15405   3.315   1.694   4.243  2.3955  3.0110  0.2330
  855MOL0     H15406   3.376   1.778   4.100  2.3896 -2.4603  0.6489
  855MOL0     H15407   2.520   1.980   4.442 -1.0494 -0.2110 -0.1306
  855MOL0     H15408   2.282   2.035   4.447  2.8975  0.3445 -1.0611
  855MOL0     H15409   1.889   2.277   4.543  0.4262  1.9403  1.0895
  855MOL0     H15410   1.648   2.332   4.617  0.4149  0.3352 -0.6276
  855MOL0     H15411   1.308   1.820   4.831 -3.1181 -1.2238  0.1268
  855MOL0     H15412   1.487   1.763   4.949 -1.2853  3.0673 -1.7752
  855MOL0     H15413   1.956   1.433   4.980  0.7148  2.0199  1.2477
  855MOL0     H15414   2.112   1.350   5.136  0.4465  2.8755  0.7987
  855MOL0     H15415   2.080   1.065   5.377  4.4929 -2.3376  0.7053
  855MOL0     H15416   2.184   1.178   5.291 -1.0212  2.3901 -1.1601
  855MOL0     H15417   2.274   1.060   5.513  0.5599 -0.0399  0.6285
  855MOL0     H15418   2.162   1.164   5.600 -3.5452  0.9131 -2.2948
  855MOL0     H15419   2.246   1.353   5.503 -2.8222 -1.7344 -0.0387
  855MOL0     H15420   2.374   1.259   5.416 -1.1337  1.7251 -0.4735
  855MOL0     H15421   2.375   1.302   5.709 -0.9495 -1.5417  0.6963
  855MOL0     H15422   2.486   1.354   5.596  0.2066  0.6613 -0.2782
  855MOL0     H15423   2.637   0.991   5.708 -1.3371 -0.9862  0.8048
  855MOL0     H15424   1.773   1.258   5.399  2.3328 -0.8372  2.3903
  855MOL0     H15425   1.628   1.380   5.252 -1.5420 -0.1937 -0.6954
  856MOL0     O15426   3.100   6.315   4.895 -0.1922  1.1317 -0.5741
  856MOL0     C15427   3.162   6.424   4.899  0.1640  0.9353 -0.1368
  856MOL0     O15428   3.103   6.541   4.881 -0.2028  0.1946 -0.3986
  856MOL0     C15429   2.966   6.543   4.881  0.9536 -0.5284 -0.5029
  856MOL0     C15430   2.900   6.576   4.998 -0.1250  0.0842  0.6027
  856MOL0     C15431   2.759   6.577   5.002 -1.4393 -0.7668  0.7735
  856MOL0     C15432   2.692   6.529   4.893  0.0690 -0.2849  0.1348
  856MOL0     O15433   2.555   6.522   4.911 -0.6501 -0.1573  0.2740
  856MOL0     C15434   2.473   6.542   4.792  1.2246  1.2472  0.3092
  856MOL0     C15435   2.330   6.502   4.839  0.3494  1.0499 -0.2383
  856MOL0     C15436   2.217   6.502   4.724  0.0156 -0.6402 -0.2666
  856MOL0     C15437   2.078   6.440   4.772  1.0822  0.4000  0.9305
  856MOL0     C15438   1.998   6.538   4.855 -0.2647 -0.6952  0.0751
  856MOL0     C15439   1.846   6.512   4.874  0.5173  0.0968 -0.4284
  856MOL0     C15440   1.844   6.377   4.939  0.3080  0.2653  0.2910
  856MOL0     C15441   1.704   6.330   4.977  0.8335 -0.2242  0.3259
  856MOL0     N15442   1.714   6.198   5.039 -0.1228 -0.1663  0.0072
  856MOL0     C15443   1.786   6.168   5.152 -0.0802 -0.0337 -0.5577
  856MOL0     C15444   1.746   6.049   5.203 -0.6358 -0.1347 -0.3004
  856MOL0     C15445   1.793   5.981   5.326  0.3102  0.4365 -0.0169
  856MOL0     C15446   1.839   5.835   5.292  0.8374 -0.9383 -0.5597
  856MOL0     C15447   1.910   5.790   5.426  0.8286 -0.6281  0.9462
  856MOL0     C15448   1.980   5.655   5.405 -0.4316 -0.6580  1.1222
  856MOL0     O15449   2.097   5.665   5.319  0.1609  0.0937 -0.0964
  856MOL0     C15450   2.213   5.736   5.351 -0.4076 -0.0298  0.5868
  856MOL0     C15451   2.319   5.733   5.252 -0.7197 -0.0731 -0.5648
  856MOL0     C15452   2.445   5.778   5.287 -0.8803 -0.3367 -0.0630
  856MOL0     C15453   2.553   5.762   5.184  0.3177  0.0249 -0.2445
  856MOL0     C15454   2.473   5.819   5.421 -0.3977 -0.0987  0.5384
  856MOL0     C15455   2.600   5.866   5.484  0.2848 -0.0814  0.3211
  856MOL0     O15456   2.594   5.962   5.582 -0.1012  0.8225  0.3518
  856MOL0     C15457   2.695   5.986   5.667 -0.0612  0.9506  0.5678
  856MOL0     C15458   2.671   5.959   5.795  0.4656 -0.1909 -0.2304
  856MOL0     C15459   2.782   5.982   5.885  0.2583  0.2742 -0.5764
  856MOL0     C15460   2.904   6.031   5.850  0.0183 -0.2271  0.1504
  856MOL0     O15461   3.007   6.062   5.927 -0.2215  0.2713 -0.1775
  856MOL0     C15462   3.026   6.016   6.064  0.3140  0.2831 -0.2958
  856MOL0     C15463   3.133   6.098   6.136 -0.1203  0.1072 -0.0786
  856MOL0     C15464   3.168   6.044   6.270 -0.2779  0.1289  0.4513
  856MOL0     C15465   3.306   6.079   6.312 -0.6082  0.0558 -0.6785
  856MOL0     C15466   3.332   6.036   6.460 -0.0033 -0.7267  0.9534
  856MOL0     C15467   3.474   6.067   6.509 -0.1236 -0.0724  0.0352
  856MOL0     C15468   3.491   5.997   6.646  0.5448 -0.9332  0.5705
  856MOL0     C15469   3.625   5.997   6.699 -0.0147  0.0565 -0.0493
  856MOL0    Cl15470   3.647   5.914   6.861  0.1965  0.2005  0.4232
  856MOL0     C15471   2.922   6.061   5.717 -0.3492  0.1934  0.0526
  856MOL0     C15472   2.820   6.031   5.624 -0.1752  0.0211 -0.2241
  856MOL0     O15473   2.701   5.807   5.449  0.7743 -0.4377  0.0728
  856MOL0     C15474   2.368   5.828   5.509  0.3029  0.5523 -0.3488
  856MOL0     C15475   2.238   5.782   5.479  0.4435  0.4791  0.2251
  856MOL0     N15476   1.649   6.007   5.116  0.7142 -0.6682 -1.0077
  856MOL0     N15477   1.632   6.092   5.021  1.1603 -0.0569  0.5747
  856MOL0     C15478   2.757   6.484   4.774 -0.9429 -0.4254  0.4755
  856MOL0     C15479   2.893   6.500   4.769  0.5025  0.2231  0.2261
  856MOL0     C15480   3.312   6.415   4.919  0.9862 -0.2219  0.0260
  856MOL0     C15481   3.371   6.519   4.999 -0.0782  0.2790  0.0157
  856MOL0     C15482   3.508   6.507   5.040 -1.4151 -0.1922  0.3339
  856MOL0     C15483   3.589   6.403   4.980 -0.5138 -0.1203 -0.1214
  856MOL0     O15484   3.724   6.390   4.990 -0.2684  0.5258  0.7423
  856MOL0     C15485   3.800   6.478   5.068  0.3202  0.2393  0.6630
  856MOL0     C15486   3.944   6.450   5.028  0.7136 -0.6076 -0.0298
  856MOL0     C15487   4.043   6.549   5.081  0.0838  0.6310 -0.9721
  856MOL0     C15488   4.193   6.507   5.055  0.0164  0.9784 -0.1521
  856MOL0     C15489   4.286   6.602   5.116 -0.1873  0.7095 -0.1618
  856MOL0     C15490   4.385   6.651   5.172 -0.0902  0.1498  0.6736
  856MOL0     C15491   3.529   6.306   4.898  0.7933  0.1023  0.2926
  856MOL0     C15492   3.386   6.310   4.865  0.3587  0.2668 -0.4307
  856MOL0     H15493   2.953   6.603   5.089  2.6586  2.7318 -1.5979
  856MOL0     H15494   2.704   6.605   5.092 -4.0999  2.4838 -1.6159
  856MOL0     H15495   2.464   6.641   4.748  1.0312  0.2797 -1.9634
  856MOL0     H15496   2.503   6.470   4.716 -5.1585 -1.7561 -0.0519
  856MOL0     H15497   2.332   6.403   4.887 -1.3586  1.2041  0.1998
  856MOL0     H15498   2.308   6.573   4.919  0.5312  0.1397  0.6391
  856MOL0     H15499   2.196   6.607   4.704  0.2827 -0.4495  0.4128
  856MOL0     H15500   2.257   6.446   4.639  1.0296 -0.2162 -0.0821
  856MOL0     H15501   2.020   6.427   4.680  2.1363  0.4389  0.2432
  856MOL0     H15502   2.082   6.343   4.822  2.7606  0.0912  0.2782
  856MOL0     H15503   2.059   6.557   4.944  0.9561 -1.7760 -0.4869
  856MOL0     H15504   2.001   6.635   4.805 -0.1114 -0.8510 -0.2176
  856MOL0     H15505   1.799   6.590   4.934  0.9333  2.7615 -3.3332
  856MOL0     H15506   1.784   6.502   4.784 -1.4199 -1.6996  0.9859
  856MOL0     H15507   1.875   6.301   4.866  0.7005  1.4234 -0.7752
  856MOL0     H15508   1.902   6.371   5.031 -1.7269 -3.9456  1.5815
  856MOL0     H15509   1.655   6.320   4.880  0.6106 -2.0207  0.5907
  856MOL0     H15510   1.641   6.398   5.035  0.6803 -0.7901  0.8335
  856MOL0     H15511   1.863   6.221   5.207 -0.1123 -3.2646  3.0434
  856MOL0     H15512   1.864   6.041   5.384 -2.8828  3.1422  1.4874
  856MOL0     H15513   1.704   5.977   5.390  1.7847  1.0595  2.1742
  856MOL0     H15514   1.896   5.832   5.199  0.4073  1.0770 -0.9273
  856MOL0     H15515   1.750   5.773   5.277 -2.5182  2.9374  1.1016
  856MOL0     H15516   1.842   5.771   5.508  0.0940  1.5524  0.9005
  856MOL0     H15517   1.990   5.856   5.462  0.3647 -1.1480  3.0308
  856MOL0     H15518   1.907   5.582   5.368 -0.3315  1.0704 -3.0661
  856MOL0     H15519   2.001   5.610   5.503 -1.5434 -4.9133 -0.3798
  856MOL0     H15520   2.308   5.692   5.152 -0.0217  0.1743 -0.7519
  856MOL0     H15521   2.556   5.659   5.148 -1.6199  0.2560 -1.2437
  856MOL0     H15522   2.520   5.820   5.097 -0.5258 -0.0879 -0.0129
  856MOL0     H15523   2.652   5.802   5.206  2.0025 -2.7396 -2.1129
  856MOL0     H15524   2.574   5.918   5.821 -0.3299  1.6075 -0.2066
  856MOL0     H15525   2.766   5.953   5.989  1.0405 -1.2781 -0.8685
  856MOL0     H15526   2.926   5.998   6.105 -0.8731 -0.9169 -3.3663
  856MOL0     H15527   3.052   5.910   6.058 -3.9443 -0.9887 -0.1657
  856MOL0     H15528   3.220   6.096   6.069 -1.3817  3.1291 -2.0772
  856MOL0     H15529   3.101   6.202   6.145  2.5883  0.8348  3.0938
  856MOL0     H15530   3.131   5.942   6.286 -1.1211  0.0479 -1.7342
  856MOL0     H15531   3.094   6.098   6.330 -0.0142  0.9737  0.0288
  856MOL0     H15532   3.386   6.033   6.252  1.4749 -0.5372  2.3046
  856MOL0     H15533   3.311   6.188   6.302 -0.9092  0.0246 -1.2067
  856MOL0     H15534   3.298   5.934   6.479 -1.7691 -0.6254 -1.2946
  856MOL0     H15535   3.262   6.094   6.521  0.9409  2.5379 -0.8002
  856MOL0     H15536   3.552   6.032   6.441  1.4905  1.5776  0.9781
  856MOL0     H15537   3.479   6.175   6.519  0.3814 -0.1787  1.0559
  856MOL0     H15538   3.459   5.892   6.637 -3.8144  0.2093  0.5983
  856MOL0     H15539   3.429   6.055   6.715  0.1995 -1.7508  0.9692
  856MOL0     H15540   3.658   6.101   6.700 -2.6500  1.0927 -3.2320
  856MOL0     H15541   3.683   5.941   6.625 -0.4481 -2.2310  1.2389
  856MOL0     H15542   3.011   6.118   5.694 -1.5061  3.2164  2.3538
  856MOL0     H15543   2.837   6.059   5.520  1.7344 -0.9337 -0.2293
  856MOL0     H15544   2.385   5.866   5.609  2.4001  1.1787 -0.8926
  856MOL0     H15545   2.159   5.785   5.554 -1.6003 -1.3321 -1.6988
  856MOL0     H15546   2.714   6.430   4.690  0.4786  0.5500 -0.9464
  856MOL0     H15547   2.950   6.482   4.678 -0.5537  1.4838 -0.7304
  856MOL0     H15548   3.306   6.596   5.039  1.0558  2.3602 -1.9102
  856MOL0     H15549   3.550   6.584   5.105 -2.0459  1.3078 -0.9735
  856MOL0     H15550   3.780   6.578   5.030  1.4625  0.3907  0.4238
  856MOL0     H15551   3.773   6.470   5.174 -0.8262  2.0472  0.5466
  856MOL0     H15552   3.943   6.465   4.919  1.1506 -0.2225  0.0137
  856MOL0     H15553   3.977   6.348   5.052  0.3308 -1.0752 -1.4099
  856MOL0     H15554   4.042   6.545   5.191  3.1040 -1.0256 -0.8961
  856MOL0     H15555   4.024   6.652   5.049 -1.4339 -0.0792 -2.4532
  856MOL0     H15556   4.206   6.496   4.947 -3.2413  0.9969 -0.6638
  856MOL0     H15557   4.219   6.408   5.093  0.3297  1.2143  0.2506
  856MOL0     H15558   4.477   6.698   5.203  0.8894  0.4106 -2.2852
  856MOL0     H15559   3.579   6.216   4.864  0.8285 -0.3687  1.5498
  856MOL0     H15560   3.334   6.228   4.816 -0.6506 -1.0230  2.5894
  857MOL0     O15561   4.208   4.235   5.764  0.3238  0.3089  0.0269
  857MOL0     C15562   4.220   4.357   5.753  0.3317  0.3240  0.5379
  857MOL0     O15563   4.134   4.427   5.671  0.1156 -0.0250 -0.4331
  857MOL0     C15564   4.031   4.363   5.605  0.3576 -0.3426 -0.0054
  857MOL0     C15565   3.911   4.436   5.591 -0.7790  0.0844  0.4467
  857MOL0     C15566   3.799   4.383   5.527 -0.6635 -0.4750  0.2241
  857MOL0     C15567   3.807   4.259   5.468  0.9800  0.3830  0.8639
  857MOL0     O15568   3.693   4.196   5.419 -1.0640  0.4130 -0.0844
  857MOL0     C15569   3.649   4.241   5.292  0.0296  0.6542 -0.5314
  857MOL0     C15570   3.542   4.152   5.240 -1.1792  0.0478  0.5144
  857MOL0     C15571   3.531   4.145   5.086  0.0792 -0.5980  0.3186
  857MOL0     C15572   3.399   4.082   5.045 -0.3370  0.5934 -0.0793
  857MOL0     C15573   3.378   4.111   4.893 -0.4107  0.0448 -0.9598
  857MOL0     C15574   3.473   4.038   4.790 -0.3911 -0.1953 -0.7248
  857MOL0     C15575   3.434   3.886   4.792 -0.4435  0.3532 -0.0851
  857MOL0     C15576   3.533   3.824   4.686  0.0432  1.1713  0.4811
  857MOL0     N15577   3.492   3.690   4.673  0.1026  0.3371  0.3400
  857MOL0     C15578   3.379   3.637   4.627  0.3962  0.3390  0.3197
  857MOL0     C15579   3.401   3.509   4.594 -1.2711  0.8432  0.2105
  857MOL0     C15580   3.298   3.410   4.545  1.2148 -0.4455 -0.5202
  857MOL0     C15581   3.169   3.424   4.622 -0.2403  0.1790 -0.5793
  857MOL0     C15582   3.071   3.311   4.572 -0.6430  0.1713 -0.8132
  857MOL0     C15583   2.930   3.335   4.632 -0.1662  1.2767 -0.0426
  857MOL0     O15584   2.858   3.437   4.559  0.3267  0.4346  0.2462
  857MOL0     C15585   2.731   3.468   4.592 -0.0589 -0.1942  0.1667
  857MOL0     C15586   2.649   3.409   4.694 -1.7716  0.6751  0.3334
  857MOL0     C15587   2.531   3.462   4.729 -0.2053  1.0224  0.8894
  857MOL0     C15588   2.463   3.393   4.845 -0.0495  0.2564  0.0942
  857MOL0     C15589   2.464   3.547   4.631 -0.3840 -0.1903 -0.8173
  857MOL0     C15590   2.320   3.582   4.639  0.1295  0.1900  0.0022
  857MOL0     O15591   2.278   3.674   4.548  0.4146  0.5449  0.2651
  857MOL0     C15592   2.143   3.676   4.527 -0.9007 -0.2073  0.4640
  857MOL0     C15593   2.076   3.799   4.521 -0.3255  0.5188 -0.0690
  857MOL0     C15594   1.940   3.803   4.476  0.8914  0.0209  0.5197
  857MOL0     C15595   1.870   3.688   4.429 -0.2821  0.6285  0.9343
  857MOL0     O15596   1.736   3.691   4.397  0.0442 -0.4751 -0.1184
  857MOL0     C15597   1.695   3.802   4.314 -0.4181 -0.4390  0.6742
  857MOL0     C15598   1.562   3.775   4.249 -0.7587 -0.3042 -0.3632
  857MOL0     C15599   1.451   3.739   4.348 -0.0058 -0.3165  0.0943
  857MOL0     C15600   1.336   3.664   4.269 -0.8423  1.0587 -0.5467
  857MOL0     C15601   1.208   3.661   4.358  0.2564 -0.5500  0.5174
  857MOL0     C15602   1.089   3.618   4.276  0.3715  0.2335  0.3640
  857MOL0     C15603   0.953   3.650   4.340 -0.3003  0.1377  0.0469
  857MOL0     C15604   0.846   3.601   4.248  0.1540 -0.2079  0.7513
  857MOL0    Cl15605   0.854   3.666   4.079  0.4728  0.0003  0.0214
  857MOL0     C15606   1.930   3.564   4.444  0.1474  0.4450 -0.0278
  857MOL0     C15607   2.065   3.563   4.490 -0.6333  0.1212 -0.2800
  857MOL0     O15608   2.250   3.531   4.724  0.5069 -0.1759 -1.2300
  857MOL0     C15609   2.536   3.592   4.524  0.8912 -0.8566 -0.8782
  857MOL0     C15610   2.671   3.568   4.519 -0.6177  0.8803  0.8331
  857MOL0     N15611   3.538   3.480   4.611  0.4485 -0.4302  0.4715
  857MOL0     N15612   3.585   3.592   4.662  0.1660  0.6586 -0.5239
  857MOL0     C15613   3.921   4.186   5.476 -0.6553  0.6874  0.0418
  857MOL0     C15614   4.036   4.237   5.542 -0.0349  0.1308 -0.2987
  857MOL0     C15615   4.331   4.427   5.823  0.4203  0.3237 -0.2256
  857MOL0     C15616   4.329   4.567   5.814 -0.3490  0.4770 -0.4361
  857MOL0     C15617   4.427   4.633   5.883 -0.3013 -0.3885 -0.5658
  857MOL0     C15618   4.535   4.567   5.951  0.0352 -0.5974  0.4098
  857MOL0     O15619   4.643   4.626   6.017 -0.9938  0.1282 -0.6636
  857MOL0     C15620   4.667   4.763   6.018  0.4963  0.1177 -0.4580
  857MOL0     C15621   4.809   4.792   6.079  0.9486 -0.0325 -0.0068
  857MOL0     C15622   4.918   4.698   6.035 -0.2946 -0.0126 -0.4377
  857MOL0     C15623   5.059   4.740   6.095 -0.2519 -0.1486 -0.3661
  857MOL0     C15624   5.065   4.751   6.243  0.1209  0.0093  0.2351
  857MOL0     C15625   5.075   4.748   6.364  0.4467  0.7596  0.1429
  857MOL0     C15626   4.534   4.425   5.947  0.1224 -0.7017 -0.9837
  857MOL0     C15627   4.431   4.352   5.890 -0.1115  0.3829  0.0100
  857MOL0     H15628   3.910   4.536   5.634 -0.1584 -1.0061  3.2693
  857MOL0     H15629   3.706   4.437   5.519 -1.4216 -1.7577  0.0772
  857MOL0     H15630   3.609   4.343   5.299 -1.7916 -0.1353  2.3049
  857MOL0     H15631   3.740   4.249   5.233  2.0072 -1.5131  1.9889
  857MOL0     H15632   3.566   4.049   5.268 -0.1880  0.0529 -0.2357
  857MOL0     H15633   3.449   4.170   5.294 -0.5592  1.9760  1.0081
  857MOL0     H15634   3.537   4.248   5.051  0.1432  0.0043  2.0352
  857MOL0     H15635   3.613   4.084   5.045 -0.8427 -0.8485 -1.2668
  857MOL0     H15636   3.409   3.973   5.056 -2.4246  0.0920 -2.2325
  857MOL0     H15637   3.304   4.111   5.091 -2.5766 -2.4689 -2.2706
  857MOL0     H15638   3.273   4.089   4.871 -0.1255 -0.6687 -1.6853
  857MOL0     H15639   3.387   4.219   4.881 -2.8782  0.4534  0.2099
  857MOL0     H15640   3.448   4.071   4.688 -0.0097  0.9476 -0.4646
  857MOL0     H15641   3.578   4.058   4.811 -0.8767  0.4770  1.3054
  857MOL0     H15642   3.443   3.837   4.890  0.9194 -0.3063 -0.5163
  857MOL0     H15643   3.328   3.870   4.772 -0.4665  2.1778 -1.6135
  857MOL0     H15644   3.631   3.831   4.733  0.7905 -1.0287 -0.6300
  857MOL0     H15645   3.526   3.868   4.586  1.6903 -2.1066 -1.2376
  857MOL0     H15646   3.285   3.692   4.621  0.3304  0.3942  1.6784
  857MOL0     H15647   3.284   3.428   4.438 -2.7660  0.6356  0.0340
  857MOL0     H15648   3.336   3.308   4.557  1.6485 -0.2331 -0.0138
  857MOL0     H15649   3.123   3.523   4.617 -3.7183 -0.9962  2.8494
  857MOL0     H15650   3.187   3.402   4.728 -1.5411 -0.3765 -0.4446
  857MOL0     H15651   3.105   3.213   4.606 -1.2981  0.6724  1.5032
  857MOL0     H15652   3.058   3.300   4.464 -0.9383  3.8090 -1.2884
  857MOL0     H15653   2.939   3.353   4.740 -3.2745  1.4329  0.2851
  857MOL0     H15654   2.876   3.241   4.615  0.1965  0.7749  1.3985
  857MOL0     H15655   2.687   3.332   4.760 -4.1408 -2.1309 -1.3071
  857MOL0     H15656   2.533   3.360   4.923  1.4872 -1.0871 -1.7576
  857MOL0     H15657   2.393   3.467   4.885 -0.0164  0.2869  0.0949
  857MOL0     H15658   2.409   3.306   4.806 -1.9997  2.0467 -1.4464
  857MOL0     H15659   2.131   3.891   4.541  3.2842 -1.7167  1.1388
  857MOL0     H15660   1.894   3.901   4.477  3.3347  1.2900 -1.5890
  857MOL0     H15661   1.685   3.883   4.387  0.0414  0.1063  0.1344
  857MOL0     H15662   1.766   3.829   4.236  0.3691 -0.0919  1.4893
  857MOL0     H15663   1.520   3.859   4.193  0.5586  1.4850  1.2158
  857MOL0     H15664   1.578   3.703   4.167  1.1719  1.6491 -1.8498
  857MOL0     H15665   1.420   3.831   4.397 -0.1045 -1.4158  2.1917
  857MOL0     H15666   1.477   3.667   4.426  0.8290  0.9895  1.0405
  857MOL0     H15667   1.312   3.714   4.175  4.5987  2.9961 -1.2259
  857MOL0     H15668   1.366   3.562   4.243 -2.5331  0.0219  1.2619
  857MOL0     H15669   1.189   3.765   4.388 -3.6723 -1.3152  1.2288
  857MOL0     H15670   1.219   3.595   4.445  1.6071 -1.8554 -0.6031
  857MOL0     H15671   1.094   3.659   4.174  0.4419 -1.4811 -0.3608
  857MOL0     H15672   1.102   3.510   4.265  2.8162  0.4084  1.0076
  857MOL0     H15673   0.943   3.757   4.359 -0.8491 -0.1554  1.5659
  857MOL0     H15674   0.940   3.592   4.432 -1.4956 -0.9772 -0.7839
  857MOL0     H15675   0.745   3.626   4.283  0.1012  2.5167 -1.0441
  857MOL0     H15676   0.847   3.491   4.251 -0.3863 -0.2423  0.0053
  857MOL0     H15677   1.892   3.468   4.412  1.1888  0.7909 -2.5163
  857MOL0     H15678   2.122   3.471   4.499 -0.5485  0.3422  2.0779
  857MOL0     H15679   2.485   3.652   4.449 -1.1991  0.2281  1.2861
  857MOL0     H15680   2.723   3.610   4.433 -3.4646 -1.6014 -2.4012
  857MOL0     H15681   3.931   4.097   5.414  1.2282  0.2307  0.9019
  857MOL0     H15682   4.129   4.182   5.530  0.8945  1.7499 -0.7736
  857MOL0     H15683   4.263   4.614   5.743 -1.9253 -1.0639 -0.0510
  857MOL0     H15684   4.439   4.741   5.878  0.5084 -0.0436  4.1381
  857MOL0     H15685   4.675   4.802   5.915 -0.5804 -2.0147 -1.4162
  857MOL0     H15686   4.592   4.819   6.075  0.6972 -0.1751  0.1000
  857MOL0     H15687   4.808   4.785   6.188  0.1387  0.2013  0.0083
  857MOL0     H15688   4.840   4.895   6.058 -0.4041  0.6046  0.9817
  857MOL0     H15689   4.929   4.694   5.927 -0.2471  0.8497 -0.4710
  857MOL0     H15690   4.891   4.593   6.047 -0.8275 -0.0708 -2.0421
  857MOL0     H15691   5.079   4.842   6.064  1.6020 -0.5681 -0.6296
  857MOL0     H15692   5.132   4.669   6.055 -1.4300 -1.8006  0.3071
  857MOL0     H15693   5.086   4.738   6.470  0.9406 -2.4253 -0.1148
  857MOL0     H15694   4.606   4.361   5.997  0.0450  0.2994  0.5051
  857MOL0     H15695   4.433   4.244   5.903 -1.8930  0.3102 -0.0204
  858MOL0     O15696  11.050   3.319   4.962  0.0476 -1.3101 -0.3437
  858MOL0     C15697  11.147   3.246   4.951 -0.2843  0.2932  0.8044
  858MOL0     O15698  11.140   3.106   4.954  0.2233 -0.3753  0.5583
  858MOL0     C15699  11.026   3.037   4.944  0.4304  0.9719  0.1522
  858MOL0     C15700  10.976   2.966   5.052 -0.6959  1.0734 -0.5980
  858MOL0     C15701  10.861   2.881   5.043  0.2653  1.2152 -0.0095
  858MOL0     C15702  10.791   2.862   4.927  0.3531 -0.1996  0.5192
  858MOL0     O15703  10.664   2.813   4.935  0.0762  0.4824 -0.3757
  858MOL0     C15704  10.653   2.668   4.937  0.1175  0.0149  0.0459
  858MOL0     C15705  10.620   2.611   4.798 -0.2585  0.1676 -0.2122
  858MOL0     C15706  10.518   2.699   4.730  0.1507  1.3324  0.3154
  858MOL0     C15707  10.469   2.632   4.602  0.2604 -0.0454  0.6709
  858MOL0     C15708  10.317   2.643   4.595  0.4847 -0.0860  0.7299
  858MOL0     C15709  10.258   2.604   4.455  0.3308  0.0491 -0.1068
  858MOL0     C15710  10.108   2.590   4.454  0.0990  0.3311 -0.7553
  858MOL0     C15711  10.062   2.447   4.511  0.1680 -0.5337 -0.5551
  858MOL0     N15712   9.915   2.436   4.515  0.1010 -0.0575 -0.3576
  858MOL0     C15713   9.847   2.317   4.529 -0.3396 -0.0468  0.0857
  858MOL0     C15714   9.722   2.347   4.531 -0.3165 -0.0109 -0.2336
  858MOL0     C15715   9.606   2.241   4.515 -0.8205  1.1559 -0.3121
  858MOL0     C15716   9.467   2.291   4.497 -0.4406  1.3681  0.0450
  858MOL0     C15717   9.376   2.177   4.458  0.6019  0.0377  0.9783
  858MOL0     C15718   9.230   2.205   4.461  0.0582 -0.4008  0.2428
  858MOL0     O15719   9.192   2.304   4.362  0.0396 -0.3144  0.1020
  858MOL0     C15720   9.058   2.335   4.346  0.4436 -0.1329  0.2245
  858MOL0     C15721   8.961   2.297   4.436 -0.0586  0.0212  0.4682
  858MOL0     C15722   8.819   2.316   4.411 -0.3582 -0.7741 -1.0440
  858MOL0     C15723   8.728   2.280   4.521  0.1729 -0.3400  0.0786
  858MOL0     C15724   8.778   2.368   4.286 -0.4083 -0.3383 -0.1089
  858MOL0     C15725   8.634   2.392   4.239 -0.1841 -0.4156  0.0309
  858MOL0     O15726   8.542   2.383   4.328  0.8942  0.3649  0.3173
  858MOL0     C15727   8.417   2.349   4.284  0.2780  0.7111  0.2248
  858MOL0     C15728   8.368   2.224   4.276 -0.1806  0.4132  0.6261
  858MOL0     C15729   8.251   2.191   4.212  0.8022  1.1652 -1.1524
  858MOL0     C15730   8.168   2.286   4.170  0.3405 -0.4991  1.7853
  858MOL0     O15731   8.046   2.247   4.125  0.3168  0.2759 -0.0046
  858MOL0     C15732   7.956   2.353   4.094 -0.3924 -0.4518 -0.3034
  858MOL0     C15733   7.817   2.298   4.064 -0.3600 -0.1914 -0.3169
  858MOL0     C15734   7.698   2.388   4.116 -0.5731 -0.6036  0.3916
  858MOL0     C15735   7.716   2.532   4.063 -0.2638 -0.2740  0.3808
  858MOL0     C15736   7.583   2.608   4.064  0.3561  0.8176  0.1537
  858MOL0     C15737   7.534   2.631   4.205  0.6560 -0.8740  0.5922
  858MOL0     C15738   7.436   2.751   4.222 -0.6789 -0.3651  0.4841
  858MOL0     C15739   7.301   2.742   4.148  0.0220 -0.0087  0.5060
  858MOL0    Cl15740   7.207   2.611   4.234 -0.1610 -0.0502 -0.2221
  858MOL0     C15741   8.210   2.418   4.170 -0.9800 -0.7051 -0.5050
  858MOL0     C15742   8.335   2.453   4.228  0.5082  0.5162  0.7210
  858MOL0     O15743   8.614   2.432   4.125 -0.1651 -0.9482 -0.4631
  858MOL0     C15744   8.881   2.398   4.193  0.3233 -0.4945  0.2804
  858MOL0     C15745   9.014   2.372   4.219  0.6815 -0.7175  0.8292
  858MOL0     N15746   9.714   2.489   4.526  0.1709 -0.3053 -0.5216
  858MOL0     N15747   9.831   2.541   4.516  0.0786  0.3647  0.0461
  858MOL0     C15748  10.836   2.939   4.818  0.0186  0.7633  0.1969
  858MOL0     C15749  10.957   3.015   4.822 -0.0487 -0.0626 -0.0569
  858MOL0     C15750  11.282   3.304   4.960  0.3393  0.2472 -0.4040
  858MOL0     C15751  11.396   3.224   4.981  0.2089  0.5431 -0.5232
  858MOL0     C15752  11.527   3.285   4.989 -0.1206  1.3922 -0.3402
  858MOL0     C15753  11.540   3.423   4.983  0.2284  0.1230  0.3502
  858MOL0     O15754  11.667   3.477   5.002  0.4594 -0.1819  0.6919
  858MOL0     C15755  11.679   3.612   5.031 -0.5674  0.0375 -0.0398
  858MOL0     C15756  11.821   3.664   5.057 -0.3888  0.3468  0.3630
  858MOL0     C15757  11.899   3.577   5.151  0.8179  0.4987  0.4731
  858MOL0     C15758  12.032   3.640   5.188  0.4031 -0.0802 -0.8764
  858MOL0     C15759  12.125   3.529   5.223  0.4795  0.5060 -1.2541
  858MOL0     C15760  12.208   3.443   5.253 -1.0645  0.1019 -0.5233
  858MOL0     C15761  11.426   3.499   4.970 -0.4286  0.1403 -0.7740
  858MOL0     C15762  11.298   3.441   4.960 -0.5137 -0.7879 -0.4268
  858MOL0     H15763  11.028   2.978   5.147 -1.8400  2.1110 -0.0850
  858MOL0     H15764  10.839   2.820   5.130  0.4440  0.5895 -0.3931
  858MOL0     H15765  10.742   2.616   4.975  0.5007 -0.7918 -1.7960
  858MOL0     H15766  10.572   2.645   5.006  0.9302 -0.4236  0.8861
  858MOL0     H15767  10.711   2.611   4.738 -1.0711  1.1057 -1.5112
  858MOL0     H15768  10.576   2.512   4.814 -2.0853  0.8976 -0.4430
  858MOL0     H15769  10.441   2.710   4.806 -0.2352  0.6967  0.0290
  858MOL0     H15770  10.560   2.798   4.711  1.1470  0.7642 -0.6101
  858MOL0     H15771  10.516   2.677   4.514 -1.1782  0.7302  0.2708
  858MOL0     H15772  10.495   2.526   4.601  3.4710  0.6034 -2.1133
  858MOL0     H15773  10.286   2.573   4.673  0.4823 -1.8473 -0.8022
  858MOL0     H15774  10.285   2.745   4.620 -2.9365 -1.2282  1.5802
  858MOL0     H15775  10.283   2.681   4.381 -2.8043  2.5909  1.2454
  858MOL0     H15776  10.308   2.512   4.423 -0.1760  0.3763 -1.9545
  858MOL0     H15777  10.082   2.680   4.509  2.7533  0.5625  0.2853
  858MOL0     H15778  10.069   2.592   4.352 -2.1346  0.2541  0.0369
  858MOL0     H15779  10.105   2.419   4.607 -0.1701 -1.9300 -0.7744
  858MOL0     H15780  10.099   2.368   4.445 -0.0525  0.5522 -2.0272
  858MOL0     H15781   9.884   2.215   4.527  1.4307  0.5274  1.3234
  858MOL0     H15782   9.627   2.188   4.422  1.0452  1.1532  0.0852
  858MOL0     H15783   9.606   2.167   4.596  2.0868  0.0974 -1.1615
  858MOL0     H15784   9.459   2.375   4.427 -0.0598  0.0216 -1.6720
  858MOL0     H15785   9.434   2.328   4.595  0.6303  2.0235  0.1668
  858MOL0     H15786   9.390   2.098   4.533 -2.1939  1.4113  3.1185
  858MOL0     H15787   9.401   2.136   4.360 -1.1107 -0.3532  0.6831
  858MOL0     H15788   9.205   2.247   4.558 -1.1820 -1.1823  0.2800
  858MOL0     H15789   9.173   2.113   4.447  1.4735 -0.9579 -3.0251
  858MOL0     H15790   8.987   2.249   4.531  1.7900 -0.6592 -0.3304
  858MOL0     H15791   8.658   2.213   4.470 -1.5248  2.3650 -1.4143
  858MOL0     H15792   8.790   2.237   4.600  2.1392  1.1396 -0.5631
  858MOL0     H15793   8.662   2.352   4.569 -0.2445 -0.2440 -0.6165
  858MOL0     H15794   8.426   2.141   4.317 -1.2014  0.2509  1.8339
  858MOL0     H15795   8.215   2.089   4.212  3.6326  0.0333  1.3921
  858MOL0     H15796   7.950   2.410   4.187 -0.7710 -1.5193  0.3474
  858MOL0     H15797   7.984   2.408   4.003  1.8511 -1.9014 -0.5873
  858MOL0     H15798   7.799   2.280   3.957 -1.4677 -0.9499 -0.0172
  858MOL0     H15799   7.804   2.204   4.118 -1.5970  0.4504  0.5340
  858MOL0     H15800   7.684   2.391   4.224 -0.9339 -1.4035  0.3690
  858MOL0     H15801   7.605   2.341   4.084  0.1800 -0.9618 -1.3622
  858MOL0     H15802   7.804   2.579   4.109 -0.2164 -0.7317  0.7696
  858MOL0     H15803   7.745   2.526   3.958  1.0088  0.9509  0.6267
  858MOL0     H15804   7.515   2.538   4.015  2.1521 -0.8619 -0.0450
  858MOL0     H15805   7.600   2.706   4.017  1.6869  0.4910 -0.1015
  858MOL0     H15806   7.490   2.534   4.233  0.3939 -1.3107 -1.1948
  858MOL0     H15807   7.629   2.649   4.255 -0.4841 -0.3829  2.7203
  858MOL0     H15808   7.498   2.830   4.178  1.1401 -2.8085 -1.6389
  858MOL0     H15809   7.411   2.781   4.324  0.6066  2.2747  0.1193
  858MOL0     H15810   7.315   2.707   4.045 -2.4608 -3.0725  1.0445
  858MOL0     H15811   7.245   2.835   4.157 -0.4513 -0.0422 -1.6558
  858MOL0     H15812   8.152   2.497   4.123 -0.3084  0.8346  1.1394
  858MOL0     H15813   8.365   2.556   4.240 -2.0273  1.3669  0.3573
  858MOL0     H15814   8.851   2.424   4.091  1.5286  0.6409  0.1849
  858MOL0     H15815   9.082   2.359   4.135  0.9819 -0.9463  1.1050
  858MOL0     H15816  10.776   2.922   4.730  0.5238 -1.0803  0.1782
  858MOL0     H15817  10.987   3.052   4.724  1.3721 -2.9892 -0.8488
  858MOL0     H15818  11.380   3.117   4.985 -0.1813  0.6294  0.8041
  858MOL0     H15819  11.607   3.215   5.009  0.1253  1.5189 -0.8499
  858MOL0     H15820  11.647   3.683   4.954  0.5542  0.5189 -0.0821
  858MOL0     H15821  11.617   3.637   5.117 -0.2137  2.0173 -0.3273
  858MOL0     H15822  11.810   3.765   5.096  2.2668  1.2420 -0.9430
  858MOL0     H15823  11.879   3.665   4.964 -2.8788  1.9764 -1.2739
  858MOL0     H15824  11.915   3.484   5.095  0.8233  1.5400 -1.3522
  858MOL0     H15825  11.842   3.562   5.243  0.4519  1.2827  0.3794
  858MOL0     H15826  12.021   3.703   5.276 -0.5128  0.0875 -1.1019
  858MOL0     H15827  12.079   3.702   5.111  1.8378  0.1562  0.1560
  858MOL0     H15828  12.290   3.375   5.263  1.2090  2.6608 -0.7884
  858MOL0     H15829  11.433   3.607   4.957  3.3842  0.4204  1.9016
  858MOL0     H15830  11.218   3.515   4.955  1.6582  1.8713  1.2382
  859MOL0     O15831   8.596   7.083   7.391 -0.2553 -0.4834  0.0989
  859MOL0     C15832   8.629   7.023   7.286  0.9637 -0.5809  0.5333
  859MOL0     O15833   8.562   6.930   7.215  0.7045  0.1570  0.5844
  859MOL0     C15834   8.454   6.872   7.279 -0.3390 -0.7078 -0.3580
  859MOL0     C15835   8.335   6.946   7.296 -1.3318  0.2750  0.3556
  859MOL0     C15836   8.228   6.892   7.366 -0.3164 -0.9763 -0.6327
  859MOL0     C15837   8.245   6.766   7.432  0.6402  0.0784  0.6333
  859MOL0     O15838   8.148   6.713   7.508 -0.0789  0.1558 -1.0515
  859MOL0     C15839   8.094   6.795   7.615 -0.3082 -0.3133 -1.9444
  859MOL0     C15840   7.999   6.715   7.708 -1.0867  0.3492 -0.1299
  859MOL0     C15841   7.943   6.792   7.832 -0.0697  0.1603 -0.6073
  859MOL0     C15842   8.025   6.770   7.973 -0.9442  0.0842  0.4856
  859MOL0     C15843   8.170   6.817   7.967 -0.7778 -0.3050  0.4620
  859MOL0     C15844   8.274   6.703   7.941  0.4339  0.1794 -0.9828
  859MOL0     C15845   8.415   6.745   7.943 -0.2751  0.3487  0.9595
  859MOL0     C15846   8.514   6.674   7.838  0.2577  0.4134  0.0056
  859MOL0     N15847   8.656   6.712   7.857 -0.5022 -0.1272 -0.0015
  859MOL0     C15848   8.747   6.702   7.754 -0.4792 -0.3808 -0.1499
  859MOL0     C15849   8.866   6.728   7.804 -0.3058  0.0885 -1.0962
  859MOL0     C15850   9.003   6.749   7.741  0.1634 -0.7974 -0.0644
  859MOL0     C15851   9.011   6.890   7.680  0.0624  0.5752  0.1458
  859MOL0     C15852   9.130   6.935   7.592 -0.3967  0.2360 -0.6990
  859MOL0     C15853   9.259   6.951   7.682 -0.8022  0.5510  0.9561
  859MOL0     O15854   9.374   6.936   7.587 -0.2458 -0.2869 -1.0385
  859MOL0     C15855   9.423   7.050   7.519  0.3039  1.5878  0.5137
  859MOL0     C15856   9.391   7.189   7.532  0.7726  1.2785  0.6227
  859MOL0     C15857   9.459   7.286   7.464 -0.1501 -0.2191  0.0054
  859MOL0     C15858   9.441   7.428   7.501  0.0754  0.5274  0.1996
  859MOL0     C15859   9.564   7.256   7.367  0.1116 -0.4877  0.1075
  859MOL0     C15860   9.649   7.350   7.294 -0.0195 -0.1495  0.7088
  859MOL0     O15861   9.594   7.444   7.218 -0.5968  0.0077  0.3643
  859MOL0     C15862   9.672   7.535   7.148  0.2841  0.5115 -0.1614
  859MOL0     C15863   9.647   7.671   7.172 -0.3505  0.6964 -0.0213
  859MOL0     C15864   9.712   7.767   7.100 -0.3266  0.3514 -0.2452
  859MOL0     C15865   9.808   7.730   7.007 -0.5412  0.4360  0.6344
  859MOL0     O15866   9.887   7.827   6.953 -0.6749 -0.1460  0.6314
  859MOL0     C15867  10.000   7.782   6.877 -0.3447  0.3405  0.0532
  859MOL0     C15868  10.107   7.890   6.882  0.2470 -0.1895 -0.4679
  859MOL0     C15869  10.242   7.837   6.821 -0.5333  0.2471 -0.4528
  859MOL0     C15870  10.354   7.940   6.831  1.0072  0.1223 -0.4602
  859MOL0     C15871  10.488   7.869   6.833 -0.1061 -1.0435 -0.4248
  859MOL0     C15872  10.599   7.964   6.846 -0.6625 -0.2082 -0.3458
  859MOL0     C15873  10.601   8.065   6.733 -0.0371 -0.0882  1.2071
  859MOL0     C15874  10.723   8.152   6.741 -0.7030  0.0143 -0.0014
  859MOL0    Cl15875  10.693   8.280   6.873 -0.1142 -0.1261 -0.2063
  859MOL0     C15876   9.819   7.591   6.971 -0.5410 -0.2308  0.2067
  859MOL0     C15877   9.755   7.497   7.045 -0.5704 -0.3856  0.4431
  859MOL0     O15878   9.771   7.348   7.307 -0.3336  0.2197 -1.0447
  859MOL0     C15879   9.586   7.123   7.349 -0.9589  0.1125 -0.4933
  859MOL0     C15880   9.518   7.026   7.419 -1.0343 -0.1949 -0.7488
  859MOL0     N15881   8.848   6.762   7.937  0.7727 -0.6191  0.4458
  859MOL0     N15882   8.727   6.763   7.966 -0.1903  0.3644  0.0338
  859MOL0     C15883   8.364   6.699   7.430  0.4310 -0.1528 -0.0721
  859MOL0     C15884   8.470   6.751   7.350  0.4069  0.4828  0.0500
  859MOL0     C15885   8.753   7.080   7.221  0.1413 -0.2137 -0.6551
  859MOL0     C15886   8.842   7.147   7.301 -0.2338 -1.2017  0.3809
  859MOL0     C15887   8.962   7.191   7.252 -0.4958  0.4911  0.3179
  859MOL0     C15888   8.997   7.156   7.118 -0.4341 -0.9160 -0.5835
  859MOL0     O15889   9.128   7.180   7.072  0.6536 -0.3899 -0.3785
  859MOL0     C15890   9.192   7.102   6.968  0.1297 -0.2284  0.0786
  859MOL0     C15891   9.346   7.108   7.004  0.2647 -0.0152  0.7509
  859MOL0     C15892   9.413   7.010   6.903  0.1534 -0.5608  0.1764
  859MOL0     C15893   9.556   7.022   6.876 -0.3085  0.2905  0.6630
  859MOL0     C15894   9.634   6.954   6.987 -0.3489 -0.3948  0.0280
  859MOL0     C15895   9.708   6.917   7.071 -0.0808  0.5826 -0.3784
  859MOL0     C15896   8.908   7.078   7.040 -0.0209 -0.6663  0.4952
  859MOL0     C15897   8.788   7.053   7.089 -0.1046 -0.0001  0.1627
  859MOL0     H15898   8.339   7.048   7.257  3.2268  1.1989  2.5928
  859MOL0     H15899   8.127   6.931   7.356 -0.6755 -1.8230 -0.4240
  859MOL0     H15900   8.184   6.827   7.667 -1.9196 -0.1384  0.9207
  859MOL0     H15901   8.041   6.884   7.578  0.4757  1.3853  0.7346
  859MOL0     H15902   7.909   6.680   7.655 -1.5606  1.1318  0.1345
  859MOL0     H15903   8.058   6.632   7.748  2.2827  2.7474  0.3249
  859MOL0     H15904   7.935   6.898   7.807 -0.2498  0.2834 -0.0348
  859MOL0     H15905   7.842   6.756   7.855  0.5775 -0.9530  0.5929
  859MOL0     H15906   7.979   6.830   8.052  0.0762 -0.0103  1.1627
  859MOL0     H15907   8.019   6.662   7.990  0.0912 -0.1418 -0.4973
  859MOL0     H15908   8.185   6.897   7.893 -0.3280 -0.0102  0.8602
  859MOL0     H15909   8.194   6.864   8.064  2.6551  1.4334 -1.0360
  859MOL0     H15910   8.264   6.634   8.025  1.6702  1.9391  0.6893
  859MOL0     H15911   8.254   6.657   7.844 -1.7066  0.3076 -0.6436
  859MOL0     H15912   8.424   6.845   7.901  0.9702 -1.2675 -3.1968
  859MOL0     H15913   8.464   6.731   8.040 -0.3658 -3.1852  0.6344
  859MOL0     H15914   8.495   6.707   7.736  1.9011  3.7550  0.6097
  859MOL0     H15915   8.495   6.567   7.843  1.9037  0.0834 -0.2471
  859MOL0     H15916   8.745   6.686   7.647  2.7134 -0.7830 -0.2668
  859MOL0     H15917   9.080   6.747   7.818  1.6726 -2.1929 -1.5403
  859MOL0     H15918   9.024   6.674   7.665 -3.4006  0.0293 -2.1098
  859MOL0     H15919   9.008   6.962   7.763 -0.1774 -0.7423  1.3103
  859MOL0     H15920   8.923   6.907   7.618  0.1702 -1.3031 -0.5874
  859MOL0     H15921   9.118   7.030   7.540 -2.0077  0.0338 -0.7632
  859MOL0     H15922   9.146   6.859   7.515  4.9948  4.1968 -4.1956
  859MOL0     H15923   9.270   6.876   7.761  0.1176 -1.9122 -1.3642
  859MOL0     H15924   9.259   7.053   7.722 -1.6200  1.9879 -2.3364
  859MOL0     H15925   9.302   7.220   7.587  1.4103  2.8000  0.8575
  859MOL0     H15926   9.430   7.429   7.609  2.0150  0.5160  0.4192
  859MOL0     H15927   9.529   7.488   7.476 -1.3401  1.4229 -3.4061
  859MOL0     H15928   9.356   7.474   7.450 -0.3579 -0.8106 -0.3392
  859MOL0     H15929   9.581   7.686   7.256 -0.3523 -3.5509  0.9678
  859MOL0     H15930   9.687   7.867   7.135 -0.6523 -1.7701  7.3783
  859MOL0     H15931  10.052   7.694   6.915  1.6387  0.8159 -1.4170
  859MOL0     H15932   9.978   7.773   6.771 -2.2294  2.6100  0.1547
  859MOL0     H15933  10.069   7.986   6.848  0.0255 -0.2335 -0.3508
  859MOL0     H15934  10.121   7.914   6.988  2.0643  1.5206 -1.0335
  859MOL0     H15935  10.224   7.802   6.719 -1.2620  0.6118 -0.4603
  859MOL0     H15936  10.269   7.745   6.874 -4.0922 -0.3452  0.6387
  859MOL0     H15937  10.348   8.014   6.751  0.9594 -1.7959 -2.3339
  859MOL0     H15938  10.348   7.989   6.929 -1.7676 -4.3702  1.9722
  859MOL0     H15939  10.504   7.805   6.745  0.4024 -0.6373 -0.6301
  859MOL0     H15940  10.495   7.807   6.923  0.8773  2.2620  1.9562
  859MOL0     H15941  10.605   8.009   6.945 -0.2205 -0.5174 -0.2284
  859MOL0     H15942  10.686   7.899   6.837 -1.5805 -1.5036 -0.1110
  859MOL0     H15943  10.512   8.128   6.735 -0.0724  0.0204 -1.3090
  859MOL0     H15944  10.599   8.015   6.635  1.6052  1.0647  0.5423
  859MOL0     H15945  10.736   8.213   6.651  3.2409 -0.2375  0.2336
  859MOL0     H15946  10.815   8.095   6.751 -2.5644 -3.5352 -1.3237
  859MOL0     H15947   9.886   7.558   6.893 -0.3588 -1.2149  0.7624
  859MOL0     H15948   9.781   7.392   7.037  1.8560 -0.0543  2.6075
  859MOL0     H15949   9.673   7.094   7.290 -1.6599 -0.1269 -1.4229
  859MOL0     H15950   9.551   6.924   7.403 -2.0501 -0.6891  0.2044
  859MOL0     H15951   8.367   6.598   7.472 -1.7851 -0.4728 -0.5601
  859MOL0     H15952   8.573   6.716   7.356  0.2145  0.0871  1.4278
  859MOL0     H15953   8.820   7.190   7.398 -2.3878  0.7615 -0.8466
  859MOL0     H15954   9.034   7.247   7.311 -1.9519  2.3770  0.3685
  859MOL0     H15955   9.143   7.005   6.959 -1.5280  0.6388 -0.7429
  859MOL0     H15956   9.170   7.164   6.881  1.9127  3.0906  1.7928
  859MOL0     H15957   9.350   7.072   7.107 -0.1199 -4.0861 -0.4771
  859MOL0     H15958   9.382   7.212   7.003 -3.3167  1.3729  0.3413
  859MOL0     H15959   9.373   7.026   6.803  0.9942 -2.1216 -0.4429
  859MOL0     H15960   9.385   6.905   6.921 -2.7292  0.0579 -0.2444
  859MOL0     H15961   9.584   7.127   6.861  0.2556 -0.2148 -2.5210
  859MOL0     H15962   9.575   6.979   6.777  3.2288  1.4687  0.7034
  859MOL0     H15963   9.754   6.895   7.166  0.1998  1.2715 -0.3495
  859MOL0     H15964   8.935   7.069   6.935 -2.6205 -1.3755 -0.1986
  859MOL0     H15965   8.723   7.000   7.020  2.4861 -1.2815 -1.4528
  860MOL0     O15966   0.157   0.564   1.228 -0.0063  0.2046 -0.6165
  860MOL0     C15967   0.190   0.653   1.148 -0.6050  0.6952 -1.0474
  860MOL0     O15968   0.105   0.711   1.058  0.4686  0.0225 -0.3357
  860MOL0     C15969  -0.023   0.677   1.061 -0.4582  1.0830  0.0059
  860MOL0     C15970  -0.069   0.544   1.081 -0.3526 -0.8889 -0.1208
  860MOL0     C15971  -0.208   0.525   1.072  0.2863 -0.7450  0.1702
  860MOL0     C15972  -0.301   0.630   1.063 -0.5944  0.3852  0.4785
  860MOL0     O15973  -0.434   0.609   1.067  0.3527  0.3458 -0.0276
  860MOL0     C15974  -0.488   0.476   1.042 -0.0703 -0.0519  0.2214
  860MOL0     C15975  -0.535   0.407   1.173 -0.0730 -0.0150  0.6064
  860MOL0     C15976  -0.568   0.253   1.155  0.2661  0.7965 -0.1338
  860MOL0     C15977  -0.663   0.203   1.274  0.9795 -0.1247  0.1297
  860MOL0     C15978  -0.580   0.204   1.405 -0.2186  0.5310 -0.2553
  860MOL0     C15979  -0.673   0.180   1.521  0.2610 -0.6638 -0.8208
  860MOL0     C15980  -0.585   0.209   1.649 -0.1737  0.5523  0.4816
  860MOL0     C15981  -0.644   0.167   1.781 -0.2918 -0.3041 -0.5049
  860MOL0     N15982  -0.524   0.170   1.871 -1.0603  0.0663 -0.0849
  860MOL0     C15983  -0.488   0.277   1.944  0.0964  0.5635 -0.3758
  860MOL0     C15984  -0.365   0.247   1.993  0.2549 -0.6578  0.8618
  860MOL0     C15985  -0.288   0.336   2.083  0.6288  0.3381  0.4049
  860MOL0     C15986  -0.135   0.359   2.049  1.1159  0.4829 -0.2270
  860MOL0     C15987  -0.113   0.471   1.943 -0.5792  0.1693  0.3785
  860MOL0     C15988   0.021   0.533   1.974 -0.2826  0.3042  0.2331
  860MOL0     O15989   0.126   0.436   1.970  0.8952  0.2658  1.6023
  860MOL0     C15990   0.241   0.476   1.910 -0.6600 -0.4895 -0.0268
  860MOL0     C15991   0.270   0.461   1.774 -0.8483  0.1220  0.7723
  860MOL0     C15992   0.398   0.495   1.720  0.2623 -0.4618  0.6810
  860MOL0     C15993   0.408   0.482   1.564  0.3858  0.1377 -0.3331
  860MOL0     C15994   0.492   0.546   1.803  0.0929  0.3000 -0.4401
  860MOL0     C15995   0.635   0.562   1.765 -0.1018  0.3175  0.1007
  860MOL0     O15996   0.723   0.569   1.870  0.1599 -0.5363  0.2462
  860MOL0     C15997   0.853   0.604   1.859  0.5964  0.0008  0.3116
  860MOL0     C15998   0.910   0.679   1.761  0.5639 -0.7769  0.2407
  860MOL0     C15999   1.051   0.693   1.750  0.8767  0.2751  0.3729
  860MOL0     C16000   1.131   0.634   1.850 -0.6138 -0.8369  0.2902
  860MOL0     O16001   1.264   0.635   1.834  0.1687 -0.0149 -0.0072
  860MOL0     C16002   1.333   0.715   1.921  0.7698  0.7086 -0.1268
  860MOL0     C16003   1.404   0.834   1.845  0.7175 -0.9454 -0.1570
  860MOL0     C16004   1.498   0.782   1.738  0.0771  0.4891  0.7498
  860MOL0     C16005   1.568   0.899   1.671 -0.2356  0.0164 -0.3956
  860MOL0     C16006   1.683   0.856   1.579  0.2762 -0.1738  0.1158
  860MOL0     C16007   1.760   0.981   1.538 -0.4346 -0.4884  0.1325
  860MOL0     C16008   1.873   0.952   1.434 -0.3315  0.3040 -0.0222
  860MOL0     C16009   1.971   1.069   1.400  0.0510  0.0733  0.4925
  860MOL0    Cl16010   1.966   1.099   1.212  0.3683 -0.0344  0.0991
  860MOL0     C16011   1.070   0.568   1.962  0.2082  0.4800 -0.0692
  860MOL0     C16012   0.933   0.552   1.968  0.5383  0.5497  1.1392
  860MOL0     O16013   0.665   0.571   1.644 -0.0125  0.2215  0.5556
  860MOL0     C16014   0.463   0.567   1.940 -0.2933 -0.5341  0.5553
  860MOL0     C16015   0.342   0.527   1.989 -0.2291 -0.8938  0.5548
  860MOL0     N16016  -0.327   0.126   1.932 -0.0915 -1.6306  0.3690
  860MOL0     N16017  -0.419   0.083   1.854 -0.4314 -0.3358 -0.3575
  860MOL0     C16018  -0.247   0.756   1.049 -0.1394  0.2273 -0.0647
  860MOL0     C16019  -0.113   0.775   1.048  0.7556  0.0644  0.7852
  860MOL0     C16020   0.329   0.687   1.141 -0.4480 -0.2938 -0.0413
  860MOL0     C16021   0.378   0.792   1.062 -0.8154  0.3575 -0.3128
  860MOL0     C16022   0.519   0.823   1.052 -0.1766  0.8363  0.2554
  860MOL0     C16023   0.603   0.737   1.125  0.2748 -0.2352  0.4665
  860MOL0     O16024   0.738   0.762   1.087  0.2401  0.0969 -0.4204
  860MOL0     C16025   0.834   0.712   1.177 -0.9859  0.1115 -0.2601
  860MOL0     C16026   0.964   0.786   1.188  0.4581  0.1298  0.5963
  860MOL0     C16027   1.036   0.766   1.050 -0.0406  0.5111  0.6247
  860MOL0     C16028   1.155   0.853   1.028  0.5369  0.1568  0.3377
  860MOL0     C16029   1.257   0.814   1.121 -0.5975 -0.3329  0.4633
  860MOL0     C16030   1.329   0.787   1.213 -0.3368 -0.0463  0.0150
  860MOL0     C16031   0.554   0.641   1.210  1.3380  0.7944 -0.3423
  860MOL0     C16032   0.419   0.620   1.228  0.3298  0.0486  0.2590
  860MOL0     H16033  -0.002   0.460   1.068  1.7026  0.8527 -1.3891
  860MOL0     H16034  -0.239   0.421   1.084 -3.6237  0.5109  3.6665
  860MOL0     H16035  -0.578   0.487   0.982  1.1741  2.2944 -1.4173
  860MOL0     H16036  -0.420   0.411   0.987  2.1844 -0.4035  3.1174
  860MOL0     H16037  -0.448   0.407   1.239  1.3381  0.7271 -1.1930
  860MOL0     H16038  -0.620   0.465   1.212 -0.1160  0.1055  0.3353
  860MOL0     H16039  -0.601   0.228   1.054 -0.6831  4.1076 -0.7906
  860MOL0     H16040  -0.476   0.198   1.170 -1.2150 -1.9663 -0.5631
  860MOL0     H16041  -0.757   0.260   1.274  0.9129 -0.1374 -2.2185
  860MOL0     H16042  -0.703   0.105   1.247 -0.8521  0.2906  1.1851
  860MOL0     H16043  -0.503   0.127   1.399 -0.0131  0.8028 -1.1798
  860MOL0     H16044  -0.519   0.295   1.410  1.7263 -0.7540  0.5077
  860MOL0     H16045  -0.762   0.243   1.516  2.0314  2.1202  0.2886
  860MOL0     H16046  -0.707   0.076   1.513 -1.5695  0.0153 -2.6123
  860MOL0     H16047  -0.500   0.143   1.631 -2.0651 -1.8022 -0.3407
  860MOL0     H16048  -0.539   0.308   1.655  1.3395 -0.1157  0.3648
  860MOL0     H16049  -0.691   0.068   1.782  0.9150 -1.0568  3.5800
  860MOL0     H16050  -0.724   0.239   1.799 -1.7689 -1.6595 -1.3844
  860MOL0     H16051  -0.545   0.365   1.972  0.1655  0.4199  0.2265
  860MOL0     H16052  -0.339   0.433   2.089  0.8313  0.6605 -2.0421
  860MOL0     H16053  -0.302   0.286   2.180  0.6130 -0.9368 -0.2280
  860MOL0     H16054  -0.083   0.267   2.019 -1.8769 -0.4963 -3.0265
  860MOL0     H16055  -0.089   0.388   2.144 -0.2399  2.6195 -0.1798
  860MOL0     H16056  -0.184   0.555   1.946  0.0977  0.9175 -2.2446
  860MOL0     H16057  -0.110   0.430   1.842  1.4452 -0.6429  0.7216
  860MOL0     H16058   0.019   0.564   2.079  1.0367 -0.6639  0.5829
  860MOL0     H16059   0.037   0.623   1.915 -0.7748  1.5502  1.9161
  860MOL0     H16060   0.184   0.425   1.717 -0.8387  0.3897  0.5862
  860MOL0     H16061   0.472   0.559   1.520 -0.9458  1.9148  0.6687
  860MOL0     H16062   0.428   0.377   1.542  0.2325 -1.2979  4.9195
  860MOL0     H16063   0.312   0.503   1.515 -0.1744  0.1973  0.7633
  860MOL0     H16064   0.845   0.733   1.692  0.2088 -0.8428  0.5205
  860MOL0     H16065   1.085   0.748   1.662  0.2882  1.1207  0.6537
  860MOL0     H16066   1.271   0.758   2.001  0.7296  1.9193 -0.7993
  860MOL0     H16067   1.407   0.647   1.965  0.9366  1.3667  0.6323
  860MOL0     H16068   1.335   0.904   1.798  0.9681 -0.4085  0.2731
  860MOL0     H16069   1.475   0.893   1.903 -1.0695  1.3416 -0.1363
  860MOL0     H16070   1.450   0.728   1.656 -2.7719 -0.7229  3.0566
  860MOL0     H16071   1.579   0.734   1.794  0.2926 -2.7918 -2.0820
  860MOL0     H16072   1.512   0.972   1.611  1.7947 -0.6926 -3.3991
  860MOL0     H16073   1.607   0.949   1.760  0.2537 -0.9780 -0.0414
  860MOL0     H16074   1.642   0.803   1.493 -0.4242  0.2829  0.1603
  860MOL0     H16075   1.758   0.789   1.623 -1.4456 -3.3264 -1.4322
  860MOL0     H16076   1.695   1.065   1.513 -1.3638 -0.7772  1.4617
  860MOL0     H16077   1.819   1.005   1.628  2.8845 -1.5356 -1.5997
  860MOL0     H16078   1.814   0.934   1.343 -0.3683  0.2785  0.0067
  860MOL0     H16079   1.930   0.861   1.453  4.1732  2.7353 -0.4688
  860MOL0     H16080   2.072   1.054   1.439  1.1418  0.6129 -1.9412
  860MOL0     H16081   1.930   1.162   1.439 -1.0460  0.4600 -1.4743
  860MOL0     H16082   1.139   0.535   2.038  0.8992  1.7069 -0.1552
  860MOL0     H16083   0.884   0.505   2.053  2.3869 -1.1041  1.3441
  860MOL0     H16084   0.537   0.604   2.010 -1.5765 -1.2107  2.3605
  860MOL0     H16085   0.329   0.531   2.096  0.9433  1.1234  0.6622
  860MOL0     H16086  -0.333   0.822   1.039 -1.6334 -1.8051 -1.5028
  860MOL0     H16087  -0.077   0.875   1.023 -0.9471  0.9092  1.5356
  860MOL0     H16088   0.297   0.850   1.018 -2.0016  1.4169  2.9772
  860MOL0     H16089   0.549   0.897   0.978  2.2614  1.0657  1.3691
  860MOL0     H16090   0.788   0.717   1.276 -2.0646  1.9996 -0.8191
  860MOL0     H16091   0.848   0.604   1.162  0.1817  0.2965 -0.6497
  860MOL0     H16092   1.014   0.735   1.271 -1.4257 -3.4808 -0.2375
  860MOL0     H16093   0.946   0.888   1.222 -1.1796  0.2987 -0.6413
  860MOL0     H16094   0.974   0.780   0.961  0.4490  2.2242  0.4979
  860MOL0     H16095   1.065   0.661   1.042 -1.5474  0.1399 -0.4710
  860MOL0     H16096   1.127   0.959   1.033  0.8845  0.1855  2.4042
  860MOL0     H16097   1.179   0.841   0.922 -1.5291  0.2913 -0.1916
  860MOL0     H16098   1.394   0.742   1.285  1.1451  0.0464 -1.2092
  860MOL0     H16099   0.624   0.574   1.260  0.9272  2.4976  2.7838
  860MOL0     H16100   0.384   0.543   1.296 -2.0121  0.6328 -0.1937
  861MOL0     O16101   9.801   8.947   0.921  0.5475  0.9010 -0.8083
  861MOL0     C16102   9.849   8.970   1.032 -0.1957  0.7513 -0.0722
  861MOL0     O16103   9.793   9.032   1.137 -0.4001 -0.1919  0.2654
  861MOL0     C16104   9.668   9.080   1.136  0.8928  0.2442 -0.1274
  861MOL0     C16105   9.586   9.102   1.026 -0.0886 -0.4058 -0.1184
  861MOL0     C16106   9.455   9.150   1.047  0.1804 -0.4216  0.2278
  861MOL0     C16107   9.401   9.175   1.176  0.5202 -1.0481  0.0904
  861MOL0     O16108   9.266   9.201   1.180 -0.3300  0.1983 -0.1456
  861MOL0     C16109   9.205   9.245   1.301 -0.0825 -0.0056  0.4136
  861MOL0     C16110   9.067   9.297   1.260 -0.2596  0.7446 -0.3821
  861MOL0     C16111   8.960   9.302   1.370  0.4927 -0.7398  0.0308
  861MOL0     C16112   8.842   9.373   1.313  0.6161 -0.3151  0.2413
  861MOL0     C16113   8.728   9.358   1.406  0.8320 -0.1908  0.1737
  861MOL0     C16114   8.601   9.420   1.342  0.6731 -0.0250  0.4976
  861MOL0     C16115   8.467   9.342   1.365  0.2012  0.9199  0.2633
  861MOL0     C16116   8.486   9.207   1.299  0.4535  0.0296  0.0593
  861MOL0     N16117   8.355   9.151   1.280  0.8572 -0.6911 -0.9965
  861MOL0     C16118   8.278   9.147   1.172  0.3372  0.0913 -0.1841
  861MOL0     C16119   8.179   9.066   1.193  0.2643  0.5980 -0.0069
  861MOL0     C16120   8.061   9.023   1.102  0.4250 -0.5980 -0.1055
  861MOL0     C16121   7.928   9.095   1.142 -0.2144 -0.6001 -0.2033
  861MOL0     C16122   7.819   9.070   1.039 -0.5504  0.1079  1.2686
  861MOL0     C16123   7.689   9.156   1.047 -0.7568 -0.7305 -0.1368
  861MOL0     O16124   7.600   9.103   0.947  0.0802  0.2138 -0.7600
  861MOL0     C16125   7.477   9.163   0.942 -0.3494 -0.2813  0.5992
  861MOL0     C16126   7.428   9.259   1.041  0.1464 -0.0783 -0.4087
  861MOL0     C16127   7.306   9.310   1.048 -0.1091 -0.1500  0.6379
  861MOL0     C16128   7.273   9.404   1.168  0.1624 -0.7625 -0.6202
  861MOL0     C16129   7.213   9.292   0.938 -1.0051  0.1037  0.0526
  861MOL0     C16130   7.079   9.345   0.913 -1.1115  0.5916 -0.1423
  861MOL0     O16131   7.016   9.393   1.031  0.5047  0.7906 -0.2399
  861MOL0     C16132   6.892   9.443   1.030 -0.7217 -0.3486  0.3472
  861MOL0     C16133   6.858   9.531   1.134 -0.2397  0.2371  0.1630
  861MOL0     C16134   6.728   9.588   1.149 -0.7463  0.0768  0.3038
  861MOL0     C16135   6.625   9.541   1.059 -0.0935 -0.5332 -0.2049
  861MOL0     O16136   6.501   9.597   1.071 -0.7089 -0.0586 -0.1121
  861MOL0     C16137   6.481   9.717   0.992 -0.2891  0.4064  0.4908
  861MOL0     C16138   6.459   9.686   0.840 -0.0226 -0.6028 -0.0419
  861MOL0     C16139   6.433   9.804   0.759  0.3259  0.4727  0.5463
  861MOL0     C16140   6.378   9.780   0.617 -0.5206  0.1622  0.1174
  861MOL0     C16141   6.279   9.673   0.597 -0.4711  0.5783  0.9193
  861MOL0     C16142   6.154   9.680   0.699  0.4075 -0.5448  0.5607
  861MOL0     C16143   6.076   9.554   0.708  0.2529 -0.0128 -0.3737
  861MOL0     C16144   5.932   9.567   0.748  0.5633 -0.0435  1.0321
  861MOL0    Cl16145   5.828   9.619   0.612  0.9002 -0.2208 -0.0473
  861MOL0     C16146   6.663   9.460   0.954  0.3705  0.2664  0.2515
  861MOL0     C16147   6.794   9.409   0.932  0.1835  0.1113 -0.7114
  861MOL0     O16148   7.046   9.357   0.795  0.7809 -0.8524  0.0633
  861MOL0     C16149   7.263   9.195   0.847  1.0800 -0.1794 -0.3813
  861MOL0     C16150   7.387   9.129   0.851 -0.2061  0.0251  0.4696
  861MOL0     N16151   8.200   9.018   1.317 -0.1753  0.4409  0.1320
  861MOL0     N16152   8.304   9.066   1.370 -0.0780 -0.8393  0.1814
  861MOL0     C16153   9.482   9.162   1.286  0.0790  0.6444 -0.0805
  861MOL0     C16154   9.612   9.108   1.257 -1.0903 -0.1994 -0.0598
  861MOL0     C16155   9.997   8.938   1.042 -0.0461 -0.1524 -0.1245
  861MOL0     C16156  10.069   8.977   1.158 -0.1004 -0.3443 -0.2666
  861MOL0     C16157  10.211   8.975   1.160  0.6386 -0.6630  0.1890
  861MOL0     C16158  10.282   8.937   1.046  0.4993 -0.1244 -0.3892
  861MOL0     O16159  10.419   8.938   1.064 -0.8944  0.3353 -0.2252
  861MOL0     C16160  10.507   8.934   0.947  0.4533  0.6054 -0.1091
  861MOL0     C16161  10.659   8.947   0.986  0.6871 -0.2768 -1.4096
  861MOL0     C16162  10.740   8.944   0.864 -0.1998  0.4901 -0.4455
  861MOL0     C16163  10.887   8.977   0.879  0.4396  0.4828 -1.3740
  861MOL0     C16164  10.970   8.892   0.793  0.6297 -0.2710 -0.4468
  861MOL0     C16165  11.037   8.825   0.715 -0.1438  0.8817  0.1713
  861MOL0     C16166  10.213   8.885   0.940  0.4528  0.0359  0.4833
  861MOL0     C16167  10.074   8.886   0.936  0.6103  0.5252 -0.4781
  861MOL0     H16168   9.612   9.101   0.920 -0.7994 -0.3076 -0.3006
  861MOL0     H16169   9.393   9.186   0.965 -0.3672 -0.1336  0.7609
  861MOL0     H16170   9.190   9.168   1.377  1.0132 -0.0544  0.6043
  861MOL0     H16171   9.266   9.320   1.353  0.8744  0.4800 -1.2994
  861MOL0     H16172   9.089   9.399   1.228 -0.1041  0.7624 -0.2198
  861MOL0     H16173   9.029   9.230   1.182 -2.2755  0.5833  0.6828
  861MOL0     H16174   8.953   9.195   1.391  4.1335 -1.3053 -0.8742
  861MOL0     H16175   9.000   9.365   1.450  1.0610  0.3407 -1.0579
  861MOL0     H16176   8.861   9.479   1.294 -2.4154  0.4035  0.7450
  861MOL0     H16177   8.817   9.321   1.220  0.8285 -0.5672  0.3240
  861MOL0     H16178   8.706   9.254   1.429  0.1314  0.2727  1.7422
  861MOL0     H16179   8.745   9.406   1.503 -1.8336 -1.6350  1.4802
  861MOL0     H16180   8.579   9.518   1.385 -2.3936 -0.7011  0.7285
  861MOL0     H16181   8.610   9.429   1.234 -1.9596 -1.7056  0.0390
  861MOL0     H16182   8.445   9.335   1.472 -1.1927  0.5823 -0.0169
  861MOL0     H16183   8.391   9.404   1.317 -0.0162  0.5021  0.0562
  861MOL0     H16184   8.540   9.135   1.361 -0.4983 -0.7088  0.0567
  861MOL0     H16185   8.533   9.220   1.201  0.3571 -0.9942 -0.1304
  861MOL0     H16186   8.299   9.188   1.074 -0.1731  0.2292 -0.2364
  861MOL0     H16187   8.093   9.035   0.998 -1.3665  0.9338 -0.5294
  861MOL0     H16188   8.065   8.915   1.117  0.5843 -0.3609  1.9716
  861MOL0     H16189   7.959   9.200   1.135 -2.1639 -0.1193 -2.4330
  861MOL0     H16190   7.896   9.077   1.245 -1.5958  0.2875 -0.4614
  861MOL0     H16191   7.799   8.963   1.046  2.6268 -0.8510 -1.9111
  861MOL0     H16192   7.855   9.091   0.938 -2.0832  0.3748  0.7506
  861MOL0     H16193   7.719   9.260   1.036  0.7445 -1.0800  0.3575
  861MOL0     H16194   7.649   9.137   1.147 -1.8838  0.1978 -0.3974
  861MOL0     H16195   7.499   9.288   1.118  1.3891  0.9918 -1.9046
  861MOL0     H16196   7.202   9.376   1.247  1.6930  0.9568  1.5063
  861MOL0     H16197   7.361   9.428   1.230 -1.3292  1.1939  0.8829
  861MOL0     H16198   7.236   9.497   1.124  2.6682  1.6198  1.8253
  861MOL0     H16199   6.929   9.561   1.211 -1.3674  4.1365 -0.1046
  861MOL0     H16200   6.696   9.664   1.220 -0.2569  1.0547 -0.4827
  861MOL0     H16201   6.391   9.774   1.012 -1.3183 -0.4541 -1.3707
  861MOL0     H16202   6.572   9.776   1.001  1.2297 -0.2221 -5.6766
  861MOL0     H16203   6.539   9.631   0.788  0.4566 -1.3025  1.3816
  861MOL0     H16204   6.375   9.616   0.848 -0.2226 -0.4197 -0.5156
  861MOL0     H16205   6.532   9.847   0.744  0.6179  0.2411  1.6806
  861MOL0     H16206   6.360   9.870   0.806 -1.9858 -0.3260 -1.6518
  861MOL0     H16207   6.332   9.873   0.583 -1.4770 -0.6640 -0.9304
  861MOL0     H16208   6.464   9.759   0.553  0.6125  1.8025  1.0412
  861MOL0     H16209   6.340   9.582   0.596  0.6323  1.2969  1.4558
  861MOL0     H16210   6.240   9.674   0.494 -3.1479  1.3576  1.8738
  861MOL0     H16211   6.172   9.704   0.804  0.3585  0.8944  0.2569
  861MOL0     H16212   6.098   9.763   0.655  3.3725  0.6619 -1.2462
  861MOL0     H16213   6.121   9.486   0.781 -0.2331 -0.0449 -0.0999
  861MOL0     H16214   6.071   9.506   0.610  1.5614 -2.6098  0.7505
  861MOL0     H16215   5.910   9.626   0.837 -2.3566 -1.6113  1.4595
  861MOL0     H16216   5.908   9.468   0.786  2.3224 -0.5936  0.8272
  861MOL0     H16217   6.591   9.423   0.882  0.6261  2.2530 -1.1244
  861MOL0     H16218   6.810   9.349   0.843 -2.3191 -0.6705 -0.6884
  861MOL0     H16219   7.201   9.166   0.763 -1.5598 -0.0902  1.4057
  861MOL0     H16220   7.403   9.056   0.772 -3.5476 -2.3749  1.7565
  861MOL0     H16221   9.459   9.172   1.391  0.4298 -0.2616  0.0927
  861MOL0     H16222   9.684   9.090   1.336  1.6636 -1.4055 -2.6430
  861MOL0     H16223  10.016   9.002   1.250  2.8695  0.5960  1.3417
  861MOL0     H16224  10.258   9.021   1.246 -1.5543 -0.3617  1.2941
  861MOL0     H16225  10.492   8.840   0.893 -0.3996  0.5015  0.3064
  861MOL0     H16226  10.479   9.018   0.884  2.8034  0.2774 -1.7262
  861MOL0     H16227  10.692   8.870   1.056  0.1992 -1.1249 -2.0908
  861MOL0     H16228  10.669   9.040   1.043 -1.1557  1.1116 -3.2327
  861MOL0     H16229  10.702   9.021   0.796 -0.4499 -0.7927 -1.8142
  861MOL0     H16230  10.724   8.850   0.810 -1.3265 -0.0541  0.7888
  861MOL0     H16231  10.914   8.954   0.982 -1.7573 -2.1001 -1.2637
  861MOL0     H16232  10.907   9.082   0.855 -1.0438  0.3500 -3.4787
  861MOL0     H16233  11.077   8.763   0.637 -3.0178 -2.6352  1.2055
  861MOL0     H16234  10.267   8.846   0.855 -0.8507  0.3302 -0.4995
  861MOL0     H16235  10.017   8.863   0.847 -3.8955 -0.2583  2.2953
  862MOL0     O16236  11.001   6.138   7.026 -0.4272  0.6474  0.3673
  862MOL0     C16237  11.055   6.148   6.917  1.4526 -0.5862  0.6806
  862MOL0     O16238  11.008   6.202   6.805 -0.3375 -0.1214 -0.1605
  862MOL0     C16239  10.881   6.251   6.807 -0.7244 -0.1691  0.3638
  862MOL0     C16240  10.777   6.163   6.780 -0.0170  0.3386  0.0150
  862MOL0     C16241  10.645   6.205   6.799  0.1173  0.0392 -0.1636
  862MOL0     C16242  10.621   6.337   6.842 -0.3794  0.4198 -0.1611
  862MOL0     O16243  10.499   6.380   6.855 -0.1550  0.1233  0.1230
  862MOL0     C16244  10.411   6.310   6.937  0.3555  0.1939 -0.4862
  862MOL0     C16245  10.291   6.412   6.963 -0.1975  0.1893 -0.2600
  862MOL0     C16246  10.196   6.428   6.845 -0.2783  0.2512  0.0410
  862MOL0     C16247  10.066   6.340   6.849 -0.1111  0.0980 -0.1697
  862MOL0     C16248   9.994   6.353   6.713 -0.7195 -0.5637 -0.9101
  862MOL0     C16249   9.842   6.386   6.734  0.1303 -0.5301 -0.3113
  862MOL0     C16250   9.773   6.270   6.801  0.2895  0.9417 -0.9329
  862MOL0     C16251   9.620   6.303   6.800  0.1324 -0.2845  0.2427
  862MOL0     N16252   9.522   6.195   6.811 -0.0084  0.1444 -0.2820
  862MOL0     C16253   9.551   6.061   6.836 -0.5068 -0.1266 -0.4721
  862MOL0     C16254   9.421   6.012   6.852  0.0718  0.2080 -0.1361
  862MOL0     C16255   9.396   5.865   6.854  0.2456  0.8418 -0.5973
  862MOL0     C16256   9.248   5.819   6.856  0.2618 -0.5188  0.7267
  862MOL0     C16257   9.226   5.671   6.877 -0.3204 -0.8268  0.1453
  862MOL0     C16258   9.288   5.571   6.768 -0.2429 -1.0977 -0.2935
  862MOL0     O16259   9.190   5.491   6.707  0.2192 -0.3645 -0.0334
  862MOL0     C16260   9.234   5.409   6.604 -0.1843  1.1994  0.4472
  862MOL0     C16261   9.169   5.400   6.484  0.9871 -0.1890  0.5685
  862MOL0     C16262   9.202   5.303   6.382 -0.2042 -0.0075 -0.3993
  862MOL0     C16263   9.146   5.323   6.243  0.1480  0.5841 -0.2537
  862MOL0     C16264   9.307   5.206   6.410 -0.0114 -0.4944 -0.6015
  862MOL0     C16265   9.375   5.105   6.320  0.5471  0.7951 -0.1421
  862MOL0     O16266   9.514   5.093   6.331 -0.0183 -0.6393 -0.1216
  862MOL0     C16267   9.586   5.016   6.245  0.4966  0.5435 -0.3774
  862MOL0     C16268   9.646   5.078   6.136  0.7929  0.1749 -0.9313
  862MOL0     C16269   9.712   4.996   6.043  0.5313  0.5922 -0.3244
  862MOL0     C16270   9.717   4.854   6.056 -0.0872  0.7993  0.1317
  862MOL0     O16271   9.768   4.772   5.957  0.2483  0.0980  0.3316
  862MOL0     C16272   9.777   4.824   5.827 -0.1854 -0.3171 -0.6336
  862MOL0     C16273   9.773   4.703   5.743 -0.5620  0.1442 -0.3849
  862MOL0     C16274   9.817   4.726   5.603 -0.7808 -0.1767  0.5050
  862MOL0     C16275   9.726   4.838   5.538 -0.5757 -0.5661  0.0249
  862MOL0     C16276   9.772   4.879   5.392  0.9028 -0.3785 -0.3042
  862MOL0     C16277   9.707   5.008   5.356  0.3301  0.6681 -0.4824
  862MOL0     C16278   9.757   5.037   5.203 -0.0272 -0.8892  0.1142
  862MOL0     C16279   9.675   5.151   5.152 -0.5633  0.1296  0.4816
  862MOL0    Cl16280   9.536   5.089   5.063  0.3658 -0.2087 -0.6166
  862MOL0     C16281   9.678   4.794   6.176  0.1369 -0.1503 -0.9740
  862MOL0     C16282   9.610   4.879   6.267 -0.2710  0.1161  0.4300
  862MOL0     O16283   9.304   5.052   6.232  1.2795 -0.4736 -0.7917
  862MOL0     C16284   9.369   5.214   6.533  0.2016 -0.4465  0.0377
  862MOL0     C16285   9.337   5.318   6.619  0.9731  0.3546 -0.0217
  862MOL0     N16286   9.326   6.108   6.837 -0.5807  0.5729  0.5079
  862MOL0     N16287   9.389   6.222   6.816  1.0546  0.5039  0.3951
  862MOL0     C16288  10.729   6.421   6.856  0.0015 -0.0104 -0.3593
  862MOL0     C16289  10.858   6.379   6.849  0.0844  0.7263  0.0577
  862MOL0     C16290  11.193   6.093   6.903 -0.4058  0.7124  0.2300
  862MOL0     C16291  11.272   6.120   6.796 -0.7763 -0.3633  0.0512
  862MOL0     C16292  11.409   6.074   6.784  0.6410  0.1839 -0.1742
  862MOL0     C16293  11.469   5.999   6.886 -0.3421  0.7294  0.2322
  862MOL0     O16294  11.592   5.935   6.883 -0.2196  0.3014 -0.4101
  862MOL0     C16295  11.696   5.959   6.788 -0.1420  0.5372  0.2976
  862MOL0     C16296  11.831   5.934   6.871  0.4976  0.2809  0.0819
  862MOL0     C16297  11.846   5.796   6.923 -0.4413  0.3333 -0.3491
  862MOL0     C16298  11.983   5.769   6.977 -0.5870  0.7015  0.8139
  862MOL0     C16299  12.089   5.733   6.874  0.0656  0.1934 -0.4702
  862MOL0     C16300  12.171   5.712   6.788 -0.3069  0.2363  0.0312
  862MOL0     C16301  11.381   5.967   6.991  0.7983  0.1492 -0.0586
  862MOL0     C16302  11.244   6.006   7.001 -0.8784  0.8465  0.5567
  862MOL0     H16303  10.803   6.061   6.754 -2.9466 -0.0945 -1.6695
  862MOL0     H16304  10.556   6.146   6.779 -0.3519  0.0916  1.5848
  862MOL0     H16305  10.367   6.226   6.882  0.6504 -0.1756 -0.1626
  862MOL0     H16306  10.456   6.271   7.029  0.8012 -0.3119 -0.9098
  862MOL0     H16307  10.241   6.377   7.053  1.4614  0.0608  0.6575
  862MOL0     H16308  10.335   6.509   6.990  1.2872 -0.4807 -0.1547
  862MOL0     H16309  10.157   6.530   6.834 -2.0302 -0.4651 -0.7221
  862MOL0     H16310  10.252   6.417   6.752  0.5092 -2.6013  0.7499
  862MOL0     H16311  10.081   6.237   6.881 -1.8134 -0.2847 -0.5144
  862MOL0     H16312  10.003   6.383   6.926 -1.9247 -2.4751 -0.1210
  862MOL0     H16313  10.029   6.437   6.653  0.0881  0.6579  1.1502
  862MOL0     H16314  10.014   6.267   6.648  0.5571  0.8935 -2.5558
  862MOL0     H16315   9.829   6.482   6.785 -0.3707  0.7835 -2.7646
  862MOL0     H16316   9.794   6.404   6.637 -1.3614  1.2244  0.6948
  862MOL0     H16317   9.796   6.180   6.743 -1.2153 -0.2741  0.2995
  862MOL0     H16318   9.815   6.267   6.902  3.0549 -0.1641 -1.9936
  862MOL0     H16319   9.600   6.363   6.711  1.9486  1.0627  0.6946
  862MOL0     H16320   9.603   6.369   6.886  2.8028 -1.7680  2.0529
  862MOL0     H16321   9.649   6.015   6.840 -1.2335 -1.7719 -0.8888
  862MOL0     H16322   9.450   5.828   6.767 -0.7293  1.5705 -1.5462
  862MOL0     H16323   9.438   5.821   6.945 -0.2020 -1.6276 -1.5023
  862MOL0     H16324   9.195   5.844   6.763 -0.3301 -2.4936  0.5001
  862MOL0     H16325   9.197   5.867   6.940  0.4309 -2.0741  1.7501
  862MOL0     H16326   9.117   5.669   6.878 -0.3184 -0.8402  1.2316
  862MOL0     H16327   9.263   5.650   6.978  0.4389  0.6002  0.1913
  862MOL0     H16328   9.370   5.506   6.803  2.0401  0.4613 -2.4421
  862MOL0     H16329   9.347   5.626   6.695 -0.4457 -2.2509 -1.3627
  862MOL0     H16330   9.080   5.459   6.466  0.6139 -0.4062  1.6077
  862MOL0     H16331   9.044   5.361   6.244 -0.2331 -0.3127  2.9187
  862MOL0     H16332   9.224   5.382   6.192  1.2507 -0.6771 -0.0933
  862MOL0     H16333   9.147   5.227   6.190  1.4967 -1.0543  2.4959
  862MOL0     H16334   9.629   5.183   6.112 -1.5161 -0.7331 -3.9563
  862MOL0     H16335   9.737   5.051   5.953  1.1974 -0.4765 -0.8185
  862MOL0     H16336   9.691   4.883   5.793  0.1652 -1.6559 -4.1899
  862MOL0     H16337   9.869   4.883   5.823 -0.6734  0.4131 -1.4115
  862MOL0     H16338   9.844   4.635   5.792  2.0412  1.9980 -1.3595
  862MOL0     H16339   9.668   4.670   5.745 -0.7119 -0.0354 -4.0365
  862MOL0     H16340   9.808   4.631   5.549 -1.4433 -1.5517  2.8881
  862MOL0     H16341   9.922   4.755   5.601  0.2110 -3.3942  0.2187
  862MOL0     H16342   9.623   4.801   5.534 -1.1571  0.9812 -4.9463
  862MOL0     H16343   9.725   4.933   5.593 -2.4020  0.9330 -2.4342
  862MOL0     H16344   9.753   4.800   5.318  2.8531 -0.9314 -0.2870
  862MOL0     H16345   9.880   4.897   5.398  0.9404 -0.0621 -1.6446
  862MOL0     H16346   9.598   5.001   5.364 -0.2586 -0.1465 -5.4700
  862MOL0     H16347   9.749   5.081   5.426 -0.8341  1.5422 -0.6705
  862MOL0     H16348   9.758   4.944   5.146 -0.8015 -2.2138  2.1525
  862MOL0     H16349   9.862   5.068   5.201  0.3849 -2.2307  0.0827
  862MOL0     H16350   9.732   5.216   5.085 -2.0819  0.7301 -0.2728
  862MOL0     H16351   9.657   5.223   5.231  0.8107  4.0536 -2.4724
  862MOL0     H16352   9.685   4.686   6.187 -1.5246 -0.0280  2.8123
  862MOL0     H16353   9.584   4.839   6.365  0.7198 -0.1832  0.5759
  862MOL0     H16354   9.459   5.155   6.550  1.8328  1.7954 -0.3389
  862MOL0     H16355   9.384   5.323   6.717 -2.0988 -3.5400  1.9589
  862MOL0     H16356  10.729   6.526   6.887 -0.2869 -0.1562  0.1435
  862MOL0     H16357  10.943   6.445   6.863  0.4566  0.0460  1.1080
  862MOL0     H16358  11.232   6.161   6.704 -0.9215 -0.3749  0.1093
  862MOL0     H16359  11.465   6.082   6.691 -0.7256  1.6229 -0.9285
  862MOL0     H16360  11.690   5.888   6.705 -0.8630  1.4930 -0.4921
  862MOL0     H16361  11.687   6.058   6.743  1.8677 -0.0367 -1.5540
  862MOL0     H16362  11.839   6.008   6.952  0.6026 -0.0573  0.3798
  862MOL0     H16363  11.917   5.954   6.806  0.0555  2.0266 -0.0431
  862MOL0     H16364  11.817   5.725   6.845  0.7841 -0.8144  0.1914
  862MOL0     H16365  11.776   5.782   7.005 -0.5526  3.1493  0.1273
  862MOL0     H16366  11.976   5.685   7.047  1.0700  0.1369  0.3583
  862MOL0     H16367  12.013   5.849   7.044 -0.0176 -0.4205  1.9536
  862MOL0     H16368  12.243   5.694   6.711 -1.9415 -0.5359 -1.3985
  862MOL0     H16369  11.426   5.893   7.056  0.6562  0.6410  0.6182
  862MOL0     H16370  11.193   5.972   7.090 -4.5674  0.9087 -1.3284
  863MOL0     O16371   6.574   9.494  10.277 -0.1751 -0.7928 -0.4529
  863MOL0     C16372   6.624   9.438  10.178 -0.1123 -0.7465 -0.3751
  863MOL0     O16373   6.625   9.307  10.162 -0.0325 -0.1142  0.0152
  863MOL0     C16374   6.566   9.223  10.253  1.1103 -0.9265  1.3056
  863MOL0     C16375   6.637   9.144  10.323 -0.5959  0.6586 -0.3706
  863MOL0     C16376   6.579   9.042  10.403 -0.6400  0.5774 -0.0654
  863MOL0     C16377   6.440   9.023  10.412  0.4044 -0.5915  0.2734
  863MOL0     O16378   6.390   8.943  10.509  1.1689 -0.7765 -0.0498
  863MOL0     C16379   6.397   8.799  10.502 -0.1051  0.2059 -0.7776
  863MOL0     C16380   6.361   8.743  10.359 -0.7705  0.0244 -0.0233
  863MOL0     C16381   6.223   8.776  10.302  0.0582 -0.5450  0.1212
  863MOL0     C16382   6.221   8.748  10.154  0.2483 -0.5447 -0.5920
  863MOL0     C16383   6.084   8.778  10.077 -0.1294  0.3401 -0.2397
  863MOL0     C16384   5.957   8.710  10.152 -0.1389  0.0867 -0.2159
  863MOL0     C16385   5.829   8.720  10.074  0.2753  0.1852  0.6361
  863MOL0     C16386   5.720   8.654  10.162 -0.1213 -0.1111  0.5137
  863MOL0     N16387   5.702   8.726  10.288 -0.3253  0.6198  1.0893
  863MOL0     C16388   5.689   8.859  10.296  0.3784 -0.9742 -0.5846
  863MOL0     C16389   5.709   8.883  10.429  0.3978  0.0080 -0.0317
  863MOL0     C16390   5.718   9.020  10.491  0.1641 -0.0487  0.2689
  863MOL0     C16391   5.802   9.120  10.412  0.9528  0.4391 -0.7930
  863MOL0     C16392   5.944   9.148  10.475  0.5219 -0.0524 -0.8039
  863MOL0     C16393   6.011   9.267  10.415 -0.3378 -0.1404  0.0394
  863MOL0     O16394   6.043   9.221  10.289  0.1470 -0.8237  0.2028
  863MOL0     C16395   6.091   9.306  10.188  0.3683 -1.1953  0.7729
  863MOL0     C16396   6.135   9.251  10.065 -0.2840 -0.0570 -0.6358
  863MOL0     C16397   6.192   9.325   9.954  0.0104  0.5596  0.9934
  863MOL0     C16398   6.244   9.249   9.831 -0.3507 -0.9556  0.2984
  863MOL0     C16399   6.194   9.474   9.962 -0.4702  0.7294  0.6182
  863MOL0     C16400   6.251   9.574   9.855  0.4943  0.0078 -0.4517
  863MOL0     O16401   6.248   9.701   9.894 -0.2125 -0.9304 -0.3210
  863MOL0     C16402   6.300   9.789   9.802 -0.2361  1.0568  0.1350
  863MOL0     C16403   6.224   9.895   9.767  0.2738  0.0541  0.1673
  863MOL0     C16404   6.288   9.996   9.690 -0.4238  0.6959 -0.0920
  863MOL0     C16405   6.416   9.976   9.639 -0.6164  0.4087  0.4008
  863MOL0     O16406   6.456  10.086   9.564 -0.7592  0.3154  0.4409
  863MOL0     C16407   6.586  10.072   9.497 -0.2901  0.8732  0.1168
  863MOL0     C16408   6.614  10.206   9.439 -0.4361 -0.0809  0.8734
  863MOL0     C16409   6.621  10.320   9.540 -1.1038  0.1484  0.2081
  863MOL0     C16410   6.685  10.442   9.461 -0.6095  0.1976  0.0489
  863MOL0     C16411   6.711  10.576   9.534 -0.7868 -0.2046 -0.1301
  863MOL0     C16412   6.621  10.601   9.662 -0.2181  0.0820  0.5030
  863MOL0     C16413   6.491  10.681   9.620 -1.2687 -0.0917 -0.2876
  863MOL0     C16414   6.371  10.642   9.706  0.0232  0.4480 -0.5089
  863MOL0    Cl16415   6.235  10.736   9.662  0.1913 -0.1799  0.2994
  863MOL0     C16416   6.482   9.858   9.657  0.3468 -1.3415  0.5439
  863MOL0     C16417   6.425   9.761   9.738  0.4264  0.0027 -0.0003
  863MOL0     O16418   6.284   9.528   9.744 -0.4858 -0.7100 -0.4703
  863MOL0     C16419   6.140   9.523  10.084 -0.5717  0.4623  0.5056
  863MOL0     C16420   6.092   9.446  10.186 -0.4234 -0.1640  0.4310
  863MOL0     N16421   5.711   8.757  10.495  0.2692  0.1076  0.4104
  863MOL0     N16422   5.731   8.661  10.406 -0.0820 -0.1482 -0.4659
  863MOL0     C16423   6.361   9.121  10.342  0.0137  1.7161  0.7398
  863MOL0     C16424   6.429   9.216  10.252  0.0329  0.5982  0.3548
  863MOL0     C16425   6.688   9.518  10.075 -0.5763  0.1443  0.9531
  863MOL0     C16426   6.713   9.455   9.947 -0.3489  0.0688  0.0206
  863MOL0     C16427   6.778   9.533   9.843  0.4578  0.3969 -0.4254
  863MOL0     C16428   6.824   9.667   9.871  0.0318  0.1417 -0.1760
  863MOL0     O16429   6.903   9.744   9.789 -0.1727 -0.1485  0.3314
  863MOL0     C16430   6.872   9.723   9.650  0.5933 -0.1387  0.0131
  863MOL0     C16431   6.912   9.828   9.557  0.2690 -0.3405  0.1806
  863MOL0     C16432   6.844   9.823   9.414  0.2690  0.4208  0.0962
  863MOL0     C16433   6.899   9.935   9.326  0.4535  0.6584  0.0626
  863MOL0     C16434   6.828   9.942   9.198 -0.0327 -0.2183 -0.3763
  863MOL0     C16435   6.790   9.914   9.090 -0.3967 -0.4897 -0.4464
  863MOL0     C16436   6.808   9.714  10.004  0.5995  0.3310  0.2744
  863MOL0     C16437   6.730   9.646  10.098  0.7867  0.2739 -0.0809
  863MOL0     H16438   6.745   9.137  10.315 -0.7408 -2.4105 -0.5277
  863MOL0     H16439   6.647   8.980  10.459  0.9229  4.8065  3.3081
  863MOL0     H16440   6.500   8.765  10.519 -0.9848 -2.4006 -0.3335
  863MOL0     H16441   6.324   8.756  10.570  0.1236 -0.1774 -0.7742
  863MOL0     H16442   6.433   8.786  10.290 -1.4462 -1.2812 -1.6149
  863MOL0     H16443   6.370   8.634  10.361  1.8764  0.1588  2.5723
  863MOL0     H16444   6.143   8.718  10.350  1.8620 -2.7525  0.6125
  863MOL0     H16445   6.204   8.883  10.315  1.7928  0.4972 -4.2096
  863MOL0     H16446   6.298   8.812  10.111  0.0427 -0.5225 -0.9258
  863MOL0     H16447   6.242   8.641  10.150  0.7155 -0.6466  2.3619
  863MOL0     H16448   6.072   8.886  10.064 -0.8937  0.3241  0.2789
  863MOL0     H16449   6.111   8.746   9.976  0.0083 -0.4197  0.0307
  863MOL0     H16450   5.976   8.604  10.174  0.1440  0.7120  3.2011
  863MOL0     H16451   5.947   8.770  10.244 -1.0383  0.6090 -0.6369
  863MOL0     H16452   5.811   8.825  10.047  3.1358  0.6255  0.0455
  863MOL0     H16453   5.817   8.673   9.976 -2.2585  3.2418 -0.7134
  863MOL0     H16454   5.760   8.554  10.179  0.9455 -0.4261 -3.1251
  863MOL0     H16455   5.628   8.642  10.106 -0.1832  2.7616 -0.1505
  863MOL0     H16456   5.690   8.923  10.208  3.7271  0.6373  0.4808
  863MOL0     H16457   5.614   9.052  10.502  0.8668  1.8897  1.7514
  863MOL0     H16458   5.745   8.996  10.594 -2.8210 -2.1744  0.7104
  863MOL0     H16459   5.746   9.214  10.415 -1.8944 -1.1439 -0.3420
  863MOL0     H16460   5.821   9.083  10.311 -0.1285  4.8387 -2.8312
  863MOL0     H16461   6.012   9.064  10.456  1.6593  0.6370  0.0603
  863MOL0     H16462   5.929   9.147  10.583  0.3039 -0.7751 -0.8352
  863MOL0     H16463   6.102   9.284  10.473  0.1270  1.0228 -0.9892
  863MOL0     H16464   5.943   9.353  10.419 -0.5032 -0.0367 -2.7923
  863MOL0     H16465   6.144   9.142  10.063  2.0872  0.0743 -2.6540
  863MOL0     H16466   6.351   9.271   9.832 -0.3780 -0.6679 -1.0305
  863MOL0     H16467   6.209   9.147   9.845 -2.3272 -0.1644  1.6395
  863MOL0     H16468   6.214   9.291   9.734  1.5881  2.1913  0.8987
  863MOL0     H16469   6.123   9.907   9.805 -1.2410 -0.6462 -3.2519
  863MOL0     H16470   6.232  10.085   9.664  1.3922  1.9609  0.1810
  863MOL0     H16471   6.668  10.057   9.568 -0.0704  0.4910 -0.2110
  863MOL0     H16472   6.590   9.992   9.422 -1.9034  0.1402  0.7844
  863MOL0     H16473   6.711  10.186   9.393  0.2587  0.5261  2.0372
  863MOL0     H16474   6.544  10.228   9.357  0.7326  2.2875  0.4042
  863MOL0     H16475   6.687  10.295   9.623  1.9038  1.7995 -1.5317
  863MOL0     H16476   6.521  10.344   9.576 -1.2095 -1.6493  1.2129
  863MOL0     H16477   6.776  10.407   9.411  0.7295 -0.7599  2.9436
  863MOL0     H16478   6.621  10.467   9.375 -3.4683  0.2262  2.0427
  863MOL0     H16479   6.719  10.664   9.470  1.4690 -0.8978 -0.8963
  863MOL0     H16480   6.813  10.564   9.573 -0.4058  3.0205  0.1620
  863MOL0     H16481   6.593  10.502   9.698  2.1591 -2.3653 -3.5550
  863MOL0     H16482   6.674  10.664   9.733  0.7465 -2.4717  2.2066
  863MOL0     H16483   6.463  10.661   9.516 -2.4847 -0.6852  0.1317
  863MOL0     H16484   6.522  10.785   9.635  1.8148 -1.0892  1.1636
  863MOL0     H16485   6.385  10.665   9.812  1.8169 -0.8327 -0.4124
  863MOL0     H16486   6.356  10.534   9.699  1.2278  0.3593 -2.4302
  863MOL0     H16487   6.581   9.843   9.616 -0.1393 -1.0362 -0.7946
  863MOL0     H16488   6.481   9.675   9.773  0.3851  0.2372  0.6555
  863MOL0     H16489   6.130   9.630  10.099  0.5576  0.6585 -0.0337
  863MOL0     H16490   6.064   9.500  10.276  0.0020  0.1370  0.3892
  863MOL0     H16491   6.255   9.136  10.356 -0.1188  0.6407  0.8997
  863MOL0     H16492   6.369   9.286  10.195 -1.1464  0.3961  1.3111
  863MOL0     H16493   6.674   9.355   9.933  0.2994 -0.9564  4.0955
  863MOL0     H16494   6.803   9.482   9.751  5.8408 -0.5062  1.1806
  863MOL0     H16495   6.920   9.629   9.619 -0.9217 -0.3359 -1.9732
  863MOL0     H16496   6.763   9.714   9.638  0.6448  1.1448 -1.7711
  863MOL0     H16497   7.020   9.817   9.554  0.1861 -1.6572  0.9889
  863MOL0     H16498   6.882   9.925   9.598 -2.5881 -1.2662  0.5285
  863MOL0     H16499   6.734   9.821   9.419  0.2598 -0.6703 -0.2490
  863MOL0     H16500   6.871   9.727   9.369 -0.4550  1.2759 -2.3033
  863MOL0     H16501   7.006   9.922   9.306 -0.0861 -2.1791 -1.6457
  863MOL0     H16502   6.885  10.031   9.377 -0.1916  0.7543 -0.2867
  863MOL0     H16503   6.734   9.898   9.000  0.4080 -2.5625 -0.6423
  863MOL0     H16504   6.860   9.805  10.032  4.2125 -0.0524 -3.9818
  863MOL0     H16505   6.706   9.690  10.195  3.1027  0.9222  0.2657
  864MOL0     O16506   2.965   5.202   6.516 -0.2255 -0.3408 -0.0070
  864MOL0     C16507   3.042   5.215   6.422 -0.0053  0.1953  0.6540
  864MOL0     O16508   3.003   5.224   6.292 -0.2006  0.8486 -0.6406
  864MOL0     C16509   2.870   5.214   6.253 -1.1628 -0.5765  0.3669
  864MOL0     C16510   2.823   5.283   6.145 -0.3460 -0.0463  0.1657
  864MOL0     C16511   2.689   5.281   6.104  0.5295 -0.2173 -0.1012
  864MOL0     C16512   2.589   5.204   6.167  0.9699  0.2351 -0.7096
  864MOL0     O16513   2.457   5.212   6.132 -0.2448 -0.1879  0.9757
  864MOL0     C16514   2.359   5.118   6.196 -0.5810  0.3540 -0.2925
  864MOL0     C16515   2.228   5.133   6.121  0.1750  0.6282  0.5167
  864MOL0     C16516   2.120   5.057   6.204 -0.0089 -0.6153 -0.3979
  864MOL0     C16517   1.987   5.047   6.128  0.9449 -0.5067 -0.1545
  864MOL0     C16518   1.878   4.973   6.210  0.6912  0.0794  0.0774
  864MOL0     C16519   1.751   4.933   6.130  0.2520 -0.0624 -0.0256
  864MOL0     C16520   1.680   5.050   6.062 -0.3424  0.0276  0.3304
  864MOL0     C16521   1.537   5.004   6.019  0.7979  0.3708  0.0459
  864MOL0     N16522   1.461   5.127   5.973 -0.4475  0.2734 -0.2050
  864MOL0     C16523   1.335   5.126   5.949  0.4442 -0.4555  0.3003
  864MOL0     C16524   1.306   5.245   5.886 -0.1062 -0.3859 -0.5576
  864MOL0     C16525   1.174   5.278   5.819 -0.8834  0.4005 -0.0072
  864MOL0     C16526   1.079   5.367   5.902 -0.8854  0.3275 -0.1142
  864MOL0     C16527   0.957   5.425   5.836  0.0281 -1.1213 -0.2538
  864MOL0     C16528   0.866   5.316   5.783 -0.8612  0.0135 -0.2351
  864MOL0     O16529   0.747   5.382   5.754  0.2388  0.1488  0.7598
  864MOL0     C16530   0.634   5.307   5.759  0.5263  0.2358  0.4114
  864MOL0     C16531   0.622   5.178   5.692  0.4234  0.6409  0.2616
  864MOL0     C16532   0.493   5.104   5.707 -0.6927 -0.2336 -0.3152
  864MOL0     C16533   0.475   4.976   5.640  0.1955  0.3666  0.3573
  864MOL0     C16534   0.384   5.172   5.777  0.5047  0.4543 -0.3977
  864MOL0     C16535   0.252   5.110   5.799  0.4748 -0.5597 -0.3039
  864MOL0     O16536   0.174   5.148   5.906 -0.4180 -0.3619 -0.3344
  864MOL0     C16537   0.063   5.083   5.933  0.4922 -0.1320 -0.3549
  864MOL0     C16538   0.062   4.943   5.961 -0.1073 -0.9725  1.0548
  864MOL0     C16539  -0.048   4.887   6.028  1.0749  0.1247 -0.4645
  864MOL0     C16540  -0.162   4.964   6.050 -0.3827  0.1381  0.4627
  864MOL0     O16541  -0.270   4.918   6.107  0.2145  0.7791 -0.5840
  864MOL0     C16542  -0.320   4.784   6.068 -0.1369  0.0031 -0.3794
  864MOL0     C16543  -0.377   4.706   6.190  1.5114  0.1777  0.4991
  864MOL0     C16544  -0.455   4.803   6.274 -0.1652  0.2583 -0.4884
  864MOL0     C16545  -0.525   4.727   6.388  0.6571  0.6594 -0.2050
  864MOL0     C16546  -0.570   4.816   6.505  0.4284 -0.3671 -0.5253
  864MOL0     C16547  -0.711   4.860   6.476 -0.0307 -0.0277 -0.4991
  864MOL0     C16548  -0.757   4.960   6.589 -0.5112  0.2942  0.8994
  864MOL0     C16549  -0.884   5.036   6.539 -0.0382 -0.2143 -0.7597
  864MOL0    Cl16550  -1.024   4.921   6.538 -0.1063  0.5434 -0.5477
  864MOL0     C16551  -0.154   5.096   6.025 -0.2963 -0.4406 -0.1562
  864MOL0     C16552  -0.051   5.158   5.960  0.5072 -0.7269  0.4752
  864MOL0     O16553   0.210   5.030   5.710 -1.0960  0.3239 -0.3509
  864MOL0     C16554   0.405   5.297   5.843 -0.4313 -0.7789  0.6865
  864MOL0     C16555   0.530   5.360   5.831  0.3809 -0.5290  0.1402
  864MOL0     N16556   1.423   5.315   5.886 -0.5518 -0.3308  0.0920
  864MOL0     N16557   1.511   5.246   5.946 -1.1328 -0.5901  0.3643
  864MOL0     C16558   2.638   5.123   6.269 -1.0032 -0.8646 -0.1596
  864MOL0     C16559   2.774   5.127   6.307 -0.7386 -0.3655 -0.4671
  864MOL0     C16560   3.184   5.196   6.457 -0.5288 -0.1032 -0.0726
  864MOL0     C16561   3.279   5.228   6.355 -0.2533  0.0610 -0.2990
  864MOL0     C16562   3.414   5.197   6.375  0.1555 -0.1860  0.3895
  864MOL0     C16563   3.454   5.142   6.500 -0.1908  0.0800 -1.0930
  864MOL0     O16564   3.593   5.118   6.514 -0.4128 -0.6485  0.0671
  864MOL0     C16565   3.636   5.022   6.606 -0.0232  0.1182  0.2525
  864MOL0     C16566   3.791   4.992   6.610  0.9606  0.6734 -0.5329
  864MOL0     C16567   3.841   4.869   6.681 -0.6957  0.8780 -1.0263
  864MOL0     C16568   3.986   4.901   6.732 -0.5287  0.1216 -0.9246
  864MOL0     C16569   4.085   4.928   6.627 -0.0586  0.4159 -0.1454
  864MOL0     C16570   4.168   4.952   6.538 -0.6335 -0.4146 -0.6367
  864MOL0     C16571   3.359   5.131   6.602 -0.6058 -0.3276  0.7283
  864MOL0     C16572   3.224   5.155   6.584 -0.4943 -0.2063 -1.0884
  864MOL0     H16573   2.880   5.357   6.089  1.4802 -2.8655 -2.0060
  864MOL0     H16574   2.659   5.347   6.023 -0.9000  1.8658  2.0255
  864MOL0     H16575   2.391   5.014   6.188 -2.2739 -0.0911 -2.4315
  864MOL0     H16576   2.339   5.141   6.301  2.3073 -0.6453  0.5525
  864MOL0     H16577   2.203   5.238   6.104 -1.8174  0.1171 -0.0871
  864MOL0     H16578   2.241   5.094   6.020  0.0073  0.6833  0.4734
  864MOL0     H16579   2.158   4.956   6.225 -0.0472 -0.5396  0.0393
  864MOL0     H16580   2.093   5.111   6.295  0.3988  2.5562 -2.0116
  864MOL0     H16581   1.952   5.148   6.105 -1.3828 -1.0997  0.5716
  864MOL0     H16582   2.000   4.991   6.034 -0.6767 -1.9745  0.4545
  864MOL0     H16583   1.920   4.878   6.244 -0.6515 -1.2165 -1.6964
  864MOL0     H16584   1.850   5.040   6.292  2.4200 -0.3062  1.0441
  864MOL0     H16585   1.779   4.869   6.045 -0.2665  0.6554 -0.7521
  864MOL0     H16586   1.682   4.868   6.186 -0.6383 -0.0921 -1.1057
  864MOL0     H16587   1.670   5.130   6.137  2.2125  0.4883  0.3005
  864MOL0     H16588   1.740   5.079   5.975  1.0475 -1.4748  0.7345
  864MOL0     H16589   1.482   4.955   6.100  0.3760 -0.9769 -1.0347
  864MOL0     H16590   1.537   4.933   5.937 -3.8145 -1.2956  1.2421
  864MOL0     H16591   1.268   5.042   5.963  2.0475 -1.6703  1.0169
  864MOL0     H16592   1.194   5.335   5.728 -1.7013 -1.5021 -1.4579
  864MOL0     H16593   1.133   5.183   5.784 -1.5924  0.5768  0.3060
  864MOL0     H16594   1.138   5.454   5.933  1.7967 -0.4858 -2.5079
  864MOL0     H16595   1.045   5.310   5.989 -1.1725  0.0130 -0.4328
  864MOL0     H16596   0.995   5.492   5.758  2.0650 -1.2177  0.5914
  864MOL0     H16597   0.911   5.485   5.915  1.3858 -0.7387  0.2772
  864MOL0     H16598   0.863   5.237   5.859 -1.7820 -0.2705 -0.5506
  864MOL0     H16599   0.906   5.277   5.689  0.7798  2.5756 -0.6917
  864MOL0     H16600   0.710   5.132   5.648  0.9894  0.1968  1.7766
  864MOL0     H16601   0.572   4.937   5.606 -0.0630 -0.1112  0.1501
  864MOL0     H16602   0.430   4.911   5.716 -2.9504  2.9315  0.9120
  864MOL0     H16603   0.402   4.991   5.560  1.0621  1.7365 -0.2045
  864MOL0     H16604   0.161   4.904   5.941 -0.2774 -0.2797 -1.4684
  864MOL0     H16605  -0.045   4.783   6.057  1.6638  0.3235  0.2156
  864MOL0     H16606  -0.404   4.806   6.001  0.3690  0.7823 -0.7677
  864MOL0     H16607  -0.258   4.709   6.019 -1.3077 -1.1023 -0.2304
  864MOL0     H16608  -0.444   4.628   6.153  2.0363  0.5751 -1.4117
  864MOL0     H16609  -0.294   4.666   6.249  1.4283  1.7332  1.7228
  864MOL0     H16610  -0.524   4.859   6.211  0.3543  2.0127  0.4394
  864MOL0     H16611  -0.383   4.877   6.312  0.4321  0.8139 -2.5775
  864MOL0     H16612  -0.609   4.670   6.345 -0.7572  3.6351 -1.7036
  864MOL0     H16613  -0.453   4.654   6.426  0.1650  1.0637  1.5795
  864MOL0     H16614  -0.500   4.899   6.520 -0.2569  0.4395 -1.6325
  864MOL0     H16615  -0.574   4.754   6.595  1.6083 -1.5526 -1.2603
  864MOL0     H16616  -0.704   4.916   6.383 -1.3915 -0.1916 -0.7211
  864MOL0     H16617  -0.782   4.780   6.456  0.6416 -1.6819  2.8630
  864MOL0     H16618  -0.680   5.034   6.610 -0.1710  0.4213 -0.6753
  864MOL0     H16619  -0.774   4.904   6.681 -0.4117  0.3747  0.9669
  864MOL0     H16620  -0.878   5.070   6.435 -1.7966  0.5240 -0.6572
  864MOL0     H16621  -0.899   5.125   6.600  2.4233 -0.8495  0.9425
  864MOL0     H16622  -0.243   5.158   6.032  0.8050  1.1645  0.1239
  864MOL0     H16623  -0.055   5.261   5.927 -0.9493 -0.8633  0.1536
  864MOL0     H16624   0.324   5.342   5.900  1.9834  1.5885  2.4963
  864MOL0     H16625   0.541   5.450   5.891  0.6067  2.8734 -4.4971
  864MOL0     H16626   2.584   5.056   6.335 -0.9371  0.8273  1.7112
  864MOL0     H16627   2.803   5.072   6.396  1.6929  1.8308  0.2370
  864MOL0     H16628   3.252   5.261   6.255  2.5380  1.1329 -0.7848
  864MOL0     H16629   3.485   5.227   6.298  0.3315 -0.9393  0.2498
  864MOL0     H16630   3.606   5.059   6.705  2.7942 -0.1492  1.3290
  864MOL0     H16631   3.581   4.931   6.585  1.3158 -0.9741  1.2623
  864MOL0     H16632   3.832   5.086   6.647  0.1868 -0.3263  3.2369
  864MOL0     H16633   3.816   4.972   6.505 -1.1607  1.1346 -1.1797
  864MOL0     H16634   3.835   4.777   6.622 -1.2434  0.5004 -0.3904
  864MOL0     H16635   3.791   4.834   6.771  0.5893 -1.4267 -1.1193
  864MOL0     H16636   4.023   4.811   6.781 -0.7897  0.1519 -0.6697
  864MOL0     H16637   3.993   4.975   6.813  1.9629  0.9012 -1.7465
  864MOL0     H16638   4.233   4.957   6.452 -3.6863 -0.8199 -3.1398
  864MOL0     H16639   3.396   5.096   6.698  0.0462  1.2087  1.0649
  864MOL0     H16640   3.152   5.147   6.665  0.2952 -2.1444 -0.5089
  865MOL0     O16641  10.940   5.131   6.319  0.4264  0.3590 -0.1186
  865MOL0     C16642  10.960   5.249   6.299 -0.5549  0.5884  0.5290
  865MOL0     O16643  10.865   5.337   6.277 -0.0856 -0.5485 -0.5697
  865MOL0     C16644  10.729   5.307   6.246  0.2669 -1.1155  0.4327
  865MOL0     C16645  10.631   5.400   6.281 -0.2234 -0.0096  0.3050
  865MOL0     C16646  10.499   5.368   6.268 -0.4310  0.0978 -0.3453
  865MOL0     C16647  10.449   5.249   6.218  0.5952 -0.1641 -0.2273
  865MOL0     O16648  10.314   5.242   6.203 -0.0381  1.3317 -0.3009
  865MOL0     C16649  10.248   5.114   6.174  0.1596  0.3524  0.9686
  865MOL0     C16650  10.098   5.119   6.212  0.7665 -0.2021  0.4491
  865MOL0     C16651  10.071   5.088   6.357 -0.5256 -0.3223  1.5936
  865MOL0     C16652   9.921   5.093   6.369 -0.5044  0.2510  0.7934
  865MOL0     C16653   9.875   5.060   6.508 -0.2675 -0.4902 -0.1967
  865MOL0     C16654   9.923   5.161   6.617 -0.3688 -1.4649 -0.8276
  865MOL0     C16655   9.851   5.124   6.750  0.3771 -0.4736 -1.2431
  865MOL0     C16656   9.900   5.003   6.831  0.0538  0.1785  0.0458
  865MOL0     N16657   9.850   4.994   6.972  0.3155  0.3286 -0.0272
  865MOL0     C16658   9.808   4.875   7.028 -0.0440 -0.4461 -0.2378
  865MOL0     C16659   9.817   4.903   7.160  0.2038 -0.6018  0.1728
  865MOL0     C16660   9.805   4.804   7.260 -0.2134  0.4878 -0.7385
  865MOL0     C16661   9.679   4.714   7.244 -0.9696 -0.7384  0.5005
  865MOL0     C16662   9.674   4.622   7.366 -0.3152  0.2718 -0.2890
  865MOL0     C16663   9.557   4.519   7.374 -0.3032  0.0968 -0.6033
  865MOL0     O16664   9.461   4.585   7.445  0.3392 -0.0841 -0.4180
  865MOL0     C16665   9.334   4.527   7.462  0.2245 -1.1670 -0.1723
  865MOL0     C16666   9.292   4.399   7.447 -0.1221  0.9896 -0.1159
  865MOL0     C16667   9.149   4.363   7.450 -0.9693 -0.0080  1.2239
  865MOL0     C16668   9.117   4.217   7.441  0.1303  0.8019 -0.2380
  865MOL0     C16669   9.057   4.467   7.465  0.1394  0.3265 -0.1142
  865MOL0     C16670   8.913   4.446   7.468  0.3411 -0.2303 -0.3476
  865MOL0     O16671   8.853   4.463   7.588 -0.2464 -0.4458  0.9670
  865MOL0     C16672   8.718   4.429   7.594  0.7029  0.2272 -0.1230
  865MOL0     C16673   8.614   4.510   7.546 -0.1485 -0.3182  0.0605
  865MOL0     C16674   8.476   4.461   7.559 -0.1244 -0.3966  0.5312
  865MOL0     C16675   8.441   4.348   7.636  0.4213  0.2119  0.4796
  865MOL0     O16676   8.314   4.304   7.643 -0.0534 -0.3120 -0.0208
  865MOL0     C16677   8.211   4.395   7.684  0.0809  0.0260 -0.4068
  865MOL0     C16678   8.101   4.314   7.740 -0.4705 -0.1491  0.3088
  865MOL0     C16679   8.046   4.204   7.644  0.3999 -0.8010 -0.1014
  865MOL0     C16680   7.954   4.095   7.713 -0.7053 -0.2364  0.9400
  865MOL0     C16681   8.039   3.974   7.758 -0.0504  0.0895  0.6565
  865MOL0     C16682   8.104   3.881   7.659  0.9632 -0.5139 -0.7874
  865MOL0     C16683   8.115   3.739   7.708  0.1475 -0.4855 -0.1607
  865MOL0     C16684   7.983   3.670   7.673 -0.0338  0.1252  0.6825
  865MOL0    Cl16685   7.995   3.501   7.751  0.0210 -0.3098 -0.4691
  865MOL0     C16686   8.548   4.273   7.679 -0.8390  0.0358  0.1972
  865MOL0     C16687   8.685   4.311   7.660 -0.6365  1.0098  0.9071
  865MOL0     O16688   8.868   4.410   7.359 -0.0581 -0.4627 -0.4948
  865MOL0     C16689   9.101   4.601   7.460  0.4080 -0.5111 -0.6649
  865MOL0     C16690   9.236   4.624   7.454 -0.3521  0.4872  1.3919
  865MOL0     N16691   9.861   5.033   7.178  0.2408 -0.1297 -0.1585
  865MOL0     N16692   9.882   5.091   7.064 -0.3223 -0.0543  0.3567
  865MOL0     C16693  10.540   5.162   6.173 -0.0016  0.2024  0.3638
  865MOL0     C16694  10.676   5.189   6.185  0.6256 -0.1291  0.2705
  865MOL0     C16695  11.101   5.301   6.322  0.6175 -0.7212  0.2704
  865MOL0     C16696  11.203   5.220   6.361 -0.8232 -0.2764  0.5919
  865MOL0     C16697  11.331   5.274   6.378  0.1735  0.2591 -0.5127
  865MOL0     C16698  11.350   5.414   6.371 -1.2263  0.2499 -0.0160
  865MOL0     O16699  11.462   5.486   6.408 -0.5080 -0.2201 -0.1941
  865MOL0     C16700  11.572   5.417   6.476 -0.0256 -0.3367  0.1915
  865MOL0     C16701  11.682   5.373   6.384  0.0941  0.3050 -0.3977
  865MOL0     C16702  11.797   5.319   6.479  0.6569  1.3537  0.1870
  865MOL0     C16703  11.886   5.431   6.516 -0.2061 -0.8541 -0.7053
  865MOL0     C16704  12.011   5.374   6.571 -0.1289 -0.7271  1.1181
  865MOL0     C16705  12.106   5.319   6.616 -0.0659 -0.3580 -0.1613
  865MOL0     C16706  11.250   5.491   6.326  1.3665  0.4487 -0.4546
  865MOL0     C16707  11.126   5.440   6.293  0.0071  0.6622 -0.3429
  865MOL0     H16708  10.650   5.499   6.319 -0.4065 -0.2340  1.0029
  865MOL0     H16709  10.422   5.444   6.280  2.0185  3.3371 -2.9037
  865MOL0     H16710  10.253   5.090   6.067  0.2704 -0.8295  1.2320
  865MOL0     H16711  10.287   5.026   6.226  0.8973 -0.7030 -1.2416
  865MOL0     H16712  10.048   5.215   6.192 -2.9261 -2.1442 -0.4795
  865MOL0     H16713  10.043   5.058   6.141  1.3014 -1.2067  0.8808
  865MOL0     H16714  10.103   4.989   6.389  1.8519  0.2154  1.0867
  865MOL0     H16715  10.118   5.170   6.412 -0.6854  0.6809  0.2863
  865MOL0     H16716   9.886   5.190   6.335 -1.0205 -1.5243 -4.7888
  865MOL0     H16717   9.889   5.028   6.287 -0.1074  1.6806 -0.5295
  865MOL0     H16718   9.766   5.067   6.505 -0.1716  1.3448 -2.2997
  865MOL0     H16719   9.917   4.965   6.542  0.0672  0.5336  2.4786
  865MOL0     H16720  10.032   5.159   6.632 -0.8168 -1.2926  4.0530
  865MOL0     H16721   9.896   5.262   6.585  1.9222  0.1035  1.7198
  865MOL0     H16722   9.862   5.215   6.810 -1.0196 -0.4901 -0.9238
  865MOL0     H16723   9.744   5.116   6.730  0.2681 -0.0842 -0.8138
  865MOL0     H16724  10.009   5.009   6.831  0.2236 -1.4297 -2.4103
  865MOL0     H16725   9.879   4.910   6.778 -1.8855  0.5437  0.0796
  865MOL0     H16726   9.801   4.777   6.983 -1.2591 -0.7070  0.4634
  865MOL0     H16727   9.894   4.740   7.268 -0.5934  0.0533  0.1869
  865MOL0     H16728   9.805   4.856   7.357 -2.4789 -1.9175  0.7018
  865MOL0     H16729   9.694   4.659   7.151  0.7342  0.7711 -0.1610
  865MOL0     H16730   9.591   4.780   7.238  0.0011  0.7069  1.5003
  865MOL0     H16731   9.674   4.675   7.462 -0.0518 -3.3173  1.8857
  865MOL0     H16732   9.767   4.565   7.376 -0.7011 -0.0056  2.5510
  865MOL0     H16733   9.584   4.428   7.429  0.1909  0.6977  0.1808
  865MOL0     H16734   9.527   4.496   7.272  1.8417  2.5277 -1.9039
  865MOL0     H16735   9.376   4.332   7.428  0.0164  1.4884 -1.3454
  865MOL0     H16736   9.016   4.210   7.399 -1.1147  1.2728  2.4819
  865MOL0     H16737   9.175   4.159   7.369  0.2461 -0.7157  1.0500
  865MOL0     H16738   9.130   4.173   7.540 -0.4983 -4.8966 -2.3319
  865MOL0     H16739   8.633   4.610   7.508  0.3238 -0.7306 -0.8213
  865MOL0     H16740   8.393   4.520   7.521 -1.7862 -2.2153  1.1787
  865MOL0     H16741   8.253   4.458   7.762  1.0736  0.4988 -1.2962
  865MOL0     H16742   8.174   4.458   7.603  0.1937 -0.1730 -0.6168
  865MOL0     H16743   8.132   4.262   7.831 -1.8763  0.3892  1.1269
  865MOL0     H16744   8.015   4.377   7.765  0.6269  2.3045 -1.6292
  865MOL0     H16745   8.127   4.154   7.589  0.1357 -0.6020 -0.6851
  865MOL0     H16746   7.986   4.259   7.571  0.1558  0.1715  0.8087
  865MOL0     H16747   7.910   4.139   7.802 -3.0744  0.0125 -0.2740
  865MOL0     H16748   7.871   4.064   7.649 -1.1925 -0.4850  1.6897
  865MOL0     H16749   7.964   3.922   7.816 -0.0891  2.4385  2.9050
  865MOL0     H16750   8.119   4.009   7.824  1.7163  0.2937 -1.4742
  865MOL0     H16751   8.053   3.882   7.562 -1.1971  0.2339  0.2878
  865MOL0     H16752   8.202   3.927   7.639  0.6840 -0.0746 -1.1733
  865MOL0     H16753   8.141   3.740   7.814 -2.5754  3.1716  0.6671
  865MOL0     H16754   8.194   3.692   7.648 -0.2296 -1.3368  0.0015
  865MOL0     H16755   7.962   3.654   7.567 -0.3620 -1.7036  0.9771
  865MOL0     H16756   7.901   3.724   7.720 -2.5815 -1.2487 -1.8883
  865MOL0     H16757   8.526   4.177   7.725  1.5935 -0.6193  0.1587
  865MOL0     H16758   8.747   4.249   7.724  1.0775  0.8700 -0.7853
  865MOL0     H16759   9.034   4.686   7.455  1.2594  0.1561 -0.9290
  865MOL0     H16760   9.269   4.727   7.459 -0.4853  0.5914  0.2695
  865MOL0     H16761  10.502   5.074   6.123  2.1384  0.4461 -1.9212
  865MOL0     H16762  10.745   5.112   6.152  2.6478  0.9277  1.8125
  865MOL0     H16763  11.184   5.113   6.371  0.5235 -0.5595  0.3576
  865MOL0     H16764  11.409   5.203   6.402 -0.3772 -1.3580 -3.0839
  865MOL0     H16765  11.616   5.486   6.549  2.9890 -1.8841  0.0091
  865MOL0     H16766  11.539   5.333   6.538  1.5369 -3.1751 -2.5295
  865MOL0     H16767  11.720   5.455   6.321  2.1899  0.2495  0.6980
  865MOL0     H16768  11.644   5.288   6.326  1.0306 -1.7853  1.9145
  865MOL0     H16769  11.848   5.239   6.424  1.1213  1.3203  0.6573
  865MOL0     H16770  11.763   5.274   6.573 -2.0170 -4.0202 -2.8422
  865MOL0     H16771  11.837   5.487   6.595 -1.5402 -0.9797 -1.4164
  865MOL0     H16772  11.910   5.499   6.433 -2.1510  0.3463 -0.3512
  865MOL0     H16773  12.174   5.270   6.684 -1.1407 -2.3302 -0.4158
  865MOL0     H16774  11.271   5.596   6.307 -1.1192  0.6063 -3.0486
  865MOL0     H16775  11.040   5.500   6.266 -3.7000 -2.9051  2.3962
  866MOL0     O16776   8.086   3.066   0.663  0.8137  0.3821  0.3578
  866MOL0     C16777   8.046   3.176   0.609 -0.1213 -0.3880 -0.5801
  866MOL0     O16778   8.119   3.296   0.593  0.4222  0.0263 -0.4212
  866MOL0     C16779   8.245   3.294   0.643 -1.0071  0.2936  0.6235
  866MOL0     C16780   8.278   3.385   0.749 -0.0231  0.7248  0.3330
  866MOL0     C16781   8.416   3.404   0.773  0.2569  0.3146 -0.1357
  866MOL0     C16782   8.511   3.331   0.699  0.3980  0.6289  0.3577
  866MOL0     O16783   8.644   3.354   0.705 -0.8811 -0.7410  0.1260
  866MOL0     C16784   8.697   3.389   0.835 -0.4259 -0.0670  0.1505
  866MOL0     C16785   8.858   3.385   0.837  0.0725  0.8471 -0.3740
  866MOL0     C16786   8.916   3.462   0.718  0.5406 -0.3683  0.6489
  866MOL0     C16787   9.068   3.477   0.728 -0.6306  0.7135 -0.6745
  866MOL0     C16788   9.113   3.575   0.626 -0.4960  0.3905 -0.7433
  866MOL0     C16789   9.258   3.598   0.661  0.2383 -0.6059  0.0239
  866MOL0     C16790   9.322   3.703   0.576  1.0483  0.1047  0.1737
  866MOL0     C16791   9.271   3.850   0.610 -0.7364  0.4199  0.0589
  866MOL0     N16792   9.142   3.893   0.540  0.5912 -0.4675 -0.1309
  866MOL0     C16793   9.046   3.950   0.613  0.0688 -0.1136 -0.7067
  866MOL0     C16794   8.942   3.951   0.535 -0.2437 -0.2949  1.1076
  866MOL0     C16795   8.801   3.990   0.573 -1.0421 -0.3695  0.2940
  866MOL0     C16796   8.707   3.869   0.551 -0.5644  0.5516 -0.1741
  866MOL0     C16797   8.574   3.890   0.623  0.2524 -0.5456 -0.5915
  866MOL0     C16798   8.468   3.784   0.605  0.2826 -0.1530  0.4597
  866MOL0     O16799   8.356   3.848   0.668  0.6147  0.0963 -0.5755
  866MOL0     C16800   8.234   3.793   0.660  0.0277 -0.5131  0.1225
  866MOL0     C16801   8.128   3.869   0.721  0.7177  0.2087 -0.2480
  866MOL0     C16802   7.994   3.847   0.685  0.0437 -0.3224 -1.1485
  866MOL0     C16803   7.894   3.944   0.744  0.9959 -0.5092 -0.2989
  866MOL0     C16804   7.963   3.736   0.601  1.2294  0.5464 -0.9996
  866MOL0     C16805   7.819   3.712   0.565 -0.0260  0.1865 -0.0163
  866MOL0     O16806   7.746   3.820   0.522 -0.4306 -0.2658  0.5110
  866MOL0     C16807   7.616   3.794   0.491  0.1332  0.4830 -0.2299
  866MOL0     C16808   7.589   3.766   0.361  0.5014 -0.4674  0.7606
  866MOL0     C16809   7.461   3.733   0.323 -0.0831  0.2408  0.1495
  866MOL0     C16810   7.350   3.733   0.418  0.4609 -0.4401  0.1050
  866MOL0     O16811   7.219   3.700   0.376  0.7547  1.1307 -0.1608
  866MOL0     C16812   7.106   3.720   0.464  0.2648 -0.5617 -0.2957
  866MOL0     C16813   6.974   3.676   0.400 -0.1068  0.6966  0.0210
  866MOL0     C16814   6.953   3.522   0.369 -0.3289 -0.3084 -0.6598
  866MOL0     C16815   6.936   3.424   0.486  0.9510 -0.9575  0.5177
  866MOL0     C16816   6.808   3.455   0.570  0.4835 -1.1095  1.1069
  866MOL0     C16817   6.672   3.456   0.490 -0.1370 -0.6159  0.5694
  866MOL0     C16818   6.556   3.513   0.573 -0.3241 -0.0302 -0.0400
  866MOL0     C16819   6.429   3.526   0.489  0.8048 -0.7808 -0.1575
  866MOL0    Cl16820   6.278   3.547   0.611  0.2684 -0.0863  0.0136
  866MOL0     C16821   7.381   3.775   0.543 -0.1602  0.4399  0.1739
  866MOL0     C16822   7.514   3.796   0.579 -0.0980 -1.3204  0.0899
  866MOL0     O16823   7.769   3.600   0.590 -0.1734  0.4605 -0.0693
  866MOL0     C16824   8.063   3.651   0.553  0.1928 -1.3264 -0.0625
  866MOL0     C16825   8.200   3.692   0.577  0.3439 -0.8619 -0.4303
  866MOL0     N16826   8.971   3.895   0.412  0.0390  0.3408 -0.2899
  866MOL0     N16827   9.091   3.853   0.422 -0.7661  0.6331 -0.2751
  866MOL0     C16828   8.474   3.242   0.601 -0.5371 -0.3377 -0.4485
  866MOL0     C16829   8.340   3.231   0.565  0.0526 -0.0705 -0.1721
  866MOL0     C16830   7.899   3.179   0.560 -0.7190 -1.5536 -0.1240
  866MOL0     C16831   7.812   3.072   0.566  0.1138  1.2086 -0.7398
  866MOL0     C16832   7.678   3.079   0.516 -0.4619  0.0285 -0.2148
  866MOL0     C16833   7.625   3.197   0.458  0.3982 -0.4346 -1.3331
  866MOL0     O16834   7.496   3.185   0.421  0.3880 -0.7959 -0.9409
  866MOL0     C16835   7.442   3.301   0.357 -0.0650  0.2993 -0.5351
  866MOL0     C16836   7.305   3.273   0.293  0.1373 -0.1226  0.0016
  866MOL0     C16837   7.318   3.178   0.175 -0.9161  0.6276  0.2129
  866MOL0     C16838   7.192   3.140   0.103  0.2441  0.1962  0.6586
  866MOL0     C16839   7.126   3.259   0.048  0.0836  0.2669  0.3763
  866MOL0     C16840   7.086   3.368   0.020  0.6383 -0.7091 -0.1873
  866MOL0     C16841   7.712   3.309   0.469  0.4751 -0.2469 -0.0803
  866MOL0     C16842   7.847   3.305   0.524 -0.0119 -0.3736  0.0473
  866MOL0     H16843   8.200   3.453   0.781  0.1591  1.6080 -1.0362
  866MOL0     H16844   8.454   3.483   0.838 -2.0762  0.5467  1.0364
  866MOL0     H16845   8.677   3.492   0.866 -3.7459 -0.9871  1.5190
  866MOL0     H16846   8.671   3.314   0.911  2.0112 -2.4463 -1.1866
  866MOL0     H16847   8.880   3.430   0.934 -1.2412 -0.7509  0.7338
  866MOL0     H16848   8.896   3.284   0.855  1.3802  1.3831 -0.0151
  866MOL0     H16849   8.893   3.412   0.624 -0.0973  2.3243 -0.7251
  866MOL0     H16850   8.870   3.561   0.715  0.4587 -0.4193 -1.5860
  866MOL0     H16851   9.109   3.523   0.818 -0.4254  0.3339 -0.5710
  866MOL0     H16852   9.116   3.379   0.719 -1.0216  0.3755  0.6343
  866MOL0     H16853   9.113   3.533   0.525 -3.2181  0.0844 -0.6890
  866MOL0     H16854   9.057   3.669   0.630  1.7655  1.7586  1.4297
  866MOL0     H16855   9.275   3.640   0.760  1.9450  0.6930 -0.7785
  866MOL0     H16856   9.311   3.502   0.650  0.4491 -0.9357  3.0645
  866MOL0     H16857   9.431   3.698   0.584  1.3331  3.1723 -0.6485
  866MOL0     H16858   9.298   3.690   0.470 -0.5751  2.2218  0.2259
  866MOL0     H16859   9.349   3.927   0.600 -1.5111  1.8627  3.6109
  866MOL0     H16860   9.253   3.859   0.718 -0.5771 -0.0289  0.1232
  866MOL0     H16861   9.034   3.977   0.718 -1.7642  0.3342 -1.0009
  866MOL0     H16862   8.806   4.014   0.679  0.4681 -1.3873  0.4685
  866MOL0     H16863   8.767   4.077   0.516 -0.2314  0.5942  1.2554
  866MOL0     H16864   8.750   3.776   0.589 -3.7769 -0.0610  2.3586
  866MOL0     H16865   8.697   3.857   0.442 -0.4687  0.7537 -0.2061
  866MOL0     H16866   8.522   3.971   0.572 -0.6839 -2.0312 -2.0776
  866MOL0     H16867   8.598   3.909   0.728  0.7872 -0.6643 -0.6871
  866MOL0     H16868   8.497   3.696   0.663 -2.4826 -2.6302 -1.6282
  866MOL0     H16869   8.462   3.758   0.499  1.3414  1.3051  0.0081
  866MOL0     H16870   8.155   3.948   0.791  1.2295  0.9401 -1.2588
  866MOL0     H16871   7.801   3.896   0.774 -1.3092  3.0547 -1.1976
  866MOL0     H16872   7.945   3.996   0.826  2.1576 -1.7371 -0.2103
  866MOL0     H16873   7.862   4.009   0.662 -1.6743  0.2549  1.2165
  866MOL0     H16874   7.663   3.771   0.281 -0.6167  2.0961 -0.2412
  866MOL0     H16875   7.432   3.719   0.219  0.2809 -0.8294  0.1806
  866MOL0     H16876   7.123   3.659   0.553 -1.3989  1.5560  1.6103
  866MOL0     H16877   7.096   3.821   0.506  0.3174 -0.8893  0.5370
  866MOL0     H16878   6.893   3.714   0.462  0.1894 -0.1937  0.9917
  866MOL0     H16879   6.963   3.713   0.298 -0.1783 -3.9039 -1.8726
  866MOL0     H16880   7.036   3.491   0.304 -2.1300  0.5323 -3.5516
  866MOL0     H16881   6.857   3.515   0.317 -2.2083  0.8288  2.4079
  866MOL0     H16882   6.923   3.322   0.446 -0.4572 -0.6449  0.1415
  866MOL0     H16883   7.022   3.433   0.553  2.8706  2.0206 -2.1032
  866MOL0     H16884   6.830   3.554   0.612  1.5246 -1.3618  1.1737
  866MOL0     H16885   6.806   3.387   0.655  2.6114  1.5621  3.4769
  866MOL0     H16886   6.675   3.519   0.401 -0.3322 -1.6459 -0.1800
  866MOL0     H16887   6.651   3.351   0.471 -1.1785 -0.3868  0.4019
  866MOL0     H16888   6.589   3.613   0.603 -1.5709  0.2664  0.3913
  866MOL0     H16889   6.534   3.460   0.666  2.6289  1.4673  1.6950
  866MOL0     H16890   6.420   3.439   0.423 -2.6877  0.7204 -1.9411
  866MOL0     H16891   6.432   3.614   0.425 -0.5791  1.7724  2.9950
  866MOL0     H16892   7.307   3.787   0.622  0.6135  3.0797  0.5824
  866MOL0     H16893   7.521   3.832   0.682 -1.8283  1.6696 -0.7024
  866MOL0     H16894   8.033   3.565   0.494  0.3435 -0.4191 -1.5132
  866MOL0     H16895   8.284   3.643   0.528  1.6203  0.0008  0.8185
  866MOL0     H16896   8.552   3.213   0.532 -0.1567  2.1049 -1.1460
  866MOL0     H16897   8.308   3.177   0.476 -3.3588 -0.3103  1.0629
  866MOL0     H16898   7.861   2.979   0.595  0.1189  0.1993 -3.6469
  866MOL0     H16899   7.621   2.986   0.515 -0.0292 -0.2462 -1.5171
  866MOL0     H16900   7.429   3.382   0.430  2.6640  0.0382  0.3497
  866MOL0     H16901   7.512   3.328   0.278  2.2634  0.8638  1.5857
  866MOL0     H16902   7.257   3.366   0.262 -1.2121 -0.2720  1.4602
  866MOL0     H16903   7.247   3.222   0.371  0.4896 -1.4294 -0.5571
  866MOL0     H16904   7.349   3.076   0.199 -1.1717  0.0399 -1.8134
  866MOL0     H16905   7.394   3.218   0.107 -1.0836 -0.6084 -0.7353
  866MOL0     H16906   7.121   3.095   0.174 -1.8736  2.2072 -0.0708
  866MOL0     H16907   7.208   3.073   0.019  1.1388  0.4014  0.6565
  866MOL0     H16908   7.048   3.465  -0.007  0.1667 -0.8567 -0.0501
  866MOL0     H16909   7.675   3.410   0.451  0.2103  0.1341  2.2085
  866MOL0     H16910   7.905   3.395   0.534 -2.9762  1.9281 -1.7170
  867MOL0     O16911   7.075   0.269   7.968  0.5054  0.4295 -0.8542
  867MOL0     C16912   7.054   0.395   7.974  0.6418  0.5029 -0.3499
  867MOL0     O16913   6.940   0.456   8.020 -0.6631  0.2126 -0.0576
  867MOL0     C16914   6.852   0.375   8.088 -0.4535  0.1854 -0.7269
  867MOL0     C16915   6.888   0.320   8.215 -0.1030  0.6067 -0.6473
  867MOL0     C16916   6.822   0.228   8.290  0.8102 -0.3079  0.1521
  867MOL0     C16917   6.693   0.188   8.244  0.5512  0.3536  0.2821
  867MOL0     O16918   6.610   0.100   8.310 -0.5427  1.3307  0.1870
  867MOL0     C16919   6.627  -0.042   8.260 -0.5976 -0.0971 -0.5849
  867MOL0     C16920   6.615  -0.150   8.373  0.1223  0.6674 -0.9022
  867MOL0     C16921   6.649  -0.291   8.312  0.1224 -0.4895 -0.9094
  867MOL0     C16922   6.632  -0.399   8.426 -0.2424 -0.5310 -0.3536
  867MOL0     C16923   6.639  -0.543   8.379  0.2793 -0.0548  0.1758
  867MOL0     C16924   6.650  -0.647   8.480 -0.3330  0.3049 -0.3909
  867MOL0     C16925   6.649  -0.781   8.400  0.3208  0.1023 -0.4292
  867MOL0     C16926   6.721  -0.892   8.480  1.0192  0.2019  0.0407
  867MOL0     N16927   6.673  -1.018   8.421 -0.0967  0.3013  0.1448
  867MOL0     C16928   6.545  -1.074   8.414 -0.2415  0.1238  0.8402
  867MOL0     C16929   6.560  -1.167   8.317 -0.6463  1.1444  0.1012
  867MOL0     C16930   6.448  -1.264   8.286 -0.1727 -0.5518  1.0923
  867MOL0     C16931   6.411  -1.346   8.410 -0.0603 -0.1317  0.6107
  867MOL0     C16932   6.298  -1.449   8.385 -0.0435 -0.5626 -0.1514
  867MOL0     C16933   6.285  -1.548   8.502  0.4770 -0.0133 -0.6374
  867MOL0     O16934   6.404  -1.630   8.539 -0.6626  0.8158  0.2359
  867MOL0     C16935   6.395  -1.677   8.674  0.2931 -0.0960  0.7284
  867MOL0     C16936   6.517  -1.721   8.718  0.6026 -0.0766  0.9720
  867MOL0     C16937   6.535  -1.755   8.847  0.4927  0.2539 -0.6292
  867MOL0     C16938   6.674  -1.793   8.892 -0.3737  0.1798  0.1706
  867MOL0     C16939   6.435  -1.721   8.943  0.3807  0.4330  0.1331
  867MOL0     C16940   6.443  -1.737   9.098  0.1759 -0.6753  0.1930
  867MOL0     O16941   6.558  -1.704   9.163 -0.2148 -0.1887  0.8496
  867MOL0     C16942   6.604  -1.782   9.268 -0.0122  0.4405 -0.5417
  867MOL0     C16943   6.524  -1.795   9.387 -1.0775  0.8285  0.4961
  867MOL0     C16944   6.567  -1.880   9.486  1.0127 -0.3107 -0.4599
  867MOL0     C16945   6.681  -1.957   9.471 -0.1670  0.3448  0.6582
  867MOL0     O16946   6.718  -2.060   9.549  0.3333 -0.3018 -0.3220
  867MOL0     C16947   6.619  -2.126   9.630  0.4188  0.6226 -1.1079
  867MOL0     C16948   6.692  -2.241   9.697  0.9677  0.5332 -0.3301
  867MOL0     C16949   6.601  -2.330   9.783 -0.4827 -0.2914 -0.2377
  867MOL0     C16950   6.696  -2.408   9.877 -0.0079  0.2819  0.5802
  867MOL0     C16951   6.633  -2.507   9.969 -0.1399 -0.5040  0.2455
  867MOL0     C16952   6.646  -2.648   9.910  0.0764  0.4526 -0.5512
  867MOL0     C16953   6.581  -2.753  10.003 -0.6093 -0.6177 -0.4977
  867MOL0     C16954   6.541  -2.881   9.936 -0.7153  0.4263 -0.1337
  867MOL0    Cl16955   6.462  -2.988  10.055  0.0544  0.0017  0.1963
  867MOL0     C16956   6.770  -1.929   9.363  0.5186  0.0591 -0.1073
  867MOL0     C16957   6.727  -1.844   9.261 -0.5981 -1.1114  0.0905
  867MOL0     O16958   6.338  -1.764   9.154 -0.6396 -0.1007 -0.6201
  867MOL0     C16959   6.314  -1.691   8.891  1.4048  0.1644 -0.0235
  867MOL0     C16960   6.284  -1.664   8.758  0.3123 -0.1118 -0.5723
  867MOL0     N16961   6.688  -1.176   8.262  0.6045 -0.4750  0.1556
  867MOL0     N16962   6.753  -1.084   8.332 -0.9149 -0.4740 -0.2648
  867MOL0     C16963   6.648   0.248   8.125  0.0257  0.4302 -0.3121
  867MOL0     C16964   6.724   0.333   8.044  0.7113  0.0045  0.8875
  867MOL0     C16965   7.158   0.480   7.919 -1.1952 -0.5079  0.8039
  867MOL0     C16966   7.283   0.429   7.870 -0.3555  0.6735  0.0696
  867MOL0     C16967   7.375   0.514   7.810 -0.4051  0.8419  0.4556
  867MOL0     C16968   7.351   0.649   7.794  0.8594  0.7470 -0.3076
  867MOL0     O16969   7.454   0.714   7.723  0.9683 -0.0153  0.7923
  867MOL0     C16970   7.449   0.860   7.732  0.5017 -0.4653 -0.1392
  867MOL0     C16971   7.588   0.920   7.718  0.4852 -0.0610  0.0187
  867MOL0     C16972   7.668   0.908   7.844 -0.3820  0.1240 -0.2970
  867MOL0     C16973   7.810   0.971   7.844  0.5717 -0.0943  0.5310
  867MOL0     C16974   7.899   0.892   7.753  0.0245  0.4752 -0.2670
  867MOL0     C16975   7.977   0.820   7.696 -0.2400 -1.2896  0.5056
  867MOL0     C16976   7.226   0.697   7.838 -0.0409 -0.1067 -0.6864
  867MOL0     C16977   7.147   0.616   7.915  1.0458 -0.2882  0.9606
  867MOL0     H16978   6.980   0.357   8.259  0.3846  0.6576 -1.6822
  867MOL0     H16979   6.850   0.180   8.384 -2.1983 -0.1511  1.2394
  867MOL0     H16980   6.545  -0.064   8.191 -2.9485 -1.7725  2.4729
  867MOL0     H16981   6.725  -0.041   8.211 -0.0389  0.9405  0.5066
  867MOL0     H16982   6.683  -0.134   8.458  1.8042 -1.0135 -1.8513
  867MOL0     H16983   6.518  -0.144   8.423  1.4384  0.7002  1.8223
  867MOL0     H16984   6.578  -0.307   8.231 -0.1796  0.8807 -0.9452
  867MOL0     H16985   6.748  -0.274   8.269 -0.2910  3.3870 -0.7319
  867MOL0     H16986   6.710  -0.386   8.501 -1.4018  0.7612  0.6827
  867MOL0     H16987   6.539  -0.373   8.476  0.9800  1.3914  1.0703
  867MOL0     H16988   6.537  -0.549   8.338 -0.2532  4.8952  0.0893
  867MOL0     H16989   6.716  -0.562   8.305  0.4969 -1.1924  0.6718
  867MOL0     H16990   6.751  -0.630   8.518  0.8992 -0.8946 -2.8864
  867MOL0     H16991   6.568  -0.637   8.552 -2.6159  1.2063 -2.9470
  867MOL0     H16992   6.544  -0.807   8.386 -0.6636  2.3615  1.9512
  867MOL0     H16993   6.702  -0.771   8.304  1.7682  1.0328  0.4216
  867MOL0     H16994   6.698  -0.880   8.586 -0.3111 -2.3618  0.1119
  867MOL0     H16995   6.830  -0.880   8.473  1.0629 -0.5584 -0.8001
  867MOL0     H16996   6.453  -1.055   8.469 -0.5234  0.7601  0.1578
  867MOL0     H16997   6.361  -1.211   8.248  0.9261 -0.4586 -1.5142
  867MOL0     H16998   6.479  -1.338   8.211  1.2861  0.2375  0.8730
  867MOL0     H16999   6.394  -1.276   8.492  0.0056  1.0339 -0.3445
  867MOL0     H17000   6.502  -1.402   8.434  1.0194  0.0813 -2.5120
  867MOL0     H17001   6.334  -1.505   8.298 -0.4576  0.4592 -0.9999
  867MOL0     H17002   6.200  -1.406   8.364  0.8514  1.1533 -0.9772
  867MOL0     H17003   6.207  -1.624   8.493  2.1733 -2.0399  0.6521
  867MOL0     H17004   6.247  -1.487   8.584  2.3364 -1.8815  1.7641
  867MOL0     H17005   6.595  -1.710   8.643 -1.5186  0.6991 -1.2638
  867MOL0     H17006   6.742  -1.758   8.813 -1.0026 -0.3641 -0.6215
  867MOL0     H17007   6.712  -1.738   8.979  1.7000  1.0881 -1.2284
  867MOL0     H17008   6.683  -1.900   8.911  1.9382  0.4114  0.7504
  867MOL0     H17009   6.433  -1.737   9.391  0.2826  3.0864  0.3393
  867MOL0     H17010   6.493  -1.892   9.564 -0.0676  0.1825 -1.3684
  867MOL0     H17011   6.579  -2.062   9.709  1.6109 -1.4248  1.3444
  867MOL0     H17012   6.534  -2.161   9.571 -1.1466  2.3701  0.0194
  867MOL0     H17013   6.730  -2.305   9.617 -2.4258 -3.1957  0.7171
  867MOL0     H17014   6.776  -2.207   9.757  0.5704 -0.2120  0.6750
  867MOL0     H17015   6.541  -2.391   9.714 -0.8128 -0.1873 -0.0482
  867MOL0     H17016   6.530  -2.267   9.839 -1.5351 -0.7176 -1.0555
  867MOL0     H17017   6.771  -2.449   9.809 -0.0647 -0.3023  0.8629
  867MOL0     H17018   6.757  -2.346   9.942  1.5385 -1.6384  1.0499
  867MOL0     H17019   6.531  -2.472   9.987 -0.9595 -1.3033 -2.3799
  867MOL0     H17020   6.674  -2.515  10.070  1.8171  2.2004 -0.2495
  867MOL0     H17021   6.585  -2.654   9.820  0.2229 -0.0401 -0.6194
  867MOL0     H17022   6.749  -2.670   9.882 -0.1413  2.8722 -3.7992
  867MOL0     H17023   6.488  -2.708  10.041  0.6522  2.6464 -0.9959
  867MOL0     H17024   6.631  -2.780  10.097 -2.1680 -1.9485  0.0147
  867MOL0     H17025   6.627  -2.930   9.889 -1.2446 -1.8163  1.0715
  867MOL0     H17026   6.470  -2.855   9.857  1.6910  3.5352 -1.4674
  867MOL0     H17027   6.855  -1.993   9.343 -1.3061 -2.0819 -1.5089
  867MOL0     H17028   6.779  -1.825   9.168 -2.1747 -2.5528 -1.1529
  867MOL0     H17029   6.230  -1.678   8.959  0.9043 -0.5128 -0.4850
  867MOL0     H17030   6.197  -1.613   8.718 -0.0774  1.0252  1.5277
  867MOL0     H17031   6.551   0.211   8.094 -1.1702  2.3615  0.8784
  867MOL0     H17032   6.679   0.366   7.951  1.0560  3.3930  1.7952
  867MOL0     H17033   7.309   0.324   7.864 -0.5839  0.7047 -2.6327
  867MOL0     H17034   7.462   0.466   7.768 -0.4366  0.3577  0.9293
  867MOL0     H17035   7.406   0.888   7.635 -3.0986  1.6130  1.8539
  867MOL0     H17036   7.393   0.907   7.814  1.0012  1.9376 -1.0914
  867MOL0     H17037   7.568   1.021   7.683 -3.9945 -0.6612  0.3157
  867MOL0     H17038   7.643   0.866   7.640 -0.0810 -1.2798  0.4401
  867MOL0     H17039   7.665   0.802   7.871 -1.0952  0.5206  1.2975
  867MOL0     H17040   7.608   0.959   7.920 -0.4789 -0.9973  0.3951
  867MOL0     H17041   7.854   0.990   7.942 -0.4526  1.7327  0.6921
  867MOL0     H17042   7.806   1.068   7.792 -0.9002  0.3352  1.3917
  867MOL0     H17043   8.040   0.749   7.647  0.2924  0.1540 -1.0323
  867MOL0     H17044   7.194   0.800   7.832 -1.8460 -0.3060  2.7161
  867MOL0     H17045   7.053   0.658   7.949  0.1969 -1.6649  0.4057
  868MOL0     O17046   5.871   6.333   5.930 -0.1907 -0.2559  0.1467
  868MOL0     C17047   5.923   6.435   5.889 -0.3208  0.0789  0.1919
  868MOL0     O17048   6.030   6.507   5.951  0.2259  1.0657  0.3939
  868MOL0     C17049   6.071   6.483   6.079  0.1335  0.4220  0.6572
  868MOL0     C17050   6.080   6.589   6.164 -0.4341 -0.5942  0.0316
  868MOL0     C17051   6.100   6.571   6.298  0.4817 -0.9163  0.8039
  868MOL0     C17052   6.144   6.452   6.354 -0.3222 -0.8520 -0.2155
  868MOL0     O17053   6.166   6.423   6.486 -0.1242 -0.1143  0.0124
  868MOL0     C17054   6.121   6.524   6.572 -0.7499 -0.6599 -0.3151
  868MOL0     C17055   5.971   6.515   6.583 -0.5601  0.5643  0.3098
  868MOL0     C17056   5.918   6.627   6.681 -0.4936  0.5298  0.4715
  868MOL0     C17057   5.769   6.634   6.663  0.4465 -0.3956  0.1713
  868MOL0     C17058   5.710   6.714   6.783 -0.1692 -0.0068 -0.2168
  868MOL0     C17059   5.584   6.782   6.738  0.1347 -0.0940  0.2649
  868MOL0     C17060   5.463   6.687   6.706 -0.6396 -0.7827 -0.1311
  868MOL0     C17061   5.417   6.589   6.816  0.4488  0.2933  1.2148
  868MOL0     N17062   5.275   6.561   6.794 -0.3239  0.5840 -0.1424
  868MOL0     C17063   5.243   6.467   6.701 -0.8480 -0.0219  0.0014
  868MOL0     C17064   5.113   6.485   6.682 -0.9604 -0.0106 -0.1961
  868MOL0     C17065   5.043   6.408   6.576 -0.0607  0.0408 -0.0561
  868MOL0     C17066   4.952   6.490   6.483  0.0007  0.1802 -0.4077
  868MOL0     C17067   4.814   6.541   6.551  0.4958 -1.1197 -0.3447
  868MOL0     C17068   4.715   6.593   6.443 -0.1401 -0.3491  0.1632
  868MOL0     O17069   4.674   6.490   6.351 -0.1154 -0.0747 -0.2228
  868MOL0     C17070   4.594   6.520   6.243 -0.4305 -0.3377  0.8010
  868MOL0     C17071   4.509   6.633   6.234 -0.1580 -0.2013  0.2074
  868MOL0     C17072   4.443   6.657   6.112  0.0690 -0.7798  0.3797
  868MOL0     C17073   4.357   6.783   6.111 -0.9770  0.7740 -0.1228
  868MOL0     C17074   4.454   6.564   6.009 -0.1658  0.7644 -0.2383
  868MOL0     C17075   4.361   6.562   5.895 -0.3182 -0.7554  0.3618
  868MOL0     O17076   4.415   6.504   5.785  0.3213  0.8061  0.6428
  868MOL0     C17077   4.322   6.462   5.691  0.2820 -0.7948  0.2906
  868MOL0     C17078   4.310   6.529   5.569  0.6122 -0.4038  0.6976
  868MOL0     C17079   4.218   6.480   5.475  0.0226  0.3434  0.2709
  868MOL0     C17080   4.122   6.385   5.503  0.5504  1.4530 -0.3956
  868MOL0     O17081   4.023   6.343   5.411 -0.3556 -0.0801  0.2634
  868MOL0     C17082   3.949   6.222   5.430 -0.1577 -0.3460 -0.1280
  868MOL0     C17083   3.806   6.251   5.397  0.8072 -0.2428  1.1141
  868MOL0     C17084   3.748   6.378   5.468 -0.5014 -0.0234 -0.8441
  868MOL0     C17085   3.598   6.409   5.432 -0.3652  0.4234  0.3234
  868MOL0     C17086   3.549   6.552   5.480  0.1448  0.6069 -0.8733
  868MOL0     C17087   3.391   6.567   5.463 -0.9592 -0.2272 -0.0439
  868MOL0     C17088   3.351   6.708   5.524 -0.7396 -0.0696 -0.2891
  868MOL0     C17089   3.396   6.738   5.666 -0.2330 -0.1506 -0.2419
  868MOL0    Cl17090   3.318   6.901   5.683  0.6553  0.4818  0.2850
  868MOL0     C17091   4.142   6.313   5.629  0.1217 -1.0671  0.6160
  868MOL0     C17092   4.238   6.355   5.722 -0.0921  0.0816 -0.3559
  868MOL0     O17093   4.253   6.611   5.908  0.3064  0.7183 -0.0869
  868MOL0     C17094   4.543   6.453   6.019  0.4552 -0.4169 -0.7241
  868MOL0     C17095   4.613   6.434   6.138  0.2033 -0.2461  0.3309
  868MOL0     N17096   5.067   6.592   6.750  0.3341 -0.5582 -0.1140
  868MOL0     N17097   5.166   6.637   6.818  0.5567 -0.4932  0.8360
  868MOL0     C17098   6.145   6.346   6.263  0.8745  0.7061 -0.6648
  868MOL0     C17099   6.105   6.355   6.128 -0.5139  0.0151 -0.4739
  868MOL0     C17100   5.853   6.499   5.781  0.1972 -0.1008  0.3880
  868MOL0     C17101   5.887   6.630   5.743 -0.7212  1.0163 -0.1822
  868MOL0     C17102   5.812   6.701   5.647  0.4890 -0.3299  0.6771
  868MOL0     C17103   5.706   6.637   5.585  0.3205  0.1659  0.7838
  868MOL0     O17104   5.634   6.713   5.496 -0.9115 -0.3238 -0.7255
  868MOL0     C17105   5.522   6.674   5.421  0.2351  0.4510  0.3378
  868MOL0     C17106   5.475   6.782   5.316  1.1918 -0.2592  0.4818
  868MOL0     C17107   5.568   6.810   5.191  0.3729  0.2398 -1.0164
  868MOL0     C17108   5.542   6.720   5.062 -0.0932 -0.5965 -0.5786
  868MOL0     C17109   5.435   6.765   4.971 -0.2464 -0.4092  0.7376
  868MOL0     C17110   5.348   6.805   4.891 -0.1175  0.3023 -0.6367
  868MOL0     C17111   5.675   6.501   5.615  0.0450  0.3056  0.3861
  868MOL0     C17112   5.748   6.430   5.706 -0.2914 -0.8850 -0.0569
  868MOL0     H17113   6.067   6.691   6.130 -1.6705 -0.1190  1.7626
  868MOL0     H17114   6.084   6.655   6.365  0.1158 -1.0717  0.9119
  868MOL0     H17115   6.156   6.515   6.675 -0.0710 -1.4615 -0.6067
  868MOL0     H17116   6.156   6.624   6.544 -3.9579  0.3606 -1.1277
  868MOL0     H17117   5.927   6.537   6.485  1.6608  0.3466 -0.8026
  868MOL0     H17118   5.938   6.418   6.621 -1.4185  0.1694 -1.3644
  868MOL0     H17119   5.945   6.607   6.785  1.1927 -1.3656 -0.2520
  868MOL0     H17120   5.957   6.726   6.655  2.8896 -1.1387 -1.4158
  868MOL0     H17121   5.742   6.680   6.568  2.2780 -2.4484 -1.4211
  868MOL0     H17122   5.734   6.531   6.666  0.0661 -0.3890 -2.4725
  868MOL0     H17123   5.707   6.646   6.868 -1.0004 -0.2514 -0.4396
  868MOL0     H17124   5.787   6.786   6.813 -0.2812  0.5434 -1.2195
  868MOL0     H17125   5.556   6.843   6.824  0.6591  0.8791 -0.2292
  868MOL0     H17126   5.603   6.848   6.653  1.8598 -0.7842  0.0788
  868MOL0     H17127   5.375   6.748   6.685 -0.9069 -0.2714  2.2155
  868MOL0     H17128   5.475   6.634   6.610  0.3714 -0.4795 -0.1781
  868MOL0     H17129   5.424   6.641   6.913  2.1088  0.9896  0.7561
  868MOL0     H17130   5.477   6.498   6.815  0.5950  0.3947  0.1141
  868MOL0     H17131   5.310   6.391   6.662  2.4097  1.7992  1.5767
  868MOL0     H17132   5.114   6.356   6.511 -0.0810 -0.3125  0.1986
  868MOL0     H17133   4.979   6.333   6.624  0.3520 -1.1560 -1.3179
  868MOL0     H17134   4.921   6.419   6.406  0.0348  0.1011 -0.3492
  868MOL0     H17135   5.004   6.576   6.440  2.9683 -1.1855  0.1984
  868MOL0     H17136   4.852   6.630   6.602  1.2949  0.7586 -3.8935
  868MOL0     H17137   4.779   6.462   6.619 -0.6917 -0.1514  0.1992
  868MOL0     H17138   4.758   6.684   6.400 -0.9726 -0.6888 -1.4710
  868MOL0     H17139   4.619   6.618   6.489  1.3266  2.0178  2.2197
  868MOL0     H17140   4.499   6.698   6.320  0.0099  1.0301 -0.6720
  868MOL0     H17141   4.368   6.828   6.012  1.6963 -2.8630 -1.7382
  868MOL0     H17142   4.256   6.740   6.112 -1.2688  1.1696 -3.0917
  868MOL0     H17143   4.381   6.856   6.188 -1.2214  1.9234 -1.1069
  868MOL0     H17144   4.379   6.611   5.556 -0.4583  0.2309 -1.5754
  868MOL0     H17145   4.204   6.534   5.382  1.3679  0.1396 -0.0665
  868MOL0     H17146   3.988   6.137   5.373 -0.5421 -0.0357 -0.8758
  868MOL0     H17147   3.954   6.183   5.532 -1.1890  1.6317  0.7293
  868MOL0     H17148   3.811   6.267   5.289  5.0916 -1.0431  1.0353
  868MOL0     H17149   3.738   6.167   5.416  2.0551 -1.1513  1.7134
  868MOL0     H17150   3.800   6.464   5.427 -0.3593  0.1202 -0.3601
  868MOL0     H17151   3.760   6.374   5.576 -0.7998  2.4306 -0.6728
  868MOL0     H17152   3.591   6.401   5.323  1.9516  2.0565 -0.0438
  868MOL0     H17153   3.537   6.336   5.486  2.1899 -1.3748  0.9556
  868MOL0     H17154   3.600   6.623   5.414  0.2218  1.0836 -0.3088
  868MOL0     H17155   3.587   6.549   5.583 -1.1126 -3.5250 -0.3417
  868MOL0     H17156   3.352   6.561   5.362 -1.8474  2.6894  0.0427
  868MOL0     H17157   3.335   6.483   5.505 -2.0969 -0.2764 -1.5739
  868MOL0     H17158   3.243   6.708   5.536 -0.7129  2.8890  0.7881
  868MOL0     H17159   3.396   6.784   5.460 -0.3371 -0.4503 -0.4610
  868MOL0     H17160   3.505   6.732   5.673 -0.2698 -1.2721 -0.3461
  868MOL0     H17161   3.366   6.665   5.742  1.3208 -1.1395 -0.5315
  868MOL0     H17162   4.082   6.230   5.666 -2.3263  0.5140  0.3985
  868MOL0     H17163   4.244   6.308   5.820 -1.8682 -0.4649 -0.4704
  868MOL0     H17164   4.557   6.383   5.937 -2.5453  1.5822 -3.1494
  868MOL0     H17165   4.686   6.354   6.143 -0.6127 -0.9331  1.7716
  868MOL0     H17166   6.152   6.243   6.296 -3.6144 -0.2747 -2.0279
  868MOL0     H17167   6.087   6.273   6.060 -2.5543  1.7893 -2.2703
  868MOL0     H17168   5.962   6.681   5.803  0.0272  1.4627 -1.4608
  868MOL0     H17169   5.813   6.809   5.631  1.7213 -0.4373 -0.1151
  868MOL0     H17170   5.559   6.587   5.365  2.3038  0.9664  0.7909
  868MOL0     H17171   5.437   6.642   5.481  0.4269 -1.0939 -0.1779
  868MOL0     H17172   5.466   6.871   5.380  2.8103  0.5148 -0.3221
  868MOL0     H17173   5.378   6.743   5.284  0.3701 -0.4422  2.9881
  868MOL0     H17174   5.673   6.799   5.219 -0.1539  3.1252  2.9832
  868MOL0     H17175   5.557   6.918   5.174 -2.4156  0.2230  0.1174
  868MOL0     H17176   5.489   6.634   5.104  1.3418 -1.7447 -1.0444
  868MOL0     H17177   5.629   6.675   5.014 -0.1842  0.3866 -1.6985
  868MOL0     H17178   5.290   6.844   4.810  1.4739  0.8053 -1.5904
  868MOL0     H17179   5.596   6.447   5.563 -0.5133 -0.6105  2.1059
  868MOL0     H17180   5.746   6.325   5.735  2.1178  0.1213  4.9237
  869MOL0     O17181   0.725   0.539   9.431 -0.8339  0.5117  0.4680
  869MOL0     C17182   0.849   0.560   9.414  0.6276 -0.1576  0.2824
  869MOL0     O17183   0.902   0.669   9.363 -0.3376 -0.4511 -0.4305
  869MOL0     C17184   0.815   0.773   9.319  0.0950  1.2500  0.2877
  869MOL0     C17185   0.748   0.760   9.188 -0.6702 -0.3525  0.2498
  869MOL0     C17186   0.672   0.869   9.137 -0.3510 -0.4673 -0.5320
  869MOL0     C17187   0.644   0.978   9.222  0.2961  0.0466  0.0505
  869MOL0     O17188   0.574   1.076   9.159 -0.0199 -0.4304  0.5914
  869MOL0     C17189   0.540   1.194   9.238  0.0355  1.2833  0.4751
  869MOL0     C17190   0.461   1.292   9.150 -0.3691  0.6978 -0.2883
  869MOL0     C17191   0.306   1.262   9.156 -0.6511  0.6175 -0.5965
  869MOL0     C17192   0.225   1.379   9.126  0.1585 -0.0123 -0.4079
  869MOL0     C17193   0.078   1.361   9.170  0.8263  0.4008 -0.5994
  869MOL0     C17194  -0.006   1.486   9.143  0.8672 -0.7650 -0.1972
  869MOL0     C17195  -0.152   1.452   9.181 -0.2417 -0.6930 -1.1763
  869MOL0     C17196  -0.240   1.583   9.190 -0.4767 -0.0898 -0.2994
  869MOL0     N17197  -0.240   1.644   9.063 -0.5828 -0.5647 -0.5253
  869MOL0     C17198  -0.274   1.584   8.942 -0.3329  0.1398  0.2231
  869MOL0     C17199  -0.257   1.685   8.855 -0.5403  0.8728  0.4895
  869MOL0     C17200  -0.285   1.663   8.704 -1.1932  0.1654 -0.1344
  869MOL0     C17201  -0.433   1.686   8.699  0.2904 -0.0601 -0.6780
  869MOL0     C17202  -0.478   1.694   8.553 -0.3556  0.1012 -0.4785
  869MOL0     C17203  -0.622   1.694   8.541  0.1797 -0.5879  0.2069
  869MOL0     O17204  -0.685   1.827   8.581 -0.6471  0.7448 -0.0198
  869MOL0     C17205  -0.712   1.919   8.480 -0.6836 -0.4904 -0.5274
  869MOL0     C17206  -0.650   1.923   8.355  0.6915 -0.5878 -0.1295
  869MOL0     C17207  -0.664   2.036   8.273 -0.1386 -0.1595 -0.8594
  869MOL0     C17208  -0.578   2.026   8.141 -0.2694  0.3762  0.3898
  869MOL0     C17209  -0.747   2.144   8.317  0.3727 -1.0486 -0.5123
  869MOL0     C17210  -0.763   2.266   8.229 -0.5835  0.0099 -1.2567
  869MOL0     O17211  -0.780   2.389   8.276  0.2622 -0.0385 -0.4207
  869MOL0     C17212  -0.823   2.486   8.196  0.1789 -0.7947 -0.0789
  869MOL0     C17213  -0.956   2.521   8.192  0.5604 -0.7133 -0.8970
  869MOL0     C17214  -1.002   2.614   8.101  0.4950 -0.1281 -0.2283
  869MOL0     C17215  -0.912   2.684   8.029 -0.2373  0.5280  0.6343
  869MOL0     O17216  -0.968   2.778   7.949  0.8351  0.5845 -0.0124
  869MOL0     C17217  -0.987   2.744   7.809  0.1390 -0.0404  0.1877
  869MOL0     C17218  -1.124   2.680   7.780  0.5317 -0.1156  0.4545
  869MOL0     C17219  -1.232   2.777   7.825 -0.5879  0.1416  0.7000
  869MOL0     C17220  -1.369   2.702   7.808 -1.3248 -0.2353 -0.1348
  869MOL0     C17221  -1.477   2.777   7.887  0.6230 -0.5699  0.7961
  869MOL0     C17222  -1.617   2.713   7.853  0.0110  0.3079 -0.2001
  869MOL0     C17223  -1.733   2.811   7.891  0.2100 -0.1027  0.1359
  869MOL0     C17224  -1.883   2.767   7.858  0.4309 -0.2265  1.3784
  869MOL0    Cl17225  -1.894   2.656   7.717 -0.1616  0.0926 -0.0445
  869MOL0     C17226  -0.778   2.659   8.025  0.1199 -0.1320  0.4949
  869MOL0     C17227  -0.735   2.560   8.114 -0.5183 -0.8180 -0.3134
  869MOL0     O17228  -0.792   2.240   8.111 -0.3638  0.1916  0.2234
  869MOL0     C17229  -0.817   2.140   8.432  0.8368  0.5566  0.3375
  869MOL0     C17230  -0.799   2.027   8.518 -0.3745 -0.7221  0.6693
  869MOL0     N17231  -0.206   1.795   8.928 -0.3376  0.3549 -0.2676
  869MOL0     N17232  -0.189   1.770   9.051 -0.5287 -0.1029  0.4160
  869MOL0     C17233   0.698   0.985   9.355  0.0824  1.1140 -0.4804
  869MOL0     C17234   0.786   0.888   9.401 -0.2580 -0.1912  0.8151
  869MOL0     C17235   0.940   0.441   9.435 -0.1912  0.2123  0.6265
  869MOL0     C17236   0.888   0.313   9.436 -0.2239 -0.1480  0.1446
  869MOL0     C17237   0.971   0.207   9.471 -0.6797 -0.1519 -0.3690
  869MOL0     C17238   1.108   0.224   9.502  0.3936 -0.2105  0.0229
  869MOL0     O17239   1.179   0.114   9.541  0.6415  0.1980 -0.2063
  869MOL0     C17240   1.312   0.121   9.579 -0.3764 -0.4017  0.1665
  869MOL0     C17241   1.368  -0.016   9.630 -0.3214  1.1973 -0.5821
  869MOL0     C17242   1.500   0.003   9.695 -0.6061 -0.1115 -0.4622
  869MOL0     C17243   1.572  -0.114   9.766 -0.4153  0.0067  0.1742
  869MOL0     C17244   1.473  -0.185   9.852 -0.3575  0.3464 -0.2632
  869MOL0     C17245   1.389  -0.241   9.924 -0.2775  0.1666 -0.4749
  869MOL0     C17246   1.166   0.354   9.495 -0.0721 -0.0689  0.4865
  869MOL0     C17247   1.078   0.459   9.460 -0.4035 -0.2231 -0.3302
  869MOL0     H17248   0.770   0.674   9.126  0.1570  0.1811 -0.2192
  869MOL0     H17249   0.634   0.881   9.036  0.4941  1.6068 -0.6554
  869MOL0     H17250   0.489   1.164   9.330 -2.5346  3.2891 -0.1735
  869MOL0     H17251   0.634   1.238   9.271 -1.1619  1.0766  4.7249
  869MOL0     H17252   0.483   1.393   9.186 -0.2196  0.5514  0.0351
  869MOL0     H17253   0.491   1.286   9.045 -1.1954  0.6839 -0.5343
  869MOL0     H17254   0.279   1.171   9.101  2.5387 -0.2295 -1.0203
  869MOL0     H17255   0.281   1.227   9.256 -1.4292  0.0530 -0.9795
  869MOL0     H17256   0.269   1.455   9.192 -1.4398  0.6845 -0.0867
  869MOL0     H17257   0.234   1.400   9.019 -2.4021 -2.6010 -1.2432
  869MOL0     H17258   0.035   1.280   9.111  3.0947 -2.0101  0.8636
  869MOL0     H17259   0.080   1.326   9.274  1.5579 -2.5039 -1.5030
  869MOL0     H17260   0.021   1.568   9.209 -2.2351  0.4031 -0.1754
  869MOL0     H17261  -0.005   1.523   9.040 -1.0363  4.5313  1.3751
  869MOL0     H17262  -0.187   1.384   9.103  1.2348 -0.1557 -2.3632
  869MOL0     H17263  -0.167   1.405   9.279  1.9581  2.4604  0.8832
  869MOL0     H17264  -0.218   1.656   9.268  1.2572  0.1326 -0.9425
  869MOL0     H17265  -0.344   1.555   9.209 -0.3913 -1.0376 -1.1441
  869MOL0     H17266  -0.308   1.485   8.916 -0.8338  0.5221 -0.6363
  869MOL0     H17267  -0.227   1.731   8.641  0.1829 -0.1712  0.7117
  869MOL0     H17268  -0.255   1.560   8.682  0.6441  0.4299  0.9154
  869MOL0     H17269  -0.444   1.789   8.734 -0.2217  0.8653 -3.2905
  869MOL0     H17270  -0.496   1.610   8.746 -2.7957  0.8654 -3.0161
  869MOL0     H17271  -0.438   1.605   8.503  4.9483  2.2467 -0.7560
  869MOL0     H17272  -0.438   1.783   8.505 -1.8091  0.7516 -0.5390
  869MOL0     H17273  -0.664   1.612   8.600  1.2188  0.8779  3.1467
  869MOL0     H17274  -0.648   1.662   8.439 -2.6926 -1.0153  0.9883
  869MOL0     H17275  -0.587   1.841   8.321 -0.7538 -1.3274 -1.1103
  869MOL0     H17276  -0.484   2.082   8.142 -0.2331  0.5763 -2.7033
  869MOL0     H17277  -0.553   1.925   8.109 -0.7781  0.7160 -1.2115
  869MOL0     H17278  -0.639   2.071   8.061 -2.5953  0.3778  2.0477
  869MOL0     H17279  -1.020   2.461   8.256 -1.0271  1.6475 -0.1067
  869MOL0     H17280  -1.108   2.627   8.082  0.5428 -1.8794 -2.1364
  869MOL0     H17281  -0.983   2.843   7.764 -2.1279  0.4842  0.9791
  869MOL0     H17282  -0.900   2.689   7.772 -1.6341 -2.1475 -1.1515
  869MOL0     H17283  -1.129   2.664   7.672 -1.4236 -5.5601  1.0372
  869MOL0     H17284  -1.132   2.580   7.822  1.1360  0.2318  1.4137
  869MOL0     H17285  -1.228   2.861   7.756 -0.6677 -1.8076 -1.8414
  869MOL0     H17286  -1.218   2.800   7.931  1.0701  1.5106  0.2219
  869MOL0     H17287  -1.394   2.704   7.701  2.3863  3.3162 -1.2010
  869MOL0     H17288  -1.364   2.604   7.855 -3.4543 -0.2357  0.2053
  869MOL0     H17289  -1.470   2.884   7.864 -2.5150 -0.4802 -0.2321
  869MOL0     H17290  -1.466   2.772   7.995 -1.7253  0.4943  1.1334
  869MOL0     H17291  -1.616   2.689   7.747  0.3148 -1.9882  0.2683
  869MOL0     H17292  -1.629   2.623   7.915 -1.2566  0.4561 -0.2040
  869MOL0     H17293  -1.702   2.910   7.856  0.1909  0.2152  0.9801
  869MOL0     H17294  -1.737   2.827   7.999 -0.8322 -3.0834  0.6379
  869MOL0     H17295  -1.949   2.853   7.844  0.5076 -0.4633 -0.7629
  869MOL0     H17296  -1.932   2.716   7.941  0.2430 -1.6332  0.4389
  869MOL0     H17297  -0.704   2.693   7.953  0.1356 -0.8799  0.1484
  869MOL0     H17298  -0.629   2.542   8.118 -0.2843  0.2240 -1.0829
  869MOL0     H17299  -0.889   2.218   8.455 -0.7470 -0.5573 -0.5874
  869MOL0     H17300  -0.850   2.030   8.613 -2.6649  4.7764 -0.3561
  869MOL0     H17301   0.678   1.066   9.425  0.0907 -0.2320  1.1253
  869MOL0     H17302   0.833   0.896   9.499  0.9670  0.9559  0.1679
  869MOL0     H17303   0.783   0.295   9.417  0.0250  0.4252 -2.1521
  869MOL0     H17304   0.918   0.113   9.479 -1.9094  0.5983  0.7467
  869MOL0     H17305   1.380   0.160   9.503 -0.2163  0.7968  0.9000
  869MOL0     H17306   1.314   0.196   9.658 -2.3443 -1.9014  1.7612
  869MOL0     H17307   1.379  -0.094   9.554  0.5008 -0.2741  0.9843
  869MOL0     H17308   1.298  -0.054   9.705 -0.0505 -2.3215 -1.9232
  869MOL0     H17309   1.487   0.083   9.769  0.9103  0.0763 -0.3722
  869MOL0     H17310   1.575   0.035   9.622  1.6886 -1.7831  1.0342
  869MOL0     H17311   1.657  -0.084   9.827  0.7664 -0.2998 -1.2630
  869MOL0     H17312   1.613  -0.178   9.687 -0.0255 -0.9799  1.1542
  869MOL0     H17313   1.313  -0.292   9.981  1.1074  0.2544  1.5620
  869MOL0     H17314   1.270   0.379   9.514 -1.2408  5.6034  1.0181
  869MOL0     H17315   1.131   0.553   9.464  0.2346 -0.6133  1.2213
  870MOL0     O17316   8.362   6.284   0.197  0.1106 -0.2079  0.0121
  870MOL0     C17317   8.289   6.198   0.154 -0.6266  0.3759  1.5369
  870MOL0     O17318   8.335   6.083   0.108  0.3810 -0.4408  0.1682
  870MOL0     C17319   8.451   6.092   0.028 -0.1542  0.1465 -0.3412
  870MOL0     C17320   8.568   6.016   0.062  0.7603  0.2217  0.3089
  870MOL0     C17321   8.677   6.026  -0.037  0.8519 -0.8331  0.4631
  870MOL0     C17322   8.671   6.101  -0.158 -0.5347 -0.0806 -0.2441
  870MOL0     O17323   8.767   6.099  -0.256  0.2885  0.4286  0.6413
  870MOL0     C17324   8.896   6.057  -0.232  0.0750  0.5242  0.9432
  870MOL0     C17325   8.999   6.148  -0.305 -0.0900  0.1592 -0.6115
  870MOL0     C17326   9.141   6.143  -0.251 -0.2768 -0.9376  0.4519
  870MOL0     C17327   9.226   6.220  -0.354  0.1066  0.4557 -0.5904
  870MOL0     C17328   9.372   6.212  -0.322  0.2498 -0.4485  0.2347
  870MOL0     C17329   9.459   6.248  -0.436 -0.1104 -0.0065  0.3545
  870MOL0     C17330   9.604   6.224  -0.397 -0.4719 -0.3011 -0.4745
  870MOL0     C17331   9.707   6.280  -0.497 -0.5826 -0.2509  0.8734
  870MOL0     N17332   9.844   6.285  -0.463 -0.1633  0.1666  0.0725
  870MOL0     C17333   9.931   6.182  -0.498  0.1672  0.4161 -0.6967
  870MOL0     C17334  10.058   6.217  -0.461  0.3267 -0.2226 -0.4381
  870MOL0     C17335  10.185   6.134  -0.476 -0.6685 -1.2431  0.3487
  870MOL0     C17336  10.193   6.015  -0.380  0.4329  0.0619  0.2053
  870MOL0     C17337  10.213   6.051  -0.236 -0.9012 -0.4078 -0.0665
  870MOL0     C17338  10.346   6.105  -0.204  0.0423  0.8226 -0.5308
  870MOL0     O17339  10.443   5.999  -0.246  0.5420 -0.0029  0.3553
  870MOL0     C17340  10.583   6.015  -0.245 -0.3234 -0.1840  0.7988
  870MOL0     C17341  10.647   6.133  -0.211  0.1412 -0.5094 -0.6840
  870MOL0     C17342  10.783   6.138  -0.172 -0.3889 -0.7631  0.7134
  870MOL0     C17343  10.853   6.270  -0.127  0.0544 -0.2694 -0.5994
  870MOL0     C17344  10.866   6.027  -0.197 -0.6003  0.0695  0.4975
  870MOL0     C17345  11.011   6.019  -0.167  0.2942  0.0031 -0.7606
  870MOL0     O17346  11.104   6.010  -0.266 -0.4737 -0.0956  0.0317
  870MOL0     C17347  11.235   5.992  -0.227 -0.3372 -0.0725  0.0671
  870MOL0     C17348  11.298   5.872  -0.262 -0.9246 -0.5384  0.3514
  870MOL0     C17349  11.433   5.852  -0.216  0.6733  0.4485  0.1163
  870MOL0     C17350  11.502   5.954  -0.165 -0.1083 -0.3724  0.1176
  870MOL0     O17351  11.630   5.921  -0.118 -0.1515 -0.5987  0.2921
  870MOL0     C17352  11.710   6.030  -0.058 -0.6660  0.1595 -0.9544
  870MOL0     C17353  11.838   5.974  -0.013 -0.1520  0.8452 -0.4790
  870MOL0     C17354  11.953   5.966  -0.108 -0.3979  0.0580  0.3713
  870MOL0     C17355  12.003   6.093  -0.180  0.6583 -0.8311 -0.9606
  870MOL0     C17356  12.117   6.073  -0.272 -0.5707 -0.5744  1.2641
  870MOL0     C17357  12.162   6.197  -0.342 -0.1889  0.1400  0.3279
  870MOL0     C17358  12.066   6.227  -0.463 -0.0761 -0.4444 -0.2992
  870MOL0     C17359  12.093   6.366  -0.513  0.8940 -0.0056 -0.1101
  870MOL0    Cl17360  12.244   6.389  -0.603  0.0116 -0.4437  0.3905
  870MOL0     C17361  11.442   6.082  -0.142  0.5652  0.7243 -0.5091
  870MOL0     C17362  11.308   6.101  -0.169 -0.6047 -0.1854  0.7084
  870MOL0     O17363  11.039   6.012  -0.045 -0.3082  0.1708 -0.3942
  870MOL0     C17364  10.804   5.911  -0.250 -0.0659  0.2275 -1.1914
  870MOL0     C17365  10.666   5.904  -0.265  0.9823  0.6981 -0.2048
  870MOL0     N17366  10.049   6.343  -0.404 -0.4411  1.1098 -0.0779
  870MOL0     N17367   9.925   6.384  -0.412  0.1198 -0.2029 -0.5945
  870MOL0     C17368   8.564   6.187  -0.181 -0.0407  0.3141  0.0532
  870MOL0     C17369   8.454   6.176  -0.089 -0.4007  1.0333 -0.2802
  870MOL0     C17370   8.146   6.215   0.133 -0.8706  0.2471 -0.0181
  870MOL0     C17371   8.077   6.326   0.173 -0.5635  0.0561  0.2698
  870MOL0     C17372   7.940   6.338   0.156  0.4958 -0.5124  0.1549
  870MOL0     C17373   7.865   6.226   0.112  0.0787 -0.3412  0.2713
  870MOL0     O17374   7.723   6.220   0.106 -0.3061 -0.4048 -0.0442
  870MOL0     C17375   7.655   6.347   0.115  0.0541  0.4280 -0.9000
  870MOL0     C17376   7.502   6.314   0.114 -0.4029  0.2412 -0.2201
  870MOL0     C17377   7.448   6.234   0.232 -0.7209 -0.3000 -0.3164
  870MOL0     C17378   7.301   6.175   0.204 -0.2742  0.1003 -0.2300
  870MOL0     C17379   7.198   6.282   0.193 -0.6164  0.0322 -0.3830
  870MOL0     C17380   7.125   6.379   0.192  0.7745  0.3892 -0.0276
  870MOL0     C17381   7.934   6.112   0.065 -0.7470  0.5175 -0.9232
  870MOL0     C17382   8.073   6.107   0.078 -0.0885 -0.3958  0.5689
  870MOL0     H17383   8.562   5.963   0.157  0.6319 -1.7834 -0.7447
  870MOL0     H17384   8.763   5.961  -0.032  1.7202 -0.1304 -2.8107
  870MOL0     H17385   8.919   6.059  -0.125  0.1380  1.7273  0.9196
  870MOL0     H17386   8.912   5.952  -0.258  0.0603  1.0383 -1.3632
  870MOL0     H17387   9.009   6.125  -0.411  2.0109 -2.1392 -0.0189
  870MOL0     H17388   8.969   6.251  -0.281  0.8062  0.2397  0.2672
  870MOL0     H17389   9.149   6.183  -0.149 -1.1808  1.4974 -0.3594
  870MOL0     H17390   9.165   6.038  -0.237 -2.1915 -1.0961  3.4371
  870MOL0     H17391   9.218   6.181  -0.456  0.4439 -0.7392 -0.1796
  870MOL0     H17392   9.195   6.324  -0.370 -0.0957  0.4244 -0.4078
  870MOL0     H17393   9.405   6.258  -0.229 -0.5854  1.1746 -0.2265
  870MOL0     H17394   9.387   6.104  -0.315 -0.9381 -0.8843 -2.5515
  870MOL0     H17395   9.428   6.193  -0.525 -0.4486 -1.8796  1.5840
  870MOL0     H17396   9.435   6.350  -0.468 -3.8867 -0.7272  0.3963
  870MOL0     H17397   9.636   6.280  -0.309  2.5761 -2.5335  0.0327
  870MOL0     H17398   9.626   6.118  -0.381 -1.4201 -0.7568 -1.9837
  870MOL0     H17399   9.678   6.384  -0.511 -2.7640 -1.0248 -1.0060
  870MOL0     H17400   9.692   6.228  -0.592 -0.7440  2.6916 -0.8290
  870MOL0     H17401   9.908   6.087  -0.544 -0.6852 -2.5495  4.9752
  870MOL0     H17402  10.182   6.086  -0.574 -0.2174  0.5705 -0.5793
  870MOL0     H17403  10.273   6.198  -0.462 -2.1301  1.8819 -3.2525
  870MOL0     H17404  10.262   5.938  -0.416  0.6531 -0.5838  1.9504
  870MOL0     H17405  10.094   5.970  -0.377 -0.2240  1.4130 -0.2781
  870MOL0     H17406  10.198   5.960  -0.176  1.1717 -0.2829  0.6961
  870MOL0     H17407  10.130   6.110  -0.195 -1.5931 -2.4612  1.7189
  870MOL0     H17408  10.361   6.121  -0.096  1.4921  3.5471 -1.0346
  870MOL0     H17409  10.366   6.203  -0.249  0.6860  0.0472 -1.9778
  870MOL0     H17410  10.583   6.219  -0.192 -2.1561 -1.9243 -1.6389
  870MOL0     H17411  10.789   6.358  -0.132  0.2044  0.1346  2.6984
  870MOL0     H17412  10.885   6.267  -0.023  4.4218 -1.9163 -1.7451
  870MOL0     H17413  10.945   6.291  -0.183  1.4167  0.1301  1.6459
  870MOL0     H17414  11.255   5.790  -0.318 -2.7958 -0.0549  1.0076
  870MOL0     H17415  11.480   5.756  -0.232 -1.2189 -0.2971 -1.3346
  870MOL0     H17416  11.737   6.111  -0.126  0.2765  2.0679  1.5345
  870MOL0     H17417  11.655   6.069   0.029  2.5449  0.7881  0.9385
  870MOL0     H17418  11.870   6.037   0.071 -0.5078 -0.8750  0.9917
  870MOL0     H17419  11.813   5.880   0.037  0.3402  0.4058 -1.0418
  870MOL0     H17420  11.946   5.888  -0.185  3.6120 -0.3263  0.1746
  870MOL0     H17421  12.034   5.926  -0.046 -1.9686  1.1160  3.2727
  870MOL0     H17422  11.916   6.139  -0.228 -0.8323 -2.4017  0.0906
  870MOL0     H17423  12.038   6.160  -0.101 -0.1638  0.1787 -1.4392
  870MOL0     H17424  12.083   5.994  -0.341 -0.8666 -0.8981  1.7698
  870MOL0     H17425  12.196   6.030  -0.210 -1.0012  0.5141  2.5958
  870MOL0     H17426  12.158   6.281  -0.272  2.0892 -1.2521  2.2455
  870MOL0     H17427  12.262   6.174  -0.379 -0.4615  2.5317 -2.2725
  870MOL0     H17428  11.967   6.205  -0.422  0.7503  0.0051  2.0970
  870MOL0     H17429  12.091   6.153  -0.541 -2.5233 -2.3131  0.5480
  870MOL0     H17430  12.092   6.436  -0.429  0.1595  0.3387 -0.3965
  870MOL0     H17431  12.017   6.399  -0.585  1.0214 -1.7215 -1.0866
  870MOL0     H17432  11.494   6.168  -0.101  0.9712  1.5589 -2.6679
  870MOL0     H17433  11.258   6.196  -0.152  1.3419  0.8141  1.0257
  870MOL0     H17434  10.872   5.829  -0.268  0.3816 -0.1355  1.6757
  870MOL0     H17435  10.627   5.806  -0.293  0.5153  1.6481 -3.3612
  870MOL0     H17436   8.557   6.261  -0.261 -4.6631 -1.8600 -1.9440
  870MOL0     H17437   8.371   6.242  -0.109  0.0567  0.9471 -2.6976
  870MOL0     H17438   8.135   6.408   0.215  1.7529 -1.3044 -0.0883
  870MOL0     H17439   7.894   6.430   0.191  0.5882 -1.2613  2.4230
  870MOL0     H17440   7.674   6.390   0.214 -1.1735 -1.9799  0.4598
  870MOL0     H17441   7.685   6.415   0.034 -1.8729  1.4402 -0.8371
  870MOL0     H17442   7.487   6.266   0.017 -0.6017  1.6250 -0.9056
  870MOL0     H17443   7.437   6.401   0.104  0.9219  1.1905 -1.0127
  870MOL0     H17444   7.448   6.305   0.315  1.1498 -1.0180  0.3564
  870MOL0     H17445   7.521   6.154   0.248  1.2811  1.4415 -0.2723
  870MOL0     H17446   7.288   6.105   0.287  1.2003  0.6650  0.5039
  870MOL0     H17447   7.309   6.124   0.107  2.0204  2.6096 -1.4956
  870MOL0     H17448   7.070   6.470   0.201 -1.3854 -0.6588 -1.6866
  870MOL0     H17449   7.893   6.018   0.030  1.6737 -1.5409  1.3519
  870MOL0     H17450   8.122   6.017   0.044  1.6261  0.9032 -0.5725
  871MOL0     O17451  11.337   7.286   1.236 -0.0248 -0.0888 -1.1382
  871MOL0     C17452  11.397   7.392   1.252 -0.2199 -0.0981 -0.2591
  871MOL0     O17453  11.343   7.513   1.275  0.6769  0.5665 -0.1618
  871MOL0     C17454  11.207   7.509   1.276  0.5887  0.2565 -0.2412
  871MOL0     C17455  11.146   7.532   1.398 -0.2292 -0.1692 -0.4262
  871MOL0     C17456  11.003   7.549   1.406 -0.6837 -0.2384 -0.2551
  871MOL0     C17457  10.927   7.538   1.287  0.7526  0.6916  0.4826
  871MOL0     O17458  10.784   7.551   1.286 -0.1439  0.1161 -0.4456
  871MOL0     C17459  10.714   7.598   1.407 -0.7205  0.4977  0.4843
  871MOL0     C17460  10.569   7.644   1.367 -0.1683  0.3217 -0.0615
  871MOL0     C17461  10.474   7.523   1.334  0.3539 -0.6964 -0.2390
  871MOL0     C17462  10.337   7.571   1.301  0.8908  0.2762  0.1914
  871MOL0     C17463  10.239   7.452   1.251 -0.1910 -1.6171 -1.0529
  871MOL0     C17464  10.097   7.511   1.219 -0.2284 -0.0032  0.1711
  871MOL0     C17465  10.025   7.406   1.130  0.7006 -0.3947 -0.6052
  871MOL0     C17466   9.886   7.436   1.080  0.6898 -0.0419 -0.5200
  871MOL0     N17467   9.838   7.367   0.962 -0.0188  0.5161 -0.4185
  871MOL0     C17468   9.782   7.239   0.955 -0.5639  0.0926  0.0451
  871MOL0     C17469   9.778   7.209   0.826 -0.4355 -0.5974  1.3081
  871MOL0     C17470   9.703   7.092   0.767 -0.2026  0.0658 -0.1030
  871MOL0     C17471   9.555   7.120   0.738  0.2972  0.6950 -0.4522
  871MOL0     C17472   9.478   6.995   0.692 -0.3473  0.6094 -0.3079
  871MOL0     C17473   9.341   7.035   0.649 -0.3412 -0.7348 -0.6187
  871MOL0     O17474   9.271   7.068   0.767 -0.1425 -0.2735 -0.1436
  871MOL0     C17475   9.136   7.089   0.752 -0.6530  0.2252 -0.7131
  871MOL0     C17476   9.062   7.046   0.860  0.4998 -0.0405  0.5838
  871MOL0     C17477   8.924   7.061   0.865  0.2045 -0.7372  0.0693
  871MOL0     C17478   8.857   7.043   0.999  1.4230  0.9672 -0.0689
  871MOL0     C17479   8.863   7.120   0.745 -0.2673  0.6790  0.4507
  871MOL0     C17480   8.721   7.148   0.724  1.2463  0.3207 -0.5204
  871MOL0     O17481   8.683   7.175   0.597 -0.4004  0.0614 -1.0509
  871MOL0     C17482   8.554   7.201   0.582  0.7519  0.0422 -0.3238
  871MOL0     C17483   8.512   7.329   0.565 -0.6934  0.0247 -0.3431
  871MOL0     C17484   8.376   7.363   0.587  0.0710  0.0436 -0.6497
  871MOL0     C17485   8.284   7.261   0.580  0.5658 -0.1800 -0.6461
  871MOL0     O17486   8.152   7.289   0.576  0.3543  0.3240  0.5143
  871MOL0     C17487   8.093   7.308   0.706 -0.5741  0.7220 -0.2603
  871MOL0     C17488   7.965   7.391   0.692  0.3510 -0.2122  0.3461
  871MOL0     C17489   7.858   7.313   0.621  0.4861 -0.1446  1.1691
  871MOL0     C17490   7.776   7.235   0.717  0.2286  0.3595  0.3689
  871MOL0     C17491   7.651   7.304   0.769 -0.1274 -0.7430 -0.4350
  871MOL0     C17492   7.562   7.202   0.844 -0.2762  0.9764 -0.8189
  871MOL0     C17493   7.438   7.260   0.912 -0.0990 -0.3608  0.0279
  871MOL0     C17494   7.348   7.160   0.980  0.2123  0.8893 -0.8027
  871MOL0    Cl17495   7.438   7.039   1.086 -0.0179  0.0186  0.1210
  871MOL0     C17496   8.326   7.125   0.579  0.4381 -0.6243  0.3987
  871MOL0     C17497   8.459   7.100   0.580 -0.0650  0.1892  0.4293
  871MOL0     O17498   8.649   7.152   0.824 -0.8899  0.0594  0.3814
  871MOL0     C17499   8.943   7.149   0.636 -0.6514  0.4663  0.1883
  871MOL0     C17500   9.080   7.140   0.643 -0.2742  0.2974 -0.1472
  871MOL0     N17501   9.839   7.308   0.752 -0.0663 -0.0625  1.2494
  871MOL0     N17502   9.876   7.399   0.836 -0.6816 -0.8130 -0.9631
  871MOL0     C17503  10.986   7.505   1.161 -0.3563  0.4118 -0.6076
  871MOL0     C17504  11.128   7.487   1.158  1.0313  0.1989 -0.1609
  871MOL0     C17505  11.547   7.396   1.244 -0.1738 -0.4458  0.3754
  871MOL0     C17506  11.628   7.278   1.226 -0.0074  0.0046  0.3484
  871MOL0     C17507  11.766   7.285   1.224  0.1925  0.7505  0.5738
  871MOL0     C17508  11.841   7.404   1.236 -0.1008 -0.3596  0.0657
  871MOL0     O17509  11.974   7.412   1.228  0.2325 -0.8307 -0.0400
  871MOL0     C17510  12.050   7.326   1.315 -1.0342  0.1279  0.6074
  871MOL0     C17511  12.182   7.383   1.342  0.4817  0.0932  0.4251
  871MOL0     C17512  12.266   7.423   1.221 -0.6240  0.0765  0.4150
  871MOL0     C17513  12.408   7.460   1.277  0.3948 -0.9243 -0.3015
  871MOL0     C17514  12.503   7.474   1.161  0.1307 -0.1794  0.5120
  871MOL0     C17515  12.559   7.489   1.051 -0.2154  0.2975  0.2037
  871MOL0     C17516  11.767   7.522   1.240  0.3823  0.6127  0.0563
  871MOL0     C17517  11.627   7.514   1.241 -0.0164 -0.3128 -0.3679
  871MOL0     H17518  11.202   7.551   1.489 -1.7922 -0.4546  0.6363
  871MOL0     H17519  10.949   7.578   1.496  1.0820 -1.2102  1.1622
  871MOL0     H17520  10.710   7.513   1.476 -0.7459 -0.1275 -0.2808
  871MOL0     H17521  10.766   7.682   1.455  1.2147 -1.5151  2.1076
  871MOL0     H17522  10.530   7.696   1.455 -1.4713 -1.8636  0.7312
  871MOL0     H17523  10.582   7.712   1.283  0.4501 -0.0482 -0.2800
  871MOL0     H17524  10.514   7.462   1.252 -0.3253 -3.5625  1.4236
  871MOL0     H17525  10.474   7.463   1.425  1.1293  0.8425  0.8065
  871MOL0     H17526  10.289   7.614   1.389  0.6334  2.9797 -1.1803
  871MOL0     H17527  10.354   7.643   1.221 -1.1586 -1.4065 -1.9425
  871MOL0     H17528  10.279   7.412   1.157  2.2685  0.5932 -1.0809
  871MOL0     H17529  10.248   7.369   1.322  1.5743  0.2847  1.1112
  871MOL0     H17530  10.033   7.524   1.307 -1.2657 -1.1816 -0.3707
  871MOL0     H17531  10.114   7.605   1.166 -0.0780  0.7623  1.5289
  871MOL0     H17532  10.092   7.391   1.045  1.8428  0.8534  0.0421
  871MOL0     H17533  10.022   7.316   1.192  0.2321 -0.4418 -0.6909
  871MOL0     H17534   9.876   7.544   1.068 -0.6713 -0.1599 -0.6266
  871MOL0     H17535   9.816   7.404   1.157  2.6205 -0.6801  1.0432
  871MOL0     H17536   9.761   7.183   1.046 -2.0304  1.6794  0.7403
  871MOL0     H17537   9.749   7.074   0.669  0.1350 -0.0192  0.0690
  871MOL0     H17538   9.695   7.013   0.842 -0.1044  0.0671 -0.0906
  871MOL0     H17539   9.549   7.195   0.658  0.6323 -0.3604 -1.4874
  871MOL0     H17540   9.510   7.158   0.831 -1.2968 -2.1021  0.0082
  871MOL0     H17541   9.482   6.934   0.783  0.9290  0.1990 -0.6191
  871MOL0     H17542   9.542   6.958   0.611  1.1681  0.7258  0.7853
  871MOL0     H17543   9.289   6.950   0.603 -0.2817 -1.0265 -0.1511
  871MOL0     H17544   9.347   7.123   0.584 -2.8435  3.2474  3.9117
  871MOL0     H17545   9.117   7.000   0.941  3.8224  1.3116 -0.7162
  871MOL0     H17546   8.932   7.007   1.071  0.3887  2.5476  1.8834
  871MOL0     H17547   8.810   7.134   1.037  1.5135  0.9843  0.0036
  871MOL0     H17548   8.789   6.958   1.004  0.1195  2.0512  1.1630
  871MOL0     H17549   8.594   7.400   0.565 -1.9716  1.5715 -0.0419
  871MOL0     H17550   8.330   7.461   0.580  2.4051  1.2492 -0.1631
  871MOL0     H17551   8.079   7.211   0.754  0.9323  0.4077 -0.4216
  871MOL0     H17552   8.161   7.365   0.770 -0.5898 -0.9605  1.3413
  871MOL0     H17553   7.931   7.424   0.791 -2.5283  1.2548 -0.9961
  871MOL0     H17554   7.994   7.477   0.632 -2.3922  1.3919  1.1414
  871MOL0     H17555   7.900   7.238   0.554  2.5935  0.7669  1.3875
  871MOL0     H17556   7.801   7.381   0.557  2.8890  0.5132 -0.4126
  871MOL0     H17557   7.723   7.150   0.672  1.3438 -1.3544  2.1307
  871MOL0     H17558   7.835   7.201   0.802 -0.5169 -0.0151  0.7425
  871MOL0     H17559   7.593   7.349   0.687 -0.0338 -0.4785 -0.3553
  871MOL0     H17560   7.681   7.386   0.834 -1.4263  0.4698 -1.2994
  871MOL0     H17561   7.524   7.119   0.784  0.6426  1.7405 -2.5086
  871MOL0     H17562   7.627   7.162   0.922 -2.8232 -0.5517  0.6670
  871MOL0     H17563   7.376   7.323   0.847 -2.3118  0.1128  2.4262
  871MOL0     H17564   7.481   7.332   0.982  0.4244  1.8032 -2.3657
  871MOL0     H17565   7.286   7.113   0.903 -0.4867 -0.1441  0.3654
  871MOL0     H17566   7.284   7.225   1.040  1.6239  1.2536  0.3492
  871MOL0     H17567   8.246   7.052   0.582 -0.9552  0.8310  3.0396
  871MOL0     H17568   8.481   6.997   0.608 -0.3953 -0.1177 -0.4142
  871MOL0     H17569   8.903   7.204   0.552 -0.9381 -0.2912 -0.1711
  871MOL0     H17570   9.139   7.171   0.557 -0.7478 -0.9376 -0.9483
  871MOL0     H17571  10.920   7.520   1.076 -0.0750  3.0825 -0.4613
  871MOL0     H17572  11.187   7.481   1.067  1.4869  1.4811  0.0212
  871MOL0     H17573  11.586   7.180   1.210 -1.1002  0.4126  0.6051
  871MOL0     H17574  11.813   7.189   1.202 -1.0406  0.5974 -1.6773
  871MOL0     H17575  12.007   7.296   1.411 -1.0606 -1.0582  0.2436
  871MOL0     H17576  12.076   7.233   1.264  5.8459  1.0689  1.4088
  871MOL0     H17577  12.234   7.303   1.396 -2.1418 -3.8732 -2.3440
  871MOL0     H17578  12.182   7.471   1.407 -0.3325  0.4362 -0.0229
  871MOL0     H17579  12.229   7.515   1.174  1.8285  0.2595 -1.3705
  871MOL0     H17580  12.256   7.338   1.153  0.5754  1.2738 -1.3699
  871MOL0     H17581  12.452   7.390   1.349  0.4303 -0.1197  0.4721
  871MOL0     H17582  12.398   7.552   1.335  0.8872 -2.3671  2.1877
  871MOL0     H17583  12.605   7.489   0.955 -1.6945  0.0017 -0.5321
  871MOL0     H17584  11.813   7.620   1.248 -2.4585  2.1075 -0.2676
  871MOL0     H17585  11.578   7.611   1.232  2.1322  0.6233 -3.9662
  872MOL0     O17586   1.696   2.230   5.679 -0.4980  0.5538  0.2033
  872MOL0     C17587   1.763   2.125   5.686 -1.1863 -0.1721 -0.4773
  872MOL0     O17588   1.750   2.009   5.610 -0.3094 -0.3564  0.2750
  872MOL0     C17589   1.653   2.019   5.521 -0.4857 -0.5931 -0.0084
  872MOL0     C17590   1.685   2.037   5.390  0.1213  1.1595  0.0839
  872MOL0     C17591   1.589   2.081   5.297  0.0055  0.2570 -0.3989
  872MOL0     C17592   1.460   2.103   5.349  0.1731 -0.2666  0.6715
  872MOL0     O17593   1.362   2.155   5.272  0.2180 -0.4564  0.2916
  872MOL0     C17594   1.274   2.048   5.226 -0.9142  0.3521 -0.3247
  872MOL0     C17595   1.153   2.014   5.314  0.4689 -0.5121 -0.5335
  872MOL0     C17596   1.030   1.966   5.226 -1.3051 -0.4191 -0.1354
  872MOL0     C17597   1.062   1.832   5.160  0.3499  0.2517 -0.1395
  872MOL0     C17598   0.947   1.790   5.076  0.4058  0.8847 -0.6395
  872MOL0     C17599   0.973   1.655   5.010 -0.2843 -0.6068  0.0367
  872MOL0     C17600   0.848   1.602   4.931 -0.2554 -0.6121 -0.7283
  872MOL0     C17601   0.833   1.666   4.789 -0.0157  0.7425  0.6421
  872MOL0     N17602   0.790   1.567   4.690 -0.2188  0.4680 -0.1090
  872MOL0     C17603   0.803   1.583   4.557  0.3431  0.4970  1.2364
  872MOL0     C17604   0.763   1.459   4.497  0.9958 -0.3703 -0.5944
  872MOL0     C17605   0.728   1.431   4.358 -0.2419  0.2861 -0.1587
  872MOL0     C17606   0.598   1.362   4.326  0.0058 -0.4315 -0.9478
  872MOL0     C17607   0.582   1.323   4.176  0.6989 -0.6728  0.2024
  872MOL0     C17608   0.456   1.247   4.145  0.4728  0.0791  0.0420
  872MOL0     O17609   0.457   1.105   4.168  0.1601 -0.1886  0.5570
  872MOL0     C17610   0.354   1.029   4.119  0.1582 -0.0944  0.3717
  872MOL0     C17611   0.369   0.897   4.141  0.5727 -0.4835 -0.7059
  872MOL0     C17612   0.278   0.800   4.097 -0.1598  0.5569 -0.2302
  872MOL0     C17613   0.307   0.657   4.142 -0.5224  0.1718 -0.8796
  872MOL0     C17614   0.167   0.840   4.021  0.1367 -0.8938 -0.3831
  872MOL0     C17615   0.053   0.747   3.984 -0.5044 -0.3911 -0.2903
  872MOL0     O17616  -0.059   0.801   3.920 -1.2600  0.5447 -0.6075
  872MOL0     C17617  -0.169   0.719   3.897 -0.1012 -0.0050  0.1881
  872MOL0     C17618  -0.204   0.664   3.772  0.2341 -0.4746 -0.1486
  872MOL0     C17619  -0.322   0.587   3.770 -0.1833  0.3908  0.3896
  872MOL0     C17620  -0.397   0.562   3.882  0.2440  0.2001  0.3573
  872MOL0     O17621  -0.518   0.504   3.846 -0.9613 -0.2124 -0.1373
  872MOL0     C17622  -0.595   0.454   3.952 -0.2903  0.1864 -0.2719
  872MOL0     C17623  -0.719   0.397   3.892 -0.4336  0.3077 -0.6376
  872MOL0     C17624  -0.794   0.300   3.983  0.2922  0.4506 -0.0817
  872MOL0     C17625  -0.910   0.231   3.918  0.3888  0.0567 -0.1069
  872MOL0     C17626  -1.026   0.205   4.009 -0.5898  0.3875  0.0652
  872MOL0     C17627  -1.136   0.119   3.943  0.3134  0.4738 -0.6506
  872MOL0     C17628  -1.253   0.094   4.037  1.0132 -0.0519 -0.3121
  872MOL0     C17629  -1.354   0.019   3.962  0.5983  0.0696  0.4759
  872MOL0    Cl17630  -1.431   0.102   3.825 -0.1310 -0.2932  0.1516
  872MOL0     C17631  -0.357   0.602   4.006 -0.2967 -0.8397 -0.0730
  872MOL0     C17632  -0.236   0.682   4.014  0.2504  0.5684 -1.0409
  872MOL0     O17633   0.070   0.624   4.003 -0.2366 -0.2242 -0.1255
  872MOL0     C17634   0.153   0.978   3.993  0.6308  1.2104 -0.0538
  872MOL0     C17635   0.243   1.076   4.040 -0.6081 -0.3152  0.1842
  872MOL0     N17636   0.719   1.378   4.599 -0.9426 -0.2335 -0.7275
  872MOL0     N17637   0.749   1.432   4.710  0.3494 -0.0567 -0.0373
  872MOL0     C17638   1.431   2.077   5.481  0.7766  0.1743  0.0755
  872MOL0     C17639   1.524   2.028   5.565 -0.6980  0.2706 -0.0796
  872MOL0     C17640   1.859   2.110   5.800  1.0007  0.4354 -0.2664
  872MOL0     C17641   1.933   1.990   5.815 -0.5034 -0.6124 -0.4146
  872MOL0     C17642   2.002   1.961   5.930 -0.2294 -0.2410  0.0700
  872MOL0     C17643   2.002   2.063   6.036 -0.4530  0.6445 -0.1666
  872MOL0     O17644   2.078   2.028   6.148 -0.0327 -0.6096 -1.0395
  872MOL0     C17645   1.993   1.983   6.256 -0.9347  0.2597 -0.6794
  872MOL0     C17646   2.065   2.022   6.380  0.2329  0.4170 -0.8511
  872MOL0     C17647   2.217   1.992   6.395 -0.3886 -0.7452  0.5632
  872MOL0     C17648   2.307   2.116   6.340  0.5839  0.8830 -0.5770
  872MOL0     C17649   2.442   2.108   6.388  0.2563  0.1906  0.6676
  872MOL0     C17650   2.548   2.099   6.441 -0.1433  0.4047 -0.5382
  872MOL0     C17651   1.947   2.191   6.010 -0.1076  0.5273 -0.3096
  872MOL0     C17652   1.875   2.210   5.894  0.6964  0.1663 -0.7618
  872MOL0     H17653   1.790   2.033   5.366 -0.1797 -0.8658 -1.1685
  872MOL0     H17654   1.600   2.106   5.192  0.7864  2.4071  0.1499
  872MOL0     H17655   1.235   2.082   5.130 -2.9010 -0.6442  0.0713
  872MOL0     H17656   1.328   1.953   5.218 -3.0058 -0.8810 -0.5254
  872MOL0     H17657   1.175   1.946   5.397  1.2947  1.0948  0.6135
  872MOL0     H17658   1.121   2.105   5.365 -0.4243 -0.0797 -1.8229
  872MOL0     H17659   0.944   1.946   5.289 -0.1460 -0.1942  1.5776
  872MOL0     H17660   0.986   2.041   5.160  1.4486 -1.1668 -3.0856
  872MOL0     H17661   1.139   1.842   5.082  0.5016  1.6827  0.1664
  872MOL0     H17662   1.087   1.763   5.241 -0.5357 -0.4152 -0.4191
  872MOL0     H17663   0.848   1.804   5.122  0.4464 -0.1952 -0.1980
  872MOL0     H17664   0.940   1.859   4.992  0.8646  0.1995 -1.2478
  872MOL0     H17665   1.055   1.671   4.939  0.9057 -1.2732  1.2228
  872MOL0     H17666   1.007   1.578   5.080  1.7582  0.3284  0.1594
  872MOL0     H17667   0.855   1.493   4.925 -0.4387 -0.8719  2.1430
  872MOL0     H17668   0.765   1.617   5.000 -1.9955 -0.7175 -2.7095
  872MOL0     H17669   0.921   1.721   4.753 -0.9147  1.6368 -0.2833
  872MOL0     H17670   0.758   1.746   4.794 -0.8188 -0.0647  2.5747
  872MOL0     H17671   0.826   1.671   4.497 -2.3504 -0.2051 -1.0470
  872MOL0     H17672   0.733   1.525   4.301  3.6763  0.1109 -0.4099
  872MOL0     H17673   0.810   1.371   4.317  1.1555  2.2619 -0.4558
  872MOL0     H17674   0.512   1.425   4.350  2.2419  2.4829  0.0862
  872MOL0     H17675   0.590   1.271   4.387 -0.2399  0.0380 -0.2651
  872MOL0     H17676   0.673   1.271   4.146  1.8758  0.5388  1.5176
  872MOL0     H17677   0.579   1.419   4.124  0.0723 -0.6982  0.1775
  872MOL0     H17678   0.442   1.273   4.040  0.5138  1.1368  0.2880
  872MOL0     H17679   0.371   1.288   4.200  0.5369  2.7812 -1.7036
  872MOL0     H17680   0.452   0.877   4.208  0.6746  0.4105 -0.5515
  872MOL0     H17681   0.314   0.590   4.056  1.9395  0.5561 -1.0679
  872MOL0     H17682   0.405   0.651   4.190 -0.2146 -0.6279 -1.5789
  872MOL0     H17683   0.238   0.615   4.215  1.3246  0.4672  1.1564
  872MOL0     H17684  -0.140   0.661   3.684 -0.0846 -3.2472 -0.3853
  872MOL0     H17685  -0.353   0.538   3.678 -1.9917 -3.1080  2.6511
  872MOL0     H17686  -0.531   0.376   3.995  0.2100  0.8510  0.1988
  872MOL0     H17687  -0.611   0.526   4.032  0.9889  1.0446 -0.7586
  872MOL0     H17688  -0.785   0.476   3.854  2.1263  2.9648  0.1039
  872MOL0     H17689  -0.683   0.331   3.812 -0.6330 -3.3881  2.0293
  872MOL0     H17690  -0.832   0.362   4.065  0.0406 -0.4695  0.5183
  872MOL0     H17691  -0.721   0.229   4.023  2.3189  2.1786 -0.5018
  872MOL0     H17692  -0.953   0.281   3.831 -4.1416  0.4762  2.0675
  872MOL0     H17693  -0.867   0.135   3.888  0.8642  0.0736  0.4892
  872MOL0     H17694  -1.074   0.291   4.058 -1.4327 -0.2486  0.3729
  872MOL0     H17695  -0.991   0.144   4.093 -0.8097  0.8003  0.4642
  872MOL0     H17696  -1.164   0.169   3.850  0.4899  0.4577 -0.7146
  872MOL0     H17697  -1.092   0.024   3.912  0.1442  0.1227  0.1642
  872MOL0     H17698  -1.300   0.189   4.063  0.1816 -0.2742 -0.9479
  872MOL0     H17699  -1.215   0.038   4.123 -0.4829 -0.9590 -0.2150
  872MOL0     H17700  -1.433  -0.009   4.033  0.5726 -3.0054 -0.6309
  872MOL0     H17701  -1.303  -0.064   3.914  0.0660  1.5808 -3.0259
  872MOL0     H17702  -0.421   0.580   4.091  0.7522  0.3861  1.0875
  872MOL0     H17703  -0.195   0.700   4.112 -1.1988 -3.1540  0.4194
  872MOL0     H17704   0.068   1.021   3.940  1.2154  0.7117 -1.4323
  872MOL0     H17705   0.226   1.176   4.002 -0.3876 -0.5440 -0.5219
  872MOL0     H17706   1.330   2.097   5.514  1.2563 -0.7912  2.3749
  872MOL0     H17707   1.505   2.003   5.669  3.0494  1.3942  1.0514
  872MOL0     H17708   1.936   1.919   5.732  2.8921 -0.5449 -0.4874
  872MOL0     H17709   2.066   1.876   5.951  1.2791  1.5643  3.6953
  872MOL0     H17710   1.888   2.014   6.252 -1.9627 -2.0846  3.2223
  872MOL0     H17711   1.989   1.874   6.248  1.0093  0.1192 -0.2260
  872MOL0     H17712   2.013   1.978   6.466  1.0040  6.0584  3.0885
  872MOL0     H17713   2.043   2.129   6.386  0.1635  0.3788 -0.3520
  872MOL0     H17714   2.245   1.903   6.338  0.5016 -0.9766  1.3448
  872MOL0     H17715   2.252   1.974   6.497  2.2405  0.5647 -0.0331
  872MOL0     H17716   2.263   2.210   6.375 -0.9575 -0.6459  1.8996
  872MOL0     H17717   2.301   2.126   6.231 -6.1548  0.5759 -0.6343
  872MOL0     H17718   2.633   2.086   6.506  0.4593 -1.0368 -1.5429
  872MOL0     H17719   1.955   2.266   6.088  2.3885  0.1954 -0.1444
  872MOL0     H17720   1.824   2.303   5.869  0.0849 -0.3689 -1.5585
  873MOL0     O17721   6.164  11.325   4.019 -0.4822 -0.0491  0.1933
  873MOL0     C17722   6.253  11.291   4.092 -0.1233  0.1925 -0.6016
  873MOL0     O17723   6.241  11.263   4.231  0.1170  0.7320  0.5909
  873MOL0     C17724   6.118  11.260   4.287  1.1274 -0.4163  0.4729
  873MOL0     C17725   5.987  11.260   4.232 -0.0602 -0.0529  0.3667
  873MOL0     C17726   5.873  11.259   4.313  0.3142 -0.4016  0.1761
  873MOL0     C17727   5.888  11.269   4.450  0.4979  0.4024 -0.1579
  873MOL0     O17728   5.788  11.246   4.542  0.3666 -0.4576  0.2626
  873MOL0     C17729   5.648  11.216   4.503  0.1061 -0.0560  1.1457
  873MOL0     C17730   5.636  11.068   4.477 -0.8271 -0.3813  0.1311
  873MOL0     C17731   5.495  11.030   4.460  0.0868 -0.9488  0.2892
  873MOL0     C17732   5.425  10.974   4.579  0.4628 -0.2047  0.3630
  873MOL0     C17733   5.274  10.955   4.545  0.4371  0.2035  0.6853
  873MOL0     C17734   5.200  10.941   4.677  0.4601  0.1705 -0.0163
  873MOL0     C17735   5.051  10.916   4.650 -0.0715  0.4354 -0.2151
  873MOL0     C17736   4.969  10.938   4.778 -0.2649 -0.3153  0.7337
  873MOL0     N17737   4.823  10.939   4.760 -0.3459 -0.2724 -0.2152
  873MOL0     C17738   4.740  11.043   4.793  0.2681 -0.0605  1.0645
  873MOL0     C17739   4.614  10.984   4.787  0.1758  0.1059 -0.1720
  873MOL0     C17740   4.477  11.055   4.807  0.8848 -0.6099 -0.4017
  873MOL0     C17741   4.364  10.972   4.752 -0.1324 -0.4660  0.3916
  873MOL0     C17742   4.227  11.050   4.735 -0.1431  0.2077  0.4759
  873MOL0     C17743   4.123  10.947   4.761 -0.3782 -0.3921  0.2581
  873MOL0     O17744   3.995  11.011   4.762  0.0714 -0.8146 -0.1689
  873MOL0     C17745   3.878  10.946   4.772 -0.1960  1.1819  0.6769
  873MOL0     C17746   3.785  11.002   4.864  0.7869  0.2303 -0.1180
  873MOL0     C17747   3.661  10.938   4.888 -0.6513  0.0113  0.9891
  873MOL0     C17748   3.585  10.996   4.999  0.0898  0.1355 -0.5920
  873MOL0     C17749   3.623  10.820   4.819  1.1129  0.2826 -1.5644
  873MOL0     C17750   3.493  10.764   4.822  1.6207  0.0820  0.3484
  873MOL0     O17751   3.471  10.633   4.781  0.3292  0.5338 -0.1072
  873MOL0     C17752   3.350  10.574   4.813 -0.5497  0.3394 -0.5837
  873MOL0     C17753   3.289  10.565   4.943  0.5414  0.2109  0.4597
  873MOL0     C17754   3.164  10.509   4.967  0.9795  0.4740  0.1086
  873MOL0     C17755   3.089  10.454   4.857  0.2872  0.5687  0.2719
  873MOL0     O17756   2.968  10.388   4.871  0.2125 -0.2899 -0.7145
  873MOL0     C17757   2.922  10.377   5.002  0.1313 -0.1203  0.3202
  873MOL0     C17758   2.790  10.306   5.001  0.5382  0.7034  0.8032
  873MOL0     C17759   2.738  10.302   5.149 -0.5027  0.3700  0.5526
  873MOL0     C17760   2.694  10.155   5.182  0.7122 -0.3347 -0.7906
  873MOL0     C17761   2.677  10.123   5.336 -0.5077  0.2511  0.2748
  873MOL0     C17762   2.636   9.979   5.369 -0.3303 -0.5616 -0.3233
  873MOL0     C17763   2.489   9.977   5.350  0.3963  0.4857  0.7896
  873MOL0     C17764   2.426   9.841   5.371  1.2337 -0.0739 -0.3406
  873MOL0    Cl17765   2.343   9.804   5.524 -0.5872  0.3220 -0.1198
  873MOL0     C17766   3.151  10.456   4.728 -0.3165  0.4852  0.9293
  873MOL0     C17767   3.281  10.514   4.709 -0.5297  0.1914 -0.8416
  873MOL0     O17768   3.404  10.838   4.871  0.0840 -0.3859 -0.6376
  873MOL0     C17769   3.708  10.770   4.720  0.4310  0.2157  0.3615
  873MOL0     C17770   3.834  10.829   4.704  0.1935  0.5010 -0.2777
  873MOL0     N17771   4.635  10.843   4.759  0.2081  0.3518 -0.1827
  873MOL0     N17772   4.759  10.824   4.741  0.1221 -0.1197 -0.5141
  873MOL0     C17773   6.014  11.265   4.508 -0.3226 -0.7714 -0.1823
  873MOL0     C17774   6.124  11.269   4.424 -0.6609 -0.3489 -0.0943
  873MOL0     C17775   6.389  11.282   4.031 -0.0175 -0.4555  0.4100
  873MOL0     C17776   6.420  11.334   3.903 -0.1093  0.4930 -0.0019
  873MOL0     C17777   6.548  11.327   3.855  0.6499  0.0173 -0.8463
  873MOL0     C17778   6.655  11.257   3.922  0.8594  0.1123  0.1186
  873MOL0     O17779   6.778  11.263   3.868  0.2107  0.4633  0.2755
  873MOL0     C17780   6.892  11.239   3.946 -0.0561 -0.0020  0.5011
  873MOL0     C17781   7.010  11.294   3.867  0.1839  1.4433 -0.1332
  873MOL0     C17782   7.147  11.279   3.927  0.8735 -1.5300  0.0403
  873MOL0     C17783   7.196  11.132   3.927 -0.7308 -0.6504  0.6443
  873MOL0     C17784   7.265  11.084   3.805 -0.5241  0.1382  0.2360
  873MOL0     C17785   7.320  11.027   3.716 -0.2551  1.3664 -0.6846
  873MOL0     C17786   6.619  11.202   4.053 -0.6620 -0.5176 -0.3128
  873MOL0     C17787   6.493  11.218   4.102  0.3267 -1.0894  0.2207
  873MOL0     H17788   5.971  11.273   4.126  1.2376 -0.8570  0.0543
  873MOL0     H17789   5.775  11.246   4.267 -0.1949 -0.5757  1.2802
  873MOL0     H17790   5.576  11.242   4.580  0.6010  0.1606  1.5449
  873MOL0     H17791   5.610  11.275   4.419 -1.8399  0.8453  2.5929
  873MOL0     H17792   5.704  11.032   4.400 -1.9361 -1.3778 -0.4060
  873MOL0     H17793   5.678  11.023   4.568 -0.8961  0.2489  0.4805
  873MOL0     H17794   5.437  11.118   4.428  1.1110  0.0075  0.9825
  873MOL0     H17795   5.493  10.955   4.381 -1.6826 -1.2955  0.6213
  873MOL0     H17796   5.470  10.882   4.616 -0.6045 -0.9190 -0.0736
  873MOL0     H17797   5.424  11.044   4.663 -4.4028  1.5468 -0.8262
  873MOL0     H17798   5.234  11.040   4.489 -0.6890 -1.1100 -0.5987
  873MOL0     H17799   5.258  10.857   4.500 -3.8849 -1.3188  4.6950
  873MOL0     H17800   5.239  10.857   4.735 -0.5963 -1.0032 -0.9534
  873MOL0     H17801   5.211  11.039   4.725  1.8450 -0.3406  0.7634
  873MOL0     H17802   5.023  10.980   4.566  1.6037  1.1332 -0.2746
  873MOL0     H17803   5.044  10.811   4.619  2.8898 -0.2088  0.9819
  873MOL0     H17804   4.995  11.043   4.793 -3.7554  1.4550 -3.5491
  873MOL0     H17805   5.001  10.887   4.870 -0.9750  0.1395  1.2404
  873MOL0     H17806   4.763  11.145   4.819 -0.7631  0.5237 -0.2204
  873MOL0     H17807   4.466  11.073   4.914  0.0386  0.6351 -0.6848
  873MOL0     H17808   4.465  11.150   4.754  0.8242 -1.1152 -1.3236
  873MOL0     H17809   4.351  10.876   4.804  0.2641 -0.1929  1.0072
  873MOL0     H17810   4.385  10.941   4.649  0.9030 -2.8381  1.2441
  873MOL0     H17811   4.203  11.090   4.636 -2.0255 -0.7521  0.4969
  873MOL0     H17812   4.216  11.128   4.811  0.0698 -0.1432  0.8675
  873MOL0     H17813   4.139  10.884   4.849 -0.7197  1.0479  1.3978
  873MOL0     H17814   4.128  10.884   4.672  1.5313 -0.6408  0.4940
  873MOL0     H17815   3.805  11.099   4.907 -3.2265  1.6372 -0.9589
  873MOL0     H17816   3.630  11.075   5.060  0.9451 -1.5537  1.0678
  873MOL0     H17817   3.496  11.043   4.957  0.5629 -0.3197 -2.1616
  873MOL0     H17818   3.563  10.910   5.062 -1.6030  0.5949 -0.5062
  873MOL0     H17819   3.332  10.606   5.034 -0.2678  0.0601  0.9133
  873MOL0     H17820   3.131  10.505   5.071  0.3794  0.6549 -0.0731
  873MOL0     H17821   2.995  10.315   5.056 -0.3998  0.4432  1.7198
  873MOL0     H17822   2.907  10.470   5.056 -1.3315  0.6129 -1.2673
  873MOL0     H17823   2.718  10.342   4.927 -0.3126 -2.9294 -0.3542
  873MOL0     H17824   2.808  10.204   4.966 -3.4431 -0.5321  1.8635
  873MOL0     H17825   2.645  10.360   5.159  0.0177  1.0992  1.2254
  873MOL0     H17826   2.817  10.349   5.208  1.7758 -0.3238 -1.7814
  873MOL0     H17827   2.590  10.146   5.147 -0.8344  2.0976  2.5270
  873MOL0     H17828   2.760  10.091   5.123 -0.2405  2.2303 -5.1372
  873MOL0     H17829   2.608  10.198   5.374 -3.7636 -1.3990 -1.9730
  873MOL0     H17830   2.776  10.138   5.382 -0.0779 -1.9230  0.1945
  873MOL0     H17831   2.668   9.905   5.296 -0.9260 -0.1613 -1.0070
  873MOL0     H17832   2.662   9.944   5.470  0.6424  1.1346  0.0612
  873MOL0     H17833   2.450  10.008   5.253 -4.5389 -1.8894  1.7339
  873MOL0     H17834   2.442  10.035   5.431  0.2667  0.6977  0.5635
  873MOL0     H17835   2.507   9.769   5.353  2.5179  0.5662  2.4657
  873MOL0     H17836   2.352   9.816   5.295  1.9444 -1.1985 -0.6914
  873MOL0     H17837   3.100  10.400   4.651 -0.2069  2.1783 -0.4517
  873MOL0     H17838   3.338  10.500   4.619  3.4966  1.5305  1.2600
  873MOL0     H17839   3.682  10.689   4.653 -5.1166  3.7079 -2.3800
  873MOL0     H17840   3.905  10.782   4.637  2.0639  0.9608  1.3138
  873MOL0     H17841   6.036  11.266   4.615  1.6324 -0.4065 -0.5555
  873MOL0     H17842   6.217  11.273   4.480 -1.3587  0.9825  1.0257
  873MOL0     H17843   6.340  11.371   3.840 -0.0242  0.6943  0.0088
  873MOL0     H17844   6.580  11.382   3.767  0.5260  1.1823 -0.1845
  873MOL0     H17845   6.885  11.282   4.046  0.4752  2.3799 -0.4216
  873MOL0     H17846   6.907  11.130   3.949  1.1119 -0.0961 -3.2335
  873MOL0     H17847   6.984  11.399   3.850  0.8959  1.2251 -3.1061
  873MOL0     H17848   7.008  11.238   3.773 -1.7935 -0.1171  0.7487
  873MOL0     H17849   7.122  11.321   4.025 -0.4030  3.1241 -1.9798
  873MOL0     H17850   7.229  11.339   3.888  1.0425 -0.9031  1.2913
  873MOL0     H17851   7.108  11.073   3.954 -2.6809  0.9197 -1.7782
  873MOL0     H17852   7.269  11.134   4.008 -0.6651  2.9168  0.6577
  873MOL0     H17853   7.367  10.978   3.632  0.1921  1.5796 -0.5645
  873MOL0     H17854   6.696  11.151   4.111 -0.7758 -1.7229 -1.1961
  873MOL0     H17855   6.476  11.174   4.200  0.5860 -0.9215  0.3436
  874MOL0     O17856   1.193   0.423   1.176 -0.5385  0.1711 -1.1069
  874MOL0     C17857   1.225   0.401   1.301 -0.0340  0.5124  0.3729
  874MOL0     O17858   1.137   0.361   1.397 -0.0769 -0.6422  0.3622
  874MOL0     C17859   1.003   0.343   1.375 -0.4416 -0.9322  1.3900
  874MOL0     C17860   0.922   0.362   1.488 -0.1598 -0.4620 -0.2817
  874MOL0     C17861   0.788   0.344   1.480  0.5381  0.5527 -0.7185
  874MOL0     C17862   0.732   0.304   1.361 -0.9565 -0.0180  0.4623
  874MOL0     O17863   0.596   0.286   1.377 -0.0601 -0.7168  0.4197
  874MOL0     C17864   0.529   0.211   1.277  0.3945  0.1495 -0.3352
  874MOL0     C17865   0.413   0.139   1.335  0.8936  0.4697  0.4368
  874MOL0     C17866   0.287   0.209   1.319  0.3614 -0.7524  0.1895
  874MOL0     C17867   0.160   0.140   1.338  0.8606  0.3563 -0.1101
  874MOL0     C17868   0.052   0.248   1.335  0.3787 -1.0440 -0.4964
  874MOL0     C17869  -0.073   0.194   1.399 -1.3539 -0.2823  0.1809
  874MOL0     C17870  -0.201   0.282   1.392  0.1422 -0.8601  0.0281
  874MOL0     C17871  -0.165   0.433   1.433  0.1045 -0.0092  0.3752
  874MOL0     N17872  -0.280   0.509   1.474 -0.4340 -0.2147 -0.9099
  874MOL0     C17873  -0.365   0.602   1.405  0.2043  0.0992 -0.7378
  874MOL0     C17874  -0.474   0.618   1.489  0.2118  0.5400 -0.1421
  874MOL0     C17875  -0.605   0.689   1.463 -0.3264  0.9590  0.5619
  874MOL0     C17876  -0.736   0.612   1.472 -0.0132  0.0392  0.3804
  874MOL0     C17877  -0.776   0.579   1.614 -0.2028 -0.0467  0.1224
  874MOL0     C17878  -0.914   0.514   1.621 -0.5017 -0.3447  0.1144
  874MOL0     O17879  -0.934   0.417   1.515 -0.1045 -1.8178 -0.6838
  874MOL0     C17880  -1.054   0.349   1.527  0.7554  0.9662 -0.5835
  874MOL0     C17881  -1.076   0.253   1.433  0.3591 -0.8536  0.6916
  874MOL0     C17882  -1.184   0.156   1.427 -0.9369 -0.8597 -0.8037
  874MOL0     C17883  -1.177   0.039   1.322  0.3841 -0.4713  0.0927
  874MOL0     C17884  -1.279   0.177   1.529  0.0639 -0.3972  0.7014
  874MOL0     C17885  -1.406   0.099   1.539  0.5472 -0.0725  0.4791
  874MOL0     O17886  -1.495   0.108   1.643 -0.0331  0.5233 -0.3579
  874MOL0     C17887  -1.473   0.027   1.753 -0.4722  0.2761  0.1550
  874MOL0     C17888  -1.352  -0.039   1.780  0.5547  0.0780  0.6311
  874MOL0     C17889  -1.345  -0.125   1.886  0.7238 -0.7217  0.3154
  874MOL0     C17890  -1.451  -0.128   1.982 -0.3136  0.5835  0.7676
  874MOL0     O17891  -1.437  -0.191   2.104 -0.2376 -0.0078  0.1999
  874MOL0     C17892  -1.327  -0.274   2.128 -0.0817 -0.5932  0.2864
  874MOL0     C17893  -1.352  -0.330   2.269 -0.4424 -0.2913  0.3463
  874MOL0     C17894  -1.479  -0.413   2.287  0.1745 -0.0057  0.8781
  874MOL0     C17895  -1.570  -0.344   2.380 -0.0361  0.3106 -0.3346
  874MOL0     C17896  -1.703  -0.417   2.422  0.2750  0.2654 -0.6027
  874MOL0     C17897  -1.767  -0.504   2.313 -0.5912  0.2429 -0.4343
  874MOL0     C17898  -1.898  -0.580   2.370 -0.0667  0.2390  0.2316
  874MOL0     C17899  -2.011  -0.484   2.392 -0.1544 -0.2609  0.0278
  874MOL0    Cl17900  -2.158  -0.581   2.436 -0.0150  0.0613 -0.0489
  874MOL0     C17901  -1.570  -0.063   1.954  0.1014  0.0309  0.6634
  874MOL0     C17902  -1.578   0.013   1.836  0.2822  0.1866 -0.4607
  874MOL0     O17903  -1.429   0.041   1.434 -0.1469  0.1653  0.6016
  874MOL0     C17904  -1.256   0.283   1.629  0.8765  0.8782  0.0667
  874MOL0     C17905  -1.144   0.364   1.634  0.3578 -0.4043  0.0674
  874MOL0     N17906  -0.439   0.551   1.614  0.0589 -0.1395  0.7335
  874MOL0     N17907  -0.322   0.487   1.601 -0.1326 -0.4689  0.2917
  874MOL0     C17908   0.808   0.272   1.245  0.7838  0.2732  0.2133
  874MOL0     C17909   0.944   0.286   1.260  0.4650 -0.5479  0.3117
  874MOL0     C17910   1.367   0.405   1.347  0.4841 -0.2572 -0.3346
  874MOL0     C17911   1.481   0.426   1.264  0.1278  0.0533 -0.2036
  874MOL0     C17912   1.612   0.439   1.316 -0.2983 -1.1761 -0.4163
  874MOL0     C17913   1.628   0.448   1.464 -0.4112 -0.3121  0.7984
  874MOL0     O17914   1.741   0.445   1.542  0.2295  0.0780 -0.4675
  874MOL0     C17915   1.868   0.452   1.475  0.0124  1.0429  0.1551
  874MOL0     C17916   1.973   0.500   1.566 -1.1358  0.3906  0.0100
  874MOL0     C17917   2.113   0.478   1.491 -0.8164  0.1342  0.2883
  874MOL0     C17918   2.242   0.503   1.583  0.2052 -0.5451  0.4154
  874MOL0     C17919   2.236   0.640   1.651  1.6192  0.1551  0.0194
  874MOL0     C17920   2.211   0.749   1.707  0.1627  0.2986  0.6352
  874MOL0     C17921   1.514   0.436   1.545  0.4169 -0.8308 -0.6578
  874MOL0     C17922   1.391   0.405   1.483 -0.4686  0.1832 -0.3438
  874MOL0     H17923   0.962   0.382   1.587 -0.8572  1.4552 -0.3504
  874MOL0     H17924   0.720   0.359   1.563  0.9391 -2.3246  0.2582
  874MOL0     H17925   0.504   0.272   1.189  0.0786 -0.1760 -0.4726
  874MOL0     H17926   0.590   0.127   1.243 -2.5456 -1.4797 -2.0491
  874MOL0     H17927   0.404   0.044   1.281  2.8612  0.5178 -0.0459
  874MOL0     H17928   0.432   0.106   1.437  0.2494 -1.5593 -0.0358
  874MOL0     H17929   0.291   0.294   1.388  0.0260 -0.2320 -0.4295
  874MOL0     H17930   0.277   0.260   1.223 -2.2155 -0.0920  0.7436
  874MOL0     H17931   0.143   0.059   1.267  0.0823 -0.6162  1.1490
  874MOL0     H17932   0.165   0.086   1.433  0.5842 -1.2356 -0.9643
  874MOL0     H17933   0.080   0.323   1.410 -0.3189 -3.8376  2.8085
  874MOL0     H17934   0.047   0.286   1.232  1.3837  0.5836  0.0111
  874MOL0     H17935  -0.106   0.102   1.348 -1.8005 -0.0240 -0.0070
  874MOL0     H17936  -0.046   0.157   1.498 -0.1132 -0.9134 -0.3701
  874MOL0     H17937  -0.246   0.284   1.292 -3.2766 -0.3130  1.4427
  874MOL0     H17938  -0.279   0.233   1.452 -1.1549 -0.5906 -1.3623
  874MOL0     H17939  -0.129   0.494   1.351  0.9625  1.6430  1.9098
  874MOL0     H17940  -0.101   0.426   1.522  0.4917 -2.0206 -0.0155
  874MOL0     H17941  -0.353   0.654   1.311 -0.4150 -1.2746 -1.6157
  874MOL0     H17942  -0.605   0.776   1.529 -2.9360 -0.6116  2.8481
  874MOL0     H17943  -0.589   0.729   1.362  3.7567 -0.6585  0.3906
  874MOL0     H17944  -0.728   0.526   1.404 -1.0874 -0.3518  0.7372
  874MOL0     H17945  -0.813   0.677   1.429  0.0755 -0.9739 -1.4267
  874MOL0     H17946  -0.756   0.656   1.689 -0.9167  0.4071 -0.1435
  874MOL0     H17947  -0.704   0.499   1.632  1.1647  0.7637 -1.5213
  874MOL0     H17948  -0.989   0.594   1.624 -1.9941 -1.6742 -0.6425
  874MOL0     H17949  -0.921   0.461   1.716 -0.3084 -1.1035 -0.2901
  874MOL0     H17950  -1.001   0.248   1.355  0.3902  0.1672  0.6387
  874MOL0     H17951  -1.226  -0.051   1.361 -0.3856  0.6601  1.8795
  874MOL0     H17952  -1.232   0.069   1.232  1.3457  0.1332 -0.3082
  874MOL0     H17953  -1.072   0.018   1.300  0.5972 -0.0305  0.6557
  874MOL0     H17954  -1.260  -0.034   1.722 -0.2512 -0.6807 -0.7567
  874MOL0     H17955  -1.247  -0.164   1.911  1.0646  0.8086  1.5340
  874MOL0     H17956  -1.315  -0.338   2.040  0.1089  1.7288 -1.4426
  874MOL0     H17957  -1.238  -0.211   2.132 -0.7995  0.5159 -0.7261
  874MOL0     H17958  -1.268  -0.393   2.300  0.4977  1.0764  0.6765
  874MOL0     H17959  -1.345  -0.245   2.338 -3.3499  0.0887  0.2742
  874MOL0     H17960  -1.450  -0.511   2.327 -2.4828 -0.5278  1.7511
  874MOL0     H17961  -1.528  -0.430   2.191  1.4760 -0.0911  0.2093
  874MOL0     H17962  -1.519  -0.309   2.470  4.0206  0.2959 -2.4183
  874MOL0     H17963  -1.600  -0.252   2.329  0.7217 -1.1426 -3.7151
  874MOL0     H17964  -1.779  -0.351   2.463 -0.1748 -0.0580 -0.9139
  874MOL0     H17965  -1.678  -0.486   2.503 -1.3248 -1.4370 -1.4937
  874MOL0     H17966  -1.801  -0.448   2.226 -5.0858 -1.5850 -0.1420
  874MOL0     H17967  -1.697  -0.582   2.281  1.8485  2.4913 -0.9026
  874MOL0     H17968  -1.880  -0.626   2.468 -1.8429 -1.2591 -0.1001
  874MOL0     H17969  -1.922  -0.661   2.301 -1.3966  0.4536  0.4323
  874MOL0     H17970  -2.024  -0.430   2.298  5.6514  0.2949 -0.8539
  874MOL0     H17971  -1.988  -0.416   2.475 -0.1437 -1.2942  0.9017
  874MOL0     H17972  -1.651  -0.076   2.025 -1.3318  0.2151 -0.8661
  874MOL0     H17973  -1.671   0.066   1.815 -0.7124 -1.4590 -0.4177
  874MOL0     H17974  -1.341   0.290   1.697 -1.8789 -1.2835 -2.8616
  874MOL0     H17975  -1.137   0.430   1.719 -3.0221 -3.6371  3.2186
  874MOL0     H17976   0.757   0.235   1.157 -3.1054  3.1775  0.9451
  874MOL0     H17977   1.009   0.258   1.178 -0.7844  0.4545 -1.0863
  874MOL0     H17978   1.464   0.434   1.157 -0.4456  1.8636 -0.0082
  874MOL0     H17979   1.688   0.447   1.238 -0.1984  2.5479 -0.1252
  874MOL0     H17980   1.894   0.348   1.457  3.0440  1.2869  2.4276
  874MOL0     H17981   1.860   0.505   1.380  0.4367 -0.9487 -1.0241
  874MOL0     H17982   1.979   0.438   1.656  1.8003  1.6912  0.8268
  874MOL0     H17983   1.958   0.606   1.592  1.1599  0.0917  3.1075
  874MOL0     H17984   2.119   0.550   1.409 -0.6863  0.3008  0.4417
  874MOL0     H17985   2.136   0.381   1.446 -1.8302  1.5344 -3.6748
  874MOL0     H17986   2.333   0.482   1.527 -0.5430 -0.3089 -0.9379
  874MOL0     H17987   2.240   0.420   1.654 -3.8496 -2.2799 -1.4265
  874MOL0     H17988   2.176   0.838   1.755 -0.8915 -0.0920  0.6157
  874MOL0     H17989   1.523   0.450   1.652  1.0394 -1.5802 -0.6017
  874MOL0     H17990   1.308   0.403   1.553  0.2833 -1.4738  0.5698
  875MOL0     O17991   7.983   9.856   1.744  0.1847 -0.3742  1.1808
  875MOL0     C17992   8.018   9.749   1.716 -0.0748  0.7700 -0.0882
  875MOL0     O17993   7.942   9.640   1.706  0.0484 -0.7644 -0.5128
  875MOL0     C17994   7.805   9.645   1.708 -0.3226  0.3631 -0.0186
  875MOL0     C17995   7.721   9.738   1.644 -1.0013  0.0121 -0.1143
  875MOL0     C17996   7.585   9.723   1.650  0.0053 -0.0857 -0.7991
  875MOL0     C17997   7.526   9.624   1.723  0.1703 -0.5306 -0.0372
  875MOL0     O17998   7.391   9.605   1.741  0.2549 -0.3867  0.6939
  875MOL0     C17999   7.292   9.680   1.671  0.5140 -0.4609  0.3027
  875MOL0     C18000   7.154   9.650   1.727 -0.3877  0.6481 -0.3943
  875MOL0     C18001   7.137   9.691   1.878 -0.9995  0.4373  0.2434
  875MOL0     C18002   7.122   9.841   1.898 -0.4154  0.1495 -1.0180
  875MOL0     C18003   7.112   9.887   2.050  1.1588  0.1545 -0.4754
  875MOL0     C18004   7.003   9.813   2.139 -0.4732  0.1741  0.1136
  875MOL0     C18005   6.862   9.851   2.090 -0.2978 -0.2814 -0.4748
  875MOL0     C18006   6.759   9.786   2.182 -0.2901 -0.1492 -0.0122
  875MOL0     N18007   6.629   9.855   2.181  0.6197  0.5433  0.5995
  875MOL0     C18008   6.608   9.984   2.223 -0.4576 -0.4305  0.0104
  875MOL0     C18009   6.473   9.999   2.230 -0.2906  0.6621 -0.3659
  875MOL0     C18010   6.414  10.128   2.253 -0.3307  0.1255 -0.7372
  875MOL0     C18011   6.274  10.128   2.330 -0.1477  0.4816 -0.1018
  875MOL0     C18012   6.260  10.019   2.437 -0.6360  0.8349 -0.8070
  875MOL0     C18013   6.116   9.976   2.487  0.0964  0.2373 -0.1684
  875MOL0     O18014   6.056  10.085   2.560 -0.0541  0.4681 -0.7251
  875MOL0     C18015   5.945  10.064   2.634 -0.4837  0.5756 -0.9026
  875MOL0     C18016   5.918  10.148   2.746 -0.1014  0.2561 -0.6130
  875MOL0     C18017   5.785  10.142   2.809 -0.7707  0.0664 -0.2688
  875MOL0     C18018   5.766  10.245   2.919  0.1695  0.4253 -0.1712
  875MOL0     C18019   5.689  10.049   2.762 -0.0414  0.4960 -0.1078
  875MOL0     C18020   5.551  10.035   2.811 -0.2748  0.5804  1.0932
  875MOL0     O18021   5.466   9.950   2.749  0.3509 -0.1060 -0.8083
  875MOL0     C18022   5.336   9.992   2.719 -1.0240 -0.6669  0.0254
  875MOL0     C18023   5.285  10.120   2.737 -0.3992 -0.7448  0.9391
  875MOL0     C18024   5.152  10.145   2.698  0.5107 -0.1239  0.2675
  875MOL0     C18025   5.070  10.045   2.646  0.5678  0.7675  0.1817
  875MOL0     O18026   4.932  10.070   2.629  0.6545  0.1701  0.9732
  875MOL0     C18027   4.866   9.984   2.532  0.3098 -0.1042  0.1858
  875MOL0     C18028   4.728  10.035   2.511  0.6242  1.8347 -0.1036
  875MOL0     C18029   4.718  10.176   2.459  0.2353 -0.7068  0.4686
  875MOL0     C18030   4.569  10.232   2.476 -0.2847  0.1246  0.2387
  875MOL0     C18031   4.491  10.221   2.347  0.3092  0.4554 -0.0600
  875MOL0     C18032   4.348  10.269   2.359  0.3807  0.1058 -0.7438
  875MOL0     C18033   4.290  10.299   2.225 -0.6667 -0.3685  0.1057
  875MOL0     C18034   4.142  10.334   2.216 -0.3043 -0.3847 -0.7174
  875MOL0    Cl18035   4.033  10.192   2.214  0.1875  0.0664 -0.3868
  875MOL0     C18036   5.131   9.919   2.627  0.1219  0.3291 -0.3334
  875MOL0     C18037   5.265   9.899   2.653  1.0109 -0.2297  0.1147
  875MOL0     O18038   5.518  10.101   2.909  0.7990  0.0083  0.2394
  875MOL0     C18039   5.729   9.961   2.665  0.1916  0.1218 -0.7580
  875MOL0     C18040   5.852   9.973   2.604  0.0200  0.0991 -0.5935
  875MOL0     N18041   6.408   9.879   2.201  0.2311  0.3084 -0.2823
  875MOL0     N18042   6.504   9.798   2.176 -0.1514 -0.1888 -0.5780
  875MOL0     C18043   7.608   9.543   1.797  0.2488 -0.3276 -0.1734
  875MOL0     C18044   7.745   9.546   1.791  0.5171  0.7022  0.9436
  875MOL0     C18045   8.161   9.729   1.692 -0.1533 -0.7159  0.0520
  875MOL0     C18046   8.248   9.837   1.696 -0.4657  0.7692 -0.8203
  875MOL0     C18047   8.393   9.822   1.683 -0.6036  0.2085  0.0673
  875MOL0     C18048   8.448   9.702   1.634  0.1810 -0.0227 -0.2469
  875MOL0     O18049   8.584   9.677   1.615  0.0329  0.2285  0.4074
  875MOL0     C18050   8.676   9.771   1.675  0.0012 -0.7980  0.4755
  875MOL0     C18051   8.822   9.738   1.654 -0.9395 -0.3296  1.0723
  875MOL0     C18052   8.857   9.753   1.503  0.3071 -0.5789 -0.7241
  875MOL0     C18053   8.999   9.783   1.454 -0.8051 -0.0112 -0.0459
  875MOL0     C18054   9.106   9.700   1.526  0.9055 -0.1227 -0.0052
  875MOL0     C18055   9.183   9.629   1.578  0.0630 -0.4182  0.8971
  875MOL0     C18056   8.365   9.594   1.628  0.2920 -0.1051  0.8910
  875MOL0     C18057   8.225   9.606   1.656  0.7119 -0.1004 -1.1234
  875MOL0     H18058   7.767   9.815   1.584  0.4234  1.3529  2.5424
  875MOL0     H18059   7.524   9.781   1.582  0.9853 -0.0059 -1.6135
  875MOL0     H18060   7.310   9.788   1.664 -1.4701 -0.1044  0.3347
  875MOL0     H18061   7.283   9.646   1.568  1.7651 -1.4134  0.4909
  875MOL0     H18062   7.063   9.695   1.684 -0.2450  1.0514 -0.2807
  875MOL0     H18063   7.137   9.543   1.711  2.2419  0.5513 -3.6741
  875MOL0     H18064   7.058   9.630   1.923  1.3628 -3.8915 -0.8624
  875MOL0     H18065   7.229   9.664   1.932 -1.5000 -0.6253  0.5900
  875MOL0     H18066   7.205   9.896   1.853  0.2803  0.0228  0.0696
  875MOL0     H18067   7.047   9.888   1.834  0.5021  0.7804 -1.6496
  875MOL0     H18068   7.205   9.856   2.097 -0.6855 -1.8570  2.2130
  875MOL0     H18069   7.109   9.996   2.057  1.4136  0.2276 -1.4294
  875MOL0     H18070   7.020   9.707   2.157 -2.2064 -0.0420  0.6390
  875MOL0     H18071   7.013   9.868   2.234 -0.5705  2.9093 -1.3515
  875MOL0     H18072   6.837   9.957   2.101 -0.2339 -0.3266  0.1222
  875MOL0     H18073   6.855   9.811   1.989  3.6408 -1.4903 -0.4289
  875MOL0     H18074   6.794   9.781   2.286 -2.6829  1.3392  0.9496
  875MOL0     H18075   6.749   9.679   2.160  1.8089 -0.5370  0.7174
  875MOL0     H18076   6.679  10.066   2.232  0.7252 -1.3342 -0.6777
  875MOL0     H18077   6.488  10.183   2.310  0.8987 -1.7683 -0.4304
  875MOL0     H18078   6.400  10.187   2.162  1.6290  1.7690 -0.0443
  875MOL0     H18079   6.192  10.125   2.258  0.4904 -1.5975 -0.8163
  875MOL0     H18080   6.278  10.225   2.379 -1.2673  1.5260 -1.9679
  875MOL0     H18081   6.318  10.056   2.522 -0.5725  1.7573 -1.2355
  875MOL0     H18082   6.308   9.926   2.406  1.0783  1.1425  0.7117
  875MOL0     H18083   6.140   9.893   2.554 -3.1544  1.1076  2.3672
  875MOL0     H18084   6.045   9.944   2.411 -2.2038  1.8699  1.1525
  875MOL0     H18085   5.993  10.207   2.795 -0.7890  0.9456 -0.3699
  875MOL0     H18086   5.853  10.312   2.921  0.0160  0.6561 -0.8595
  875MOL0     H18087   5.673  10.299   2.902 -4.0144 -5.9085 -0.6465
  875MOL0     H18088   5.748  10.203   3.018 -0.2475 -0.0116 -0.4298
  875MOL0     H18089   5.337  10.201   2.786 -0.4840 -1.9625  3.1562
  875MOL0     H18090   5.111  10.243   2.721  1.3976  0.3388 -0.1133
  875MOL0     H18091   4.917   9.996   2.436 -0.5883 -1.1071 -0.4340
  875MOL0     H18092   4.862   9.884   2.577  0.9988  0.0118  0.5312
  875MOL0     H18093   4.670   9.969   2.446  0.6651  0.6856  1.0010
  875MOL0     H18094   4.679  10.032   2.608 -1.3799 -0.5759 -1.1046
  875MOL0     H18095   4.752  10.166   2.355  1.0098  0.5936  0.5840
  875MOL0     H18096   4.789  10.240   2.512  0.1807 -2.0912  2.3184
  875MOL0     H18097   4.516  10.172   2.550  0.7678  0.0447  0.9581
  875MOL0     H18098   4.559  10.340   2.487 -1.4527  0.1354 -0.7307
  875MOL0     H18099   4.503  10.126   2.295 -0.8293  1.1134 -1.6007
  875MOL0     H18100   4.547  10.285   2.278 -0.9651  3.6137  1.6079
  875MOL0     H18101   4.292  10.193   2.415 -0.8672  0.5019 -1.4104
  875MOL0     H18102   4.341  10.365   2.410  2.7511 -0.9071  1.7656
  875MOL0     H18103   4.308  10.212   2.161  0.4977 -0.2313  0.2337
  875MOL0     H18104   4.351  10.383   2.191 -0.8506 -0.9703 -1.8368
  875MOL0     H18105   4.134  10.409   2.136  2.2968  2.8439  1.7392
  875MOL0     H18106   4.112  10.392   2.304 -0.1378 -0.8598 -0.3455
  875MOL0     H18107   5.073   9.834   2.595 -1.6468  0.8305  1.3281
  875MOL0     H18108   5.302   9.799   2.630  2.3101  0.2867 -0.1657
  875MOL0     H18109   5.656   9.888   2.634 -1.5597  1.5403 -0.1695
  875MOL0     H18110   5.879   9.902   2.525 -0.9417 -1.3408  0.3202
  875MOL0     H18111   7.558   9.464   1.852 -0.7792  1.0559  0.9612
  875MOL0     H18112   7.801   9.475   1.850 -0.0955 -0.3393  0.3048
  875MOL0     H18113   8.206   9.933   1.723  1.3960  2.1245 -2.4688
  875MOL0     H18114   8.451   9.911   1.704  0.7696 -1.3006  3.1824
  875MOL0     H18115   8.662   9.878   1.656  1.2808 -0.8419 -0.9037
  875MOL0     H18116   8.654   9.753   1.781 -2.3011 -1.1939 -0.0033
  875MOL0     H18117   8.863   9.641   1.683  2.7548  1.7733  3.8680
  875MOL0     H18118   8.886   9.815   1.699 -0.6299  0.9839 -1.4491
  875MOL0     H18119   8.794   9.833   1.463 -1.3290 -1.8280 -0.7624
  875MOL0     H18120   8.835   9.661   1.448  0.5864 -0.5819 -0.8319
  875MOL0     H18121   9.023   9.888   1.472  2.5374 -0.4514 -1.2068
  875MOL0     H18122   9.000   9.763   1.346  1.5940 -0.0532 -0.0862
  875MOL0     H18123   9.254   9.568   1.629  1.0571  1.7805  2.2996
  875MOL0     H18124   8.394   9.495   1.593 -1.1230 -0.9822  2.0612
  875MOL0     H18125   8.168   9.515   1.642 -1.3248  0.8630  0.3439
  876MOL0     O18126   9.047   7.623   9.641 -0.1673  0.1441 -0.3069
  876MOL0     C18127   9.126   7.696   9.578 -0.1615  0.0185 -0.2026
  876MOL0     O18128   9.086   7.781   9.479  0.4256 -0.2361  0.2793
  876MOL0     C18129   8.952   7.779   9.428 -1.1657  0.7152  0.2536
  876MOL0     C18130   8.939   7.824   9.297  0.4935 -0.2343 -0.0431
  876MOL0     C18131   8.815   7.826   9.238  0.4011 -0.0067 -0.2688
  876MOL0     C18132   8.700   7.796   9.306  1.2322  0.2285 -0.6407
  876MOL0     O18133   8.583   7.833   9.246  0.7810 -0.5199  0.0590
  876MOL0     C18134   8.504   7.723   9.202  0.2865 -0.4352 -0.4987
  876MOL0     C18135   8.366   7.780   9.182 -0.1304 -0.5380  0.2744
  876MOL0     C18136   8.297   7.853   9.301 -0.4295  0.4475 -0.3377
  876MOL0     C18137   8.272   7.753   9.416 -0.4074 -0.5534 -0.5302
  876MOL0     C18138   8.201   7.817   9.533  0.6030 -0.5484  0.2250
  876MOL0     C18139   8.181   7.709   9.641  0.0169 -0.9323 -0.0579
  876MOL0     C18140   8.128   7.773   9.772  0.0877 -0.5686  0.2257
  876MOL0     C18141   8.034   7.666   9.839 -0.3248 -0.7272  0.5575
  876MOL0     N18142   7.916   7.645   9.762 -0.5599 -0.1176  0.6765
  876MOL0     C18143   7.826   7.736   9.735 -0.2562  0.3530  0.4108
  876MOL0     C18144   7.716   7.675   9.706  0.9346 -0.0643  0.1163
  876MOL0     C18145   7.592   7.752   9.670  0.0296  0.8806 -0.2347
  876MOL0     C18146   7.459   7.675   9.697 -0.3767  0.2776  0.4091
  876MOL0     C18147   7.442   7.549   9.609  0.5985  0.9604  0.2349
  876MOL0     C18148   7.293   7.506   9.588  0.8134 -0.0500  0.0936
  876MOL0     O18149   7.225   7.604   9.513 -0.6738  0.2210  0.0474
  876MOL0     C18150   7.111   7.568   9.442 -0.3469 -0.6514 -0.0291
  876MOL0     C18151   7.046   7.445   9.462 -1.1480 -0.1442 -0.0542
  876MOL0     C18152   6.927   7.410   9.398  0.4543  0.4137 -0.2694
  876MOL0     C18153   6.880   7.266   9.417  0.1967 -0.1593  0.0344
  876MOL0     C18154   6.873   7.497   9.305  0.3154 -0.4031  0.8535
  876MOL0     C18155   6.749   7.477   9.226  0.2876  0.2348  0.3274
  876MOL0     O18156   6.658   7.398   9.292 -0.0200 -0.8259  0.2648
  876MOL0     C18157   6.535   7.383   9.226  0.5386  2.0009  0.3360
  876MOL0     C18158   6.437   7.476   9.211  1.1661 -0.5071  0.4628
  876MOL0     C18159   6.314   7.436   9.163  0.0362 -0.0230  0.1525
  876MOL0     C18160   6.276   7.306   9.122  0.2646  0.6477 -0.0587
  876MOL0     O18161   6.155   7.271   9.069  0.9902 -0.3337  0.9104
  876MOL0     C18162   6.146   7.315   8.926  0.3653 -0.4631 -0.2751
  876MOL0     C18163   5.994   7.298   8.893 -1.1325  0.6054  0.0979
  876MOL0     C18164   5.876   7.353   8.981  0.0633  0.6974 -0.8003
  876MOL0     C18165   5.892   7.507   9.019  1.0236 -0.3377  0.2341
  876MOL0     C18166   5.776   7.560   9.096  1.2316 -0.3215  0.7600
  876MOL0     C18167   5.633   7.540   9.033  0.1569  0.2420 -0.0122
  876MOL0     C18168   5.523   7.563   9.137  1.0811  0.6277 -1.3187
  876MOL0     C18169   5.377   7.569   9.098  0.0489 -0.0044  0.6199
  876MOL0    Cl18170   5.249   7.503   9.204  0.2162  0.0463 -0.1485
  876MOL0     C18171   6.376   7.211   9.142 -0.1851  0.6218 -0.0923
  876MOL0     C18172   6.502   7.243   9.201 -0.2890  0.5428  0.7555
  876MOL0     O18173   6.729   7.539   9.117  0.1128  0.5189 -0.0064
  876MOL0     C18174   6.945   7.613   9.274  0.1509  0.2117  0.2538
  876MOL0     C18175   7.057   7.650   9.345  0.0998  0.1677 -0.8456
  876MOL0     N18176   7.739   7.542   9.697  0.5852  0.4575  0.6325
  876MOL0     N18177   7.865   7.523   9.728 -0.2664  0.1575  0.7622
  876MOL0     C18178   8.711   7.755   9.442 -0.0285 -0.9675 -0.7464
  876MOL0     C18179   8.837   7.755   9.506  0.3442  0.1372 -0.5662
  876MOL0     C18180   9.271   7.695   9.626  0.3331 -0.4080  0.8495
  876MOL0     C18181   9.354   7.784   9.571 -0.6805 -0.5434 -0.4304
  876MOL0     C18182   9.495   7.788   9.615 -0.0650  0.0110 -0.1128
  876MOL0     C18183   9.535   7.710   9.709 -0.2916  0.0809 -0.0977
  876MOL0     O18184   9.665   7.720   9.746 -0.0913 -0.3382  0.1596
  876MOL0     C18185   9.714   7.665   9.865 -0.8387 -0.8152 -0.7264
  876MOL0     C18186   9.698   7.749   9.997  0.3932 -0.5719  0.8174
  876MOL0     C18187   9.744   7.690  10.130  1.2106 -0.7782 -0.1886
  876MOL0     C18188   9.880   7.741  10.181 -0.0071  0.0846 -0.4482
  876MOL0     C18189   9.990   7.683  10.111  1.1175 -0.0524  0.4726
  876MOL0     C18190  10.080   7.634  10.043  0.1662  0.0106 -0.1603
  876MOL0     C18191   9.449   7.616   9.764  0.1125  1.0160  0.0822
  876MOL0     C18192   9.318   7.615   9.728 -0.5225  0.3932  0.1118
  876MOL0     H18193   9.029   7.845   9.241 -0.4755  2.3786 -0.7497
  876MOL0     H18194   8.819   7.857   9.134 -1.0559 -1.3040 -0.7466
  876MOL0     H18195   8.532   7.686   9.103 -1.2106  1.1954 -1.5813
  876MOL0     H18196   8.516   7.644   9.277 -0.1193  1.6535  1.9029
  876MOL0     H18197   8.375   7.833   9.087  0.0105 -3.5250 -1.5206
  876MOL0     H18198   8.299   7.696   9.159  1.7236 -1.0969 -3.7718
  876MOL0     H18199   8.348   7.947   9.327 -1.7102  0.6118  1.7622
  876MOL0     H18200   8.195   7.882   9.275 -0.0206  0.2152 -2.3688
  876MOL0     H18201   8.215   7.671   9.371 -0.4180  0.1139 -1.7794
  876MOL0     H18202   8.363   7.703   9.453 -0.0338 -0.8579 -1.8022
  876MOL0     H18203   8.259   7.900   9.576 -1.3559  2.2037 -2.0081
  876MOL0     H18204   8.110   7.866   9.496  1.5221 -0.5441 -2.2499
  876MOL0     H18205   8.104   7.637   9.610 -1.4532  1.0642 -1.2941
  876MOL0     H18206   8.273   7.659   9.671  1.1075  1.6062  1.1064
  876MOL0     H18207   8.206   7.806   9.840 -0.2311 -1.1084  0.8729
  876MOL0     H18208   8.074   7.865   9.746  2.9705  0.6126 -2.1161
  876MOL0     H18209   8.008   7.705   9.938  0.2683  0.5944  0.2291
  876MOL0     H18210   8.094   7.577   9.858  2.3086  1.0354  1.1120
  876MOL0     H18211   7.840   7.842   9.750 -1.4107  0.0845  4.7725
  876MOL0     H18212   7.582   7.847   9.724  0.1249  0.9584 -0.3543
  876MOL0     H18213   7.608   7.780   9.566  0.6555 -1.4089 -0.8050
  876MOL0     H18214   7.378   7.746   9.677  0.6228  1.1448 -0.7601
  876MOL0     H18215   7.458   7.632   9.798  0.1484 -1.5961 -0.3387
  876MOL0     H18216   7.503   7.462   9.638  2.3754  2.3760  0.9271
  876MOL0     H18217   7.476   7.570   9.507  0.8399  2.0017  0.5256
  876MOL0     H18218   7.243   7.478   9.681 -3.0151 -2.3371 -2.3514
  876MOL0     H18219   7.292   7.409   9.538 -2.7963  0.6972 -1.5989
  876MOL0     H18220   7.098   7.376   9.528  0.7279  1.8903  0.7419
  876MOL0     H18221   6.815   7.275   9.504 -1.2416  0.3263 -1.0327
  876MOL0     H18222   6.830   7.230   9.326 -1.0736  0.2907  0.5326
  876MOL0     H18223   6.962   7.200   9.445 -1.3343 -1.1684  2.4158
  876MOL0     H18224   6.449   7.575   9.253  2.3290 -0.4510  0.0397
  876MOL0     H18225   6.236   7.512   9.156 -0.6621 -0.5013  2.0785
  876MOL0     H18226   6.165   7.421   8.906  0.1817 -0.4344 -0.2971
  876MOL0     H18227   6.204   7.253   8.857 -1.8520 -2.7781 -0.1955
  876MOL0     H18228   5.979   7.354   8.801 -1.2180  2.1299  0.9964
  876MOL0     H18229   5.989   7.192   8.868  0.8887  0.9148 -1.9611
  876MOL0     H18230   5.880   7.310   9.081  0.7716  0.9631 -0.7148
  876MOL0     H18231   5.786   7.315   8.930  1.6907 -0.7431 -2.7748
  876MOL0     H18232   5.978   7.536   9.079  1.2736  0.4193 -0.4719
  876MOL0     H18233   5.901   7.570   8.930  1.5066  0.6090  0.9397
  876MOL0     H18234   5.799   7.660   9.134  1.2758 -0.5012  1.2108
  876MOL0     H18235   5.772   7.500   9.188  1.1734  1.7409  2.1783
  876MOL0     H18236   5.603   7.607   8.952 -0.0996  0.8367  0.5694
  876MOL0     H18237   5.618   7.440   8.992 -1.0585  1.2567 -2.1948
  876MOL0     H18238   5.530   7.660   9.188  0.5075  1.1308 -2.1642
  876MOL0     H18239   5.542   7.484   9.211 -0.8200  1.5614  0.2808
  876MOL0     H18240   5.368   7.533   8.995  3.2282 -2.0835  0.9111
  876MOL0     H18241   5.361   7.677   9.095 -1.9678 -0.2063  1.9544
  876MOL0     H18242   6.338   7.114   9.111 -0.4163  0.7178 -0.1071
  876MOL0     H18243   6.576   7.166   9.217 -1.1366 -0.1423  1.4671
  876MOL0     H18244   6.909   7.676   9.194  1.2163  0.6310  0.0950
  876MOL0     H18245   7.102   7.744   9.315  0.9848 -0.4129 -1.3750
  876MOL0     H18246   8.611   7.735   9.481 -0.3250 -0.6112 -1.3063
  876MOL0     H18247   8.848   7.732   9.611 -2.0506  0.8393 -0.1006
  876MOL0     H18248   9.321   7.861   9.503  1.8057  1.0609  0.0388
  876MOL0     H18249   9.564   7.855   9.565  2.3364  0.2010  3.1282
  876MOL0     H18250   9.687   7.559   9.872 -1.7199 -0.5574  0.0057
  876MOL0     H18251   9.819   7.672   9.837 -0.6258  0.6695  0.3268
  876MOL0     H18252   9.593   7.779   9.999  0.6532  1.1006 -2.7305
  876MOL0     H18253   9.747   7.846   9.986 -0.5625 -0.2813 -1.4742
  876MOL0     H18254   9.741   7.581  10.137  1.0578 -0.6730  2.3309
  876MOL0     H18255   9.672   7.713  10.210  0.0259  1.4605 -1.7939
  876MOL0     H18256   9.907   7.703  10.280  0.4118 -1.9404 -1.2921
  876MOL0     H18257   9.884   7.850  10.180 -0.9110  0.1245 -1.4107
  876MOL0     H18258  10.166   7.599   9.991  1.2990  2.6119 -0.1756
  876MOL0     H18259   9.479   7.546   9.841 -0.4021 -0.2168 -0.8208
  876MOL0     H18260   9.248   7.561   9.789 -0.9043 -1.5557 -1.9261
  877MOL0     O18261   4.116   1.219   1.179 -0.1389 -0.0870 -0.6968
  877MOL0     C18262   4.098   1.244   1.057 -0.3250  0.1062  0.0358
  877MOL0     O18263   4.081   1.369   1.006  0.6696  0.1777  0.4618
  877MOL0     C18264   4.077   1.476   1.094 -0.6205 -0.3942  0.0461
  877MOL0     C18265   3.964   1.554   1.089 -0.8097 -0.1200 -0.2336
  877MOL0     C18266   3.957   1.667   1.161 -0.1695  0.0531 -0.0551
  877MOL0     C18267   4.070   1.712   1.236  0.2053 -0.2584 -0.6417
  877MOL0     O18268   4.065   1.829   1.311  0.3697  0.3584  0.0362
  877MOL0     C18269   3.940   1.860   1.377  0.7285 -0.2855  0.4539
  877MOL0     C18270   3.977   1.978   1.472 -0.2328  0.3543 -0.1370
  877MOL0     C18271   3.863   2.013   1.568  1.1944 -0.0140 -0.5518
  877MOL0     C18272   3.909   2.119   1.667 -0.2311  0.2053  1.0380
  877MOL0     C18273   3.838   2.142   1.797 -0.2183  0.0875 -0.5567
  877MOL0     C18274   3.816   2.021   1.886 -0.3572 -0.0431 -0.5193
  877MOL0     C18275   3.941   1.949   1.906  0.2093 -0.2350 -0.1272
  877MOL0     C18276   3.924   1.834   2.014  0.8577 -0.5304 -0.1747
  877MOL0     N18277   3.913   1.873   2.153  0.0370  0.1026 -0.3973
  877MOL0     C18278   3.798   1.848   2.234  0.0411  0.6158  0.2445
  877MOL0     C18279   3.828   1.912   2.348  1.2699 -0.4565  1.0881
  877MOL0     C18280   3.738   1.929   2.459  1.2014 -0.5956 -0.3246
  877MOL0     C18281   3.675   2.071   2.463  0.1566 -0.5882  0.7547
  877MOL0     C18282   3.543   2.091   2.547 -0.1242  0.1673  0.1730
  877MOL0     C18283   3.459   1.967   2.559  1.2710  0.0382 -0.1146
  877MOL0     O18284   3.341   2.012   2.631  0.7554 -0.2740  0.0397
  877MOL0     C18285   3.239   1.925   2.649 -0.9811  0.9467 -0.7023
  877MOL0     C18286   3.194   1.830   2.554  0.5181 -0.4278  0.0628
  877MOL0     C18287   3.072   1.761   2.573 -1.0817 -0.4699 -0.7666
  877MOL0     C18288   3.040   1.651   2.479 -0.1967  0.1619  0.1056
  877MOL0     C18289   2.999   1.792   2.694  0.3454 -0.1184 -0.0212
  877MOL0     C18290   2.872   1.718   2.733  0.7352  0.0710  0.2001
  877MOL0     O18291   2.871   1.658   2.858 -0.1902 -0.4248 -0.0320
  877MOL0     C18292   2.761   1.587   2.905 -0.5357 -0.1416 -0.8073
  877MOL0     C18293   2.629   1.605   2.864  0.7725  0.9087 -0.8239
  877MOL0     C18294   2.525   1.534   2.930 -0.4014  0.9832 -0.5637
  877MOL0     C18295   2.552   1.448   3.033 -0.0017  0.7893 -0.1520
  877MOL0     O18296   2.446   1.371   3.088  0.6699 -0.3967 -0.3004
  877MOL0     C18297   2.477   1.256   3.170  0.6328 -1.3403 -0.0144
  877MOL0     C18298   2.363   1.158   3.158  0.3198 -0.2785  0.5984
  877MOL0     C18299   2.395   1.039   3.251 -0.2251  0.2392  1.0190
  877MOL0     C18300   2.273   0.944   3.289  0.0542 -0.6789  0.7747
  877MOL0     C18301   2.175   1.003   3.395 -0.8171 -0.3336  0.3701
  877MOL0     C18302   2.054   0.908   3.416  0.6441  0.6731  0.1434
  877MOL0     C18303   1.960   0.900   3.291  0.5992  0.0918 -0.3632
  877MOL0     C18304   1.915   1.037   3.243  0.1029 -0.1680 -0.1835
  877MOL0    Cl18305   1.833   1.128   3.375 -0.1909  0.2765  0.3612
  877MOL0     C18306   2.685   1.436   3.072 -0.2429  1.6541  0.6625
  877MOL0     C18307   2.789   1.502   3.008  0.8510 -0.2099 -0.2185
  877MOL0     O18308   2.778   1.717   2.651 -0.2651  0.4646 -0.1547
  877MOL0     C18309   3.050   1.873   2.788  0.4193 -0.4133  0.2240
  877MOL0     C18310   3.159   1.953   2.759  0.6248  0.3777 -0.7966
  877MOL0     N18311   3.952   1.966   2.341  0.1067  0.2499 -0.1664
  877MOL0     N18312   4.009   1.940   2.228  0.8148 -0.1486 -0.8505
  877MOL0     C18313   4.184   1.634   1.235 -0.1285 -0.1248  0.0200
  877MOL0     C18314   4.187   1.510   1.169 -0.7064 -0.4248  0.4989
  877MOL0     C18315   4.108   1.126   0.956  0.4377  0.0873  0.4397
  877MOL0     C18316   4.163   0.998   0.981  0.5706  0.2247 -0.1313
  877MOL0     C18317   4.147   0.887   0.895 -0.1923 -0.5884  0.2231
  877MOL0     C18318   4.097   0.919   0.773 -0.5176 -0.2778 -0.2005
  877MOL0     O18319   4.094   0.822   0.677  0.2450 -0.1248 -0.1182
  877MOL0     C18320   4.012   0.709   0.701 -0.0750  0.2904  0.4391
  877MOL0     C18321   3.862   0.744   0.702  0.6684  0.1581 -0.8260
  877MOL0     C18322   3.782   0.782   0.569 -0.8416 -0.1323 -0.1417
  877MOL0     C18323   3.743   0.679   0.466  0.6287  0.0678  0.7316
  877MOL0     C18324   3.645   0.573   0.510 -0.7347  0.9400 -0.1819
  877MOL0     C18325   3.565   0.492   0.549  0.2005 -0.6983  0.5545
  877MOL0     C18326   4.050   1.053   0.740 -0.3529  0.1291 -0.1192
  877MOL0     C18327   4.051   1.152   0.828 -0.4182  0.0099 -0.2239
  877MOL0     H18328   3.891   1.525   1.014  1.7170  2.0960 -3.9555
  877MOL0     H18329   3.866   1.725   1.168  1.4144  2.5798  1.6823
  877MOL0     H18330   3.875   1.897   1.298  1.0395  0.2018  0.4199
  877MOL0     H18331   3.899   1.776   1.434 -2.5412  1.1628  0.4619
  877MOL0     H18332   4.064   1.946   1.530  1.8310  1.2543 -2.5577
  877MOL0     H18333   4.003   2.069   1.416 -3.0018  0.6015 -1.1902
  877MOL0     H18334   3.775   2.052   1.517  1.5352 -1.7650 -2.6390
  877MOL0     H18335   3.831   1.924   1.622  3.2242 -0.1441  0.5320
  877MOL0     H18336   4.014   2.118   1.696 -0.3076 -0.9653  1.3490
  877MOL0     H18337   3.891   2.213   1.615  0.7821  0.9192  1.9334
  877MOL0     H18338   3.900   2.215   1.850 -1.2756 -0.0346  0.9154
  877MOL0     H18339   3.740   2.180   1.769  0.2864 -0.8267 -4.0094
  877MOL0     H18340   3.772   2.050   1.983 -0.1897  1.9772 -1.0057
  877MOL0     H18341   3.742   1.959   1.835 -0.1825 -1.6516  1.0832
  877MOL0     H18342   3.989   1.899   1.821  3.0532 -1.0799  1.7999
  877MOL0     H18343   4.013   2.022   1.946 -1.5783 -0.1877  3.4579
  877MOL0     H18344   4.009   1.766   2.011 -0.0604 -1.7865  1.2921
  877MOL0     H18345   3.833   1.777   1.993  0.2193 -0.1294  1.4123
  877MOL0     H18346   3.708   1.794   2.207 -0.2958  0.3871  1.7876
  877MOL0     H18347   3.672   1.841   2.460  2.1447 -1.3198  0.1550
  877MOL0     H18348   3.797   1.908   2.549  2.1202  2.8318 -0.0187
  877MOL0     H18349   3.637   2.092   2.362  2.0236 -1.9874 -0.2985
  877MOL0     H18350   3.748   2.152   2.475  1.0197 -1.3666  0.7792
  877MOL0     H18351   3.485   2.166   2.492  0.3576 -0.6712 -1.5314
  877MOL0     H18352   3.572   2.117   2.649  0.3887  1.8330 -0.3579
  877MOL0     H18353   3.503   1.883   2.613 -1.7366 -3.4053 -2.5111
  877MOL0     H18354   3.438   1.943   2.454  2.6132  1.2640 -0.7001
  877MOL0     H18355   3.252   1.813   2.464  4.0139  0.3661  2.0208
  877MOL0     H18356   3.064   1.670   2.374  1.1511 -1.3716  0.0971
  877MOL0     H18357   3.091   1.560   2.510 -0.3921 -0.4085 -1.1730
  877MOL0     H18358   2.933   1.628   2.481 -0.2626  0.4658  0.0694
  877MOL0     H18359   2.601   1.677   2.787 -0.3828  0.5005 -0.7993
  877MOL0     H18360   2.423   1.539   2.894 -0.6490  0.7377  0.0816
  877MOL0     H18361   2.572   1.213   3.136  1.1281  0.5693 -1.2353
  877MOL0     H18362   2.495   1.290   3.273 -0.2881  3.6765 -1.2295
  877MOL0     H18363   2.268   1.209   3.181  0.3477 -0.5218  1.2821
  877MOL0     H18364   2.353   1.118   3.056  1.9525  1.6106 -0.3668
  877MOL0     H18365   2.458   1.072   3.335  0.5046 -0.2106  0.6534
  877MOL0     H18366   2.468   0.976   3.199  0.4561  0.5755  1.5417
  877MOL0     H18367   2.220   0.912   3.199  0.1989 -0.8695  0.7565
  877MOL0     H18368   2.317   0.852   3.328  0.3121 -0.0016  2.1291
  877MOL0     H18369   2.144   1.102   3.361  1.6505  0.7020  0.9274
  877MOL0     H18370   2.226   1.016   3.491 -0.0880 -1.2277  0.1147
  877MOL0     H18371   2.095   0.808   3.432 -2.3279 -0.6315  0.3181
  877MOL0     H18372   1.995   0.937   3.503  0.5055  1.3070 -0.1624
  877MOL0     H18373   1.875   0.834   3.311 -0.2293  0.6686 -1.8297
  877MOL0     H18374   2.020   0.855   3.212  1.5924  0.6253  0.0587
  877MOL0     H18375   1.851   1.027   3.155 -1.3581  1.9416  0.5830
  877MOL0     H18376   1.999   1.098   3.208 -1.2334  1.0622 -1.3720
  877MOL0     H18377   2.707   1.377   3.160 -1.7131 -0.2242 -0.1573
  877MOL0     H18378   2.888   1.480   3.046  0.5203  1.4329  1.7822
  877MOL0     H18379   2.992   1.904   2.874  0.6074 -1.8593  0.9058
  877MOL0     H18380   3.192   2.033   2.825 -1.2404 -0.3480  1.1083
  877MOL0     H18381   4.268   1.662   1.299 -1.2425  2.1889  0.5789
  877MOL0     H18382   4.276   1.449   1.182 -0.4171  0.0573  0.8253
  877MOL0     H18383   4.199   0.984   1.082 -4.0172 -1.4726  1.4917
  877MOL0     H18384   4.178   0.785   0.918  0.6403 -0.4186 -0.1403
  877MOL0     H18385   4.028   0.637   0.620 -1.1569  0.5763 -0.0486
  877MOL0     H18386   4.024   0.668   0.801 -1.1996 -0.9385  0.0991
  877MOL0     H18387   3.858   0.837   0.760 -0.3374 -0.3719 -0.0088
  877MOL0     H18388   3.809   0.663   0.753 -0.1988  0.6931 -0.8626
  877MOL0     H18389   3.850   0.851   0.519  3.3411 -3.4767  0.3100
  877MOL0     H18390   3.684   0.822   0.596 -0.5776  2.6647 -2.8472
  877MOL0     H18391   3.839   0.632   0.442  0.3113 -2.0789  3.1207
  877MOL0     H18392   3.710   0.728   0.374 -2.0369 -1.6871  0.6377
  877MOL0     H18393   3.513   0.423   0.611  0.5361 -0.0580  1.5796
  877MOL0     H18394   4.008   1.059   0.641 -0.1003 -1.8818 -0.3905
  877MOL0     H18395   4.019   1.253   0.806  3.0154  0.8067 -2.4952
  878MOL0     O18396   9.816   2.951   0.931  0.4540  0.0491 -0.1745
  878MOL0     C18397   9.844   2.999   1.045  0.9028  0.0102 -0.5057
  878MOL0     O18398   9.760   2.990   1.160  0.2768  0.4408  0.5795
  878MOL0     C18399   9.629   2.943   1.150 -0.1873 -0.6698  0.2008
  878MOL0     C18400   9.531   3.001   1.232 -0.0187 -1.0942 -0.3048
  878MOL0     C18401   9.398   2.943   1.237  0.2771 -0.8899  0.5705
  878MOL0     C18402   9.361   2.834   1.160  0.7991 -0.4495 -0.1539
  878MOL0     O18403   9.232   2.773   1.171 -0.4437  0.1701 -0.1158
  878MOL0     C18404   9.151   2.815   1.284 -0.5202  0.3570 -0.0058
  878MOL0     C18405   9.016   2.741   1.287  1.2451  0.4971  0.0942
  878MOL0     C18406   9.015   2.610   1.355 -0.6998 -0.1101  0.2812
  878MOL0     C18407   8.871   2.547   1.372 -0.3209 -0.2342 -0.4385
  878MOL0     C18408   8.798   2.615   1.496  0.5834  0.0696 -1.2995
  878MOL0     C18409   8.704   2.515   1.571 -0.6605  0.2689  0.4275
  878MOL0     C18410   8.589   2.480   1.482 -0.2589 -0.3355 -0.2942
  878MOL0     C18411   8.515   2.355   1.522  0.1168 -0.3106  0.1511
  878MOL0     N18412   8.476   2.368   1.666 -0.2759  0.4017  0.0631
  878MOL0     C18413   8.375   2.451   1.699 -0.6563 -0.6370 -0.5996
  878MOL0     C18414   8.376   2.460   1.834  0.0969 -0.2716  0.3752
  878MOL0     C18415   8.295   2.547   1.918  0.0538 -0.1428  0.4459
  878MOL0     C18416   8.162   2.479   1.960 -0.1383  0.7843  0.5192
  878MOL0     C18417   8.053   2.563   2.036 -0.1189 -0.2428 -0.2844
  878MOL0     C18418   7.999   2.678   1.954 -0.3003  0.1033  0.5556
  878MOL0     O18419   7.867   2.723   2.013 -0.2014  0.1782  0.0019
  878MOL0     C18420   7.753   2.692   1.942 -0.2366 -0.5222  0.3920
  878MOL0     C18421   7.739   2.709   1.804  0.5872  0.4012 -0.9324
  878MOL0     C18422   7.617   2.700   1.735  0.4613 -0.0085  0.3454
  878MOL0     C18423   7.597   2.753   1.596 -0.0307  0.4110  0.5998
  878MOL0     C18424   7.506   2.665   1.815  0.5171  0.2507  0.1897
  878MOL0     C18425   7.370   2.646   1.762  0.1502 -0.3626 -0.1786
  878MOL0     O18426   7.268   2.678   1.846  0.0030  0.1937  0.3656
  878MOL0     C18427   7.151   2.708   1.786 -0.4475  0.1728 -0.6328
  878MOL0     C18428   7.137   2.805   1.685  0.7812  0.3432 -0.5158
  878MOL0     C18429   7.014   2.830   1.621  0.0711  0.4083 -0.5121
  878MOL0     C18430   6.908   2.739   1.649  0.4844 -0.4948 -0.3490
  878MOL0     O18431   6.792   2.757   1.578 -0.3475  0.3411  0.9221
  878MOL0     C18432   6.703   2.840   1.650 -0.2009  0.0515 -0.1961
  878MOL0     C18433   6.615   2.745   1.731 -0.1700 -0.0795  0.1316
  878MOL0     C18434   6.555   2.642   1.635 -0.4669 -0.1555  0.4366
  878MOL0     C18435   6.434   2.571   1.707  0.0211  0.0579 -0.1017
  878MOL0     C18436   6.351   2.502   1.599 -1.0725  0.3562  0.4322
  878MOL0     C18437   6.223   2.438   1.651 -0.3577  0.2044  1.1852
  878MOL0     C18438   6.128   2.390   1.541  0.1822 -0.1611  0.5332
  878MOL0     C18439   5.991   2.357   1.604  0.3839  0.3953  0.3734
  878MOL0    Cl18440   5.997   2.213   1.704  0.0599  0.3042  0.0597
  878MOL0     C18441   6.917   2.650   1.753  0.9727 -0.1773 -0.5183
  878MOL0     C18442   7.035   2.635   1.823  0.7275 -0.1643  0.5664
  878MOL0     O18443   7.352   2.601   1.648 -0.3144 -0.3518 -0.0396
  878MOL0     C18444   7.517   2.627   1.952  0.8861 -0.6024  0.3278
  878MOL0     C18445   7.642   2.653   2.017 -1.1655  0.1907  0.3505
  878MOL0     N18446   8.483   2.385   1.882 -0.0970  0.2064 -0.8015
  878MOL0     N18447   8.541   2.334   1.780 -0.2590 -0.6176  0.5684
  878MOL0     C18448   9.454   2.784   1.067 -0.1095  0.5542 -0.4713
  878MOL0     C18449   9.585   2.845   1.052  0.4530  0.2493  0.3570
  878MOL0     C18450   9.983   3.049   1.061  0.2636 -0.8958  0.9531
  878MOL0     C18451  10.077   3.046   0.951 -1.0547 -0.0799 -0.3114
  878MOL0     C18452  10.203   3.098   0.969 -0.1460 -0.2311 -0.6382
  878MOL0     C18453  10.247   3.167   1.094  0.6455 -0.0144 -0.5158
  878MOL0     O18454  10.366   3.224   1.109 -0.1724  0.5366 -0.1174
  878MOL0     C18455  10.476   3.201   1.034 -0.0693 -0.0068  0.1569
  878MOL0     C18456  10.610   3.190   1.113  0.0046  0.3994  0.3858
  878MOL0     C18457  10.649   3.312   1.198  1.0656  1.3493 -0.1881
  878MOL0     C18458  10.608   3.445   1.140  0.4598  0.0056  0.3074
  878MOL0     C18459  10.675   3.493   1.019  0.4613  0.3259  0.4215
  878MOL0     C18460  10.730   3.536   0.918  0.3605  0.7995  0.1055
  878MOL0     C18461  10.148   3.167   1.200  0.1447 -0.1969  0.1557
  878MOL0     C18462  10.021   3.111   1.184  0.3062 -0.0215  0.4125
  878MOL0     H18463   9.555   3.084   1.297 -0.7848 -1.6322  0.6754
  878MOL0     H18464   9.338   2.994   1.312 -1.5793  0.8008 -1.8848
  878MOL0     H18465   9.202   2.802   1.380 -0.9431  2.3249  0.5406
  878MOL0     H18466   9.128   2.922   1.273 -1.4033  0.1364 -0.4080
  878MOL0     H18467   8.938   2.804   1.332 -0.9611 -1.2534 -1.0972
  878MOL0     H18468   8.978   2.740   1.185  2.7894 -3.9324 -0.6428
  878MOL0     H18469   9.084   2.535   1.318 -0.9807 -0.8135  1.1557
  878MOL0     H18470   9.056   2.636   1.453 -0.5575  3.6599 -0.6102
  878MOL0     H18471   8.804   2.555   1.286  1.4393  1.3124 -1.7473
  878MOL0     H18472   8.883   2.439   1.389 -2.4649 -0.4193  0.2581
  878MOL0     H18473   8.858   2.658   1.577  0.8886 -1.8835 -0.4404
  878MOL0     H18474   8.748   2.700   1.449 -0.5294 -0.4868 -1.1380
  878MOL0     H18475   8.764   2.426   1.593 -2.3634 -1.4948 -1.5785
  878MOL0     H18476   8.659   2.554   1.663 -1.8901  1.6325 -0.6860
  878MOL0     H18477   8.523   2.567   1.482  1.3321  1.1562  4.3397
  878MOL0     H18478   8.626   2.452   1.383 -1.2317 -3.3764  0.0795
  878MOL0     H18479   8.578   2.268   1.504 -1.0119 -0.7918 -1.7408
  878MOL0     H18480   8.425   2.350   1.460  0.6550  3.0368 -1.1137
  878MOL0     H18481   8.304   2.495   1.630 -0.3628  1.9239  0.6238
  878MOL0     H18482   8.349   2.562   2.011  0.2083  1.6709  0.0907
  878MOL0     H18483   8.288   2.648   1.876 -0.9058  0.7486  2.6007
  878MOL0     H18484   8.196   2.392   2.017  1.0637  2.0439  1.8109
  878MOL0     H18485   8.108   2.441   1.873  0.4297  0.2822  0.3844
  878MOL0     H18486   8.098   2.593   2.131  0.4594  0.7425 -0.8597
  878MOL0     H18487   7.959   2.510   2.057 -0.0633 -0.3122 -0.2093
  878MOL0     H18488   7.982   2.653   1.849 -0.9505  0.2476  0.6210
  878MOL0     H18489   8.080   2.752   1.959  3.1520 -3.1263 -1.8781
  878MOL0     H18490   7.830   2.732   1.750  0.5841  2.6878 -0.0560
  878MOL0     H18491   7.545   2.849   1.588  0.3108  0.4176 -4.4174
  878MOL0     H18492   7.694   2.772   1.549 -0.5325 -0.3964 -0.8341
  878MOL0     H18493   7.546   2.675   1.540 -1.8462 -2.5347  5.6769
  878MOL0     H18494   7.229   2.859   1.663  1.7909 -0.2136  2.0578
  878MOL0     H18495   6.989   2.907   1.550 -1.9851  0.8884  0.6383
  878MOL0     H18496   6.750   2.921   1.705 -2.5759  1.5284 -0.2106
  878MOL0     H18497   6.630   2.887   1.584 -1.6212 -0.3099  1.0647
  878MOL0     H18498   6.666   2.688   1.809 -1.4311 -0.9472  0.3500
  878MOL0     H18499   6.532   2.794   1.781 -2.5076 -1.5110 -2.0994
  878MOL0     H18500   6.633   2.569   1.614 -0.0180  0.5056 -0.2776
  878MOL0     H18501   6.526   2.683   1.537  0.0269 -0.2874  0.2329
  878MOL0     H18502   6.466   2.491   1.776 -0.2880  0.7040  0.8103
  878MOL0     H18503   6.382   2.650   1.761  1.6279 -0.0971  1.8075
  878MOL0     H18504   6.412   2.423   1.555  0.2837  0.4177  2.0827
  878MOL0     H18505   6.340   2.584   1.527  0.2867 -1.5810 -2.1458
  878MOL0     H18506   6.250   2.346   1.705 -3.0253 -3.1365 -2.5783
  878MOL0     H18507   6.165   2.505   1.715 -0.6987  0.3301  0.7507
  878MOL0     H18508   6.159   2.296   1.495  0.1301 -0.1641  0.5034
  878MOL0     H18509   6.121   2.468   1.464  1.4747  1.5502  2.0683
  878MOL0     H18510   5.918   2.328   1.528  0.5154 -2.4946  1.2334
  878MOL0     H18511   5.961   2.438   1.670 -0.1061 -1.8323  3.0657
  878MOL0     H18512   6.837   2.585   1.787  2.0122 -0.6158  1.1906
  878MOL0     H18513   7.054   2.568   1.906 -0.0578 -0.2842  0.6504
  878MOL0     H18514   7.429   2.589   2.002 -0.6860  0.2822 -1.6193
  878MOL0     H18515   7.651   2.622   2.121 -0.4391 -2.2685 -0.3703
  878MOL0     H18516   9.417   2.701   1.008  0.0036  2.7810 -3.9801
  878MOL0     H18517   9.651   2.790   0.986  1.4245  0.4537  1.1421
  878MOL0     H18518  10.047   3.012   0.853 -0.2111  1.3762 -1.1107
  878MOL0     H18519  10.267   3.095   0.881  0.1757 -1.3101 -0.3841
  878MOL0     H18520  10.463   3.109   0.976 -3.2640  0.7159 -0.4461
  878MOL0     H18521  10.470   3.283   0.963  2.3373 -0.8266 -1.1095
  878MOL0     H18522  10.690   3.168   1.041 -0.1989 -0.5614  0.4480
  878MOL0     H18523  10.609   3.101   1.176  0.6549 -1.0929 -1.5966
  878MOL0     H18524  10.757   3.331   1.206  1.1589  0.1698  5.1693
  878MOL0     H18525  10.601   3.286   1.293 -0.7710 -0.1273 -1.4341
  878MOL0     H18526  10.640   3.522   1.211  3.3012  0.1564 -0.9625
  878MOL0     H18527  10.502   3.451   1.116  0.8002 -1.2342 -1.7517
  878MOL0     H18528  10.787   3.576   0.837  2.7930  0.8485  1.7341
  878MOL0     H18529  10.179   3.209   1.295  0.2484  0.1249 -0.0162
  878MOL0     H18530   9.945   3.101   1.261 -1.8451  1.1498 -1.4631
  879MOL0     O18531   6.803   9.582   7.447 -0.1060 -0.1087 -0.2330
  879MOL0     C18532   6.715   9.513   7.500 -0.5094 -0.2131  0.7729
  879MOL0     O18533   6.712   9.376   7.498  0.6526  0.1758  0.1310
  879MOL0     C18534   6.827   9.316   7.460 -0.6767 -0.3285  0.3739
  879MOL0     C18535   6.836   9.225   7.350  0.4520 -0.1515 -0.7575
  879MOL0     C18536   6.950   9.152   7.304 -0.0681  0.1300  0.6603
  879MOL0     C18537   7.066   9.176   7.374  0.0715  0.1456  0.1430
  879MOL0     O18538   7.191   9.118   7.352  0.4728 -0.0474 -0.3428
  879MOL0     C18539   7.298   9.198   7.318 -0.1275  0.4947  0.3770
  879MOL0     C18540   7.425   9.122   7.276  0.5711 -0.0261  0.0151
  879MOL0     C18541   7.521   9.232   7.227 -0.1381  0.2746  0.0853
  879MOL0     C18542   7.662   9.184   7.182 -0.7252 -0.2773 -0.0100
  879MOL0     C18543   7.769   9.290   7.144  0.5068 -0.2918  0.6827
  879MOL0     C18544   7.817   9.377   7.262  0.2569  0.0915 -0.1530
  879MOL0     C18545   7.923   9.470   7.204 -0.7724  0.5839  0.5372
  879MOL0     C18546   7.974   9.566   7.305  0.3155 -0.4298  0.1854
  879MOL0     N18547   8.070   9.645   7.229 -0.4910 -0.3473  0.2511
  879MOL0     C18548   8.199   9.604   7.194 -0.1131 -0.2976 -0.2357
  879MOL0     C18549   8.240   9.719   7.145  0.5210 -0.0790 -0.1354
  879MOL0     C18550   8.387   9.746   7.115  0.2442 -0.1294  0.4459
  879MOL0     C18551   8.452   9.632   7.036 -0.5256 -0.4698  0.1837
  879MOL0     C18552   8.415   9.639   6.885  0.1422 -0.5950  0.1218
  879MOL0     C18553   8.282   9.571   6.847  0.1468 -0.7961  0.0059
  879MOL0     O18554   8.305   9.434   6.858 -0.1007 -0.4345  0.8535
  879MOL0     C18555   8.193   9.358   6.818 -0.3634  0.1316 -0.0995
  879MOL0     C18556   8.217   9.215   6.781 -0.0492 -0.0233 -0.3280
  879MOL0     C18557   8.114   9.144   6.724 -0.3398 -0.2494  0.1591
  879MOL0     C18558   8.151   9.006   6.683  0.9178  0.4453 -0.1457
  879MOL0     C18559   7.983   9.193   6.698 -0.2090 -0.2497 -0.6210
  879MOL0     C18560   7.872   9.124   6.643 -0.4717  0.0875  0.6800
  879MOL0     O18561   7.755   9.149   6.705 -0.3423  0.0938 -0.0881
  879MOL0     C18562   7.631   9.112   6.657 -0.2639 -0.8042 -0.2027
  879MOL0     C18563   7.606   8.994   6.606  1.0086  0.2725  0.5101
  879MOL0     C18564   7.483   8.950   6.565 -0.3953 -0.1258  0.7059
  879MOL0     C18565   7.375   9.044   6.556 -0.1570 -1.3606  1.0584
  879MOL0     O18566   7.258   9.016   6.499 -0.3713 -0.7675 -0.2892
  879MOL0     C18567   7.238   8.889   6.433 -0.6920 -0.8276 -0.5569
  879MOL0     C18568   7.093   8.884   6.392  0.1100  0.7163  0.0240
  879MOL0     C18569   7.044   8.735   6.382 -0.1089 -0.4241  0.1051
  879MOL0     C18570   7.037   8.701   6.235  0.2461  0.6794 -0.6505
  879MOL0     C18571   6.983   8.559   6.223  0.6933 -0.4499  0.2676
  879MOL0     C18572   6.842   8.551   6.277  0.4275  0.8033  0.0711
  879MOL0     C18573   6.791   8.406   6.266 -0.6548  0.0392  0.5329
  879MOL0     C18574   6.647   8.407   6.219 -0.0402  0.2115  0.4960
  879MOL0    Cl18575   6.644   8.426   6.046 -0.5656  0.1980  0.1580
  879MOL0     C18576   7.398   9.166   6.613  0.2965  0.2016  0.7871
  879MOL0     C18577   7.528   9.206   6.659  0.6937  0.2915 -0.7850
  879MOL0     O18578   7.883   9.060   6.537  0.6772 -0.5650 -0.3506
  879MOL0     C18579   7.965   9.325   6.738  1.0430  0.2508 -0.1268
  879MOL0     C18580   8.060   9.406   6.802 -0.4667 -0.0828  0.1029
  879MOL0     N18581   8.142   9.816   7.143  0.0015  0.7863  0.8299
  879MOL0     N18582   8.034   9.768   7.187  0.0350 -0.0952  0.0342
  879MOL0     C18583   7.063   9.259   7.490  0.4379  0.4071  0.0384
  879MOL0     C18584   6.942   9.318   7.538  0.2954 -0.2820  0.3975
  879MOL0     C18585   6.604   9.589   7.553 -0.9825  0.3100  0.6102
  879MOL0     C18586   6.610   9.722   7.593 -0.7969 -0.0861 -0.6046
  879MOL0     C18587   6.503   9.790   7.648  0.1437  0.5457  0.0239
  879MOL0     C18588   6.388   9.722   7.684 -0.3405 -0.0258 -0.6481
  879MOL0     O18589   6.283   9.774   7.755  0.2552 -0.0344  0.5291
  879MOL0     C18590   6.296   9.912   7.779  0.4079 -0.4421  0.5934
  879MOL0     C18591   6.180   9.957   7.858 -0.0604 -0.6651 -0.0899
  879MOL0     C18592   6.192   9.882   7.993  0.0333  0.3172 -0.0333
  879MOL0     C18593   6.076   9.930   8.081 -0.7671  0.3324  0.5562
  879MOL0     C18594   6.092  10.070   8.132 -0.2359  0.2916 -0.6534
  879MOL0     C18595   6.098  10.187   8.175  0.8323  0.0335 -0.2207
  879MOL0     C18596   6.379   9.586   7.654 -0.5447  0.2013 -0.1552
  879MOL0     C18597   6.487   9.522   7.588 -0.6651  0.2169 -0.3951
  879MOL0     H18598   6.741   9.210   7.299 -0.2875  1.8599 -0.0938
  879MOL0     H18599   6.928   9.089   7.218  3.4483  2.4039 -2.1871
  879MOL0     H18600   7.271   9.249   7.225  2.2003 -2.6875 -2.2879
  879MOL0     H18601   7.324   9.270   7.396 -0.7795  1.6503 -0.4400
  879MOL0     H18602   7.476   9.069   7.358 -1.3196 -0.8249  0.7340
  879MOL0     H18603   7.394   9.058   7.193  0.2186  0.6298 -0.3657
  879MOL0     H18604   7.471   9.304   7.161 -5.9121  0.2876  3.7163
  879MOL0     H18605   7.533   9.286   7.321 -1.1943  2.2935 -0.8771
  879MOL0     H18606   7.708   9.115   7.254  0.1584 -0.5530 -0.8183
  879MOL0     H18607   7.648   9.130   7.088 -0.6488 -0.6957  0.2150
  879MOL0     H18608   7.859   9.241   7.107  2.4216  0.7387  3.6257
  879MOL0     H18609   7.729   9.342   7.056  0.9753 -0.8181  0.1514
  879MOL0     H18610   7.727   9.435   7.288 -1.8597 -3.3374  0.8605
  879MOL0     H18611   7.853   9.316   7.345 -3.8461 -0.8563  1.1794
  879MOL0     H18612   8.012   9.415   7.172 -0.1257  0.8972  1.7604
  879MOL0     H18613   7.881   9.518   7.115  2.6478  2.0167 -0.4734
  879MOL0     H18614   8.023   9.514   7.388 -2.3016  0.3318  2.3480
  879MOL0     H18615   7.892   9.630   7.339  1.1063  0.2473  0.8650
  879MOL0     H18616   8.261   9.516   7.208  0.5362 -0.1263 -1.8262
  879MOL0     H18617   8.384   9.841   7.061 -0.5248 -2.5960 -4.3981
  879MOL0     H18618   8.426   9.745   7.217 -1.9616  0.3159  1.3419
  879MOL0     H18619   8.431   9.530   7.069  0.3997 -0.5384  0.5790
  879MOL0     H18620   8.559   9.641   7.057 -0.1442  3.2755 -2.3476
  879MOL0     H18621   8.495   9.601   6.821  0.8325 -0.5953  0.9560
  879MOL0     H18622   8.410   9.745   6.856 -3.5769 -0.3335  1.1724
  879MOL0     H18623   8.244   9.596   6.748  0.6007 -0.6143 -0.1260
  879MOL0     H18624   8.208   9.591   6.925 -1.2025 -4.4358 -0.1394
  879MOL0     H18625   8.315   9.169   6.787 -0.9592 -1.8729  1.5043
  879MOL0     H18626   8.231   9.012   6.608  0.5226 -2.4271 -0.9358
  879MOL0     H18627   8.186   8.949   6.771 -1.0329 -0.8956 -0.1827
  879MOL0     H18628   8.075   8.937   6.645 -0.0790 -0.6775  3.4806
  879MOL0     H18629   7.689   8.924   6.601  2.1593  1.6867 -2.1328
  879MOL0     H18630   7.474   8.848   6.529  1.2441  0.7237 -2.5045
  879MOL0     H18631   7.305   8.869   6.349 -2.1908  2.3124 -2.6925
  879MOL0     H18632   7.260   8.815   6.510  1.5550 -1.5600 -1.8075
  879MOL0     H18633   7.032   8.946   6.459 -2.1417 -1.7513  0.4400
  879MOL0     H18634   7.086   8.934   6.295  1.9269  1.0068  0.0109
  879MOL0     H18635   6.949   8.725   6.435 -2.0148 -0.5069 -3.0860
  879MOL0     H18636   7.121   8.668   6.421 -0.8365 -1.4638 -0.2009
  879MOL0     H18637   6.989   8.779   6.176 -0.2523 -1.7549 -3.7585
  879MOL0     H18638   7.141   8.694   6.202  0.8300 -1.2237  1.3521
  879MOL0     H18639   7.055   8.491   6.270  2.6496  1.0713 -0.3826
  879MOL0     H18640   6.994   8.522   6.121  1.0478 -0.4998  0.3218
  879MOL0     H18641   6.831   8.594   6.377 -2.4272  0.6103 -0.0783
  879MOL0     H18642   6.790   8.613   6.204  0.7017  1.2179  0.2264
  879MOL0     H18643   6.791   8.367   6.368  0.3082 -0.3873  0.3779
  879MOL0     H18644   6.861   8.344   6.210 -1.0377 -0.3808  0.5159
  879MOL0     H18645   6.587   8.484   6.268 -0.6954  0.7865 -1.1711
  879MOL0     H18646   6.584   8.320   6.239  1.1972 -0.6710  0.6774
  879MOL0     H18647   7.317   9.238   6.614  0.3425  0.2684 -0.0355
  879MOL0     H18648   7.547   9.298   6.712 -1.5945  0.0358  0.6190
  879MOL0     H18649   7.866   9.366   6.725 -0.1525 -1.8639  1.6080
  879MOL0     H18650   8.030   9.504   6.840  2.4050  0.2448  1.7960
  879MOL0     H18651   7.153   9.283   7.545 -0.9723 -0.1303  2.8025
  879MOL0     H18652   6.959   9.379   7.626  4.2278 -0.2710 -0.1938
  879MOL0     H18653   6.694   9.787   7.571 -0.0883  0.1798  2.4151
  879MOL0     H18654   6.520   9.894   7.672  0.7091  0.7979 -1.3758
  879MOL0     H18655   6.391   9.944   7.822  1.3832 -0.5711 -1.3944
  879MOL0     H18656   6.291   9.965   7.683 -1.3466  1.0192  1.4176
  879MOL0     H18657   6.087   9.930   7.808 -1.1043  1.8694  0.3671
  879MOL0     H18658   6.196  10.064   7.874  2.3877 -0.7942 -1.1863
  879MOL0     H18659   6.295   9.904   8.023  0.1694 -0.2123 -0.0901
  879MOL0     H18660   6.177   9.774   7.982 -1.9101  0.7845 -3.4467
  879MOL0     H18661   6.056   9.870   8.170 -0.3656 -0.9215 -0.1670
  879MOL0     H18662   5.985   9.921   8.021  0.3955 -3.2331 -0.9313
  879MOL0     H18663   6.087  10.289   8.205 -1.8162 -0.2216 -0.0594
  879MOL0     H18664   6.295   9.525   7.684 -0.8794  0.1685 -1.1455
  879MOL0     H18665   6.475   9.418   7.560 -0.8959 -0.4010  1.8117
  880MOL0     O18666   4.870   1.949   9.815  0.3008 -0.1418  0.0103
  880MOL0     C18667   4.908   2.003   9.918  0.9259  0.6057  0.1475
  880MOL0     O18668   4.822   2.074  10.004  0.0898 -0.5790  1.3100
  880MOL0     C18669   4.682   2.061   9.998 -0.4442 -0.6857 -0.1513
  880MOL0     C18670   4.622   1.940   9.985  0.2197  0.1976  0.0434
  880MOL0     C18671   4.481   1.930   9.992 -0.1892 -0.1986  0.2359
  880MOL0     C18672   4.400   2.043   9.996 -1.2507  0.1822 -0.8835
  880MOL0     O18673   4.269   2.032  10.009  0.6950  0.9802  0.2353
  880MOL0     C18674   4.204   1.913   9.967  0.3683  0.3346  0.1000
  880MOL0     C18675   4.050   1.916   9.969  0.0895  0.1999  0.6342
  880MOL0     C18676   3.992   1.783   9.933 -0.1129  0.7637  0.5071
  880MOL0     C18677   3.840   1.790   9.946  0.0822 -0.2560 -0.1168
  880MOL0     C18678   3.769   1.653   9.962  0.4875  0.6732  0.3307
  880MOL0     C18679   3.614   1.668   9.934  0.3099 -0.6726  0.2912
  880MOL0     C18680   3.538   1.551   9.994  1.3623 -1.0220 -0.4227
  880MOL0     C18681   3.521   1.561  10.148  0.1530 -0.3848 -0.1581
  880MOL0     N18682   3.408   1.642  10.188 -0.6060  0.2010 -0.4965
  880MOL0     C18683   3.276   1.606  10.216 -0.7056 -0.0497 -0.0621
  880MOL0     C18684   3.217   1.710  10.265 -0.2070 -0.1671 -0.2971
  880MOL0     C18685   3.078   1.722  10.313 -0.1125 -0.2308  0.0646
  880MOL0     C18686   3.036   1.606  10.396  0.9571  0.1184 -0.7870
  880MOL0     C18687   2.882   1.595  10.421  0.4421 -0.2063 -0.1690
  880MOL0     C18688   2.836   1.705  10.512 -0.3345  0.6794  0.0560
  880MOL0     O18689   2.700   1.679  10.554 -0.9136  0.5469 -0.5979
  880MOL0     C18690   2.618   1.780  10.526 -0.8410 -0.5622 -0.1484
  880MOL0     C18691   2.631   1.903  10.596 -0.3094 -1.0330  1.1756
  880MOL0     C18692   2.558   2.018  10.561 -0.4952  0.2421  0.9502
  880MOL0     C18693   2.596   2.140  10.638  0.8822  1.2394 -0.5303
  880MOL0     C18694   2.460   2.008  10.455 -0.6798  0.4900  0.1044
  880MOL0     C18695   2.360   2.113  10.423  0.9636  0.7528  1.0884
  880MOL0     O18696   2.251   2.072  10.344 -0.3741 -0.7112 -0.1911
  880MOL0     C18697   2.140   2.143  10.324  0.7823 -0.1413  0.5375
  880MOL0     C18698   2.096   2.263  10.400  0.0688  0.1235  0.4124
  880MOL0     C18699   1.971   2.325  10.391  0.4816 -0.7273 -0.6654
  880MOL0     C18700   1.871   2.265  10.314 -0.4786  0.0900 -0.8936
  880MOL0     O18701   1.741   2.313  10.314 -0.1695 -0.7459  0.6169
  880MOL0     C18702   1.641   2.211  10.345 -0.9944  0.8667  0.6425
  880MOL0     C18703   1.574   2.229  10.481  0.1811 -0.6825  0.2628
  880MOL0     C18704   1.610   2.128  10.593 -0.5376  1.2338  0.3325
  880MOL0     C18705   1.759   2.126  10.630  0.3059  0.1856 -0.7820
  880MOL0     C18706   1.780   2.051  10.767  0.1731 -0.3449 -0.0855
  880MOL0     C18707   1.924   2.002  10.786 -1.0793  0.2682 -0.1487
  880MOL0     C18708   2.033   2.105  10.775  0.2920 -0.2442 -0.8190
  880MOL0     C18709   2.160   2.040  10.727  0.4772  0.6607  0.1324
  880MOL0    Cl18710   2.220   1.910  10.840  0.2472 -0.1165  0.0504
  880MOL0     C18711   1.913   2.159  10.227  0.7661  0.0968 -0.0690
  880MOL0     C18712   2.039   2.097  10.234  0.1846  0.5593 -0.4376
  880MOL0     O18713   2.373   2.221  10.468  0.6093  0.2574  0.6450
  880MOL0     C18714   2.450   1.883  10.388 -0.0287 -0.0239  0.0519
  880MOL0     C18715   2.522   1.770  10.433 -0.2868 -0.2565 -0.1604
  880MOL0     N18716   3.311   1.799  10.288 -1.0254 -0.5004 -0.3404
  880MOL0     N18717   3.427   1.767  10.237  0.4122  0.3162  0.1187
  880MOL0     C18718   4.466   2.164  10.012 -0.0637 -0.4662  0.4776
  880MOL0     C18719   4.609   2.176  10.011  0.0487 -0.0507 -0.0518
  880MOL0     C18720   5.044   2.009   9.956 -0.0256  0.8680  0.6240
  880MOL0     C18721   5.083   2.035  10.089  0.9069  0.4023 -0.3790
  880MOL0     C18722   5.221   2.060  10.108 -0.2530  0.6548  0.7418
  880MOL0     C18723   5.315   2.048  10.004 -0.0385  0.0461 -0.2067
  880MOL0     O18724   5.447   2.056  10.036  0.1151  0.6981 -0.4402
  880MOL0     C18725   5.543   2.029   9.930 -0.9757 -0.1104  0.0583
  880MOL0     C18726   5.683   2.012   9.966 -0.6885 -0.3518 -0.8979
  880MOL0     C18727   5.715   1.992  10.119 -0.3565 -0.3589  0.5428
  880MOL0     C18728   5.868   1.986  10.150  0.3829 -0.0676 -0.8173
  880MOL0     C18729   5.943   2.110  10.121  0.2434  0.7652  0.6363
  880MOL0     C18730   5.998   2.221  10.104  0.6362  0.3151  0.7747
  880MOL0     C18731   5.273   2.031   9.874 -0.6756  1.2934  0.2170
  880MOL0     C18732   5.135   2.010   9.848 -0.2033  0.9618 -0.6990
  880MOL0     H18733   4.687   1.855   9.968  1.4400  1.4471 -1.8361
  880MOL0     H18734   4.431   1.834   9.990 -2.1122  0.7717 -0.5218
  880MOL0     H18735   4.243   1.900   9.865 -2.5662 -1.5046 -0.9280
  880MOL0     H18736   4.221   1.828  10.034 -2.0796 -0.9613 -0.7838
  880MOL0     H18737   4.011   1.940  10.069 -3.1980  1.7079 -0.8511
  880MOL0     H18738   4.013   1.995   9.904  1.2196  0.0339 -0.2327
  880MOL0     H18739   4.021   1.749   9.834 -0.7195 -0.5082  0.7561
  880MOL0     H18740   4.029   1.714  10.009 -0.8424 -0.9821 -0.6624
  880MOL0     H18741   3.818   1.840  10.040 -1.9850 -0.9468 -0.1634
  880MOL0     H18742   3.807   1.846   9.857  2.6448  1.8099  0.1091
  880MOL0     H18743   3.812   1.581   9.892 -2.3089 -0.5419 -0.2658
  880MOL0     H18744   3.785   1.615  10.064  1.8240 -2.3404 -0.8845
  880MOL0     H18745   3.573   1.763   9.970  0.8760  2.1075 -5.4019
  880MOL0     H18746   3.588   1.670   9.828  0.3582 -0.0269  0.2904
  880MOL0     H18747   3.437   1.545   9.952  0.9997  1.2221 -0.0296
  880MOL0     H18748   3.594   1.461   9.968  1.4188 -0.6314 -1.7387
  880MOL0     H18749   3.599   1.606  10.211 -0.8258  0.4620  0.4775
  880MOL0     H18750   3.495   1.459  10.177  1.5038  0.0862  3.2666
  880MOL0     H18751   3.218   1.517  10.191 -0.7171 -0.0484 -0.0406
  880MOL0     H18752   3.072   1.816  10.369  1.5481 -1.4467  2.4310
  880MOL0     H18753   3.016   1.741  10.225 -1.1772  0.5928  0.9564
  880MOL0     H18754   3.083   1.612  10.495 -0.7366 -0.5997  0.1041
  880MOL0     H18755   3.060   1.512  10.346 -1.7345 -2.8710  2.9154
  880MOL0     H18756   2.874   1.504  10.481 -1.2811  0.5863  0.8850
  880MOL0     H18757   2.818   1.577  10.334 -1.3608 -1.8801  1.4013
  880MOL0     H18758   2.846   1.800  10.459  0.5756  1.9385  2.3375
  880MOL0     H18759   2.906   1.705  10.595 -1.2048  1.5980  0.8199
  880MOL0     H18760   2.698   1.912  10.681  0.4790  0.0151  0.4634
  880MOL0     H18761   2.523   2.160  10.717  2.0870 -0.2368  1.0459
  880MOL0     H18762   2.693   2.136  10.690  0.8897 -0.8684 -0.6389
  880MOL0     H18763   2.602   2.220  10.564 -1.0576  1.5187 -0.4370
  880MOL0     H18764   2.165   2.304  10.472  0.6941 -1.5946  0.8450
  880MOL0     H18765   1.936   2.415  10.442  0.7841 -1.3333  0.6367
  880MOL0     H18766   1.561   2.221  10.271 -1.4443 -1.0979  0.8118
  880MOL0     H18767   1.680   2.109  10.341 -2.1286  0.4558 -3.0033
  880MOL0     H18768   1.625   2.318  10.518  0.8048 -0.9853  0.1543
  880MOL0     H18769   1.469   2.251  10.459  0.8828  0.7400 -2.0270
  880MOL0     H18770   1.594   2.025  10.559  3.4802  0.5343  0.0464
  880MOL0     H18771   1.548   2.156  10.678 -1.7996  0.8537 -0.4261
  880MOL0     H18772   1.829   2.083  10.559  2.1568 -0.6795  1.4405
  880MOL0     H18773   1.797   2.227  10.646 -1.8987  0.8238  1.1395
  880MOL0     H18774   1.718   1.961  10.767 -1.7427  0.9243  0.2538
  880MOL0     H18775   1.747   2.113  10.851  0.2383 -1.2707  0.6444
  880MOL0     H18776   1.936   1.955  10.884 -2.3546 -0.6699 -0.4197
  880MOL0     H18777   1.944   1.919  10.719  1.8560  1.0441 -0.3658
  880MOL0     H18778   2.044   2.139  10.879 -4.1668  0.4729 -0.3912
  880MOL0     H18779   2.018   2.182  10.700  1.0405 -1.0709 -1.8449
  880MOL0     H18780   2.238   2.116  10.720  2.0326 -0.5579  2.9002
  880MOL0     H18781   2.137   2.002  10.626 -0.8370  0.2754  0.5553
  880MOL0     H18782   1.836   2.123  10.159  0.0094 -2.5795  1.9934
  880MOL0     H18783   2.053   2.001  10.184  0.3191 -1.0486  2.4921
  880MOL0     H18784   2.372   1.860  10.317  0.7355 -2.2344 -0.1594
  880MOL0     H18785   2.481   1.676  10.399 -2.3046  0.0326  1.3326
  880MOL0     H18786   4.398   2.249  10.008 -0.4685 -0.7851  0.5038
  880MOL0     H18787   4.660   2.272  10.023 -2.3241  1.2552  0.2277
  880MOL0     H18788   5.014   2.051  10.171 -0.5775  1.4387 -1.7725
  880MOL0     H18789   5.255   2.070  10.211 -0.4261 -1.4856  1.0584
  880MOL0     H18790   5.512   1.931   9.894 -0.9749 -1.6008  3.7117
  880MOL0     H18791   5.549   2.109   9.855  2.2053  0.2328  0.5545
  880MOL0     H18792   5.745   2.091   9.923 -0.8853 -0.2835 -1.0594
  880MOL0     H18793   5.727   1.929   9.911 -0.7938 -0.3564 -0.9761
  880MOL0     H18794   5.665   1.902  10.156 -2.9060  0.7064 -0.0836
  880MOL0     H18795   5.676   2.082  10.167  0.4955  2.2547 -3.2431
  880MOL0     H18796   5.913   1.913  10.081 -4.5905 -0.4136 -4.2138
  880MOL0     H18797   5.888   1.953  10.252  2.4001  1.5500 -0.6219
  880MOL0     H18798   6.033   2.322  10.114 -3.3326  1.8765  1.0812
  880MOL0     H18799   5.339   2.025   9.788 -1.4168  3.7534 -0.6117
  880MOL0     H18800   5.100   1.988   9.747 -1.2676  0.0482 -0.1655
  881MOL0     O18801   6.687   7.113  11.186  0.9508 -0.1643  0.1433
  881MOL0     C18802   6.669   7.229  11.138  0.0185 -0.1717 -0.2341
  881MOL0     O18803   6.554   7.290  11.130 -0.0205 -0.0083 -0.3833
  881MOL0     C18804   6.440   7.222  11.145 -0.0433 -0.2320 -0.0989
  881MOL0     C18805   6.426   7.111  11.057 -0.5059 -0.1110  0.2508
  881MOL0     C18806   6.302   7.052  11.033  0.4430  0.6317 -0.1478
  881MOL0     C18807   6.191   7.079  11.114 -0.2567  0.3062  0.7788
  881MOL0     O18808   6.072   7.022  11.096 -0.2692 -0.0587 -0.4205
  881MOL0     C18809   6.068   6.875  11.095  1.1062 -1.2977  0.1336
  881MOL0     C18810   5.930   6.814  11.065  0.8553 -0.3329 -0.6903
  881MOL0     C18811   5.838   6.899  10.982 -0.3931  0.5872  0.2364
  881MOL0     C18812   5.707   6.820  10.971 -1.2954  0.6590 -0.2008
  881MOL0     C18813   5.620   6.866  10.858  0.6331  0.5864  0.0426
  881MOL0     C18814   5.504   6.769  10.818  0.4042 -1.0794 -0.4582
  881MOL0     C18815   5.443   6.795  10.684 -0.0103  0.6160  0.6574
  881MOL0     C18816   5.387   6.933  10.664  0.1129 -0.1313 -0.1803
  881MOL0     N18817   5.259   6.952  10.736  0.0593  0.1877 -0.1189
  881MOL0     C18818   5.137   6.890  10.690  0.1857 -0.1586 -0.1373
  881MOL0     C18819   5.035   6.950  10.766  0.9940  1.2910 -0.5874
  881MOL0     C18820   4.884   6.909  10.765 -0.6318  0.4727  0.0527
  881MOL0     C18821   4.794   7.011  10.711 -0.1273  0.4073  0.5177
  881MOL0     C18822   4.778   7.005  10.560  0.2719  1.0955 -0.1609
  881MOL0     C18823   4.640   6.944  10.528  0.2864 -0.7472  0.9454
  881MOL0     O18824   4.527   7.030  10.569 -0.0056 -0.2505  0.4358
  881MOL0     C18825   4.400   6.981  10.539  0.9210 -0.3670  0.5772
  881MOL0     C18826   4.294   7.037  10.621 -0.0126 -0.1618  0.3639
  881MOL0     C18827   4.159   7.006  10.589 -0.1262 -0.1300  0.9295
  881MOL0     C18828   4.046   7.092  10.651  1.2141 -0.3271 -0.0213
  881MOL0     C18829   4.128   6.903  10.495  0.1465 -0.0409  0.6390
  881MOL0     C18830   3.984   6.855  10.475 -0.9432  0.7470  0.9375
  881MOL0     O18831   3.889   6.875  10.569 -0.0277  0.0307  0.2627
  881MOL0     C18832   3.772   6.811  10.552  0.3060  0.4771  0.4934
  881MOL0     C18833   3.656   6.891  10.540  0.3762 -0.2942  0.2936
  881MOL0     C18834   3.533   6.832  10.523  0.5672  0.0733  0.2228
  881MOL0     C18835   3.521   6.692  10.535 -1.0034  0.3785 -0.4348
  881MOL0     O18836   3.409   6.627  10.511  0.4572  0.4664 -0.2440
  881MOL0     C18837   3.282   6.682  10.543 -0.4594 -0.0245  0.1033
  881MOL0     C18838   3.188   6.565  10.542  0.8680  0.9185 -0.9936
  881MOL0     C18839   3.214   6.443  10.639 -0.5495 -0.5718  0.3343
  881MOL0     C18840   3.200   6.499  10.785  0.1325 -0.1572  0.4458
  881MOL0     C18841   3.211   6.384  10.889  0.1645 -0.5648 -0.4765
  881MOL0     C18842   3.349   6.323  10.915  0.3943 -0.4537 -0.0185
  881MOL0     C18843   3.331   6.220  11.036 -1.0071 -0.4202 -0.6338
  881MOL0     C18844   3.461   6.158  11.096 -0.0503  0.1530  0.3994
  881MOL0    Cl18845   3.558   6.283  11.177  0.0240 -0.0664 -0.1181
  881MOL0     C18846   3.635   6.613  10.551 -0.2555  0.2130 -0.5622
  881MOL0     C18847   3.762   6.667  10.556  0.0861 -0.0659 -0.2460
  881MOL0     O18848   3.965   6.796  10.375 -0.4289 -0.0859  0.2996
  881MOL0     C18849   4.232   6.854  10.417 -0.0193  0.6660 -0.4449
  881MOL0     C18850   4.365   6.890  10.438  0.4896 -0.1174 -0.0323
  881MOL0     N18851   5.093   7.035  10.848 -0.0192  0.7891 -0.0802
  881MOL0     N18852   5.225   7.043  10.831  0.4859  0.2115  0.0671
  881MOL0     C18853   6.208   7.193  11.190  0.1912 -0.3765 -0.1000
  881MOL0     C18854   6.328   7.271  11.208 -1.1136  0.3372  0.8446
  881MOL0     C18855   6.792   7.303  11.084  0.4290  0.2868 -0.3980
  881MOL0     C18856   6.799   7.441  11.084 -0.9203 -0.5150  0.2831
  881MOL0     C18857   6.915   7.502  11.035  0.1155  0.0141 -0.2222
  881MOL0     C18858   7.025   7.433  11.000 -0.2872  0.2478  0.5010
  881MOL0     O18859   7.141   7.502  10.969  0.3574 -0.0718 -0.0193
  881MOL0     C18860   7.237   7.436  10.882  0.1408 -0.5655 -0.2343
  881MOL0     C18861   7.323   7.547  10.836 -0.0319 -0.5489 -0.0664
  881MOL0     C18862   7.444   7.490  10.764 -0.0577  0.0354 -0.4056
  881MOL0     C18863   7.545   7.607  10.726  1.1129  0.4184  0.8202
  881MOL0     C18864   7.610   7.576  10.604  0.5400  0.7247  0.2065
  881MOL0     C18865   7.659   7.569  10.491 -0.3849  0.6142 -0.1455
  881MOL0     C18866   7.016   7.292  10.999  0.9952  0.0482  0.7338
  881MOL0     C18867   6.894   7.234  11.037  0.1334  0.4927  0.3476
  881MOL0     H18868   6.508   7.087  10.990 -1.3934 -0.5144 -0.7180
  881MOL0     H18869   6.292   6.967  10.967  1.0554  0.3148  0.1598
  881MOL0     H18870   6.129   6.842  11.010  1.8440  1.9192 -0.7060
  881MOL0     H18871   6.099   6.837  11.193 -1.9642 -0.9104  1.3551
  881MOL0     H18872   5.946   6.710  11.035  0.9758 -0.2961 -0.7546
  881MOL0     H18873   5.877   6.828  11.160 -0.6322  2.8416 -1.8338
  881MOL0     H18874   5.816   6.996  11.027  2.7353  0.5157  2.2643
  881MOL0     H18875   5.884   6.927  10.887 -1.7538  0.1131 -0.5831
  881MOL0     H18876   5.735   6.714  10.969  0.2285  0.8667  3.0373
  881MOL0     H18877   5.650   6.827  11.063  2.2446 -0.8485  2.3465
  881MOL0     H18878   5.583   6.965  10.888  1.5183  0.4027  1.8698
  881MOL0     H18879   5.684   6.892  10.774  1.5584  1.3093  0.9327
  881MOL0     H18880   5.543   6.667  10.817  2.0118 -0.5391  0.7943
  881MOL0     H18881   5.428   6.788  10.894 -1.2797  0.3699 -2.3892
  881MOL0     H18882   5.499   6.763  10.595 -4.0291 -1.2229 -1.4755
  881MOL0     H18883   5.359   6.725  10.673 -1.8613  2.9993 -1.8366
  881MOL0     H18884   5.368   6.948  10.557  0.7021  1.9098 -0.0365
  881MOL0     H18885   5.471   6.993  10.699 -0.4090 -0.8575  2.5641
  881MOL0     H18886   5.125   6.823  10.606  1.4181 -0.8721  0.2257
  881MOL0     H18887   4.870   6.808  10.727  1.6488 -0.4257  1.4124
  881MOL0     H18888   4.848   6.908  10.869  1.8357 -1.7797  1.0037
  881MOL0     H18889   4.836   7.109  10.734  0.2564  0.3893 -0.0913
  881MOL0     H18890   4.699   6.997  10.763  0.4746 -2.8160  0.9958
  881MOL0     H18891   4.852   6.937  10.518 -0.6652 -0.8014  1.1214
  881MOL0     H18892   4.787   7.104  10.516  0.3756  0.7121 -1.0227
  881MOL0     H18893   4.626   6.840  10.559 -1.2445 -1.2529 -1.2143
  881MOL0     H18894   4.645   6.944  10.419  2.4333  2.1263  0.9169
  881MOL0     H18895   4.309   7.103  10.706  0.1867  3.2214 -2.0979
  881MOL0     H18896   4.099   7.170  10.708  0.2889 -0.8884  1.6342
  881MOL0     H18897   3.978   7.126  10.573 -0.9589 -1.4828  1.2970
  881MOL0     H18898   3.984   7.041  10.725 -1.1300 -0.8819 -2.2214
  881MOL0     H18899   3.671   6.998  10.524 -1.0503 -0.1689 -0.4383
  881MOL0     H18900   3.447   6.899  10.518  2.4196  2.5884  0.0303
  881MOL0     H18901   3.300   6.721  10.644  2.5566 -2.5116  0.6897
  881MOL0     H18902   3.239   6.761  10.481 -1.2678 -1.0725 -0.7146
  881MOL0     H18903   3.090   6.612  10.552  0.5156  1.2623 -4.6387
  881MOL0     H18904   3.175   6.517  10.445  1.0627 -0.3163 -0.4328
  881MOL0     H18905   3.314   6.401  10.626 -0.4956 -1.1711  2.2679
  881MOL0     H18906   3.153   6.353  10.631  2.0261 -2.2471 -2.9236
  881MOL0     H18907   3.284   6.568  10.800  1.6056 -1.8076  0.1903
  881MOL0     H18908   3.107   6.555  10.798 -1.4803 -2.9062  1.7250
  881MOL0     H18909   3.144   6.307  10.849 -1.2918  0.0959  0.6111
  881MOL0     H18910   3.174   6.418  10.986  1.9811  0.6994 -0.1590
  881MOL0     H18911   3.380   6.256  10.834  1.0983  0.4233 -0.4906
  881MOL0     H18912   3.418   6.405  10.938 -1.5680  1.2427  0.0822
  881MOL0     H18913   3.262   6.141  11.005 -0.9863 -0.3303 -0.9150
  881MOL0     H18914   3.280   6.270  11.120 -1.4420 -2.0568  0.1170
  881MOL0     H18915   3.525   6.125  11.014  2.1003  2.3245  1.0889
  881MOL0     H18916   3.432   6.077  11.164 -4.7729  1.7315  0.6396
  881MOL0     H18917   3.633   6.505  10.559  2.3559  0.1955  1.0274
  881MOL0     H18918   3.849   6.603  10.559  0.6781  0.7465  0.2781
  881MOL0     H18919   4.205   6.766  10.359  1.3151 -2.4314  3.1337
  881MOL0     H18920   4.438   6.843  10.373 -0.5816  0.7976 -2.0070
  881MOL0     H18921   6.125   7.236  11.244  1.3646 -0.8549  2.2160
  881MOL0     H18922   6.326   7.358  11.273 -1.1942 -0.3875  1.8415
  881MOL0     H18923   6.714   7.497  11.123 -0.0468  0.1335  1.3388
  881MOL0     H18924   6.914   7.610  11.028 -0.9458  0.1346  1.1859
  881MOL0     H18925   7.294   7.357  10.932 -1.1494 -1.1782  0.3439
  881MOL0     H18926   7.184   7.395  10.796 -2.4560  1.2493  0.3676
  881MOL0     H18927   7.349   7.603  10.927 -2.3154 -1.5115  1.2650
  881MOL0     H18928   7.274   7.618  10.770  1.0640 -0.0050 -0.3146
  881MOL0     H18929   7.411   7.424  10.683 -0.8014 -2.1353  1.5659
  881MOL0     H18930   7.496   7.427  10.835 -1.3442 -1.4080 -0.6878
  881MOL0     H18931   7.602   7.622  10.818 -2.1283  1.0280  2.9089
  881MOL0     H18932   7.500   7.704  10.706  3.3817  1.2964 -0.4371
  881MOL0     H18933   7.694   7.550  10.391  0.6317  1.7673 -0.0454
  881MOL0     H18934   7.099   7.235  10.958  1.1328  1.0169 -0.3712
  881MOL0     H18935   6.881   7.128  11.019 -1.0491  0.4985  1.0442
  882MOL0     O18936   0.777   7.145   2.869 -0.3214  0.0983 -0.7715
  882MOL0     C18937   0.817   7.086   2.770 -0.0984  0.1063  0.7345
  882MOL0     O18938   0.949   7.093   2.720 -0.2600  0.5912  0.6919
  882MOL0     C18939   1.035   7.162   2.799 -0.0662  0.3944  0.2476
  882MOL0     C18940   1.103   7.068   2.881  0.3562 -0.7730 -0.2406
  882MOL0     C18941   1.195   7.123   2.968 -0.2534  0.0883 -0.0541
  882MOL0     C18942   1.200   7.261   2.989  0.5929 -0.6268  0.1933
  882MOL0     O18943   1.283   7.319   3.082  0.4100 -0.4894  1.0833
  882MOL0     C18944   1.399   7.249   3.120 -0.4626 -0.1222  0.0159
  882MOL0     C18945   1.496   7.342   3.189  0.1204  0.3318  0.1094
  882MOL0     C18946   1.448   7.364   3.337  0.4279 -0.6915  0.2411
  882MOL0     C18947   1.520   7.283   3.436 -1.3264 -0.6705 -0.1267
  882MOL0     C18948   1.521   7.132   3.415 -0.3836 -0.2102 -0.2938
  882MOL0     C18949   1.575   7.057   3.537 -0.8311  0.4638 -0.7782
  882MOL0     C18950   1.732   7.059   3.562  0.0548  0.2152  0.2650
  882MOL0     C18951   1.778   7.000   3.704  0.0861 -0.2484 -0.6563
  882MOL0     N18952   1.687   6.898   3.753 -0.3624 -0.4424 -0.0255
  882MOL0     C18953   1.592   6.915   3.853 -0.1126  0.2111  1.0018
  882MOL0     C18954   1.553   6.798   3.889 -0.3328 -0.1490 -0.3690
  882MOL0     C18955   1.437   6.772   3.975 -1.1023 -0.1171 -0.8335
  882MOL0     C18956   1.299   6.770   3.909  0.1935  0.7333 -0.0496
  882MOL0     C18957   1.196   6.759   4.010  0.8187  0.0181  0.1230
  882MOL0     C18958   1.053   6.757   3.940  0.2289  0.1141  0.4693
  882MOL0     O18959   0.961   6.760   4.053 -0.2948  0.3323 -0.1620
  882MOL0     C18960   0.830   6.730   4.037 -0.1585  0.2731 -0.9895
  882MOL0     C18961   0.756   6.700   3.924 -0.7916  0.5208 -0.2665
  882MOL0     C18962   0.622   6.669   3.927  0.3638 -0.2082  0.3235
  882MOL0     C18963   0.543   6.649   3.799  0.1313  0.1152 -0.0764
  882MOL0     C18964   0.554   6.674   4.050 -0.9950  0.7769 -0.9180
  882MOL0     C18965   0.403   6.636   4.065 -0.5311 -0.2943  0.0205
  882MOL0     O18966   0.318   6.701   3.979  0.1910  0.8733 -0.4293
  882MOL0     C18967   0.192   6.648   3.981  0.1486 -0.2196  0.1584
  882MOL0     C18968   0.158   6.579   3.870  0.5884  0.6287 -0.1654
  882MOL0     C18969   0.027   6.525   3.871  0.1493 -0.9317 -0.0411
  882MOL0     C18970  -0.058   6.552   3.978 -0.2701 -0.1668  0.3531
  882MOL0     O18971  -0.185   6.496   3.980 -0.4420 -0.0852 -0.6245
  882MOL0     C18972  -0.187   6.356   4.024  0.1160 -0.5640 -0.0264
  882MOL0     C18973  -0.336   6.319   4.065 -0.4929  0.1301  0.5032
  882MOL0     C18974  -0.350   6.287   4.211 -0.4450  1.0947  0.6278
  882MOL0     C18975  -0.486   6.241   4.244 -0.3423  0.6145  0.0616
  882MOL0     C18976  -0.481   6.224   4.396  0.3066  0.6783 -0.0219
  882MOL0     C18977  -0.625   6.173   4.435  0.2344 -0.1693  0.4690
  882MOL0     C18978  -0.738   6.279   4.421 -0.5790 -0.1462 -0.6023
  882MOL0     C18979  -0.843   6.244   4.521 -0.1605 -0.7000  0.2662
  882MOL0    Cl18980  -0.964   6.142   4.434 -0.0162 -0.3303 -0.3404
  882MOL0     C18981  -0.032   6.639   4.083  0.2213  0.3195 -1.0297
  882MOL0     C18982   0.101   6.688   4.080 -1.0836  0.3155 -0.2960
  882MOL0     O18983   0.362   6.590   4.171  0.2229 -0.4982 -0.4242
  882MOL0     C18984   0.629   6.704   4.169  0.7362  0.3726 -0.6366
  882MOL0     C18985   0.770   6.724   4.161  1.1099 -0.4906  0.2244
  882MOL0     N18986   1.634   6.703   3.829  0.9455  0.2634  0.3122
  882MOL0     N18987   1.702   6.761   3.735 -0.0654 -0.6169 -0.0228
  882MOL0     C18988   1.109   7.352   2.928 -0.2123  0.1830 -0.2034
  882MOL0     C18989   1.029   7.300   2.825 -0.3515  0.0212 -0.5287
  882MOL0     C18990   0.719   7.017   2.683 -0.0527  0.3897  0.0720
  882MOL0     C18991   0.586   6.973   2.729 -0.2669 -0.5103  0.2609
  882MOL0     C18992   0.509   6.902   2.637  0.0812 -0.1033 -0.3269
  882MOL0     C18993   0.547   6.885   2.501 -0.9491  0.2605 -0.2251
  882MOL0     O18994   0.462   6.826   2.410  0.0082  0.3613 -0.9622
  882MOL0     C18995   0.375   6.724   2.459 -0.3876 -0.0351 -0.8946
  882MOL0     C18996   0.325   6.632   2.343 -0.9612  0.1106  0.4125
  882MOL0     C18997   0.264   6.709   2.222  0.1226  0.6816 -0.5018
  882MOL0     C18998   0.271   6.614   2.090  0.6560  0.1599 -0.0402
  882MOL0     C18999   0.155   6.526   2.081  0.3448  0.5395 -0.8928
  882MOL0     C19000   0.050   6.456   2.076  0.0094 -0.7923  0.9030
  882MOL0     C19001   0.672   6.930   2.459  0.4763 -0.7871  0.8041
  882MOL0     C19002   0.762   6.994   2.549 -0.1328 -0.8788 -0.6470
  882MOL0     H19003   1.102   6.962   2.860 -1.7166 -0.8438 -0.0239
  882MOL0     H19004   1.252   7.055   3.031 -0.4789 -0.6085 -0.5867
  882MOL0     H19005   1.357   7.173   3.186 -1.3220 -1.9197 -2.4489
  882MOL0     H19006   1.452   7.206   3.034  0.2744  2.5565 -0.9773
  882MOL0     H19007   1.599   7.305   3.186  0.4084  1.1070 -2.5731
  882MOL0     H19008   1.493   7.437   3.134  2.0682  0.8298  0.7807
  882MOL0     H19009   1.470   7.468   3.362 -1.2387 -0.7335  2.1563
  882MOL0     H19010   1.340   7.352   3.341  0.3395  0.0819  0.2132
  882MOL0     H19011   1.623   7.318   3.432 -1.9584  1.2753 -0.4617
  882MOL0     H19012   1.478   7.293   3.537  0.2685 -2.4624  0.7539
  882MOL0     H19013   1.415   7.108   3.404 -0.2770 -1.0598  0.4236
  882MOL0     H19014   1.575   7.101   3.325 -1.5177 -0.0503 -1.0509
  882MOL0     H19015   1.525   7.096   3.626 -0.7615 -0.2639 -0.4126
  882MOL0     H19016   1.537   6.955   3.528  4.1574 -1.6200 -1.5083
  882MOL0     H19017   1.776   6.996   3.484  1.8677 -1.4615  2.4693
  882MOL0     H19018   1.765   7.163   3.555 -2.0282  0.9097  0.1393
  882MOL0     H19019   1.781   7.075   3.783  2.0697 -0.6071 -0.3354
  882MOL0     H19020   1.882   6.966   3.707  0.2289  0.1080  3.0598
  882MOL0     H19021   1.549   7.007   3.890  3.2134  1.6148  1.6647
  882MOL0     H19022   1.462   6.678   4.025 -0.1217  1.1090  1.0813
  882MOL0     H19023   1.443   6.856   4.045 -0.0008  0.0187 -1.0689
  882MOL0     H19024   1.311   6.683   3.843 -1.2561 -1.0640  1.8989
  882MOL0     H19025   1.284   6.863   3.853  0.1343 -0.5682 -2.3310
  882MOL0     H19026   1.192   6.840   4.083 -0.6928 -1.6040  1.9917
  882MOL0     H19027   1.215   6.672   4.074  2.4458  0.9037  0.8855
  882MOL0     H19028   1.040   6.665   3.881 -2.9469  1.3518 -0.9897
  882MOL0     H19029   1.043   6.841   3.870 -0.2144  1.0875  1.6608
  882MOL0     H19030   0.815   6.694   3.833  0.8038  1.6198  0.6387
  882MOL0     H19031   0.465   6.574   3.809 -0.5414  0.7878 -0.2148
  882MOL0     H19032   0.491   6.742   3.775 -0.8891 -0.3421  0.3392
  882MOL0     H19033   0.614   6.629   3.718 -0.8845 -2.9962 -0.3070
  882MOL0     H19034   0.226   6.565   3.787 -2.2818 -0.8360 -2.4751
  882MOL0     H19035  -0.014   6.473   3.785  0.2858  0.4668 -0.9877
  882MOL0     H19036  -0.146   6.295   3.943  0.3899 -0.3438 -0.0560
  882MOL0     H19037  -0.122   6.355   4.112 -0.8194  1.3164  0.7403
  882MOL0     H19038  -0.402   6.402   4.038 -1.4555 -1.0960 -1.0614
  882MOL0     H19039  -0.381   6.241   4.004 -1.0971  2.4823 -2.2747
  882MOL0     H19040  -0.325   6.374   4.272  0.4950  1.9579 -0.9257
  882MOL0     H19041  -0.272   6.222   4.250  0.7430  1.9228 -0.3054
  882MOL0     H19042  -0.571   6.304   4.217 -2.6342 -1.1494  2.5689
  882MOL0     H19043  -0.507   6.144   4.199 -0.6555  0.0778  1.3094
  882MOL0     H19044  -0.458   6.317   4.449 -4.3707  2.3524 -0.5103
  882MOL0     H19045  -0.417   6.139   4.423 -0.1957  0.3618  0.1746
  882MOL0     H19046  -0.658   6.091   4.371 -2.9063 -0.6762  2.5430
  882MOL0     H19047  -0.613   6.130   4.534 -0.8347 -3.0553 -0.5507
  882MOL0     H19048  -0.780   6.300   4.323  1.4926  0.3283 -1.4268
  882MOL0     H19049  -0.693   6.372   4.457 -0.8498 -0.9002  1.9149
  882MOL0     H19050  -0.902   6.331   4.550  0.0396 -0.6788  0.6162
  882MOL0     H19051  -0.802   6.190   4.607  0.2260 -1.7719 -0.5530
  882MOL0     H19052  -0.106   6.664   4.158  0.8435  0.5368 -0.4715
  882MOL0     H19053   0.136   6.751   4.161  0.6268 -1.2201  0.2477
  882MOL0     H19054   0.577   6.707   4.264 -0.2936  4.3008 -1.1345
  882MOL0     H19055   0.817   6.762   4.251  0.5696 -0.0941  0.3465
  882MOL0     H19056   1.101   7.459   2.946 -0.9651  0.5196 -2.2882
  882MOL0     H19057   0.955   7.360   2.772  0.9118  0.9845 -1.2605
  882MOL0     H19058   0.549   6.983   2.831  1.0117  3.7392  0.5055
  882MOL0     H19059   0.410   6.870   2.669  0.1269  0.9927  1.0028
  882MOL0     H19060   0.416   6.674   2.548 -2.0160  4.8173  3.0346
  882MOL0     H19061   0.288   6.778   2.497 -0.4247 -0.1163 -0.8665
  882MOL0     H19062   0.255   6.561   2.390  0.9045 -1.0751  1.5374
  882MOL0     H19063   0.409   6.578   2.299 -1.3659 -0.4681  0.3295
  882MOL0     H19064   0.316   6.801   2.197  1.2809 -0.6975 -3.7024
  882MOL0     H19065   0.161   6.744   2.236  0.4390  1.5885 -0.3993
  882MOL0     H19066   0.362   6.552   2.088  0.9003  0.4582  1.1550
  882MOL0     H19067   0.279   6.679   2.003  0.4603  2.7171  1.7311
  882MOL0     H19068  -0.039   6.399   2.057 -1.0572  1.5400 -1.8705
  882MOL0     H19069   0.711   6.919   2.358  2.1847 -2.0019  1.5396
  882MOL0     H19070   0.859   7.035   2.520 -0.5151  0.2248 -0.3693
  883MOL0     O19071   7.136   0.790   2.351  0.5768  0.3836 -1.0169
  883MOL0     C19072   7.191   0.682   2.330  0.2372 -0.2032 -0.0640
  883MOL0     O19073   7.128   0.563   2.291 -0.2473 -0.8715 -0.1027
  883MOL0     C19074   6.996   0.555   2.252 -0.0632 -0.2518  0.0801
  883MOL0     C19075   6.891   0.606   2.339  0.1879  0.3089  0.3089
  883MOL0     C19076   6.756   0.591   2.287 -0.9983  0.2404  0.6215
  883MOL0     C19077   6.729   0.511   2.171  0.4636  0.1345 -0.0521
  883MOL0     O19078   6.600   0.476   2.127  0.4867 -0.3577 -1.1299
  883MOL0     C19079   6.492   0.520   2.209 -0.4859 -0.1732 -0.2882
  883MOL0     C19080   6.361   0.513   2.134 -0.0512 -0.2607 -0.2879
  883MOL0     C19081   6.245   0.498   2.234  0.2768  0.5024  0.8162
  883MOL0     C19082   6.236   0.359   2.296 -0.3268  0.2170  0.1462
  883MOL0     C19083   6.120   0.358   2.389  0.2875 -0.4199  0.1819
  883MOL0     C19084   6.097   0.212   2.441  0.2152  0.0249 -0.4745
  883MOL0     C19085   5.997   0.204   2.549 -0.0326  0.2676  0.3426
  883MOL0     C19086   5.854   0.243   2.508 -0.4304 -0.1536 -0.6605
  883MOL0     N19087   5.748   0.224   2.620  0.2000  0.3488  0.2740
  883MOL0     C19088   5.642   0.306   2.650 -0.1510 -0.5462  0.2733
  883MOL0     C19089   5.584   0.245   2.752  0.2815 -0.2436  0.8552
  883MOL0     C19090   5.450   0.296   2.821 -0.4339 -0.6982 -0.1061
  883MOL0     C19091   5.328   0.207   2.786  0.0405 -0.4532  0.2036
  883MOL0     C19092   5.319   0.089   2.882 -0.2939 -0.4573 -0.6678
  883MOL0     C19093   5.191   0.007   2.877  0.7504  0.2350 -0.2426
  883MOL0     O19094   5.083   0.076   2.941  0.1146  0.2545 -0.5406
  883MOL0     C19095   4.956   0.030   2.918 -0.1465  0.1523 -0.2726
  883MOL0     C19096   4.855   0.110   2.950 -0.9679  0.3251  0.4442
  883MOL0     C19097   4.723   0.076   2.929  1.1193  0.4077  0.2556
  883MOL0     C19098   4.621   0.184   2.970  0.8063  0.6631  0.4751
  883MOL0     C19099   4.698  -0.048   2.867  0.0102 -0.1888  0.4081
  883MOL0     C19100   4.566  -0.094   2.826  0.0313  0.6904 -0.3452
  883MOL0     O19101   4.560  -0.201   2.746 -0.3323 -0.0961 -0.2061
  883MOL0     C19102   4.445  -0.265   2.742  0.0689 -0.0953 -0.0465
  883MOL0     C19103   4.379  -0.291   2.621  0.1361  0.4330  0.2756
  883MOL0     C19104   4.261  -0.362   2.621 -0.7568 -0.2063 -0.0847
  883MOL0     C19105   4.207  -0.397   2.744  0.0440  0.4534 -0.4571
  883MOL0     O19106   4.083  -0.447   2.744  0.0931 -0.0202 -0.5076
  883MOL0     C19107   3.993  -0.411   2.848 -0.5269  0.6773 -0.5299
  883MOL0     C19108   3.859  -0.457   2.802 -0.4781  0.4311 -0.3271
  883MOL0     C19109   3.815  -0.404   2.665  0.4339  0.1769  0.2954
  883MOL0     C19110   3.664  -0.381   2.644  0.3700 -0.8461 -0.3107
  883MOL0     C19111   3.619  -0.352   2.493 -0.7039 -0.0596  0.3341
  883MOL0     C19112   3.474  -0.300   2.491  0.2249 -0.2512 -0.0008
  883MOL0     C19113   3.394  -0.302   2.368  1.2433 -0.0662  0.5070
  883MOL0     C19114   3.244  -0.274   2.394 -0.1904 -0.0430 -0.4106
  883MOL0    Cl19115   3.186  -0.406   2.498  0.1569  0.1819 -0.5607
  883MOL0     C19116   4.268  -0.370   2.871 -0.1488  0.6973 -0.0722
  883MOL0     C19117   4.399  -0.315   2.868  0.2886  0.4307  0.2143
  883MOL0     O19118   4.467  -0.034   2.871  0.3064  0.5137  0.4003
  883MOL0     C19119   4.802  -0.133   2.828 -0.1292 -0.1180  0.3440
  883MOL0     C19120   4.927  -0.090   2.854 -0.0395 -0.3734 -0.9121
  883MOL0     N19121   5.652   0.136   2.795  0.7584  0.4167  0.0735
  883MOL0     N19122   5.750   0.124   2.713  0.0341  0.2411  1.1614
  883MOL0     C19123   6.835   0.472   2.090  0.2433  0.2241  1.3016
  883MOL0     C19124   6.964   0.491   2.131  0.9483  0.0793  1.0801
  883MOL0     C19125   7.340   0.680   2.348  0.1575  0.1264  0.9729
  883MOL0     C19126   7.416   0.792   2.383  0.9439  0.0230  0.3294
  883MOL0     C19127   7.551   0.776   2.413  0.1493  0.0935 -0.2804
  883MOL0     C19128   7.619   0.655   2.386  0.0235 -0.1040  0.0059
  883MOL0     O19129   7.753   0.622   2.401  0.2303 -0.0361  0.2272
  883MOL0     C19130   7.833   0.710   2.489  1.2464  0.4133  0.4276
  883MOL0     C19131   7.965   0.638   2.516 -0.7747 -0.4352 -0.2006
  883MOL0     C19132   8.024   0.586   2.388 -0.6039 -0.8755  0.7853
  883MOL0     C19133   8.149   0.504   2.418 -0.3154 -0.3599  0.6256
  883MOL0     C19134   8.269   0.585   2.436 -0.2222  0.3074 -0.1746
  883MOL0     C19135   8.375   0.628   2.417  0.2291 -0.3781 -0.8451
  883MOL0     C19136   7.542   0.550   2.338 -0.3932 -0.2489  1.1501
  883MOL0     C19137   7.405   0.557   2.323  0.3806  0.6665  0.7188
  883MOL0     H19138   6.915   0.650   2.436  3.0321  2.5415 -1.2298
  883MOL0     H19139   6.678   0.622   2.355  0.4605 -1.0067  2.9948
  883MOL0     H19140   6.493   0.457   2.298  0.5077  0.3989  0.1248
  883MOL0     H19141   6.509   0.624   2.238  0.3073 -0.2462 -0.4593
  883MOL0     H19142   6.342   0.607   2.080 -1.3280  0.6452  1.6423
  883MOL0     H19143   6.360   0.423   2.072  0.5019 -0.3830 -0.1219
  883MOL0     H19144   6.267   0.575   2.309  2.2904  0.7187  0.0547
  883MOL0     H19145   6.160   0.525   2.170  0.1405 -1.5992  0.0368
  883MOL0     H19146   6.209   0.296   2.211 -0.4126  0.4512  0.0008
  883MOL0     H19147   6.330   0.314   2.329 -0.8921 -2.2332 -1.3121
  883MOL0     H19148   6.139   0.422   2.475  1.3749  0.8716 -0.9623
  883MOL0     H19149   6.035   0.395   2.331  0.7122 -0.9157 -0.7803
  883MOL0     H19150   6.072   0.136   2.367  2.5510 -0.3507 -0.9571
  883MOL0     H19151   6.192   0.179   2.484  1.1801  0.1717 -2.3735
  883MOL0     H19152   5.995   0.098   2.577 -1.5917  0.3939  0.8428
  883MOL0     H19153   6.028   0.255   2.641  0.0278  0.5026  0.1928
  883MOL0     H19154   5.821   0.187   2.419 -0.3934 -2.8878  0.9254
  883MOL0     H19155   5.865   0.350   2.489 -3.4054  0.0239 -1.9371
  883MOL0     H19156   5.625   0.404   2.605 -1.6875 -1.5042 -1.3136
  883MOL0     H19157   5.458   0.316   2.929 -3.8084 -0.4318  0.1765
  883MOL0     H19158   5.432   0.399   2.790 -0.8539 -1.5465 -2.9018
  883MOL0     H19159   5.337   0.176   2.682  0.6614 -2.1205  0.7211
  883MOL0     H19160   5.232   0.256   2.802 -1.3331 -1.8663 -2.9438
  883MOL0     H19161   5.332   0.133   2.981 -0.7216  1.0044 -1.2277
  883MOL0     H19162   5.406   0.023   2.874 -0.2881 -0.5203 -0.0840
  883MOL0     H19163   5.204  -0.091   2.924 -3.3924  0.5808  2.1140
  883MOL0     H19164   5.167  -0.013   2.772  0.1065  1.9442 -0.4501
  883MOL0     H19165   4.879   0.206   2.994  2.1716 -0.3042  0.3177
  883MOL0     H19166   4.543   0.189   2.892 -1.0885 -3.5243  1.8076
  883MOL0     H19167   4.576   0.176   3.069 -0.5911  0.2739 -0.1623
  883MOL0     H19168   4.679   0.276   2.962  0.3416  0.8104 -2.4462
  883MOL0     H19169   4.429  -0.264   2.529  0.2634 -2.8291 -0.7365
  883MOL0     H19170   4.200  -0.376   2.532 -0.7446  1.6652 -0.4376
  883MOL0     H19171   4.011  -0.473   2.937  3.1973  1.7557 -0.3535
  883MOL0     H19172   3.998  -0.307   2.880 -1.3948 -0.4276  3.8184
  883MOL0     H19173   3.864  -0.566   2.789 -1.1666  0.5032 -1.3352
  883MOL0     H19174   3.780  -0.421   2.868 -2.3730 -1.5204 -1.3746
  883MOL0     H19175   3.848  -0.474   2.588  0.5370 -0.1967  0.6761
  883MOL0     H19176   3.876  -0.314   2.648 -0.5133  0.7033 -0.3995
  883MOL0     H19177   3.607  -0.464   2.686  2.9643 -2.0333  1.0003
  883MOL0     H19178   3.637  -0.305   2.718  2.7432 -2.5543  2.4827
  883MOL0     H19179   3.629  -0.444   2.434 -0.2072 -1.0819  1.9411
  883MOL0     H19180   3.682  -0.278   2.442 -0.6659 -0.2612  0.0845
  883MOL0     H19181   3.424  -0.353   2.573 -0.8461 -0.2222 -0.6164
  883MOL0     H19182   3.482  -0.193   2.509 -1.2623  0.0003 -0.6908
  883MOL0     H19183   3.399  -0.401   2.322 -3.4717 -2.0518  3.5464
  883MOL0     H19184   3.428  -0.230   2.293 -2.7722  0.4525 -1.0656
  883MOL0     H19185   3.187  -0.299   2.304  0.5852  1.4848 -1.3816
  883MOL0     H19186   3.217  -0.174   2.431 -0.9544  0.1162 -1.3536
  883MOL0     H19187   4.234  -0.420   2.961 -1.5639 -0.8456 -1.3971
  883MOL0     H19188   4.450  -0.321   2.964 -0.5310 -3.6685  0.5725
  883MOL0     H19189   4.795  -0.233   2.787  1.0632 -1.0082  2.1624
  883MOL0     H19190   5.003  -0.161   2.821  0.2435 -0.6364  0.2267
  883MOL0     H19191   6.814   0.413   2.001  3.4337 -2.0952  1.8915
  883MOL0     H19192   7.039   0.448   2.065 -2.7569  0.4648 -3.9733
  883MOL0     H19193   7.364   0.885   2.401 -1.5471 -1.3045  0.4530
  883MOL0     H19194   7.613   0.859   2.444  2.8342 -1.1867 -1.8539
  883MOL0     H19195   7.866   0.794   2.427  1.2086 -0.8554 -1.4110
  883MOL0     H19196   7.771   0.746   2.571 -0.1865 -0.3654 -0.2793
  883MOL0     H19197   7.948   0.555   2.586 -0.7694  0.4206  0.8386
  883MOL0     H19198   8.038   0.710   2.554 -2.5940  2.3843 -1.7152
  883MOL0     H19199   8.048   0.657   2.309 -0.1813 -0.6810  1.0867
  883MOL0     H19200   7.955   0.515   2.340 -0.4379 -0.3460 -0.2752
  883MOL0     H19201   8.171   0.438   2.333 -1.0838  0.3112 -0.1106
  883MOL0     H19202   8.128   0.446   2.508 -1.9055 -0.3297  0.3064
  883MOL0     H19203   8.475   0.668   2.418 -0.0898  0.5023 -1.8426
  883MOL0     H19204   7.586   0.451   2.334 -2.0701 -0.9986 -0.0228
  883MOL0     H19205   7.360   0.466   2.286  0.3069  0.8466  0.3643
  884MOL0     O19206   2.260   8.229   9.898  0.8147 -0.5680  0.1084
  884MOL0     C19207   2.291   8.245  10.017 -0.6581  0.0663  0.2513
  884MOL0     O19208   2.209   8.228  10.123  0.1741 -0.1733 -0.1828
  884MOL0     C19209   2.078   8.188  10.111 -0.3846  0.8099 -0.0897
  884MOL0     C19210   2.051   8.057  10.080 -0.1953 -0.6763 -0.6146
  884MOL0     C19211   1.921   8.010  10.063  0.4921 -0.8797  0.0828
  884MOL0     C19212   1.807   8.100  10.076 -0.0571 -0.1507 -0.1795
  884MOL0     O19213   1.683   8.048  10.057 -0.3980 -0.5141  0.3866
  884MOL0     C19214   1.555   8.124  10.079  0.9662  0.3426  0.6376
  884MOL0     C19215   1.514   8.095  10.214 -0.6397 -0.1424 -0.7276
  884MOL0     C19216   1.386   8.162  10.261  0.3603 -0.9920 -0.4094
  884MOL0     C19217   1.328   8.122  10.397 -0.3802 -0.4599 -0.2891
  884MOL0     C19218   1.235   8.226  10.464 -0.7804 -0.4607 -0.3124
  884MOL0     C19219   1.162   8.174  10.587  0.0310  0.2325  0.3421
  884MOL0     C19220   1.088   8.285  10.654  0.4244 -0.0215 -0.3376
  884MOL0     C19221   0.961   8.338  10.572  0.1793 -1.1668 -0.4368
  884MOL0     N19222   0.851   8.257  10.549  0.0112 -0.1175 -0.2469
  884MOL0     C19223   0.819   8.166  10.449 -0.0373 -0.2087  0.0838
  884MOL0     C19224   0.689   8.121  10.461  0.1324 -0.0099 -1.6525
  884MOL0     C19225   0.625   8.020  10.373  0.3485  0.6229  0.1411
  884MOL0     C19226   0.600   7.894  10.446 -0.1771 -0.4405  0.0821
  884MOL0     C19227   0.565   7.764  10.361  0.2428 -0.6652  0.1235
  884MOL0     C19228   0.440   7.778  10.276  0.4172  0.3168  0.3189
  884MOL0     O19229   0.468   7.687  10.167 -0.0417  0.2424 -1.0984
  884MOL0     C19230   0.367   7.665  10.079  0.0339 -0.2833 -0.0883
  884MOL0     C19231   0.392   7.570   9.984 -0.1347  0.4495 -0.6458
  884MOL0     C19232   0.314   7.534   9.876  0.0427  0.5410  0.0690
  884MOL0     C19233   0.364   7.432   9.767 -0.7176  0.4382 -0.3991
  884MOL0     C19234   0.193   7.612   9.856 -0.1976  0.0040  0.8461
  884MOL0     C19235   0.102   7.612   9.734  0.6699 -0.4571  0.0352
  884MOL0     O19236   0.012   7.716   9.734  0.6085 -0.2705  0.1122
  884MOL0     C19237  -0.112   7.708   9.673  0.2951 -0.1331  0.3214
  884MOL0     C19238  -0.172   7.818   9.608  0.1510  0.1398  0.1985
  884MOL0     C19239  -0.303   7.810   9.549  0.2460 -0.5001  0.2024
  884MOL0     C19240  -0.385   7.697   9.559 -0.4724 -0.6631  0.0186
  884MOL0     O19241  -0.519   7.688   9.517  0.5706  0.4094  0.7802
  884MOL0     C19242  -0.581   7.813   9.470 -0.0205 -0.6311  0.4206
  884MOL0     C19243  -0.729   7.777   9.432 -0.1622 -0.3367 -0.5242
  884MOL0     C19244  -0.800   7.896   9.366 -0.3934  0.9808 -0.7570
  884MOL0     C19245  -0.933   7.859   9.302 -0.3475 -0.5655  0.3373
  884MOL0     C19246  -1.040   7.831   9.410 -0.4138  0.3700 -0.2544
  884MOL0     C19247  -1.176   7.800   9.354 -0.2530 -0.8764  0.1979
  884MOL0     C19248  -1.272   7.733   9.458 -0.2240 -0.4006  0.9577
  884MOL0     C19249  -1.413   7.727   9.413 -0.2189  0.0886  0.2711
  884MOL0    Cl19250  -1.483   7.895   9.408  0.2957  0.0360 -0.7245
  884MOL0     C19251  -0.332   7.592   9.633 -0.3906  0.8455  1.4510
  884MOL0     C19252  -0.199   7.602   9.689  0.4575  0.3982  0.2389
  884MOL0     O19253   0.127   7.539   9.643 -0.1576 -0.4553  0.4051
  884MOL0     C19254   0.169   7.706   9.955  0.2962 -0.0007 -0.2437
  884MOL0     C19255   0.259   7.738  10.062 -0.6108 -0.4843 -0.4064
  884MOL0     N19256   0.643   8.180  10.579 -0.2235 -0.0100  0.0685
  884MOL0     N19257   0.736   8.263  10.623  0.3207  0.1891  0.1189
  884MOL0     C19258   1.824   8.233  10.102 -0.6754 -0.4564 -0.3021
  884MOL0     C19259   1.961   8.277  10.114 -0.1656  0.1650 -0.4655
  884MOL0     C19260   2.435   8.282  10.050  0.5639  0.6410 -0.6921
  884MOL0     C19261   2.465   8.321  10.176 -0.1098  0.2057 -0.1194
  884MOL0     C19262   2.596   8.354  10.215  0.3771  0.1039 -0.1163
  884MOL0     C19263   2.698   8.360  10.121 -0.4357  0.2312  0.7581
  884MOL0     O19264   2.816   8.415  10.161 -0.3115 -0.3437 -1.1161
  884MOL0     C19265   2.933   8.347  10.114 -0.0260  0.1656 -0.1989
  884MOL0     C19266   3.010   8.432  10.010 -0.0814 -0.4999  0.4881
  884MOL0     C19267   3.119   8.522  10.055 -0.1202 -0.2293  0.1085
  884MOL0     C19268   3.177   8.620   9.944  0.1304  0.0178 -0.8965
  884MOL0     C19269   3.269   8.534   9.860  0.3995  0.2348 -0.3154
  884MOL0     C19270   3.346   8.465   9.799  0.5445 -0.1142  0.1696
  884MOL0     C19271   2.670   8.333   9.985  0.3394  0.3435  0.1321
  884MOL0     C19272   2.536   8.293   9.954 -0.7574 -0.1982  0.1945
  884MOL0     H19273   2.129   7.986  10.057  1.8134  1.0308  0.5493
  884MOL0     H19274   1.928   7.904  10.040  0.2501 -1.0049  0.5870
  884MOL0     H19275   1.571   8.231  10.061 -1.0646  0.6761  0.5034
  884MOL0     H19276   1.475   8.097  10.009  0.2515  2.7471  0.4359
  884MOL0     H19277   1.494   7.989  10.226 -2.4798  0.3789  1.8141
  884MOL0     H19278   1.590   8.123  10.288 -1.6184 -2.3038  1.2257
  884MOL0     H19279   1.409   8.269  10.268 -1.1947 -0.6609 -0.1069
  884MOL0     H19280   1.310   8.151  10.183  0.8003 -2.2609 -0.6834
  884MOL0     H19281   1.264   8.034  10.385  2.1215 -2.1398 -2.1591
  884MOL0     H19282   1.416   8.098  10.457  0.0305  0.1260 -0.6556
  884MOL0     H19283   1.290   8.319  10.480 -2.4231  0.8970 -2.0741
  884MOL0     H19284   1.158   8.253  10.391 -1.1576 -4.0477 -1.4500
  884MOL0     H19285   1.102   8.086  10.561  1.3398 -0.7914  0.6678
  884MOL0     H19286   1.241   8.130  10.649  1.3833 -1.1563 -2.1957
  884MOL0     H19287   1.061   8.250  10.754  0.1339 -2.9030 -1.3554
  884MOL0     H19288   1.158   8.365  10.680  1.7712 -1.7728  1.8212
  884MOL0     H19289   0.999   8.390  10.483 -1.4955 -0.8669 -1.0095
  884MOL0     H19290   0.915   8.421  10.626  0.8259 -1.2858  0.3020
  884MOL0     H19291   0.894   8.134  10.376  0.4097 -1.6324  1.1280
  884MOL0     H19292   0.541   8.067  10.321 -1.1490 -2.5962 -0.6464
  884MOL0     H19293   0.692   8.010  10.287  2.7137  2.1471  1.6963
  884MOL0     H19294   0.513   7.910  10.511 -1.5377  1.2005 -2.0182
  884MOL0     H19295   0.689   7.870  10.506  0.4844  0.7368 -0.3893
  884MOL0     H19296   0.537   7.689  10.436 -1.9921  0.7665  0.8332
  884MOL0     H19297   0.655   7.734  10.307  0.0019  0.5373 -1.0082
  884MOL0     H19298   0.423   7.879  10.237 -0.5649 -0.1058 -0.3956
  884MOL0     H19299   0.348   7.749  10.328  2.6685 -0.4501  4.2730
  884MOL0     H19300   0.490   7.523   9.994  0.8027  2.0215 -1.8006
  884MOL0     H19301   0.463   7.393   9.789 -0.9316 -0.9085 -1.6762
  884MOL0     H19302   0.294   7.348   9.776  0.2578 -0.1891  3.0537
  884MOL0     H19303   0.366   7.474   9.666 -1.8148  0.4558 -0.4314
  884MOL0     H19304  -0.112   7.907   9.591  1.4374 -0.6057  0.7383
  884MOL0     H19305  -0.339   7.885   9.480  3.0292  0.4548 -0.3656
  884MOL0     H19306  -0.568   7.884   9.553  2.3411 -1.2392  0.6491
  884MOL0     H19307  -0.531   7.855   9.382  1.0107 -1.2651  0.6856
  884MOL0     H19308  -0.735   7.687   9.370 -2.0111  0.1695 -1.1416
  884MOL0     H19309  -0.784   7.756   9.524 -1.7740 -1.0781 -1.6119
  884MOL0     H19310  -0.747   7.942   9.283  0.9903 -0.4349 -0.7119
  884MOL0     H19311  -0.830   7.960   9.449 -0.1321  0.9228 -0.6146
  884MOL0     H19312  -0.969   7.948   9.249 -1.1050  0.3945  2.3381
  884MOL0     H19313  -0.915   7.780   9.228  0.6871 -0.2175  0.1906
  884MOL0     H19314  -1.041   7.926   9.464  0.6384  0.3801 -0.2276
  884MOL0     H19315  -1.016   7.746   9.475 -4.5701  0.7397  2.0984
  884MOL0     H19316  -1.211   7.902   9.338  2.4227  0.0116 -0.6863
  884MOL0     H19317  -1.159   7.745   9.261 -0.2285 -2.0673  0.8961
  884MOL0     H19318  -1.262   7.786   9.553  0.3972 -3.2255  2.5790
  884MOL0     H19319  -1.237   7.629   9.462  0.3276 -0.3322 -1.0047
  884MOL0     H19320  -1.470   7.660   9.478 -0.3820 -0.3375 -0.2906
  884MOL0     H19321  -1.416   7.668   9.320 -1.8254 -0.5460  0.6828
  884MOL0     H19322  -0.400   7.508   9.641  0.8869 -0.5858 -1.2760
  884MOL0     H19323  -0.161   7.524   9.755 -0.9104  0.3333  0.9973
  884MOL0     H19324   0.070   7.747   9.970 -0.4939 -1.4721 -1.1072
  884MOL0     H19325   0.244   7.820  10.132  0.9156  0.3181 -0.9762
  884MOL0     H19326   1.754   8.316  10.093 -0.5714 -0.1793  1.1852
  884MOL0     H19327   1.995   8.380  10.118 -0.6043  0.3269 -0.7920
  884MOL0     H19328   2.377   8.327  10.241  1.0269  2.3797  1.3223
  884MOL0     H19329   2.628   8.377  10.316 -1.2640  3.6159 -0.2400
  884MOL0     H19330   3.004   8.323  10.194  2.7865  1.2046 -2.2270
  884MOL0     H19331   2.910   8.253  10.064  3.0408 -2.3104  2.5925
  884MOL0     H19332   2.928   8.476   9.953 -1.0657  0.5683  2.6071
  884MOL0     H19333   3.062   8.360   9.946  0.0410  0.1446 -0.1406
  884MOL0     H19334   3.201   8.460  10.092 -1.9826 -2.2033  1.1509
  884MOL0     H19335   3.087   8.594  10.131  2.4322  0.6962  0.4258
  884MOL0     H19336   3.236   8.702   9.986  0.5267 -0.4218 -0.5847
  884MOL0     H19337   3.103   8.670   9.880  2.6895  2.5386 -2.1202
  884MOL0     H19338   3.422   8.402   9.757 -0.8268 -2.2790  0.7968
  884MOL0     H19339   2.731   8.345   9.896 -0.1036 -0.4671 -0.2941
  884MOL0     H19340   2.529   8.270   9.848  1.4098  2.1527 -0.5484
  885MOL0     O19341   6.881  11.340  11.173  0.1752 -0.4954  0.3339
  885MOL0     C19342   6.895  11.442  11.239  0.0605  0.0180 -0.4845
  885MOL0     O19343   6.803  11.495  11.319 -0.0749 -0.9559  0.0065
  885MOL0     C19344   6.679  11.438  11.312  0.7008 -0.9527 -0.0584
  885MOL0     C19345   6.599  11.446  11.193  0.4915 -0.1553 -0.6385
  885MOL0     C19346   6.467  11.391  11.174 -0.1565 -1.0537 -0.6983
  885MOL0     C19347   6.403  11.362  11.296 -0.9768  1.2426 -0.6243
  885MOL0     O19348   6.271  11.322  11.306 -0.0433  0.1595 -0.2071
  885MOL0     C19349   6.174  11.350  11.199 -0.5977 -0.3955  0.3529
  885MOL0     C19350   6.030  11.348  11.255 -0.1984 -1.6177  1.0804
  885MOL0     C19351   5.914  11.396  11.164 -0.7772  0.3019  1.0476
  885MOL0     C19352   5.780  11.414  11.242  0.0346  0.1894  0.1494
  885MOL0     C19353   5.658  11.445  11.149 -0.5500  0.2158 -0.3942
  885MOL0     C19354   5.665  11.586  11.081 -0.0483  0.5503  0.1157
  885MOL0     C19355   5.534  11.618  11.007  0.4544 -0.3787  0.5746
  885MOL0     C19356   5.400  11.593  11.080  0.1901  0.6413 -0.7502
  885MOL0     N19357   5.286  11.608  10.987 -0.3905 -0.0202 -0.3211
  885MOL0     C19358   5.268  11.536  10.873  0.8154 -0.1603 -0.8476
  885MOL0     C19359   5.135  11.564  10.851 -0.8072 -0.0401 -0.1006
  885MOL0     C19360   5.047  11.496  10.760  0.2778 -0.2226 -0.2542
  885MOL0     C19361   5.004  11.558  10.626 -0.0069 -0.1335  0.0832
  885MOL0     C19362   4.912  11.680  10.631  0.6049  0.5773 -0.2978
  885MOL0     C19363   4.783  11.668  10.721  0.0823  0.0631 -0.2252
  885MOL0     O19364   4.719  11.547  10.702 -0.0303  0.2093 -0.5908
  885MOL0     C19365   4.589  11.533  10.754 -0.2430 -0.1554  0.1458
  885MOL0     C19366   4.519  11.424  10.706  0.1635  0.7680  0.0300
  885MOL0     C19367   4.394  11.386  10.759  0.3868 -0.1722 -0.2931
  885MOL0     C19368   4.318  11.289  10.675 -0.2342 -0.2305  0.0552
  885MOL0     C19369   4.342  11.464  10.867  0.7988  0.6113  0.3193
  885MOL0     C19370   4.208  11.441  10.926 -0.6447  0.0149 -0.4942
  885MOL0     O19371   4.162  11.307  10.914  0.4093 -0.0294 -1.2183
  885MOL0     C19372   4.041  11.263  10.961  0.6013 -0.1618 -0.3487
  885MOL0     C19373   3.987  11.175  10.866 -0.3628  1.2860  0.0307
  885MOL0     C19374   3.870  11.109  10.901  0.4942 -0.6688 -0.3497
  885MOL0     C19375   3.821  11.131  11.026  0.0294  0.9868 -0.0059
  885MOL0     O19376   3.706  11.056  11.051  0.4472 -0.0317 -0.0486
  885MOL0     C19377   3.618  11.104  11.157 -0.1253  0.6864 -0.8525
  885MOL0     C19378   3.541  11.239  11.130 -0.1805  0.6670  0.5081
  885MOL0     C19379   3.499  11.282  10.987  0.1712  0.7692 -0.3614
  885MOL0     C19380   3.515  11.433  10.979 -0.3207 -0.2566 -0.2211
  885MOL0     C19381   3.483  11.488  10.839  0.1303 -0.0227  0.3754
  885MOL0     C19382   3.329  11.505  10.834  0.0382  0.0295 -0.3228
  885MOL0     C19383   3.263  11.640  10.887 -0.3426 -0.6769 -0.0147
  885MOL0     C19384   3.109  11.625  10.899 -0.4871  0.0834 -0.3503
  885MOL0    Cl19385   3.040  11.560  10.742  0.4017  0.5943  0.3617
  885MOL0     C19386   3.878  11.221  11.126 -0.5408 -0.0569 -0.6849
  885MOL0     C19387   3.997  11.285  11.095 -0.5802 -0.9990 -0.8221
  885MOL0     O19388   4.145  11.535  10.973 -0.6371 -0.4364 -0.1090
  885MOL0     C19389   4.422  11.562  10.921 -0.2532  0.0261 -0.1267
  885MOL0     C19390   4.543  11.606  10.862  0.1471 -0.5257 -0.2914
  885MOL0     N19391   5.089  11.658  10.936 -0.2015  0.0296  0.6625
  885MOL0     N19392   5.182  11.680  11.026  0.3734 -0.1073 -0.4861
  885MOL0     C19393   6.475  11.360  11.417  0.3050  0.4402 -0.2622
  885MOL0     C19394   6.612  11.392  11.424 -0.4752 -0.2763 -0.4262
  885MOL0     C19395   7.028  11.511  11.229  0.0402 -0.7104  1.1808
  885MOL0     C19396   7.066  11.612  11.316  0.0753  0.5945 -0.1488
  885MOL0     C19397   7.192  11.673  11.325 -0.4242 -0.3893 -0.1886
  885MOL0     C19398   7.288  11.634  11.234  0.7958 -1.0565  0.2730
  885MOL0     O19399   7.409  11.690  11.262 -0.2322 -0.1313 -0.0859
  885MOL0     C19400   7.516  11.673  11.173 -0.2347 -0.4576 -0.2225
  885MOL0     C19401   7.652  11.722  11.240  0.0997  0.5348 -1.0925
  885MOL0     C19402   7.717  11.624  11.339 -0.1981 -0.0865  0.6084
  885MOL0     C19403   7.835  11.550  11.289 -0.1841  1.6854 -0.8260
  885MOL0     C19404   7.799  11.482  11.162  0.6414 -0.0565  0.5940
  885MOL0     C19405   7.761  11.445  11.051  0.4342 -0.0481  1.2166
  885MOL0     C19406   7.249  11.560  11.123 -0.4700 -0.2587 -0.0094
  885MOL0     C19407   7.125  11.488  11.127  0.7098  0.1311  0.1338
  885MOL0     H19408   6.659  11.491  11.114  0.7477  1.0775  0.2285
  885MOL0     H19409   6.423  11.377  11.076  0.7345  1.2510 -1.5004
  885MOL0     H19410   6.203  11.448  11.159  1.3180  0.0311  2.5606
  885MOL0     H19411   6.172  11.288  11.109  0.5411  1.1789 -0.8329
  885MOL0     H19412   6.015  11.246  11.293 -2.6368 -1.1630  1.4970
  885MOL0     H19413   6.030  11.414  11.343 -1.4885  0.9016 -0.6719
  885MOL0     H19414   5.942  11.489  11.113 -0.9314  0.2043  0.7814
  885MOL0     H19415   5.908  11.326  11.080 -0.2317  3.4694 -1.8672
  885MOL0     H19416   5.755  11.333  11.311  0.1958 -0.1714 -0.2105
  885MOL0     H19417   5.807  11.497  11.307  0.7096  0.4655 -0.4745
  885MOL0     H19418   5.643  11.368  11.073 -1.1494  0.6416 -0.7195
  885MOL0     H19419   5.576  11.428  11.219  0.0446 -2.5277 -0.2718
  885MOL0     H19420   5.673  11.660  11.161  2.9745 -1.3589  1.7552
  885MOL0     H19421   5.756  11.595  11.021  1.1523  3.2525  2.1470
  885MOL0     H19422   5.544  11.723  10.980 -1.2555 -0.5907 -1.0985
  885MOL0     H19423   5.528  11.569  10.909  1.1519  1.8247 -0.6224
  885MOL0     H19424   5.383  11.665  11.161  1.9028  0.2774 -0.0348
  885MOL0     H19425   5.404  11.488  11.109  2.7022  0.1148 -2.6533
  885MOL0     H19426   5.323  11.444  10.855 -0.3232 -1.7674  2.8998
  885MOL0     H19427   5.093  11.400  10.735  1.8879  0.4147  0.1399
  885MOL0     H19428   4.953  11.478  10.813 -0.4831  3.1457 -0.2426
  885MOL0     H19429   4.962  11.483  10.558 -2.3211  2.8888 -2.1338
  885MOL0     H19430   5.099  11.586  10.581 -0.6712  0.4610 -1.0064
  885MOL0     H19431   4.886  11.690  10.526  1.1919 -0.0419 -0.5129
  885MOL0     H19432   4.969  11.769  10.661  1.6924 -0.1006 -0.2745
  885MOL0     H19433   4.719  11.754  10.696 -0.5781 -0.8398 -1.8382
  885MOL0     H19434   4.827  11.683  10.820  1.1073  1.3060 -0.8262
  885MOL0     H19435   4.565  11.365  10.627  2.2013  2.7793 -0.3764
  885MOL0     H19436   4.308  11.195  10.730  1.1992 -1.3583 -1.5080
  885MOL0     H19437   4.225  11.330  10.634  1.2376  0.2280 -3.0788
  885MOL0     H19438   4.375  11.252  10.589  2.5152  1.2395  1.1106
  885MOL0     H19439   4.028  11.161  10.766 -1.9818  0.8093 -0.5924
  885MOL0     H19440   3.821  11.038  10.836  1.1639  1.1805 -3.0132
  885MOL0     H19441   3.547  11.020  11.150  1.1747 -0.2954 -4.4694
  885MOL0     H19442   3.656  11.110  11.259 -2.5015  4.2069 -0.0222
  885MOL0     H19443   3.449  11.232  11.188 -1.5401  3.0657 -1.1733
  885MOL0     H19444   3.595  11.323  11.175 -0.9860 -0.1976  3.3099
  885MOL0     H19445   3.391  11.265  10.981  0.3795 -0.4661 -0.8821
  885MOL0     H19446   3.544  11.229  10.902 -3.2182  2.6450 -3.6301
  885MOL0     H19447   3.453  11.484  11.053 -0.5861 -0.9454  0.0427
  885MOL0     H19448   3.620  11.459  10.994  0.0146 -1.8590  0.5305
  885MOL0     H19449   3.512  11.415  10.762 -0.8561 -0.6298  0.5455
  885MOL0     H19450   3.546  11.575  10.818  0.4001 -0.1229  0.7683
  885MOL0     H19451   3.305  11.506  10.727 -1.4442  1.9820 -0.0159
  885MOL0     H19452   3.275  11.421  10.880 -0.8519  1.1975  0.8329
  885MOL0     H19453   3.287  11.713  10.809  0.7602 -1.2431 -0.2288
  885MOL0     H19454   3.319  11.671  10.976  0.8948 -0.2276 -0.9276
  885MOL0     H19455   3.058  11.719  10.922 -0.2672  0.4726 -1.4122
  885MOL0     H19456   3.081  11.560  10.982 -1.4743  3.3576  2.0676
  885MOL0     H19457   3.843  11.238  11.228  1.7738 -2.1356  0.5748
  885MOL0     H19458   4.040  11.351  11.170 -0.8867 -3.1015  1.2893
  885MOL0     H19459   4.391  11.622  11.007 -1.7438 -0.3613 -0.3753
  885MOL0     H19460   4.604  11.688  10.902 -2.2256  1.5565 -0.6843
  885MOL0     H19461   6.429  11.336  11.512  1.8539 -0.9297  0.1858
  885MOL0     H19462   6.667  11.388  11.517 -0.0742  0.2185 -0.6326
  885MOL0     H19463   6.989  11.629  11.390  2.6153 -3.6925  4.0072
  885MOL0     H19464   7.211  11.749  11.400  0.3150  1.8842 -2.5210
  885MOL0     H19465   7.528  11.572  11.134 -0.3041  0.7605 -3.8297
  885MOL0     H19466   7.499  11.738  11.086  1.1896  1.0177  0.5324
  885MOL0     H19467   7.625  11.816  11.291 -0.0787  0.0589 -0.2837
  885MOL0     H19468   7.723  11.754  11.164 -1.5664  0.6469 -2.6838
  885MOL0     H19469   7.643  11.551  11.372 -1.2953 -0.0060 -1.5178
  885MOL0     H19470   7.749  11.676  11.430 -0.2948  0.1176  0.5249
  885MOL0     H19471   7.861  11.477  11.367 -0.9901  1.0344 -1.1469
  885MOL0     H19472   7.916  11.622  11.275  0.4450  0.9207 -1.1945
  885MOL0     H19473   7.728  11.397  10.961  0.6078  1.3023  0.4107
  885MOL0     H19474   7.323  11.554  11.045 -0.8170  1.7503 -0.5559
  885MOL0     H19475   7.100  11.412  11.055 -0.1940  2.6864 -2.4282
  886MOL0     O19476   6.878   5.804   8.363 -0.1465  0.3071 -0.6629
  886MOL0     C19477   6.881   5.851   8.474  0.2690  0.3876 -0.0620
  886MOL0     O19478   6.773   5.863   8.559 -0.0829  0.3627 -0.2847
  886MOL0     C19479   6.648   5.870   8.514  0.8338 -0.0246 -0.5733
  886MOL0     C19480   6.601   5.903   8.383 -0.0989 -0.1060  0.2098
  886MOL0     C19481   6.467   5.927   8.355  0.3781 -0.6144  0.5409
  886MOL0     C19482   6.370   5.908   8.461  0.3516 -0.2138  0.0988
  886MOL0     O19483   6.242   5.929   8.419  0.3178 -0.0755 -0.1874
  886MOL0     C19484   6.144   5.949   8.522 -0.0592 -0.9938 -0.3067
  886MOL0     C19485   6.035   6.020   8.449 -0.1191  0.4791 -0.7135
  886MOL0     C19486   5.898   6.045   8.535  0.0606  1.0385 -0.1835
  886MOL0     C19487   5.811   6.157   8.471 -0.1838 -0.4046 -0.3968
  886MOL0     C19488   5.753   6.113   8.334  0.1294 -0.4949 -0.0658
  886MOL0     C19489   5.631   6.198   8.310  0.0315 -0.0682  0.2496
  886MOL0     C19490   5.557   6.160   8.181 -0.0372 -0.3672  0.3574
  886MOL0     C19491   5.446   6.267   8.145  0.1397  0.0164  0.4340
  886MOL0     N19492   5.487   6.409   8.135 -0.5219  0.4181 -0.2952
  886MOL0     C19493   5.467   6.510   8.222 -0.5657 -0.2248 -0.6761
  886MOL0     C19494   5.521   6.625   8.166 -0.0585  0.0817  0.4703
  886MOL0     C19495   5.515   6.757   8.228  0.2668 -0.7642 -0.7228
  886MOL0     C19496   5.369   6.790   8.274  0.2014 -0.7512  0.0244
  886MOL0     C19497   5.266   6.823   8.155 -0.3111 -0.7568  0.0922
  886MOL0     C19498   5.310   6.935   8.067  0.1010  0.4273  0.0872
  886MOL0     O19499   5.339   7.050   8.154 -0.1774  0.1221 -0.1997
  886MOL0     C19500   5.237   7.139   8.175 -0.8583  0.7142 -1.0066
  886MOL0     C19501   5.175   7.211   8.071 -0.5138 -0.3536 -0.0834
  886MOL0     C19502   5.079   7.303   8.092  0.0684  0.5467 -0.5265
  886MOL0     C19503   5.006   7.369   7.974  0.8485 -0.8407  0.6656
  886MOL0     C19504   5.044   7.327   8.226 -0.6048  0.5497  0.3401
  886MOL0     C19505   4.923   7.414   8.264  0.2368 -0.4906 -0.8727
  886MOL0     O19506   4.898   7.431   8.404  0.0427 -0.1604 -0.1831
  886MOL0     C19507   4.796   7.516   8.451 -0.4512  1.0760  0.0110
  886MOL0     C19508   4.666   7.496   8.417  0.6446 -0.9702 -0.3951
  886MOL0     C19509   4.561   7.595   8.443 -0.5043  0.0523  0.4146
  886MOL0     C19510   4.589   7.701   8.537 -0.7273  0.9380 -0.1334
  886MOL0     O19511   4.499   7.800   8.570 -1.3296 -0.5572  0.1705
  886MOL0     C19512   4.360   7.761   8.557 -0.3736 -0.1182  0.7697
  886MOL0     C19513   4.311   7.835   8.441 -0.3887 -0.4809  0.9139
  886MOL0     C19514   4.162   7.863   8.436  0.5699 -0.6227 -0.0014
  886MOL0     C19515   4.092   7.736   8.394  0.6115  0.3184 -0.1636
  886MOL0     C19516   3.938   7.743   8.366  0.4540  0.0736 -0.6513
  886MOL0     C19517   3.883   7.602   8.357  0.5333  0.2281  0.0437
  886MOL0     C19518   3.932   7.490   8.460  0.6787 -0.5739 -0.2602
  886MOL0     C19519   3.927   7.522   8.610 -0.6120 -0.3191 -0.0814
  886MOL0    Cl19520   4.034   7.411   8.692 -0.2605  0.0848  0.1599
  886MOL0     C19521   4.724   7.715   8.568 -0.1479  0.2015  0.0627
  886MOL0     C19522   4.824   7.629   8.522  0.5236 -0.0534 -0.0154
  886MOL0     O19523   4.873   7.490   8.184  0.2882  0.7517  0.5158
  886MOL0     C19524   5.115   7.258   8.329 -0.7199  0.0790  0.8243
  886MOL0     C19525   5.210   7.161   8.303  0.1550  0.3362 -0.4308
  886MOL0     N19526   5.574   6.585   8.038 -0.2880  0.8062 -0.7573
  886MOL0     N19527   5.540   6.459   8.026  0.3368 -0.3665 -0.3057
  886MOL0     C19528   6.411   5.862   8.582  0.9342  0.1796 -0.2414
  886MOL0     C19529   6.544   5.843   8.613  0.4299 -0.6996  0.4244
  886MOL0     C19530   7.000   5.932   8.515  1.3259  1.1185 -0.3645
  886MOL0     C19531   7.116   5.925   8.442 -0.9589 -0.1966  0.0231
  886MOL0     C19532   7.242   5.982   8.492  0.3776 -0.0901  1.0150
  886MOL0     C19533   7.242   6.052   8.615  0.9491 -0.1629  0.5553
  886MOL0     O19534   7.353   6.114   8.655 -0.2876 -1.1927 -0.3345
  886MOL0     C19535   7.362   6.247   8.618  0.0083 -0.2249  0.0153
  886MOL0     C19536   7.515   6.285   8.642 -0.3579 -0.4114  0.1210
  886MOL0     C19537   7.607   6.202   8.557 -0.5318  0.0184  0.6091
  886MOL0     C19538   7.747   6.268   8.554  0.5553 -0.2218  0.2586
  886MOL0     C19539   7.838   6.179   8.481 -0.0412 -0.5008  0.4355
  886MOL0     C19540   7.936   6.112   8.440 -0.1261 -0.2235 -0.3489
  886MOL0     C19541   7.108   6.069   8.681 -0.6718 -0.1250  0.1205
  886MOL0     C19542   6.999   5.997   8.639 -0.2835  0.2245 -0.1071
  886MOL0     H19543   6.671   5.917   8.301 -0.1171  4.4164  0.7434
  886MOL0     H19544   6.429   5.947   8.255 -3.5212 -2.2494  1.5029
  886MOL0     H19545   6.103   5.855   8.561 -3.0875  0.7689  1.0764
  886MOL0     H19546   6.192   6.008   8.600  0.1289 -0.0005 -1.1558
  886MOL0     H19547   6.074   6.120   8.425 -1.9116  1.5972  0.7022
  886MOL0     H19548   6.017   5.979   8.349  0.4686  1.6370 -1.3165
  886MOL0     H19549   5.841   5.952   8.527  0.8113  0.6073 -0.6860
  886MOL0     H19550   5.926   6.077   8.636 -1.5235  0.9263  0.3090
  886MOL0     H19551   5.720   6.183   8.527 -0.8100  1.3862 -2.1058
  886MOL0     H19552   5.872   6.246   8.456 -0.9177  0.7301  2.5367
  886MOL0     H19553   5.826   6.119   8.253 -1.8165  0.7270 -1.8275
  886MOL0     H19554   5.714   6.011   8.327 -0.8337 -0.0220 -4.4063
  886MOL0     H19555   5.572   6.202   8.402  2.0815  1.7667  1.5858
  886MOL0     H19556   5.662   6.303   8.300  2.2877 -0.6784  0.4226
  886MOL0     H19557   5.617   6.155   8.089 -0.8621 -0.2578 -0.2016
  886MOL0     H19558   5.504   6.065   8.197 -0.8410 -0.4574 -2.2702
  886MOL0     H19559   5.362   6.263   8.215  0.1124  0.8705  0.4640
  886MOL0     H19560   5.404   6.240   8.048 -0.9588  4.3187 -0.4944
  886MOL0     H19561   5.426   6.503   8.323  0.6206  2.1732  0.0540
  886MOL0     H19562   5.580   6.753   8.316  3.2308 -1.4139 -2.8019
  886MOL0     H19563   5.560   6.838   8.170  2.1263 -1.1351  0.1264
  886MOL0     H19564   5.378   6.875   8.342  2.3380 -1.4920  0.7475
  886MOL0     H19565   5.318   6.710   8.328 -1.7729  0.8853  0.7139
  886MOL0     H19566   5.169   6.847   8.200 -0.6983 -2.4518  0.2252
  886MOL0     H19567   5.245   6.730   8.101  0.2314 -1.3995  0.9602
  886MOL0     H19568   5.221   6.956   8.006  0.2829 -1.4161 -0.8950
  886MOL0     H19569   5.398   6.903   8.010 -0.8065 -1.0725 -0.5290
  886MOL0     H19570   5.209   7.181   7.973 -0.9262 -1.4176  0.0825
  886MOL0     H19571   4.999   7.477   7.959 -0.8195 -1.0161  0.0431
  886MOL0     H19572   5.036   7.330   7.876  0.0057  0.5091 -0.1504
  886MOL0     H19573   4.900   7.346   7.985  0.3986  0.6275 -0.3300
  886MOL0     H19574   4.652   7.404   8.362 -0.6210 -0.2862 -1.2635
  886MOL0     H19575   4.463   7.588   8.398 -1.6446 -0.7308  2.8646
  886MOL0     H19576   4.351   7.653   8.545 -0.8773 -0.0282  0.2968
  886MOL0     H19577   4.309   7.792   8.649 -3.0665 -2.5933  0.2542
  886MOL0     H19578   4.358   7.934   8.438  0.4792 -0.9032 -0.2253
  886MOL0     H19579   4.345   7.787   8.349 -2.4589 -0.6767  0.2015
  886MOL0     H19580   4.147   7.938   8.359  0.6701  1.9011  2.2944
  886MOL0     H19581   4.117   7.912   8.523  0.5674 -0.4462 -0.1021
  886MOL0     H19582   4.149   7.701   8.308 -0.7621 -0.5076 -0.7728
  886MOL0     H19583   4.118   7.676   8.482  1.3708  0.7844 -0.0638
  886MOL0     H19584   3.912   7.799   8.276  0.6682 -2.0068 -2.0964
  886MOL0     H19585   3.900   7.799   8.452 -0.6453 -0.1977 -0.9438
  886MOL0     H19586   3.774   7.609   8.353  0.4951  0.2536  0.9344
  886MOL0     H19587   3.918   7.565   8.260  0.0660 -2.4936  0.8166
  886MOL0     H19588   4.035   7.468   8.431  0.5908 -0.0495 -0.9841
  886MOL0     H19589   3.863   7.406   8.449 -0.6577  0.2608  1.3801
  886MOL0     H19590   3.824   7.522   8.646 -1.2047  2.3072 -1.5050
  886MOL0     H19591   3.969   7.622   8.624  0.8145 -1.1807  2.6276
  886MOL0     H19592   4.747   7.807   8.621 -0.4862  0.8048 -0.8264
  886MOL0     H19593   4.924   7.656   8.554  0.5553  0.9743 -0.9566
  886MOL0     H19594   5.099   7.276   8.434 -1.2016 -0.0093  0.7678
  886MOL0     H19595   5.258   7.101   8.380 -0.8788  0.3960  0.2846
  886MOL0     H19596   6.343   5.837   8.663 -0.4878 -1.9061 -1.9589
  886MOL0     H19597   6.578   5.807   8.710  1.4169  0.9788  0.7395
  886MOL0     H19598   7.114   5.879   8.344 -2.1180 -1.2364  0.5039
  886MOL0     H19599   7.336   5.970   8.440  1.5185  0.7624  2.7924
  886MOL0     H19600   7.331   6.262   8.514 -2.1351  0.4426  0.7003
  886MOL0     H19601   7.300   6.310   8.683 -1.1332 -3.6791  2.5930
  886MOL0     H19602   7.547   6.269   8.745  0.2267  1.5498  0.2696
  886MOL0     H19603   7.533   6.390   8.619  2.8364 -0.7620  0.5661
  886MOL0     H19604   7.560   6.195   8.458 -1.7055  0.3941  1.1284
  886MOL0     H19605   7.617   6.098   8.588 -1.4401 -1.3225 -3.0417
  886MOL0     H19606   7.783   6.291   8.655  0.5525  2.3085 -0.2510
  886MOL0     H19607   7.742   6.365   8.505  0.5792 -0.6163 -0.5335
  886MOL0     H19608   8.017   6.044   8.422 -0.3057 -0.2629 -1.0613
  886MOL0     H19609   7.096   6.122   8.775  1.5557 -2.0340  1.6017
  886MOL0     H19610   6.913   6.013   8.702 -0.1326  0.3171  0.0771
  887MOL0     O19611   9.348   4.708   5.064 -0.3730 -0.3020  0.4603
  887MOL0     C19612   9.375   4.793   4.982  0.6019  0.1423 -1.2509
  887MOL0     O19613   9.293   4.899   4.949 -0.5071  0.0677 -0.6097
  887MOL0     C19614   9.181   4.902   5.030 -0.2339  0.2996 -0.2186
  887MOL0     C19615   9.192   4.974   5.152  0.2272  0.8263 -0.0509
  887MOL0     C19616   9.076   5.001   5.229 -0.5172 -0.7969 -0.4466
  887MOL0     C19617   8.953   4.961   5.194  0.1134  0.5169 -0.1886
  887MOL0     O19618   8.855   5.007   5.278 -0.6488  0.6927 -0.3664
  887MOL0     C19619   8.724   4.954   5.248  0.0605  0.0112 -0.6378
  887MOL0     C19620   8.624   5.016   5.339 -0.5053  0.3695  0.4505
  887MOL0     C19621   8.612   4.949   5.475  0.0931 -0.2975  0.5289
  887MOL0     C19622   8.745   4.945   5.550  0.0165 -1.0185 -0.4059
  887MOL0     C19623   8.726   4.920   5.700 -0.2543 -0.5469  0.0803
  887MOL0     C19624   8.853   4.915   5.785 -0.2576  0.3731 -0.9200
  887MOL0     C19625   8.813   4.921   5.937 -0.2643  0.4739 -0.0660
  887MOL0     C19626   8.912   5.013   6.029 -0.6765 -0.1940  0.6475
  887MOL0     N19627   8.902   5.163   5.990  0.9408 -0.0122 -0.2972
  887MOL0     C19628   8.829   5.263   6.046  1.2978 -0.6450 -0.3263
  887MOL0     C19629   8.870   5.379   5.997 -0.5007 -0.2507  0.2503
  887MOL0     C19630   8.828   5.523   6.026  0.0674  0.0287  0.0744
  887MOL0     C19631   8.686   5.543   5.978  0.4361 -0.4601 -0.9699
  887MOL0     C19632   8.625   5.680   6.020  0.0031 -0.8819  0.3954
  887MOL0     C19633   8.481   5.695   5.998  0.0251  1.1275 -0.8151
  887MOL0     O19634   8.399   5.620   6.084 -0.2235 -0.0022 -0.2867
  887MOL0     C19635   8.274   5.665   6.109  0.2135  0.0376  0.6220
  887MOL0     C19636   8.224   5.645   6.237 -0.9664  0.7880  0.2413
  887MOL0     C19637   8.097   5.689   6.274  0.4853  0.0983  0.2820
  887MOL0     C19638   8.051   5.636   6.408 -1.1961 -0.0726  0.3084
  887MOL0     C19639   8.021   5.767   6.191  0.0134 -0.6277 -0.0067
  887MOL0     C19640   7.892   5.830   6.221 -0.4760 -0.0329 -0.0908
  887MOL0     O19641   7.850   5.936   6.134  0.2690 -0.2083 -0.0560
  887MOL0     C19642   7.754   6.022   6.172  0.2233  0.7325  0.8469
  887MOL0     C19643   7.751   6.077   6.298 -0.6838 -0.8792  0.5484
  887MOL0     C19644   7.643   6.162   6.336 -0.4512  0.1684 -1.1933
  887MOL0     C19645   7.542   6.188   6.247  0.3735 -1.1036  0.0719
  887MOL0     O19646   7.443   6.287   6.259 -0.0042  0.0854  0.2407
  887MOL0     C19647   7.408   6.344   6.388 -0.9956  0.1716  0.8077
  887MOL0     C19648   7.313   6.242   6.464  0.0515 -0.4935 -0.3023
  887MOL0     C19649   7.219   6.309   6.571 -0.6766 -0.7499  0.3192
  887MOL0     C19650   7.115   6.400   6.497 -0.5093 -1.0320  0.1352
  887MOL0     C19651   6.985   6.382   6.578  0.1052 -0.3144 -0.9940
  887MOL0     C19652   6.877   6.473   6.508  0.8932 -0.2264  0.0281
  887MOL0     C19653   6.734   6.439   6.564 -0.3905  0.0921  0.5523
  887MOL0     C19654   6.725   6.454   6.718  0.0181 -0.8346  0.9201
  887MOL0    Cl19655   6.721   6.634   6.768  0.4116  0.4220 -0.3021
  887MOL0     C19656   7.550   6.134   6.117 -0.5393 -0.1307 -0.0273
  887MOL0     C19657   7.656   6.049   6.079  0.1663 -0.0773 -0.2007
  887MOL0     O19658   7.831   5.799   6.318  0.2821 -0.8994 -0.5216
  887MOL0     C19659   8.079   5.805   6.070 -0.4362 -0.1033  0.1971
  887MOL0     C19660   8.200   5.745   6.024  0.6187  0.4853 -0.2301
  887MOL0     N19661   8.979   5.347   5.917 -0.6378 -0.5384  0.5476
  887MOL0     N19662   8.994   5.216   5.910  0.1153 -0.0958 -0.8638
  887MOL0     C19663   8.942   4.892   5.065  0.0832 -0.1162 -0.4549
  887MOL0     C19664   9.054   4.858   4.986  0.3621  0.4367 -0.4759
  887MOL0     C19665   9.501   4.772   4.924  0.1068 -0.4684 -0.3234
  887MOL0     C19666   9.561   4.878   4.860  1.3932  0.8487  0.4845
  887MOL0     C19667   9.686   4.875   4.805  0.0295  0.6280 -0.4710
  887MOL0     C19668   9.764   4.757   4.821 -0.4674 -0.3594  0.2078
  887MOL0     O19669   9.899   4.740   4.785  0.6301  0.6737  0.4786
  887MOL0     C19670   9.980   4.857   4.789 -0.3873  0.1664  0.1633
  887MOL0     C19671  10.106   4.804   4.859 -0.7808 -1.0454  1.4511
  887MOL0     C19672  10.074   4.771   5.012 -1.4145  0.1361 -0.1794
  887MOL0     C19673  10.207   4.733   5.081 -0.5983 -0.7461 -0.1673
  887MOL0     C19674  10.297   4.852   5.103 -0.3488  0.1706  0.3297
  887MOL0     C19675  10.368   4.947   5.097 -0.5443 -0.2374  0.6609
  887MOL0     C19676   9.703   4.649   4.878  0.0681 -0.1315  0.2584
  887MOL0     C19677   9.576   4.652   4.928 -0.2158 -1.8831 -0.3060
  887MOL0     H19678   9.284   5.020   5.184  0.9513 -0.6717  0.1256
  887MOL0     H19679   9.096   5.050   5.324  0.6685 -2.9454  0.4861
  887MOL0     H19680   8.697   4.983   5.147 -0.3608 -1.5343 -0.9930
  887MOL0     H19681   8.736   4.846   5.257 -2.5886 -0.2473  0.8912
  887MOL0     H19682   8.646   5.122   5.352 -1.1594  0.5868 -0.1236
  887MOL0     H19683   8.525   5.017   5.293 -0.1693  2.7405 -0.3847
  887MOL0     H19684   8.540   5.014   5.526 -0.6103  0.7247 -1.6407
  887MOL0     H19685   8.560   4.855   5.456 -2.4631  1.4160 -1.6849
  887MOL0     H19686   8.814   4.869   5.514 -0.9685 -1.7613 -0.7838
  887MOL0     H19687   8.797   5.041   5.541 -0.4507 -0.3027  2.9395
  887MOL0     H19688   8.657   4.996   5.735  1.9427  1.4560  0.3292
  887MOL0     H19689   8.682   4.820   5.699 -0.4019 -0.5016  1.0509
  887MOL0     H19690   8.898   4.816   5.774 -0.8506 -0.1173  0.7559
  887MOL0     H19691   8.931   4.985   5.755  1.1679 -0.7282  0.0612
  887MOL0     H19692   8.712   4.962   5.953 -0.5684 -0.2436 -0.1223
  887MOL0     H19693   8.804   4.818   5.971 -0.5602 -1.7582 -5.9074
  887MOL0     H19694   9.012   4.969   6.033 -1.2511 -1.4735  3.2980
  887MOL0     H19695   8.870   4.997   6.129  0.9990 -0.7925  1.2918
  887MOL0     H19696   8.773   5.261   6.139 -1.5914  1.3322 -1.9056
  887MOL0     H19697   8.831   5.539   6.135 -2.5367  0.6057  0.1292
  887MOL0     H19698   8.898   5.593   5.979 -0.4963  0.6913  0.1944
  887MOL0     H19699   8.622   5.469   6.027 -0.8401  0.6480 -0.9131
  887MOL0     H19700   8.672   5.530   5.871  0.0508  0.6063 -1.0647
  887MOL0     H19701   8.682   5.756   5.966  1.9205 -1.8586  0.9577
  887MOL0     H19702   8.640   5.698   6.127 -3.5191  0.6987  0.7630
  887MOL0     H19703   8.457   5.659   5.898 -2.3664 -2.1570  0.7659
  887MOL0     H19704   8.455   5.801   6.006  1.4677  1.3873  1.7782
  887MOL0     H19705   8.291   5.595   6.306  0.0777 -0.8162 -1.8185
  887MOL0     H19706   7.958   5.578   6.405  0.5311 -3.0775  0.9079
  887MOL0     H19707   8.121   5.566   6.455 -1.4101 -0.5303 -0.0363
  887MOL0     H19708   8.041   5.715   6.483  0.6338  0.6775 -0.1821
  887MOL0     H19709   7.825   6.066   6.376  1.8019  3.4012 -0.8892
  887MOL0     H19710   7.648   6.192   6.440  0.7064 -2.1327 -0.5135
  887MOL0     H19711   7.496   6.367   6.450 -0.0928  1.8752 -1.0222
  887MOL0     H19712   7.352   6.438   6.389 -3.6355 -1.2894  2.4854
  887MOL0     H19713   7.258   6.185   6.389  0.8782  1.3245 -2.3780
  887MOL0     H19714   7.374   6.180   6.531  1.7207  3.1954  1.9071
  887MOL0     H19715   7.289   6.369   6.629 -2.5287  2.3997 -0.4714
  887MOL0     H19716   7.167   6.237   6.634 -0.8682 -1.3143 -0.4745
  887MOL0     H19717   7.144   6.505   6.493 -1.1039 -0.7419  2.0646
  887MOL0     H19718   7.091   6.353   6.401 -0.6439  0.0413 -0.3774
  887MOL0     H19719   6.999   6.401   6.685  0.4239  2.6100 -1.5013
  887MOL0     H19720   6.955   6.277   6.569 -2.1453  0.1384  0.3798
  887MOL0     H19721   6.895   6.577   6.536 -1.2358  0.3482 -0.5372
  887MOL0     H19722   6.880   6.460   6.400 -0.2704 -0.1919 -0.0178
  887MOL0     H19723   6.706   6.340   6.526  3.3597 -1.3536  1.1557
  887MOL0     H19724   6.671   6.515   6.517 -1.3455 -1.5117 -0.8861
  887MOL0     H19725   6.800   6.398   6.775  1.0541  1.1404  1.5634
  887MOL0     H19726   6.630   6.404   6.741 -0.4028  0.1644  1.4054
  887MOL0     H19727   7.478   6.169   6.044 -2.6786 -1.4752  1.3327
  887MOL0     H19728   7.656   6.018   5.975  0.8585 -0.0082 -0.2254
  887MOL0     H19729   8.031   5.876   6.004 -1.0380 -1.4865 -0.9105
  887MOL0     H19730   8.231   5.777   5.925  1.7595 -1.8751 -0.6881
  887MOL0     H19731   8.842   4.859   5.040 -1.3533  3.2767  0.3440
  887MOL0     H19732   9.050   4.803   4.892  0.4218  1.0403 -0.8313
  887MOL0     H19733   9.500   4.968   4.848  2.1460  1.2138 -0.7923
  887MOL0     H19734   9.728   4.963   4.758  0.0582  0.5092 -0.6688
  887MOL0     H19735  10.000   4.888   4.686 -0.9355 -0.1596 -0.0459
  887MOL0     H19736   9.932   4.933   4.851 -1.6354 -0.8373  0.4790
  887MOL0     H19737  10.190   4.875   4.852  1.6083 -3.7756  0.1360
  887MOL0     H19738  10.135   4.710   4.811 -1.5017  0.3235 -1.9255
  887MOL0     H19739  10.004   4.686   5.011 -2.0461  0.6293  0.7828
  887MOL0     H19740  10.041   4.857   5.070  3.2645  1.2000  1.3233
  887MOL0     H19741  10.265   4.671   5.013  0.6461  2.1197 -1.8996
  887MOL0     H19742  10.190   4.680   5.175  2.2455 -1.1152  0.2332
  887MOL0     H19743  10.438   5.026   5.115 -3.1861  1.3972  5.7144
  887MOL0     H19744   9.766   4.562   4.893 -3.5756 -2.6899  2.0575
  887MOL0     H19745   9.534   4.559   4.965  0.7975 -1.9275  0.7902
  888MOL0     O19746   6.975   7.897   5.247  0.5048  0.2627 -0.2008
  888MOL0     C19747   7.013   7.812   5.172  0.7738 -0.4630  0.3163
  888MOL0     O19748   6.929   7.732   5.100  0.1010  0.1600 -0.2257
  888MOL0     C19749   6.798   7.755   5.065  0.4717 -0.3337  0.1561
  888MOL0     C19750   6.713   7.647   5.063 -0.2953 -0.1452 -0.0947
  888MOL0     C19751   6.578   7.665   5.035 -0.9373  0.5785  0.0565
  888MOL0     C19752   6.521   7.797   5.027  0.8708  0.2990 -0.6429
  888MOL0     O19753   6.383   7.805   5.032 -0.3060  0.7961  0.9405
  888MOL0     C19754   6.319   7.922   4.978  0.4318 -0.1321 -0.0691
  888MOL0     C19755   6.163   7.914   4.979 -0.0781 -0.7142 -1.2119
  888MOL0     C19756   6.097   7.911   5.116  0.7804 -0.2939  0.3066
  888MOL0     C19757   6.073   8.041   5.177  0.8236  0.3360 -1.0456
  888MOL0     C19758   6.011   8.039   5.319 -0.4346 -0.1150  0.4410
  888MOL0     C19759   5.962   8.174   5.377  0.8214 -0.3723 -0.3144
  888MOL0     C19760   5.874   8.156   5.503 -0.6463 -0.0682  0.4297
  888MOL0     C19761   5.724   8.166   5.460  0.2960 -0.2332  0.2076
  888MOL0     N19762   5.691   8.312   5.457 -0.6375  0.0625  1.2590
  888MOL0     C19763   5.624   8.373   5.559 -0.6536 -0.2383  0.3242
  888MOL0     C19764   5.549   8.474   5.503  0.4418 -0.4569  0.3802
  888MOL0     C19765   5.461   8.570   5.575  0.0228  0.4490  0.3980
  888MOL0     C19766   5.316   8.526   5.543 -0.1178  0.0399 -0.1057
  888MOL0     C19767   5.221   8.625   5.600  0.5934  0.3283 -0.3619
  888MOL0     C19768   5.220   8.759   5.520 -0.4465 -0.3464 -0.4695
  888MOL0     O19769   5.145   8.759   5.394 -0.7200  0.0440 -0.0161
  888MOL0     C19770   5.016   8.801   5.387  0.6406 -0.8190  0.7877
  888MOL0     C19771   4.945   8.797   5.264  0.3486 -0.6341 -0.2852
  888MOL0     C19772   4.812   8.840   5.246  0.2685  0.3904  0.5540
  888MOL0     C19773   4.759   8.842   5.099 -0.6265 -0.4059  1.5040
  888MOL0     C19774   4.740   8.865   5.364 -0.2503  0.3916  0.1105
  888MOL0     C19775   4.599   8.927   5.369 -0.3663 -0.0427  0.1067
  888MOL0     O19776   4.540   8.931   5.502 -0.0727  0.4361 -0.0522
  888MOL0     C19777   4.406   8.960   5.496 -0.2438 -0.8951 -0.7244
  888MOL0     C19778   4.370   9.081   5.559  0.1442  0.4263  0.0284
  888MOL0     C19779   4.234   9.118   5.571  0.3455 -0.6918 -0.4554
  888MOL0     C19780   4.136   9.027   5.540  0.0597  0.5599  1.1085
  888MOL0     O19781   3.997   9.051   5.560 -0.3816 -0.2536 -0.0655
  888MOL0     C19782   3.949   9.151   5.471 -0.2718 -0.9644 -0.1516
  888MOL0     C19783   3.796   9.179   5.501 -0.1860  0.0949  0.1196
  888MOL0     C19784   3.797   9.267   5.632  0.1971 -0.0887  0.0388
  888MOL0     C19785   3.659   9.324   5.648  0.5163  0.1144 -0.0960
  888MOL0     C19786   3.635   9.364   5.794 -0.2514 -0.6237 -0.5884
  888MOL0     C19787   3.499   9.423   5.797  0.3224 -0.3366 -0.0712
  888MOL0     C19788   3.440   9.484   5.929 -0.1351  0.6103  0.1303
  888MOL0     C19789   3.285   9.449   5.938 -1.1065  0.2574  0.3029
  888MOL0    Cl19790   3.208   9.521   5.801  0.1472  0.1389  0.4447
  888MOL0     C19791   4.174   8.897   5.492  0.5339 -0.6773 -0.2779
  888MOL0     C19792   4.310   8.871   5.462  0.2236 -0.5193  0.5096
  888MOL0     O19793   4.543   8.964   5.265 -0.1685  0.7165 -0.3597
  888MOL0     C19794   4.805   8.854   5.490 -0.6114  0.0052  0.0542
  888MOL0     C19795   4.939   8.836   5.501 -0.2926  0.1714  0.5600
  888MOL0     N19796   5.574   8.479   5.367  0.6941  0.6589 -0.4264
  888MOL0     N19797   5.655   8.379   5.339 -0.1414 -0.6932  0.4724
  888MOL0     C19798   6.606   7.905   5.035  0.5831 -0.5886  0.7848
  888MOL0     C19799   6.742   7.883   5.045  0.0890  0.7815  0.1304
  888MOL0     C19800   7.158   7.770   5.167  0.1761 -0.5908 -0.1433
  888MOL0     C19801   7.192   7.637   5.137 -0.0024  0.0804 -0.3402
  888MOL0     C19802   7.319   7.595   5.139 -0.1627 -0.6155  0.3939
  888MOL0     C19803   7.413   7.694   5.183 -0.6047  0.1850  0.0525
  888MOL0     O19804   7.543   7.673   5.194  0.0013  0.0140 -0.5351
  888MOL0     C19805   7.587   7.542   5.149 -0.8089 -0.7610 -0.1936
  888MOL0     C19806   7.739   7.539   5.146  0.0603 -0.4634  0.7537
  888MOL0     C19807   7.795   7.599   5.027 -0.5194 -0.7290  0.3691
  888MOL0     C19808   7.949   7.619   5.053  0.7491 -0.1328  0.9309
  888MOL0     C19809   7.998   7.699   4.933  0.4801  0.1248 -0.2866
  888MOL0     C19810   8.032   7.765   4.844 -0.2994  0.4170  0.1411
  888MOL0     C19811   7.374   7.822   5.218  0.1543  1.0363 -0.3444
  888MOL0     C19812   7.248   7.870   5.213 -0.1956 -0.5525  0.2772
  888MOL0     H19813   6.762   7.551   5.072  2.1096  1.1245  1.6728
  888MOL0     H19814   6.512   7.579   5.032  2.7207 -2.5373  1.0715
  888MOL0     H19815   6.347   8.013   5.030 -1.0385 -0.5090  1.4500
  888MOL0     H19816   6.354   7.935   4.875  1.7415 -0.5437  0.3044
  888MOL0     H19817   6.120   8.004   4.932 -0.1845  0.7489  1.4878
  888MOL0     H19818   6.129   7.826   4.924 -2.2944  0.3148 -1.5923
  888MOL0     H19819   5.996   7.870   5.108  1.1391 -0.9267 -1.2617
  888MOL0     H19820   6.164   7.845   5.172 -1.3871 -3.1153 -0.2011
  888MOL0     H19821   6.165   8.100   5.177  0.1798  1.3578 -0.8601
  888MOL0     H19822   5.994   8.085   5.114 -1.5641  0.4448  1.7986
  888MOL0     H19823   5.928   7.968   5.325 -0.0447 -0.4472  2.8786
  888MOL0     H19824   6.092   8.006   5.384 -0.4350  0.8818  0.9606
  888MOL0     H19825   6.050   8.226   5.416  1.1941 -1.5990  0.5245
  888MOL0     H19826   5.911   8.233   5.300 -3.7119 -2.5890  0.6755
  888MOL0     H19827   5.889   8.061   5.555 -4.3399 -0.3714  1.2250
  888MOL0     H19828   5.888   8.248   5.561 -1.6750  2.2932 -2.7583
  888MOL0     H19829   5.652   8.124   5.531  0.4668 -1.0380 -0.0876
  888MOL0     H19830   5.714   8.108   5.367  3.0861 -0.6874  0.1025
  888MOL0     H19831   5.620   8.336   5.660 -2.6469 -0.1876  0.3026
  888MOL0     H19832   5.485   8.562   5.681 -2.2909 -6.0370  0.9077
  888MOL0     H19833   5.475   8.672   5.539 -2.0952 -0.0564 -2.2311
  888MOL0     H19834   5.306   8.425   5.584 -0.7572  0.7612  1.5614
  888MOL0     H19835   5.286   8.520   5.438 -4.5180  0.6406  0.9474
  888MOL0     H19836   5.248   8.646   5.704  0.8473 -0.7402 -0.1948
  888MOL0     H19837   5.116   8.596   5.590  1.0348 -0.7118 -2.5480
  888MOL0     H19838   5.325   8.777   5.494  0.2824  0.3661  2.6307
  888MOL0     H19839   5.196   8.844   5.583 -0.9293  0.0999 -1.2346
  888MOL0     H19840   4.989   8.761   5.172 -0.3310 -0.1410 -0.8186
  888MOL0     H19841   4.824   8.772   5.047 -1.0976 -0.7349  1.3542
  888MOL0     H19842   4.659   8.798   5.093 -0.8677  0.1064  1.7504
  888MOL0     H19843   4.758   8.947   5.067  2.2550 -0.5112  0.7622
  888MOL0     H19844   4.446   9.154   5.586 -0.4359  0.8323  0.5862
  888MOL0     H19845   4.183   9.200   5.621 -2.2546 -1.1485 -2.1284
  888MOL0     H19846   4.006   9.243   5.490 -1.4422 -0.5967  1.8027
  888MOL0     H19847   3.953   9.112   5.369 -2.3154 -3.5493  0.6519
  888MOL0     H19848   3.747   9.231   5.418  1.2226 -0.3079 -1.0154
  888MOL0     H19849   3.746   9.083   5.512 -0.1369  0.0518 -0.0270
  888MOL0     H19850   3.857   9.359   5.624 -0.7647  0.5604  0.1387
  888MOL0     H19851   3.838   9.197   5.706 -1.1226 -2.6911 -1.5670
  888MOL0     H19852   3.645   9.409   5.580 -0.2352  0.2057  0.1628
  888MOL0     H19853   3.585   9.249   5.621  1.1320 -1.5198  2.4132
  888MOL0     H19854   3.709   9.433   5.834  0.1409 -1.5331  0.3034
  888MOL0     H19855   3.630   9.277   5.861  3.1694  0.6684  1.5791
  888MOL0     H19856   3.487   9.492   5.713  1.9908 -0.7772 -0.7124
  888MOL0     H19857   3.432   9.340   5.771  0.3916 -0.3942 -0.0642
  888MOL0     H19858   3.457   9.592   5.930  2.3000  0.3390 -1.9560
  888MOL0     H19859   3.497   9.442   6.012 -0.5662  0.6632  0.4547
  888MOL0     H19860   3.249   9.485   6.035 -1.5554  1.2907 -0.2321
  888MOL0     H19861   3.271   9.341   5.932 -3.1508  0.5785 -2.1480
  888MOL0     H19862   4.097   8.824   5.471  0.6643 -0.7595 -0.4659
  888MOL0     H19863   4.340   8.774   5.422 -0.7587 -1.6854  2.4575
  888MOL0     H19864   4.754   8.876   5.583 -0.1641 -1.1161  0.5763
  888MOL0     H19865   4.978   8.828   5.602  2.1161 -1.3435 -0.4139
  888MOL0     H19866   6.570   8.007   5.023  1.1127 -0.3866  0.8554
  888MOL0     H19867   6.802   7.974   5.043  1.0436  0.1729 -1.7800
  888MOL0     H19868   7.116   7.567   5.102 -0.8993  1.9259 -2.2803
  888MOL0     H19869   7.356   7.499   5.104 -1.9685 -1.4012  0.5387
  888MOL0     H19870   7.558   7.464   5.221  1.5582 -2.3526 -0.8204
  888MOL0     H19871   7.554   7.513   5.049  1.9172  1.5385 -1.9092
  888MOL0     H19872   7.770   7.434   5.149 -1.2435 -0.8506  2.0526
  888MOL0     H19873   7.778   7.585   5.238 -0.0161 -4.0580  2.7876
  888MOL0     H19874   7.750   7.698   5.013 -1.3112 -1.3143 -1.7599
  888MOL0     H19875   7.782   7.542   4.935  0.7232  1.0188 -0.9660
  888MOL0     H19876   7.997   7.523   5.072  2.7062  0.8372  1.1451
  888MOL0     H19877   7.960   7.670   5.149  0.2739 -2.7117  2.4237
  888MOL0     H19878   8.068   7.823   4.761  1.1269 -0.9294 -0.2234
  888MOL0     H19879   7.455   7.892   5.239  0.2508  1.8269 -2.9949
  888MOL0     H19880   7.211   7.971   5.228 -1.6958 -0.9218 -0.6499
  889MOL0     O19881   7.893   8.900   0.283  0.0571  0.1603  0.7143
  889MOL0     C19882   7.891   8.820   0.385  0.1259 -0.2192  0.4906
  889MOL0     O19883   7.825   8.702   0.392  0.7920 -0.0334  0.2280
  889MOL0     C19884   7.742   8.663   0.288  0.4434 -0.2033 -0.1855
  889MOL0     C19885   7.639   8.573   0.329  1.0489 -0.3938 -0.4293
  889MOL0     C19886   7.541   8.515   0.240 -0.4049  0.0364 -0.1293
  889MOL0     C19887   7.545   8.555   0.111 -0.7021 -0.0144  0.6313
  889MOL0     O19888   7.453   8.509   0.012  0.0389  0.0088  0.5009
  889MOL0     C19889   7.379   8.391   0.043  0.4935  0.4350  0.7415
  889MOL0     C19890   7.296   8.353  -0.084 -0.3570  0.3612 -0.5563
  889MOL0     C19891   7.216   8.227  -0.051 -0.0895  0.6348 -0.4770
  889MOL0     C19892   7.116   8.193  -0.166 -0.6215  0.0929 -0.2811
  889MOL0     C19893   7.034   8.074  -0.128 -0.2535 -0.4556 -0.1192
  889MOL0     C19894   6.948   8.037  -0.252  0.6135  0.1302 -0.2351
  889MOL0     C19895   6.860   7.911  -0.231  0.3011  0.7033 -0.5756
  889MOL0     C19896   6.726   7.935  -0.160 -0.3439  0.0096 -1.3665
  889MOL0     N19897   6.644   7.819  -0.173  0.2848 -0.0024  0.8053
  889MOL0     C19898   6.566   7.790  -0.281 -0.8287 -0.5601  0.6641
  889MOL0     C19899   6.493   7.688  -0.240  0.3792  0.5349 -0.1329
  889MOL0     C19900   6.367   7.627  -0.304  0.0481  0.5624 -0.2485
  889MOL0     C19901   6.237   7.671  -0.235 -0.1548  0.3122  0.3046
  889MOL0     C19902   6.229   7.662  -0.075 -0.3157 -0.5998 -0.1906
  889MOL0     C19903   6.081   7.682  -0.036 -0.3701 -0.5278  0.2787
  889MOL0     O19904   6.021   7.550  -0.028  0.5921  0.3054 -0.2637
  889MOL0     C19905   5.888   7.522  -0.032 -0.0737 -1.0047  0.5096
  889MOL0     C19906   5.780   7.614  -0.029 -0.6648 -0.1203 -0.3778
  889MOL0     C19907   5.641   7.575  -0.025  0.4187 -0.6519 -0.5097
  889MOL0     C19908   5.545   7.694  -0.018 -0.2659 -0.4695 -0.2718
  889MOL0     C19909   5.614   7.436  -0.021 -0.0485 -0.8139  0.2573
  889MOL0     C19910   5.475   7.378  -0.015  0.2116  0.3510 -0.1939
  889MOL0     O19911   5.460   7.254  -0.071 -0.0513 -0.1658 -0.1780
  889MOL0     C19912   5.338   7.189  -0.055  0.4696 -0.1170 -1.1108
  889MOL0     C19913   5.271   7.143  -0.172 -1.1535  0.5403  0.7003
  889MOL0     C19914   5.155   7.065  -0.161  0.0179  0.0563  0.2201
  889MOL0     C19915   5.095   7.037  -0.031 -0.2376  0.4030  0.2328
  889MOL0     O19916   4.984   6.958  -0.012 -0.5106 -0.5582 -0.8874
  889MOL0     C19917   4.863   6.994  -0.076 -0.1786 -0.4092  0.0415
  889MOL0     C19918   4.760   6.896  -0.028  0.7205 -0.1169 -0.4266
  889MOL0     C19919   4.622   6.912  -0.108  0.0445  0.9682 -0.2108
  889MOL0     C19920   4.638   6.894  -0.260 -0.0278  0.1960 -0.0567
  889MOL0     C19921   4.504   6.892  -0.337  0.0400  0.2002 -0.2031
  889MOL0     C19922   4.425   6.764  -0.314  0.4117  0.1486  0.1277
  889MOL0     C19923   4.294   6.778  -0.392 -0.6103 -0.0404  0.0475
  889MOL0     C19924   4.240   6.642  -0.433 -0.2613 -0.4374  0.1081
  889MOL0    Cl19925   4.089   6.665  -0.534 -0.3126  0.3093  0.0357
  889MOL0     C19926   5.180   7.065   0.087  0.0885 -0.4415  1.0428
  889MOL0     C19927   5.297   7.141   0.076 -1.3325 -1.0134  0.7190
  889MOL0     O19928   5.390   7.435   0.052 -0.2961 -0.0523 -0.0146
  889MOL0     C19929   5.721   7.354  -0.052  1.0418  0.8785 -0.3813
  889MOL0     C19930   5.854   7.397  -0.050 -0.3361 -0.2347  0.5032
  889MOL0     N19931   6.531   7.647  -0.115 -0.0005 -0.3337  0.6408
  889MOL0     N19932   6.629   7.725  -0.072  0.2026 -0.1253 -0.4492
  889MOL0     C19933   7.638   8.650   0.070 -0.2396  0.3625  0.8389
  889MOL0     C19934   7.738   8.699   0.151 -0.1268  0.3587  1.1266
  889MOL0     C19935   7.981   8.851   0.502  0.0903  0.4087 -0.5845
  889MOL0     C19936   7.960   8.793   0.632 -0.4839  0.0877  0.8383
  889MOL0     C19937   8.057   8.813   0.727  0.6711  0.3149  0.1826
  889MOL0     C19938   8.158   8.903   0.708 -0.4012 -0.6236  0.7537
  889MOL0     O19939   8.252   8.919   0.814  0.4602  0.4369 -0.0357
  889MOL0     C19940   8.364   9.009   0.800  0.2945 -0.2470  0.2780
  889MOL0     C19941   8.484   8.948   0.733  0.3688  0.0019 -0.8050
  889MOL0     C19942   8.597   9.058   0.708  0.5486  0.7403 -0.3504
  889MOL0     C19943   8.639   9.082   0.566 -0.5496  0.4386  0.3389
  889MOL0     C19944   8.749   8.999   0.527 -0.6441  0.7028  0.9741
  889MOL0     C19945   8.839   8.926   0.481  0.2872 -0.4921 -0.0240
  889MOL0     C19946   8.172   8.972   0.590 -0.4265  0.0103  0.6006
  889MOL0     C19947   8.086   8.942   0.484 -0.4845 -0.2163  0.7669
  889MOL0     H19948   7.631   8.549   0.434 -1.3147 -2.1172 -0.9323
  889MOL0     H19949   7.463   8.451   0.279  1.8632 -3.5014 -0.8964
  889MOL0     H19950   7.440   8.301   0.050  0.7418  0.7274  3.1910
  889MOL0     H19951   7.304   8.400   0.123 -0.6661 -0.9486 -0.1344
  889MOL0     H19952   7.227   8.434  -0.111  1.8959  1.7287 -2.5839
  889MOL0     H19953   7.355   8.341  -0.175 -0.2422 -1.1703 -0.3015
  889MOL0     H19954   7.288   8.145  -0.041  2.7791  3.1258  0.9008
  889MOL0     H19955   7.168   8.229   0.047  1.0301 -1.9704  0.1943
  889MOL0     H19956   7.050   8.278  -0.183 -0.7788  0.0479  0.0885
  889MOL0     H19957   7.171   8.172  -0.258 -1.7543  2.7724 -1.6833
  889MOL0     H19958   7.100   7.995  -0.090 -1.6078 -1.1520  0.8515
  889MOL0     H19959   6.974   8.108  -0.043 -0.8737  2.8412 -1.7270
  889MOL0     H19960   6.874   8.116  -0.269 -1.4776 -1.0377  2.5443
  889MOL0     H19961   7.019   8.031  -0.335  2.1552 -0.1499  1.0582
  889MOL0     H19962   6.847   7.864  -0.329  1.8583 -2.1897  0.4667
  889MOL0     H19963   6.911   7.835  -0.171 -2.4528  0.5456  1.7955
  889MOL0     H19964   6.678   8.028  -0.192  0.9880  0.6733 -1.5123
  889MOL0     H19965   6.740   7.954  -0.053 -1.9709 -1.7264 -0.7948
  889MOL0     H19966   6.571   7.857  -0.366 -0.0098  0.3169  1.3717
  889MOL0     H19967   6.361   7.648  -0.412  1.4648 -0.9978 -0.6637
  889MOL0     H19968   6.390   7.520  -0.304  2.8180  1.0483  1.2759
  889MOL0     H19969   6.163   7.603  -0.280 -1.2666  1.9588 -0.4840
  889MOL0     H19970   6.206   7.770  -0.269  0.0802  0.4238  0.4198
  889MOL0     H19971   6.284   7.749  -0.038  1.3961 -0.4614 -2.7486
  889MOL0     H19972   6.282   7.583  -0.022  2.2215 -0.1540 -1.8510
  889MOL0     H19973   6.030   7.745  -0.110  1.5475  0.2253 -0.4657
  889MOL0     H19974   6.067   7.726   0.063  3.2759 -2.4550  1.8476
  889MOL0     H19975   5.800   7.720  -0.036  0.4191 -0.2286  0.8711
  889MOL0     H19976   5.475   7.694  -0.102 -0.8212  1.2796  0.1374
  889MOL0     H19977   5.480   7.689   0.070  0.9412  4.1607  1.1582
  889MOL0     H19978   5.595   7.791  -0.011 -3.2186  1.2512 -1.3437
  889MOL0     H19979   5.303   7.176  -0.270  0.2212 -0.3832  0.8087
  889MOL0     H19980   5.097   7.030  -0.245 -0.7697  0.8448  0.4233
  889MOL0     H19981   4.837   7.094  -0.041 -1.3572 -1.3957  2.1619
  889MOL0     H19982   4.891   6.996  -0.182  0.9387  2.1608  0.3071
  889MOL0     H19983   4.788   6.793  -0.053 -1.2195 -1.4062  2.2474
  889MOL0     H19984   4.751   6.911   0.080  1.8057 -1.0321 -0.1949
  889MOL0     H19985   4.590   7.016  -0.090 -2.0610  0.3675 -0.2349
  889MOL0     H19986   4.540   6.851  -0.068 -0.2742  1.7340  0.3361
  889MOL0     H19987   4.701   6.975  -0.298  1.9436 -0.7492  1.0588
  889MOL0     H19988   4.697   6.804  -0.280  0.1863  0.4559 -0.6249
  889MOL0     H19989   4.516   6.923  -0.441 -0.5262 -0.7138 -0.5548
  889MOL0     H19990   4.441   6.966  -0.287 -1.9230 -1.7481  0.3996
  889MOL0     H19991   4.478   6.683  -0.366  0.9591  0.6243 -0.0676
  889MOL0     H19992   4.415   6.740  -0.208 -0.4836 -1.6849 -0.3248
  889MOL0     H19993   4.319   6.845  -0.475 -0.0655  2.0182  1.7666
  889MOL0     H19994   4.218   6.826  -0.330 -1.4619 -0.0570 -0.9618
  889MOL0     H19995   4.217   6.590  -0.339  0.2354 -0.5794  0.1531
  889MOL0     H19996   4.315   6.585  -0.487  0.6219  1.1792 -0.4281
  889MOL0     H19997   5.153   7.036   0.188  2.6005  2.6409  2.8002
  889MOL0     H19998   5.347   7.189   0.159  1.8683  2.6066 -2.8727
  889MOL0     H19999   5.712   7.247  -0.065 -0.3583  1.2229 -2.8886
  889MOL0     H20000   5.934   7.325  -0.063 -0.4282 -0.2479 -0.0323
  889MOL0     H20001   7.624   8.688  -0.030  0.5340 -0.5996  0.3544
  889MOL0     H20002   7.805   8.770   0.104  1.0169 -0.7792  0.9854
  889MOL0     H20003   7.883   8.717   0.639  1.2399 -2.0664 -1.6863
  889MOL0     H20004   8.036   8.762   0.821  1.4985 -4.8871 -2.1018
  889MOL0     H20005   8.336   9.107   0.760 -1.3889  1.6662  5.3318
  889MOL0     H20006   8.393   9.037   0.902 -1.6996  1.7252  0.4074
  889MOL0     H20007   8.456   8.897   0.640  2.9607  1.9091 -2.7653
  889MOL0     H20008   8.530   8.875   0.800  2.8973  0.4598 -1.9046
  889MOL0     H20009   8.680   9.035   0.775  0.5260  1.1106 -0.1947
  889MOL0     H20010   8.555   9.150   0.750 -1.3547 -0.3028  0.1506
  889MOL0     H20011   8.660   9.188   0.545 -3.2007  0.7715 -1.0111
  889MOL0     H20012   8.561   9.056   0.494 -0.6156 -2.3428  1.3295
  889MOL0     H20013   8.917   8.869   0.434 -0.6873  0.0253 -2.4158
  889MOL0     H20014   8.242   9.051   0.565  1.6623 -1.3420  1.8419
  889MOL0     H20015   8.098   8.985   0.385 -0.9108  1.7528  1.5311
  890MOL0     O20016   5.589   1.702   7.514  0.2381  0.2472 -0.3253
  890MOL0     C20017   5.576   1.823   7.485  0.2148 -0.3593 -0.6030
  890MOL0     O20018   5.504   1.915   7.555  0.3396 -0.4292 -0.5430
  890MOL0     C20019   5.428   1.878   7.665 -0.2320  0.2264 -0.4615
  890MOL0     C20020   5.373   1.755   7.699 -0.0114 -0.1925  0.7132
  890MOL0     C20021   5.290   1.739   7.811 -0.3125  0.5163  0.4141
  890MOL0     C20022   5.246   1.847   7.890  0.6948 -0.3467 -0.4497
  890MOL0     O20023   5.161   1.842   8.000 -0.5189 -0.5459 -0.5634
  890MOL0     C20024   5.077   1.727   8.023  1.2110 -0.3503  0.1569
  890MOL0     C20025   4.940   1.791   8.061 -0.4522 -0.4807 -0.5124
  890MOL0     C20026   4.931   1.849   8.201  0.3882  0.1256 -0.6225
  890MOL0     C20027   4.791   1.900   8.226  0.4861  0.2091 -0.1460
  890MOL0     C20028   4.767   1.911   8.374  0.7521 -0.9130 -0.1243
  890MOL0     C20029   4.642   1.996   8.403  0.2812 -0.2022  0.7730
  890MOL0     C20030   4.642   2.041   8.551  0.2993  0.0736 -0.6140
  890MOL0     C20031   4.640   1.922   8.637  0.3759  0.1089 -0.2325
  890MOL0     N20032   4.541   1.823   8.606 -0.3404  0.6581  0.2378
  890MOL0     C20033   4.548   1.692   8.617 -0.6756 -0.4556  0.1205
  890MOL0     C20034   4.427   1.639   8.579  0.1354 -0.5433 -1.1232
  890MOL0     C20035   4.393   1.488   8.574 -0.0395 -0.4300  0.8954
  890MOL0     C20036   4.352   1.443   8.432  0.0349 -0.2624  0.0794
  890MOL0     C20037   4.201   1.433   8.409  0.0190 -0.7937 -1.5929
  890MOL0     C20038   4.168   1.399   8.264  0.1493 -0.0355  0.6021
  890MOL0     O20039   4.231   1.278   8.220  0.3468  0.2406  0.4535
  890MOL0     C20040   4.195   1.147   8.256 -0.2488 -0.4126  1.0215
  890MOL0     C20041   4.287   1.046   8.252  0.3374  0.2028 -0.4527
  890MOL0     C20042   4.256   0.910   8.275 -1.1224 -0.5256  0.5903
  890MOL0     C20043   4.359   0.803   8.268 -0.1823  0.1064 -0.0117
  890MOL0     C20044   4.118   0.884   8.308 -0.6744 -0.6589 -0.2366
  890MOL0     C20045   4.069   0.747   8.349 -0.3632 -0.3333 -0.3926
  890MOL0     O20046   3.932   0.738   8.353 -0.0350  0.0383 -0.1281
  890MOL0     C20047   3.876   0.616   8.382 -0.6545 -1.0655  0.5155
  890MOL0     C20048   3.891   0.509   8.296  0.4568 -0.9963 -0.3559
  890MOL0     C20049   3.840   0.381   8.324 -0.7205  0.0404  0.4637
  890MOL0     C20050   3.777   0.361   8.447 -0.3107 -1.0240 -0.0134
  890MOL0     O20051   3.737   0.242   8.486  0.3857 -0.3197 -0.1165
  890MOL0     C20052   3.667   0.164   8.398  0.4300 -0.3567  0.0452
  890MOL0     C20053   3.626   0.035   8.460 -0.6017  0.5685 -0.0954
  890MOL0     C20054   3.504   0.046   8.546 -0.1193  0.2509  0.3339
  890MOL0     C20055   3.440  -0.077   8.597 -0.6828 -0.2568  0.7971
  890MOL0     C20056   3.332  -0.043   8.699  0.4188 -0.9196 -0.9208
  890MOL0     C20057   3.271  -0.169   8.754  0.6692 -0.0595  0.2741
  890MOL0     C20058   3.163  -0.141   8.861  0.0936 -0.2684  0.9022
  890MOL0     C20059   3.082  -0.262   8.906  0.3658 -0.6538  0.0706
  890MOL0    Cl20060   3.190  -0.392   8.959 -0.0356  0.3073  0.5559
  890MOL0     C20061   3.771   0.469   8.540  0.1021 -0.0635 -0.7807
  890MOL0     C20062   3.816   0.591   8.506  0.2130  0.6973  0.4749
  890MOL0     O20063   4.139   0.661   8.376 -0.1664  0.2340 -0.0105
  890MOL0     C20064   4.023   0.984   8.313 -0.3683  0.4505 -0.2997
  890MOL0     C20065   4.069   1.119   8.295  0.1832  1.0704 -0.3090
  890MOL0     N20066   4.346   1.750   8.555 -0.5450  0.7703 -0.6350
  890MOL0     N20067   4.418   1.850   8.558  0.2645 -0.9426  0.4294
  890MOL0     C20068   5.293   1.975   7.851 -0.0349  0.0853  0.2945
  890MOL0     C20069   5.382   1.987   7.747  0.0959 -0.0901  0.0589
  890MOL0     C20070   5.646   1.878   7.367  0.1769  0.0937 -0.7536
  890MOL0     C20071   5.751   1.812   7.302 -0.8666  0.6501  0.3137
  890MOL0     C20072   5.820   1.867   7.197 -0.0187 -0.4603  0.8742
  890MOL0     C20073   5.782   1.994   7.138  0.4139 -0.8038  0.8060
  890MOL0     O20074   5.835   2.064   7.025  0.1845 -0.4090  0.0295
  890MOL0     C20075   5.956   2.005   6.965  0.1368 -0.5537 -0.3035
  890MOL0     C20076   5.992   2.074   6.842  0.2920 -0.3316  0.1975
  890MOL0     C20077   6.075   2.199   6.851  0.2344 -0.5629  0.3662
  890MOL0     C20078   6.091   2.273   6.717  0.1134  0.3967  0.0576
  890MOL0     C20079   6.191   2.220   6.621 -0.2869 -0.5828 -0.5649
  890MOL0     C20080   6.271   2.185   6.541  0.4412 -0.2660 -1.1507
  890MOL0     C20081   5.682   2.062   7.205 -0.1363 -0.2239  0.1944
  890MOL0     C20082   5.618   2.010   7.311 -0.0563  0.3097 -0.3535
  890MOL0     H20083   5.397   1.668   7.638 -1.5609  0.3399 -0.7480
  890MOL0     H20084   5.258   1.637   7.832  3.5634 -0.9567 -0.1480
  890MOL0     H20085   5.071   1.679   7.925  1.2329  1.8235 -0.9554
  890MOL0     H20086   5.110   1.657   8.101  0.7112  0.9004  1.5387
  890MOL0     H20087   4.920   1.884   8.008  0.3349  0.4148  0.7201
  890MOL0     H20088   4.856   1.724   8.040 -1.5019  1.0613 -1.3457
  890MOL0     H20089   4.946   1.776   8.281  0.6417  1.6678  0.7724
  890MOL0     H20090   5.007   1.925   8.222  2.6786 -1.6817 -1.8259
  890MOL0     H20091   4.791   2.002   8.186  3.1260 -0.3027 -1.6838
  890MOL0     H20092   4.714   1.845   8.171  1.4043  0.5616 -1.8571
  890MOL0     H20093   4.771   1.814   8.423  2.4405 -0.0107  1.6590
  890MOL0     H20094   4.854   1.969   8.407  0.4043  0.3625 -1.3785
  890MOL0     H20095   4.632   2.084   8.338  1.2465 -0.9621 -0.4585
  890MOL0     H20096   4.551   1.938   8.383 -0.1768  1.3649 -2.2832
  890MOL0     H20097   4.732   2.088   8.591 -0.3853  0.1674  0.9124
  890MOL0     H20098   4.558   2.110   8.568 -0.9512 -1.5462  0.0419
  890MOL0     H20099   4.624   1.968   8.735  0.6477  1.7829 -0.9443
  890MOL0     H20100   4.736   1.868   8.635 -0.1003 -0.8160  0.8134
  890MOL0     H20101   4.635   1.636   8.651 -0.4339  0.9882  2.1019
  890MOL0     H20102   4.483   1.435   8.603  0.1657 -0.0663  0.9286
  890MOL0     H20103   4.319   1.468   8.652 -0.5861  0.3310  0.5863
  890MOL0     H20104   4.398   1.348   8.402 -1.5124 -0.7577 -0.8081
  890MOL0     H20105   4.392   1.515   8.360  2.3373 -0.8386  0.6719
  890MOL0     H20106   4.148   1.526   8.436 -3.6248 -2.2351 -3.0707
  890MOL0     H20107   4.156   1.349   8.462 -0.8678  1.6893  1.9759
  890MOL0     H20108   4.210   1.481   8.206  1.0708 -1.8744 -1.4898
  890MOL0     H20109   4.059   1.393   8.253 -0.3346  2.2358  3.0060
  890MOL0     H20110   4.382   1.070   8.205  0.3360 -2.1017 -1.8304
  890MOL0     H20111   4.403   0.816   8.367  0.6782  3.3886 -0.7063
  890MOL0     H20112   4.328   0.701   8.243 -0.7384 -0.3101  2.1174
  890MOL0     H20113   4.431   0.838   8.193  0.5718 -1.2401  0.0649
  890MOL0     H20114   3.921   0.531   8.194 -1.6884  1.0383 -0.6289
  890MOL0     H20115   3.850   0.312   8.241 -2.6790 -1.3518  1.2782
  890MOL0     H20116   3.568   0.208   8.385  0.2658 -0.8830 -0.4881
  890MOL0     H20117   3.717   0.146   8.302  0.5399 -0.0840  0.0489
  890MOL0     H20118   3.602  -0.026   8.374  1.1952 -0.6656  0.2302
  890MOL0     H20119   3.703  -0.009   8.524 -0.9652  0.1966  0.0925
  890MOL0     H20120   3.422   0.101   8.500 -0.1673  0.5954  0.8167
  890MOL0     H20121   3.527   0.099   8.640  1.7048 -0.9315  0.5923
  890MOL0     H20122   3.402  -0.137   8.515  0.1063 -0.3230  0.4760
  890MOL0     H20123   3.520  -0.134   8.646  0.0008  0.8384  1.0022
  890MOL0     H20124   3.257   0.024   8.656  1.7428  0.5097 -1.0672
  890MOL0     H20125   3.381   0.007   8.783 -1.5526  0.4689 -0.5423
  890MOL0     H20126   3.235  -0.236   8.676 -2.1250 -0.3048  1.6126
  890MOL0     H20127   3.352  -0.221   8.805  0.8764 -3.3967 -3.0638
  890MOL0     H20128   3.096  -0.071   8.810  2.3903  0.6310 -1.1168
  890MOL0     H20129   3.204  -0.099   8.953  0.2804 -0.3482  0.8557
  890MOL0     H20130   3.020  -0.286   8.819  0.2389  1.5252 -0.4984
  890MOL0     H20131   3.025  -0.225   8.991  1.6404  0.5468  0.4399
  890MOL0     H20132   3.722   0.457   8.637  0.1372 -0.0064 -0.7555
  890MOL0     H20133   3.796   0.665   8.583 -4.6185  0.1790  0.0283
  890MOL0     H20134   3.916   0.972   8.307 -0.5206  2.4231 -3.5621
  890MOL0     H20135   3.989   1.192   8.288 -0.3257  0.3525 -3.1772
  890MOL0     H20136   5.255   2.059   7.908  2.4489  1.2968  0.2803
  890MOL0     H20137   5.408   2.091   7.727  2.4475  0.5536  4.8427
  890MOL0     H20138   5.779   1.712   7.333  0.6311  0.9400 -0.0342
  890MOL0     H20139   5.903   1.804   7.167  2.5723  2.4664  1.2708
  890MOL0     H20140   6.040   2.015   7.034  1.0824 -1.3361 -1.3259
  890MOL0     H20141   5.922   1.906   6.934 -1.4319  0.1954 -1.1389
  890MOL0     H20142   5.910   2.082   6.769  1.4075  0.0286 -1.0526
  890MOL0     H20143   6.056   2.008   6.783 -0.9261 -0.4455 -1.0648
  890MOL0     H20144   6.170   2.188   6.904  0.9556 -1.9166 -1.1257
  890MOL0     H20145   6.018   2.266   6.916 -0.2578 -1.4084  0.8196
  890MOL0     H20146   6.124   2.376   6.733  2.5151 -0.1577 -0.8817
  890MOL0     H20147   5.993   2.282   6.670 -0.1272  1.7538  0.7662
  890MOL0     H20148   6.365   2.151   6.502  2.5191 -0.2621  3.2309
  890MOL0     H20149   5.649   2.156   7.164 -0.4133 -1.2931 -2.1595
  890MOL0     H20150   5.536   2.072   7.348 -1.3819  0.6386 -3.4556
  891MOL0     O20151   3.201   3.097   5.547 -0.4465  0.8288 -0.5404
  891MOL0     C20152   3.166   2.982   5.574  0.1797 -0.0891  0.1853
  891MOL0     O20153   3.037   2.941   5.587  0.6229 -0.0665 -0.0591
  891MOL0     C20154   2.935   3.021   5.552  0.7422 -0.2277  0.1853
  891MOL0     C20155   2.877   2.991   5.430  0.4858 -0.2634  0.1987
  891MOL0     C20156   2.763   3.059   5.390  0.2535  0.7889 -0.0639
  891MOL0     C20157   2.702   3.158   5.480  0.4327  0.1123  0.1690
  891MOL0     O20158   2.581   3.218   5.456 -0.2854 -0.1582  0.1014
  891MOL0     C20159   2.522   3.215   5.320  0.0776 -0.7466  0.7408
  891MOL0     C20160   2.440   3.091   5.291  1.1254  1.0825 -0.7807
  891MOL0     C20161   2.312   3.083   5.367 -0.3214 -0.6821  0.4784
  891MOL0     C20162   2.224   2.957   5.339 -0.7261  0.3065  0.2998
  891MOL0     C20163   2.115   2.928   5.439 -0.1944 -0.1004 -0.3265
  891MOL0     C20164   2.001   3.024   5.421 -0.5651  1.2365 -0.1838
  891MOL0     C20165   1.885   2.983   5.504  0.8343  0.2220 -0.0097
  891MOL0     C20166   1.775   3.094   5.480 -0.2855  0.2327  0.7371
  891MOL0     N20167   1.707   3.079   5.346 -0.1501 -0.3135  0.1066
  891MOL0     C20168   1.732   3.150   5.231  1.0748  0.0241 -0.2669
  891MOL0     C20169   1.626   3.115   5.150 -0.4023  1.3569  0.6381
  891MOL0     C20170   1.594   3.176   5.024  0.8128  0.1543 -0.0802
  891MOL0     C20171   1.457   3.145   4.966 -0.4526 -0.9246  0.2129
  891MOL0     C20172   1.437   3.206   4.827  0.9966  0.4335  0.2707
  891MOL0     C20173   1.300   3.158   4.788  0.6675 -0.1185 -0.1270
  891MOL0     O20174   1.203   3.248   4.851 -0.7416  0.4825  0.4382
  891MOL0     C20175   1.071   3.221   4.845  0.0106 -0.5022  0.9834
  891MOL0     C20176   1.017   3.120   4.767 -0.0653  1.0296  0.1322
  891MOL0     C20177   0.880   3.105   4.764  0.3450 -0.0134 -0.7082
  891MOL0     C20178   0.823   3.001   4.674 -0.2241  0.3466  0.3814
  891MOL0     C20179   0.793   3.169   4.862 -0.5883  0.3587  0.5624
  891MOL0     C20180   0.646   3.146   4.881  0.0669 -0.0639  0.8557
  891MOL0     O20181   0.597   3.024   4.851 -0.0670  0.3424  0.0230
  891MOL0     C20182   0.472   2.983   4.903 -0.7763 -1.2735 -0.2378
  891MOL0     C20183   0.380   2.927   4.819 -0.8176  0.6899  0.3952
  891MOL0     C20184   0.258   2.876   4.871 -0.4175  0.3340 -0.1640
  891MOL0     C20185   0.222   2.892   5.009  0.1748 -0.4652 -0.0635
  891MOL0     O20186   0.103   2.850   5.069  0.8357 -0.0784 -0.6177
  891MOL0     C20187   0.056   2.732   5.027  0.4223  0.9771 -0.2689
  891MOL0     C20188  -0.074   2.759   4.960  1.1483  0.4574 -0.1167
  891MOL0     C20189  -0.111   2.671   4.848  0.7471  0.0357  0.2992
  891MOL0     C20190  -0.230   2.728   4.766 -0.1520 -0.1288  0.3101
  891MOL0     C20191  -0.267   2.635   4.649 -0.6028  0.2506 -0.1539
  891MOL0     C20192  -0.382   2.692   4.578  0.5196  0.8908  0.5418
  891MOL0     C20193  -0.433   2.603   4.462 -0.5645  0.5322  0.1962
  891MOL0     C20194  -0.476   2.689   4.342  0.1782  0.6761 -0.2033
  891MOL0    Cl20195  -0.354   2.748   4.238 -0.0344  0.3283  0.1605
  891MOL0     C20196   0.311   2.958   5.094 -0.8002 -0.0609 -0.1806
  891MOL0     C20197   0.436   3.004   5.035 -0.4648  0.0436 -1.4516
  891MOL0     O20198   0.577   3.233   4.923 -0.0271 -0.1504 -0.0266
  891MOL0     C20199   0.848   3.268   4.938 -0.3356 -0.8581 -0.0420
  891MOL0     C20200   0.988   3.295   4.930  0.4141 -0.6919  0.5447
  891MOL0     N20201   1.562   3.001   5.209  0.0395 -0.1642 -0.1445
  891MOL0     N20202   1.608   2.988   5.327 -1.3067 -0.1815 -1.6279
  891MOL0     C20203   2.772   3.191   5.597  0.0730 -0.0190  0.4905
  891MOL0     C20204   2.882   3.118   5.634  0.3202  0.3455 -0.3854
  891MOL0     C20205   3.268   2.876   5.572 -0.0366 -0.7630  0.6029
  891MOL0     C20206   3.236   2.758   5.641  0.5837  0.0853 -0.0329
  891MOL0     C20207   3.329   2.652   5.639  1.5469  1.5163 -0.8669
  891MOL0     C20208   3.443   2.647   5.561  0.2294 -0.4913  0.0088
  891MOL0     O20209   3.510   2.527   5.564 -0.4471 -0.0499  0.0607
  891MOL0     C20210   3.649   2.515   5.522 -0.2894 -1.0442 -0.3589
  891MOL0     C20211   3.700   2.378   5.565 -0.0150 -0.1806 -1.1249
  891MOL0     C20212   3.646   2.278   5.466  0.5339 -0.4123 -0.1066
  891MOL0     C20213   3.693   2.126   5.496  0.0278 -0.2262  0.3235
  891MOL0     C20214   3.841   2.113   5.459  0.2782 -0.2598  0.0033
  891MOL0     C20215   3.961   2.115   5.442 -0.0178 -0.3027 -0.6502
  891MOL0     C20216   3.480   2.769   5.502 -0.5309 -0.5797 -0.6405
  891MOL0     C20217   3.396   2.876   5.507  0.0184  0.0885  0.2274
  891MOL0     H20218   2.912   2.906   5.373  0.7807 -1.0218  1.4776
  891MOL0     H20219   2.709   3.013   5.308 -0.4270  1.1054  0.2088
  891MOL0     H20220   2.460   3.305   5.320 -0.5035 -1.1006 -0.9600
  891MOL0     H20221   2.599   3.233   5.244 -1.7283  2.3097 -0.5650
  891MOL0     H20222   2.421   3.090   5.183  0.5259 -2.8189 -0.8034
  891MOL0     H20223   2.506   3.006   5.311  0.2119 -0.2179 -2.8963
  891MOL0     H20224   2.328   3.078   5.475 -2.4133  0.7992  0.9270
  891MOL0     H20225   2.258   3.177   5.349  1.0573 -0.3891 -2.7598
  891MOL0     H20226   2.188   2.981   5.238  0.8702  3.9675  0.4378
  891MOL0     H20227   2.281   2.864   5.332 -2.4314 -0.7582 -0.2317
  891MOL0     H20228   2.075   2.831   5.411 -0.9143 -0.1508  0.8138
  891MOL0     H20229   2.158   2.927   5.540 -1.2677  0.3314  0.1590
  891MOL0     H20230   2.042   3.125   5.433  0.8685  0.3990  2.8465
  891MOL0     H20231   1.970   3.013   5.316 -3.2988  0.3881  0.6332
  891MOL0     H20232   1.845   2.882   5.490 -1.4440  1.0446  0.2941
  891MOL0     H20233   1.903   2.979   5.612 -0.0233 -0.9742  0.1114
  891MOL0     H20234   1.830   3.188   5.488  1.1452 -0.4402 -0.5574
  891MOL0     H20235   1.698   3.085   5.557  1.1820 -2.3574  2.0624
  891MOL0     H20236   1.818   3.214   5.217  0.6689  0.7119  0.3022
  891MOL0     H20237   1.590   3.285   5.035 -4.3570  0.3979 -1.4797
  891MOL0     H20238   1.676   3.143   4.961  0.5990 -2.2001  0.7811
  891MOL0     H20239   1.376   3.171   5.035  0.1873 -1.5421  1.2334
  891MOL0     H20240   1.454   3.036   4.958 -0.6667 -0.7758 -3.0934
  891MOL0     H20241   1.507   3.160   4.757 -1.9210 -1.3875 -1.6909
  891MOL0     H20242   1.444   3.315   4.819  1.8494  0.3160 -0.8013
  891MOL0     H20243   1.278   3.057   4.824  0.8652  1.0617  3.6587
  891MOL0     H20244   1.274   3.170   4.682  1.7940 -2.2908 -0.7153
  891MOL0     H20245   1.079   3.056   4.706 -2.5581  0.7616 -2.3190
  891MOL0     H20246   0.723   3.026   4.639 -0.9487 -1.4413  1.0793
  891MOL0     H20247   0.882   3.000   4.581 -1.1301 -0.3964 -0.1991
  891MOL0     H20248   0.830   2.899   4.712  1.9500  0.1890 -0.2654
  891MOL0     H20249   0.400   2.912   4.713  0.4012 -3.7284  1.0257
  891MOL0     H20250   0.194   2.824   4.800 -1.0319  1.6925 -0.6345
  891MOL0     H20251   0.110   2.667   4.957 -1.9570 -4.9799  2.6573
  891MOL0     H20252   0.049   2.666   5.114  2.1421  1.9163  0.6199
  891MOL0     H20253  -0.162   2.761   5.026  0.7954 -3.5755 -0.2063
  891MOL0     H20254  -0.066   2.861   4.921 -0.6105  0.9233  0.6211
  891MOL0     H20255  -0.144   2.576   4.892  1.7470 -0.7211 -0.5501
  891MOL0     H20256  -0.036   2.643   4.774 -2.6046 -1.8864 -2.6945
  891MOL0     H20257  -0.320   2.749   4.825 -0.9102  0.3150 -0.9519
  891MOL0     H20258  -0.197   2.825   4.726 -0.3493  0.1272  0.7579
  891MOL0     H20259  -0.297   2.535   4.684 -1.9310  1.3840  2.1437
  891MOL0     H20260  -0.185   2.626   4.577 -1.1779  1.4558 -0.9806
  891MOL0     H20261  -0.461   2.698   4.654  3.4886 -1.3484  4.1630
  891MOL0     H20262  -0.356   2.795   4.549  1.1485  0.5627 -0.0774
  891MOL0     H20263  -0.510   2.544   4.511 -1.0054  0.9597  0.0357
  891MOL0     H20264  -0.356   2.535   4.425  0.5894  1.3369  1.0350
  891MOL0     H20265  -0.532   2.779   4.370  1.2195  1.2886 -0.0188
  891MOL0     H20266  -0.552   2.637   4.284 -0.3342  0.6816  0.4455
  891MOL0     H20267   0.299   2.980   5.199  0.7707 -2.2898  0.5452
  891MOL0     H20268   0.513   3.036   5.104  0.2813 -3.0195 -0.6965
  891MOL0     H20269   0.781   3.326   5.001  0.9658  2.5283 -1.5205
  891MOL0     H20270   1.028   3.375   4.992  0.8991  1.1174 -1.9238
  891MOL0     H20271   2.724   3.260   5.666 -0.7270  0.3632 -0.4292
  891MOL0     H20272   2.925   3.148   5.729 -2.1108  0.6306  0.6866
  891MOL0     H20273   3.144   2.739   5.696  0.1867 -0.4500 -0.8705
  891MOL0     H20274   3.303   2.560   5.692 -0.4956  2.5183 -0.0333
  891MOL0     H20275   3.670   2.540   5.418 -0.7609  0.4290 -0.1340
  891MOL0     H20276   3.714   2.583   5.580 -1.1906 -0.3669 -0.1182
  891MOL0     H20277   3.686   2.367   5.673 -1.2226  0.0921 -1.2405
  891MOL0     H20278   3.809   2.380   5.554 -0.1523  1.1094 -2.5405
  891MOL0     H20279   3.691   2.313   5.372  1.0899  0.3157  0.4249
  891MOL0     H20280   3.537   2.279   5.467  0.4854 -2.2245  1.1737
  891MOL0     H20281   3.629   2.059   5.438  1.1238  0.9421 -2.4187
  891MOL0     H20282   3.680   2.103   5.602  1.0861 -0.8728  0.3330
  891MOL0     H20283   4.065   2.099   5.424  0.9613 -0.8297  4.2141
  891MOL0     H20284   3.568   2.792   5.442  0.6795 -3.1009  0.0014
  891MOL0     H20285   3.424   2.966   5.453 -1.7720  0.0932 -0.7740
  892MOL0     O20286   3.727   0.626   5.426  0.2837 -0.4345  0.5832
  892MOL0     C20287   3.751   0.623   5.545 -0.0346  0.3495 -0.1824
  892MOL0     O20288   3.870   0.669   5.592 -0.0613 -0.1984  0.3053
  892MOL0     C20289   3.959   0.701   5.493  0.2953 -0.2568 -0.3317
  892MOL0     C20290   3.964   0.832   5.455  0.2817 -0.0162 -0.2435
  892MOL0     C20291   4.060   0.864   5.362 -0.1325 -0.7630 -0.1034
  892MOL0     C20292   4.145   0.772   5.303 -0.1300  0.0558 -0.1687
  892MOL0     O20293   4.232   0.813   5.199 -0.4173 -0.9133 -0.2012
  892MOL0     C20294   4.337   0.724   5.163  0.2150 -0.3303 -0.2461
  892MOL0     C20295   4.452   0.803   5.099  0.0594 -0.3017  0.9811
  892MOL0     C20296   4.411   0.843   4.951  0.5948 -0.7168 -0.4383
  892MOL0     C20297   4.277   0.906   4.937 -0.6111 -0.7344  0.3748
  892MOL0     C20298   4.245   0.960   4.792  0.2289  0.8587 -0.9183
  892MOL0     C20299   4.202   0.840   4.714 -0.4209  0.3334 -0.6394
  892MOL0     C20300   4.265   0.822   4.573 -0.6047 -0.0568 -0.1934
  892MOL0     C20301   4.222   0.691   4.496  0.0704  0.2765  0.0365
  892MOL0     N20302   4.079   0.676   4.511  0.1292  0.1635  0.0341
  892MOL0     C20303   4.021   0.569   4.572 -0.5891  0.5259 -0.2201
  892MOL0     C20304   3.888   0.586   4.564 -0.4336  0.6501 -0.6216
  892MOL0     C20305   3.801   0.482   4.619  0.3425 -0.3269  0.1341
  892MOL0     C20306   3.707   0.428   4.508 -0.5760 -0.1379  0.3040
  892MOL0     C20307   3.581   0.500   4.497 -0.2937 -0.6272 -0.1043
  892MOL0     C20308   3.505   0.451   4.378  0.2889 -0.5927  0.0655
  892MOL0     O20309   3.453   0.318   4.387 -0.8274 -1.0436 -0.2612
  892MOL0     C20310   3.334   0.281   4.448 -0.0145 -0.8021  0.1579
  892MOL0     C20311   3.292   0.148   4.426  0.0071  0.1232  0.1324
  892MOL0     C20312   3.190   0.082   4.497 -0.3100 -0.0375 -0.5868
  892MOL0     C20313   3.168  -0.060   4.455  0.6167  0.0447  0.8744
  892MOL0     C20314   3.100   0.158   4.588 -0.7804 -0.3768  0.0925
  892MOL0     C20315   3.006   0.097   4.676 -0.3422  0.1339  0.3345
  892MOL0     O20316   2.966  -0.031   4.650  0.7516 -0.4057 -0.2455
  892MOL0     C20317   2.859  -0.089   4.717 -0.2709  0.2508 -0.3582
  892MOL0     C20318   2.729  -0.056   4.692  0.5861  0.6105 -0.2601
  892MOL0     C20319   2.627  -0.102   4.773  0.7081  0.0305 -1.0173
  892MOL0     C20320   2.655  -0.181   4.883 -0.0656 -0.3517 -0.1379
  892MOL0     O20321   2.555  -0.224   4.974  0.4962  0.8809 -0.0980
  892MOL0     C20322   2.428  -0.274   4.918  0.1558  0.1236  0.8108
  892MOL0     C20323   2.364  -0.366   5.012 -0.7793 -0.2594  0.1231
  892MOL0     C20324   2.258  -0.455   4.950  0.6387 -0.7406 -0.0309
  892MOL0     C20325   2.119  -0.379   4.916  1.1644 -1.2447  0.1901
  892MOL0     C20326   2.035  -0.363   5.040  1.0832  0.7577 -0.8796
  892MOL0     C20327   1.888  -0.319   5.009 -0.1393  0.2032 -0.3434
  892MOL0     C20328   1.818  -0.283   5.141 -0.6359 -0.3733  0.2333
  892MOL0     C20329   1.861  -0.148   5.208 -0.7010 -0.1995  0.3310
  892MOL0    Cl20330   1.833   0.006   5.120 -0.1367  0.1420  0.6036
  892MOL0     C20331   2.784  -0.216   4.909 -0.4984 -0.0313  1.7908
  892MOL0     C20332   2.884  -0.182   4.819  0.3030 -0.6288  0.6451
  892MOL0     O20333   2.959   0.161   4.770 -0.2760  0.6719  0.0627
  892MOL0     C20334   3.132   0.296   4.592 -1.0168 -0.1454 -0.2605
  892MOL0     C20335   3.246   0.359   4.526 -0.0677 -1.1481 -1.3205
  892MOL0     N20336   3.869   0.701   4.491  0.8190 -0.2479  0.0334
  892MOL0     N20337   3.980   0.755   4.458 -0.0104  0.2993  0.2848
  892MOL0     C20338   4.128   0.631   5.340 -0.5633  0.4267 -0.7017
  892MOL0     C20339   4.029   0.599   5.433 -0.5083  0.4804  0.4978
  892MOL0     C20340   3.642   0.587   5.644  0.0047 -0.2142  0.8451
  892MOL0     C20341   3.536   0.506   5.594 -0.3931 -0.4785 -1.4451
  892MOL0     C20342   3.442   0.446   5.682  0.8914 -0.7465  0.8311
  892MOL0     C20343   3.451   0.476   5.824  0.0307 -0.2267  0.8285
  892MOL0     O20344   3.380   0.415   5.917  0.0648 -0.4151 -0.2173
  892MOL0     C20345   3.265   0.342   5.892 -0.7042 -0.4217  0.4160
  892MOL0     C20346   3.158   0.447   5.875  0.4588  0.4006 -0.2795
  892MOL0     C20347   3.015   0.395   5.899 -0.0287 -0.1807  0.6724
  892MOL0     C20348   2.992   0.278   5.819 -0.9913 -0.2544 -0.2416
  892MOL0     C20349   2.971   0.304   5.678 -0.1824  0.1709  0.5073
  892MOL0     C20350   2.933   0.323   5.566  0.3892  0.6422  0.5242
  892MOL0     C20351   3.556   0.563   5.872  0.7551  0.0775 -0.1654
  892MOL0     C20352   3.647   0.620   5.779 -1.0037 -0.4656  0.2512
  892MOL0     H20353   3.903   0.910   5.498  0.0386  1.3185 -2.8555
  892MOL0     H20354   4.081   0.964   5.325  2.7936 -1.2714 -0.0232
  892MOL0     H20355   4.373   0.663   5.246  0.3716 -0.7655 -0.6290
  892MOL0     H20356   4.295   0.654   5.090 -0.9031  0.7068 -0.6415
  892MOL0     H20357   4.481   0.893   5.154 -0.1708 -0.1182  0.8055
  892MOL0     H20358   4.541   0.740   5.093  2.6787  2.9464  2.3203
  892MOL0     H20359   4.492   0.907   4.916  0.5112  0.1207  0.8377
  892MOL0     H20360   4.407   0.754   4.887 -1.0451 -0.6643 -0.4316
  892MOL0     H20361   4.197   0.838   4.965  1.8801 -2.1167  5.2667
  892MOL0     H20362   4.257   0.995   4.997 -1.5408  0.3876 -1.5107
  892MOL0     H20363   4.166   1.036   4.794  0.6172  1.2885 -1.4373
  892MOL0     H20364   4.332   1.000   4.739  1.7600  1.4302  1.8579
  892MOL0     H20365   4.209   0.747   4.771  3.5125  0.7807 -0.0803
  892MOL0     H20366   4.096   0.863   4.702 -0.8039  0.3989  2.2277
  892MOL0     H20367   4.258   0.910   4.509  0.1181 -1.7355 -2.7283
  892MOL0     H20368   4.371   0.820   4.599 -0.7629  1.1241  0.6358
  892MOL0     H20369   4.270   0.601   4.536 -0.4891  0.5435  1.3362
  892MOL0     H20370   4.251   0.692   4.390 -0.1319 -3.0652 -0.1619
  892MOL0     H20371   4.070   0.484   4.618  1.9698  2.4024  0.8505
  892MOL0     H20372   3.872   0.403   4.647  2.5516  0.7823 -1.9358
  892MOL0     H20373   3.752   0.509   4.712  1.5990  1.2593  0.3749
  892MOL0     H20374   3.692   0.319   4.510  1.7594 -0.5234  3.1169
  892MOL0     H20375   3.766   0.430   4.415 -0.2201 -3.3973  0.3278
  892MOL0     H20376   3.606   0.607   4.495 -2.0711 -0.0482  2.8702
  892MOL0     H20377   3.527   0.479   4.590  1.9345 -0.5707  1.2692
  892MOL0     H20378   3.570   0.451   4.289 -0.8962  2.3532 -0.9180
  892MOL0     H20379   3.419   0.519   4.370 -0.4713 -1.5523 -0.0287
  892MOL0     H20380   3.352   0.104   4.347 -2.0237 -0.6681 -1.0495
  892MOL0     H20381   3.190  -0.129   4.537 -0.9212 -3.3373 -1.3259
  892MOL0     H20382   3.063  -0.071   4.427  1.4422 -0.0030 -2.6640
  892MOL0     H20383   3.230  -0.085   4.368  2.9966 -0.9752  2.7311
  892MOL0     H20384   2.712   0.013   4.609 -2.9612  0.9165  0.5758
  892MOL0     H20385   2.525  -0.074   4.748  0.9075  0.2417 -1.6336
  892MOL0     H20386   2.357  -0.196   4.890 -2.1168 -1.2779  2.3977
  892MOL0     H20387   2.442  -0.316   4.818  3.1844  2.7697 -0.0639
  892MOL0     H20388   2.451  -0.426   5.042  0.4342  1.1087 -0.5483
  892MOL0     H20389   2.326  -0.317   5.102  0.6410  0.8619  0.1354
  892MOL0     H20390   2.234  -0.532   5.024 -0.6171  0.7680  1.2042
  892MOL0     H20391   2.302  -0.492   4.857  2.0833  0.0466  0.3130
  892MOL0     H20392   2.142  -0.285   4.865 -1.0212 -2.2528 -2.9154
  892MOL0     H20393   2.053  -0.439   4.853  1.3479  0.4377 -1.7185
  892MOL0     H20394   2.083  -0.289   5.105 -0.9073 -1.6330  3.7998
  892MOL0     H20395   2.034  -0.451   5.104  1.5763  1.9884  0.8784
  892MOL0     H20396   1.886  -0.230   4.945  1.9277  0.9689  0.5506
  892MOL0     H20397   1.828  -0.396   4.961 -3.5563  2.0540  0.5847
  892MOL0     H20398   1.841  -0.363   5.212 -2.3435 -2.2186 -1.1902
  892MOL0     H20399   1.710  -0.276   5.121 -0.5109  2.4279  0.1500
  892MOL0     H20400   1.967  -0.162   5.229 -0.3205 -1.8030 -2.1746
  892MOL0     H20401   1.807  -0.146   5.303 -1.8271  0.1396 -0.3013
  892MOL0     H20402   2.802  -0.282   4.993 -0.8946 -0.5227  1.4980
  892MOL0     H20403   2.985  -0.221   4.825 -0.2662 -2.3973 -0.4920
  892MOL0     H20404   3.074   0.355   4.662  0.1953 -0.7370  1.2957
  892MOL0     H20405   3.269   0.464   4.544 -0.1626 -1.5274  1.5111
  892MOL0     H20406   4.195   0.557   5.298  3.0452  3.5707 -0.9837
  892MOL0     H20407   4.003   0.497   5.458  1.9180 -0.5358 -0.8098
  892MOL0     H20408   3.529   0.490   5.486 -3.3084  1.1981 -1.6040
  892MOL0     H20409   3.358   0.387   5.647 -0.6112  2.0336 -0.5954
  892MOL0     H20410   3.283   0.279   5.805 -1.6118 -1.7927  1.1940
  892MOL0     H20411   3.237   0.279   5.977 -1.3732 -0.6858  0.0027
  892MOL0     H20412   3.157   0.489   5.774 -2.1869  0.9549 -0.0875
  892MOL0     H20413   3.171   0.526   5.949  1.9823 -0.8558  0.8647
  892MOL0     H20414   2.951   0.480   5.872  0.0874 -0.2251  0.2448
  892MOL0     H20415   2.992   0.372   6.003 -0.7047  0.0195  0.5726
  892MOL0     H20416   2.896   0.236   5.853 -0.7850 -1.4707 -1.0875
  892MOL0     H20417   3.064   0.196   5.823 -0.4000  0.2493 -0.4974
  892MOL0     H20418   2.907   0.345   5.464 -0.0012  0.1669  0.5149
  892MOL0     H20419   3.563   0.585   5.978 -1.5422 -0.4632  0.1539
  892MOL0     H20420   3.728   0.678   5.824 -0.4049 -1.8292  0.9754
  893MOL0     O20421   4.428   5.591  10.462 -0.0349 -0.0328 -0.4742
  893MOL0     C20422   4.545   5.577  10.486 -0.3622 -0.2545  0.5558
  893MOL0     O20423   4.650   5.530  10.398  0.4420 -0.9025 -0.0743
  893MOL0     C20424   4.614   5.527  10.264 -0.3437 -0.1521  0.1370
  893MOL0     C20425   4.547   5.410  10.208  0.2714  0.2771 -0.3764
  893MOL0     C20426   4.521   5.402  10.069  0.3854  0.6201 -0.0795
  893MOL0     C20427   4.573   5.498   9.984  0.3969 -0.4674 -0.7423
  893MOL0     O20428   4.540   5.481   9.853 -0.8800 -0.1091  0.0326
  893MOL0     C20429   4.625   5.557   9.757  1.0158  0.3579 -1.0371
  893MOL0     C20430   4.600   5.503   9.614  0.8737  0.6874 -0.5406
  893MOL0     C20431   4.694   5.543   9.504  0.1882  0.3297  0.1945
  893MOL0     C20432   4.714   5.691   9.503  0.1548  0.3315  0.1709
  893MOL0     C20433   4.586   5.768   9.473  0.6456 -0.1040  0.6398
  893MOL0     C20434   4.544   5.752   9.330  0.3082  0.5472  0.1022
  893MOL0     C20435   4.427   5.828   9.276 -0.0361  0.0434 -1.0766
  893MOL0     C20436   4.305   5.842   9.370 -0.3271  0.5051 -0.0529
  893MOL0     N20437   4.190   5.910   9.307 -0.1646 -0.1155  0.0285
  893MOL0     C20438   4.068   5.924   9.372 -0.6061 -0.4957  0.5501
  893MOL0     C20439   3.993   5.988   9.273 -0.2287  1.4112 -0.3051
  893MOL0     C20440   3.847   6.029   9.294 -0.1926  0.8736  0.1769
  893MOL0     C20441   3.759   6.012   9.170  1.2618  0.0115 -1.1213
  893MOL0     C20442   3.624   5.945   9.202  0.4700  0.0662  0.0450
  893MOL0     C20443   3.524   5.930   9.085 -0.2986  0.8578 -0.2744
  893MOL0     O20444   3.392   5.890   9.131  0.7175 -0.0996 -0.2164
  893MOL0     C20445   3.302   5.862   9.030  0.3229  0.0986 -0.0997
  893MOL0     C20446   3.184   5.805   9.074 -0.3563 -0.2269  0.2618
  893MOL0     C20447   3.070   5.785   8.997 -0.3202  0.8863  0.3993
  893MOL0     C20448   2.951   5.718   9.056  0.0924  1.0744 -0.3942
  893MOL0     C20449   3.069   5.823   8.856 -0.4152  0.2731  0.1057
  893MOL0     C20450   2.968   5.772   8.757  0.3174 -0.5956  1.4322
  893MOL0     O20451   2.947   5.643   8.757 -0.0180  0.6129 -0.0293
  893MOL0     C20452   2.860   5.583   8.664  0.1014  0.1682  0.4977
  893MOL0     C20453   2.900   5.475   8.586 -0.5100 -0.4124  0.6030
  893MOL0     C20454   2.807   5.414   8.501  0.6942  0.4199  0.0875
  893MOL0     C20455   2.674   5.460   8.488  0.1278  0.6310  0.6282
  893MOL0     O20456   2.581   5.381   8.421 -0.0969 -0.1671 -0.3421
  893MOL0     C20457   2.443   5.421   8.417  0.0501 -0.1726  0.0340
  893MOL0     C20458   2.354   5.383   8.535  0.1166 -0.0525 -0.2820
  893MOL0     C20459   2.207   5.430   8.508 -0.3592  0.1225  0.0167
  893MOL0     C20460   2.108   5.345   8.598 -0.9046  0.0716  0.0072
  893MOL0     C20461   1.968   5.377   8.560 -0.3579 -1.6340  0.9307
  893MOL0     C20462   1.927   5.355   8.410  0.6988 -1.4011  0.1334
  893MOL0     C20463   1.966   5.222   8.346  0.9723 -1.3347 -0.6982
  893MOL0     C20464   1.913   5.204   8.211  0.1111 -0.0187  0.3497
  893MOL0    Cl20465   1.737   5.189   8.216  0.0859  0.0239 -0.5958
  893MOL0     C20466   2.638   5.573   8.562  0.0242 -0.0256  0.0179
  893MOL0     C20467   2.729   5.638   8.641 -0.2058 -0.5921 -0.8261
  893MOL0     O20468   2.921   5.851   8.677 -0.2940 -0.3356 -0.2278
  893MOL0     C20469   3.180   5.889   8.818 -0.3379 -0.0284  0.5679
  893MOL0     C20470   3.292   5.911   8.899 -0.7811 -1.1906 -0.5912
  893MOL0     N20471   4.070   6.017   9.163 -1.4178  0.5036  0.3674
  893MOL0     N20472   4.190   5.972   9.185 -0.6195  0.6701 -0.6093
  893MOL0     C20473   4.643   5.608  10.034  0.8144 -1.0362 -0.2450
  893MOL0     C20474   4.672   5.615  10.174  0.2141 -0.5996  0.1264
  893MOL0     C20475   4.569   5.596  10.634 -0.1748  0.1505 -0.3561
  893MOL0     C20476   4.487   5.684  10.705 -0.0497 -0.0630  0.6971
  893MOL0     C20477   4.517   5.721  10.836 -0.5701 -0.4045  1.6092
  893MOL0     C20478   4.622   5.650  10.903 -0.0636 -0.8937 -0.1749
  893MOL0     O20479   4.640   5.650  11.035 -0.3670  0.2541  0.0302
  893MOL0     C20480   4.563   5.753  11.105 -0.4132 -0.2844 -1.1960
  893MOL0     C20481   4.634   5.768  11.245 -0.0549  0.2996  0.5232
  893MOL0     C20482   4.585   5.900  11.316  0.2942 -0.0820  0.1457
  893MOL0     C20483   4.618   5.898  11.469  0.1393 -0.0974  0.0231
  893MOL0     C20484   4.587   6.029  11.526 -0.2972  0.4539  1.1301
  893MOL0     C20485   4.560   6.135  11.582  0.3295 -0.5869  0.0560
  893MOL0     C20486   4.714   5.570  10.828 -0.6676  0.0120  0.7819
  893MOL0     C20487   4.681   5.539  10.697  1.0984 -0.0250 -0.2669
  893MOL0     H20488   4.517   5.329  10.273  1.5080  0.2738  0.2234
  893MOL0     H20489   4.458   5.320  10.038  0.3753  0.4537  0.3671
  893MOL0     H20490   4.602   5.664   9.758 -0.1082  0.1341  0.0562
  893MOL0     H20491   4.728   5.532   9.786  1.3577 -1.6250 -3.6378
  893MOL0     H20492   4.604   5.395   9.630 -0.0273  0.9671  2.1130
  893MOL0     H20493   4.496   5.523   9.585  0.4429  2.7764  2.0894
  893MOL0     H20494   4.791   5.493   9.512 -0.2281 -0.1925  3.8781
  893MOL0     H20495   4.651   5.517   9.407  1.1674  1.0559 -0.4457
  893MOL0     H20496   4.759   5.725   9.596  1.9567  0.4200 -0.6793
  893MOL0     H20497   4.792   5.715   9.430 -2.6847  1.3091 -2.7691
  893MOL0     H20498   4.505   5.732   9.538 -0.2823  1.3341  0.3332
  893MOL0     H20499   4.612   5.873   9.491 -1.7411  0.6086  0.2731
  893MOL0     H20500   4.633   5.768   9.267  1.7704 -1.2693  1.5794
  893MOL0     H20501   4.518   5.646   9.315  1.3027  0.4363 -1.0455
  893MOL0     H20502   4.464   5.929   9.258  0.3442  0.6415  2.3762
  893MOL0     H20503   4.400   5.780   9.181 -2.6717 -1.4052  0.2786
  893MOL0     H20504   4.334   5.896   9.460 -1.0884 -0.7491  0.9695
  893MOL0     H20505   4.278   5.739   9.393 -1.8984  0.6431 -1.0980
  893MOL0     H20506   4.050   5.890   9.474  0.0664  0.0928  0.8820
  893MOL0     H20507   3.817   5.969   9.381  2.1308 -0.7246 -0.0455
  893MOL0     H20508   3.841   6.134   9.326  0.3524  0.5953  1.2509
  893MOL0     H20509   3.814   5.944   9.105  0.8984 -1.7685  0.3356
  893MOL0     H20510   3.746   6.113   9.131  1.1885  0.9540  1.1803
  893MOL0     H20511   3.572   6.003   9.279  2.4376  1.5138  0.3503
  893MOL0     H20512   3.639   5.845   9.245  3.4555  0.7094  0.6561
  893MOL0     H20513   3.549   5.850   9.015 -3.0052  2.2774 -3.0396
  893MOL0     H20514   3.526   6.022   9.026  0.8864  2.2478  1.7753
  893MOL0     H20515   3.183   5.765   9.174 -0.2025 -1.2875 -0.1544
  893MOL0     H20516   2.968   5.615   9.089 -3.8127  0.4033 -0.0477
  893MOL0     H20517   2.913   5.777   9.139 -0.0835  2.0914 -1.1809
  893MOL0     H20518   2.864   5.719   8.989 -2.6593  0.7188  2.8881
  893MOL0     H20519   3.000   5.435   8.597 -0.9604 -1.8541 -0.3429
  893MOL0     H20520   2.848   5.335   8.439  0.5819 -1.8492  2.6825
  893MOL0     H20521   2.438   5.525   8.383  2.2624  0.1195  0.4712
  893MOL0     H20522   2.396   5.368   8.333 -1.6270 -0.5308  1.1566
  893MOL0     H20523   2.355   5.275   8.553 -2.3911  0.4377  4.2241
  893MOL0     H20524   2.396   5.436   8.621  3.3728 -1.4917 -0.7862
  893MOL0     H20525   2.192   5.424   8.400  3.2326 -0.4100 -0.5881
  893MOL0     H20526   2.202   5.537   8.530 -2.4726  0.0350  0.1721
  893MOL0     H20527   2.116   5.236   8.597 -0.5787  0.0961 -0.5547
  893MOL0     H20528   2.123   5.369   8.703 -1.0236 -3.7558  1.0221
  893MOL0     H20529   1.945   5.478   8.594 -0.8362 -2.6287  3.8222
  893MOL0     H20530   1.907   5.310   8.622 -0.7767 -2.6433 -0.5032
  893MOL0     H20531   1.818   5.355   8.410  0.6079  1.0000  2.3755
  893MOL0     H20532   1.967   5.441   8.355  0.6453 -0.5151  1.4253
  893MOL0     H20533   1.925   5.143   8.410 -1.0804  0.5714  0.4927
  893MOL0     H20534   2.075   5.222   8.341  0.9257 -1.6039 -1.9650
  893MOL0     H20535   1.947   5.109   8.169  0.5940 -0.7651  2.3218
  893MOL0     H20536   1.942   5.286   8.144 -1.0894  0.4438  0.3730
  893MOL0     H20537   2.540   5.617   8.576 -0.0564  0.2606 -1.2972
  893MOL0     H20538   2.699   5.723   8.701 -0.3167  0.7955 -2.7377
  893MOL0     H20539   3.186   5.920   8.714  1.7613  3.4318  1.5259
  893MOL0     H20540   3.374   5.955   8.843  0.4084 -0.9953  1.1997
  893MOL0     H20541   4.678   5.694   9.977  1.7116 -0.7360  0.7035
  893MOL0     H20542   4.727   5.701  10.211 -2.1488  0.0501  2.4569
  893MOL0     H20543   4.399   5.737  10.671 -0.8711 -2.6667 -1.6621
  893MOL0     H20544   4.461   5.802  10.880 -1.4105  0.6134 -1.0921
  893MOL0     H20545   4.569   5.847  11.049  2.6108 -0.1707 -0.8546
  893MOL0     H20546   4.457   5.727  11.114 -0.1718 -1.4388 -1.5754
  893MOL0     H20547   4.742   5.757  11.228 -0.5732 -0.7531 -2.7883
  893MOL0     H20548   4.610   5.680  11.306  0.7073 -0.9818 -0.9736
  893MOL0     H20549   4.482   5.930  11.295  0.4472  1.8784  1.9580
  893MOL0     H20550   4.629   5.987  11.267 -2.1155  0.0004 -2.1593
  893MOL0     H20551   4.724   5.873  11.483  0.8039  1.7204 -1.3151
  893MOL0     H20552   4.558   5.821  11.517 -1.0608  0.0242 -1.2057
  893MOL0     H20553   4.528   6.231  11.618  0.6999 -0.6475  0.5514
  893MOL0     H20554   4.796   5.527  10.883 -1.2307 -1.3376  0.5959
  893MOL0     H20555   4.741   5.467  10.643  0.3655 -1.7128  1.0550
  894MOL0     O20556  10.031   1.484   1.042  0.7606  0.4620  0.4645
  894MOL0     C20557  10.030   1.575   1.123  0.9431 -0.3284 -0.1671
  894MOL0     O20558   9.926   1.619   1.201  0.4507 -0.1326  0.1076
  894MOL0     C20559   9.816   1.551   1.174  0.0982  0.9321 -0.1834
  894MOL0     C20560   9.703   1.625   1.138 -0.8609  0.6824  0.3059
  894MOL0     C20561   9.576   1.578   1.112 -1.2305  0.0207 -0.0721
  894MOL0     C20562   9.561   1.438   1.139 -0.5196  0.2390  0.0696
  894MOL0     O20563   9.431   1.397   1.123  0.7976  0.2270  0.1489
  894MOL0     C20564   9.400   1.291   1.214 -0.4321  0.3588  0.1906
  894MOL0     C20565   9.242   1.282   1.221  0.2890 -0.3965  0.5323
  894MOL0     C20566   9.174   1.240   1.092 -0.2700  0.5849  0.3384
  894MOL0     C20567   9.018   1.217   1.102  0.5271 -0.2906  0.0192
  894MOL0     C20568   8.950   1.210   0.965  0.7607  0.0454 -0.2547
  894MOL0     C20569   8.795   1.227   0.975  0.4904 -0.1777 -0.2768
  894MOL0     C20570   8.726   1.194   0.838 -0.3235 -0.7071 -0.1643
  894MOL0     C20571   8.718   1.044   0.810  0.6748  0.4531  0.0799
  894MOL0     N20572   8.613   0.983   0.887 -0.1932  0.1198 -0.4447
  894MOL0     C20573   8.483   1.028   0.898  0.3455  0.0867  0.6221
  894MOL0     C20574   8.425   0.936   0.973  0.0764  0.0493 -0.2198
  894MOL0     C20575   8.285   0.938   1.026 -0.7453 -0.4841  0.2845
  894MOL0     C20576   8.185   0.884   0.942 -0.5903  1.1256  0.6004
  894MOL0     C20577   8.055   0.874   1.016  0.7733  0.1534  0.1683
  894MOL0     C20578   7.942   0.833   0.922  0.5922 -0.5831  0.0260
  894MOL0     O20579   7.816   0.864   0.983 -0.0251 -0.3363 -0.3790
  894MOL0     C20580   7.707   0.878   0.906  0.1045  0.1167 -0.4632
  894MOL0     C20581   7.590   0.891   0.973 -0.1417  0.1181 -0.2632
  894MOL0     C20582   7.466   0.896   0.914  0.9873 -0.3540 -0.1401
  894MOL0     C20583   7.348   0.919   0.998 -0.2497 -0.1543 -0.2668
  894MOL0     C20584   7.460   0.885   0.763 -0.8834  0.0014 -0.5116
  894MOL0     C20585   7.332   0.874   0.674 -0.4075  0.0110  0.8397
  894MOL0     O20586   7.208   0.865   0.730  0.0787 -0.7896  0.8818
  894MOL0     C20587   7.085   0.858   0.663 -0.0237  0.2906  0.0492
  894MOL0     C20588   6.980   0.809   0.736 -0.4218  1.0024 -1.1342
  894MOL0     C20589   6.858   0.797   0.692  0.3038  0.4345 -0.6145
  894MOL0     C20590   6.822   0.851   0.563  0.6809  0.5176 -0.5743
  894MOL0     O20591   6.698   0.843   0.517 -0.3650  0.2858 -0.1155
  894MOL0     C20592   6.668   0.960   0.434  0.3774 -0.1915  0.0713
  894MOL0     C20593   6.513   0.963   0.410  0.4369 -0.6638  0.3649
  894MOL0     C20594   6.470   0.829   0.343 -0.1266 -0.1125  0.1423
  894MOL0     C20595   6.319   0.831   0.319 -0.2589  0.0113 -0.7414
  894MOL0     C20596   6.277   0.722   0.217 -0.1059 -0.2638 -0.0199
  894MOL0     C20597   6.154   0.751   0.131  0.1739 -0.3900 -0.1808
  894MOL0     C20598   6.019   0.721   0.194 -0.3732  1.0758  0.3810
  894MOL0     C20599   5.887   0.767   0.122  0.6385 -0.0995  0.1846
  894MOL0    Cl20600   5.852   0.672  -0.019 -0.2801 -0.2144  0.0807
  894MOL0     C20601   6.931   0.878   0.485  0.0656  0.4889  0.0808
  894MOL0     C20602   7.058   0.880   0.531  0.0293 -0.6358 -0.7564
  894MOL0     O20603   7.346   0.892   0.550  0.4555  0.3048 -0.3327
  894MOL0     C20604   7.585   0.879   0.697  0.0362  0.3082 -1.0966
  894MOL0     C20605   7.705   0.872   0.767  0.3935 -0.3959 -1.1909
  894MOL0     N20606   8.519   0.838   1.013  0.6285 -0.6106 -0.1878
  894MOL0     N20607   8.628   0.868   0.957 -0.0292 -0.1175 -0.1814
  894MOL0     C20608   9.669   1.357   1.177 -1.0913 -0.3279 -0.3969
  894MOL0     C20609   9.798   1.417   1.205  0.3166 -0.1723  0.2738
  894MOL0     C20610  10.161   1.644   1.125  0.1062  0.0335 -0.4191
  894MOL0     C20611  10.178   1.735   1.240 -0.0057  0.1696 -0.1565
  894MOL0     C20612  10.301   1.788   1.259 -0.2580  0.1185  0.3389
  894MOL0     C20613  10.404   1.762   1.175  1.1712 -0.1749  0.4495
  894MOL0     O20614  10.527   1.815   1.206  0.4293 -0.3282 -0.5021
  894MOL0     C20615  10.644   1.766   1.144  1.0505 -1.4531  0.4393
  894MOL0     C20616  10.765   1.779   1.240 -0.0084  0.3308 -0.4618
  894MOL0     C20617  10.895   1.729   1.180  0.6241  0.5536  0.9587
  894MOL0     C20618  10.901   1.576   1.173 -0.4533  0.5250 -0.2900
  894MOL0     C20619  11.004   1.537   1.077  0.1327  0.5867 -0.4617
  894MOL0     C20620  11.102   1.505   1.008  0.4044 -0.0408 -1.2341
  894MOL0     C20621  10.384   1.692   1.058 -0.6648 -1.0736 -0.3293
  894MOL0     C20622  10.263   1.623   1.036 -0.7258 -0.2153 -0.0357
  894MOL0     H20623   9.719   1.732   1.129  0.3442  0.5682  0.8512
  894MOL0     H20624   9.496   1.646   1.082 -0.7862  0.4534 -0.2794
  894MOL0     H20625   9.438   1.194   1.181  0.3458  0.3535  1.0735
  894MOL0     H20626   9.442   1.314   1.312  4.3313  1.4604 -1.8053
  894MOL0     H20627   9.214   1.207   1.296  2.4476 -0.1298  1.6704
  894MOL0     H20628   9.189   1.374   1.246  0.8098  0.2220 -0.5381
  894MOL0     H20629   9.188   1.324   1.023 -0.4962  0.1661 -0.2246
  894MOL0     H20630   9.216   1.151   1.045  0.9292 -0.2711  2.8398
  894MOL0     H20631   9.003   1.117   1.143  2.4955 -0.1854  1.1244
  894MOL0     H20632   8.971   1.298   1.159  1.6303  1.5375 -1.5377
  894MOL0     H20633   8.973   1.299   0.905 -2.8961  2.2027  1.2051
  894MOL0     H20634   8.988   1.119   0.917  0.5377  0.0008 -0.3510
  894MOL0     H20635   8.749   1.171   1.057 -0.5232 -0.7550 -1.2102
  894MOL0     H20636   8.771   1.332   0.996 -1.0886 -0.7084  0.8511
  894MOL0     H20637   8.628   1.239   0.818 -0.0588 -1.5300 -4.2098
  894MOL0     H20638   8.779   1.252   0.761  0.1201  2.0952  2.0924
  894MOL0     H20639   8.813   0.992   0.823 -0.8494 -2.7114 -0.5041
  894MOL0     H20640   8.695   1.030   0.704  4.3083  2.3942 -1.1228
  894MOL0     H20641   8.434   1.103   0.836  1.2606 -0.9834 -1.5310
  894MOL0     H20642   8.285   0.876   1.116  2.2413 -1.7530 -0.4739
  894MOL0     H20643   8.268   1.045   1.040 -1.1412 -0.6031  0.7609
  894MOL0     H20644   8.212   0.782   0.911  3.0856  1.1272  3.2821
  894MOL0     H20645   8.180   0.942   0.850  0.0649  0.5142  0.1628
  894MOL0     H20646   8.030   0.968   1.065 -1.5369 -0.9045  1.1553
  894MOL0     H20647   8.064   0.797   1.093 -1.8467 -0.8536 -0.4346
  894MOL0     H20648   7.940   0.725   0.904  0.3404 -0.8981  1.7630
  894MOL0     H20649   7.949   0.879   0.823 -2.5488  0.0459  0.0053
  894MOL0     H20650   7.591   0.896   1.081 -0.9789  2.4834 -0.3260
  894MOL0     H20651   7.300   1.014   0.974  1.7412  0.4369 -2.1822
  894MOL0     H20652   7.279   0.835   0.982  1.4328 -1.6284 -0.1806
  894MOL0     H20653   7.377   0.921   1.104  0.2735  0.3000 -0.4183
  894MOL0     H20654   6.996   0.759   0.831 -1.4182  1.8391 -0.5031
  894MOL0     H20655   6.775   0.753   0.747  0.6132  2.3625  1.5792
  894MOL0     H20656   6.694   1.054   0.483  2.1162 -0.5578 -0.0797
  894MOL0     H20657   6.707   0.956   0.332 -1.1817 -2.7811 -0.5365
  894MOL0     H20658   6.447   0.983   0.495  3.8153  0.4275  2.9437
  894MOL0     H20659   6.488   1.039   0.335  2.8835 -1.7686 -1.7227
  894MOL0     H20660   6.498   0.741   0.401  2.9520  1.4233  1.2034
  894MOL0     H20661   6.527   0.816   0.250  1.2090  0.0680  0.9158
  894MOL0     H20662   6.272   0.808   0.415  3.6281  2.0543  1.9198
  894MOL0     H20663   6.271   0.923   0.285 -0.1820 -0.4840 -2.2883
  894MOL0     H20664   6.256   0.635   0.279 -0.4387  0.4989  0.9543
  894MOL0     H20665   6.356   0.714   0.141 -2.1082 -0.2967 -2.2399
  894MOL0     H20666   6.155   0.856   0.100 -1.0199  0.0269  1.0641
  894MOL0     H20667   6.142   0.692   0.040 -1.2831 -0.3716 -0.0284
  894MOL0     H20668   6.007   0.772   0.290 -2.0293  0.8776  0.3052
  894MOL0     H20669   6.019   0.612   0.196  1.4904  1.0515  0.6255
  894MOL0     H20670   5.904   0.871   0.093  1.4083 -0.4535 -0.7012
  894MOL0     H20671   5.808   0.766   0.197 -0.4530 -2.7333 -0.8871
  894MOL0     H20672   6.911   0.898   0.380  0.9685  1.9254  0.1681
  894MOL0     H20673   7.137   0.909   0.463 -0.4199  0.1837 -0.9384
  894MOL0     H20674   7.577   0.858   0.591 -0.5095 -1.4490 -0.7290
  894MOL0     H20675   7.798   0.861   0.712 -0.3351  0.0957 -2.5548
  894MOL0     H20676   9.652   1.250   1.185 -0.3318 -0.5380 -1.3718
  894MOL0     H20677   9.878   1.354   1.242  1.1752 -0.4212 -1.8428
  894MOL0     H20678  10.107   1.741   1.321  1.5124  0.0049  1.2296
  894MOL0     H20679  10.295   1.841   1.354  1.7028  0.5656  0.2506
  894MOL0     H20680  10.645   1.659   1.123 -0.2610 -1.0001 -2.3311
  894MOL0     H20681  10.665   1.820   1.052 -1.8932 -0.1298  0.4257
  894MOL0     H20682  10.750   1.721   1.332  1.0969 -1.1276 -1.1599
  894MOL0     H20683  10.789   1.880   1.275  2.6184 -0.7755  1.2598
  894MOL0     H20684  10.981   1.771   1.234  2.4611 -0.6517 -0.8492
  894MOL0     H20685  10.912   1.767   1.079  0.6860  0.2059  0.8383
  894MOL0     H20686  10.809   1.528   1.141  0.2757 -0.1497 -1.4443
  894MOL0     H20687  10.912   1.539   1.276  1.2813 -0.2671 -0.7098
  894MOL0     H20688  11.190   1.464   0.963  1.4542 -0.5848  1.1578
  894MOL0     H20689  10.467   1.683   0.988  1.2991  1.3236  1.4844
  894MOL0     H20690  10.250   1.549   0.957  0.1415  1.1139 -1.5094
  895MOL0     O20691   8.068   4.714  10.565 -0.1372  0.8688  0.2237
  895MOL0     C20692   8.100   4.804  10.491  0.0114  0.3026  0.5119
  895MOL0     O20693   8.009   4.873  10.411 -1.0303  0.7561 -0.7115
  895MOL0     C20694   7.880   4.840  10.418  0.0484  0.3194 -0.0177
  895MOL0     C20695   7.818   4.744  10.338 -0.5214  0.1971 -0.8249
  895MOL0     C20696   7.678   4.722  10.349 -0.2141 -0.8272  0.8902
  895MOL0     C20697   7.598   4.807  10.426  0.2603 -0.0706  0.5119
  895MOL0     O20698   7.461   4.779  10.446 -0.2803 -0.1618  0.2731
  895MOL0     C20699   7.394   4.847  10.552  1.1060 -0.0254 -0.5492
  895MOL0     C20700   7.248   4.777  10.564 -0.1894  0.1811 -1.4717
  895MOL0     C20701   7.238   4.645  10.635 -0.4481  0.2662  1.0605
  895MOL0     C20702   7.095   4.581  10.615 -0.1616 -0.2777 -0.3032
  895MOL0     C20703   7.084   4.434  10.661 -0.0639  0.8631 -0.8013
  895MOL0     C20704   6.970   4.346  10.597 -0.4691  0.3952  0.0754
  895MOL0     C20705   6.830   4.397  10.651  0.7282 -0.7507  0.4012
  895MOL0     C20706   6.812   4.337  10.792 -0.3407 -0.1961  0.7596
  895MOL0     N20707   6.707   4.404  10.871  0.3472  0.2057  1.0959
  895MOL0     C20708   6.594   4.335  10.907  0.5943 -0.7615 -0.2653
  895MOL0     C20709   6.530   4.421  10.994  0.4510  0.3793 -0.9580
  895MOL0     C20710   6.395   4.403  11.037  0.4037  0.8526  0.1810
  895MOL0     C20711   6.373   4.269  11.121 -0.8016 -0.4648 -0.0268
  895MOL0     C20712   6.223   4.248  11.161  0.3111 -0.5714 -0.2366
  895MOL0     C20713   6.229   4.134  11.268 -0.3169 -0.1422  1.1034
  895MOL0     O20714   6.295   4.158  11.391  0.1951  0.1992 -0.8607
  895MOL0     C20715   6.219   4.151  11.511  0.6119 -0.4944  1.0879
  895MOL0     C20716   6.287   4.087  11.620 -0.4197 -0.6132  0.5363
  895MOL0     C20717   6.222   4.052  11.740 -0.3950  0.2831 -0.6335
  895MOL0     C20718   6.299   3.974  11.837 -0.3548  0.1263 -0.7533
  895MOL0     C20719   6.089   4.091  11.756 -0.0953 -1.0602  0.1991
  895MOL0     C20720   6.005   4.057  11.876  0.3329  1.0076 -0.0643
  895MOL0     O20721   5.868   4.039  11.855 -0.3605  0.3561  0.3841
  895MOL0     C20722   5.785   3.997  11.959 -0.1355  0.3917  0.4636
  895MOL0     C20723   5.681   4.080  11.999  0.2751  0.4602 -0.0829
  895MOL0     C20724   5.584   4.028  12.095  0.0307 -0.1204 -0.5396
  895MOL0     C20725   5.594   3.906  12.167  0.8521  0.6582 -0.6486
  895MOL0     O20726   5.506   3.859  12.265 -0.2454  0.5196 -0.0205
  895MOL0     C20727   5.405   3.953  12.317 -0.4879 -0.2197  0.2280
  895MOL0     C20728   5.334   3.904  12.445  0.6849  0.2291 -0.7829
  895MOL0     C20729   5.326   3.751  12.443 -1.0043  0.1606  0.6578
  895MOL0     C20730   5.234   3.687  12.555 -0.4602  0.9630  0.1290
  895MOL0     C20731   5.209   3.539  12.524  0.2068  0.0083  0.0136
  895MOL0     C20732   5.098   3.481  12.608 -0.1635  0.5967 -0.0102
  895MOL0     C20733   5.061   3.344  12.550  0.2477  1.2362  0.6060
  895MOL0     C20734   5.160   3.232  12.575  0.7762 -0.4218 -0.3112
  895MOL0    Cl20735   5.183   3.194  12.749 -0.0196 -0.1628  0.0629
  895MOL0     C20736   5.701   3.829  12.128  0.0089 -0.1366 -0.6236
  895MOL0     C20737   5.798   3.875  12.028  0.1406  0.3124  0.7238
  895MOL0     O20738   6.057   4.054  11.988  0.0745 -0.0050  0.0280
  895MOL0     C20739   6.029   4.170  11.653  0.4201  0.4474  0.3943
  895MOL0     C20740   6.084   4.192  11.526 -0.4570 -0.3606  0.2161
  895MOL0     N20741   6.610   4.537  11.008 -0.4353  0.1104 -0.3164
  895MOL0     N20742   6.720   4.524  10.938 -0.7354  0.3229  1.0885
  895MOL0     C20743   7.657   4.914  10.488 -0.6184  0.5775  0.3438
  895MOL0     C20744   7.796   4.930  10.489 -0.9656 -0.5223 -0.0189
  895MOL0     C20745   8.243   4.815  10.464  0.4362  0.4337  0.1117
  895MOL0     C20746   8.288   4.877  10.350 -0.1755 -0.7202 -0.3586
  895MOL0     C20747   8.427   4.889  10.325  0.5711 -0.7289 -0.9490
  895MOL0     C20748   8.519   4.823  10.399 -0.1065  0.0662 -1.0731
  895MOL0     O20749   8.654   4.810  10.359  0.1992 -0.5898 -0.2510
  895MOL0     C20750   8.701   4.856  10.235 -0.9131 -0.2352 -0.0780
  895MOL0     C20751   8.734   5.010  10.241  0.0258  0.0713  0.5523
  895MOL0     C20752   8.835   5.034  10.355 -0.8752  0.9908 -0.2408
  895MOL0     C20753   8.921   5.164  10.342  0.0914  0.1146 -0.7783
  895MOL0     C20754   8.842   5.281  10.381 -1.1977 -1.2119  0.4241
  895MOL0     C20755   8.772   5.377  10.395 -0.1281  0.5434 -0.0904
  895MOL0     C20756   8.475   4.768  10.524 -0.4166 -0.4295  0.9748
  895MOL0     C20757   8.339   4.760  10.548 -0.2530 -0.1807 -0.4148
  895MOL0     H20758   7.886   4.686  10.277  2.2001  2.6484 -0.3799
  895MOL0     H20759   7.623   4.648  10.292  3.3759 -2.6297 -0.4963
  895MOL0     H20760   7.441   4.835  10.650 -1.8542  1.1081  1.1297
  895MOL0     H20761   7.394   4.953  10.526  3.2355  0.1817  0.0650
  895MOL0     H20762   7.196   4.846  10.632  0.3096 -0.6737 -0.1677
  895MOL0     H20763   7.202   4.775  10.465 -3.2239 -0.9492 -0.1315
  895MOL0     H20764   7.317   4.578  10.600 -1.7421 -0.3149 -0.8550
  895MOL0     H20765   7.242   4.647  10.745 -0.9338  0.2893  1.0803
  895MOL0     H20766   7.028   4.644  10.673  2.3435  1.9314  0.3536
  895MOL0     H20767   7.072   4.581  10.508 -1.0807  0.7349 -0.1147
  895MOL0     H20768   7.181   4.391  10.637  0.8763  1.7921  1.1063
  895MOL0     H20769   7.069   4.441  10.769 -0.4561  3.3457 -0.9543
  895MOL0     H20770   6.956   4.349  10.489  1.2526 -3.6630 -0.4334
  895MOL0     H20771   6.976   4.242  10.631  0.0636  0.6007  0.6344
  895MOL0     H20772   6.810   4.504  10.659  1.6444 -0.6013  0.8454
  895MOL0     H20773   6.746   4.344  10.605 -0.6271  0.1555  1.7456
  895MOL0     H20774   6.907   4.342  10.846  1.5678 -0.7329 -2.3331
  895MOL0     H20775   6.792   4.230  10.787  0.6494 -0.3964  0.8167
  895MOL0     H20776   6.549   4.244  10.869 -2.4556 -0.8964  3.1540
  895MOL0     H20777   6.387   4.483  11.111 -0.0939 -0.3535  1.4935
  895MOL0     H20778   6.319   4.392  10.959  0.5582  0.0831  0.1288
  895MOL0     H20779   6.440   4.275  11.207 -2.6042  1.6855  1.3519
  895MOL0     H20780   6.399   4.189  11.052  0.1752  1.0285 -1.4772
  895MOL0     H20781   6.162   4.206  11.080 -0.4050 -1.1866  0.5930
  895MOL0     H20782   6.173   4.337  11.200 -2.2680 -1.0341 -2.1513
  895MOL0     H20783   6.282   4.051  11.219 -1.4556  0.6113 -1.5498
  895MOL0     H20784   6.127   4.102  11.290  0.8413 -2.6034  3.6083
  895MOL0     H20785   6.390   4.056  11.606 -0.0783  0.0851  1.4274
  895MOL0     H20786   6.408   3.967  11.827 -0.4839 -1.1657 -1.5140
  895MOL0     H20787   6.294   4.018  11.936  0.9561 -1.4239  0.0577
  895MOL0     H20788   6.272   3.868  11.838 -1.1105  0.2889 -1.7869
  895MOL0     H20789   5.661   4.176  11.953 -0.8215  1.1569  1.7093
  895MOL0     H20790   5.498   4.090  12.120 -0.9503 -2.2550  1.9074
  895MOL0     H20791   5.460   4.045  12.336 -1.8700  0.8614 -0.7371
  895MOL0     H20792   5.330   3.978  12.240 -2.3052 -1.7487  1.3999
  895MOL0     H20793   5.390   3.952  12.526  1.8989  1.0434 -2.0619
  895MOL0     H20794   5.230   3.932  12.467  0.9164  0.1818  0.4421
  895MOL0     H20795   5.424   3.708  12.467 -1.7769 -0.9429  2.0343
  895MOL0     H20796   5.302   3.706  12.346  0.8261 -0.9506  0.6612
  895MOL0     H20797   5.277   3.705  12.654  0.5913  1.9924 -0.4784
  895MOL0     H20798   5.140   3.741  12.538 -1.0489 -0.3512 -0.9966
  895MOL0     H20799   5.297   3.474  12.534 -1.5620 -2.5636 -0.2785
  895MOL0     H20800   5.177   3.536  12.420  0.3496  1.1228 -0.0813
  895MOL0     H20801   5.132   3.467  12.711  1.5934  1.4949 -0.4279
  895MOL0     H20802   5.006   3.539  12.595 -0.6510 -0.0800  0.3889
  895MOL0     H20803   5.032   3.347  12.445 -2.5810 -1.5536  1.1435
  895MOL0     H20804   4.969   3.311  12.598 -0.7588 -2.0383 -3.0416
  895MOL0     H20805   5.249   3.252  12.516 -0.2650  2.3077 -1.1335
  895MOL0     H20806   5.109   3.143  12.536  0.7485 -0.9373  0.8613
  895MOL0     H20807   5.717   3.735  12.180 -0.5607  0.4976  0.7362
  895MOL0     H20808   5.870   3.803  11.990 -0.7654  0.5266 -1.5356
  895MOL0     H20809   5.924   4.194  11.667  0.1766  0.2098 -0.8372
  895MOL0     H20810   6.038   4.233  11.436  3.1747 -0.2838 -1.8300
  895MOL0     H20811   7.607   4.983  10.555  2.5050  1.5698  1.8078
  895MOL0     H20812   7.836   5.013  10.545 -1.9265  0.4643 -0.7433
  895MOL0     H20813   8.215   4.920  10.281  0.7963 -1.5452 -1.9700
  895MOL0     H20814   8.450   4.953  10.241 -3.0182  2.7711  0.4103
  895MOL0     H20815   8.798   4.809  10.218  0.1091  2.1678 -1.3328
  895MOL0     H20816   8.642   4.819  10.150  1.9034 -1.0521 -1.7981
  895MOL0     H20817   8.638   5.063  10.252 -0.2734 -0.5442  0.9200
  895MOL0     H20818   8.777   5.045  10.147  0.8545 -1.4195  0.3545
  895MOL0     H20819   8.903   4.950  10.371  3.1812  4.0249  0.0649
  895MOL0     H20820   8.773   5.031  10.445 -2.0212  0.0377 -1.0284
  895MOL0     H20821   8.956   5.181  10.240 -1.6687  2.3198 -1.0899
  895MOL0     H20822   9.005   5.154  10.412 -0.9532 -1.8021  0.2998
  895MOL0     H20823   8.714   5.465  10.377  1.5115  1.3519 -1.7107
  895MOL0     H20824   8.544   4.706  10.580  2.7988  0.8201 -1.2640
  895MOL0     H20825   8.289   4.692  10.617 -3.0275 -1.2877 -3.2287
  896MOL0     O20826   6.332   7.241   4.371  0.5435 -0.3822  0.1244
  896MOL0     C20827   6.417   7.178   4.434  0.8441 -0.0716 -0.7514
  896MOL0     O20828   6.387   7.078   4.527 -0.6329  0.5565  0.9042
  896MOL0     C20829   6.254   7.043   4.548  1.2124 -0.3449 -0.7049
  896MOL0     C20830   6.206   7.059   4.682  1.3193 -0.1759 -0.2032
  896MOL0     C20831   6.068   7.037   4.702  0.7420  1.0910  0.0042
  896MOL0     C20832   5.976   7.003   4.602  0.3635  0.0880 -0.3648
  896MOL0     O20833   5.844   6.983   4.639  0.2049 -0.0222  0.3392
  896MOL0     C20834   5.742   6.907   4.566 -0.0973 -1.0280  0.0645
  896MOL0     C20835   5.648   6.856   4.671  0.4882 -0.2453  0.5485
  896MOL0     C20836   5.573   6.741   4.611 -0.2719  0.0342 -0.3804
  896MOL0     C20837   5.458   6.792   4.519 -0.2377 -0.3257 -0.4203
  896MOL0     C20838   5.379   6.676   4.442 -0.4096 -0.2775 -0.7477
  896MOL0     C20839   5.261   6.618   4.523  0.3114 -0.6167  0.4774
  896MOL0     C20840   5.145   6.709   4.513  0.7801  0.3496  1.2961
  896MOL0     C20841   5.018   6.668   4.596 -1.0386  0.5867  0.7607
  896MOL0     N20842   4.958   6.551   4.540 -0.2948  0.1277 -0.1137
  896MOL0     C20843   4.874   6.530   4.439 -0.5726  0.3517  0.7396
  896MOL0     C20844   4.832   6.400   4.457  1.3677 -0.5014  0.0461
  896MOL0     C20845   4.728   6.323   4.377 -0.0480 -0.9842 -0.0905
  896MOL0     C20846   4.632   6.419   4.294  0.1658  0.3002 -0.8631
  896MOL0     C20847   4.514   6.353   4.218 -0.2201  0.5767  0.4295
  896MOL0     C20848   4.527   6.198   4.198 -0.3670  1.7583  0.5650
  896MOL0     O20849   4.425   6.146   4.112  0.0266  0.2496 -0.4194
  896MOL0     C20850   4.304   6.123   4.170 -1.0612 -0.6015  0.0469
  896MOL0     C20851   4.266   5.998   4.222  0.1768 -0.2026 -0.2710
  896MOL0     C20852   4.130   5.966   4.257  0.3432 -0.8216  0.2775
  896MOL0     C20853   4.111   5.817   4.311  0.4520 -1.0005 -0.5867
  896MOL0     C20854   4.038   6.071   4.255 -0.1675 -0.4952 -0.6047
  896MOL0     C20855   3.896   6.051   4.285  0.8565 -0.1684  0.7323
  896MOL0     O20856   3.879   5.946   4.374 -0.1554  0.3007 -0.3567
  896MOL0     C20857   3.759   5.917   4.447  0.8446  0.0715 -0.5981
  896MOL0     C20858   3.765   5.827   4.564 -0.0967  0.4687 -0.0235
  896MOL0     C20859   3.654   5.813   4.642 -0.5951 -0.2245 -0.0046
  896MOL0     C20860   3.528   5.880   4.616  0.1714 -0.3772  0.4224
  896MOL0     O20861   3.412   5.846   4.681  0.2911  0.2524 -0.1280
  896MOL0     C20862   3.293   5.919   4.650  1.1524  0.4076  0.2081
  896MOL0     C20863   3.212   5.925   4.777 -0.0131  0.1765  0.2100
  896MOL0     C20864   3.080   5.998   4.759  0.5461 -0.2053  0.2708
  896MOL0     C20865   2.965   5.919   4.695 -0.4064  0.2047  0.0527
  896MOL0     C20866   2.843   6.000   4.687 -0.5290  0.3894  0.0450
  896MOL0     C20867   2.744   5.945   4.574 -0.4394  0.2929 -0.1532
  896MOL0     C20868   2.611   5.999   4.590 -0.3379  0.5277  0.3075
  896MOL0     C20869   2.602   6.152   4.569 -0.6075 -0.0099  0.8046
  896MOL0    Cl20870   2.435   6.214   4.584 -0.4164 -0.2783  0.2791
  896MOL0     C20871   3.523   5.955   4.501  0.3758 -0.3219  0.1341
  896MOL0     C20872   3.623   5.964   4.410 -0.1743 -0.0815  0.2692
  896MOL0     O20873   3.811   6.128   4.235 -0.3286 -0.6485  0.4645
  896MOL0     C20874   4.075   6.202   4.211 -1.1338  0.7149 -0.1700
  896MOL0     C20875   4.205   6.225   4.170 -1.3078 -0.0842  0.5667
  896MOL0     N20876   4.877   6.351   4.574 -1.2957 -0.2430 -0.4928
  896MOL0     N20877   4.963   6.439   4.615 -1.1552 -0.2157 -0.2054
  896MOL0     C20878   6.030   6.991   4.470  0.6583  1.3123 -0.3255
  896MOL0     C20879   6.166   7.017   4.447  0.2133  0.4584 -0.3814
  896MOL0     C20880   6.560   7.196   4.405 -0.1194  0.4220  0.1031
  896MOL0     C20881   6.597   7.267   4.291 -0.0196 -0.9074 -0.1152
  896MOL0     C20882   6.738   7.290   4.260  0.8222  0.4128  0.7217
  896MOL0     C20883   6.836   7.235   4.344  0.7967  0.1710 -0.1944
  896MOL0     O20884   6.974   7.238   4.327 -0.1738 -0.1664 -0.5867
  896MOL0     C20885   7.040   7.317   4.234  0.9921 -0.4136  0.9767
  896MOL0     C20886   7.053   7.462   4.293  0.0640 -0.4427 -0.6864
  896MOL0     C20887   7.093   7.576   4.193  0.6712 -0.2024 -0.5538
  896MOL0     C20888   7.212   7.546   4.121 -0.2167  0.3261 -0.1356
  896MOL0     C20889   7.326   7.540   4.220  0.5246 -0.2992 -1.4629
  896MOL0     C20890   7.402   7.516   4.317 -0.6829 -0.0664  0.0303
  896MOL0     C20891   6.800   7.185   4.470  0.0628 -0.5124  0.3529
  896MOL0     C20892   6.660   7.161   4.491  0.3550  0.1551 -0.0684
  896MOL0     H20893   6.266   7.088   4.768 -0.0061  2.3428 -0.0267
  896MOL0     H20894   6.024   7.021   4.801  3.5537 -2.6799  0.8642
  896MOL0     H20895   5.696   6.977   4.497 -2.6687 -1.2689  1.4364
  896MOL0     H20896   5.785   6.837   4.493 -0.0527 -1.9262  0.9274
  896MOL0     H20897   5.707   6.836   4.761  0.1768  0.3967  0.9004
  896MOL0     H20898   5.581   6.936   4.703  2.4987  1.8739 -0.2608
  896MOL0     H20899   5.628   6.661   4.561  1.0216 -0.0096  1.0370
  896MOL0     H20900   5.537   6.682   4.696  2.2404 -0.6849  0.2571
  896MOL0     H20901   5.386   6.859   4.567  4.0031  2.2881  3.0765
  896MOL0     H20902   5.506   6.860   4.449 -0.0343 -0.5934 -0.5434
  896MOL0     H20903   5.341   6.727   4.353  1.1290  3.0956  0.3813
  896MOL0     H20904   5.446   6.593   4.420  5.0250  2.2403  3.6654
  896MOL0     H20905   5.227   6.521   4.488 -0.8548 -0.0305 -0.0805
  896MOL0     H20906   5.279   6.617   4.631 -2.4448  1.0916  1.0564
  896MOL0     H20907   5.164   6.812   4.545  0.1250  0.7170  0.5410
  896MOL0     H20908   5.105   6.706   4.411  2.6543 -0.1384  0.5139
  896MOL0     H20909   4.936   6.741   4.598 -1.5257  0.0386  1.6849
  896MOL0     H20910   5.056   6.657   4.698  2.3676 -0.0897 -0.4534
  896MOL0     H20911   4.851   6.597   4.356  0.9170 -2.7561 -2.4172
  896MOL0     H20912   4.776   6.255   4.306  2.0923 -1.1864  1.4684
  896MOL0     H20913   4.665   6.268   4.448 -1.5575 -0.3699 -0.8934
  896MOL0     H20914   4.700   6.474   4.229  0.5439 -0.3361 -1.0184
  896MOL0     H20915   4.587   6.490   4.364  0.7552  1.3194 -1.4990
  896MOL0     H20916   4.512   6.400   4.119  0.6979  1.5372  0.8408
  896MOL0     H20917   4.425   6.381   4.275  0.7688  1.4986  1.5668
  896MOL0     H20918   4.526   6.151   4.297 -4.0308  1.1682  0.4130
  896MOL0     H20919   4.621   6.172   4.150 -0.7282  0.7342  0.3869
  896MOL0     H20920   4.338   5.916   4.227 -0.8312 -1.0565  1.6446
  896MOL0     H20921   4.209   5.769   4.301  1.8925  1.3669  1.1539
  896MOL0     H20922   4.086   5.821   4.418  1.0108 -0.3142 -0.4707
  896MOL0     H20923   4.037   5.751   4.265  2.4807 -3.1462 -0.9203
  896MOL0     H20924   3.857   5.771   4.563  0.2120  0.9539 -1.1963
  896MOL0     H20925   3.658   5.740   4.722 -5.3797  1.5878  2.2883
  896MOL0     H20926   3.311   6.022   4.620 -1.9082  1.0213  0.1278
  896MOL0     H20927   3.223   5.879   4.576 -2.8783  2.4518  2.5857
  896MOL0     H20928   3.199   5.827   4.823 -3.4785  0.0971 -0.6364
  896MOL0     H20929   3.261   5.986   4.853 -2.0742  0.9599  0.9797
  896MOL0     H20930   3.092   6.096   4.711 -1.0948  1.2711  2.6376
  896MOL0     H20931   3.053   6.019   4.863  1.1748 -2.0979  0.8599
  896MOL0     H20932   2.990   5.890   4.593  2.4656  0.4868  0.5986
  896MOL0     H20933   2.936   5.832   4.755 -0.1307 -1.3746 -1.9865
  896MOL0     H20934   2.867   6.104   4.662  0.1618  0.8704  2.4472
  896MOL0     H20935   2.791   6.001   4.784 -2.4204  0.6345 -0.9212
  896MOL0     H20936   2.781   5.956   4.472  3.0538 -1.8218  0.7166
  896MOL0     H20937   2.741   5.838   4.596  1.8249 -0.2170 -1.9649
  896MOL0     H20938   2.567   5.979   4.688 -0.6644  0.6738  0.1923
  896MOL0     H20939   2.543   5.953   4.517  0.6756  0.9099 -0.9170
  896MOL0     H20940   2.647   6.177   4.473 -0.6691 -1.7028  0.3072
  896MOL0     H20941   2.673   6.191   4.642  1.0268 -0.9949 -0.2073
  896MOL0     H20942   3.427   5.994   4.468  0.1151 -0.5335  0.6166
  896MOL0     H20943   3.598   6.015   4.318  0.0548 -0.1814  0.1517
  896MOL0     H20944   4.005   6.285   4.214 -3.1901 -0.9236 -0.7621
  896MOL0     H20945   4.230   6.327   4.144 -0.3693  0.1237  2.1346
  896MOL0     H20946   5.964   6.955   4.392 -0.5751  0.5151  1.0458
  896MOL0     H20947   6.200   7.013   4.345 -0.0842 -0.1738 -0.4586
  896MOL0     H20948   6.525   7.326   4.236  1.3843  0.6617 -0.3393
  896MOL0     H20949   6.768   7.359   4.182  2.5668 -0.3907  0.6456
  896MOL0     H20950   7.136   7.271   4.207 -0.3068 -2.0412 -1.1772
  896MOL0     H20951   6.980   7.322   4.143  0.4013  0.3317  1.3988
  896MOL0     H20952   7.109   7.454   4.387 -0.9869  1.1432  0.1142
  896MOL0     H20953   6.956   7.485   4.338 -0.7635 -1.8651 -1.6622
  896MOL0     H20954   7.105   7.660   4.261  1.6790 -0.4578 -0.3989
  896MOL0     H20955   7.019   7.617   4.124  3.0897  3.3511 -1.2781
  896MOL0     H20956   7.235   7.630   4.055  0.7174  0.3402  0.1885
  896MOL0     H20957   7.201   7.454   4.062 -3.1866  1.6267 -1.8329
  896MOL0     H20958   7.468   7.504   4.401  2.1320 -1.8767 -2.2688
  896MOL0     H20959   6.875   7.150   4.540 -1.6377  1.6308  3.4482
  896MOL0     H20960   6.623   7.107   4.577 -2.6343  1.4651 -0.4308
  897MOL0     O20961   6.454   8.922   4.605 -0.1870 -0.0100  0.6036
  897MOL0     C20962   6.503   8.852   4.690 -0.0038  0.0908 -0.6784
  897MOL0     O20963   6.432   8.806   4.803 -0.5920  0.2232 -0.0185
  897MOL0     C20964   6.306   8.864   4.833  0.6730  0.0151 -0.0454
  897MOL0     C20965   6.188   8.790   4.831 -0.3263 -0.2305  0.4875
  897MOL0     C20966   6.061   8.854   4.848 -0.6018 -0.1337  0.1511
  897MOL0     C20967   6.050   8.994   4.868  0.5498  0.4900 -0.2124
  897MOL0     O20968   5.930   9.058   4.901  0.1077  1.2642 -0.0078
  897MOL0     C20969   5.800   9.005   4.868 -0.0937  1.1215  0.9665
  897MOL0     C20970   5.708   9.117   4.846 -0.1438  0.0989 -0.6545
  897MOL0     C20971   5.743   9.233   4.747  0.0428  0.5682  0.5562
  897MOL0     C20972   5.625   9.319   4.720  0.1144  0.3145 -0.4385
  897MOL0     C20973   5.666   9.444   4.645  0.2205 -0.4128  0.3118
  897MOL0     C20974   5.537   9.530   4.611 -0.8029  0.6463  0.2888
  897MOL0     C20975   5.563   9.658   4.532 -0.5473  0.1037 -0.4983
  897MOL0     C20976   5.621   9.650   4.390  0.2070  0.1918 -0.0485
  897MOL0     N20977   5.537   9.566   4.304 -0.4475  0.2236  0.2360
  897MOL0     C20978   5.413   9.587   4.260  0.5466  0.0836  0.1797
  897MOL0     C20979   5.374   9.474   4.201 -0.0385 -0.0895 -0.2307
  897MOL0     C20980   5.239   9.440   4.148 -0.4829  0.3121 -0.2361
  897MOL0     C20981   5.161   9.382   4.264  0.0623 -0.3816  0.3901
  897MOL0     C20982   5.016   9.379   4.225 -0.8095  0.3688  0.1079
  897MOL0     C20983   4.934   9.302   4.316  0.0958 -0.1116  0.1818
  897MOL0     O20984   4.803   9.357   4.291 -0.7643  0.6237  0.4713
  897MOL0     C20985   4.693   9.290   4.345 -0.3492 -0.4326 -0.0405
  897MOL0     C20986   4.573   9.357   4.379  0.4666 -0.0725 -0.0369
  897MOL0     C20987   4.481   9.285   4.457  0.1902  0.7081  0.3875
  897MOL0     C20988   4.368   9.368   4.517 -0.2258  0.2143 -0.2258
  897MOL0     C20989   4.485   9.145   4.468 -0.9320  0.2210  0.0509
  897MOL0     C20990   4.372   9.056   4.505 -0.7612 -0.1790 -0.1606
  897MOL0     O20991   4.261   9.115   4.561 -0.2935  0.1591  0.4453
  897MOL0     C20992   4.146   9.032   4.563  1.0926 -0.0641 -0.2673
  897MOL0     C20993   4.067   9.029   4.440  0.0696  0.3052 -0.0114
  897MOL0     C20994   3.949   8.955   4.437 -0.3654 -0.0292 -0.7141
  897MOL0     C20995   3.908   8.885   4.550  1.1822 -0.0867 -0.7275
  897MOL0     O20996   3.795   8.814   4.537 -0.0096  0.0809  0.5872
  897MOL0     C20997   3.679   8.892   4.536  0.8832  0.1908 -0.0204
  897MOL0     C20998   3.589   8.862   4.656  0.6161 -0.0006 -1.0934
  897MOL0     C20999   3.540   8.710   4.665 -1.5974  0.6865  0.1391
  897MOL0     C21000   3.416   8.709   4.754  0.1181  0.4232 -1.5349
  897MOL0     C21001   3.363   8.567   4.755  0.1206  0.1356  0.4632
  897MOL0     C21002   3.254   8.557   4.855  0.3125  0.2253  1.1050
  897MOL0     C21003   3.198   8.413   4.863 -0.4464 -0.0874  0.1016
  897MOL0     C21004   3.125   8.392   4.997  0.5163 -0.4119  0.1137
  897MOL0    Cl21005   3.021   8.245   4.968  0.3303  0.2468 -0.0793
  897MOL0     C21006   3.977   8.897   4.669 -0.1278  0.4864  0.2173
  897MOL0     C21007   4.089   8.979   4.680 -0.0739  0.9634 -0.3711
  897MOL0     O21008   4.384   8.936   4.481 -0.3828 -0.1883  0.6394
  897MOL0     C21009   4.599   9.077   4.422 -1.0294 -0.4413 -0.4454
  897MOL0     C21010   4.708   9.148   4.369  1.0703  1.1998 -0.1632
  897MOL0     N21011   5.485   9.397   4.194  0.4598 -0.1835  0.5931
  897MOL0     N21012   5.578   9.448   4.261  0.8650 -0.5072  0.3119
  897MOL0     C21013   6.174   9.063   4.870 -0.3273 -0.1589 -0.0453
  897MOL0     C21014   6.299   9.003   4.858  0.1833 -0.0759  0.2333
  897MOL0     C21015   6.631   8.792   4.671  0.1988  0.9249 -0.4255
  897MOL0     C21016   6.694   8.710   4.771  0.5875  0.2320 -0.7833
  897MOL0     C21017   6.822   8.660   4.752 -0.5414  0.2086 -0.2174
  897MOL0     C21018   6.883   8.683   4.622 -0.5967 -0.0678 -1.1085
  897MOL0     O21019   7.007   8.646   4.580 -0.0920 -0.0154 -0.6710
  897MOL0     C21020   7.090   8.553   4.650 -0.0211 -0.6084 -0.1622
  897MOL0     C21021   7.172   8.631   4.748  0.3576 -0.3246  0.1942
  897MOL0     C21022   7.265   8.538   4.830 -0.6604  0.1094  0.5870
  897MOL0     C21023   7.380   8.623   4.906  0.1789  0.1275 -0.1005
  897MOL0     C21024   7.476   8.684   4.810  0.5315 -0.1901 -0.0542
  897MOL0     C21025   7.551   8.733   4.737 -0.6482 -0.6499  0.6738
  897MOL0     C21026   6.813   8.754   4.526  0.3931  0.3539 -0.1562
  897MOL0     C21027   6.688   8.806   4.553  0.2282 -0.4457  0.3109
  897MOL0     H21028   6.201   8.683   4.821  3.8121  0.0061  1.5037
  897MOL0     H21029   5.969   8.800   4.870 -1.5528  2.1408  2.1487
  897MOL0     H21030   5.811   8.949   4.775 -2.4707 -0.0867  1.3483
  897MOL0     H21031   5.762   8.931   4.939 -0.1299  0.5458  0.3528
  897MOL0     H21032   5.606   9.088   4.821 -0.3341 -0.7417  0.9583
  897MOL0     H21033   5.689   9.166   4.943 -0.5821  0.2761 -0.8274
  897MOL0     H21034   5.822   9.299   4.782 -0.1067  1.3553 -0.5459
  897MOL0     H21035   5.779   9.191   4.653 -0.7428  1.4285 -0.1464
  897MOL0     H21036   5.556   9.261   4.658 -1.2306 -1.4614  2.4773
  897MOL0     H21037   5.575   9.340   4.815 -0.3886 -0.7636 -0.4443
  897MOL0     H21038   5.740   9.500   4.703  1.2548  0.3556 -1.6393
  897MOL0     H21039   5.718   9.423   4.551 -0.4636  2.2425 -0.7208
  897MOL0     H21040   5.464   9.474   4.553 -0.1768  1.9130 -1.8533
  897MOL0     H21041   5.500   9.544   4.713  3.0533  1.8698  1.7085
  897MOL0     H21042   5.462   9.698   4.526 -0.3086  0.6274 -1.1853
  897MOL0     H21043   5.620   9.725   4.597 -0.0132 -0.3711 -0.4595
  897MOL0     H21044   5.718   9.601   4.394  0.5260  0.7577 -0.6892
  897MOL0     H21045   5.646   9.749   4.350  0.3116  0.4845  0.7091
  897MOL0     H21046   5.356   9.677   4.282  0.4148 -0.3551  1.6949
  897MOL0     H21047   5.197   9.533   4.110  0.2435 -0.6485 -3.7239
  897MOL0     H21048   5.260   9.386   4.055  4.9094  1.9981 -0.2874
  897MOL0     H21049   5.157   9.450   4.349 -3.5304 -0.4245  0.4310
  897MOL0     H21050   5.200   9.284   4.293 -0.3045 -0.3925  0.8683
  897MOL0     H21051   4.995   9.331   4.130 -1.5773 -0.9638  0.9222
  897MOL0     H21052   4.986   9.484   4.221  1.5640  1.0716 -2.0481
  897MOL0     H21053   4.949   9.328   4.421  0.7901 -0.9179  0.2871
  897MOL0     H21054   4.955   9.197   4.295 -3.5756 -1.0383  0.4619
  897MOL0     H21055   4.561   9.464   4.365  0.6231  0.1219  1.1780
  897MOL0     H21056   4.390   9.475   4.523  0.3297  0.1770 -1.3404
  897MOL0     H21057   4.283   9.355   4.449 -0.4251 -0.0019  0.0611
  897MOL0     H21058   4.348   9.343   4.622 -1.5304  0.5468 -0.3735
  897MOL0     H21059   4.109   9.082   4.355  0.1795 -1.1612 -0.9215
  897MOL0     H21060   3.896   8.954   4.342  0.7566  0.2658 -1.3532
  897MOL0     H21061   3.703   8.999   4.533 -2.3402  1.0155 -2.0444
  897MOL0     H21062   3.618   8.863   4.450  2.4801 -2.8008 -0.2574
  897MOL0     H21063   3.642   8.888   4.748 -1.8124  0.8787  0.1411
  897MOL0     H21064   3.501   8.926   4.653 -0.7972 -1.7786  0.2112
  897MOL0     H21065   3.620   8.645   4.704 -0.7839 -1.1283 -4.0174
  897MOL0     H21066   3.526   8.675   4.563  0.0860  0.8603 -0.1835
  897MOL0     H21067   3.456   8.735   4.853  3.8080 -1.3968 -2.3479
  897MOL0     H21068   3.333   8.779   4.739 -0.3671 -0.0256 -0.9992
  897MOL0     H21069   3.436   8.491   4.782 -1.2786 -0.4891  2.6694
  897MOL0     H21070   3.322   8.540   4.657  0.0995  0.7904  0.2874
  897MOL0     H21071   3.289   8.598   4.951 -0.5400  3.8692  0.0316
  897MOL0     H21072   3.169   8.623   4.835 -0.3259 -0.7573  0.5074
  897MOL0     H21073   3.289   8.351   4.860  0.7328  1.6103 -2.6087
  897MOL0     H21074   3.133   8.382   4.781  1.6082 -0.7322 -1.3781
  897MOL0     H21075   3.062   8.480   5.018 -0.4895 -0.9473 -0.5503
  897MOL0     H21076   3.195   8.369   5.078 -0.3989  0.3578  1.1620
  897MOL0     H21077   3.941   8.839   4.753  2.7107  1.0614  1.9469
  897MOL0     H21078   4.144   8.982   4.774  0.5667 -0.7348 -0.6512
  897MOL0     H21079   4.622   8.972   4.436 -0.8370 -0.5663 -1.6177
  897MOL0     H21080   4.798   9.096   4.339  0.6391  1.2310 -1.5877
  897MOL0     H21081   6.158   9.170   4.880 -2.2326 -0.4494  0.4431
  897MOL0     H21082   6.386   9.068   4.853  0.9117 -1.0994 -1.6030
  897MOL0     H21083   6.645   8.697   4.867 -0.2626 -0.3968 -1.2928
  897MOL0     H21084   6.861   8.594   4.829  1.5458  1.1539 -0.3930
  897MOL0     H21085   7.038   8.478   4.710  1.8972 -2.5242 -0.7429
  897MOL0     H21086   7.155   8.503   4.577  0.6919  1.1390 -0.7781
  897MOL0     H21087   7.099   8.679   4.814  0.9500  0.8490  0.0218
  897MOL0     H21088   7.228   8.708   4.695 -0.9675  1.0715  0.7402
  897MOL0     H21089   7.324   8.487   4.753 -0.6148  1.2290 -0.1371
  897MOL0     H21090   7.209   8.461   4.885 -2.9932  1.4941  0.2584
  897MOL0     H21091   7.440   8.556   4.968 -0.2887  0.7653  1.0726
  897MOL0     H21092   7.338   8.691   4.981 -0.7232 -1.3202  0.7491
  897MOL0     H21093   7.611   8.782   4.663 -0.3713 -1.7613  0.1441
  897MOL0     H21094   6.864   8.774   4.432  1.7731  0.1177  0.5261
  897MOL0     H21095   6.639   8.862   4.475  1.5541  0.6627  0.2425
  898MOL0     O21096   7.432   8.406   6.312 -0.3382 -0.2437  0.0385
  898MOL0     C21097   7.505   8.442   6.400  0.5233  0.1670 -0.8073
  898MOL0     O21098   7.465   8.492   6.524  0.0340 -0.4329 -0.0764
  898MOL0     C21099   7.332   8.500   6.562  0.6791 -0.3737 -0.6465
  898MOL0     C21100   7.306   8.594   6.665 -0.8247 -0.2594 -0.1350
  898MOL0     C21101   7.170   8.614   6.706 -0.8265 -0.8919  0.0238
  898MOL0     C21102   7.069   8.520   6.672  0.4626  0.1855 -0.2432
  898MOL0     O21103   6.944   8.515   6.724 -0.2979  0.5195 -0.8908
  898MOL0     C21104   6.922   8.598   6.843 -0.0767  0.2655 -0.4499
  898MOL0     C21105   6.786   8.561   6.889  0.5223  0.1759 -0.5154
  898MOL0     C21106   6.685   8.606   6.788  0.8519  0.3470  0.3356
  898MOL0     C21107   6.555   8.516   6.814 -0.6980  0.2657 -0.1791
  898MOL0     C21108   6.479   8.519   6.686  0.0281  0.2941 -0.3455
  898MOL0     C21109   6.338   8.465   6.701  0.1855 -0.5531 -0.0490
  898MOL0     C21110   6.239   8.567   6.758  0.2937 -0.0862  0.2728
  898MOL0     C21111   6.205   8.661   6.640  0.0821 -0.4202  0.5612
  898MOL0     N21112   6.096   8.753   6.668 -0.3174  0.0533 -0.2858
  898MOL0     C21113   5.960   8.723   6.651  0.2004  1.0210  0.0903
  898MOL0     C21114   5.904   8.834   6.719  0.1371  0.0344  0.2942
  898MOL0     C21115   5.762   8.874   6.738 -0.6544  0.1691  0.1544
  898MOL0     C21116   5.689   8.913   6.598  0.0057 -0.6369  0.1043
  898MOL0     C21117   5.677   8.796   6.501 -0.5804 -0.0266  1.3905
  898MOL0     C21118   5.593   8.827   6.374 -0.1737  0.4048 -0.6816
  898MOL0     O21119   5.455   8.824   6.414 -0.1523 -0.2968 -0.0399
  898MOL0     C21120   5.359   8.808   6.314  0.0127  0.0275  0.1860
  898MOL0     C21121   5.229   8.775   6.350  0.4953  0.2780 -1.5894
  898MOL0     C21122   5.125   8.749   6.258  1.4894 -0.1078  0.0312
  898MOL0     C21123   4.984   8.727   6.317 -0.1999  0.6164  0.3571
  898MOL0     C21124   5.160   8.749   6.119 -0.2015 -0.2774 -0.4285
  898MOL0     C21125   5.063   8.724   6.015  1.4626 -0.1657 -0.1641
  898MOL0     O21126   4.944   8.679   6.049  0.6265  0.0164  0.5374
  898MOL0     C21127   4.853   8.646   5.956  0.5695 -0.7585  0.3205
  898MOL0     C21128   4.866   8.537   5.864  0.0316  0.7542  0.0888
  898MOL0     C21129   4.776   8.512   5.760  0.4233 -0.1978 -0.3905
  898MOL0     C21130   4.653   8.574   5.765  0.0584 -0.2706  0.2402
  898MOL0     O21131   4.554   8.523   5.684 -0.5123  0.2796  0.1084
  898MOL0     C21132   4.458   8.606   5.623  0.0104  0.5070 -0.6083
  898MOL0     C21133   4.355   8.502   5.558 -0.9108  0.3610 -0.0778
  898MOL0     C21134   4.219   8.522   5.620  0.5965  0.2058 -0.4827
  898MOL0     C21135   4.205   8.457   5.753  1.2482  0.4950 -0.4622
  898MOL0     C21136   4.070   8.423   5.809  0.7047  0.4613  0.4850
  898MOL0     C21137   4.053   8.378   5.961 -0.3820  0.2444 -0.0089
  898MOL0     C21138   3.913   8.413   6.013  0.2657  0.6243  0.6376
  898MOL0     C21139   3.913   8.435   6.158 -0.8450  0.3455 -0.1391
  898MOL0    Cl21140   3.978   8.289   6.244  0.5284  0.5800 -0.0899
  898MOL0     C21141   4.630   8.677   5.861 -0.1097 -0.4483 -0.1305
  898MOL0     C21142   4.727   8.716   5.957  0.3376 -0.0971  0.2334
  898MOL0     O21143   5.092   8.749   5.900 -0.2439  0.1175  0.0827
  898MOL0     C21144   5.287   8.782   6.084 -0.6937 -0.2125  0.4611
  898MOL0     C21145   5.391   8.800   6.177  1.2469 -0.3135  0.3564
  898MOL0     N21146   6.000   8.923   6.764 -0.3462  0.8076 -0.1818
  898MOL0     N21147   6.117   8.875   6.733  0.4033 -1.0460  1.0163
  898MOL0     C21148   7.098   8.423   6.580  0.9361 -0.2735  0.0893
  898MOL0     C21149   7.228   8.414   6.515  1.0985 -0.3365 -0.5678
  898MOL0     C21150   7.650   8.412   6.380  0.5678 -0.6189  0.1969
  898MOL0     C21151   7.738   8.413   6.483  0.1845 -0.4644 -0.7166
  898MOL0     C21152   7.877   8.395   6.455  0.8836 -0.2328 -0.8229
  898MOL0     C21153   7.928   8.370   6.326 -0.1501 -0.2683  0.2126
  898MOL0     O21154   8.062   8.346   6.318  0.2672 -0.9419  0.4991
  898MOL0     C21155   8.128   8.405   6.209  0.0526 -0.6172 -0.2483
  898MOL0     C21156   8.164   8.303   6.100 -0.3316 -0.5202 -1.1222
  898MOL0     C21157   8.253   8.187   6.153 -0.4294 -0.3945 -0.8038
  898MOL0     C21158   8.376   8.230   6.244  0.1588  0.4348 -0.4444
  898MOL0     C21159   8.474   8.314   6.162 -0.4322 -0.3612 -0.2975
  898MOL0     C21160   8.561   8.390   6.109 -0.3882  0.4404  0.9460
  898MOL0     C21161   7.836   8.352   6.220  0.7877 -0.8875 -0.6768
  898MOL0     C21162   7.698   8.374   6.247 -0.5192 -0.6095 -0.2714
  898MOL0     H21163   7.382   8.655   6.713 -1.3599  3.1972 -3.2755
  898MOL0     H21164   7.144   8.705   6.761 -1.0042  0.2779 -1.9121
  898MOL0     H21165   6.995   8.570   6.919  0.6993  0.9320 -0.9357
  898MOL0     H21166   6.923   8.706   6.827 -1.4102 -0.0409 -3.2721
  898MOL0     H21167   6.783   8.452   6.905  4.0765  0.3174  2.1856
  898MOL0     H21168   6.770   8.603   6.988  2.0337 -0.2326 -0.0802
  898MOL0     H21169   6.661   8.713   6.788  0.6677  0.3307 -1.7435
  898MOL0     H21170   6.713   8.594   6.683 -3.7053 -3.9218 -0.7715
  898MOL0     H21171   6.574   8.410   6.830 -1.5921  0.3545  1.8217
  898MOL0     H21172   6.512   8.564   6.903  2.4952 -1.3278  2.3967
  898MOL0     H21173   6.477   8.615   6.632  2.2591 -1.4274 -3.8714
  898MOL0     H21174   6.542   8.456   6.622 -1.2849 -2.3100  0.7919
  898MOL0     H21175   6.305   8.428   6.604  0.3256 -2.3214  0.5258
  898MOL0     H21176   6.347   8.380   6.771  0.8399  1.2189  2.1421
  898MOL0     H21177   6.141   8.528   6.787  0.3984 -0.9986 -0.5246
  898MOL0     H21178   6.285   8.622   6.840 -1.9287  1.8787  0.3163
  898MOL0     H21179   6.170   8.603   6.554 -1.9691 -0.9893  1.7077
  898MOL0     H21180   6.289   8.722   6.607 -1.1560  2.1535  1.8635
  898MOL0     H21181   5.914   8.634   6.608 -1.7352  0.3861  3.1419
  898MOL0     H21182   5.716   8.784   6.780  0.8768  0.4167  2.5456
  898MOL0     H21183   5.750   8.954   6.811 -1.1822  0.1261  0.1237
  898MOL0     H21184   5.746   8.996   6.555 -0.2800  0.4430  1.7149
  898MOL0     H21185   5.586   8.943   6.619 -0.4610 -1.2748 -1.1430
  898MOL0     H21186   5.633   8.712   6.557 -1.8221  1.6016  2.9960
  898MOL0     H21187   5.774   8.765   6.462 -0.2174  0.4089  1.9340
  898MOL0     H21188   5.607   8.754   6.294 -1.6740  3.1358 -3.6414
  898MOL0     H21189   5.596   8.924   6.323 -1.0956 -0.4143 -2.3816
  898MOL0     H21190   5.213   8.761   6.456  1.7961 -0.2780 -1.4485
  898MOL0     H21191   4.909   8.798   6.281  1.2557  0.6497 -2.9925
  898MOL0     H21192   4.948   8.626   6.296  0.2691  0.4637  0.2862
  898MOL0     H21193   4.992   8.724   6.426  0.6672 -0.6253  0.2809
  898MOL0     H21194   4.962   8.486   5.854 -0.5180 -0.2226 -0.3670
  898MOL0     H21195   4.793   8.442   5.679 -0.4443 -1.5718  0.5538
  898MOL0     H21196   4.418   8.679   5.695  1.7625 -0.8824  1.9532
  898MOL0     H21197   4.510   8.664   5.547  0.5459  1.3917  0.4035
  898MOL0     H21198   4.348   8.526   5.452  1.5966  1.9228  0.0348
  898MOL0     H21199   4.391   8.399   5.563 -3.1525 -0.4278  1.4559
  898MOL0     H21200   4.148   8.483   5.547  2.1718 -2.1168 -0.8939
  898MOL0     H21201   4.206   8.630   5.632 -1.4456 -0.1234  0.6119
  898MOL0     H21202   4.256   8.364   5.726  2.1041  0.6543  0.5355
  898MOL0     H21203   4.261   8.507   5.833  0.6697 -1.2695  1.1416
  898MOL0     H21204   4.024   8.351   5.740 -0.8834  3.5474 -1.9589
  898MOL0     H21205   4.007   8.511   5.796 -2.0501 -1.4844 -0.4823
  898MOL0     H21206   4.074   8.272   5.978  0.5786  0.3982 -0.1652
  898MOL0     H21207   4.135   8.422   6.019 -0.0082 -0.4446  0.0020
  898MOL0     H21208   3.844   8.330   5.991  1.7170 -0.7833  1.1789
  898MOL0     H21209   3.873   8.500   5.961 -0.5079 -0.0786  0.0240
  898MOL0     H21210   3.810   8.457   6.189 -1.4660 -0.9710 -1.1814
  898MOL0     H21211   3.966   8.529   6.175 -2.5796  1.0870  1.5637
  898MOL0     H21212   4.536   8.730   5.852  1.7180  2.9538 -0.9324
  898MOL0     H21213   4.706   8.807   6.012  3.4970  1.2133 -0.5234
  898MOL0     H21214   5.308   8.789   5.978  2.0627  0.5948  0.9679
  898MOL0     H21215   5.485   8.811   6.124  0.5263 -0.0721 -0.9310
  898MOL0     H21216   7.012   8.359   6.561  1.6847 -1.4310  0.4671
  898MOL0     H21217   7.245   8.341   6.436  0.4117 -0.1499 -0.9000
  898MOL0     H21218   7.709   8.433   6.586 -1.3594 -0.3230 -1.1521
  898MOL0     H21219   7.940   8.380   6.543 -0.7008 -1.2263  0.1775
  898MOL0     H21220   8.069   8.483   6.160 -0.4212 -0.2621  0.8707
  898MOL0     H21221   8.223   8.445   6.246  0.9450 -2.1024 -0.8391
  898MOL0     H21222   8.214   8.361   6.022  1.9630  0.1942  0.7710
  898MOL0     H21223   8.067   8.267   6.063 -1.0918  3.1785 -3.2826
  898MOL0     H21224   8.303   8.134   6.071 -0.0823 -0.4694 -0.5457
  898MOL0     H21225   8.201   8.108   6.208  1.6953  0.5074  2.7780
  898MOL0     H21226   8.437   8.146   6.276 -0.0350  0.4690  0.0162
  898MOL0     H21227   8.344   8.293   6.327 -0.1156  0.4253 -0.5406
  898MOL0     H21228   8.637   8.450   6.063 -1.3464  0.0840 -1.2109
  898MOL0     H21229   7.860   8.329   6.117 -1.9912 -1.8316 -1.1992
  898MOL0     H21230   7.625   8.366   6.167  0.8810 -1.3855 -1.5271
  899MOL0     O21231   6.942   6.068   5.298  0.5965 -0.3937  0.2901
  899MOL0     C21232   6.942   6.141   5.396  0.3552  0.1559  0.3105
  899MOL0     O21233   6.833   6.151   5.483  0.8402  0.3479 -0.1776
  899MOL0     C21234   6.726   6.059   5.473  0.0807  0.6657  0.1782
  899MOL0     C21235   6.602   6.117   5.499 -0.5669 -1.4325 -0.6796
  899MOL0     C21236   6.478   6.051   5.491  0.3909 -0.2534 -0.0047
  899MOL0     C21237   6.479   5.920   5.453  0.4116  0.5466 -0.1550
  899MOL0     O21238   6.355   5.865   5.450  0.2529  0.5144  0.0553
  899MOL0     C21239   6.347   5.738   5.405  0.6056 -0.1565 -0.1741
  899MOL0     C21240   6.196   5.729   5.385  0.2647  0.4738 -0.0275
  899MOL0     C21241   6.118   5.749   5.511  0.1923 -0.2722  1.1093
  899MOL0     C21242   6.146   5.638   5.612  0.0716 -0.4889 -0.8593
  899MOL0     C21243   6.050   5.676   5.730 -0.5218 -0.3625 -0.4570
  899MOL0     C21244   6.077   5.588   5.854  0.3065  0.5524 -0.2075
  899MOL0     C21245   5.988   5.648   5.967  0.2518 -0.0415 -0.1783
  899MOL0     C21246   6.001   5.562   6.097 -0.0104  0.4570  0.8827
  899MOL0     N21247   5.984   5.415   6.077 -0.4125 -1.0669 -0.1098
  899MOL0     C21248   5.862   5.358   6.110 -0.4287 -0.2198  1.3008
  899MOL0     C21249   5.894   5.226   6.112 -0.4429  0.5432  0.0585
  899MOL0     C21250   5.802   5.119   6.151 -0.6491 -0.3404 -0.4820
  899MOL0     C21251   5.726   5.069   6.036  0.5137 -0.5275  0.9663
  899MOL0     C21252   5.634   4.950   6.081 -0.3141  1.1051 -0.3303
  899MOL0     C21253   5.548   4.896   5.962  0.4048  0.0281 -0.4660
  899MOL0     O21254   5.412   4.899   5.975  0.5627 -0.0019  0.3965
  899MOL0     C21255   5.326   4.854   5.877  0.3245 -0.1145  0.4963
  899MOL0     C21256   5.321   4.720   5.843 -0.0427  1.0048 -0.4849
  899MOL0     C21257   5.221   4.670   5.763  1.1288  0.6275 -0.2129
  899MOL0     C21258   5.207   4.522   5.744 -0.2198  0.1722  0.5482
  899MOL0     C21259   5.125   4.761   5.718  0.9591  0.1912  1.0077
  899MOL0     C21260   5.019   4.722   5.626 -0.0641  0.3640 -0.7134
  899MOL0     O21261   4.948   4.609   5.661  0.0547  0.2039  0.4373
  899MOL0     C21262   4.856   4.556   5.577  0.1489 -0.8149  0.0254
  899MOL0     C21263   4.721   4.589   5.589 -0.3922 -0.2625  0.4650
  899MOL0     C21264   4.635   4.516   5.513 -0.6824  0.6604  1.3565
  899MOL0     C21265   4.667   4.406   5.431 -0.0949  0.2560 -0.6568
  899MOL0     O21266   4.578   4.352   5.348  0.0959  0.4169 -0.0622
  899MOL0     C21267   4.562   4.206   5.344  0.2424 -0.1039  0.5483
  899MOL0     C21268   4.412   4.188   5.333 -0.6619  0.2069 -0.5844
  899MOL0     C21269   4.351   4.206   5.197 -0.5955  0.5648  0.9213
  899MOL0     C21270   4.232   4.110   5.169  0.0177 -0.2445  0.2826
  899MOL0     C21271   4.178   4.128   5.021 -0.0636 -0.7002 -0.4029
  899MOL0     C21272   4.083   4.023   4.969 -0.0334  0.3678  0.3160
  899MOL0     C21273   3.954   4.013   5.051  0.4826  0.1907  0.2904
  899MOL0     C21274   3.888   3.879   5.026  0.7435 -0.0503  0.0776
  899MOL0    Cl21275   3.864   3.839   4.857  0.4098  0.2437 -0.0911
  899MOL0     C21276   4.800   4.376   5.432 -1.7817  0.7084  1.2977
  899MOL0     C21277   4.896   4.456   5.498 -0.0047  0.6682  0.6244
  899MOL0     O21278   4.986   4.795   5.531  0.4066 -0.2614 -0.7423
  899MOL0     C21279   5.137   4.900   5.748 -0.6253  1.1607 -0.6534
  899MOL0     C21280   5.235   4.946   5.828 -0.1386  0.5472  1.0595
  899MOL0     N21281   6.032   5.207   6.087 -0.3010 -0.1355 -0.4835
  899MOL0     N21282   6.084   5.319   6.058  0.5895 -0.0706 -0.0627
  899MOL0     C21283   6.602   5.856   5.425  0.4479 -0.1019  0.3396
  899MOL0     C21284   6.724   5.920   5.433 -0.6257  0.1560 -1.1640
  899MOL0     C21285   7.052   6.243   5.409  1.0676  1.0489  0.1097
  899MOL0     C21286   7.054   6.334   5.519  0.2159 -0.1789 -0.4325
  899MOL0     C21287   7.150   6.429   5.534  0.3962 -0.5460 -0.2019
  899MOL0     C21288   7.247   6.437   5.427 -0.5435 -0.0997  0.2848
  899MOL0     O21289   7.339   6.531   5.419 -0.1415  0.2309 -0.3683
  899MOL0     C21290   7.293   6.661   5.458 -0.1611  0.4881  0.2590
  899MOL0     C21291   7.360   6.776   5.387 -0.2290 -0.1423  0.0890
  899MOL0     C21292   7.515   6.770   5.404 -0.3430 -0.0994 -0.0184
  899MOL0     C21293   7.597   6.663   5.345  0.3892 -0.1428  0.1453
  899MOL0     C21294   7.739   6.697   5.367  0.0594 -0.0787 -1.1894
  899MOL0     C21295   7.848   6.729   5.395 -0.7146  0.7722 -0.7948
  899MOL0     C21296   7.247   6.341   5.329  0.1092 -1.6182  0.0613
  899MOL0     C21297   7.154   6.239   5.323  0.1361 -0.1470  0.6716
  899MOL0     H21298   6.600   6.222   5.527 -3.2506 -1.6698  0.2969
  899MOL0     H21299   6.387   6.108   5.506 -3.2883 -5.0404 -1.5993
  899MOL0     H21300   6.406   5.726   5.313  3.0352  0.7732  1.1795
  899MOL0     H21301   6.393   5.674   5.480 -0.6845  3.6246  4.3405
  899MOL0     H21302   6.149   5.795   5.312  0.6787  1.3542  0.4807
  899MOL0     H21303   6.180   5.632   5.338  2.4539  0.7773 -1.5174
  899MOL0     H21304   6.137   5.848   5.552  0.7506  0.4229 -0.7103
  899MOL0     H21305   6.015   5.755   5.473  1.4072  0.6142 -2.4499
  899MOL0     H21306   6.120   5.545   5.561  1.9904 -2.6718  1.8514
  899MOL0     H21307   6.251   5.635   5.642 -0.9725 -1.1077  3.3658
  899MOL0     H21308   6.074   5.781   5.751 -1.9491 -0.2962  0.9929
  899MOL0     H21309   5.948   5.666   5.692 -0.2160 -0.6038 -1.2238
  899MOL0     H21310   6.047   5.488   5.821 -2.4653  1.7262 -1.6687
  899MOL0     H21311   6.175   5.581   5.901 -0.1419 -0.5452  0.5962
  899MOL0     H21312   6.009   5.754   5.985  0.4131 -0.1725  0.4459
  899MOL0     H21313   5.884   5.639   5.936  0.1636 -3.9470  0.6815
  899MOL0     H21314   5.933   5.590   6.178 -2.2683 -1.8119 -0.0964
  899MOL0     H21315   6.109   5.562   6.114  0.6150 -4.8547 -1.1176
  899MOL0     H21316   5.764   5.404   6.115 -0.8854 -1.1764  1.4143
  899MOL0     H21317   5.859   5.039   6.198  0.2244  0.5907  0.0868
  899MOL0     H21318   5.732   5.165   6.222  0.1885 -0.1758  0.2566
  899MOL0     H21319   5.796   5.039   5.958  0.2280 -1.2325  0.9648
  899MOL0     H21320   5.666   5.145   5.985  1.3494 -1.1590 -1.0467
  899MOL0     H21321   5.561   4.973   6.159  0.6429  3.4915 -0.0639
  899MOL0     H21322   5.707   4.876   6.117  1.3886  2.1581 -1.4576
  899MOL0     H21323   5.581   4.794   5.941 -1.9299 -0.9865  0.3830
  899MOL0     H21324   5.563   4.961   5.875 -0.4800  0.0210 -0.6349
  899MOL0     H21325   5.397   4.660   5.894  0.2080 -1.1535 -3.1697
  899MOL0     H21326   5.149   4.486   5.829 -0.6781  1.7373  0.9334
  899MOL0     H21327   5.167   4.501   5.644 -2.8769  2.1632  1.0931
  899MOL0     H21328   5.302   4.468   5.745 -0.5750 -0.5386 -0.9328
  899MOL0     H21329   4.665   4.668   5.639 -2.8645 -1.2133 -0.6008
  899MOL0     H21330   4.531   4.548   5.514 -1.0646 -0.2550 -1.2313
  899MOL0     H21331   4.623   4.166   5.262 -1.3922 -1.4928 -0.0491
  899MOL0     H21332   4.593   4.165   5.440 -0.0170 -0.4166  0.5002
  899MOL0     H21333   4.390   4.082   5.352  2.4558 -0.4272  0.0604
  899MOL0     H21334   4.350   4.252   5.396 -0.3462  1.5750 -1.6290
  899MOL0     H21335   4.428   4.185   5.122 -1.8934  4.5115 -1.8436
  899MOL0     H21336   4.323   4.307   5.164 -2.0307 -0.8628 -2.7210
  899MOL0     H21337   4.264   4.006   5.180  0.7606 -0.2330 -1.4444
  899MOL0     H21338   4.146   4.124   5.235  0.8925 -1.2289  1.6791
  899MOL0     H21339   4.263   4.133   4.951 -0.7909 -2.9609 -1.5174
  899MOL0     H21340   4.132   4.228   5.026 -0.1234 -0.7760  2.9244
  899MOL0     H21341   4.042   4.045   4.870 -1.0370 -3.2810 -0.2324
  899MOL0     H21342   4.143   3.932   4.961  1.9323  1.7020 -0.7841
  899MOL0     H21343   3.886   4.095   5.026  0.2195  0.8134  2.7637
  899MOL0     H21344   3.986   4.028   5.154 -0.4142  1.9200  0.3670
  899MOL0     H21345   3.790   3.887   5.074  0.0170 -0.8759 -1.2085
  899MOL0     H21346   3.943   3.798   5.073  1.3699 -1.0510 -2.2325
  899MOL0     H21347   4.829   4.280   5.390  2.1043  2.5550 -0.7797
  899MOL0     H21348   5.000   4.428   5.514  0.4101  2.2207  0.8621
  899MOL0     H21349   5.067   4.972   5.708 -4.5179 -1.4574  0.8160
  899MOL0     H21350   5.250   5.050   5.854 -1.5549  0.8135  0.9385
  899MOL0     H21351   6.602   5.751   5.397  1.1906 -0.0097 -0.0556
  899MOL0     H21352   6.820   5.873   5.416  0.4219  1.6650  0.3154
  899MOL0     H21353   6.978   6.348   5.595  2.2416  1.2359  1.4292
  899MOL0     H21354   7.145   6.504   5.613 -1.8787 -0.7911 -0.0306
  899MOL0     H21355   7.188   6.686   5.443 -0.9191  0.0127  3.7447
  899MOL0     H21356   7.310   6.670   5.566  0.7243 -1.4839  0.3247
  899MOL0     H21357   7.324   6.868   5.432  2.9255  1.3020 -0.0697
  899MOL0     H21358   7.336   6.777   5.280 -4.2099  0.5243  0.8430
  899MOL0     H21359   7.543   6.773   5.510  2.3012 -0.8582 -0.6118
  899MOL0     H21360   7.559   6.861   5.363  1.1790  0.2501  2.1990
  899MOL0     H21361   7.578   6.650   5.238  3.6295  1.4244 -0.7392
  899MOL0     H21362   7.575   6.564   5.387  0.0132 -0.5339 -0.9432
  899MOL0     H21363   7.945   6.754   5.433 -1.4646  2.2302  0.2775
  899MOL0     H21364   7.328   6.346   5.257  0.4196  0.0965  0.4839
  899MOL0     H21365   7.156   6.166   5.242 -1.5161 -1.0251  1.3613
  900MOL0     O21366   0.590   0.560   8.988 -0.6522  1.0404  0.3108
  900MOL0     C21367   0.530   0.481   8.909 -0.0047  0.6696 -0.0103
  900MOL0     O21368   0.405   0.507   8.846  0.5731 -0.3363 -0.1334
  900MOL0     C21369   0.322   0.596   8.905 -0.9271  0.6162  0.0486
  900MOL0     C21370   0.338   0.734   8.897 -0.0854 -0.5450  0.1945
  900MOL0     C21371   0.254   0.823   8.968 -0.1124  0.4935 -0.0149
  900MOL0     C21372   0.156   0.770   9.049  0.9065 -0.3199 -0.7497
  900MOL0     O21373   0.061   0.843   9.124 -0.4381  0.3259 -0.0607
  900MOL0     C21374  -0.054   0.867   9.035  0.3137 -0.4034 -0.1960
  900MOL0     C21375  -0.154   0.963   9.105 -0.9999 -0.1232 -0.4857
  900MOL0     C21376  -0.256   1.016   9.010  0.0167  0.5007 -0.0111
  900MOL0     C21377  -0.365   1.076   9.094 -0.0762  0.6035 -0.8064
  900MOL0     C21378  -0.475   1.120   9.006  0.3533  0.3266  0.3016
  900MOL0     C21379  -0.591   1.185   9.096  0.1532 -0.2133  0.6106
  900MOL0     C21380  -0.560   1.329   9.142 -0.6032 -0.2502  0.0153
  900MOL0     C21381  -0.626   1.377   9.277  0.4745 -0.0712 -0.2263
  900MOL0     N21382  -0.769   1.415   9.245  0.1318  0.7710 -0.2258
  900MOL0     C21383  -0.844   1.489   9.328 -0.8264  0.0878 -0.9595
  900MOL0     C21384  -0.962   1.489   9.274  0.7643 -0.2179  0.3492
  900MOL0     C21385  -1.063   1.605   9.304  0.2530  0.1624 -0.1660
  900MOL0     C21386  -1.203   1.578   9.240 -0.4405 -0.1068  0.5655
  900MOL0     C21387  -1.285   1.459   9.285  0.1526  0.7627 -0.6794
  900MOL0     C21388  -1.293   1.445   9.448 -0.1070 -1.1029 -0.0062
  900MOL0     O21389  -1.328   1.579   9.507 -0.7021 -0.3203 -0.9070
  900MOL0     C21390  -1.304   1.580   9.643  0.1339 -0.5306  0.3779
  900MOL0     C21391  -1.176   1.605   9.695  0.1948  0.3121  0.1143
  900MOL0     C21392  -1.159   1.637   9.828  1.0532  0.1783 -0.3668
  900MOL0     C21393  -1.023   1.650   9.889  0.3975 -0.2590  0.2889
  900MOL0     C21394  -1.276   1.648   9.911 -0.8259  0.0163  0.7572
  900MOL0     C21395  -1.276   1.667  10.052 -0.5091  0.0870 -0.3321
  900MOL0     O21396  -1.379   1.605  10.115 -0.4858 -0.3272  0.5886
  900MOL0     C21397  -1.378   1.611  10.249  0.5517 -0.2636 -0.4309
  900MOL0     C21398  -1.322   1.510  10.324  0.7849  0.3654  0.3620
  900MOL0     C21399  -1.326   1.508  10.466  0.2408  0.9118 -0.2005
  900MOL0     C21400  -1.393   1.610  10.534  0.7648  0.7087 -0.4370
  900MOL0     O21401  -1.382   1.603  10.670  0.1653 -0.1424 -0.1359
  900MOL0     C21402  -1.434   1.721  10.736 -0.4531 -0.5469 -0.2495
  900MOL0     C21403  -1.470   1.679  10.880  0.6538  0.5185  0.4443
  900MOL0     C21404  -1.531   1.530  10.885 -0.5669  0.7511 -0.2115
  900MOL0     C21405  -1.619   1.516  11.008 -0.0948  0.9872 -0.2688
  900MOL0     C21406  -1.738   1.610  11.015 -0.7598  0.3223 -1.3877
  900MOL0     C21407  -1.835   1.549  11.127  1.2737 -0.5162 -0.4166
  900MOL0     C21408  -1.980   1.612  11.147 -0.3968 -0.1593 -0.4835
  900MOL0     C21409  -2.092   1.586  11.039 -0.4362 -0.0028  0.0151
  900MOL0    Cl21410  -2.237   1.685  11.042 -0.5189 -0.5532  0.2951
  900MOL0     C21411  -1.475   1.701  10.457 -0.4569 -0.9065  0.3164
  900MOL0     C21412  -1.465   1.701  10.315 -0.8257 -0.7071  0.0362
  900MOL0     O21413  -1.197   1.744  10.101 -0.3606  0.0461 -0.0773
  900MOL0     C21414  -1.404   1.623   9.855 -0.9771 -1.5531  0.7013
  900MOL0     C21415  -1.425   1.589   9.724 -0.6931  0.6007 -0.8889
  900MOL0     N21416  -0.968   1.417   9.160  0.8233 -0.4158  0.7144
  900MOL0     N21417  -0.853   1.363   9.144 -0.2156 -0.2732 -0.5683
  900MOL0     C21418   0.143   0.631   9.058  0.4811 -0.1672  0.2921
  900MOL0     C21419   0.216   0.545   8.979 -1.1177 -1.2513 -0.3131
  900MOL0     C21420   0.593   0.345   8.886 -0.3768 -0.6551  0.5348
  900MOL0     C21421   0.528   0.246   8.810  0.3341  0.1776  0.7771
  900MOL0     C21422   0.592   0.123   8.786  0.4158 -0.9019  0.0489
  900MOL0     C21423   0.722   0.102   8.833 -0.3764  0.1200 -0.5133
  900MOL0     O21424   0.803  -0.012   8.809  0.5462 -0.4436  0.2835
  900MOL0     C21425   0.749  -0.130   8.756  0.4029  0.2624  0.0247
  900MOL0     C21426   0.855  -0.243   8.763 -0.6166  0.5349 -0.0107
  900MOL0     C21427   0.976  -0.219   8.661 -0.2133  0.7628 -0.4651
  900MOL0     C21428   1.075  -0.110   8.709 -0.7409 -0.9390  0.3559
  900MOL0     C21429   1.155  -0.164   8.819 -0.5298  0.3699 -0.9709
  900MOL0     C21430   1.237  -0.210   8.902 -0.0671  0.3859  0.0423
  900MOL0     C21431   0.783   0.207   8.906 -0.5152 -1.0023 -0.7489
  900MOL0     C21432   0.717   0.322   8.942 -0.4743 -0.2189 -0.4555
  900MOL0     H21433   0.437   0.753   8.856  0.7082 -0.7204  1.9405
  900MOL0     H21434   0.281   0.929   8.967  0.7481  0.2800 -0.9381
  900MOL0     H21435  -0.013   0.906   8.942  1.7424 -0.6095  0.3293
  900MOL0     H21436  -0.114   0.778   9.015 -1.0729  0.2258  0.9296
  900MOL0     H21437  -0.193   0.908   9.191  0.9413  1.1266  1.3009
  900MOL0     H21438  -0.100   1.049   9.146 -0.7748 -1.0665  1.2997
  900MOL0     H21439  -0.213   1.105   8.963 -0.4634  0.5115 -0.4295
  900MOL0     H21440  -0.294   0.933   8.951 -0.2060 -1.6760  2.9583
  900MOL0     H21441  -0.402   0.994   9.155  2.8681 -3.8076 -4.2841
  900MOL0     H21442  -0.326   1.159   9.154 -2.2556 -0.5352  2.4533
  900MOL0     H21443  -0.440   1.188   8.929  2.1545 -1.7231 -0.7918
  900MOL0     H21444  -0.513   1.034   8.951  2.4239 -0.6491  0.3227
  900MOL0     H21445  -0.679   1.204   9.034  1.5275  1.8413 -0.8489
  900MOL0     H21446  -0.622   1.117   9.176 -1.1056 -0.2792  0.1053
  900MOL0     H21447  -0.455   1.357   9.151 -1.5626  4.8967 -1.2735
  900MOL0     H21448  -0.593   1.383   9.052 -3.2366 -0.3080  0.8634
  900MOL0     H21449  -0.577   1.463   9.322 -0.4512  2.9110 -4.3065
  900MOL0     H21450  -0.627   1.300   9.355 -1.7718  0.8015  0.6949
  900MOL0     H21451  -0.821   1.546   9.418 -1.1912  0.5985 -1.1800
  900MOL0     H21452  -1.079   1.619   9.412 -1.6126  4.1779 -0.8025
  900MOL0     H21453  -1.028   1.704   9.274 -1.7880  2.1976  3.4488
  900MOL0     H21454  -1.188   1.571   9.132  2.2859 -0.1989  0.8694
  900MOL0     H21455  -1.271   1.663   9.246 -2.0655 -1.3558  0.4920
  900MOL0     H21456  -1.237   1.372   9.240  1.1878  0.8854  0.1444
  900MOL0     H21457  -1.386   1.470   9.243  0.4668  2.8304 -1.0331
  900MOL0     H21458  -1.203   1.403   9.494  0.9724 -0.3973 -1.3681
  900MOL0     H21459  -1.378   1.382   9.474 -1.7802  1.8493  2.3445
  900MOL0     H21460  -1.092   1.617   9.627 -1.3795 -1.2478 -2.2715
  900MOL0     H21461  -0.943   1.631   9.817  0.4795  0.0482  0.2992
  900MOL0     H21462  -1.020   1.756   9.914  1.1613 -0.3997  0.8424
  900MOL0     H21463  -1.003   1.598   9.983  0.6662 -0.9024 -0.1149
  900MOL0     H21464  -1.283   1.430  10.261 -0.2465 -1.7715  2.2973
  900MOL0     H21465  -1.284   1.428  10.527  0.0568 -1.5635 -3.1039
  900MOL0     H21466  -1.359   1.799  10.720 -2.6139  1.3631 -1.6184
  900MOL0     H21467  -1.533   1.760  10.712 -1.0435  1.1167  4.0193
  900MOL0     H21468  -1.377   1.685  10.937  1.6225 -0.5613 -0.9690
  900MOL0     H21469  -1.532   1.755  10.929 -0.5866  0.1974 -0.5687
  900MOL0     H21470  -1.451   1.457  10.873 -0.7336  0.7257 -1.3284
  900MOL0     H21471  -1.590   1.515  10.794  0.6849 -1.1219 -0.7681
  900MOL0     H21472  -1.653   1.412  11.013  3.3671 -0.1830  1.7022
  900MOL0     H21473  -1.556   1.524  11.096 -0.9723  1.4826  0.3307
  900MOL0     H21474  -1.780   1.610  10.914  0.6852 -1.4881 -2.0683
  900MOL0     H21475  -1.714   1.708  11.057  1.0272 -0.1910 -1.0927
  900MOL0     H21476  -1.860   1.446  11.101 -0.0473 -0.4762  0.5504
  900MOL0     H21477  -1.781   1.549  11.222  1.4530  0.7455 -0.4990
  900MOL0     H21478  -1.975   1.720  11.162  0.2910 -0.4971  2.0854
  900MOL0     H21479  -2.013   1.578  11.245 -2.8553  2.4496 -0.2769
  900MOL0     H21480  -2.129   1.486  11.067  2.2043 -0.4926  2.1283
  900MOL0     H21481  -2.044   1.586  10.941 -2.8147 -2.0083 -1.2727
  900MOL0     H21482  -1.549   1.771  10.496  0.3752  1.6898 -2.4229
  900MOL0     H21483  -1.526   1.774  10.263  2.7252  4.8591  2.6993
  900MOL0     H21484  -1.492   1.638   9.916 -2.1061  1.9825 -1.4771
  900MOL0     H21485  -1.517   1.546   9.685  0.2879 -2.8000  0.1509
  900MOL0     H21486   0.059   0.607   9.123  0.3516 -0.7953 -0.0910
  900MOL0     H21487   0.190   0.439   8.985 -3.3094 -0.7833 -0.7478
  900MOL0     H21488   0.436   0.265   8.755  0.5574  0.4285  0.4860
  900MOL0     H21489   0.539   0.047   8.730 -1.0413  0.3563 -0.3664
  900MOL0     H21490   0.654  -0.157   8.801  0.4781  0.4366  0.2923
  900MOL0     H21491   0.719  -0.113   8.653  1.5458 -0.2592 -0.4140
  900MOL0     H21492   0.797  -0.330   8.730 -0.1644  0.8028 -1.6237
  900MOL0     H21493   0.892  -0.252   8.865 -1.0483  2.5566  0.3815
  900MOL0     H21494   0.946  -0.200   8.557 -2.5017 -0.9637 -0.1745
  900MOL0     H21495   1.042  -0.306   8.654  1.1930  1.2178  4.1954
  900MOL0     H21496   1.032  -0.014   8.740  2.2660  1.6725 -2.7404
  900MOL0     H21497   1.140  -0.079   8.626  0.9752  0.8211  2.2433
  900MOL0     H21498   1.314  -0.234   8.972 -2.3458  2.5147  3.5998
  900MOL0     H21499   0.883   0.183   8.942 -0.9626  1.8373  2.9489
  900MOL0     H21500   0.769   0.392   9.006 -2.1768  1.0814 -0.4035
  901MOL0     O21501   8.665   1.660  10.470 -0.7869 -0.3249 -0.6561
  901MOL0     C21502   8.708   1.762  10.522 -0.3869 -0.1347  0.2298
  901MOL0     O21503   8.642   1.830  10.617  0.3479 -0.0503  0.2827
  901MOL0     C21504   8.551   1.763  10.700  0.1520 -0.1402  0.0127
  901MOL0     C21505   8.478   1.855  10.767 -0.1837 -0.2172  0.3257
  901MOL0     C21506   8.369   1.814  10.849 -0.9629 -0.8028  0.8267
  901MOL0     C21507   8.341   1.678  10.870 -0.6192 -0.5124  0.7404
  901MOL0     O21508   8.250   1.632  10.965 -0.3170 -0.0729  0.2922
  901MOL0     C21509   8.151   1.718  11.034 -0.5169  0.0142 -0.1137
  901MOL0     C21510   8.209   1.756  11.169 -0.0975 -0.2985  0.9422
  901MOL0     C21511   8.144   1.885  11.220  0.3969 -0.6335 -0.3569
  901MOL0     C21512   8.206   1.931  11.359  0.1656 -0.5716  0.1260
  901MOL0     C21513   8.107   2.018  11.447 -0.2242  0.3915 -0.3587
  901MOL0     C21514   8.149   2.170  11.415  0.3537 -0.0501  0.0761
  901MOL0     C21515   8.046   2.277  11.465 -0.3407  0.8186  0.3946
  901MOL0     C21516   8.074   2.290  11.612 -0.1292 -0.6369 -0.1884
  901MOL0     N21517   7.963   2.356  11.671 -0.3047 -0.3379  0.2125
  901MOL0     C21518   7.924   2.486  11.627  0.0522  0.2264  0.5140
  901MOL0     C21519   7.827   2.523  11.723  0.8266 -0.1124  0.0581
  901MOL0     C21520   7.736   2.640  11.719  0.1722  0.1186 -0.8994
  901MOL0     C21521   7.716   2.699  11.575 -0.1107  0.5936  0.2067
  901MOL0     C21522   7.588   2.788  11.561 -0.4529 -0.3948 -0.0611
  901MOL0     C21523   7.448   2.718  11.597 -0.1100 -0.6492 -0.1336
  901MOL0     O21524   7.390   2.789  11.713 -0.1660  0.5296  0.4214
  901MOL0     C21525   7.257   2.781  11.719 -0.3603  1.0773  0.1948
  901MOL0     C21526   7.190   2.893  11.767 -0.1079 -0.2070 -0.7525
  901MOL0     C21527   7.050   2.910  11.765  0.2809  0.0406  0.3223
  901MOL0     C21528   6.989   3.044  11.796 -0.3480  0.4359  0.3617
  901MOL0     C21529   6.970   2.799  11.727 -0.6643  0.6173 -0.0544
  901MOL0     C21530   6.825   2.792  11.712 -0.1511 -0.5632  0.4897
  901MOL0     O21531   6.748   2.881  11.782 -0.2670 -0.0415  0.1487
  901MOL0     C21532   6.614   2.918  11.792  0.1190  0.3352  0.7918
  901MOL0     C21533   6.591   3.041  11.863 -0.5976 -0.1207  0.9174
  901MOL0     C21534   6.460   3.096  11.867  0.9091  0.1644  0.0976
  901MOL0     C21535   6.356   3.029  11.797 -0.1694 -0.0592  1.1940
  901MOL0     O21536   6.229   3.074  11.793  0.4691  0.4383  0.7328
  901MOL0     C21537   6.166   3.090  11.918  0.1686 -0.5696 -1.0104
  901MOL0     C21538   6.023   3.139  11.919  0.2728 -0.0796 -0.7616
  901MOL0     C21539   6.003   3.289  11.885 -0.9402  0.9583  0.2796
  901MOL0     C21540   5.866   3.345  11.924 -0.4704 -0.6583  0.2869
  901MOL0     C21541   5.845   3.394  12.065  0.8188  0.2993 -0.3335
  901MOL0     C21542   5.704   3.443  12.084  0.1355  0.1428 -0.5698
  901MOL0     C21543   5.668   3.433  12.229  0.1553 -0.9114 -0.5111
  901MOL0     C21544   5.539   3.509  12.264 -0.3244 -0.3568  0.2812
  901MOL0    Cl21545   5.404   3.395  12.221  0.1511  0.3236 -0.0230
  901MOL0     C21546   6.385   2.904  11.727  1.3145  0.7853 -1.5370
  901MOL0     C21547   6.509   2.852  11.724  0.3826  0.1414  0.3569
  901MOL0     O21548   6.780   2.721  11.620 -0.4075 -0.6531 -0.4267
  901MOL0     C21549   7.044   2.685  11.691  0.3066  0.7632  0.0804
  901MOL0     C21550   7.184   2.674  11.689 -0.1457  0.2839  0.6792
  901MOL0     N21551   7.814   2.416  11.814  0.8746 -0.5604  0.1400
  901MOL0     N21552   7.893   2.320  11.789 -0.5125 -0.2660  0.0481
  901MOL0     C21553   8.415   1.583  10.798  1.1344  0.8442 -0.4363
  901MOL0     C21554   8.513   1.634  10.708 -0.3592 -0.0640 -0.5364
  901MOL0     C21555   8.847   1.795  10.477  0.4057 -0.0500  0.0085
  901MOL0     C21556   8.915   1.896  10.535 -0.0621 -0.2253  0.8124
  901MOL0     C21557   9.051   1.918  10.503  0.3398 -0.7039 -0.9581
  901MOL0     C21558   9.118   1.850  10.402  0.4454  0.0793 -0.0617
  901MOL0     O21559   9.248   1.894  10.371 -0.0207 -0.2859 -0.1445
  901MOL0     C21560   9.320   1.823  10.269  0.5845 -0.2031 -0.3886
  901MOL0     C21561   9.358   1.682  10.313 -0.1934  1.0272 -0.1007
  901MOL0     C21562   9.487   1.687  10.399 -0.0476 -0.7502 -0.8874
  901MOL0     C21563   9.484   1.612  10.525  0.1779 -0.1778 -0.4748
  901MOL0     C21564   9.416   1.690  10.628 -0.3166 -0.3678  0.4865
  901MOL0     C21565   9.367   1.745  10.721  0.0837 -0.3776 -0.1084
  901MOL0     C21566   9.043   1.752  10.337  1.0768  0.2037 -1.0916
  901MOL0     C21567   8.913   1.726  10.376  0.4165  0.3229 -0.4117
  901MOL0     H21568   8.504   1.960  10.777  3.3947 -0.8510 -0.9657
  901MOL0     H21569   8.318   1.888  10.911  2.1532 -0.5752  3.3595
  901MOL0     H21570   8.142   1.811  10.978  0.5262 -0.1062 -0.4919
  901MOL0     H21571   8.051   1.674  11.040 -0.9868  1.1760  1.1347
  901MOL0     H21572   8.208   1.667  11.234  1.9677 -1.0315  0.0653
  901MOL0     H21573   8.317   1.770  11.159 -0.3765  0.3208 -3.4148
  901MOL0     H21574   8.143   1.966  11.146  0.6218  0.1466  0.4668
  901MOL0     H21575   8.036   1.877  11.237 -0.0075 -0.5671 -2.5665
  901MOL0     H21576   8.235   1.843  11.417  0.4905 -0.2219  0.4901
  901MOL0     H21577   8.293   1.988  11.325 -0.9413  0.3022 -1.3776
  901MOL0     H21578   8.004   1.994  11.421 -1.1089  4.5627 -1.4989
  901MOL0     H21579   8.127   1.989  11.550  0.7883  1.6286 -0.1796
  901MOL0     H21580   8.254   2.194  11.434  0.4624 -2.0930  2.6906
  901MOL0     H21581   8.143   2.171  11.306 -2.0667 -0.2804  0.1459
  901MOL0     H21582   8.054   2.370  11.408  0.4486 -0.8597 -2.4507
  901MOL0     H21583   7.948   2.239  11.435  0.9435 -1.2276 -1.5456
  901MOL0     H21584   8.163   2.351  11.628  0.9951 -2.2724 -0.0071
  901MOL0     H21585   8.088   2.203  11.677  0.5359  1.3738  2.5596
  901MOL0     H21586   7.959   2.548  11.545  1.4238  1.0321  1.6648
  901MOL0     H21587   7.642   2.615  11.768  1.2254  0.4873  1.4493
  901MOL0     H21588   7.774   2.714  11.790 -0.4278 -1.6405  1.3769
  901MOL0     H21589   7.703   2.624  11.495 -2.1076  1.6333 -0.5226
  901MOL0     H21590   7.809   2.745  11.540 -0.1699 -1.4421 -3.0956
  901MOL0     H21591   7.584   2.831  11.460 -0.5506 -1.6206 -0.5952
  901MOL0     H21592   7.611   2.877  11.621  0.8910 -0.6817 -0.1388
  901MOL0     H21593   7.465   2.613  11.624 -0.2730 -0.6705 -0.1121
  901MOL0     H21594   7.379   2.716  11.512 -4.3494 -0.2910  3.0147
  901MOL0     H21595   7.246   2.981  11.796 -0.6211 -0.1082 -0.0253
  901MOL0     H21596   7.071   3.115  11.811  0.1686  0.2333 -1.2491
  901MOL0     H21597   6.937   3.093  11.713 -0.5340  0.1772  0.3260
  901MOL0     H21598   6.917   3.040  11.877 -1.1479 -1.5846 -0.4030
  901MOL0     H21599   6.678   3.085  11.911  1.5598 -2.1540 -0.8454
  901MOL0     H21600   6.441   3.182  11.932 -2.3328 -0.7645  0.5470
  901MOL0     H21601   6.166   2.999  11.979 -0.0540  1.1991  1.8153
  901MOL0     H21602   6.215   3.167  11.980  3.1645 -1.6982 -1.7931
  901MOL0     H21603   5.972   3.076  11.846  1.5102 -1.3614 -0.5722
  901MOL0     H21604   5.978   3.120  12.017  0.5356  1.1223 -0.3958
  901MOL0     H21605   6.023   3.287  11.777 -1.4776  1.3394  0.1693
  901MOL0     H21606   6.077   3.359  11.925 -1.2022  0.8266  0.9970
  901MOL0     H21607   5.840   3.431  11.862  1.1395 -1.2084 -1.2435
  901MOL0     H21608   5.796   3.262  11.911  1.7676 -2.4518 -1.1987
  901MOL0     H21609   5.907   3.483  12.077  0.3767  0.5245  0.3103
  901MOL0     H21610   5.859   3.313  12.137 -0.1149  0.9877  0.6602
  901MOL0     H21611   5.688   3.548  12.057  0.4143  0.4130  0.3031
  901MOL0     H21612   5.636   3.371  12.038  0.7044 -1.9402  1.6620
  901MOL0     H21613   5.758   3.475  12.276  0.3208 -0.8417 -0.8839
  901MOL0     H21614   5.674   3.330  12.265  0.4200  0.3383  3.5092
  901MOL0     H21615   5.531   3.602  12.206 -1.7870 -1.4247 -1.3646
  901MOL0     H21616   5.538   3.531  12.371  1.7493 -4.0924  1.2540
  901MOL0     H21617   6.309   2.840  11.683  0.4925  1.2679 -0.8387
  901MOL0     H21618   6.535   2.768  11.661  0.1378  1.2656 -1.2958
  901MOL0     H21619   6.981   2.606  11.653 -0.3946  2.0380 -1.5306
  901MOL0     H21620   7.236   2.579  11.675 -1.4310 -0.1659 -1.5111
  901MOL0     H21621   8.402   1.477  10.814  0.5708  0.2293 -4.0447
  901MOL0     H21622   8.583   1.557  10.674 -0.3011  0.3577 -1.4086
  901MOL0     H21623   8.866   1.949  10.616  0.5153 -0.8398  1.5809
  901MOL0     H21624   9.112   1.996  10.548  0.8488 -1.1157 -0.9217
  901MOL0     H21625   9.259   1.821  10.178  1.1128 -2.0145 -0.7427
  901MOL0     H21626   9.404   1.883  10.234  0.7478 -1.1223 -1.6209
  901MOL0     H21627   9.356   1.618  10.225  0.6450  0.0684  0.5594
  901MOL0     H21628   9.284   1.628  10.374  0.2643 -1.8628 -1.9170
  901MOL0     H21629   9.509   1.790  10.428  0.4436 -0.6828 -1.4733
  901MOL0     H21630   9.570   1.637  10.348  4.3916  2.9576  1.9151
  901MOL0     H21631   9.585   1.589  10.562 -0.4682 -3.6834 -0.4727
  901MOL0     H21632   9.429   1.518  10.509  2.1736 -1.0764 -2.8036
  901MOL0     H21633   9.327   1.799  10.804  0.3968 -0.1814 -0.0862
  901MOL0     H21634   9.091   1.705  10.252 -1.4620 -1.2866 -1.7779
  901MOL0     H21635   8.868   1.642  10.325  0.0399  1.4874 -2.0708
  902MOL0     O21636   4.944   8.123  10.952  0.5114 -0.0261  0.3387
  902MOL0     C21637   4.975   8.045  10.859 -0.4427  0.1798  1.0327
  902MOL0     O21638   4.903   7.941  10.815 -0.7755  0.4608 -0.6600
  902MOL0     C21639   4.800   7.892  10.885 -0.6504 -0.3556 -0.1628
  902MOL0     C21640   4.722   7.953  10.987 -0.8257 -0.1338 -0.7030
  902MOL0     C21641   4.622   7.881  11.050 -1.3572 -1.3134 -0.0129
  902MOL0     C21642   4.583   7.755  11.002 -0.5240  0.1121 -0.0020
  902MOL0     O21643   4.480   7.704  11.069  0.9151  0.1253  0.4612
  902MOL0     C21644   4.399   7.591  11.009  0.3214 -0.2359  0.7966
  902MOL0     C21645   4.278   7.569  11.103  1.0385 -1.0171  0.6588
  902MOL0     C21646   4.148   7.515  11.044  0.3659 -0.1219 -0.7826
  902MOL0     C21647   4.081   7.616  10.950 -1.1332 -0.2998  0.0227
  902MOL0     C21648   3.951   7.572  10.889  0.6422 -0.0061 -0.1099
  902MOL0     C21649   3.846   7.508  10.985 -0.6831  0.2350  0.1665
  902MOL0     C21650   3.818   7.601  11.108  1.4037  0.2861  0.1483
  902MOL0     C21651   3.702   7.552  11.205  0.2755  0.0356 -0.0399
  902MOL0     N21652   3.575   7.535  11.134  0.1360  0.3566 -0.4224
  902MOL0     C21653   3.519   7.593  11.019 -1.8372 -0.2856  0.2982
  902MOL0     C21654   3.390   7.566  11.019 -0.4623  0.2905  0.5481
  902MOL0     C21655   3.289   7.615  10.915  0.1452  0.8377 -0.1079
  902MOL0     C21656   3.175   7.702  10.973  0.0483  0.1375  0.8133
  902MOL0     C21657   3.217   7.826  11.046  0.1833  1.0436 -0.3166
  902MOL0     C21658   3.096   7.926  11.064  0.0335  0.5112  0.3358
  902MOL0     O21659   3.093   8.021  10.959  0.8430 -0.1008  0.0217
  902MOL0     C21660   2.981   8.018  10.876 -0.3530 -0.6996  0.9252
  902MOL0     C21661   2.970   7.917  10.771 -0.4364 -0.0518 -0.3442
  902MOL0     C21662   2.859   7.911  10.686  0.8424  0.2678 -0.3042
  902MOL0     C21663   2.866   7.797  10.581 -0.2831  0.3896  0.1340
  902MOL0     C21664   2.754   8.010  10.700  0.1697 -0.1689 -0.1543
  902MOL0     C21665   2.632   8.006  10.619  0.0803 -0.6931 -0.7254
  902MOL0     O21666   2.576   7.889  10.605 -0.4422  0.0860  0.6181
  902MOL0     C21667   2.450   7.886  10.561 -0.1580 -0.5036  0.5287
  902MOL0     C21668   2.349   7.905  10.658 -0.2361  0.5004 -0.1311
  902MOL0     C21669   2.208   7.909  10.627  0.4095 -0.7570  0.1852
  902MOL0     C21670   2.170   7.900  10.491  0.1521  0.7087  0.6721
  902MOL0     O21671   2.031   7.908  10.460 -0.1037 -0.3050  0.2762
  902MOL0     C21672   1.987   7.827  10.355  0.4465 -0.0881 -0.0503
  902MOL0     C21673   1.836   7.815  10.348  0.3733  0.2460  0.2103
  902MOL0     C21674   1.783   7.712  10.456  0.1996  0.7887  0.6171
  902MOL0     C21675   1.641   7.726  10.505  0.1937  0.4526  0.3182
  902MOL0     C21676   1.616   7.841  10.607 -0.7814  0.1961  0.1366
  902MOL0     C21677   1.468   7.856  10.669  0.1305 -0.3566  0.2050
  902MOL0     C21678   1.427   7.748  10.771  0.3007  0.3320  0.2872
  902MOL0     C21679   1.282   7.787  10.820  0.2682  0.8695  0.3821
  902MOL0    Cl21680   1.269   7.939  10.906  0.3970 -0.0116 -0.2276
  902MOL0     C21681   2.274   7.870  10.398 -0.0578  0.2035  0.3305
  902MOL0     C21682   2.409   7.851  10.433  0.0353  0.0563 -0.2907
  902MOL0     O21683   2.592   8.115  10.585  0.7911 -0.1013 -0.7441
  902MOL0     C21684   2.768   8.109  10.800  0.0864 -0.0821  0.7768
  902MOL0     C21685   2.880   8.120  10.878 -0.4755 -1.1062  0.4240
  902MOL0     N21686   3.356   7.520  11.145 -0.5832  0.2401  0.7316
  902MOL0     N21687   3.467   7.488  11.200 -0.4666  0.5059 -1.4301
  902MOL0     C21688   4.664   7.683  10.912  0.6834  0.6076  0.5003
  902MOL0     C21689   4.765   7.759  10.849 -0.3116  0.0031 -0.2773
  902MOL0     C21690   5.104   8.083  10.794 -0.0269  1.1592  0.5579
  902MOL0     C21691   5.195   8.179  10.848  1.0009  0.4807 -0.4003
  902MOL0     C21692   5.308   8.217  10.772  0.4373 -0.3514 -1.4245
  902MOL0     C21693   5.327   8.172  10.642  0.4130  0.1246  0.5171
  902MOL0     O21694   5.439   8.213  10.576  0.7318  0.1443 -0.2687
  902MOL0     C21695   5.501   8.152  10.468 -0.5684 -0.6940 -0.0287
  902MOL0     C21696   5.655   8.125  10.495 -0.3504  0.4421 -0.5256
  902MOL0     C21697   5.734   8.252  10.512 -1.0398  0.0015 -0.7892
  902MOL0     C21698   5.779   8.332  10.392 -0.2397 -0.7920 -0.0023
  902MOL0     C21699   5.862   8.262  10.293  0.1247  0.2208 -0.0393
  902MOL0     C21700   5.930   8.209  10.204  0.2285  0.5202 -0.4879
  902MOL0     C21701   5.230   8.085  10.588 -0.4444  0.5808  0.3357
  902MOL0     C21702   5.129   8.028  10.669  1.0069 -0.1167 -0.2586
  902MOL0     H21703   4.735   8.052  11.029 -1.5025  0.1744 -1.2033
  902MOL0     H21704   4.557   7.930  11.121 -0.2327  0.1161  0.0902
  902MOL0     H21705   4.369   7.615  10.907  0.4248 -2.3371  0.2193
  902MOL0     H21706   4.464   7.503  11.010 -1.5439 -1.7226  2.7282
  902MOL0     H21707   4.311   7.495  11.177  0.6703  0.8233  2.7562
  902MOL0     H21708   4.264   7.664  11.155 -1.4955 -0.9236 -0.0774
  902MOL0     H21709   4.182   7.425  10.991  5.7811 -0.2919  2.2678
  902MOL0     H21710   4.084   7.493  11.129 -3.6811 -0.2527 -3.5694
  902MOL0     H21711   4.055   7.711  10.998 -0.2854 -0.1839  0.2751
  902MOL0     H21712   4.148   7.658  10.875 -1.0218 -0.2009  0.1746
  902MOL0     H21713   3.902   7.666  10.864  1.1606  1.4954  3.8065
  902MOL0     H21714   3.965   7.495  10.812 -1.3501 -0.4790 -0.0716
  902MOL0     H21715   3.756   7.484  10.927  0.9262 -2.9306 -1.3121
  902MOL0     H21716   3.877   7.409  11.020 -1.6098 -1.2710 -2.9361
  902MOL0     H21717   3.909   7.593  11.169  2.2116 -0.1718 -1.0785
  902MOL0     H21718   3.797   7.704  11.081 -4.9747 -1.0630 -1.6063
  902MOL0     H21719   3.692   7.612  11.295 -0.0849 -1.3090  0.8438
  902MOL0     H21720   3.740   7.461  11.253  1.3543  1.5855  2.1601
  902MOL0     H21721   3.569   7.644  10.938 -0.2903 -0.6510  0.9919
  902MOL0     H21722   3.338   7.668  10.834 -0.2923 -0.2497 -1.1108
  902MOL0     H21723   3.246   7.527  10.867 -2.7383  0.5172  2.7215
  902MOL0     H21724   3.128   7.634  11.045 -0.4610 -0.3641  0.0212
  902MOL0     H21725   3.105   7.730  10.894  0.3016 -0.1468  0.4832
  902MOL0     H21726   3.309   7.870  11.004  2.1076  0.1859  2.6976
  902MOL0     H21727   3.244   7.788  11.145  0.5641  2.6200  0.2138
  902MOL0     H21728   3.107   7.988  11.153 -1.6787  3.0947 -1.1410
  902MOL0     H21729   2.998   7.877  11.077 -1.2216  2.7863 -0.0794
  902MOL0     H21730   3.059   7.855  10.758  1.4432  2.2330  0.8083
  902MOL0     H21731   2.802   7.813  10.494 -1.2762 -4.3397 -0.2390
  902MOL0     H21732   2.968   7.790  10.541 -1.3470 -1.6371 -2.5049
  902MOL0     H21733   2.836   7.700  10.619  0.4603 -0.2811 -0.9267
  902MOL0     H21734   2.367   7.927  10.762 -2.0861  0.0255  0.3297
  902MOL0     H21735   2.130   7.932  10.700 -0.8648  0.2529 -1.4189
  902MOL0     H21736   2.022   7.869  10.260  0.0008  2.4599  0.8383
  902MOL0     H21737   2.030   7.727  10.366  0.6425  0.1585  1.6732
  902MOL0     H21738   1.776   7.907  10.343 -1.2854 -0.5397  3.1179
  902MOL0     H21739   1.818   7.772  10.249  1.9406  0.5432 -0.2228
  902MOL0     H21740   1.836   7.729  10.550 -0.3066  1.1763  0.8347
  902MOL0     H21741   1.801   7.607  10.431 -0.3989  0.6519  0.7394
  902MOL0     H21742   1.575   7.734  10.419 -1.5293 -0.5520  1.4832
  902MOL0     H21743   1.609   7.631  10.549 -1.8150  0.7306 -0.4369
  902MOL0     H21744   1.631   7.937  10.557 -1.2839  0.4714  0.4953
  902MOL0     H21745   1.685   7.842  10.692 -1.9207  2.5881  1.1224
  902MOL0     H21746   1.456   7.955  10.713 -0.2670 -0.6802  0.8541
  902MOL0     H21747   1.403   7.847  10.581 -0.1580  0.1016  0.3654
  902MOL0     H21748   1.499   7.749  10.854  3.6593  0.0844 -2.3874
  902MOL0     H21749   1.434   7.645  10.734  1.6787  0.0871  1.1238
  902MOL0     H21750   1.243   7.707  10.884  0.6802  0.5907  0.2807
  902MOL0     H21751   1.219   7.790  10.731  1.0991 -1.5230 -0.3529
  902MOL0     H21752   2.241   7.857  10.296 -1.1908  0.2506  0.6839
  902MOL0     H21753   2.479   7.816  10.358 -1.8432 -3.0459 -0.7834
  902MOL0     H21754   2.684   8.178  10.808 -1.2297 -1.3563 -1.1005
  902MOL0     H21755   2.884   8.204  10.946 -0.7719  2.3518 -3.4530
  902MOL0     H21756   4.643   7.580  10.886  1.4750  0.3518  0.8146
  902MOL0     H21757   4.821   7.713  10.767 -0.5265  0.8906 -0.9323
  902MOL0     H21758   5.162   8.211  10.946 -1.7564 -1.5106 -0.5596
  902MOL0     H21759   5.375   8.291  10.815  2.1045 -3.8768  2.9447
  902MOL0     H21760   5.471   8.047  10.456  1.1613 -1.3046  0.6276
  902MOL0     H21761   5.471   8.210  10.380  2.4700 -0.2507 -0.8959
  902MOL0     H21762   5.699   8.072  10.410 -2.9146 -1.7797 -0.6013
  902MOL0     H21763   5.658   8.067  10.588  2.2202 -0.3505 -1.0233
  902MOL0     H21764   5.819   8.233  10.579 -3.8239 -2.6867  2.3793
  902MOL0     H21765   5.665   8.311  10.573 -1.6300 -1.8611  0.4363
  902MOL0     H21766   5.834   8.423  10.418  2.3736 -2.9950  2.9048
  902MOL0     H21767   5.687   8.375  10.350 -0.3447 -1.8347 -0.8901
  902MOL0     H21768   5.993   8.173  10.125 -0.2710  0.6244 -0.9460
  902MOL0     H21769   5.248   8.054  10.485  1.0806  1.4589  0.2980
  902MOL0     H21770   5.064   7.947  10.637 -0.0667 -0.5951  2.8000
  903MOL0     O21771   0.265   4.876   8.490  0.3455 -0.8278 -0.5505
  903MOL0     C21772   0.311   4.959   8.563 -0.7413 -0.6721  0.2018
  903MOL0     O21773   0.241   5.050   8.641 -0.0712  0.1199  0.7936
  903MOL0     C21774   0.111   5.023   8.686  0.2337  0.3406  0.8797
  903MOL0     C21775   0.057   4.893   8.706 -0.1131 -0.5657  0.8393
  903MOL0     C21776  -0.072   4.891   8.759 -0.0749 -0.2614  0.9243
  903MOL0     C21777  -0.146   5.003   8.797 -0.5338 -0.8096 -0.5763
  903MOL0     O21778  -0.270   4.984   8.861 -0.7175  0.1558  0.5616
  903MOL0     C21779  -0.378   5.016   8.777  0.1976  0.5095  0.7262
  903MOL0     C21780  -0.502   5.041   8.863 -0.1359  0.7115  0.9308
  903MOL0     C21781  -0.489   5.168   8.945  0.5722  0.6835 -0.4887
  903MOL0     C21782  -0.534   5.153   9.079 -0.0949  0.2595 -1.0170
  903MOL0     C21783  -0.689   5.161   9.101 -0.3609 -0.7850  0.7388
  903MOL0     C21784  -0.731   5.147   9.257  0.7548  1.0615  0.1909
  903MOL0     C21785  -0.858   5.053   9.267  0.4589  1.1898 -0.4073
  903MOL0     C21786  -0.913   5.055   9.411 -0.6173 -0.1621  0.3216
  903MOL0     N21787  -1.047   5.000   9.419  0.3757 -0.0603  0.1014
  903MOL0     C21788  -1.168   5.069   9.408  0.4287 -0.8468  0.3166
  903MOL0     C21789  -1.250   4.983   9.350  0.5875  0.1197 -0.7180
  903MOL0     C21790  -1.400   5.012   9.316  0.1645 -0.1341  0.5944
  903MOL0     C21791  -1.408   5.082   9.175 -0.1118 -0.1736  0.7636
  903MOL0     C21792  -1.552   5.094   9.117 -0.4975  0.0899 -0.7737
  903MOL0     C21793  -1.640   5.186   9.197 -0.2319 -1.2222 -0.5899
  903MOL0     O21794  -1.778   5.166   9.144  0.4242 -0.2379  0.0758
  903MOL0     C21795  -1.878   5.232   9.210  0.6472 -0.3240 -1.4552
  903MOL0     C21796  -2.010   5.216   9.164  0.1799  0.5653 -0.5975
  903MOL0     C21797  -2.114   5.287   9.218  0.2222  1.1846 -0.7590
  903MOL0     C21798  -2.252   5.247   9.169  0.2371  0.5941 -0.4468
  903MOL0     C21799  -2.088   5.377   9.329 -0.0423  0.4856  0.2951
  903MOL0     C21800  -2.198   5.451   9.391  0.4888  0.4540 -0.3529
  903MOL0     O21801  -2.201   5.461   9.528 -0.5056  0.4831  0.4272
  903MOL0     C21802  -2.294   5.542   9.584  0.3940 -0.0801  0.4826
  903MOL0     C21803  -2.249   5.672   9.628 -0.0076 -0.1376 -0.0294
  903MOL0     C21804  -2.346   5.763   9.686  0.2406  0.3367  0.4747
  903MOL0     C21805  -2.479   5.726   9.707 -0.3064 -0.4191  0.2999
  903MOL0     O21806  -2.567   5.821   9.748 -0.0474  0.6587  0.0466
  903MOL0     C21807  -2.686   5.788   9.829 -0.4375  0.3372  0.0087
  903MOL0     C21808  -2.800   5.754   9.729 -0.0414  0.1977  0.1277
  903MOL0     C21809  -2.888   5.636   9.771  1.1773  0.5170  0.1528
  903MOL0     C21810  -2.960   5.653   9.904 -0.1030  0.3744 -1.2456
  903MOL0     C21811  -3.026   5.518   9.951 -0.2695  0.5845  0.3385
  903MOL0     C21812  -3.139   5.477   9.848  0.2959 -0.1345 -0.2878
  903MOL0     C21813  -3.236   5.385   9.919  0.3539  1.4226 -0.1845
  903MOL0     C21814  -3.375   5.377   9.852 -0.4973 -0.2922  0.1887
  903MOL0    Cl21815  -3.373   5.287   9.702  0.0045 -0.2715 -0.5184
  903MOL0     C21816  -2.510   5.595   9.673  0.2143  0.2434  0.3957
  903MOL0     C21817  -2.424   5.508   9.614  0.1034  0.1656  0.5264
  903MOL0     O21818  -2.282   5.499   9.319 -0.0194 -0.0566  0.3810
  903MOL0     C21819  -1.953   5.388   9.376 -0.4041  0.5968  1.1279
  903MOL0     C21820  -1.851   5.310   9.326 -0.4342 -1.0711  0.2831
  903MOL0     N21821  -1.188   4.858   9.332 -0.0308  0.0405  0.2085
  903MOL0     N21822  -1.067   4.877   9.361  0.2935 -0.4908  0.6016
  903MOL0     C21823  -0.089   5.133   8.779 -0.9022 -0.5195 -0.9246
  903MOL0     C21824   0.037   5.136   8.723 -0.2278 -1.2561 -0.2980
  903MOL0     C21825   0.458   4.945   8.569 -0.8060 -0.4964 -0.4117
  903MOL0     C21826   0.535   5.048   8.612 -0.1453 -0.6010 -0.0928
  903MOL0     C21827   0.672   5.041   8.625 -0.6962 -0.1539  0.4461
  903MOL0     C21828   0.753   4.923   8.592 -0.1467 -0.9585  0.8109
  903MOL0     O21829   0.892   4.921   8.616  0.3811  0.4347 -0.6291
  903MOL0     C21830   0.963   4.791   8.633  0.0028 -0.8069 -0.4909
  903MOL0     C21831   1.111   4.813   8.632 -0.1094  0.3035 -0.1951
  903MOL0     C21832   1.156   4.929   8.725 -0.2420 -0.0850  0.0098
  903MOL0     C21833   1.291   4.902   8.805 -0.8122  0.4803  0.0372
  903MOL0     C21834   1.275   4.818   8.921 -0.6050 -0.4803 -0.5869
  903MOL0     C21835   1.261   4.753   9.019  0.3183 -0.5495  0.3541
  903MOL0     C21836   0.674   4.811   8.557  0.7273  0.0833  0.3319
  903MOL0     C21837   0.535   4.826   8.535 -0.3611 -0.4505  0.1422
  903MOL0     H21838   0.111   4.801   8.687  1.0824  0.1519  0.6704
  903MOL0     H21839  -0.114   4.792   8.767  0.3637 -0.3896  1.6561
  903MOL0     H21840  -0.352   5.095   8.705 -0.9194 -1.9755 -2.6464
  903MOL0     H21841  -0.382   4.929   8.712 -0.2235  0.8211  0.3251
  903MOL0     H21842  -0.591   5.037   8.799  1.6950  2.3736 -1.9800
  903MOL0     H21843  -0.511   4.957   8.932 -1.6137  1.7366  2.0317
  903MOL0     H21844  -0.384   5.196   8.955  0.4033  0.7169  1.6739
  903MOL0     H21845  -0.549   5.248   8.900 -0.2315  1.6017  2.0740
  903MOL0     H21846  -0.514   5.056   9.126 -2.5382 -0.7927 -1.9733
  903MOL0     H21847  -0.495   5.235   9.139 -0.5293  1.3981 -2.2330
  903MOL0     H21848  -0.732   5.254   9.061 -2.3065 -2.2958 -0.9008
  903MOL0     H21849  -0.734   5.081   9.041  1.9797  0.8328 -3.6878
  903MOL0     H21850  -0.656   5.104   9.323 -0.1565  0.2497  0.7119
  903MOL0     H21851  -0.749   5.249   9.294 -0.6891  0.9280 -0.0674
  903MOL0     H21852  -0.933   5.089   9.196 -1.4247 -0.0760  0.8484
  903MOL0     H21853  -0.833   4.950   9.242  1.9586  0.5558  3.0721
  903MOL0     H21854  -0.904   5.150   9.463  0.4438 -1.2546  2.2819
  903MOL0     H21855  -0.843   4.987   9.462  0.8630  0.6704 -0.5503
  903MOL0     H21856  -1.193   5.171   9.438  0.8028 -0.7940  0.4446
  903MOL0     H21857  -1.443   4.913   9.303 -1.9702  0.7545  0.4484
  903MOL0     H21858  -1.466   5.048   9.395  0.9792  1.0015  0.7766
  903MOL0     H21859  -1.355   5.021   9.103  0.6776  2.2621 -0.8536
  903MOL0     H21860  -1.354   5.177   9.171 -2.2894  1.0901 -0.8333
  903MOL0     H21861  -1.602   4.997   9.128 -0.3496 -0.0270 -1.1203
  903MOL0     H21862  -1.560   5.114   9.010  1.5594 -0.1732 -1.0106
  903MOL0     H21863  -1.621   5.294   9.191  1.2266 -1.5435 -3.2209
  903MOL0     H21864  -1.641   5.145   9.298 -1.9263  1.2393  0.4991
  903MOL0     H21865  -2.005   5.158   9.073  0.3302 -1.9973  0.9569
  903MOL0     H21866  -2.306   5.181   9.237 -1.4785  3.1991  0.8990
  903MOL0     H21867  -2.309   5.338   9.146  0.3668  0.9782  0.6799
  903MOL0     H21868  -2.233   5.189   9.078 -1.7635 -1.1937  0.2187
  903MOL0     H21869  -2.147   5.708   9.620 -0.2302  1.4157  2.7379
  903MOL0     H21870  -2.308   5.864   9.697  6.3126 -1.2555 -1.5869
  903MOL0     H21871  -2.672   5.693   9.882  1.8438 -0.1854 -1.4003
  903MOL0     H21872  -2.707   5.873   9.895  1.2162 -0.8852  2.2344
  903MOL0     H21873  -2.853   5.848   9.710  0.6666  0.2525 -1.8179
  903MOL0     H21874  -2.761   5.738   9.628 -2.8396  1.8814 -1.3565
  903MOL0     H21875  -2.830   5.544   9.780 -2.9578 -2.2789  1.0162
  903MOL0     H21876  -2.965   5.618   9.696  1.8370 -2.9433  0.1688
  903MOL0     H21877  -2.891   5.689   9.981 -1.3648 -2.6060  1.5289
  903MOL0     H21878  -3.041   5.727   9.898  0.7306  1.2153 -2.8769
  903MOL0     H21879  -3.066   5.531  10.052  1.5113 -0.5683  1.2391
  903MOL0     H21880  -2.952   5.438   9.946  3.1065  3.5315 -1.3431
  903MOL0     H21881  -3.188   5.570   9.816  1.7231  0.4232 -0.9244
  903MOL0     H21882  -3.099   5.416   9.767  0.0794 -0.3655 -0.2210
  903MOL0     H21883  -3.254   5.421  10.021  1.0919 -1.7990  1.2163
  903MOL0     H21884  -3.203   5.280   9.919 -1.7893  0.6654 -1.4865
  903MOL0     H21885  -3.398   5.481   9.825  2.2155  0.4068  0.2574
  903MOL0     H21886  -3.452   5.340   9.921  0.6565 -2.4885  0.3924
  903MOL0     H21887  -2.614   5.570   9.690 -0.0101  1.6040  1.1732
  903MOL0     H21888  -2.457   5.406   9.599 -0.2923  0.2794  0.6061
  903MOL0     H21889  -1.936   5.433   9.473 -0.3519 -2.2584  2.5323
  903MOL0     H21890  -1.750   5.311   9.367 -0.1929 -1.9802 -0.2635
  903MOL0     H21891  -0.134   5.225   8.816  1.8297  0.6899 -0.3311
  903MOL0     H21892   0.090   5.229   8.704 -1.8585  0.6628  3.4541
  903MOL0     H21893   0.495   5.147   8.635 -0.5416 -1.0215  1.1187
  903MOL0     H21894   0.730   5.115   8.680 -1.8678  0.5815  0.7159
  903MOL0     H21895   0.923   4.760   8.730 -1.5948  3.4913  0.4919
  903MOL0     H21896   0.939   4.722   8.552 -2.3474  2.4050 -2.8140
  903MOL0     H21897   1.147   4.829   8.530  1.4038 -3.9334 -0.5287
  903MOL0     H21898   1.166   4.725   8.665  0.1981  0.9905  1.1709
  903MOL0     H21899   1.082   4.956   8.800  1.1795  0.2671  1.3266
  903MOL0     H21900   1.160   5.025   8.673 -0.4990  0.7816  1.5516
  903MOL0     H21901   1.330   4.996   8.846 -1.0810  0.1409  1.1020
  903MOL0     H21902   1.358   4.858   8.731 -1.3161  2.3409 -1.5946
  903MOL0     H21903   1.250   4.694   9.108  1.2289 -3.1861 -1.1835
  903MOL0     H21904   0.713   4.717   8.519 -2.7443 -1.1010 -0.6955
  903MOL0     H21905   0.487   4.740   8.488 -1.8788  0.5320 -0.1841
  904MOL0     O21906  10.393   0.858   7.545  0.1347 -0.1760 -0.5698
  904MOL0     C21907  10.312   0.772   7.582  0.2734  0.2618 -0.4174
  904MOL0     O21908  10.173   0.783   7.593 -0.2171 -0.3692  0.1548
  904MOL0     C21909  10.126   0.905   7.557  0.6513  0.5895 -0.7773
  904MOL0     C21910  10.130   1.013   7.648 -0.5982  0.3919  0.9414
  904MOL0     C21911  10.070   1.134   7.590 -0.0622  0.4265 -1.4522
  904MOL0     C21912  10.018   1.146   7.459  0.9655 -0.9292  0.2060
  904MOL0     O21913   9.965   1.262   7.423 -0.1724 -0.2426  0.1968
  904MOL0     C21914   9.873   1.261   7.309  0.5349  0.3311  0.7227
  904MOL0     C21915   9.820   1.406   7.292 -0.6676  0.4260  0.3225
  904MOL0     C21916   9.709   1.424   7.189  0.6782  0.1990 -1.0335
  904MOL0     C21917   9.684   1.576   7.157 -0.2363 -0.5072  0.2432
  904MOL0     C21918   9.622   1.596   7.023  0.9529 -0.7389  1.2446
  904MOL0     C21919   9.712   1.576   6.897  0.3698  0.3034  0.5804
  904MOL0     C21920   9.635   1.589   6.769 -0.1658 -0.6192 -0.0167
  904MOL0     C21921   9.625   1.466   6.682  0.8975  0.4424  0.0028
  904MOL0     N21922   9.547   1.484   6.565  0.8368 -0.1146  0.1506
  904MOL0     C21923   9.570   1.574   6.460  0.3032  0.4043  0.0888
  904MOL0     C21924   9.471   1.560   6.368  0.1015  0.2599 -1.2172
  904MOL0     C21925   9.448   1.653   6.253 -0.2035  0.2189  0.7864
  904MOL0     C21926   9.579   1.666   6.171 -0.2637 -0.2294  1.1562
  904MOL0     C21927   9.538   1.720   6.030  0.4625 -0.1375 -0.2543
  904MOL0     C21928   9.665   1.747   5.959  0.0559  0.6631  0.2708
  904MOL0     O21929   9.648   1.827   5.837  1.0028  0.1840  0.0204
  904MOL0     C21930   9.768   1.832   5.775 -0.0065 -0.2184  0.6384
  904MOL0     C21931   9.819   1.727   5.689 -0.4793  0.1628  0.4133
  904MOL0     C21932   9.950   1.734   5.636  0.2100  1.5881  0.1160
  904MOL0     C21933   9.994   1.607   5.551 -0.8925 -0.5655  0.3245
  904MOL0     C21934  10.034   1.835   5.683 -0.7331 -0.0684 -0.5376
  904MOL0     C21935  10.183   1.836   5.670  0.0573 -0.0234 -0.0495
  904MOL0     O21936  10.235   1.956   5.714  0.5803 -0.4133 -0.2985
  904MOL0     C21937  10.370   1.981   5.730 -0.4833  0.0904 -0.1286
  904MOL0     C21938  10.409   2.106   5.772  1.4718  0.5339 -0.5628
  904MOL0     C21939  10.543   2.140   5.778  0.4153 -0.1109 -0.1310
  904MOL0     C21940  10.645   2.041   5.758 -0.3680 -0.0181 -0.5764
  904MOL0     O21941  10.775   2.067   5.738 -0.6872 -0.5075  0.4004
  904MOL0     C21942  10.822   2.191   5.798  0.8717  0.0686 -0.8007
  904MOL0     C21943  10.968   2.186   5.804  0.5414 -0.5840 -0.5084
  904MOL0     C21944  11.023   2.329   5.831  0.5072  0.2655 -0.4553
  904MOL0     C21945  11.167   2.323   5.844  0.8921 -0.6459  0.1254
  904MOL0     C21946  11.225   2.465   5.844 -0.0770  0.1964 -0.3376
  904MOL0     C21947  11.377   2.468   5.824 -0.4804  1.1063 -0.2521
  904MOL0     C21948  11.423   2.612   5.799 -0.2892 -0.4937 -0.3136
  904MOL0     C21949  11.569   2.623   5.833 -0.3542  1.1671 -0.6851
  904MOL0    Cl21950  11.637   2.779   5.799  0.1549  0.2087 -0.3688
  904MOL0     C21951  10.611   1.909   5.749 -0.0212  0.0546  0.3059
  904MOL0     C21952  10.473   1.883   5.741  0.4301  0.0705 -0.6385
  904MOL0     O21953  10.248   1.741   5.626  0.1009 -0.5765 -0.6308
  904MOL0     C21954   9.984   1.942   5.757  0.1248  0.1494 -0.0555
  904MOL0     C21955   9.852   1.947   5.798  0.4552  0.6617 -0.4320
  904MOL0     N21956   9.394   1.449   6.418  0.0202  0.7563  0.5600
  904MOL0     N21957   9.443   1.403   6.524  0.0079 -0.3965 -0.3947
  904MOL0     C21958  10.029   1.037   7.370  0.0196  1.1757 -0.6199
  904MOL0     C21959  10.075   0.918   7.424  0.0730 -0.7219 -0.6304
  904MOL0     C21960  10.374   0.635   7.603 -0.5408 -0.9546  0.9376
  904MOL0     C21961  10.292   0.535   7.649  0.0617  1.0816 -0.5626
  904MOL0     C21962  10.336   0.401   7.662  0.2378 -0.5344 -0.7255
  904MOL0     C21963  10.474   0.375   7.642  0.5973 -1.0830 -0.6378
  904MOL0     O21964  10.539   0.253   7.658  0.1210  1.5014  0.2012
  904MOL0     C21965  10.459   0.145   7.697  0.3671  0.4568  0.2589
  904MOL0     C21966  10.446   0.156   7.853 -0.4617 -0.3277 -0.5302
  904MOL0     C21967  10.389   0.031   7.929 -0.0724 -0.1186 -0.2341
  904MOL0     C21968  10.273   0.076   8.026 -0.2254  0.5582  1.1646
  904MOL0     C21969  10.162   0.138   7.949 -0.5026  0.5042 -0.1313
  904MOL0     C21970  10.076   0.184   7.882 -0.3226 -0.4984  0.1073
  904MOL0     C21971  10.552   0.479   7.581 -0.3010 -0.4183 -0.3284
  904MOL0     C21972  10.506   0.612   7.568 -0.3615 -0.0877 -0.0096
  904MOL0     H21973  10.187   1.011   7.741  0.7041 -0.5310  0.1627
  904MOL0     H21974  10.059   1.218   7.657  0.5870  0.0260 -0.8244
  904MOL0     H21975   9.911   1.230   7.211  1.3498 -1.7194  1.6275
  904MOL0     H21976   9.787   1.196   7.328  2.3737 -1.9922  1.7297
  904MOL0     H21977   9.792   1.428   7.395  0.8946 -3.5490  1.7515
  904MOL0     H21978   9.898   1.472   7.253 -0.5048 -0.5086 -0.9996
  904MOL0     H21979   9.739   1.374   7.096  1.4709 -3.4098  0.9767
  904MOL0     H21980   9.615   1.378   7.219  0.6512  1.1230  0.3805
  904MOL0     H21981   9.608   1.618   7.224 -1.0086 -0.7715 -0.4553
  904MOL0     H21982   9.773   1.639   7.148  0.6579 -1.7454  0.1255
  904MOL0     H21983   9.522   1.556   7.007 -0.1482  2.6310 -1.6831
  904MOL0     H21984   9.592   1.701   7.021  0.8869 -0.7623 -0.3789
  904MOL0     H21985   9.788   1.655   6.897 -1.6344  2.3552 -0.7618
  904MOL0     H21986   9.767   1.481   6.896 -0.1361  0.0096  0.3798
  904MOL0     H21987   9.539   1.636   6.788  0.5499  1.7543 -1.7283
  904MOL0     H21988   9.696   1.660   6.711 -2.5601 -0.7193 -2.8762
  904MOL0     H21989   9.575   1.390   6.743 -1.3280  2.4584  0.7880
  904MOL0     H21990   9.722   1.421   6.658 -0.8940 -2.9310 -1.6094
  904MOL0     H21991   9.645   1.652   6.450  1.4898 -0.4981  1.4905
  904MOL0     H21992   9.360   1.616   6.200 -0.0190 -0.4195  0.9121
  904MOL0     H21993   9.431   1.754   6.292  0.3021  0.8581 -0.5820
  904MOL0     H21994   9.627   1.570   6.153  0.8825  0.8786 -2.8762
  904MOL0     H21995   9.641   1.730   6.234  1.7302 -0.6595 -0.2618
  904MOL0     H21996   9.479   1.812   6.040  1.7165  0.5441  1.4179
  904MOL0     H21997   9.475   1.657   5.967 -0.4125  0.3942  0.0743
  904MOL0     H21998   9.702   1.648   5.933  0.5437  1.3894 -1.9496
  904MOL0     H21999   9.739   1.788   6.029  2.5007 -0.7015 -1.3857
  904MOL0     H22000   9.768   1.632   5.680  0.9377 -0.5507 -0.4139
  904MOL0     H22001   9.908   1.579   5.490  0.0733 -1.3635 -0.7064
  904MOL0     H22002  10.075   1.637   5.484 -0.9057 -3.5970 -1.2396
  904MOL0     H22003  10.024   1.525   5.616 -1.5829 -1.7351 -0.7910
  904MOL0     H22004  10.326   2.173   5.789 -0.6925 -1.9136 -0.8583
  904MOL0     H22005  10.559   2.244   5.805 -0.1405  0.2330 -1.0772
  904MOL0     H22006  10.791   2.281   5.745  0.7989 -0.2538 -1.3192
  904MOL0     H22007  10.790   2.217   5.899  1.9814  0.1854 -0.4634
  904MOL0     H22008  11.002   2.115   5.881  0.4083 -1.5366 -1.3096
  904MOL0     H22009  10.999   2.154   5.704  1.1956  0.7826 -0.7702
  904MOL0     H22010  10.976   2.363   5.924  0.9216 -3.1770  1.1550
  904MOL0     H22011  10.986   2.393   5.750 -4.3941 -0.7869  0.6709
  904MOL0     H22012  11.188   2.275   5.940  1.8816 -1.2173 -0.3514
  904MOL0     H22013  11.211   2.267   5.761 -0.6744  1.2586 -2.1005
  904MOL0     H22014  11.199   2.524   5.933 -1.5107  0.3871 -0.8555
  904MOL0     H22015  11.201   2.522   5.753  2.3062  0.8666 -0.6139
  904MOL0     H22016  11.420   2.425   5.916  2.6377 -1.0617 -2.5019
  904MOL0     H22017  11.406   2.407   5.737 -2.5674  1.4521 -1.2433
  904MOL0     H22018  11.370   2.683   5.863  0.5966 -0.8924  0.8965
  904MOL0     H22019  11.395   2.648   5.699  5.0749  0.9614 -1.6158
  904MOL0     H22020  11.627   2.551   5.774 -0.0879  1.4152 -0.7302
  904MOL0     H22021  11.593   2.597   5.936 -0.5574  0.1579 -0.8817
  904MOL0     H22022  10.684   1.833   5.724 -1.3302 -1.3822  0.6842
  904MOL0     H22023  10.446   1.778   5.736  1.1039 -0.2399  1.2977
  904MOL0     H22024  10.042   2.027   5.792 -2.8040  1.9803  0.7188
  904MOL0     H22025   9.811   2.030   5.854 -2.4327 -0.2526 -1.0052
  904MOL0     H22026   9.999   1.031   7.266  0.7809 -0.7316 -0.7760
  904MOL0     H22027  10.077   0.836   7.353  2.1559  1.8848 -3.8730
  904MOL0     H22028  10.187   0.552   7.669 -0.8146  1.0796 -4.5037
  904MOL0     H22029  10.264   0.329   7.701 -1.1021  1.8685  1.5159
  904MOL0     H22030  10.363   0.139   7.645  0.3661 -0.1281  0.3221
  904MOL0     H22031  10.508   0.049   7.675 -0.3420  0.1909 -0.1977
  904MOL0     H22032  10.399   0.252   7.877 -1.1187 -1.3698  2.8145
  904MOL0     H22033  10.549   0.171   7.886  0.0115 -0.7104 -1.7647
  904MOL0     H22034  10.470  -0.011   7.989 -0.7198 -2.7409 -1.0462
  904MOL0     H22035  10.347  -0.044   7.861  1.6371 -0.0530 -1.4185
  904MOL0     H22036  10.308   0.135   8.111  2.4471 -0.8652  1.1430
  904MOL0     H22037  10.227  -0.018   8.059  0.9237  0.7037  3.3574
  904MOL0     H22038  10.007   0.236   7.818 -0.4399  0.3972  0.9287
  904MOL0     H22039  10.657   0.454   7.585 -0.1418  0.2685 -0.0328
  904MOL0     H22040  10.569   0.690   7.525  0.8565 -1.8214 -1.5335
  905MOL0     O22041   2.787   7.154   9.287 -0.4545 -0.6479 -0.2251
  905MOL0     C22042   2.777   7.275   9.276 -0.7674 -0.6354 -0.6112
  905MOL0     O22043   2.660   7.344   9.291 -0.7928 -0.2990 -0.2455
  905MOL0     C22044   2.556   7.252   9.314 -0.0880  0.1033 -0.6857
  905MOL0     C22045   2.469   7.207   9.215  0.2937 -0.2380  1.0179
  905MOL0     C22046   2.359   7.117   9.243  0.5723 -0.2492  0.4168
  905MOL0     C22047   2.331   7.087   9.370 -0.0911 -0.4820 -0.7386
  905MOL0     O22048   2.230   6.997   9.408  0.0679 -0.4498 -0.3176
  905MOL0     C22049   2.134   6.959   9.311  0.5579  0.3965 -0.6268
  905MOL0     C22050   2.017   6.874   9.374 -0.0552  0.0776  0.0528
  905MOL0     C22051   2.003   6.886   9.530 -0.2593 -0.3724 -0.0536
  905MOL0     C22052   1.897   6.790   9.576 -0.7896 -0.1398 -0.4405
  905MOL0     C22053   1.926   6.746   9.717 -0.3060 -0.3050 -0.5923
  905MOL0     C22054   1.840   6.633   9.772 -0.5312 -0.2119  0.5816
  905MOL0     C22055   1.874   6.595   9.915  0.1033  0.0073  0.7398
  905MOL0     C22056   1.779   6.496   9.974 -0.3211  0.1383  0.1735
  905MOL0     N22057   1.640   6.534   9.947  0.4210  0.1782 -0.0928
  905MOL0     C22058   1.573   6.623  10.019 -0.6889  0.0521 -0.3060
  905MOL0     C22059   1.438   6.594  10.001 -0.1788  0.7469  0.9734
  905MOL0     C22060   1.324   6.673  10.058  1.0409 -0.2910  0.1193
  905MOL0     C22061   1.186   6.690   9.990 -0.1174 -0.5038  0.1824
  905MOL0     C22062   1.095   6.575  10.020  0.2237 -0.3966 -0.1966
  905MOL0     C22063   0.948   6.601   9.979  0.0711  0.6303  0.1401
  905MOL0     O22064   0.851   6.504  10.033 -0.4710  0.0568  0.1468
  905MOL0     C22065   0.724   6.523   9.999 -0.2224  0.3530 -0.6455
  905MOL0     C22066   0.644   6.409  10.030 -0.5781  0.2379  0.6704
  905MOL0     C22067   0.506   6.404  10.008 -0.1437  0.6163 -0.4556
  905MOL0     C22068   0.434   6.279  10.053  0.6312 -0.8727  0.6623
  905MOL0     C22069   0.451   6.527   9.963 -0.7183 -0.5471 -0.2328
  905MOL0     C22070   0.306   6.541   9.924 -0.4242 -0.5126 -0.3661
  905MOL0     O22071   0.269   6.660   9.862 -1.0110  0.1267  0.6257
  905MOL0     C22072   0.140   6.677   9.853  0.2481  1.2289  0.1307
  905MOL0     C22073   0.057   6.690   9.964 -0.6644  0.0873  0.7449
  905MOL0     C22074  -0.087   6.681   9.946 -0.0233 -0.8358 -0.0861
  905MOL0     C22075  -0.146   6.664   9.818 -0.4146  0.1178 -0.4703
  905MOL0     O22076  -0.276   6.648   9.795 -0.3069  0.7307  0.9416
  905MOL0     C22077  -0.370   6.659   9.903 -0.1554  1.0509  0.1358
  905MOL0     C22078  -0.509   6.660   9.839  0.2496  0.1909 -0.5956
  905MOL0     C22079  -0.541   6.792   9.761  0.8287  0.7238 -0.6047
  905MOL0     C22080  -0.558   6.914   9.861  0.1657 -0.8764 -0.3296
  905MOL0     C22081  -0.611   7.043   9.799  0.7224  0.2192  0.4476
  905MOL0     C22082  -0.752   7.030   9.742 -0.1661  0.1975  0.6414
  905MOL0     C22083  -0.771   7.160   9.656  0.1508 -0.2316 -0.5350
  905MOL0     C22084  -0.716   7.152   9.510 -0.0223 -0.7384 -0.3390
  905MOL0    Cl22085  -0.760   7.291   9.409 -0.2843 -0.7322 -0.0627
  905MOL0     C22086  -0.058   6.660   9.711 -0.2259 -0.4879 -0.6514
  905MOL0     C22087   0.080   6.668   9.723 -0.2977 -0.2953 -0.3408
  905MOL0     O22088   0.232   6.450   9.948  0.3553 -0.1185  0.0208
  905MOL0     C22089   0.525   6.646   9.932 -1.6936 -0.2039 -0.5953
  905MOL0     C22090   0.668   6.639   9.944 -0.0424  0.0296  0.3183
  905MOL0     N22091   1.431   6.481   9.915 -0.3074  0.7023 -0.4006
  905MOL0     N22092   1.551   6.451   9.884  0.3379 -0.2850 -0.7361
  905MOL0     C22093   2.407   7.148   9.473  0.0731 -0.1189  0.3728
  905MOL0     C22094   2.515   7.233   9.450 -0.6735 -0.6758 -0.4518
  905MOL0     C22095   2.897   7.356   9.253  0.2886 -0.0600  0.5035
  905MOL0     C22096   3.024   7.302   9.288 -0.6194 -0.6624  0.7559
  905MOL0     C22097   3.140   7.371   9.271 -0.4315 -0.6372  0.2186
  905MOL0     C22098   3.142   7.502   9.222 -0.9801 -0.1017 -0.1456
  905MOL0     O22099   3.260   7.572   9.231 -0.6091  0.3262 -1.0666
  905MOL0     C22100   3.270   7.699   9.159 -0.3052  0.1314  0.0509
  905MOL0     C22101   3.414   7.723   9.107  0.4812  0.5709  0.5292
  905MOL0     C22102   3.511   7.734   9.223 -0.4496 -0.3993  0.2302
  905MOL0     C22103   3.611   7.850   9.230  0.4515  0.3657 -0.0913
  905MOL0     C22104   3.552   7.984   9.206 -0.3131  0.0722 -0.6323
  905MOL0     C22105   3.499   8.089   9.176  0.7257 -0.2060  0.1917
  905MOL0     C22106   3.016   7.564   9.191 -0.0354 -0.5061 -0.2657
  905MOL0     C22107   2.890   7.495   9.204 -0.3145 -0.1203 -1.7659
  905MOL0     H22108   2.476   7.254   9.118 -1.9452 -0.4185  0.7169
  905MOL0     H22109   2.293   7.098   9.159 -1.8531  0.6039  1.9860
  905MOL0     H22110   2.086   7.048   9.268  1.3650 -0.7108 -4.1528
  905MOL0     H22111   2.182   6.896   9.237 -1.1494 -1.8565  0.0770
  905MOL0     H22112   1.925   6.893   9.318 -0.0698 -0.6132 -0.1707
  905MOL0     H22113   2.041   6.768   9.359 -0.3347 -0.4606  2.7999
  905MOL0     H22114   2.094   6.843   9.573  1.0044  2.7717  0.6994
  905MOL0     H22115   1.988   6.989   9.563  2.1784  0.6676 -1.9168
  905MOL0     H22116   1.805   6.847   9.562 -1.3597 -0.7629  0.5871
  905MOL0     H22117   1.897   6.702   9.511 -1.9428  0.2725 -1.0249
  905MOL0     H22118   2.026   6.715   9.747 -1.2318 -2.4501  0.5528
  905MOL0     H22119   1.908   6.831   9.783  2.2283  0.5618 -0.9156
  905MOL0     H22120   1.735   6.661   9.758 -0.7192 -0.8702  0.6526
  905MOL0     H22121   1.849   6.540   9.717 -0.0575 -1.2079  2.2603
  905MOL0     H22122   1.982   6.576   9.917  0.3529  0.4989 -2.5235
  905MOL0     H22123   1.846   6.687   9.967  2.5199  2.3984 -1.8674
  905MOL0     H22124   1.791   6.499  10.083 -0.3166  2.1427  0.1512
  905MOL0     H22125   1.800   6.395   9.939  1.7490  1.0524 -1.4137
  905MOL0     H22126   1.614   6.700  10.083 -0.7931 -0.7856  0.8031
  905MOL0     H22127   1.321   6.646  10.164  0.0740  0.2516  0.2404
  905MOL0     H22128   1.363   6.775  10.053  0.2444  0.0301  0.2730
  905MOL0     H22129   1.208   6.696   9.883  0.9186 -2.0999  0.2676
  905MOL0     H22130   1.144   6.781  10.033  1.0023  0.1197 -0.0185
  905MOL0     H22131   1.093   6.566  10.129 -0.2199  3.1662  0.2101
  905MOL0     H22132   1.136   6.493   9.961  3.2820  2.5786 -2.6388
  905MOL0     H22133   0.946   6.604   9.870 -0.3429  2.3640  0.1634
  905MOL0     H22134   0.924   6.702  10.014  0.2458 -0.1754  2.8417
  905MOL0     H22135   0.704   6.322  10.054  1.3442  0.1402 -3.6803
  905MOL0     H22136   0.336   6.305  10.096  2.0504 -0.0487  3.6270
  905MOL0     H22137   0.420   6.205   9.973  0.7943  1.5123 -1.6859
  905MOL0     H22138   0.483   6.240  10.142 -0.0841 -1.9715  0.5996
  905MOL0     H22139   0.113   6.678  10.055  1.2731 -1.5827 -0.5796
  905MOL0     H22140  -0.144   6.679  10.039 -0.8746 -0.5136 -0.5874
  905MOL0     H22141  -0.365   6.579   9.977  0.8190  1.7801  0.8832
  905MOL0     H22142  -0.364   6.753   9.958  2.5962  0.9560  0.1291
  905MOL0     H22143  -0.529   6.567   9.785  0.7332 -2.2065  2.9963
  905MOL0     H22144  -0.584   6.642   9.916  0.0761 -1.1418 -1.0643
  905MOL0     H22145  -0.635   6.769   9.710 -0.3972 -2.0331  2.4641
  905MOL0     H22146  -0.458   6.810   9.693  0.6799 -2.5265 -1.8291
  905MOL0     H22147  -0.630   6.881   9.937  2.1075 -2.2768  0.9935
  905MOL0     H22148  -0.465   6.945   9.910  0.0356 -3.6038  1.9098
  905MOL0     H22149  -0.543   7.080   9.722 -3.9151 -0.3558 -4.5699
  905MOL0     H22150  -0.614   7.122   9.874 -3.4729 -1.3564  2.2816
  905MOL0     H22151  -0.765   6.942   9.678 -2.9479 -0.9012  2.5610
  905MOL0     H22152  -0.832   7.038   9.816  0.8211  2.6824  1.5440
  905MOL0     H22153  -0.725   7.240   9.715  2.1472 -1.4350 -0.3721
  905MOL0     H22154  -0.878   7.178   9.664 -0.2384 -2.6404  0.2068
  905MOL0     H22155  -0.754   7.066   9.454 -2.8190 -0.0224  0.3088
  905MOL0     H22156  -0.607   7.146   9.519 -0.1206 -0.8203  1.2049
  905MOL0     H22157  -0.096   6.655   9.610 -2.9409  1.4579  0.1474
  905MOL0     H22158   0.147   6.648   9.640  1.2683 -2.3532  1.3003
  905MOL0     H22159   0.477   6.737   9.898  0.1658  0.5151 -1.4224
  905MOL0     H22160   0.721   6.725   9.905  0.7847  0.1298  1.6086
  905MOL0     H22161   2.365   7.148   9.573  1.0955 -3.6246  0.9701
  905MOL0     H22162   2.567   7.284   9.531 -1.7539  1.8299 -1.2383
  905MOL0     H22163   3.038   7.203   9.331  4.1215  0.2608  1.9021
  905MOL0     H22164   3.229   7.314   9.297  1.4259  1.3669 -1.2932
  905MOL0     H22165   3.208   7.701   9.069 -0.8980  0.2180  0.4561
  905MOL0     H22166   3.258   7.786   9.224  0.2629  0.6614 -0.5403
  905MOL0     H22167   3.409   7.807   9.038  0.5304 -0.7010 -1.0986
  905MOL0     H22168   3.441   7.633   9.050 -0.9321  1.3326 -1.4595
  905MOL0     H22169   3.567   7.641   9.207 -1.9336 -1.0421 -1.5511
  905MOL0     H22170   3.451   7.728   9.314  0.2682 -0.6420  0.7001
  905MOL0     H22171   3.689   7.833   9.155  0.2955 -3.6828  0.4626
  905MOL0     H22172   3.659   7.844   9.329 -1.9519  0.4487  1.1567
  905MOL0     H22173   3.452   8.184   9.162  0.4826 -0.6886 -2.9244
  905MOL0     H22174   3.011   7.667   9.158  2.1053 -0.0070  0.7777
  905MOL0     H22175   2.795   7.547   9.201 -0.7855 -0.5473  1.7881
  906MOL0     O22176   3.694   1.486   1.224 -0.1128  0.9019 -0.2560
  906MOL0     C22177   3.726   1.391   1.294 -0.5082 -0.2673  0.0316
  906MOL0     O22178   3.715   1.256   1.267  0.0409 -0.5525  1.3523
  906MOL0     C22179   3.675   1.221   1.138 -0.3039  0.7492 -0.0342
  906MOL0     C22180   3.769   1.137   1.069  0.0202  0.0461  0.5666
  906MOL0     C22181   3.731   1.081   0.943 -0.5830 -0.0599 -1.2540
  906MOL0     C22182   3.591   1.097   0.905 -0.4630 -0.3994 -0.5923
  906MOL0     O22183   3.557   1.035   0.790 -0.1688 -0.4196  0.0408
  906MOL0     C22184   3.443   0.944   0.787  0.2686  0.4111  0.4930
  906MOL0     C22185   3.474   0.817   0.867  0.1486 -0.0435 -0.1839
  906MOL0     C22186   3.399   0.689   0.822  0.1243 -0.5415  0.1240
  906MOL0     C22187   3.401   0.577   0.934  0.0224 -0.4197 -0.0713
  906MOL0     C22188   3.329   0.442   0.895  0.2239 -0.1282 -0.2106
  906MOL0     C22189   3.194   0.461   0.825  0.4576  0.1139  0.0078
  906MOL0     C22190   3.134   0.332   0.783  0.3664 -0.0594 -0.2050
  906MOL0     C22191   3.208   0.250   0.677  0.1962 -0.1025 -0.4441
  906MOL0     N22192   3.120   0.165   0.595  0.4298 -0.1507 -0.6324
  906MOL0     C22193   3.058   0.043   0.635  0.5460  0.1556 -0.1333
  906MOL0     C22194   3.027  -0.024   0.525  0.3490  1.0794  0.4223
  906MOL0     C22195   2.988  -0.172   0.530  1.1627 -0.2034  0.4286
  906MOL0     C22196   2.859  -0.201   0.447 -0.3866  1.5977  0.9061
  906MOL0     C22197   2.754  -0.094   0.469  0.5693  0.0126 -0.6032
  906MOL0     C22198   2.623  -0.126   0.391 -0.2438  0.0848 -0.2274
  906MOL0     O22199   2.533  -0.036   0.459  0.1975 -0.0101 -0.9547
  906MOL0     C22200   2.408  -0.041   0.400  0.2600 -0.2334  0.1269
  906MOL0     C22201   2.371   0.067   0.313 -0.8582  1.4597 -1.5510
  906MOL0     C22202   2.241   0.073   0.261  0.0766  0.0259  0.0627
  906MOL0     C22203   2.195   0.204   0.222 -0.3883 -0.8530  0.2197
  906MOL0     C22204   2.145  -0.038   0.282 -0.6318 -0.2625  0.5736
  906MOL0     C22205   2.006  -0.040   0.235  0.4365 -0.4656 -0.1691
  906MOL0     O22206   1.954   0.074   0.178 -0.4024 -0.1363 -0.5445
  906MOL0     C22207   1.818   0.069   0.157  0.8727  0.6528 -0.0280
  906MOL0     C22208   1.767   0.060   0.023 -0.4880 -0.0818  0.0946
  906MOL0     C22209   1.624   0.054   0.001 -0.4011  0.2416  0.2174
  906MOL0     C22210   1.531   0.070   0.101  0.8406 -0.3657 -0.9720
  906MOL0     O22211   1.398   0.066   0.084  0.5136 -0.2413 -0.4358
  906MOL0     C22212   1.353   0.162  -0.015  0.3769  0.5424  0.6687
  906MOL0     C22213   1.195   0.126  -0.018 -0.7480 -0.6120 -0.6257
  906MOL0     C22214   1.103   0.231  -0.083  0.0545 -0.4415 -0.7573
  906MOL0     C22215   0.961   0.189  -0.054  0.1789 -0.0211 -0.4323
  906MOL0     C22216   0.855   0.282  -0.114  0.3231  0.1704 -0.5126
  906MOL0     C22217   0.718   0.254  -0.048 -0.5703  0.4917  0.4908
  906MOL0     C22218   0.613   0.367  -0.070 -1.3687 -0.3214  1.4733
  906MOL0     C22219   0.467   0.341  -0.055 -0.1654  0.2968  0.6524
  906MOL0    Cl22220   0.438   0.218   0.073 -0.6162 -0.6573  0.4634
  906MOL0     C22221   1.577   0.084   0.233 -0.1030 -0.3797 -0.1681
  906MOL0     C22222   1.720   0.080   0.261  0.1204 -0.6663  0.1185
  906MOL0     O22223   1.941  -0.142   0.262 -0.1768  0.7186 -0.0597
  906MOL0     C22224   2.185  -0.143   0.370 -0.0069  0.1095 -0.2574
  906MOL0     C22225   2.313  -0.143   0.430 -0.2745 -0.3204 -0.9375
  906MOL0     N22226   3.062   0.060   0.418 -0.2797  0.7742 -0.8724
  906MOL0     N22227   3.123   0.167   0.460 -0.2620  0.0860 -0.0082
  906MOL0     C22228   3.504   1.171   0.987  0.2989 -0.3936  0.7415
  906MOL0     C22229   3.549   1.241   1.098  0.3910  0.0556  0.3267
  906MOL0     C22230   3.787   1.419   1.426  0.2822 -0.0318  0.6904
  906MOL0     C22231   3.714   1.486   1.521  0.0353  0.0489  0.6114
  906MOL0     C22232   3.763   1.518   1.644 -0.4019 -0.5842  0.2298
  906MOL0     C22233   3.895   1.475   1.675  0.4194 -0.0417  0.4194
  906MOL0     O22234   3.971   1.522   1.777 -0.2284 -0.4230  0.3705
  906MOL0     C22235   4.093   1.595   1.762 -0.6098 -0.1741  0.5000
  906MOL0     C22236   4.114   1.682   1.642  0.3448  0.0028  0.2471
  906MOL0     C22237   4.249   1.754   1.636  0.3553  0.6632 -0.2259
  906MOL0     C22238   4.374   1.676   1.596  0.1239  0.9921  0.2017
  906MOL0     C22239   4.488   1.770   1.599  0.5647  0.7942  0.2840
  906MOL0     C22240   4.587   1.834   1.596 -0.9054  0.2763 -0.4507
  906MOL0     C22241   3.960   1.390   1.581 -0.1545 -0.6846  0.2841
  906MOL0     C22242   3.906   1.358   1.454  0.6965 -0.4157 -0.6299
  906MOL0     H22243   3.869   1.138   1.112 -1.0147  1.1943  3.1681
  906MOL0     H22244   3.794   1.023   0.877 -0.3772  0.9649 -1.9787
  906MOL0     H22245   3.352   0.995   0.818  0.4451  0.5432  0.8068
  906MOL0     H22246   3.412   0.902   0.691 -3.0458  0.7183  1.3028
  906MOL0     H22247   3.581   0.792   0.872 -0.2943 -2.4491 -1.1415
  906MOL0     H22248   3.445   0.843   0.969  2.1123 -1.2444  0.7670
  906MOL0     H22249   3.299   0.724   0.799  0.5804  0.0039 -1.1237
  906MOL0     H22250   3.450   0.652   0.732  1.9281  1.5821  0.1906
  906MOL0     H22251   3.502   0.549   0.966  0.9185  0.4990 -1.9109
  906MOL0     H22252   3.359   0.621   1.024 -2.9571  0.5842 -1.8165
  906MOL0     H22253   3.398   0.385   0.832  2.9068  1.2667  1.2424
  906MOL0     H22254   3.314   0.380   0.984  0.4361  0.8272  0.5141
  906MOL0     H22255   3.136   0.508   0.904  1.3574 -2.0841  2.1108
  906MOL0     H22256   3.201   0.521   0.734 -1.9033 -2.0773 -1.7800
  906MOL0     H22257   3.123   0.269   0.872 -1.4524 -0.1674 -0.4805
  906MOL0     H22258   3.029   0.351   0.758 -0.1689 -1.1590  1.1052
  906MOL0     H22259   3.285   0.195   0.730 -0.4360  0.3635  1.0190
  906MOL0     H22260   3.262   0.324   0.617  1.3557 -0.1464  0.5170
  906MOL0     H22261   3.045   0.018   0.740  1.0355 -1.5373 -0.4489
  906MOL0     H22262   3.072  -0.226   0.487  2.0574  1.4945 -0.0303
  906MOL0     H22263   2.962  -0.192   0.635  0.4537  0.1885  0.3369
  906MOL0     H22264   2.816  -0.298   0.473 -2.2934  0.6630 -4.5305
  906MOL0     H22265   2.877  -0.198   0.339 -0.3752 -2.1787  0.6787
  906MOL0     H22266   2.795  -0.002   0.428  0.6773  0.3154  0.1709
  906MOL0     H22267   2.732  -0.085   0.576 -0.9287 -0.3119 -0.8631
  906MOL0     H22268   2.591  -0.229   0.407  0.7898 -0.2306 -0.1176
  906MOL0     H22269   2.629  -0.099   0.285  2.2911  0.2658 -0.0990
  906MOL0     H22270   2.450   0.132   0.279  0.9348 -0.4626 -1.2687
  906MOL0     H22271   2.110   0.235   0.282  0.8394  1.8268  0.7103
  906MOL0     H22272   2.271   0.282   0.228 -0.3590 -0.8649  0.0202
  906MOL0     H22273   2.181   0.205   0.113 -1.2915 -1.6600  0.3195
  906MOL0     H22274   1.828   0.044  -0.065 -1.7762 -0.6672 -0.7266
  906MOL0     H22275   1.581   0.042  -0.098 -1.4626  2.0622  0.4118
  906MOL0     H22276   1.364   0.267   0.015  4.1362  0.1971  0.9631
  906MOL0     H22277   1.392   0.154  -0.117 -2.6541  1.0505 -0.6441
  906MOL0     H22278   1.189   0.029  -0.067  3.4486  0.1810 -3.2215
  906MOL0     H22279   1.160   0.120   0.085  2.7426  0.3890  0.7561
  906MOL0     H22280   1.107   0.246  -0.192  2.4865  1.0192 -0.5390
  906MOL0     H22281   1.127   0.329  -0.040  3.3935  0.0423 -3.2772
  906MOL0     H22282   0.947   0.090  -0.100 -2.5174  0.8674 -1.7161
  906MOL0     H22283   0.945   0.178   0.054  1.8626  2.6114  0.1836
  906MOL0     H22284   0.855   0.277  -0.223 -2.2126  1.0419 -0.6014
  906MOL0     H22285   0.895   0.378  -0.079  1.2724 -0.9039  1.5246
  906MOL0     H22286   0.675   0.159  -0.080 -0.5254  0.7217 -0.2665
  906MOL0     H22287   0.728   0.233   0.059  2.4324 -2.2664 -0.1741
  906MOL0     H22288   0.629   0.408  -0.171 -3.1085  0.2187  1.3808
  906MOL0     H22289   0.645   0.451  -0.008  1.9847 -1.7578  1.8935
  906MOL0     H22290   0.427   0.310  -0.152 -2.5524  1.9565  1.0017
  906MOL0     H22291   0.419   0.438  -0.037  2.8984  2.6445 -2.2831
  906MOL0     H22292   1.515   0.105   0.320  0.0032  0.7445 -0.3547
  906MOL0     H22293   1.759   0.101   0.361 -0.3490 -4.1568  1.1493
  906MOL0     H22294   2.120  -0.223   0.405 -0.7337  1.0897  0.7189
  906MOL0     H22295   2.330  -0.223   0.502 -0.3254 -0.1051 -0.6826
  906MOL0     H22296   3.400   1.194   0.965  0.4662  2.4764  2.4104
  906MOL0     H22297   3.474   1.298   1.153  0.1721  1.7989 -1.6774
  906MOL0     H22298   3.612   1.499   1.485  1.1223  2.6140 -1.9296
  906MOL0     H22299   3.700   1.573   1.713 -1.8088 -2.3844  0.4629
  906MOL0     H22300   4.096   1.654   1.855  1.6745  0.0200  0.3557
  906MOL0     H22301   4.171   1.519   1.774 -0.4481 -0.1935 -0.6326
  906MOL0     H22302   4.045   1.767   1.642 -0.6134 -0.7179 -1.5276
  906MOL0     H22303   4.090   1.632   1.547 -2.0439  0.1743  0.6877
  906MOL0     H22304   4.269   1.797   1.734  2.1486  1.9833 -1.1205
  906MOL0     H22305   4.243   1.828   1.556  1.7621 -0.4460 -1.4271
  906MOL0     H22306   4.364   1.637   1.494  0.7580  1.1905  0.0609
  906MOL0     H22307   4.385   1.597   1.671 -1.2557  2.0100  1.5435
  906MOL0     H22308   4.675   1.895   1.586 -0.6303  0.5970  2.7369
  906MOL0     H22309   4.059   1.358   1.610 -0.9574 -2.5751  1.1665
  906MOL0     H22310   3.967   1.307   1.381 -2.4493 -1.9060 -2.4509
  907MOL0     O22311   0.349   8.166   6.400  0.3930  0.2512 -0.6625
  907MOL0     C22312   0.404   8.242   6.476  1.2483  0.0559 -0.5728
  907MOL0     O22313   0.367   8.372   6.496  0.5288 -0.3945  0.0301
  907MOL0     C22314   0.288   8.436   6.420  0.1441  1.0696 -0.5254
  907MOL0     C22315   0.151   8.398   6.398  1.2939  0.1231 -0.1105
  907MOL0     C22316   0.061   8.480   6.324  0.1604  0.7835  0.0754
  907MOL0     C22317   0.103   8.601   6.272 -0.1253 -0.2506  0.1877
  907MOL0     O22318   0.016   8.672   6.195  0.4270 -0.0381 -0.5526
  907MOL0     C22319   0.047   8.807   6.162 -0.5236 -0.7962 -0.7157
  907MOL0     C22320  -0.059   8.873   6.066  0.6613  0.3834 -0.2903
  907MOL0     C22321  -0.193   8.925   6.132 -0.8576  0.3668 -0.4292
  907MOL0     C22322  -0.283   8.983   6.022 -0.3806  0.2229  0.1899
  907MOL0     C22323  -0.383   9.074   6.084  0.1110  0.5535 -1.0167
  907MOL0     C22324  -0.491   9.141   5.991 -0.2208  0.1651 -0.2019
  907MOL0     C22325  -0.454   9.297   5.989  0.3849 -0.0662 -0.0836
  907MOL0     C22326  -0.543   9.370   5.881 -0.1422  0.5157 -0.9198
  907MOL0     N22327  -0.687   9.356   5.917  0.0554 -1.0404 -0.7294
  907MOL0     C22328  -0.777   9.273   5.860  0.0775  0.6689  0.6787
  907MOL0     C22329  -0.888   9.288   5.932  0.1249  0.0810 -0.1678
  907MOL0     C22330  -1.023   9.221   5.915 -1.1702 -0.0392 -0.2538
  907MOL0     C22331  -0.994   9.072   5.950 -0.6571  0.5372 -0.2216
  907MOL0     C22332  -1.116   8.996   5.990  0.0490  0.5587 -0.4682
  907MOL0     C22333  -1.217   8.956   5.878  0.7969 -1.3490 -0.5131
  907MOL0     O22334  -1.221   9.072   5.793  0.3071 -0.0826  0.7049
  907MOL0     C22335  -1.314   9.084   5.696  0.0460  0.8084 -0.9076
  907MOL0     C22336  -1.293   9.181   5.599  1.1916  0.1098  0.9719
  907MOL0     C22337  -1.376   9.182   5.482  0.3448 -0.0529  0.1961
  907MOL0     C22338  -1.335   9.290   5.387 -0.3697  0.1373  0.6188
  907MOL0     C22339  -1.491   9.097   5.476 -0.0994  0.1885 -1.1554
  907MOL0     C22340  -1.586   9.105   5.366  0.7142  0.1557  0.4261
  907MOL0     O22341  -1.706   9.050   5.387  0.2496  0.4496 -0.3167
  907MOL0     C22342  -1.806   9.043   5.293  0.3489  0.8449 -0.1106
  907MOL0     C22343  -1.844   9.156   5.228  0.4850 -0.1056  0.3397
  907MOL0     C22344  -1.957   9.146   5.134 -0.1341  0.0448 -0.0264
  907MOL0     C22345  -2.022   9.029   5.111 -1.0873  0.4074 -0.7689
  907MOL0     O22346  -2.129   9.030   5.027 -0.0832  0.0302  0.7095
  907MOL0     C22347  -2.239   8.937   5.061 -0.0082 -0.0625  0.0690
  907MOL0     C22348  -2.356   8.954   4.970  0.0372 -0.4500  0.0280
  907MOL0     C22349  -2.466   8.856   4.975 -0.8146  0.2175 -0.6331
  907MOL0     C22350  -2.566   8.877   4.857 -0.3366  0.4950  0.3577
  907MOL0     C22351  -2.678   8.778   4.892  0.8659 -0.1566  0.2477
  907MOL0     C22352  -2.801   8.786   4.809  0.8971 -0.1216 -0.2677
  907MOL0     C22353  -2.894   8.671   4.851 -0.3216 -0.8865 -0.0091
  907MOL0     C22354  -3.015   8.687   4.759 -0.7111  0.4382 -0.0313
  907MOL0    Cl22355  -3.122   8.554   4.793 -0.8182  0.1284  0.1767
  907MOL0     C22356  -1.983   8.910   5.185 -0.3864 -0.0209  0.2886
  907MOL0     C22357  -1.875   8.921   5.259  0.4543 -0.2387 -0.4066
  907MOL0     O22358  -1.552   9.151   5.256  0.1858  0.2875 -0.0495
  907MOL0     C22359  -1.509   8.999   5.580 -0.4526  0.2298 -0.1812
  907MOL0     C22360  -1.426   8.990   5.692  0.3042 -1.0777 -0.2816
  907MOL0     N22361  -0.869   9.383   6.028  0.4774  0.3428  0.4365
  907MOL0     N22362  -0.747   9.416   6.030 -0.2554 -0.1107 -0.0687
  907MOL0     C22363   0.237   8.636   6.303 -0.0237 -0.2485 -0.4341
  907MOL0     C22364   0.331   8.550   6.370  0.5907 -0.6097  0.1591
  907MOL0     C22365   0.497   8.173   6.566 -0.7320  0.1399  0.3393
  907MOL0     C22366   0.566   8.046   6.548  0.6843 -0.2084 -0.5432
  907MOL0     C22367   0.647   7.991   6.639 -0.2034 -0.2184  0.7141
  907MOL0     C22368   0.672   8.043   6.764  0.0741 -0.1397  0.3687
  907MOL0     O22369   0.754   7.982   6.857 -0.7937  0.3192  0.3021
  907MOL0     C22370   0.830   8.067   6.947 -0.6931  0.3871 -0.1000
  907MOL0     C22371   0.934   8.000   7.040  0.5285 -0.3485  0.1176
  907MOL0     C22372   1.040   7.929   6.951  0.2227  0.5572 -0.1272
  907MOL0     C22373   1.121   8.028   6.873 -0.4051 -0.7594  0.2991
  907MOL0     C22374   1.195   7.962   6.767 -0.1289  0.7286  0.3171
  907MOL0     C22375   1.256   7.906   6.679 -0.5818  0.0956 -0.3820
  907MOL0     C22376   0.603   8.162   6.789 -0.5372  0.3699 -0.3577
  907MOL0     C22377   0.531   8.230   6.695 -0.1100 -0.2081  0.6900
  907MOL0     H22378   0.107   8.313   6.449  1.7751  0.4702  0.9111
  907MOL0     H22379  -0.042   8.451   6.310  0.2729  1.3585 -2.2956
  907MOL0     H22380   0.043   8.871   6.251 -2.5136  1.2694 -2.1667
  907MOL0     H22381   0.149   8.817   6.126 -0.6270  1.8768 -0.4925
  907MOL0     H22382  -0.008   8.958   6.019 -0.4679 -0.4553 -3.2948
  907MOL0     H22383  -0.082   8.806   5.983  0.8652 -0.6062  0.4438
  907MOL0     H22384  -0.249   8.838   6.166 -2.8784  1.1754 -1.5283
  907MOL0     H22385  -0.161   8.988   6.216  1.1166 -0.1539 -0.7450
  907MOL0     H22386  -0.220   9.031   5.947  1.0893  2.2199  2.5300
  907MOL0     H22387  -0.333   8.898   5.973 -3.2596  3.1930 -2.4917
  907MOL0     H22388  -0.439   9.019   6.160 -0.9262  0.2288 -1.9949
  907MOL0     H22389  -0.323   9.146   6.141 -1.1580  0.4953  0.4556
  907MOL0     H22390  -0.478   9.096   5.892  1.9312 -2.7570  1.2581
  907MOL0     H22391  -0.596   9.130   6.017  0.0122 -0.6744  0.4090
  907MOL0     H22392  -0.468   9.356   6.080 -2.8006 -0.1452 -0.4150
  907MOL0     H22393  -0.350   9.313   5.961  2.2133 -1.8186  4.7385
  907MOL0     H22394  -0.523   9.315   5.788  0.0206 -2.0203  0.5402
  907MOL0     H22395  -0.524   9.477   5.868 -3.4382  0.9492 -3.8418
  907MOL0     H22396  -0.766   9.207   5.775  1.1059  1.6862 -0.0068
  907MOL0     H22397  -1.096   9.252   5.991 -2.6168  0.3173 -1.7137
  907MOL0     H22398  -1.064   9.242   5.816 -0.9552  2.4967  0.1129
  907MOL0     H22399  -0.929   9.065   6.038 -0.6075  0.3411 -0.2714
  907MOL0     H22400  -0.942   9.021   5.869 -0.8084  0.8636 -0.5253
  907MOL0     H22401  -1.161   9.052   6.073  2.9813  2.9634 -0.3181
  907MOL0     H22402  -1.092   8.897   6.030  0.0581 -0.0883 -2.0025
  907MOL0     H22403  -1.318   8.939   5.919 -1.0005  4.6136 -1.5478
  907MOL0     H22404  -1.185   8.867   5.824 -0.9082 -2.5052  0.2777
  907MOL0     H22405  -1.198   9.233   5.607  2.1124 -1.5803  1.4658
  907MOL0     H22406  -1.297   9.235   5.300  0.0992 -1.3043  1.6988
  907MOL0     H22407  -1.415   9.348   5.340 -0.5593 -3.1769 -3.8039
  907MOL0     H22408  -1.247   9.349   5.415 -0.3192  0.6840 -0.6336
  907MOL0     H22409  -1.793   9.247   5.258  2.2481 -1.1318  0.5851
  907MOL0     H22410  -1.989   9.235   5.081  0.1186  0.0498 -0.1743
  907MOL0     H22411  -2.198   8.836   5.053  0.0949 -0.1804  1.8507
  907MOL0     H22412  -2.276   8.955   5.162 -1.5882  1.1393 -0.6748
  907MOL0     H22413  -2.409   9.046   4.993  2.3358  0.9849 -0.1664
  907MOL0     H22414  -2.325   8.950   4.865 -0.8672 -1.5076 -0.2244
  907MOL0     H22415  -2.523   8.875   5.066  0.1760 -0.9793  0.2677
  907MOL0     H22416  -2.429   8.753   4.974 -0.1886  0.4075  0.9087
  907MOL0     H22417  -2.603   8.980   4.851  2.6614  1.5975 -2.4784
  907MOL0     H22418  -2.526   8.840   4.762  0.3528 -2.4783  1.6925
  907MOL0     H22419  -2.707   8.796   4.996 -2.1744 -2.9723  0.0543
  907MOL0     H22420  -2.659   8.671   4.881 -3.0078 -0.7665 -2.2336
  907MOL0     H22421  -2.851   8.883   4.811  0.5179 -0.2971 -0.9896
  907MOL0     H22422  -2.780   8.783   4.702 -0.2288 -0.9440 -0.4855
  907MOL0     H22423  -2.919   8.671   4.958 -0.3170 -4.1920  0.0827
  907MOL0     H22424  -2.849   8.571   4.847  1.2135 -0.3789  2.5198
  907MOL0     H22425  -2.985   8.689   4.654  0.4732 -2.6180  0.1474
  907MOL0     H22426  -3.075   8.774   4.786  0.0848  1.9947 -2.9723
  907MOL0     H22427  -2.039   8.817   5.183 -1.3456  0.4536  2.5258
  907MOL0     H22428  -1.851   8.837   5.324  0.3695  0.4527  0.5442
  907MOL0     H22429  -1.599   8.942   5.559  1.2001 -1.4599 -3.4340
  907MOL0     H22430  -1.452   8.912   5.763 -0.0856  0.7574  1.6721
  907MOL0     H22431   0.273   8.733   6.269 -1.8094  0.5170 -0.2730
  907MOL0     H22432   0.432   8.582   6.393  0.6418  0.7326 -1.6767
  907MOL0     H22433   0.545   7.989   6.458  0.9439 -3.1052  1.1307
  907MOL0     H22434   0.691   7.893   6.626 -1.6436 -0.6979 -1.2079
  907MOL0     H22435   0.872   8.151   6.892 -0.1362  0.2375  0.0872
  907MOL0     H22436   0.748   8.113   7.003 -3.4553 -1.6090 -2.1894
  907MOL0     H22437   0.885   7.924   7.102  0.3611 -1.7350 -1.6212
  907MOL0     H22438   0.982   8.064   7.114  0.1304 -0.7490  0.7365
  907MOL0     H22439   0.986   7.862   6.884  2.0267 -1.4098  0.2932
  907MOL0     H22440   1.112   7.871   7.008 -1.0620 -2.1130 -1.0525
  907MOL0     H22441   1.191   8.082   6.937 -1.0155 -1.7365  1.8516
  907MOL0     H22442   1.066   8.111   6.828  0.4905 -0.6541 -0.6276
  907MOL0     H22443   1.316   7.851   6.610 -0.0749 -0.3822  0.4351
  907MOL0     H22444   0.618   8.211   6.885  0.4954 -2.5049  1.0493
  907MOL0     H22445   0.483   8.313   6.747 -1.6666 -2.1067  2.4933
  908MOL0     O22446   6.851   1.584   1.994  0.3718 -0.0976 -0.0766
  908MOL0     C22447   6.865   1.702   1.948 -0.9100  0.3105 -0.5186
  908MOL0     O22448   6.770   1.801   1.951  0.3072  1.2068 -0.0188
  908MOL0     C22449   6.643   1.764   2.012  0.2162 -0.4764 -0.0011
  908MOL0     C22450   6.566   1.645   1.988 -0.1257 -0.3186 -0.5717
  908MOL0     C22451   6.450   1.627   2.055 -0.0895 -0.6141 -1.1230
  908MOL0     C22452   6.389   1.730   2.133 -0.6646  0.1880 -0.1455
  908MOL0     O22453   6.268   1.712   2.198  0.3095  0.1044 -0.5863
  908MOL0     C22454   6.256   1.597   2.272 -0.3043  0.2482  0.7810
  908MOL0     C22455   6.140   1.506   2.219 -0.3853  0.1837 -0.1214
  908MOL0     C22456   6.038   1.463   2.324 -0.3128  0.3280 -0.5907
  908MOL0     C22457   5.912   1.427   2.249 -0.5631 -0.4351 -0.3842
  908MOL0     C22458   5.823   1.331   2.331  0.4144  0.0257 -0.2607
  908MOL0     C22459   5.746   1.244   2.227 -0.4245  0.8748 -0.4609
  908MOL0     C22460   5.656   1.136   2.277  0.2533  1.2881  0.4527
  908MOL0     C22461   5.574   1.171   2.401 -0.4027  0.5219  0.6046
  908MOL0     N22462   5.470   1.069   2.440  0.6388 -0.9189  0.6056
  908MOL0     C22463   5.365   1.039   2.360 -0.5841  0.3641  0.8080
  908MOL0     C22464   5.294   0.940   2.413  0.3374 -0.6669 -0.3929
  908MOL0     C22465   5.179   0.864   2.352 -0.1633 -0.0653 -0.0466
  908MOL0     C22466   5.042   0.883   2.413 -0.1377  0.0234  0.5576
  908MOL0     C22467   4.973   1.006   2.382  0.4634 -1.5313  0.3193
  908MOL0     C22468   4.962   1.034   2.226 -0.7251  0.0991 -0.4612
  908MOL0     O22469   4.903   0.917   2.160  0.0079 -0.1544 -0.5746
  908MOL0     C22470   4.768   0.913   2.181  0.1187  0.0088  1.0245
  908MOL0     C22471   4.722   0.806   2.263 -0.5749 -0.4133 -0.0135
  908MOL0     C22472   4.590   0.799   2.302 -0.6037 -0.3380  1.0335
  908MOL0     C22473   4.564   0.682   2.395 -0.0953 -0.5038  0.3272
  908MOL0     C22474   4.499   0.902   2.257  0.1772  0.8282  0.3223
  908MOL0     C22475   4.350   0.904   2.301 -0.5638  0.7262 -0.7241
  908MOL0     O22476   4.270   0.993   2.247 -0.4100  0.0169 -0.0012
  908MOL0     C22477   4.137   1.010   2.288  0.0287 -0.9236 -0.2896
  908MOL0     C22478   4.109   1.118   2.382  0.5876  0.8310  0.6513
  908MOL0     C22479   3.982   1.137   2.432 -0.1431  0.0922 -0.6425
  908MOL0     C22480   3.872   1.064   2.383  0.2841  0.3164  0.5906
  908MOL0     O22481   3.748   1.090   2.438  0.0990 -0.4380  0.0560
  908MOL0     C22482   3.629   1.036   2.375 -0.0729  1.3346  0.8752
  908MOL0     C22483   3.568   0.931   2.462 -0.0722  0.3678  0.2134
  908MOL0     C22484   3.430   0.903   2.412  0.6774 -0.2115 -0.6314
  908MOL0     C22485   3.370   0.808   2.516  0.1133  0.4191  0.0177
  908MOL0     C22486   3.248   0.727   2.479 -0.0023 -1.4570 -0.4194
  908MOL0     C22487   3.129   0.817   2.428 -0.4500  0.0398 -0.3586
  908MOL0     C22488   3.045   0.873   2.538 -0.0365  0.8291  0.5667
  908MOL0     C22489   2.970   0.760   2.621  0.1263  0.5187  0.1640
  908MOL0    Cl22490   2.830   0.676   2.540  0.0764  0.4697  0.0252
  908MOL0     C22491   3.897   0.968   2.279  0.0427  0.2830 -0.2333
  908MOL0     C22492   4.026   0.945   2.238 -1.0758 -0.1964  0.5193
  908MOL0     O22493   4.311   0.814   2.383  0.2153  1.1074 -0.2515
  908MOL0     C22494   4.545   0.997   2.174 -0.2969 -0.3513  0.8515
  908MOL0     C22495   4.680   1.014   2.142 -0.6429  0.8760  0.1296
  908MOL0     N22496   5.360   0.912   2.533  0.1036  1.0512  0.0653
  908MOL0     N22497   5.463   0.986   2.549  0.9872 -0.9322 -0.2287
  908MOL0     C22498   6.454   1.860   2.142  0.7654  0.3808 -0.7555
  908MOL0     C22499   6.579   1.876   2.083 -0.1343  0.5172  0.4158
  908MOL0     C22500   6.999   1.737   1.887 -0.5567  0.6602 -0.2464
  908MOL0     C22501   7.099   1.636   1.869  0.8468  0.4981 -0.1079
  908MOL0     C22502   7.222   1.656   1.816 -0.1042  0.7543 -0.6125
  908MOL0     C22503   7.257   1.783   1.768 -0.3292  0.2932  0.3411
  908MOL0     O22504   7.383   1.791   1.716  0.0111 -0.1845  1.0659
  908MOL0     C22505   7.401   1.853   1.585 -0.2689 -0.4230  0.0605
  908MOL0     C22506   7.493   1.971   1.602  0.8011 -0.8070 -0.4369
  908MOL0     C22507   7.636   1.944   1.644  0.5123 -0.0472 -0.2559
  908MOL0     C22508   7.724   1.930   1.525 -0.3317 -0.3257  0.4724
  908MOL0     C22509   7.860   1.889   1.567  0.2429 -0.3710  0.7219
  908MOL0     C22510   7.967   1.858   1.611 -0.9774  0.0991  0.2338
  908MOL0     C22511   7.170   1.889   1.794  0.5093  0.2562  0.5012
  908MOL0     C22512   7.042   1.861   1.854 -0.3561 -0.6644  0.6506
  908MOL0     H22513   6.599   1.573   1.914 -1.6776 -0.4933 -1.1322
  908MOL0     H22514   6.391   1.536   2.051  0.4090 -0.9826 -0.3443
  908MOL0     H22515   6.352   1.547   2.293  0.0588  1.0738  1.1274
  908MOL0     H22516   6.239   1.629   2.376 -1.5225 -1.8937  1.3059
  908MOL0     H22517   6.089   1.557   2.137  0.0210  0.0235 -0.4755
  908MOL0     H22518   6.186   1.417   2.176  0.1416  1.2953 -1.9691
  908MOL0     H22519   6.068   1.384   2.393 -0.7059 -1.2609 -2.1482
  908MOL0     H22520   6.009   1.550   2.383  2.0193  2.6995 -2.6756
  908MOL0     H22521   5.858   1.521   2.240 -1.8188 -1.0365  0.4707
  908MOL0     H22522   5.935   1.394   2.148  1.1590 -1.6463  0.3553
  908MOL0     H22523   5.879   1.263   2.397 -1.7255  0.1080  1.7604
  908MOL0     H22524   5.757   1.383   2.401 -1.2303 -1.0765 -0.9177
  908MOL0     H22525   5.667   1.307   2.187 -0.6593  0.8624 -0.0208
  908MOL0     H22526   5.820   1.203   2.157  1.2047 -1.8388  2.5911
  908MOL0     H22527   5.596   1.119   2.187  3.2473 -2.3873 -1.0879
  908MOL0     H22528   5.710   1.045   2.303 -2.4984 -0.1260  1.5828
  908MOL0     H22529   5.524   1.268   2.394 -0.1690  0.5619 -0.5868
  908MOL0     H22530   5.654   1.179   2.476  2.4043  2.6006 -2.3634
  908MOL0     H22531   5.358   1.076   2.258 -1.4503 -0.6697  0.4722
  908MOL0     H22532   5.166   0.866   2.243  0.5754 -2.0676 -0.2120
  908MOL0     H22533   5.212   0.766   2.388 -1.0019 -0.6930 -0.9345
  908MOL0     H22534   5.036   0.879   2.522  0.7600 -0.2039  0.6050
  908MOL0     H22535   4.981   0.796   2.387 -1.7513  0.9294  1.1454
  908MOL0     H22536   5.020   1.086   2.440  1.7007 -1.0474 -1.2525
  908MOL0     H22537   4.871   0.995   2.418 -1.4476  2.1957 -3.0344
  908MOL0     H22538   5.067   1.042   2.194 -1.1454 -0.8556 -2.2103
  908MOL0     H22539   4.909   1.127   2.204 -0.7836  0.4131  0.9341
  908MOL0     H22540   4.794   0.735   2.301  0.7099  0.0962 -1.4145
  908MOL0     H22541   4.654   0.623   2.409  0.6587  0.5224 -0.0410
  908MOL0     H22542   4.543   0.722   2.495  1.6174 -1.5586  1.1411
  908MOL0     H22543   4.480   0.619   2.365 -0.4438  0.0471  0.1095
  908MOL0     H22544   4.189   1.186   2.409 -0.7585  3.5728 -1.6887
  908MOL0     H22545   3.971   1.199   2.520 -2.9312  0.4328 -1.1498
  908MOL0     H22546   3.565   1.119   2.344 -0.6992 -0.1419 -2.1736
  908MOL0     H22547   3.652   1.001   2.273 -3.5621  2.6218 -0.5291
  908MOL0     H22548   3.619   0.836   2.445 -1.2173  0.0225 -1.6177
  908MOL0     H22549   3.577   0.950   2.569  0.1531  2.1332 -0.0822
  908MOL0     H22550   3.436   0.871   2.307  1.5052 -1.6213 -0.1804
  908MOL0     H22551   3.369   0.993   2.418  0.7299 -0.2668  1.5223
  908MOL0     H22552   3.447   0.736   2.544 -2.1389 -1.3065  2.1870
  908MOL0     H22553   3.351   0.862   2.609 -1.6167  2.3715 -1.3760
  908MOL0     H22554   3.224   0.665   2.566  3.2316  0.3088  1.9352
  908MOL0     H22555   3.268   0.651   2.402 -2.9311 -2.5381 -0.2369
  908MOL0     H22556   3.178   0.901   2.377  0.4256  0.8045  1.6318
  908MOL0     H22557   3.071   0.772   2.347 -1.7444 -4.2247  2.5879
  908MOL0     H22558   2.969   0.943   2.501 -0.3886 -0.2604 -0.8855
  908MOL0     H22559   3.119   0.924   2.600  2.2195 -0.5316 -0.8435
  908MOL0     H22560   2.937   0.809   2.713  1.9312  3.8826 -0.7748
  908MOL0     H22561   3.037   0.679   2.651 -0.9598  0.0043  1.2732
  908MOL0     H22562   3.833   0.886   2.249  1.7327 -1.9864  1.9088
  908MOL0     H22563   4.028   0.882   2.150 -0.2459  0.9152 -0.2933
  908MOL0     H22564   4.487   1.081   2.139 -0.0567 -0.8541 -0.8154
  908MOL0     H22565   4.715   1.100   2.085  0.8713  0.5893  0.5933
  908MOL0     H22566   6.415   1.953   2.182  1.3773  2.3968 -4.4046
  908MOL0     H22567   6.627   1.973   2.078  1.1498 -0.0875  0.7000
  908MOL0     H22568   7.063   1.536   1.890 -1.5587  0.7066 -2.5823
  908MOL0     H22569   7.288   1.569   1.812 -1.0366  0.0507 -1.0703
  908MOL0     H22570   7.435   1.783   1.508  4.3751  1.5485  0.0024
  908MOL0     H22571   7.303   1.890   1.553  0.8327  0.8804 -1.9787
  908MOL0     H22572   7.441   2.031   1.677  2.0174  2.9996 -2.4225
  908MOL0     H22573   7.504   2.029   1.511  2.2465 -1.0564 -0.4454
  908MOL0     H22574   7.636   1.851   1.702 -1.6621  1.1848  1.9153
  908MOL0     H22575   7.681   2.028   1.698  2.3933  1.4683 -3.8746
  908MOL0     H22576   7.736   2.025   1.473 -2.5224 -0.3341 -0.1893
  908MOL0     H22577   7.666   1.878   1.447 -1.9867  2.4312 -0.2548
  908MOL0     H22578   8.066   1.838   1.648 -0.8466 -1.0150 -0.6595
  908MOL0     H22579   7.215   1.984   1.767 -2.0183  1.4796  0.2354
  908MOL0     H22580   6.983   1.948   1.882  2.0065  1.2138  0.1436
  909MOL0     O22581   9.693   8.901   6.098 -0.0519  0.3915 -0.8584
  909MOL0     C22582   9.735   9.007   6.038  0.2979  0.4047 -0.1582
  909MOL0     O22583   9.668   9.069   5.942 -0.4941  0.3648  0.1047
  909MOL0     C22584   9.546   9.043   5.904  0.6934 -0.1102  0.2610
  909MOL0     C22585   9.437   9.002   5.985 -0.3908 -0.8620 -0.5784
  909MOL0     C22586   9.312   8.985   5.936 -0.1431 -0.7706  0.9526
  909MOL0     C22587   9.269   9.021   5.806 -0.2790 -0.2300 -0.1894
  909MOL0     O22588   9.130   9.018   5.781 -0.5042 -0.6173 -0.2925
  909MOL0     C22589   9.081   9.029   5.651  0.2759 -0.4553 -0.6433
  909MOL0     C22590   8.977   8.926   5.637  0.2030  0.4352  0.2125
  909MOL0     C22591   8.899   8.920   5.498  0.7609 -0.3591  0.4242
  909MOL0     C22592   8.748   8.892   5.527 -0.1658  0.8660  0.3096
  909MOL0     C22593   8.660   8.838   5.412 -1.0280 -0.2526  0.3154
  909MOL0     C22594   8.713   8.709   5.346  0.8106 -0.8147  0.4913
  909MOL0     C22595   8.583   8.629   5.302 -0.9626  0.8664 -0.4281
  909MOL0     C22596   8.632   8.518   5.208 -0.8069  0.2813  0.1297
  909MOL0     N22597   8.519   8.435   5.168  0.6009  0.1621  0.6082
  909MOL0     C22598   8.382   8.450   5.195  1.4910 -0.3397 -0.1011
  909MOL0     C22599   8.317   8.353   5.121 -0.5822  0.2498  0.4630
  909MOL0     C22600   8.166   8.346   5.089 -0.0127 -0.0592 -0.8119
  909MOL0     C22601   8.102   8.237   5.181 -0.3209  0.7088  0.0088
  909MOL0     C22602   8.043   8.117   5.102  0.1345 -1.3565  0.1080
  909MOL0     C22603   7.966   8.033   5.210  0.1052  0.0644  0.9940
  909MOL0     O22604   7.856   8.105   5.262  0.6655 -0.4549  0.5199
  909MOL0     C22605   7.743   8.110   5.189  0.7256  0.8681  0.7542
  909MOL0     C22606   7.708   8.038   5.070  0.6541 -0.9293 -0.0409
  909MOL0     C22607   7.585   8.037   5.009  0.7429  0.2998 -0.9572
  909MOL0     C22608   7.573   7.936   4.892  0.3415 -0.1839 -0.9068
  909MOL0     C22609   7.485   8.117   5.066  0.3424 -0.4527 -0.3161
  909MOL0     C22610   7.344   8.130   5.008 -0.0960  0.0576 -0.0012
  909MOL0     O22611   7.326   8.085   4.881 -0.5633 -0.4595  0.8853
  909MOL0     C22612   7.214   8.103   4.801 -1.5408  0.1857  0.0655
  909MOL0     C22613   7.228   8.184   4.686 -0.3942 -0.1040 -0.9810
  909MOL0     C22614   7.120   8.210   4.597 -0.4198  0.6148 -0.6905
  909MOL0     C22615   7.002   8.154   4.631 -0.0217  0.3078  0.4324
  909MOL0     O22616   6.892   8.168   4.553 -0.2330 -0.7888 -0.0350
  909MOL0     C22617   6.836   8.290   4.532 -0.0471 -0.8368  0.8111
  909MOL0     C22618   6.703   8.276   4.461  0.0199  1.1926  0.0539
  909MOL0     C22619   6.628   8.407   4.477 -0.2671 -0.1259 -0.0724
  909MOL0     C22620   6.496   8.399   4.411 -0.5100  0.2030  0.5977
  909MOL0     C22621   6.416   8.529   4.416 -0.4235  0.9531 -0.2959
  909MOL0     C22622   6.292   8.526   4.328  0.7018  0.8644 -0.6675
  909MOL0     C22623   6.178   8.458   4.403  0.1661 -0.1661 -0.2756
  909MOL0     C22624   6.109   8.554   4.497  0.1399 -0.0383  0.4412
  909MOL0    Cl22625   5.945   8.505   4.545 -0.0935  0.5095  0.0192
  909MOL0     C22626   6.982   8.081   4.751  1.2604 -0.0203  0.7717
  909MOL0     C22627   7.089   8.057   4.838  0.6373 -0.6837  0.9701
  909MOL0     O22628   7.261   8.185   5.077 -0.0674  0.3881 -0.3145
  909MOL0     C22629   7.515   8.192   5.186 -0.2399  0.2784  0.5019
  909MOL0     C22630   7.642   8.182   5.250  0.4878 -0.2671  0.3441
  909MOL0     N22631   8.422   8.276   5.068 -1.0048  0.6290 -0.1757
  909MOL0     N22632   8.538   8.318   5.098 -0.3384 -0.6286  0.1994
  909MOL0     C22633   9.378   9.063   5.727 -0.6443  0.0415 -0.6833
  909MOL0     C22634   9.512   9.076   5.778  1.0693 -0.3964  0.5694
  909MOL0     C22635   9.857   9.068   6.100  0.5042 -0.6661 -0.0813
  909MOL0     C22636   9.882   9.033   6.237  0.0522  0.7087  0.5986
  909MOL0     C22637   9.997   9.092   6.301 -0.0193 -0.5852 -0.2476
  909MOL0     C22638  10.075   9.192   6.245  0.4037  0.1286  0.7195
  909MOL0     O22639  10.196   9.240   6.294 -0.0559 -0.2967  0.0722
  909MOL0     C22640  10.249   9.178   6.407 -0.0922  0.7423 -0.6582
  909MOL0     C22641  10.370   9.245   6.467 -0.0434 -0.8460  0.3145
  909MOL0     C22642  10.490   9.270   6.372 -0.9798  0.2369 -0.0161
  909MOL0     C22643  10.622   9.283   6.444  0.4649 -0.0282  0.3813
  909MOL0     C22644  10.733   9.349   6.365  0.6767 -0.1470  0.5502
  909MOL0     C22645  10.841   9.391   6.325 -0.2229 -0.2883 -0.3109
  909MOL0     C22646  10.031   9.239   6.116  0.0011 -0.4685  0.2193
  909MOL0     C22647   9.933   9.174   6.050  1.0894 -0.3329 -0.1932
  909MOL0     H22648   9.457   8.985   6.090  1.5005  3.6853  0.0009
  909MOL0     H22649   9.223   8.979   5.997 -2.4068 -1.1613 -2.1529
  909MOL0     H22650   9.038   9.129   5.639  3.1877  0.8437 -0.9746
  909MOL0     H22651   9.160   9.015   5.577  0.6605  1.1130 -0.5681
  909MOL0     H22652   9.023   8.828   5.654 -2.6532 -0.9415  0.5523
  909MOL0     H22653   8.907   8.933   5.720  0.5682 -2.2491  0.8353
  909MOL0     H22654   8.913   9.016   5.447  4.1061 -0.3984  1.0431
  909MOL0     H22655   8.940   8.841   5.435 -1.0741 -1.0857  0.0961
  909MOL0     H22656   8.733   8.815   5.603 -1.2914  0.3972 -0.3565
  909MOL0     H22657   8.713   8.992   5.554  0.3604  0.6304  1.9577
  909MOL0     H22658   8.562   8.827   5.458 -0.5010  2.4599  2.3939
  909MOL0     H22659   8.649   8.918   5.339 -0.1400 -0.0134  0.4207
  909MOL0     H22660   8.772   8.741   5.260 -0.7516  0.5793 -0.1147
  909MOL0     H22661   8.775   8.648   5.412 -0.1005 -2.6526 -0.2615
  909MOL0     H22662   8.535   8.580   5.387 -1.4953 -0.3849 -1.4264
  909MOL0     H22663   8.510   8.686   5.243 -2.0679 -0.5329 -0.4751
  909MOL0     H22664   8.704   8.448   5.251 -1.6385 -3.5558 -3.9160
  909MOL0     H22665   8.687   8.569   5.127  0.5682  4.4315  3.3043
  909MOL0     H22666   8.332   8.534   5.243 -0.8361 -0.7918 -1.5377
  909MOL0     H22667   8.120   8.440   5.120  0.8746  0.3533 -0.6981
  909MOL0     H22668   8.157   8.332   4.981 -0.5388 -1.1210 -0.6474
  909MOL0     H22669   8.030   8.289   5.245 -0.3898  0.8745 -0.2055
  909MOL0     H22670   8.184   8.202   5.244  0.3292  0.3629 -1.0028
  909MOL0     H22671   8.128   8.059   5.064  1.6599  0.5179  0.5061
  909MOL0     H22672   7.977   8.159   5.026  0.3490 -0.7524  0.2491
  909MOL0     H22673   8.033   8.020   5.295  0.9334  1.9208  0.6847
  909MOL0     H22674   7.940   7.937   5.166 -1.9714 -1.3064  4.8349
  909MOL0     H22675   7.780   7.970   5.026  0.7821  0.2152 -1.6737
  909MOL0     H22676   7.673   7.898   4.870  1.0942 -0.5506  2.5769
  909MOL0     H22677   7.501   7.861   4.928 -1.6133  1.7887 -0.4967
  909MOL0     H22678   7.526   7.981   4.805 -1.1146 -1.7164 -0.9726
  909MOL0     H22679   7.329   8.221   4.671  0.3116 -0.9422  1.2710
  909MOL0     H22680   7.136   8.268   4.507  2.7035  0.7663 -0.1593
  909MOL0     H22681   6.826   8.338   4.629 -0.4100 -1.2347  0.9689
  909MOL0     H22682   6.899   8.352   4.466  0.7470 -0.8885  1.5027
  909MOL0     H22683   6.727   8.268   4.355 -0.0821  0.2320  0.0966
  909MOL0     H22684   6.648   8.192   4.503  2.6230  0.0522  1.3875
  909MOL0     H22685   6.687   8.484   4.426 -0.7228 -1.7693 -3.3497
  909MOL0     H22686   6.610   8.432   4.582 -1.5270  1.9386 -0.7119
  909MOL0     H22687   6.511   8.375   4.305 -4.1813 -2.0586  0.4467
  909MOL0     H22688   6.448   8.318   4.467  0.8361 -0.9141  0.2032
  909MOL0     H22689   6.483   8.606   4.378  4.3726 -2.3467  0.5733
  909MOL0     H22690   6.405   8.548   4.523  0.1595 -2.2641  0.4413
  909MOL0     H22691   6.263   8.629   4.305 -1.0530  0.4076 -0.6234
  909MOL0     H22692   6.302   8.467   4.236 -2.3607 -0.2180 -0.4160
  909MOL0     H22693   6.217   8.369   4.453 -0.4015 -0.8364 -1.0075
  909MOL0     H22694   6.104   8.420   4.331  0.3748 -0.3997 -0.3674
  909MOL0     H22695   6.109   8.654   4.452 -0.2736  0.5278  1.6794
  909MOL0     H22696   6.158   8.564   4.594  1.2589 -1.6313  0.0684
  909MOL0     H22697   6.889   8.030   4.774  0.4904  0.9553 -0.1356
  909MOL0     H22698   7.061   8.004   4.928 -1.3355 -1.1206  0.1673
  909MOL0     H22699   7.440   8.260   5.226  0.2001  1.5043 -0.6679
  909MOL0     H22700   7.675   8.235   5.338  1.1371  1.9270 -1.1248
  909MOL0     H22701   9.374   9.101   5.625 -0.0404 -1.6489 -1.3710
  909MOL0     H22702   9.593   9.112   5.715 -2.0351  1.2495 -2.7912
  909MOL0     H22703   9.830   8.952   6.287  0.5841 -1.7971 -2.6047
  909MOL0     H22704  10.023   9.057   6.401  0.3162 -1.4831 -0.6386
  909MOL0     H22705  10.181   9.156   6.490  3.8350  0.4306  2.7993
  909MOL0     H22706  10.279   9.077   6.376  1.5361  1.0671 -0.2296
  909MOL0     H22707  10.405   9.181   6.549  1.3715 -4.0551 -2.5275
  909MOL0     H22708  10.340   9.344   6.500  0.4137  0.2923 -2.4075
  909MOL0     H22709  10.480   9.361   6.312  0.7299 -0.2684 -1.1521
  909MOL0     H22710  10.501   9.185   6.305 -1.6582 -0.5751  0.8811
  909MOL0     H22711  10.648   9.177   6.452 -0.1048 -0.1093  1.2687
  909MOL0     H22712  10.626   9.324   6.545 -1.3830  0.8274  0.1447
  909MOL0     H22713  10.942   9.415   6.301 -0.2651 -1.9114 -2.4246
  909MOL0     H22714  10.084   9.321   6.070  1.2586 -0.7839  1.0258
  909MOL0     H22715   9.898   9.190   5.948 -1.8260  1.2130  0.9261
  910MOL0     O22716   7.363   3.020   3.935 -0.1060 -0.3929  0.3723
  910MOL0     C22717   7.325   3.134   3.963 -0.5424  0.9759 -0.3423
  910MOL0     O22718   7.406   3.240   4.003  0.2213  0.2375 -0.0467
  910MOL0     C22719   7.533   3.200   4.038  0.0378  0.3223  0.1607
  910MOL0     C22720   7.644   3.244   3.957 -0.6306  0.0942  0.4588
  910MOL0     C22721   7.771   3.190   3.975  0.8281 -0.4935 -0.6128
  910MOL0     C22722   7.792   3.104   4.077 -0.0283  0.5588 -0.7768
  910MOL0     O22723   7.921   3.053   4.081  0.0163 -0.3810  0.9887
  910MOL0     C22724   7.965   2.963   4.184 -0.1760 -0.0242 -0.1705
  910MOL0     C22725   8.075   2.861   4.126  0.2202  0.0052  0.4818
  910MOL0     C22726   8.206   2.934   4.124  0.1721 -0.4815  0.5415
  910MOL0     C22727   8.326   2.847   4.095 -0.5359  0.7223 -0.0963
  910MOL0     C22728   8.460   2.905   4.136 -0.4706  0.2284 -0.1802
  910MOL0     C22729   8.583   2.823   4.095 -1.1869  0.3976 -0.6309
  910MOL0     C22730   8.727   2.869   4.142 -0.1468  0.1056  0.7319
  910MOL0     C22731   8.830   2.766   4.094  0.5089  0.3557  1.2189
  910MOL0     N22732   8.969   2.802   4.143 -0.2744 -0.3134  0.1599
  910MOL0     C22733   9.018   2.800   4.277 -0.4440  0.2258 -0.3552
  910MOL0     C22734   9.156   2.803   4.260  0.0193 -0.1649 -0.1579
  910MOL0     C22735   9.254   2.805   4.371 -0.2227 -0.2716  0.6443
  910MOL0     C22736   9.268   2.676   4.432  0.4652  0.3864  0.8092
  910MOL0     C22737   9.357   2.680   4.560  0.6782 -0.0603 -0.0583
  910MOL0     C22738   9.487   2.743   4.543  0.2598  0.6771 -0.0673
  910MOL0     O22739   9.552   2.740   4.670 -1.0732 -0.4119 -0.1333
  910MOL0     C22740   9.549   2.845   4.755  0.3002 -0.1743  0.6294
  910MOL0     C22741   9.660   2.853   4.838 -0.8983  0.1480 -1.0430
  910MOL0     C22742   9.674   2.952   4.935  0.4174 -0.3744 -0.0634
  910MOL0     C22743   9.790   2.941   5.029 -0.6021 -1.0111 -0.7185
  910MOL0     C22744   9.572   3.054   4.955  0.3612 -0.3825  0.5315
  910MOL0     C22745   9.557   3.172   5.050 -0.2626  0.6279 -0.3299
  910MOL0     O22746   9.435   3.228   5.065  0.5129 -0.0378  0.4495
  910MOL0     C22747   9.389   3.300   5.167 -0.2967  0.3206 -0.2873
  910MOL0     C22748   9.462   3.359   5.266 -0.4695  0.1091  0.5153
  910MOL0     C22749   9.417   3.417   5.379 -0.2084 -0.9717 -0.8155
  910MOL0     C22750   9.280   3.433   5.399 -0.6789 -0.2592 -0.0113
  910MOL0     O22751   9.214   3.505   5.497 -0.2128 -0.0869 -0.2565
  910MOL0     C22752   9.290   3.575   5.597 -0.1135 -0.3655  0.0773
  910MOL0     C22753   9.225   3.702   5.652 -0.8900 -0.3868  0.3545
  910MOL0     C22754   9.078   3.703   5.676 -0.2074  0.2993  0.2538
  910MOL0     C22755   9.036   3.850   5.680  0.8054  0.2410 -0.3406
  910MOL0     C22756   8.888   3.862   5.737 -0.0845 -0.2158  0.1261
  910MOL0     C22757   8.819   4.002   5.731 -0.3628  0.6952  0.7398
  910MOL0     C22758   8.668   3.981   5.759 -0.5085  0.8222  0.1346
  910MOL0     C22759   8.579   4.102   5.753 -0.6925 -0.5282  0.6283
  910MOL0    Cl22760   8.467   4.073   5.897  0.4547  0.0160 -0.5364
  910MOL0     C22761   9.192   3.384   5.298  0.3167  0.2299  0.5135
  910MOL0     C22762   9.249   3.321   5.181  0.8675  0.0619 -0.1078
  910MOL0     O22763   9.658   3.197   5.117  0.0404  0.1666 -0.3045
  910MOL0     C22764   9.459   3.041   4.868  0.5722 -0.0440 -0.7547
  910MOL0     C22765   9.447   2.946   4.767 -0.1870 -0.6464 -0.0915
  910MOL0     N22766   9.185   2.814   4.122  0.0460  0.1234  0.5428
  910MOL0     N22767   9.076   2.815   4.059  0.1306 -0.1633 -1.1384
  910MOL0     C22768   7.696   3.062   4.163  0.3105 -0.0930  0.4739
  910MOL0     C22769   7.567   3.106   4.142  1.0728  0.0721  0.7879
  910MOL0     C22770   7.177   3.157   3.935 -0.8280 -0.8486 -0.7522
  910MOL0     C22771   7.111   3.279   3.975  0.1351  0.3739  0.3779
  910MOL0     C22772   6.981   3.302   3.930 -0.1591 -0.0560 -0.0992
  910MOL0     C22773   6.910   3.219   3.849  0.4922 -0.4912 -0.4300
  910MOL0     O22774   6.787   3.242   3.797 -0.4437 -0.0760 -0.6285
  910MOL0     C22775   6.703   3.313   3.891  0.2872 -0.0825  0.3899
  910MOL0     C22776   6.557   3.283   3.858  0.4156  0.2286  0.5371
  910MOL0     C22777   6.527   3.278   3.706 -0.3626 -0.5470  0.2115
  910MOL0     C22778   6.378   3.265   3.665 -0.6859  1.0376  0.4083
  910MOL0     C22779   6.329   3.131   3.679  0.0265 -0.2659  0.1548
  910MOL0     C22780   6.267   3.033   3.689 -0.1829  0.8992  0.0459
  910MOL0     C22781   6.980   3.100   3.815 -0.1029 -0.2274  0.7258
  910MOL0     C22782   7.106   3.073   3.850 -0.8095  0.0367 -0.3847
  910MOL0     H22783   7.617   3.303   3.870 -1.8079 -1.8223 -0.5346
  910MOL0     H22784   7.848   3.214   3.902  1.6463  0.8008  0.6146
  910MOL0     H22785   7.999   3.022   4.269  0.6040 -1.8070  0.8167
  910MOL0     H22786   7.890   2.890   4.218  0.3915 -0.0218  1.1390
  910MOL0     H22787   8.077   2.770   4.188 -1.8652 -1.5759 -1.6094
  910MOL0     H22788   8.051   2.836   4.023 -0.0405  0.8424  0.3331
  910MOL0     H22789   8.199   3.020   4.057 -3.2418  1.0386  2.5978
  910MOL0     H22790   8.214   2.985   4.221 -2.1728  0.9654  0.0483
  910MOL0     H22791   8.309   2.746   4.134 -1.1529  1.0909  0.6205
  910MOL0     H22792   8.326   2.818   3.990  1.5414  0.3226 -0.0340
  910MOL0     H22793   8.477   3.005   4.095  2.1259  0.1102  0.4114
  910MOL0     H22794   8.463   2.909   4.246  2.3453 -3.3265  0.0593
  910MOL0     H22795   8.569   2.730   4.151  0.1032  2.0989  2.7926
  910MOL0     H22796   8.588   2.816   3.986  1.2671  2.4965 -0.7369
  910MOL0     H22797   8.740   2.965   4.090  0.8650 -0.2655  0.2780
  910MOL0     H22798   8.738   2.887   4.250 -3.1270  1.0522  0.9602
  910MOL0     H22799   8.830   2.751   3.986 -1.3620  0.9030  1.1182
  910MOL0     H22800   8.810   2.668   4.139 -0.0608 -0.1165 -0.0317
  910MOL0     H22801   8.960   2.800   4.369 -1.2491 -1.2504 -0.8317
  910MOL0     H22802   9.345   2.841   4.323 -0.5165  0.0172  0.2979
  910MOL0     H22803   9.225   2.877   4.449  1.1735  0.3241  0.6513
  910MOL0     H22804   9.323   2.613   4.361  1.6842  2.7945 -0.5074
  910MOL0     H22805   9.173   2.626   4.453  1.7186 -1.2357  3.0510
  910MOL0     H22806   9.379   2.577   4.592  2.6557 -0.4086 -2.2347
  910MOL0     H22807   9.296   2.722   4.640  0.0707 -1.1687  0.0804
  910MOL0     H22808   9.488   2.846   4.505  2.2435  1.0912  0.9771
  910MOL0     H22809   9.546   2.684   4.472  0.1023  0.6992 -0.2182
  910MOL0     H22810   9.746   2.791   4.819  1.0098  0.8313  3.9812
  910MOL0     H22811   9.871   2.995   4.978 -1.3397  1.6415  0.7586
  910MOL0     H22812   9.777   2.986   5.128  0.6224 -0.1944 -0.9044
  910MOL0     H22813   9.812   2.836   5.052 -1.1720 -0.0924  5.9058
  910MOL0     H22814   9.571   3.353   5.262 -0.5342 -0.6948 -0.8669
  910MOL0     H22815   9.485   3.459   5.451 -2.1144  0.5092  0.2002
  910MOL0     H22816   9.324   3.511   5.680 -1.6373 -0.7286  0.4458
  910MOL0     H22817   9.381   3.605   5.544  1.3784 -1.5109  1.8615
  910MOL0     H22818   9.273   3.725   5.748 -0.5505  2.7193 -0.4454
  910MOL0     H22819   9.247   3.781   5.580  0.7122 -1.5627 -0.5015
  910MOL0     H22820   9.058   3.663   5.776  1.0911  0.4357  0.5977
  910MOL0     H22821   9.022   3.638   5.608 -2.2547  3.3718 -1.2244
  910MOL0     H22822   9.103   3.910   5.742 -0.2280  0.8681  0.2142
  910MOL0     H22823   9.049   3.885   5.577 -0.3005  1.8777  0.0355
  910MOL0     H22824   8.890   3.820   5.838 -1.0373 -0.9991 -0.1676
  910MOL0     H22825   8.826   3.794   5.678 -0.4827 -0.0005  0.2985
  910MOL0     H22826   8.864   4.073   5.801  0.2242 -1.6613  2.9152
  910MOL0     H22827   8.833   4.056   5.637  0.1725  1.9325  1.5092
  910MOL0     H22828   8.660   3.926   5.853 -0.8671 -1.0985 -0.9745
  910MOL0     H22829   8.630   3.907   5.688 -1.7143 -0.2211  1.7738
  910MOL0     H22830   8.532   4.110   5.655 -0.8006  3.4214  0.8402
  910MOL0     H22831   8.636   4.194   5.768  2.0581 -2.0717  0.3533
  910MOL0     H22832   9.086   3.387   5.322 -0.0593 -2.4456 -0.4916
  910MOL0     H22833   9.172   3.278   5.118 -1.8353  2.6167  1.1843
  910MOL0     H22834   9.383   3.118   4.871  0.9560  0.3585 -1.1775
  910MOL0     H22835   9.362   2.943   4.700 -0.0878 -0.5700 -0.2213
  910MOL0     H22836   7.707   2.986   4.240 -0.7371 -3.2713 -2.3061
  910MOL0     H22837   7.485   3.055   4.193 -0.3120 -0.1428 -1.5183
  910MOL0     H22838   7.157   3.357   4.035 -3.4259  2.2314  0.9708
  910MOL0     H22839   6.936   3.398   3.951 -1.4204 -1.1094  2.4946
  910MOL0     H22840   6.717   3.284   3.996  1.2983  0.2635  0.3677
  910MOL0     H22841   6.716   3.420   3.875 -0.1275  0.1122  1.3092
  910MOL0     H22842   6.499   3.366   3.900  0.1532  2.0088 -2.9892
  910MOL0     H22843   6.535   3.189   3.909 -0.9109  0.3785  0.2623
  910MOL0     H22844   6.577   3.191   3.660  1.2267  0.1647  0.5408
  910MOL0     H22845   6.561   3.364   3.649 -4.3568  0.0667 -1.6262
  910MOL0     H22846   6.357   3.306   3.566 -0.6517 -1.7352 -0.8143
  910MOL0     H22847   6.313   3.331   3.724 -2.3728  3.0392 -3.3215
  910MOL0     H22848   6.199   2.950   3.703 -0.2780  1.4973  5.0840
  910MOL0     H22849   6.925   3.017   3.771 -0.1646 -0.4349  1.1873
  910MOL0     H22850   7.150   2.980   3.817  0.6538  0.2505  0.8422
  911MOL0     O22851   0.350   5.403   0.328  0.5739  0.3844  0.3912
  911MOL0     C22852   0.324   5.506   0.271  0.1937 -0.1021 -0.0504
  911MOL0     O22853   0.223   5.592   0.310 -0.8135 -0.1651 -0.3564
  911MOL0     C22854   0.137   5.551   0.413  0.4626  0.4772 -0.6865
  911MOL0     C22855   0.122   5.641   0.520 -0.3279 -0.8237  0.0419
  911MOL0     C22856   0.009   5.614   0.611 -0.0764 -1.1117  0.4813
  911MOL0     C22857  -0.069   5.499   0.598 -0.5599  0.4287  0.6834
  911MOL0     O22858  -0.154   5.481   0.706  0.2750  0.2110  0.1008
  911MOL0     C22859  -0.114   5.513   0.845  0.1469 -0.3148  0.1262
  911MOL0     C22860  -0.198   5.421   0.930  0.3745 -0.1110  0.9743
  911MOL0     C22861  -0.188   5.274   0.898 -0.0453  0.8745  0.0894
  911MOL0     C22862  -0.066   5.209   0.965 -0.6135  0.2139 -0.0042
  911MOL0     C22863  -0.067   5.055   0.958  0.4789  0.2418 -0.1543
  911MOL0     C22864  -0.099   4.990   0.824  0.3866  0.1152 -0.1123
  911MOL0     C22865   0.003   5.013   0.717 -0.4463  0.3606 -0.2075
  911MOL0     C22866  -0.054   4.942   0.592 -0.0424 -0.5240 -0.4012
  911MOL0     N22867  -0.143   5.034   0.513  0.2273 -0.2620  0.1407
  911MOL0     C22868  -0.279   5.067   0.528 -0.5980 -0.1091 -0.3129
  911MOL0     C22869  -0.323   5.122   0.408 -0.0950 -0.3706 -0.0910
  911MOL0     C22870  -0.462   5.166   0.368  0.3917  0.4260  0.0342
  911MOL0     C22871  -0.514   5.267   0.461 -0.8402  1.0559 -0.2232
  911MOL0     C22872  -0.417   5.377   0.476 -0.3486 -1.0401 -1.1041
  911MOL0     C22873  -0.480   5.511   0.495  0.0493 -0.2435  0.3134
  911MOL0     O22874  -0.559   5.561   0.385  0.1507  0.1068 -0.2756
  911MOL0     C22875  -0.693   5.584   0.411 -0.4579 -0.8411 -0.2466
  911MOL0     C22876  -0.750   5.635   0.528 -0.5447 -0.5640 -0.4818
  911MOL0     C22877  -0.889   5.640   0.559  0.0834 -0.9694  0.5152
  911MOL0     C22878  -0.908   5.687   0.708  0.2450 -0.0876  0.4545
  911MOL0     C22879  -0.975   5.623   0.449 -0.4118 -0.6920  0.7077
  911MOL0     C22880  -1.119   5.649   0.447  0.2536 -0.9811 -0.3093
  911MOL0     O22881  -1.198   5.595   0.345 -0.4286  0.2721 -0.5318
  911MOL0     C22882  -1.337   5.612   0.344  0.1069 -0.1354 -0.6541
  911MOL0     C22883  -1.430   5.683   0.422  0.1493  0.7275 -0.3487
  911MOL0     C22884  -1.566   5.680   0.397 -0.6674  0.3052 -0.0734
  911MOL0     C22885  -1.610   5.617   0.287  0.6858  0.1431 -0.1842
  911MOL0     O22886  -1.746   5.611   0.283  0.1799 -0.3659  0.2854
  911MOL0     C22887  -1.812   5.563   0.165  0.0269 -0.8754 -0.2836
  911MOL0     C22888  -1.959   5.597   0.171  1.1610  0.5732 -0.8350
  911MOL0     C22889  -2.063   5.490   0.234 -0.0017  0.4003 -0.0700
  911MOL0     C22890  -2.218   5.514   0.227  0.4344 -0.7150  0.8657
  911MOL0     C22891  -2.277   5.529   0.075 -0.9456  1.3582 -0.8984
  911MOL0     C22892  -2.419   5.583   0.073  0.0865 -0.6425 -0.3026
  911MOL0     C22893  -2.467   5.649  -0.059 -0.0499  0.4685  0.0235
  911MOL0     C22894  -2.620   5.669  -0.072  0.0254  0.1933 -0.7822
  911MOL0    Cl22895  -2.658   5.767  -0.213  0.2434  0.0684  0.0024
  911MOL0     C22896  -1.523   5.562   0.188  0.6260 -0.1936  0.4114
  911MOL0     C22897  -1.386   5.560   0.225  0.9057  0.1361 -0.4503
  911MOL0     O22898  -1.156   5.742   0.516  0.1171 -0.2260  0.6448
  911MOL0     C22899  -0.921   5.571   0.325  0.1466 -0.7224 -0.4116
  911MOL0     C22900  -0.781   5.561   0.312  0.2652  0.6137  0.3801
  911MOL0     N22901  -0.213   5.115   0.317 -0.7272 -0.2873 -0.1774
  911MOL0     N22902  -0.113   5.065   0.380  0.1785  0.0190 -0.6045
  911MOL0     C22903  -0.036   5.403   0.498  0.3181 -0.6561 -0.0204
  911MOL0     C22904   0.058   5.433   0.404 -0.3442  0.0696  1.1705
  911MOL0     C22905   0.383   5.519   0.134  0.3139 -0.5343 -0.6156
  911MOL0     C22906   0.348   5.613   0.032 -0.2018 -0.5400 -0.0343
  911MOL0     C22907   0.420   5.620  -0.088  0.5267  0.3389  0.4116
  911MOL0     C22908   0.519   5.527  -0.130  0.2392  0.0401 -0.4055
  911MOL0     O22909   0.596   5.531  -0.241  0.2739  0.0161 -0.2875
  911MOL0     C22910   0.731   5.567  -0.221  0.5586  0.3022 -0.1521
  911MOL0     C22911   0.823   5.537  -0.342  0.2178 -0.5657  0.1322
  911MOL0     C22912   0.823   5.653  -0.446  0.0401 -0.2824 -0.2201
  911MOL0     C22913   0.844   5.610  -0.592  0.0882 -0.3390 -0.1118
  911MOL0     C22914   0.748   5.522  -0.639  0.1028 -0.5445  0.9142
  911MOL0     C22915   0.681   5.430  -0.692  0.6298  0.4160 -0.1671
  911MOL0     C22916   0.531   5.423  -0.042 -0.8064  0.1479 -0.2448
  911MOL0     C22917   0.476   5.425   0.089  0.2325 -0.7307  0.3619
  911MOL0     H22918   0.187   5.728   0.527 -1.5466  0.0737  0.5044
  911MOL0     H22919  -0.009   5.684   0.692  0.0481 -0.0636 -0.3697
  911MOL0     H22920  -0.009   5.488   0.863 -0.4469 -1.0042  3.3002
  911MOL0     H22921  -0.143   5.616   0.869 -3.2685 -0.7626 -1.4140
  911MOL0     H22922  -0.176   5.446   1.034  0.3280  1.3509  0.6538
  911MOL0     H22923  -0.304   5.443   0.921 -0.2053 -2.1991  2.0455
  911MOL0     H22924  -0.279   5.223   0.931 -0.0264  1.5413  1.2199
  911MOL0     H22925  -0.175   5.264   0.790  2.5599  1.9218  0.2129
  911MOL0     H22926   0.028   5.227   0.912 -0.6762 -0.5788 -0.4088
  911MOL0     H22927  -0.059   5.237   1.070  0.2813 -0.5115  0.1444
  911MOL0     H22928   0.033   5.021   0.984 -0.8052 -1.0283  3.8745
  911MOL0     H22929  -0.146   5.019   1.026 -0.4575  2.9575  0.3571
  911MOL0     H22930  -0.106   4.881   0.826 -1.4382  0.1922 -0.2365
  911MOL0     H22931  -0.186   5.048   0.791  1.4314  1.9948  0.3152
  911MOL0     H22932   0.030   5.119   0.708  0.3386  0.1440 -0.4539
  911MOL0     H22933   0.094   4.956   0.742 -0.3045 -0.3765 -2.2186
  911MOL0     H22934  -0.116   4.855   0.612 -0.0927 -0.3038  0.4228
  911MOL0     H22935   0.033   4.906   0.536  1.5068 -0.2173  1.6653
  911MOL0     H22936  -0.341   5.043   0.613 -0.0012 -1.1194 -0.1460
  911MOL0     H22937  -0.466   5.206   0.266  0.3089  0.7822  0.1756
  911MOL0     H22938  -0.530   5.081   0.361 -0.8985  1.3289  1.2282
  911MOL0     H22939  -0.522   5.228   0.563  0.4349  2.8125  0.6096
  911MOL0     H22940  -0.612   5.301   0.426 -1.6681  1.8755  2.6323
  911MOL0     H22941  -0.360   5.392   0.384 -0.2006  0.9190 -0.7209
  911MOL0     H22942  -0.344   5.358   0.555  0.9302  2.5013 -1.2579
  911MOL0     H22943  -0.394   5.573   0.522  1.5343 -0.7959 -2.7901
  911MOL0     H22944  -0.541   5.512   0.586  0.0008 -2.9033  0.3838
  911MOL0     H22945  -0.683   5.666   0.608 -3.2293  2.4292  0.8228
  911MOL0     H22946  -0.815   5.662   0.760  0.6252  1.1413  0.3891
  911MOL0     H22947  -0.921   5.795   0.708  0.9064  0.1280 -2.8671
  911MOL0     H22948  -0.989   5.631   0.755 -1.3084  1.2969 -0.4748
  911MOL0     H22949  -1.398   5.733   0.513  1.3830 -0.2201 -0.2289
  911MOL0     H22950  -1.641   5.716   0.466  0.7066 -2.2010  2.9997
  911MOL0     H22951  -1.770   5.611   0.076  2.1880  1.7793  1.9772
  911MOL0     H22952  -1.818   5.454   0.158 -5.7818 -0.8107 -1.6139
  911MOL0     H22953  -1.976   5.699   0.206  0.8667  2.3485 -5.4302
  911MOL0     H22954  -1.986   5.592   0.065  0.4805 -2.7763 -0.6038
  911MOL0     H22955  -2.031   5.479   0.338 -0.3381  2.9319  0.3814
  911MOL0     H22956  -2.048   5.397   0.179  2.9935  1.6141 -1.5576
  911MOL0     H22957  -2.277   5.438   0.279 -1.4976  0.3663  0.3748
  911MOL0     H22958  -2.243   5.603   0.285 -1.6628 -2.5346  2.9842
  911MOL0     H22959  -2.271   5.429   0.032  0.2851  1.5242 -1.1535
  911MOL0     H22960  -2.200   5.584   0.020  0.6913  1.0437  0.9801
  911MOL0     H22961  -2.493   5.503   0.088  1.0149 -1.4720  0.0108
  911MOL0     H22962  -2.421   5.666   0.144  1.2051  1.1416 -2.2632
  911MOL0     H22963  -2.446   5.589  -0.148  0.5846 -0.5685  0.8400
  911MOL0     H22964  -2.415   5.745  -0.073  1.1090 -0.2440 -0.7367
  911MOL0     H22965  -2.658   5.722   0.015 -3.3800 -2.6211 -0.3480
  911MOL0     H22966  -2.666   5.570  -0.083  2.8778 -2.0227  4.0050
  911MOL0     H22967  -1.548   5.520   0.090  3.3485  1.5921 -1.1680
  911MOL0     H22968  -1.310   5.519   0.159  2.5417  2.1577  0.0715
  911MOL0     H22969  -0.993   5.565   0.244 -1.4855  1.6915  0.7537
  911MOL0     H22970  -0.750   5.533   0.212 -2.1141  1.0052 -0.5552
  911MOL0     H22971  -0.094   5.312   0.493 -0.3806 -0.3110  1.2662
  911MOL0     H22972   0.068   5.354   0.330 -2.4937  1.8697 -1.2255
  911MOL0     H22973   0.284   5.696   0.060  1.1252  0.4942  0.0118
  911MOL0     H22974   0.404   5.704  -0.155  2.8842  0.1846 -0.4136
  911MOL0     H22975   0.735   5.671  -0.186 -1.6768  0.3156  0.2361
  911MOL0     H22976   0.761   5.508  -0.134  0.9520  2.3406  1.1638
  911MOL0     H22977   0.785   5.453  -0.401  3.6302 -0.7912 -2.0251
  911MOL0     H22978   0.926   5.517  -0.310  0.6509 -1.8886 -1.8756
  911MOL0     H22979   0.903   5.723  -0.419 -1.7590  0.9991  2.2293
  911MOL0     H22980   0.731   5.706  -0.422  2.1554  3.3612  0.6742
  911MOL0     H22981   0.942   5.562  -0.598  1.4116  2.0922  0.7053
  911MOL0     H22982   0.851   5.699  -0.654  3.9351  0.7233  1.5577
  911MOL0     H22983   0.642   5.343  -0.740 -2.4285  0.9631  1.0791
  911MOL0     H22984   0.583   5.328  -0.050 -2.0714 -0.6150  0.2939
  911MOL0     H22985   0.490   5.343   0.159 -2.5588 -0.7490  1.0184
  912MOL0     O22986   2.264   5.799   1.547  0.0215  1.0675  0.2094
  912MOL0     C22987   2.310   5.915   1.558 -0.8991  0.7897  0.4942
  912MOL0     O22988   2.242   6.027   1.525  0.1777 -0.0526  0.5003
  912MOL0     C22989   2.116   6.022   1.474  0.0103  0.4311  0.0373
  912MOL0     C22990   2.003   6.019   1.552 -0.1086 -0.4910 -0.5410
  912MOL0     C22991   1.867   6.008   1.503 -0.1844 -0.6491  0.0511
  912MOL0     C22992   1.853   6.005   1.358  0.0459 -0.3944  0.3610
  912MOL0     O22993   1.727   6.011   1.297  0.1579  0.7832  0.0130
  912MOL0     C22994   1.612   5.957   1.362 -0.4736 -0.4979  0.6857
  912MOL0     C22995   1.582   5.822   1.290  0.6186 -0.0920  0.8321
  912MOL0     C22996   1.454   5.772   1.356 -0.0043  0.5158  1.2017
  912MOL0     C22997   1.407   5.637   1.312 -0.2093 -0.4406  0.2537
  912MOL0     C22998   1.275   5.596   1.375  0.0985  0.4843  0.0113
  912MOL0     C22999   1.294   5.597   1.537  0.3779 -1.0520 -0.0920
  912MOL0     C23000   1.182   5.515   1.604 -0.0074  0.0673 -0.8576
  912MOL0     C23001   1.190   5.537   1.754 -1.2089 -0.4568 -1.1614
  912MOL0     N23002   1.075   5.469   1.819  0.7273  0.1185  0.0403
  912MOL0     C23003   0.946   5.510   1.802  0.2985 -0.3184  0.2573
  912MOL0     C23004   0.874   5.416   1.865 -1.0001  0.2668  0.4531
  912MOL0     C23005   0.724   5.399   1.849  1.2143  0.1049  0.0997
  912MOL0     C23006   0.647   5.371   1.986  0.4720 -0.1656  0.5300
  912MOL0     C23007   0.686   5.246   2.070  0.3207 -0.3586 -0.2034
  912MOL0     C23008   0.584   5.204   2.174 -0.7054  0.0523 -0.3761
  912MOL0     O23009   0.477   5.142   2.106 -0.1379  0.3165 -0.5548
  912MOL0     C23010   0.361   5.142   2.179 -0.3067 -1.0239  0.0492
  912MOL0     C23011   0.257   5.100   2.106 -0.1617  0.5640  0.3200
  912MOL0     C23012   0.123   5.088   2.160 -1.1257  0.7874 -0.0257
  912MOL0     C23013   0.014   5.043   2.069 -0.2878  0.4089 -0.7697
  912MOL0     C23014   0.100   5.133   2.289 -0.0639 -0.1753 -0.6742
  912MOL0     C23015  -0.036   5.112   2.353  0.1019  0.3631 -0.5247
  912MOL0     O23016  -0.118   5.006   2.320  0.5279  0.0682 -1.0127
  912MOL0     C23017  -0.244   5.026   2.353 -0.7877  0.4980  1.3836
  912MOL0     C23018  -0.299   4.984   2.475 -0.0833  0.4126  0.0330
  912MOL0     C23019  -0.434   4.993   2.511  0.1797 -0.0866  0.9650
  912MOL0     C23020  -0.518   5.057   2.420 -0.2449 -0.0136  0.4257
  912MOL0     O23021  -0.657   5.078   2.442  0.0678 -0.4430  0.0206
  912MOL0     C23022  -0.732   4.969   2.507  0.3014  0.3201  0.7782
  912MOL0     C23023  -0.878   5.012   2.497  0.2170  0.7992 -0.6851
  912MOL0     C23024  -0.908   5.139   2.579 -0.0802 -0.4838 -0.4099
  912MOL0     C23025  -1.060   5.170   2.588  0.7630  0.0855  0.1668
  912MOL0     C23026  -1.092   5.290   2.689 -0.1383 -0.3575 -0.2620
  912MOL0     C23027  -1.239   5.332   2.668  0.8240 -0.3427  0.6317
  912MOL0     C23028  -1.277   5.442   2.766 -0.2281  0.1962 -0.0781
  912MOL0     C23029  -1.396   5.528   2.724  0.2802 -0.7664 -0.9918
  912MOL0    Cl23030  -1.541   5.415   2.704 -0.4873 -0.0094 -0.6554
  912MOL0     C23031  -0.469   5.102   2.302 -0.2349 -0.4122  0.3216
  912MOL0     C23032  -0.331   5.089   2.271  0.4609 -0.1498  0.6489
  912MOL0     O23033  -0.067   5.200   2.434  0.3465 -0.2735  0.5341
  912MOL0     C23034   0.206   5.192   2.363  0.0280 -0.7782  0.4096
  912MOL0     C23035   0.334   5.198   2.305  0.2145 -0.0931 -0.7912
  912MOL0     N23036   0.963   5.335   1.928  0.2162  0.4972  0.6951
  912MOL0     N23037   1.078   5.369   1.907 -0.6976 -0.1563  1.0356
  912MOL0     C23038   1.970   6.002   1.279 -0.5798  0.3913 -0.0437
  912MOL0     C23039   2.101   6.011   1.335  0.0293  1.4425 -0.1291
  912MOL0     C23040   2.452   5.940   1.610  0.1448  0.0481  0.5777
  912MOL0     C23041   2.495   6.071   1.635 -0.4573 -0.1368 -0.8666
  912MOL0     C23042   2.619   6.104   1.681 -0.6574  0.7434 -0.4002
  912MOL0     C23043   2.715   5.999   1.710  1.3142 -0.0012 -0.1185
  912MOL0     O23044   2.839   6.047   1.744 -0.2862  1.0115  0.4811
  912MOL0     C23045   2.951   5.958   1.772 -0.1843 -0.5988 -0.2109
  912MOL0     C23046   3.067   6.054   1.817 -0.8055 -0.4376  0.0714
  912MOL0     C23047   3.199   5.983   1.791  0.5502 -0.2017 -0.3374
  912MOL0     C23048   3.325   6.072   1.831 -0.2733 -0.1400  1.3727
  912MOL0     C23049   3.444   6.002   1.786  0.0296  0.5515  0.5146
  912MOL0     C23050   3.525   5.910   1.763 -0.2649 -0.9002 -0.5041
  912MOL0     C23051   2.677   5.864   1.683  0.4474 -0.7106 -0.5035
  912MOL0     C23052   2.538   5.838   1.649  0.2992  0.0710 -0.0364
  912MOL0     H23053   2.017   6.028   1.659  0.4253 -0.0067 -0.6437
  912MOL0     H23054   1.780   6.015   1.567  1.0518 -0.0366  1.7151
  912MOL0     H23055   1.621   5.937   1.469 -1.9155 -2.2061  0.5406
  912MOL0     H23056   1.528   6.025   1.347  0.0093 -0.4226 -2.5487
  912MOL0     H23057   1.561   5.854   1.187  0.3906  2.0348  1.4938
  912MOL0     H23058   1.665   5.751   1.297  2.3022  1.6070 -0.8273
  912MOL0     H23059   1.476   5.756   1.462 -2.8668 -3.9679  1.3925
  912MOL0     H23060   1.378   5.844   1.326  0.4824 -0.0708 -1.7038
  912MOL0     H23061   1.394   5.634   1.203  0.5638 -2.6736  0.1585
  912MOL0     H23062   1.495   5.575   1.334  2.3765  2.2242 -1.8122
  912MOL0     H23063   1.192   5.651   1.331  1.2139 -0.6748 -4.0304
  912MOL0     H23064   1.260   5.498   1.329  2.1252  0.3749 -0.5218
  912MOL0     H23065   1.384   5.537   1.552  0.8031 -0.9010 -1.8196
  912MOL0     H23066   1.310   5.692   1.590  2.0015 -1.4881  0.2431
  912MOL0     H23067   1.085   5.558   1.576 -1.0673 -0.9768  1.0767
  912MOL0     H23068   1.190   5.412   1.570  0.7699 -1.1513  2.6616
  912MOL0     H23069   1.200   5.644   1.776  0.0493 -1.0586  1.5307
  912MOL0     H23070   1.281   5.502   1.803 -1.5268 -1.0183 -0.9556
  912MOL0     H23071   0.905   5.596   1.750 -1.4867 -0.9503  0.5604
  912MOL0     H23072   0.684   5.490   1.804 -1.7600 -1.4619 -0.6823
  912MOL0     H23073   0.700   5.321   1.776  0.3362  1.6445 -1.3072
  912MOL0     H23074   0.550   5.350   1.940  0.7830  0.0380 -0.2405
  912MOL0     H23075   0.666   5.461   2.045  2.3664  0.0130 -0.2685
  912MOL0     H23076   0.779   5.273   2.121 -0.0646 -0.6908  0.7007
  912MOL0     H23077   0.700   5.165   1.999 -2.8206 -0.2659 -1.0763
  912MOL0     H23078   0.553   5.298   2.222  1.1927  2.3613 -3.2994
  912MOL0     H23079   0.632   5.139   2.248  2.5837  1.5032 -1.0130
  912MOL0     H23080   0.275   5.079   2.001  1.3476  0.8285  0.5077
  912MOL0     H23081   0.041   5.056   1.964  4.5559 -0.3034  0.1323
  912MOL0     H23082   0.007   4.934   2.081  0.2817  0.6736  3.1622
  912MOL0     H23083  -0.079   5.093   2.096  1.7630  3.3638  1.4179
  912MOL0     H23084  -0.242   4.915   2.537  0.1335  1.3980  0.9579
  912MOL0     H23085  -0.475   4.950   2.601 -1.4306  1.8188  1.1964
  912MOL0     H23086  -0.713   4.873   2.459 -0.1739  0.6229 -0.0314
  912MOL0     H23087  -0.704   4.958   2.612 -2.7298 -1.2234  1.5478
  912MOL0     H23088  -0.900   5.022   2.390  0.2699 -0.9589 -0.8887
  912MOL0     H23089  -0.946   4.936   2.537  1.9499  0.8832  2.7888
  912MOL0     H23090  -0.864   5.230   2.538 -0.6042 -1.0875 -2.4322
  912MOL0     H23091  -0.864   5.141   2.679 -4.0467 -0.7178  1.5477
  912MOL0     H23092  -1.088   5.199   2.486  1.2068  2.0170  0.5512
  912MOL0     H23093  -1.114   5.077   2.609 -0.9175  0.8977 -0.3478
  912MOL0     H23094  -1.027   5.375   2.666 -0.5930  0.0516 -0.0569
  912MOL0     H23095  -1.075   5.252   2.790 -0.5892 -1.3235 -0.5388
  912MOL0     H23096  -1.270   5.367   2.569  1.5119  1.3781  0.9911
  912MOL0     H23097  -1.307   5.248   2.681  1.3035 -0.9224 -0.4466
  912MOL0     H23098  -1.207   5.524   2.783 -1.8250  1.7261 -0.5404
  912MOL0     H23099  -1.309   5.396   2.860  0.2042  0.7842  0.3688
  912MOL0     H23100  -1.393   5.576   2.625 -0.1724  1.0480 -0.1621
  912MOL0     H23101  -1.422   5.597   2.805  2.5255 -1.6952  0.5968
  912MOL0     H23102  -0.543   5.152   2.239  0.1430 -0.6770 -0.3394
  912MOL0     H23103  -0.303   5.123   2.172 -3.6221  2.4033  0.1779
  912MOL0     H23104   0.197   5.247   2.456  2.5878  1.1345 -0.3690
  912MOL0     H23105   0.407   5.229   2.380  0.7214 -1.3127 -0.7514
  912MOL0     H23106   1.959   6.008   1.171  0.3728  0.2076 -0.1594
  912MOL0     H23107   2.192   5.996   1.278  0.3792  0.6127  0.6184
  912MOL0     H23108   2.426   6.154   1.623  0.8027  0.6416 -3.8396
  912MOL0     H23109   2.653   6.208   1.679  0.4324  0.3857 -1.0244
  912MOL0     H23110   2.923   5.895   1.857  0.2415  1.6641  1.7324
  912MOL0     H23111   2.976   5.904   1.680 -0.4923 -2.8491  0.9515
  912MOL0     H23112   3.058   6.078   1.924 -1.2619  0.8231 -0.2369
  912MOL0     H23113   3.071   6.151   1.767  2.4569 -0.3500  0.3389
  912MOL0     H23114   3.199   5.952   1.686  0.7047 -0.1925 -0.3399
  912MOL0     H23115   3.209   5.891   1.850  0.9852  1.4156  2.2148
  912MOL0     H23116   3.334   6.081   1.939  1.8474 -0.6027  1.2577
  912MOL0     H23117   3.314   6.173   1.790  4.0989  0.7737  1.9540
  912MOL0     H23118   3.598   5.832   1.757 -0.0420 -0.6016 -1.9241
  912MOL0     H23119   2.741   5.782   1.715  1.7838  0.2554 -0.6416
  912MOL0     H23120   2.483   5.745   1.639 -3.8881  2.4040 -1.0981
  913MOL0     O23121   7.757   8.069   9.798  0.0839  0.0698  0.3189
  913MOL0     C23122   7.722   8.122   9.906 -1.0509 -0.0544 -0.3307
  913MOL0     O23123   7.802   8.129  10.020  0.1093 -0.7069 -0.0166
  913MOL0     C23124   7.940   8.130  10.009  0.3490  0.1062 -0.1385
  913MOL0     C23125   8.008   8.095  10.118 -0.3771  0.0147  0.6328
  913MOL0     C23126   8.149   8.083  10.111 -1.1026  1.1519 -0.2012
  913MOL0     C23127   8.226   8.105   9.993 -0.5204  0.4795 -0.1754
  913MOL0     O23128   8.358   8.078  10.004 -0.1345  0.2828  0.5292
  913MOL0     C23129   8.424   8.038   9.873 -0.1935  0.1495 -0.2996
  913MOL0     C23130   8.551   8.124   9.851  0.2448  0.4393  0.2278
  913MOL0     C23131   8.609   8.120   9.712  0.6951  0.3970  0.1274
  913MOL0     C23132   8.759   8.132   9.707  0.5186 -0.1298 -0.1216
  913MOL0     C23133   8.815   8.116   9.569 -0.0073 -0.6864  0.0925
  913MOL0     C23134   8.972   8.113   9.577 -1.0723  0.6105 -0.1405
  913MOL0     C23135   9.026   8.142   9.447  0.8280  0.5282 -0.1140
  913MOL0     C23136   9.175   8.174   9.437  0.2003  0.3574  0.0121
  913MOL0     N23137   9.207   8.311   9.479 -1.0453  0.2007  0.1863
  913MOL0     C23138   9.269   8.357   9.592  0.2733 -0.3224  0.3404
  913MOL0     C23139   9.300   8.488   9.562 -0.2433  0.7301 -1.8429
  913MOL0     C23140   9.365   8.573   9.665  0.0292  0.4085  0.1094
  913MOL0     C23141   9.515   8.525   9.702  0.0906 -0.4783  0.1089
  913MOL0     C23142   9.583   8.618   9.799  0.6810  1.0001  0.1913
  913MOL0     C23143   9.718   8.573   9.844 -0.2627 -0.7857 -0.7287
  913MOL0     O23144   9.810   8.591   9.738 -0.5041 -0.1023  0.1522
  913MOL0     C23145   9.915   8.504   9.717  0.1531 -1.0767  0.2102
  913MOL0     C23146   9.962   8.512   9.589 -0.4326  0.1159  0.5463
  913MOL0     C23147  10.081   8.437   9.551  0.3895 -0.3146  0.7232
  913MOL0     C23148  10.133   8.455   9.405  0.1016 -0.4964  0.2933
  913MOL0     C23149  10.153   8.373   9.660  0.3601 -0.5771  0.5632
  913MOL0     C23150  10.267   8.292   9.630  0.0193  0.5171  0.1509
  913MOL0     O23151  10.377   8.334   9.695 -0.1210  0.4823 -0.0225
  913MOL0     C23152  10.490   8.247   9.681  0.3013 -1.0119 -0.3263
  913MOL0     C23153  10.496   8.129   9.757 -0.1055  0.6608 -0.5403
  913MOL0     C23154  10.622   8.070   9.787 -0.5158 -0.3595 -0.0936
  913MOL0     C23155  10.741   8.107   9.722 -0.1169 -0.0666  0.5865
  913MOL0     O23156  10.864   8.064   9.761 -0.1369  0.5856  0.3660
  913MOL0     C23157  10.878   7.979   9.871 -0.2336 -0.0854  0.3040
  913MOL0     C23158  11.031   7.956   9.879 -0.5731  0.1950 -0.7865
  913MOL0     C23159  11.102   8.060   9.967  0.0147  0.1876 -0.6984
  913MOL0     C23160  11.234   8.006  10.032  0.4936  1.3449  0.5455
  913MOL0     C23161  11.300   8.103  10.128  0.5754 -0.5213  0.1941
  913MOL0     C23162  11.444   8.068  10.152  0.2573  0.6005  0.1069
  913MOL0     C23163  11.515   8.183  10.220  1.0304  0.0030  0.0169
  913MOL0     C23164  11.656   8.161  10.264  1.2145  0.5492 -0.4984
  913MOL0    Cl23165  11.747   8.102  10.116  0.4392 -0.0923  0.5011
  913MOL0     C23166  10.726   8.219   9.635  0.2989 -0.5381  0.8435
  913MOL0     C23167  10.609   8.289   9.624  0.1500 -0.6649  0.1311
  913MOL0     O23168  10.252   8.190   9.564 -0.5270  0.5841 -0.2015
  913MOL0     C23169  10.097   8.362   9.781 -0.5257 -0.9062  1.0318
  913MOL0     C23170   9.983   8.427   9.809  0.1587 -0.3602 -0.2496
  913MOL0     N23171   9.256   8.514   9.442  0.4278 -0.3884  0.1146
  913MOL0     N23172   9.198   8.414   9.392  1.0466 -0.2218 -0.4718
  913MOL0     C23173   8.158   8.155   9.887 -0.0242  0.2206  0.4262
  913MOL0     C23174   8.018   8.168   9.895 -0.0319 -0.9114 -0.8079
  913MOL0     C23175   7.589   8.177   9.915  1.3386  0.1810 -0.0759
  913MOL0     C23176   7.504   8.162   9.809 -0.3971  0.2406  0.5344
  913MOL0     C23177   7.368   8.202   9.818  0.1236  0.6131  0.2575
  913MOL0     C23178   7.312   8.264   9.929 -0.7955  0.2668 -0.3616
  913MOL0     O23179   7.177   8.281   9.947 -0.0564 -0.1525  0.0216
  913MOL0     C23180   7.103   8.299   9.830 -0.3133  0.3052  0.4886
  913MOL0     C23181   6.957   8.332   9.861  0.0486 -0.5634 -0.1097
  913MOL0     C23182   6.899   8.236   9.964  0.1122  0.0126 -0.7108
  913MOL0     C23183   6.922   8.274  10.110 -1.2973 -0.7936  0.1113
  913MOL0     C23184   6.843   8.196  10.208 -0.8903  0.4752  0.8819
  913MOL0     C23185   6.793   8.122  10.290  0.8156 -0.7731 -0.5357
  913MOL0     C23186   7.394   8.275  10.036  0.3666  0.6142 -0.0859
  913MOL0     C23187   7.534   8.234  10.031 -0.0775 -0.6389  0.1050
  913MOL0     H23188   7.948   8.068  10.205 -0.2980  0.2189  0.7509
  913MOL0     H23189   8.202   8.032  10.191 -0.5573  2.3546  0.2335
  913MOL0     H23190   8.452   7.933   9.862 -1.1929 -0.1727  0.0895
  913MOL0     H23191   8.368   8.050   9.780  1.0828 -0.8376 -1.2310
  913MOL0     H23192   8.504   8.221   9.872  0.0809  1.0937 -2.6839
  913MOL0     H23193   8.629   8.117   9.927 -0.7926 -0.6442  1.2284
  913MOL0     H23194   8.582   8.027   9.661 -1.6443 -1.3257  4.1261
  913MOL0     H23195   8.561   8.197   9.650 -0.8521 -1.5996 -1.3134
  913MOL0     H23196   8.793   8.222   9.758  4.5031 -1.1752 -0.5872
  913MOL0     H23197   8.793   8.048   9.768 -2.4787  1.2261  3.8560
  913MOL0     H23198   8.770   8.032   9.516 -0.1537 -1.3043  1.1805
  913MOL0     H23199   8.784   8.205   9.514 -0.2302 -1.1297 -0.5152
  913MOL0     H23200   8.999   8.195   9.644 -2.2747  2.9213 -2.3173
  913MOL0     H23201   9.016   8.018   9.610  4.0865  2.2584 -1.3963
  913MOL0     H23202   9.010   8.058   9.378  2.0030  0.6576 -0.5536
  913MOL0     H23203   8.966   8.225   9.406 -3.0487 -3.0420 -2.5260
  913MOL0     H23204   9.206   8.162   9.333 -1.6577 -0.3329 -0.5169
  913MOL0     H23205   9.229   8.103   9.501 -1.0538 -0.9233 -0.2918
  913MOL0     H23206   9.284   8.303   9.685 -1.5912 -0.6868  0.4666
  913MOL0     H23207   9.362   8.677   9.631 -1.4794  0.1823 -0.4993
  913MOL0     H23208   9.305   8.576   9.756  0.1172 -0.1611  0.1922
  913MOL0     H23209   9.564   8.508   9.606 -1.7279  1.2115 -1.1836
  913MOL0     H23210   9.499   8.428   9.750 -0.4787 -0.4280  0.0295
  913MOL0     H23211   9.518   8.626   9.888  2.5110  1.4284  1.5489
  913MOL0     H23212   9.592   8.718   9.755  1.8694  0.9452  0.2967
  913MOL0     H23213   9.717   8.472   9.887 -0.9037 -0.4020  0.1929
  913MOL0     H23214   9.758   8.641   9.919  1.3926 -0.7854 -1.5765
  913MOL0     H23215   9.912   8.572   9.514  0.3594  0.2726  0.1274
  913MOL0     H23216  10.228   8.402   9.398 -0.2773 -1.5828  2.5729
  913MOL0     H23217  10.062   8.440   9.323  2.2771 -1.5981 -1.4933
  913MOL0     H23218  10.173   8.553   9.376  2.5135 -1.0111  1.6817
  913MOL0     H23219  10.407   8.095   9.808 -0.2380 -0.7650 -1.6692
  913MOL0     H23220  10.613   7.981   9.847  1.0092 -0.1323  0.5224
  913MOL0     H23221  10.832   8.018   9.962  0.1909 -0.1682  0.5575
  913MOL0     H23222  10.825   7.885   9.851  1.4484 -1.5735  2.4395
  913MOL0     H23223  11.048   7.857   9.923  0.7346  0.1931 -1.2660
  913MOL0     H23224  11.078   7.950   9.781  0.6812 -0.0337 -0.1969
  913MOL0     H23225  11.035   8.092  10.048  1.1167 -0.1515  0.3952
  913MOL0     H23226  11.128   8.149   9.908  0.5743  0.3991 -0.1556
  913MOL0     H23227  11.213   7.917  10.092 -0.9734 -0.0675 -1.9242
  913MOL0     H23228  11.300   7.976   9.950 -0.0463 -1.5609  1.0781
  913MOL0     H23229  11.243   8.112  10.221 -0.2469  1.7050 -0.4473
  913MOL0     H23230  11.288   8.202  10.084  0.9638  0.7558  2.7953
  913MOL0     H23231  11.439   7.971  10.202 -1.4159 -0.2248 -1.5631
  913MOL0     H23232  11.497   8.038  10.061  0.0165  1.0627 -0.1902
  913MOL0     H23233  11.460   8.200  10.313 -1.3590 -1.5601 -1.0089
  913MOL0     H23234  11.503   8.269  10.154 -2.1924 -1.6989 -1.8675
  913MOL0     H23235  11.663   8.099  10.354  3.3369  2.5782  0.8245
  913MOL0     H23236  11.695   8.259  10.291 -2.4106  1.3782  2.5705
  913MOL0     H23237  10.816   8.253   9.585  0.4807 -2.7919 -0.4976
  913MOL0     H23238  10.619   8.382   9.569  2.5787 -0.7291  0.3376
  913MOL0     H23239  10.151   8.312   9.861  1.6498  1.0318  0.8957
  913MOL0     H23240   9.967   8.406   9.915  5.0044 -1.1935  0.5621
  913MOL0     H23241   8.203   8.183   9.792  0.3548  0.3537  0.6410
  913MOL0     H23242   7.970   8.207   9.805 -0.3269 -3.6261 -1.9203
  913MOL0     H23243   7.533   8.108   9.720 -2.2359  0.3005 -0.1528
  913MOL0     H23244   7.303   8.185   9.733  0.2749  2.0383 -0.1665
  913MOL0     H23245   7.143   8.380   9.768  1.6319 -1.8886 -1.2835
  913MOL0     H23246   7.111   8.213   9.764 -1.1083  1.8145 -1.7167
  913MOL0     H23247   6.898   8.326   9.769  0.2940 -0.5134 -0.2705
  913MOL0     H23248   6.952   8.430   9.909 -0.1971  0.0801 -1.4222
  913MOL0     H23249   6.949   8.144   9.932  1.7757  0.4788  0.3883
  913MOL0     H23250   6.793   8.213   9.956  1.0520 -5.7183 -0.6961
  913MOL0     H23251   6.888   8.377  10.116  1.0309 -0.0059  0.6906
  913MOL0     H23252   7.027   8.281  10.138 -0.8288  3.9598 -1.9690
  913MOL0     H23253   6.731   8.061  10.353  0.0288  0.4440 -0.1062
  913MOL0     H23254   7.353   8.306  10.131  3.0363 -0.4544  1.5296
  913MOL0     H23255   7.590   8.242  10.124  0.5623  1.6527 -0.4005
  914MOL0     O23256   9.849   6.593   5.716  0.6386 -0.4617  0.1646
  914MOL0     C23257   9.756   6.657   5.771  0.3032  0.0991  0.3861
  914MOL0     O23258   9.764   6.781   5.818  0.6343  0.6140 -0.4603
  914MOL0     C23259   9.883   6.838   5.852  0.6908 -0.6592  0.0472
  914MOL0     C23260  10.013   6.778   5.869  0.9569  0.3197  0.4689
  914MOL0     C23261  10.131   6.855   5.885 -0.4052 -0.0460  0.4422
  914MOL0     C23262  10.123   6.998   5.889  0.4289  0.5286 -0.3020
  914MOL0     O23263  10.226   7.087   5.919  0.2044  0.4063 -0.4542
  914MOL0     C23264  10.354   7.037   5.919  0.5864  0.5063 -0.6088
  914MOL0     C23265  10.399   7.011   5.769 -0.3171  0.0034  0.0865
  914MOL0     C23266  10.536   6.946   5.749  0.0937 -0.5265 -0.0667
  914MOL0     C23267  10.599   6.974   5.615  0.0524  0.7619  0.2980
  914MOL0     C23268  10.729   6.901   5.587  0.2973 -0.2275 -0.1650
  914MOL0     C23269  10.721   6.752   5.579 -0.5053  0.4724  0.3999
  914MOL0     C23270  10.863   6.680   5.556  0.4113 -0.5099  0.3270
  914MOL0     C23271  10.882   6.618   5.419 -1.3095 -0.1390  0.4255
  914MOL0     N23272  11.030   6.579   5.417  0.5903 -1.0548  0.3323
  914MOL0     C23273  11.068   6.464   5.468 -0.7114  0.4482 -0.9154
  914MOL0     C23274  11.202   6.482   5.455  0.0954  1.0706  0.4251
  914MOL0     C23275  11.296   6.376   5.504 -0.7583  0.3970 -0.9852
  914MOL0     C23276  11.431   6.368   5.431  0.5008 -0.8992  0.1522
  914MOL0     C23277  11.524   6.266   5.493 -0.1813 -0.0525 -0.2052
  914MOL0     C23278  11.675   6.304   5.483  0.0648  0.7407  0.2466
  914MOL0     O23279  11.744   6.190   5.532 -0.9880 -0.1096 -0.0388
  914MOL0     C23280  11.878   6.213   5.553 -0.6118  0.5286 -0.3657
  914MOL0     C23281  11.973   6.107   5.534  0.1977 -0.9002  0.2228
  914MOL0     C23282  12.108   6.120   5.577 -0.5290  0.4088  0.3539
  914MOL0     C23283  12.198   5.994   5.544  0.8506 -0.2537  0.1664
  914MOL0     C23284  12.156   6.240   5.633  0.6468  0.0114  0.8782
  914MOL0     C23285  12.302   6.264   5.671  0.2715 -0.8508  0.0576
  914MOL0     O23286  12.342   6.390   5.654  0.5786  0.2299 -0.0997
  914MOL0     C23287  12.465   6.428   5.688 -0.3280  0.3426  0.6422
  914MOL0     C23288  12.548   6.484   5.585 -0.2014  0.2197  0.1635
  914MOL0     C23289  12.682   6.510   5.614 -0.3478 -0.1834 -0.2429
  914MOL0     C23290  12.737   6.486   5.736  0.1340 -0.5524 -0.4344
  914MOL0     O23291  12.865   6.506   5.769 -0.4229  0.5185 -0.6945
  914MOL0     C23292  12.941   6.606   5.691 -0.2872  0.0915  0.4436
  914MOL0     C23293  13.053   6.668   5.774 -0.5069 -0.3809 -0.7172
  914MOL0     C23294  12.982   6.772   5.870 -0.3514 -0.0425  0.3036
  914MOL0     C23295  12.919   6.714   6.006  0.1403 -0.3165  0.4876
  914MOL0     C23296  13.015   6.626   6.098 -0.0005 -0.2507 -0.2044
  914MOL0     C23297  13.141   6.697   6.126 -0.9114 -0.7655 -0.0272
  914MOL0     C23298  13.256   6.622   6.175 -1.3314 -0.9365  0.1948
  914MOL0     C23299  13.254   6.623   6.328 -0.5123 -0.4134 -1.0918
  914MOL0    Cl23300  13.406   6.554   6.393  0.2166  0.3246  0.2780
  914MOL0     C23301  12.650   6.434   5.841 -0.6018  0.0967  1.0067
  914MOL0     C23302  12.522   6.403   5.818 -0.4167  0.3221  0.3196
  914MOL0     O23303  12.372   6.174   5.715  0.1810  1.2938 -0.1734
  914MOL0     C23304  12.069   6.345   5.647  0.0867 -0.3611  0.2201
  914MOL0     C23305  11.939   6.329   5.616  0.3132 -0.4670 -0.0815
  914MOL0     N23306  11.232   6.615   5.421  0.1371 -0.0627 -0.3921
  914MOL0     N23307  11.128   6.675   5.393  0.2174  0.5485 -0.4573
  914MOL0     C23308   9.995   7.060   5.888 -0.6132  0.3306  0.6080
  914MOL0     C23309   9.878   6.982   5.869 -0.6741  0.0264 -0.6430
  914MOL0     C23310   9.614   6.606   5.765 -0.0545  0.4678  0.0655
  914MOL0     C23311   9.585   6.504   5.676 -0.1880 -0.2171 -0.1000
  914MOL0     C23312   9.446   6.468   5.654 -0.5310  0.3347 -0.3127
  914MOL0     C23313   9.339   6.547   5.702  0.8183  0.3441  0.2928
  914MOL0     O23314   9.207   6.512   5.664  0.3312  0.3694 -0.4973
  914MOL0     C23315   9.095   6.589   5.706  0.1847  0.7187  0.1045
  914MOL0     C23316   9.060   6.560   5.847  0.6414  0.2994  0.3560
  914MOL0     C23317   8.909   6.554   5.868 -0.3986 -0.0393  0.7824
  914MOL0     C23318   8.875   6.566   6.013  0.4053 -0.1967 -0.0688
  914MOL0     C23319   8.736   6.520   6.020 -0.4056  0.3821  0.0444
  914MOL0     C23320   8.619   6.478   6.041 -0.1981  0.1298 -0.1197
  914MOL0     C23321   9.368   6.646   5.790 -0.3022 -0.4565 -0.7887
  914MOL0     C23322   9.505   6.680   5.806 -0.3993 -0.6186  0.0918
  914MOL0     H23323  10.022   6.670   5.867  0.0841  0.2344  0.6486
  914MOL0     H23324  10.225   6.800   5.891 -0.3979 -1.2724 -5.3318
  914MOL0     H23325  10.426   7.107   5.962  0.0065 -1.4242  4.1692
  914MOL0     H23326  10.354   6.945   5.979 -2.1402  1.4669  1.0148
  914MOL0     H23327  10.327   6.945   5.719  1.0313  0.7231 -3.0405
  914MOL0     H23328  10.394   7.103   5.711  1.1257 -1.1583 -1.9912
  914MOL0     H23329  10.607   6.981   5.824 -2.6567 -0.1781  2.5165
  914MOL0     H23330  10.533   6.839   5.771 -2.1090 -0.5436 -0.2857
  914MOL0     H23331  10.531   6.946   5.534 -1.3106  2.1846  0.8871
  914MOL0     H23332  10.615   7.081   5.598 -2.8981  1.1814 -0.3119
  914MOL0     H23333  10.754   6.938   5.487 -0.6905 -0.5384 -0.5370
  914MOL0     H23334  10.809   6.930   5.656  1.0740  0.1215 -1.1812
  914MOL0     H23335  10.685   6.710   5.674 -1.2432 -1.8025 -0.8112
  914MOL0     H23336  10.651   6.723   5.501  1.3848  1.0496 -1.6065
  914MOL0     H23337  10.945   6.746   5.583  0.2390 -0.6501  1.2306
  914MOL0     H23338  10.861   6.597   5.627 -0.5549 -1.9528 -1.2750
  914MOL0     H23339  10.873   6.696   5.343  2.0844 -1.0730 -1.1322
  914MOL0     H23340  10.810   6.538   5.400 -1.6216  0.3105 -0.3300
  914MOL0     H23341  11.017   6.372   5.495 -2.0212  1.3932 -0.0489
  914MOL0     H23342  11.314   6.408   5.607 -1.0760  2.5555 -1.5605
  914MOL0     H23343  11.244   6.279   5.500  2.4719 -1.4755 -4.1199
  914MOL0     H23344  11.469   6.470   5.433 -2.0032  0.1203  0.5174
  914MOL0     H23345  11.416   6.334   5.328 -0.1492 -1.8709  0.5446
  914MOL0     H23346  11.499   6.169   5.448 -1.2469 -0.4781  1.2100
  914MOL0     H23347  11.496   6.248   5.598 -0.9404  3.3963  0.2973
  914MOL0     H23348  11.678   6.382   5.560 -0.8799  0.4298  0.6099
  914MOL0     H23349  11.714   6.341   5.388 -0.2693  1.9372  0.5491
  914MOL0     H23350  11.930   6.020   5.485 -0.9717 -0.0120 -0.3845
  914MOL0     H23351  12.139   5.927   5.481 -3.3139  0.6294  2.7335
  914MOL0     H23352  12.297   6.020   5.506  1.3687  1.2284  2.3302
  914MOL0     H23353  12.223   5.949   5.641 -0.2761  0.9735  1.0733
  914MOL0     H23354  12.511   6.500   5.484  0.1285  2.5480  0.3573
  914MOL0     H23355  12.742   6.532   5.526 -1.3111  1.9943 -0.3998
  914MOL0     H23356  12.990   6.557   5.607  0.7247 -1.7941  2.0613
  914MOL0     H23357  12.870   6.682   5.658 -1.1672  0.2582  2.5871
  914MOL0     H23358  13.103   6.589   5.831 -0.5106  0.5171  0.5578
  914MOL0     H23359  13.124   6.714   5.705 -0.4644 -0.2980 -0.6173
  914MOL0     H23360  12.902   6.825   5.816 -0.7349  0.3028  1.1968
  914MOL0     H23361  13.061   6.847   5.880  1.5653 -2.1769  2.4332
  914MOL0     H23362  12.877   6.791   6.071  0.8322 -2.5132  3.7889
  914MOL0     H23363  12.831   6.651   5.989 -1.5706  2.2018 -0.6827
  914MOL0     H23364  13.031   6.532   6.044 -1.8190 -0.9731  0.4383
  914MOL0     H23365  12.963   6.600   6.191  0.1857  1.5196  0.4401
  914MOL0     H23366  13.183   6.741   6.035  1.1893  2.1918  2.1892
  914MOL0     H23367  13.113   6.782   6.189  1.9772  0.9543 -0.8564
  914MOL0     H23368  13.344   6.674   6.135 -1.3988 -1.8632 -1.2286
  914MOL0     H23369  13.257   6.517   6.144  0.5219 -1.2919  1.2853
  914MOL0     H23370  13.162   6.575   6.361 -0.8507  1.3444  0.7048
  914MOL0     H23371  13.250   6.725   6.368  1.6911 -0.5131 -0.4488
  914MOL0     H23372  12.695   6.418   5.938  0.0422  0.0246  0.7023
  914MOL0     H23373  12.460   6.359   5.897 -0.4801  2.3685  1.4826
  914MOL0     H23374  12.107   6.445   5.668 -0.5098  0.1359 -0.9655
  914MOL0     H23375  11.882   6.419   5.637  2.0519  0.9709 -1.1753
  914MOL0     H23376   9.992   7.167   5.909 -1.4265  0.2842  0.7576
  914MOL0     H23377   9.784   7.030   5.844  0.4843  2.7202 -0.0737
  914MOL0     H23378   9.651   6.433   5.628 -0.9738 -2.6108  2.0947
  914MOL0     H23379   9.422   6.385   5.589 -1.5472  0.0743  0.3620
  914MOL0     H23380   9.108   6.697   5.697 -1.1155  0.8716 -0.2311
  914MOL0     H23381   9.008   6.566   5.642  1.5598 -1.0879 -1.2615
  914MOL0     H23382   9.099   6.643   5.908 -0.4436  1.4278 -0.4401
  914MOL0     H23383   9.100   6.462   5.872 -2.1162 -1.2534 -0.9541
  914MOL0     H23384   8.882   6.457   5.825  0.6852 -0.9029  1.9892
  914MOL0     H23385   8.854   6.632   5.814 -2.0948 -3.3379 -2.7312
  914MOL0     H23386   8.872   6.667   6.056 -3.6056 -0.7358  1.3894
  914MOL0     H23387   8.941   6.504   6.075  4.1778  3.7976  0.3655
  914MOL0     H23388   8.518   6.444   6.055 -1.1601  2.8758  0.2852
  914MOL0     H23389   9.299   6.705   5.850 -0.1107  0.4559 -1.4371
  914MOL0     H23390   9.527   6.760   5.876 -1.4794  1.2693 -1.6031
  915MOL0     O23391   5.922   4.518   4.619 -0.0153  0.2632 -0.2571
  915MOL0     C23392   5.931   4.587   4.522  0.1590  0.8137 -0.0291
  915MOL0     O23393   5.832   4.619   4.436  0.0903 -0.5360  0.3079
  915MOL0     C23394   5.699   4.587   4.453 -0.3678  0.8396  0.2944
  915MOL0     C23395   5.639   4.518   4.559  0.3858  0.5246 -0.6222
  915MOL0     C23396   5.506   4.482   4.550 -0.7336 -1.0275 -0.7295
  915MOL0     C23397   5.440   4.498   4.430  0.5965  0.4369  0.0888
  915MOL0     O23398   5.306   4.462   4.422 -0.8784  0.0025 -0.1469
  915MOL0     C23399   5.224   4.573   4.441  0.3017  0.5789 -0.5313
  915MOL0     C23400   5.074   4.544   4.394 -0.2204 -0.8252 -0.4987
  915MOL0     C23401   5.012   4.418   4.463 -0.4493 -0.1257 -0.3429
  915MOL0     C23402   4.868   4.383   4.414 -0.3952 -0.1283  0.6463
  915MOL0     C23403   4.811   4.287   4.509 -0.9832 -0.0506 -0.0172
  915MOL0     C23404   4.674   4.233   4.469 -0.0686  0.4923  0.3167
  915MOL0     C23405   4.651   4.079   4.471 -0.3850 -0.3672  0.0032
  915MOL0     C23406   4.757   3.987   4.410  0.1386 -0.0601  0.0367
  915MOL0     N23407   4.684   3.849   4.403  0.3714 -0.3463 -0.0754
  915MOL0     C23408   4.643   3.779   4.287  0.0632  1.4268 -0.0160
  915MOL0     C23409   4.614   3.653   4.327  0.1701  0.2101 -0.4783
  915MOL0     C23410   4.565   3.545   4.239  1.0821 -1.0667 -0.3919
  915MOL0     C23411   4.446   3.595   4.151 -0.0191  0.8233 -0.6357
  915MOL0     C23412   4.319   3.553   4.217  0.2745 -0.0823  0.6554
  915MOL0     C23413   4.193   3.582   4.137 -0.2730 -0.6079  0.7731
  915MOL0     O23414   4.169   3.726   4.137 -0.5102 -0.4277 -0.0342
  915MOL0     C23415   4.042   3.775   4.128  0.2866  0.0319  0.7154
  915MOL0     C23416   3.941   3.753   4.223  0.0023 -0.0042 -0.6392
  915MOL0     C23417   3.815   3.818   4.209 -0.3824 -0.0087  0.5915
  915MOL0     C23418   3.716   3.791   4.318 -0.2536  0.1787  0.0728
  915MOL0     C23419   3.786   3.894   4.095 -0.6469 -0.0059  0.7261
  915MOL0     C23420   3.654   3.957   4.072 -0.3505 -1.1301 -0.6291
  915MOL0     O23421   3.644   4.016   3.945 -0.1466  0.6841 -0.8503
  915MOL0     C23422   3.516   4.058   3.906  0.2245 -0.1397 -0.8908
  915MOL0     C23423   3.452   4.170   3.965  0.6447  0.6619  0.2267
  915MOL0     C23424   3.334   4.218   3.917  0.2718 -0.9347 -0.6491
  915MOL0     C23425   3.277   4.159   3.806  1.1053  0.5450 -0.4705
  915MOL0     O23426   3.148   4.214   3.773 -0.7269  0.5911 -0.5154
  915MOL0     C23427   3.061   4.153   3.676  0.6872 -0.3628  1.3654
  915MOL0     C23428   2.925   4.216   3.704 -0.6308  0.1688 -0.9056
  915MOL0     C23429   2.812   4.219   3.600 -0.0434  0.0242  0.1314
  915MOL0     C23430   2.763   4.077   3.560 -0.5706  0.8771  0.2314
  915MOL0     C23431   2.676   4.072   3.436  0.8341  0.0415  0.0535
  915MOL0     C23432   2.595   3.937   3.425  0.1541 -0.5158 -0.2560
  915MOL0     C23433   2.472   3.951   3.521  0.8861 -0.5250 -0.1077
  915MOL0     C23434   2.368   4.043   3.456 -1.0452 -0.3706  0.0134
  915MOL0    Cl23435   2.222   4.022   3.536 -0.0300 -0.0518 -0.1230
  915MOL0     C23436   3.333   4.047   3.747 -0.3652 -0.8728  0.4571
  915MOL0     C23437   3.453   4.004   3.790 -0.3462  1.3022 -0.2897
  915MOL0     O23438   3.567   3.955   4.160  0.0676 -0.6406  0.5470
  915MOL0     C23439   3.890   3.924   4.007 -0.3409  0.3998 -0.2665
  915MOL0     C23440   4.012   3.856   4.017 -0.1951 -0.3657  0.7002
  915MOL0     N23441   4.643   3.647   4.457  0.4134  0.2362  0.9132
  915MOL0     N23442   4.684   3.756   4.505  0.3558 -0.9964 -1.3329
  915MOL0     C23443   5.500   4.577   4.326  0.7144  0.1575 -0.9484
  915MOL0     C23444   5.631   4.621   4.345  0.5707 -0.0085 -0.2265
  915MOL0     C23445   6.075   4.639   4.490 -0.8551  0.6310  0.9639
  915MOL0     C23446   6.116   4.682   4.368  0.0607 -0.2536  0.0904
  915MOL0     C23447   6.248   4.715   4.334  0.2331  1.1160  0.2969
  915MOL0     C23448   6.336   4.722   4.444 -0.1575 -0.4616  0.1067
  915MOL0     O23449   6.456   4.785   4.440  0.6901  0.3433  0.2290
  915MOL0     C23450   6.506   4.845   4.315 -0.7746  0.5517 -0.2743
  915MOL0     C23451   6.642   4.778   4.269 -0.1801 -0.2903  0.3385
  915MOL0     C23452   6.637   4.625   4.250  0.2129 -0.0055  0.4159
  915MOL0     C23453   6.782   4.570   4.231  0.0247 -0.2514  0.6429
  915MOL0     C23454   6.783   4.428   4.211  0.9516  0.5241 -0.8456
  915MOL0     C23455   6.793   4.309   4.196 -0.5716  0.2883  0.6081
  915MOL0     C23456   6.297   4.678   4.572 -0.2699  0.5834  0.3551
  915MOL0     C23457   6.173   4.632   4.590 -0.4126 -0.0665  0.0476
  915MOL0     H23458   5.691   4.503   4.653  0.8773  1.3732 -0.7489
  915MOL0     H23459   5.475   4.448   4.649  0.7636  2.9304  1.3041
  915MOL0     H23460   5.212   4.596   4.547 -0.6125  0.2342 -0.5564
  915MOL0     H23461   5.264   4.662   4.391 -0.1028  0.4107 -1.1618
  915MOL0     H23462   5.008   4.630   4.415  0.8634 -0.5325  2.1064
  915MOL0     H23463   5.068   4.529   4.286 -0.2804  3.0664 -1.1851
  915MOL0     H23464   5.081   4.334   4.450  1.5034  1.4644 -0.9857
  915MOL0     H23465   4.999   4.438   4.569 -1.4819 -3.0369  0.1477
  915MOL0     H23466   4.799   4.468   4.419  0.2128  0.3990  0.2474
  915MOL0     H23467   4.875   4.349   4.310  1.7061 -0.5315  0.8766
  915MOL0     H23468   4.869   4.195   4.521 -1.3753 -0.0331  2.7895
  915MOL0     H23469   4.812   4.331   4.609  0.3364  1.8143 -0.7903
  915MOL0     H23470   4.599   4.280   4.534 -0.4554  1.1348 -0.5800
  915MOL0     H23471   4.655   4.266   4.367  0.1312 -1.4717 -0.3898
  915MOL0     H23472   4.630   4.045   4.572 -0.6544  0.0272  0.0826
  915MOL0     H23473   4.564   4.067   4.405 -0.2178 -1.2073 -0.0787
  915MOL0     H23474   4.843   3.981   4.478  1.0104 -4.1027 -1.1927
  915MOL0     H23475   4.789   4.015   4.310 -1.2378 -0.3251 -0.4913
  915MOL0     H23476   4.646   3.818   4.186  0.0715 -0.0780 -0.6236
  915MOL0     H23477   4.644   3.499   4.178  1.3795 -2.2955  0.8513
  915MOL0     H23478   4.548   3.462   4.308  1.6398 -0.1058  0.9434
  915MOL0     H23479   4.458   3.543   4.056  2.5105  1.1638 -0.5663
  915MOL0     H23480   4.461   3.701   4.131  0.6327  0.9252  0.3568
  915MOL0     H23481   4.305   3.602   4.314  1.9233  0.8072  0.4738
  915MOL0     H23482   4.317   3.444   4.228 -0.9003 -0.3240 -1.4325
  915MOL0     H23483   4.121   3.533   4.204 -0.4435  1.7309  2.4045
  915MOL0     H23484   4.188   3.544   4.035  4.4385 -0.8228  0.4367
  915MOL0     H23485   3.955   3.684   4.306 -4.0348 -0.0602  0.1953
  915MOL0     H23486   3.756   3.721   4.392  1.4848  0.8934 -0.1296
  915MOL0     H23487   3.703   3.884   4.373  0.7037  0.1911  0.2983
  915MOL0     H23488   3.624   3.748   4.276  0.3128 -0.5178 -0.4809
  915MOL0     H23489   3.496   4.221   4.050 -0.4839  1.4221  0.3820
  915MOL0     H23490   3.279   4.298   3.965  1.1186 -0.7655  0.0714
  915MOL0     H23491   3.100   4.163   3.574 -1.8526  1.5518  0.4847
  915MOL0     H23492   3.047   4.045   3.688  0.4836 -0.4660  0.3503
  915MOL0     H23493   2.883   4.172   3.795 -2.2575  0.8574 -1.2855
  915MOL0     H23494   2.943   4.322   3.724 -0.9541  0.2722 -1.1563
  915MOL0     H23495   2.844   4.279   3.514  0.6210  1.1970  1.1725
  915MOL0     H23496   2.725   4.260   3.652  0.9287  0.4218  1.4729
  915MOL0     H23497   2.840   3.999   3.552  0.1099  1.4402  1.1130
  915MOL0     H23498   2.697   4.041   3.640  2.0758 -1.2033  1.6322
  915MOL0     H23499   2.739   4.084   3.347  1.1684 -1.6460  0.0359
  915MOL0     H23500   2.598   4.148   3.445  0.0309 -0.7379 -0.1775
  915MOL0     H23501   2.552   3.927   3.325 -1.9108  3.7358 -0.0470
  915MOL0     H23502   2.656   3.850   3.446 -0.9207 -2.2404 -3.5278
  915MOL0     H23503   2.500   3.987   3.620 -0.7542  0.0607  0.1817
  915MOL0     H23504   2.426   3.852   3.535  0.6368 -0.1043  2.6087
  915MOL0     H23505   2.349   4.023   3.350 -0.2313  1.3698 -0.4945
  915MOL0     H23506   2.393   4.149   3.465 -2.6004 -0.0481  0.8736
  915MOL0     H23507   3.292   3.991   3.664 -1.2099 -0.4588  0.5704
  915MOL0     H23508   3.497   3.921   3.737  0.1292  0.5015  1.2978
  915MOL0     H23509   3.878   4.004   3.936 -2.7116  1.6566  1.4040
  915MOL0     H23510   4.093   3.872   3.946 -0.9853  1.6543  0.1820
  915MOL0     H23511   5.458   4.610   4.231 -0.2230  2.6762  0.2650
  915MOL0     H23512   5.678   4.670   4.260  1.7036  1.0027  0.9508
  915MOL0     H23513   6.042   4.690   4.289 -0.1442  0.2180  0.3187
  915MOL0     H23514   6.264   4.728   4.227 -0.6924  2.0628  0.2586
  915MOL0     H23515   6.429   4.836   4.238  0.3707  0.1239 -1.4208
  915MOL0     H23516   6.511   4.952   4.336 -0.9046  0.4185  0.4359
  915MOL0     H23517   6.711   4.792   4.352 -0.0900  2.5108 -0.1048
  915MOL0     H23518   6.675   4.840   4.185 -0.7194  0.8785  0.9624
  915MOL0     H23519   6.579   4.609   4.158 -1.5621  0.5688  1.3795
  915MOL0     H23520   6.596   4.580   4.341  1.2292  1.7987  1.8536
  915MOL0     H23521   6.848   4.597   4.313 -0.7052  3.1632  0.2359
  915MOL0     H23522   6.823   4.624   4.146 -1.4940  2.3741  1.4550
  915MOL0     H23523   6.770   4.207   4.171 -0.9377  0.3147  0.8293
  915MOL0     H23524   6.366   4.677   4.656 -2.0029  1.8425  1.8577
  915MOL0     H23525   6.136   4.589   4.682  0.0423 -1.4989 -0.4195
  916MOL0     O23526   4.390   8.391   3.331 -0.4787 -0.0663  0.2051
  916MOL0     C23527   4.456   8.485   3.372  0.3321 -1.0538  0.5560
  916MOL0     O23528   4.399   8.598   3.427 -0.0203 -0.5948 -0.1627
  916MOL0     C23529   4.273   8.607   3.485  0.1774 -0.3011 -0.6392
  916MOL0     C23530   4.190   8.506   3.509  0.1416 -0.2263  1.0647
  916MOL0     C23531   4.083   8.526   3.597  0.9533 -0.0099  1.0890
  916MOL0     C23532   4.046   8.656   3.641 -0.1072 -0.0394  0.1786
  916MOL0     O23533   3.940   8.671   3.727 -0.6993 -0.2272 -0.6145
  916MOL0     C23534   3.845   8.567   3.727  0.3564 -1.0034 -0.0197
  916MOL0     C23535   3.716   8.621   3.798 -0.3534  0.2286 -0.6649
  916MOL0     C23536   3.604   8.525   3.772 -0.4699 -0.1922 -0.2680
  916MOL0     C23537   3.477   8.562   3.857 -0.0988 -0.2754  0.2643
  916MOL0     C23538   3.357   8.480   3.794  1.2618 -0.2908 -0.7774
  916MOL0     C23539   3.299   8.561   3.673  0.5625  0.8282  0.5601
  916MOL0     C23540   3.167   8.495   3.630  0.7149 -0.0140  0.5305
  916MOL0     C23541   3.047   8.504   3.734 -0.3543  0.2961 -0.0212
  916MOL0     N23542   2.915   8.508   3.678 -0.3312  0.0318 -0.0457
  916MOL0     C23543   2.870   8.421   3.582 -1.2208 -0.5501 -0.1970
  916MOL0     C23544   2.733   8.437   3.585  0.2583 -0.1458 -0.1070
  916MOL0     C23545   2.632   8.370   3.484 -1.3113 -0.2356 -0.1673
  916MOL0     C23546   2.500   8.325   3.561 -1.2871 -0.2434  0.2525
  916MOL0     C23547   2.396   8.267   3.465  0.9700  0.3641  0.5911
  916MOL0     C23548   2.322   8.373   3.382 -0.1148  0.6231 -0.1488
  916MOL0     O23549   2.251   8.322   3.272  0.7859  0.0957 -0.1996
  916MOL0     C23550   2.131   8.380   3.240 -1.1464  0.0866 -0.3418
  916MOL0     C23551   2.115   8.447   3.121  0.8550 -0.2538  0.5523
  916MOL0     C23552   1.990   8.509   3.094  0.4193 -0.7815  1.1243
  916MOL0     C23553   1.993   8.571   2.950 -0.4733  0.1273  0.0194
  916MOL0     C23554   1.885   8.510   3.186  0.7784 -0.1642  1.0893
  916MOL0     C23555   1.753   8.573   3.155 -0.5271 -0.9754  0.0343
  916MOL0     O23556   1.644   8.500   3.200  0.0317  0.1915  0.7208
  916MOL0     C23557   1.525   8.555   3.170  0.1505  0.5154 -0.4095
  916MOL0     C23558   1.476   8.568   3.038 -0.4922 -0.9700  0.2843
  916MOL0     C23559   1.357   8.638   3.008  1.0069  0.1172  0.4865
  916MOL0     C23560   1.276   8.677   3.116  0.2664  0.6336 -0.0324
  916MOL0     O23561   1.153   8.734   3.100  0.5276 -0.4448  0.5021
  916MOL0     C23562   1.062   8.651   3.018 -1.2694 -0.5893  0.4473
  916MOL0     C23563   0.922   8.712   3.020  0.0426  0.6585  0.3046
  916MOL0     C23564   0.825   8.629   2.934 -0.6091  1.0492 -0.4038
  916MOL0     C23565   0.816   8.484   2.975 -0.1518  0.6289 -0.3250
  916MOL0     C23566   0.758   8.401   2.855  0.2516 -0.4791  0.2097
  916MOL0     C23567   0.715   8.257   2.873 -0.3326 -0.5565 -0.7863
  916MOL0     C23568   0.660   8.198   2.737  1.2376  0.7938 -0.9445
  916MOL0     C23569   0.555   8.075   2.744 -0.7231 -0.2882 -0.8220
  916MOL0    Cl23570   0.409   8.159   2.830  0.4089  0.4125  0.0181
  916MOL0     C23571   1.315   8.653   3.246 -0.3750 -0.0312  0.5817
  916MOL0     C23572   1.440   8.606   3.272 -0.0365 -0.4098 -0.3590
  916MOL0     O23573   1.755   8.692   3.129  0.6368  0.5204 -0.0390
  916MOL0     C23574   1.906   8.439   3.308  0.7308 -1.0581  0.1237
  916MOL0     C23575   2.025   8.374   3.330  0.0545  0.9335  1.2419
  916MOL0     N23576   2.698   8.536   3.674 -0.1864  0.4691  0.3059
  916MOL0     N23577   2.810   8.576   3.732 -0.1018  0.4869  0.3662
  916MOL0     C23578   4.127   8.763   3.610  0.2317  0.2410  0.4982
  916MOL0     C23579   4.237   8.735   3.529  0.2224 -0.5271  0.8487
  916MOL0     C23580   4.601   8.479   3.348 -0.0263 -0.0271 -1.0219
  916MOL0     C23581   4.660   8.367   3.281 -0.2842 -0.6040 -0.5134
  916MOL0     C23582   4.798   8.372   3.259  0.4792  0.5919 -0.5793
  916MOL0     C23583   4.883   8.464   3.317 -0.0944  0.0850  0.8192
  916MOL0     O23584   5.015   8.449   3.313  0.7916 -0.8309  0.1762
  916MOL0     C23585   5.082   8.408   3.196 -0.2873 -0.5857 -0.7819
  916MOL0     C23586   5.128   8.532   3.116  0.1477 -0.0893 -0.7415
  916MOL0     C23587   5.243   8.603   3.188 -0.9219 -0.7257  0.4240
  916MOL0     C23588   5.261   8.746   3.151  0.4116  0.6049 -0.2003
  916MOL0     C23589   5.285   8.779   3.016  0.2701 -0.9744 -0.4370
  916MOL0     C23590   5.314   8.811   2.900  0.3489  0.3873 -0.6007
  916MOL0     C23591   4.822   8.577   3.371  0.1250  1.1379 -0.2059
  916MOL0     C23592   4.686   8.580   3.397 -0.3506 -0.4278 -0.4253
  916MOL0     H23593   4.199   8.415   3.450 -1.0840  2.4650 -3.8654
  916MOL0     H23594   4.017   8.443   3.619 -2.3368  1.8341 -0.9852
  916MOL0     H23595   3.802   8.536   3.632 -0.5754  0.0158  0.0454
  916MOL0     H23596   3.888   8.475   3.768 -1.6033 -1.7012  0.5730
  916MOL0     H23597   3.741   8.616   3.905  0.8093 -1.5655 -0.9776
  916MOL0     H23598   3.688   8.723   3.770  0.2891  0.7552  0.5278
  916MOL0     H23599   3.591   8.541   3.665  1.8827  1.4181 -0.4010
  916MOL0     H23600   3.621   8.418   3.793 -0.1763  0.2284  1.9003
  916MOL0     H23601   3.484   8.523   3.959 -2.2120 -0.7654  0.2611
  916MOL0     H23602   3.451   8.668   3.860  0.3091 -0.1596 -0.2132
  916MOL0     H23603   3.381   8.375   3.772  1.2705 -0.3182 -0.6422
  916MOL0     H23604   3.283   8.482   3.875  2.9230 -1.2520  0.8451
  916MOL0     H23605   3.276   8.663   3.704 -2.1530  0.1259  1.1003
  916MOL0     H23606   3.374   8.561   3.593  0.3711  2.1116  0.3683
  916MOL0     H23607   3.133   8.551   3.542  1.1920  4.2108  2.7641
  916MOL0     H23608   3.183   8.391   3.601  2.1602  0.9888 -2.6603
  916MOL0     H23609   3.060   8.591   3.799  0.0386 -0.6312  1.1674
  916MOL0     H23610   3.063   8.425   3.807  0.7207 -0.2523 -0.8249
  916MOL0     H23611   2.922   8.347   3.520 -1.8070  1.8206 -3.8335
  916MOL0     H23612   2.602   8.444   3.409 -3.1581  0.1424  0.8921
  916MOL0     H23613   2.672   8.279   3.438 -1.8343 -0.0616 -0.9744
  916MOL0     H23614   2.463   8.411   3.618  1.2989 -0.2271  2.1021
  916MOL0     H23615   2.512   8.250   3.640 -2.7965 -0.0871  0.6662
  916MOL0     H23616   2.323   8.205   3.517 -1.0574  0.1334 -2.2807
  916MOL0     H23617   2.451   8.198   3.401  1.1737 -1.1588  2.3169
  916MOL0     H23618   2.394   8.447   3.346  0.8329  0.5101  1.4313
  916MOL0     H23619   2.263   8.447   3.438  2.7387  2.1782  1.0068
  916MOL0     H23620   2.198   8.445   3.053  0.3726 -2.3099 -0.0312
  916MOL0     H23621   1.928   8.658   2.933 -0.0632  1.0207  2.5897
  916MOL0     H23622   2.095   8.608   2.943 -0.7064  0.5672 -1.1741
  916MOL0     H23623   1.974   8.492   2.877  0.7273  1.2010 -1.5000
  916MOL0     H23624   1.539   8.529   2.959  0.5731 -0.4475  0.8498
  916MOL0     H23625   1.328   8.657   2.905 -1.7199  2.5025  1.5873
  916MOL0     H23626   1.101   8.644   2.917  0.5127 -1.2317  1.1410
  916MOL0     H23627   1.066   8.550   3.059  0.9505 -0.7863 -0.1348
  916MOL0     H23628   0.876   8.725   3.118 -3.5887 -0.2082 -1.1246
  916MOL0     H23629   0.938   8.808   2.970  1.4237  0.9524  1.2607
  916MOL0     H23630   0.861   8.627   2.831  3.9300 -0.6988  0.9770
  916MOL0     H23631   0.726   8.677   2.930 -1.7782 -1.3228 -2.2755
  916MOL0     H23632   0.910   8.429   2.984  0.2826  1.6606  2.1989
  916MOL0     H23633   0.762   8.476   3.070 -2.0906  2.5451 -1.1712
  916MOL0     H23634   0.826   8.410   2.769  0.3660 -1.1365  0.2287
  916MOL0     H23635   0.668   8.458   2.831  0.5811  1.3178  2.8712
  916MOL0     H23636   0.802   8.202   2.911  0.7031 -0.0929 -2.3979
  916MOL0     H23637   0.633   8.257   2.946 -1.1592 -2.2003 -1.6393
  916MOL0     H23638   0.746   8.177   2.673  3.4434  2.7349  1.1401
  916MOL0     H23639   0.613   8.283   2.687 -1.2874 -1.3074 -2.4023
  916MOL0     H23640   0.604   7.992   2.795  0.6268  0.7232 -0.3832
  916MOL0     H23641   0.521   8.042   2.646 -0.1068  1.8056 -1.8166
  916MOL0     H23642   1.239   8.665   3.323 -0.7852  1.5828 -0.0464
  916MOL0     H23643   1.481   8.599   3.373 -0.8830 -0.3779 -0.0042
  916MOL0     H23644   1.827   8.432   3.382 -1.2406  1.6887 -1.5090
  916MOL0     H23645   2.027   8.302   3.411 -2.1237  0.1267  0.6554
  916MOL0     H23646   4.110   8.864   3.644  2.4033  0.7111  0.3586
  916MOL0     H23647   4.303   8.819   3.509  1.6484 -2.0323 -1.2901
  916MOL0     H23648   4.591   8.289   3.250  0.2450 -0.8077 -1.2000
  916MOL0     H23649   4.837   8.281   3.213  1.6518 -0.2550  1.8852
  916MOL0     H23650   5.167   8.341   3.212  0.1786  0.0797 -0.3945
  916MOL0     H23651   5.019   8.345   3.133 -0.8575  0.1684 -0.9770
  916MOL0     H23652   5.047   8.600   3.088  1.1293  0.6675 -1.8491
  916MOL0     H23653   5.162   8.473   3.030 -1.8074 -2.4434 -0.0151
  916MOL0     H23654   5.334   8.547   3.164 -1.5151 -0.9101 -1.5639
  916MOL0     H23655   5.237   8.604   3.297  4.2220 -0.4392  0.9461
  916MOL0     H23656   5.347   8.782   3.208  1.3529  1.4345 -2.0490
  916MOL0     H23657   5.167   8.794   3.178 -0.2026 -0.3655 -0.5487
  916MOL0     H23658   5.329   8.839   2.798 -3.3156 -2.2395 -2.1160
  916MOL0     H23659   4.885   8.652   3.417 -1.2433  1.4638  1.2237
  916MOL0     H23660   4.646   8.664   3.451  1.2059 -0.0987  0.2812
  917MOL0     O23661   6.289   5.843   0.718  0.8985 -0.8149 -0.1317
  917MOL0     C23662   6.258   5.958   0.750  0.1011 -0.4581 -1.3230
  917MOL0     O23663   6.132   6.004   0.789 -0.4420  0.9123 -0.1103
  917MOL0     C23664   6.026   5.915   0.786 -0.2246  0.3000  0.1551
  917MOL0     C23665   5.993   5.833   0.671  0.4726 -0.2240 -0.3664
  917MOL0     C23666   5.880   5.751   0.661 -0.3740 -0.8298  0.0561
  917MOL0     C23667   5.788   5.756   0.767 -0.0451 -0.8361  1.6981
  917MOL0     O23668   5.682   5.679   0.750  0.3551  0.2307 -0.4632
  917MOL0     C23669   5.630   5.606   0.863 -0.3406 -0.3817  0.0780
  917MOL0     C23670   5.497   5.551   0.819  0.5747  0.1122 -1.2573
  917MOL0     C23671   5.395   5.661   0.774 -0.6813 -0.1951  0.5123
  917MOL0     C23672   5.263   5.600   0.748  0.4339 -0.9407  0.9743
  917MOL0     C23673   5.151   5.708   0.730 -0.0007  0.2559 -0.5205
  917MOL0     C23674   5.094   5.770   0.852 -0.4626  0.6051  0.0487
  917MOL0     C23675   5.003   5.895   0.818  0.7361  1.1231  0.0007
  917MOL0     C23676   4.853   5.844   0.826 -0.0836  0.1196  0.2029
  917MOL0     N23677   4.757   5.955   0.818 -0.9840  0.3984  0.0196
  917MOL0     C23678   4.750   6.023   0.697 -0.6103 -0.2010 -0.3009
  917MOL0     C23679   4.677   6.130   0.728  0.0578 -0.2086 -0.4276
  917MOL0     C23680   4.638   6.243   0.638  0.7751  0.2751  1.2638
  917MOL0     C23681   4.504   6.217   0.562 -0.2422 -0.2289 -0.0528
  917MOL0     C23682   4.380   6.224   0.657 -0.3788 -0.1634 -0.7194
  917MOL0     C23683   4.266   6.293   0.598  0.1031 -1.0495 -0.2147
  917MOL0     O23684   4.143   6.298   0.676  0.9670 -0.0539 -0.2597
  917MOL0     C23685   4.045   6.384   0.655 -0.5636 -0.2996  0.2612
  917MOL0     C23686   4.033   6.475   0.548 -0.1389  0.0757 -0.3880
  917MOL0     C23687   3.929   6.573   0.548  0.9171 -0.0347  0.0436
  917MOL0     C23688   3.925   6.679   0.439 -0.7428 -0.4650 -0.8684
  917MOL0     C23689   3.832   6.579   0.656  0.3449  0.0436  0.7954
  917MOL0     C23690   3.724   6.684   0.668  0.2531  1.1284  0.4088
  917MOL0     O23691   3.619   6.657   0.757 -0.2675 -0.2344 -0.4425
  917MOL0     C23692   3.513   6.748   0.763 -0.3643  0.2047 -0.5422
  917MOL0     C23693   3.409   6.731   0.673  0.5382 -0.4914 -0.7395
  917MOL0     C23694   3.296   6.821   0.680 -0.2691 -0.2595 -0.4247
  917MOL0     C23695   3.295   6.925   0.771 -0.1204  0.0383  0.7368
  917MOL0     O23696   3.187   7.016   0.762 -0.0705  0.2674 -0.2818
  917MOL0     C23697   3.159   7.098   0.874 -0.2295  0.2699  0.1708
  917MOL0     C23698   3.044   7.203   0.848  0.3127 -0.7939 -0.1234
  917MOL0     C23699   2.900   7.138   0.844 -0.5759  0.3744  0.1324
  917MOL0     C23700   2.793   7.247   0.844  0.3151 -0.2683 -0.7034
  917MOL0     C23701   2.646   7.189   0.840 -0.2268 -0.7361  0.2271
  917MOL0     C23702   2.606   7.149   0.981  0.2482 -0.3094  0.1098
  917MOL0     C23703   2.454   7.147   1.000 -1.2367  0.8939 -0.2030
  917MOL0     C23704   2.423   7.134   1.144 -0.0980 -0.1761 -0.2114
  917MOL0    Cl23705   2.493   6.993   1.245 -0.0511  0.1173 -0.0680
  917MOL0     C23706   3.405   6.929   0.867 -0.4778  0.6199  0.5537
  917MOL0     C23707   3.510   6.838   0.857  0.3739  0.1223 -0.6221
  917MOL0     O23708   3.735   6.786   0.600 -0.2889 -1.1435  0.1125
  917MOL0     C23709   3.841   6.474   0.756 -0.0518 -0.5354  0.9092
  917MOL0     C23710   3.944   6.378   0.752  0.0213  0.1296 -0.2169
  917MOL0     N23711   4.646   6.128   0.862  0.0210 -0.1820 -0.0438
  917MOL0     N23712   4.688   6.019   0.915  0.0032  0.2070 -0.3670
  917MOL0     C23713   5.825   5.825   0.885  0.0812  0.4731 -0.3778
  917MOL0     C23714   5.942   5.908   0.893 -0.4224  0.4771 -1.0447
  917MOL0     C23715   6.366   6.054   0.753 -0.1502  0.5654  0.5246
  917MOL0     C23716   6.501   6.015   0.723  0.3281 -0.2366  0.7403
  917MOL0     C23717   6.603   6.111   0.707 -0.1721  0.7290 -0.9052
  917MOL0     C23718   6.576   6.246   0.728  0.5760 -0.1853  0.9753
  917MOL0     O23719   6.681   6.342   0.703  0.2039 -0.3966  0.1247
  917MOL0     C23720   6.687   6.421   0.578 -0.6652  0.3097 -0.1320
  917MOL0     C23721   6.590   6.529   0.562 -0.3861 -0.0137  0.2763
  917MOL0     C23722   6.590   6.614   0.691  0.9265  0.0985  1.4657
  917MOL0     C23723   6.514   6.752   0.675  0.0574 -0.0538 -0.1528
  917MOL0     C23724   6.372   6.723   0.653  0.1045 -0.6566  0.8934
  917MOL0     C23725   6.263   6.679   0.630  0.8423  0.0067  0.0743
  917MOL0     C23726   6.446   6.287   0.739  0.4298 -0.6053  0.5459
  917MOL0     C23727   6.340   6.192   0.753 -0.2940 -0.6109 -1.2245
  917MOL0     H23728   6.065   5.838   0.589  1.0475 -0.1247  0.1369
  917MOL0     H23729   5.861   5.699   0.568  1.1366  1.8209 -1.8679
  917MOL0     H23730   5.694   5.524   0.898 -1.3265 -0.3692  2.0876
  917MOL0     H23731   5.614   5.674   0.948  0.0848  1.9095 -1.5667
  917MOL0     H23732   5.527   5.487   0.735 -0.7803 -0.6453 -1.1936
  917MOL0     H23733   5.454   5.491   0.900 -2.0140  0.6025 -2.1825
  917MOL0     H23734   5.399   5.729   0.860  2.8640  0.0327  0.3057
  917MOL0     H23735   5.432   5.721   0.689  2.2620  0.0806  1.8583
  917MOL0     H23736   5.254   5.535   0.661 -3.6537 -1.2900  1.4217
  917MOL0     H23737   5.242   5.520   0.820  1.2366 -3.8775 -1.8114
  917MOL0     H23738   5.184   5.792   0.668  2.0676 -1.0712 -1.3273
  917MOL0     H23739   5.072   5.661   0.670  0.0252  1.4135 -1.4947
  917MOL0     H23740   5.043   5.696   0.914  0.4003  0.6319  0.8131
  917MOL0     H23741   5.181   5.795   0.913  0.5374 -3.2992  0.4974
  917MOL0     H23742   5.019   5.973   0.893  4.6195 -0.7780  1.4072
  917MOL0     H23743   5.030   5.929   0.717  2.0411 -3.3639 -1.4087
  917MOL0     H23744   4.846   5.779   0.914  1.1878 -1.2246 -0.6461
  917MOL0     H23745   4.829   5.781   0.740 -2.9707  0.5777  0.5685
  917MOL0     H23746   4.789   6.003   0.597 -0.7957  1.9931 -0.8738
  917MOL0     H23747   4.615   6.330   0.700  0.2275  0.9898  0.0872
  917MOL0     H23748   4.716   6.283   0.573  0.1673  1.8440  1.4413
  917MOL0     H23749   4.506   6.122   0.508 -0.5510 -0.4843  0.3811
  917MOL0     H23750   4.484   6.295   0.488 -0.2044  1.2338  1.4278
  917MOL0     H23751   4.397   6.286   0.745  1.6853  0.2569 -1.3653
  917MOL0     H23752   4.348   6.126   0.696  1.4625 -1.7657 -2.9478
  917MOL0     H23753   4.258   6.260   0.494  1.9052  1.7951 -1.3917
  917MOL0     H23754   4.290   6.398   0.577  3.5667 -1.4745  0.9560
  917MOL0     H23755   4.122   6.470   0.487 -0.1564 -0.8744 -0.3480
  917MOL0     H23756   3.934   6.780   0.481  0.1015 -0.0967 -1.8746
  917MOL0     H23757   4.021   6.676   0.385 -0.1827 -0.6372  0.1234
  917MOL0     H23758   3.854   6.675   0.355  1.4513 -2.1505 -2.8006
  917MOL0     H23759   3.408   6.639   0.615  0.3235 -2.0444  1.5945
  917MOL0     H23760   3.202   6.807   0.628 -1.4576  1.8265  1.0011
  917MOL0     H23761   3.125   7.032   0.954  0.6727  1.2575  1.3967
  917MOL0     H23762   3.254   7.136   0.912 -0.2556 -0.2253  0.7291
  917MOL0     H23763   3.032   7.281   0.924 -4.7166  1.0614 -2.3622
  917MOL0     H23764   3.060   7.248   0.750  0.5529  1.1473  0.7665
  917MOL0     H23765   2.890   7.066   0.925 -1.2700  1.4563  1.0400
  917MOL0     H23766   2.908   7.081   0.751  0.1762  2.4512 -1.1354
  917MOL0     H23767   2.802   7.317   0.927 -0.9471  2.3738 -2.6689
  917MOL0     H23768   2.809   7.311   0.757 -0.4450  1.0111  0.0731
  917MOL0     H23769   2.659   7.101   0.777  4.2415  0.5316 -1.0481
  917MOL0     H23770   2.581   7.264   0.795 -0.3257 -1.0883 -0.2233
  917MOL0     H23771   2.658   7.056   1.004 -1.0606 -0.8372  1.0742
  917MOL0     H23772   2.647   7.220   1.052  3.4265 -0.2440 -1.6188
  917MOL0     H23773   2.423   7.061   0.939  2.7126  0.9707 -2.6135
  917MOL0     H23774   2.403   7.239   0.969 -2.1538  1.8317  3.5034
  917MOL0     H23775   2.315   7.119   1.139 -0.1780  0.7179 -2.6246
  917MOL0     H23776   2.445   7.230   1.193  0.0531 -0.1567 -0.3152
  917MOL0     H23777   3.408   7.001   0.948  4.2623 -3.4143  4.6309
  917MOL0     H23778   3.591   6.846   0.928 -1.0599 -0.5118  1.1730
  917MOL0     H23779   3.771   6.476   0.839 -2.3438  2.1471 -0.9346
  917MOL0     H23780   3.956   6.303   0.830  0.4629  1.0579  0.6355
  917MOL0     H23781   5.760   5.817   0.972 -2.6358 -0.8236 -2.3858
  917MOL0     H23782   5.965   5.965   0.982 -0.7823  0.6610 -1.0674
  917MOL0     H23783   6.526   5.912   0.702 -2.9061 -1.2664  1.3719
  917MOL0     H23784   6.703   6.075   0.682 -0.0444  0.1882  0.2726
  917MOL0     H23785   6.788   6.460   0.568 -1.2322  1.7755 -0.3734
  917MOL0     H23786   6.679   6.351   0.494 -1.2159  1.4124 -1.0174
  917MOL0     H23787   6.489   6.494   0.538 -0.0465  0.2379 -1.7532
  917MOL0     H23788   6.628   6.586   0.476  0.0962 -0.3152  0.2794
  917MOL0     H23789   6.695   6.642   0.711  1.2252  0.7789 -0.7687
  917MOL0     H23790   6.549   6.554   0.772 -1.9297 -1.7461 -1.1805
  917MOL0     H23791   6.561   6.804   0.591 -0.0363  0.2928  0.0088
  917MOL0     H23792   6.528   6.813   0.764 -2.6323 -2.1068  1.8527
  917MOL0     H23793   6.161   6.649   0.623 -0.0617  2.4331  1.6738
  917MOL0     H23794   6.410   6.389   0.740  1.7948 -0.0911 -0.6738
  917MOL0     H23795   6.244   6.242   0.757  1.7205  3.7042 -1.5731
  918MOL0     O23796  10.636   9.548   8.439  0.1894  0.2253 -0.4722
  918MOL0     C23797  10.670   9.664   8.461  1.0699  0.4689 -0.6020
  918MOL0     O23798  10.583   9.758   8.499  0.3733 -0.4102  0.1230
  918MOL0     C23799  10.449   9.727   8.522  0.3145  0.3456  0.8655
  918MOL0     C23800  10.405   9.672   8.646  0.3422 -0.1156  0.5608
  918MOL0     C23801  10.268   9.652   8.678 -0.3453 -0.3029 -0.5229
  918MOL0     C23802  10.176   9.699   8.584 -0.9051 -0.5463 -0.3310
  918MOL0     O23803  10.043   9.693   8.608  0.9854 -0.1849 -0.1197
  918MOL0     C23804   9.976   9.616   8.710 -0.5550 -0.2770  0.6687
  918MOL0     C23805   9.832   9.591   8.679 -0.5696  0.2791  0.6407
  918MOL0     C23806   9.806   9.448   8.620 -0.7447 -0.4155  1.0989
  918MOL0     C23807   9.689   9.440   8.524  0.2661 -0.1789  0.5792
  918MOL0     C23808   9.558   9.441   8.603  0.0687 -0.4578  0.1292
  918MOL0     C23809   9.524   9.306   8.662  0.1537  0.2656 -0.4609
  918MOL0     C23810   9.390   9.302   8.741 -0.1491  0.7708  0.2749
  918MOL0     C23811   9.278   9.340   8.642  0.1688  0.4692  0.2305
  918MOL0     N23812   9.152   9.276   8.677  0.2467 -0.3352  0.3486
  918MOL0     C23813   9.137   9.143   8.685  0.2467  0.7717 -0.1900
  918MOL0     C23814   9.007   9.122   8.727 -0.1331  0.8665  0.0651
  918MOL0     C23815   8.956   8.988   8.760 -0.1539  0.8863 -0.1362
  918MOL0     C23816   8.878   8.910   8.647 -0.2175  0.0611  0.9398
  918MOL0     C23817   8.738   8.956   8.619  0.1406  0.6523 -0.5241
  918MOL0     C23818   8.629   8.905   8.722  0.3617 -0.6291 -0.0180
  918MOL0     O23819   8.490   8.952   8.691 -0.5458  0.3651 -0.0796
  918MOL0     C23820   8.442   9.074   8.721 -0.0578 -0.9752  0.7116
  918MOL0     C23821   8.518   9.182   8.761  0.2735  0.3760  0.1950
  918MOL0     C23822   8.449   9.304   8.775 -0.2025  0.3045  0.2450
  918MOL0     C23823   8.526   9.416   8.845  0.1363 -0.3038  0.2628
  918MOL0     C23824   8.311   9.311   8.748  0.7202 -0.1648 -1.1086
  918MOL0     C23825   8.225   9.431   8.762  0.3728 -0.0334 -0.0635
  918MOL0     O23826   8.092   9.406   8.771 -0.0056 -0.2325  0.0159
  918MOL0     C23827   8.002   9.501   8.814 -0.5490 -0.3714  0.6538
  918MOL0     C23828   7.867   9.473   8.782 -0.0832 -0.6773 -0.5259
  918MOL0     C23829   7.767   9.544   8.855  0.8860  1.1739  0.0201
  918MOL0     C23830   7.795   9.655   8.933  0.1620  0.1210 -1.0146
  918MOL0     O23831   7.681   9.723   8.979 -0.5844 -0.4934  0.4152
  918MOL0     C23832   7.712   9.825   9.073 -0.1330  0.0886  0.2277
  918MOL0     C23833   7.575   9.888   9.114 -0.7079 -0.7297  0.6271
  918MOL0     C23834   7.532   9.981   8.999 -0.7046 -0.0513 -0.5156
  918MOL0     C23835   7.406  10.048   9.049 -0.3758  0.2653 -0.7665
  918MOL0     C23836   7.351  10.142   8.942  0.4170  1.1143  0.0949
  918MOL0     C23837   7.231  10.226   8.970  0.5836 -0.6002 -1.0908
  918MOL0     C23838   7.105  10.151   9.000 -0.1256 -0.5612  0.7807
  918MOL0     C23839   7.000  10.249   9.053 -0.2959  0.0511 -0.3315
  918MOL0    Cl23840   7.057  10.330   9.204  0.1467 -0.2448 -0.1219
  918MOL0     C23841   7.931   9.693   8.950 -0.0108 -0.7810 -0.3002
  918MOL0     C23842   8.032   9.617   8.886 -0.4085 -0.7729 -0.7682
  918MOL0     O23843   8.271   9.542   8.727 -0.0850 -0.8408 -0.1086
  918MOL0     C23844   8.245   9.206   8.693 -0.8476 -0.0632  0.4571
  918MOL0     C23845   8.304   9.088   8.680  1.2759 -0.3542 -0.3271
  918MOL0     N23846   8.941   9.243   8.727  0.3730  0.5515  0.3398
  918MOL0     N23847   9.026   9.339   8.693 -0.0781  0.0059  0.2134
  918MOL0     C23848  10.222   9.764   8.466  0.5567 -0.6495 -0.1781
  918MOL0     C23849  10.355   9.774   8.432 -0.1788 -0.1000 -0.6155
  918MOL0     C23850  10.812   9.692   8.474  0.4607 -0.1197  0.0589
  918MOL0     C23851  10.910   9.621   8.405 -0.5666 -0.3191 -0.4231
  918MOL0     C23852  11.044   9.634   8.428 -0.1712 -0.0894  0.1651
  918MOL0     C23853  11.093   9.724   8.523  0.1256  0.6517  0.5929
  918MOL0     O23854  11.227   9.738   8.529 -0.1714  0.1465 -0.5469
  918MOL0     C23855  11.278   9.853   8.598  0.1859 -0.4723  0.2693
  918MOL0     C23856  11.413   9.895   8.545  0.9556 -0.3403  0.5535
  918MOL0     C23857  11.417   9.893   8.393 -0.8073  0.3813 -0.3962
  918MOL0     C23858  11.558   9.926   8.340 -0.0324  0.0358 -0.0284
  918MOL0     C23859  11.650   9.811   8.374 -0.2906 -0.8046  0.4857
  918MOL0     C23860  11.753   9.742   8.379 -0.0028 -0.8630 -0.7206
  918MOL0     C23861  10.995   9.797   8.604 -0.8748  0.4894 -0.2879
  918MOL0     C23862  10.856   9.770   8.580  0.4556  0.3915  0.8596
  918MOL0     H23863  10.483   9.629   8.709  1.1762  1.8327  0.9379
  918MOL0     H23864  10.230   9.600   8.765 -2.2261  1.6284 -0.1041
  918MOL0     H23865  10.030   9.521   8.714 -1.6258 -1.0295 -1.4389
  918MOL0     H23866   9.987   9.668   8.806  2.8736 -1.3939  1.0246
  918MOL0     H23867   9.787   9.602   8.778 -1.9074 -1.7294  0.3143
  918MOL0     H23868   9.792   9.670   8.614  0.8809  2.1796  1.9399
  918MOL0     H23869   9.899   9.420   8.569  1.3177  1.9767  3.2295
  918MOL0     H23870   9.810   9.375   8.701  1.9809 -1.0320  0.5216
  918MOL0     H23871   9.700   9.521   8.452  6.0687 -0.5086  0.6688
  918MOL0     H23872   9.687   9.356   8.454 -0.0039 -0.3885  0.8297
  918MOL0     H23873   9.563   9.518   8.680  0.9787 -0.6090  0.2368
  918MOL0     H23874   9.480   9.479   8.537  2.8485  2.6677 -1.6511
  918MOL0     H23875   9.514   9.231   8.584 -1.9716  0.2553 -0.2212
  918MOL0     H23876   9.609   9.259   8.713  0.2177 -1.8285 -2.3952
  918MOL0     H23877   9.370   9.199   8.772 -1.6411  1.2738  1.0965
  918MOL0     H23878   9.381   9.378   8.820  0.0920  1.1173 -0.0284
  918MOL0     H23879   9.292   9.318   8.535  1.8121  0.9603  0.3173
  918MOL0     H23880   9.273   9.449   8.651  1.9961  0.7706 -1.5293
  918MOL0     H23881   9.210   9.065   8.665  0.3329  0.6864  0.4201
  918MOL0     H23882   9.036   8.918   8.783 -0.1515  0.6232 -0.8989
  918MOL0     H23883   8.904   8.989   8.856  1.7381  0.0343  0.9453
  918MOL0     H23884   8.871   8.805   8.677  2.7257 -1.5956 -3.2771
  918MOL0     H23885   8.927   8.904   8.549 -1.7575 -0.3618  0.1649
  918MOL0     H23886   8.720   8.910   8.521  1.1529 -0.7665 -0.0596
  918MOL0     H23887   8.739   9.065   8.612  0.2994  0.8376  1.7259
  918MOL0     H23888   8.665   8.960   8.809  1.5685  1.2395 -1.6169
  918MOL0     H23889   8.636   8.796   8.734  0.9909 -0.3163  3.1934
  918MOL0     H23890   8.624   9.182   8.786  0.6472  1.5743 -1.2536
  918MOL0     H23891   8.518   9.514   8.797 -2.5311 -0.4683  0.2737
  918MOL0     H23892   8.500   9.427   8.950  0.6839  1.7058  0.2296
  918MOL0     H23893   8.629   9.382   8.827 -0.4124 -1.1942 -1.4130
  918MOL0     H23894   7.851   9.391   8.713  2.6221  1.3253 -3.8441
  918MOL0     H23895   7.664   9.515   8.840  1.8982 -2.0762 -1.4828
  918MOL0     H23896   7.765   9.780   9.158 -0.3372  2.4115  1.6695
  918MOL0     H23897   7.773   9.903   9.027 -2.6482  2.6257  0.8727
  918MOL0     H23898   7.502   9.808   9.116 -2.8456  1.0064 -1.6546
  918MOL0     H23899   7.580   9.946   9.207 -1.0224 -2.6769  1.9017
  918MOL0     H23900   7.510   9.923   8.909  0.1126  2.8966 -2.7561
  918MOL0     H23901   7.602  10.052   8.954  0.9901 -0.7787  0.8338
  918MOL0     H23902   7.329   9.975   9.076  0.3016 -0.6629 -1.2432
  918MOL0     H23903   7.436  10.101   9.139 -1.1515  0.5875 -0.6908
  918MOL0     H23904   7.329  10.081   8.855  0.3827  0.8369  0.2983
  918MOL0     H23905   7.436  10.207   8.920  0.3465  0.8725 -0.8972
  918MOL0     H23906   7.254  10.294   9.052 -1.4823  0.1691 -1.1025
  918MOL0     H23907   7.223  10.289   8.881  0.2188  0.6082 -0.2246
  918MOL0     H23908   7.112  10.071   9.075 -1.6523 -1.4317  0.0459
  918MOL0     H23909   7.067  10.101   8.910  0.2686 -1.3397  1.0327
  918MOL0     H23910   6.906  10.199   9.080 -1.3477  1.7554 -0.6491
  918MOL0     H23911   6.973  10.321   8.975  1.2223  1.4711  0.3998
  918MOL0     H23912   7.963   9.775   9.014  1.1035 -0.9205 -0.6537
  918MOL0     H23913   8.138   9.637   8.895 -0.8685  1.4071  0.9622
  918MOL0     H23914   8.144   9.209   8.654  0.9391 -0.5016 -5.1319
  918MOL0     H23915   8.261   9.009   8.618  0.0730  0.7097 -0.8924
  918MOL0     H23916  10.136   9.791   8.405 -1.6364 -2.6708  1.8150
  918MOL0     H23917  10.393   9.837   8.352  0.6963  2.6338  1.7840
  918MOL0     H23918  10.874   9.542   8.339 -1.9509 -0.1267  0.0603
  918MOL0     H23919  11.114   9.573   8.372  0.7708  0.3416  0.8539
  918MOL0     H23920  11.212   9.940   8.587 -2.6363 -1.9928  3.2326
  918MOL0     H23921  11.274   9.830   8.705 -5.3312  1.4148  0.8217
  918MOL0     H23922  11.494   9.829   8.578  3.9382  2.5255 -0.5461
  918MOL0     H23923  11.419   9.997   8.585 -1.9975 -0.3619  1.2742
  918MOL0     H23924  11.338   9.954   8.350 -0.2691  2.2530  1.1173
  918MOL0     H23925  11.404   9.789   8.360  1.5970 -0.6434  1.4938
  918MOL0     H23926  11.587  10.024   8.379 -2.3365  1.5960 -1.9166
  918MOL0     H23927  11.551   9.936   8.231  0.5094 -1.2185 -0.2016
  918MOL0     H23928  11.841   9.682   8.390  0.6484 -0.1412 -1.7721
  918MOL0     H23929  11.041   9.839   8.693  1.8558 -1.0193 -0.8711
  918MOL0     H23930  10.787   9.822   8.645  0.1223 -0.7788  1.4821
  919MOL0     O23931   8.280   4.739   2.015 -0.0482  0.9566 -1.1429
  919MOL0     C23932   8.280   4.641   1.947  0.3267  0.6977  0.4427
  919MOL0     O23933   8.183   4.603   1.853  0.0311 -0.4287 -0.7099
  919MOL0     C23934   8.066   4.688   1.843  0.5718 -0.7890  0.7812
  919MOL0     C23935   8.096   4.805   1.760  0.8359  1.0407  0.2922
  919MOL0     C23936   7.994   4.899   1.746 -0.5962 -0.7671  1.2629
  919MOL0     C23937   7.869   4.884   1.811 -0.3319  0.1263 -0.1729
  919MOL0     O23938   7.774   4.982   1.814 -0.3958  0.0124  0.5712
  919MOL0     C23939   7.776   5.090   1.721  0.2110 -0.4753  0.8020
  919MOL0     C23940   7.641   5.170   1.736  0.2995  0.5196 -0.2401
  919MOL0     C23941   7.529   5.063   1.730 -0.7530 -0.9970 -0.2676
  919MOL0     C23942   7.398   5.127   1.695  0.2802  0.4255  0.2259
  919MOL0     C23943   7.274   5.049   1.728  0.6852  0.3354 -0.7132
  919MOL0     C23944   7.144   5.118   1.694 -0.2436 -0.3705 -0.0599
  919MOL0     C23945   7.020   5.050   1.753 -0.8739 -1.2962 -0.5574
  919MOL0     C23946   6.943   4.981   1.646  0.6853  1.1386 -0.6458
  919MOL0     N23947   6.809   4.926   1.692  0.1969 -0.6296 -0.6202
  919MOL0     C23948   6.682   4.939   1.633  0.4611  0.4195 -0.3240
  919MOL0     C23949   6.600   4.855   1.706  0.7563 -0.3079 -1.0474
  919MOL0     C23950   6.463   4.811   1.654 -0.4424 -0.1951  0.1871
  919MOL0     C23951   6.360   4.852   1.755  0.8266 -0.6475 -0.6215
  919MOL0     C23952   6.214   4.798   1.710  0.4730 -0.4219 -0.5603
  919MOL0     C23953   6.130   4.745   1.830 -0.4198  0.8795 -0.0983
  919MOL0     O23954   6.181   4.615   1.876  0.0899 -0.7559  0.0430
  919MOL0     C23955   6.142   4.568   1.996  0.4760 -0.0279 -0.3649
  919MOL0     C23956   6.186   4.440   2.030  0.1161 -0.2994 -0.5955
  919MOL0     C23957   6.149   4.366   2.142 -0.0296  0.4701  0.3355
  919MOL0     C23958   6.224   4.241   2.174  0.3722  0.1203  0.2254
  919MOL0     C23959   6.060   4.424   2.232 -0.5458 -0.1508  0.9912
  919MOL0     C23960   6.022   4.373   2.364 -0.7779 -0.5664 -0.7060
  919MOL0     O23961   5.899   4.418   2.423 -0.6482 -0.4531  0.5128
  919MOL0     C23962   5.892   4.413   2.558  0.0859 -0.4043  0.5637
  919MOL0     C23963   5.797   4.339   2.629 -0.4417  0.0161  0.9280
  919MOL0     C23964   5.790   4.357   2.766 -0.2822 -0.3159  0.4202
  919MOL0     C23965   5.886   4.434   2.840 -0.2378 -0.8821 -0.1283
  919MOL0     O23966   5.872   4.443   2.982 -0.6311  0.7509 -0.0300
  919MOL0     C23967   5.933   4.549   3.056  0.7962 -0.2161  0.1635
  919MOL0     C23968   5.863   4.681   3.053  0.2513  0.8968  0.1352
  919MOL0     C23969   5.917   4.785   2.964 -0.9813 -0.0063  0.3073
  919MOL0     C23970   6.044   4.860   3.008  0.0584 -1.1918 -0.4314
  919MOL0     C23971   6.066   4.966   2.895  0.1111  0.2534 -0.5639
  919MOL0     C23972   6.210   5.022   2.887 -0.0015  0.0245 -0.2142
  919MOL0     C23973   6.273   5.059   3.031  0.3347 -0.4327 -0.8478
  919MOL0     C23974   6.399   5.139   3.016  0.1616 -0.0216 -0.1826
  919MOL0    Cl23975   6.373   5.317   2.986 -0.0925  0.0625  0.2017
  919MOL0     C23976   5.993   4.489   2.771 -0.2278 -0.9301 -0.1855
  919MOL0     C23977   5.991   4.492   2.631  1.1955 -0.0499  0.8584
  919MOL0     O23978   6.113   4.307   2.421  0.3238 -0.2227  0.2456
  919MOL0     C23979   6.007   4.543   2.203  0.4357 -0.0481 -0.7030
  919MOL0     C23980   6.050   4.617   2.085 -0.1181 -0.3317 -0.5897
  919MOL0     N23981   6.675   4.814   1.817  0.2933 -0.3847  0.4677
  919MOL0     N23982   6.793   4.858   1.803 -0.3351  0.2813  0.1594
  919MOL0     C23983   7.840   4.766   1.876  0.1564 -0.5064  0.3679
  919MOL0     C23984   7.935   4.666   1.888 -0.2127 -0.4566 -0.3844
  919MOL0     C23985   8.382   4.543   1.981 -0.0743  0.3342 -0.8877
  919MOL0     C23986   8.375   4.407   1.940 -1.2714  0.6042 -0.3607
  919MOL0     C23987   8.475   4.310   1.978  0.0128 -0.5658 -0.4347
  919MOL0     C23988   8.571   4.356   2.060 -0.6073 -0.5723 -1.0549
  919MOL0     O23989   8.649   4.266   2.122  0.3297  0.1738  0.2278
  919MOL0     C23990   8.593   4.198   2.234 -0.2294 -0.3091  0.0549
  919MOL0     C23991   8.705   4.149   2.326  1.0793 -0.6765  0.4420
  919MOL0     C23992   8.668   4.107   2.471 -0.1773 -0.2763  0.1647
  919MOL0     C23993   8.788   4.114   2.555 -0.0413 -0.1894  0.2566
  919MOL0     C23994   8.765   4.041   2.678  0.2599  0.4984 -0.2266
  919MOL0     C23995   8.758   3.985   2.787 -0.0681  0.0218  0.0057
  919MOL0     C23996   8.589   4.493   2.087 -0.0418 -0.2171 -0.1331
  919MOL0     C23997   8.496   4.581   2.049  0.2475 -0.0631  0.6420
  919MOL0     H23998   8.197   4.826   1.727 -0.5118  2.4875 -3.5698
  919MOL0     H23999   8.029   4.988   1.695  0.9827 -0.8229  2.1996
  919MOL0     H24000   7.853   5.158   1.757  2.6677 -3.3477  1.3516
  919MOL0     H24001   7.789   5.060   1.616 -2.9947 -0.1975  0.2199
  919MOL0     H24002   7.641   5.220   1.833  2.1035  0.1344 -0.0162
  919MOL0     H24003   7.637   5.253   1.664 -3.3839  3.2412  2.6683
  919MOL0     H24004   7.549   4.977   1.665  1.0287 -2.0823  1.5863
  919MOL0     H24005   7.522   5.021   1.830  4.9059 -1.8204  0.1117
  919MOL0     H24006   7.391   5.226   1.741 -1.4682 -0.9441  3.1836
  919MOL0     H24007   7.394   5.137   1.586  0.3789  1.2597  0.2967
  919MOL0     H24008   7.286   4.952   1.677  0.0116  0.4067 -1.0138
  919MOL0     H24009   7.282   5.025   1.834  3.6346  2.5395 -0.3157
  919MOL0     H24010   7.146   5.219   1.735 -1.7169  0.2116 -1.3119
  919MOL0     H24011   7.125   5.131   1.587 -1.9438 -0.7599  0.1758
  919MOL0     H24012   7.053   4.983   1.833 -2.3568 -0.7455  0.5741
  919MOL0     H24013   6.958   5.133   1.790 -0.1905 -1.1683  0.3265
  919MOL0     H24014   7.003   4.895   1.616 -1.1833 -0.7914  0.8839
  919MOL0     H24015   6.926   5.054   1.566 -0.0749  1.4899 -0.1730
  919MOL0     H24016   6.658   4.986   1.537 -0.8088 -1.1131 -0.8028
  919MOL0     H24017   6.439   4.861   1.560  0.5599  0.8609  0.4570
  919MOL0     H24018   6.464   4.703   1.639  0.0669  0.0442 -1.7840
  919MOL0     H24019   6.352   4.959   1.775 -1.0299 -0.7932 -0.3643
  919MOL0     H24020   6.388   4.797   1.846  1.0542 -0.3796 -0.5294
  919MOL0     H24021   6.220   4.733   1.623 -1.2738  1.2923 -2.0621
  919MOL0     H24022   6.168   4.894   1.685 -0.6465  0.0700  2.7761
  919MOL0     H24023   6.026   4.733   1.799 -1.0697 -1.1517  2.5287
  919MOL0     H24024   6.134   4.814   1.915 -0.3749  0.7432  0.0110
  919MOL0     H24025   6.245   4.380   1.961 -2.3967 -1.6690 -1.6847
  919MOL0     H24026   6.152   4.163   2.203 -0.4192 -0.0442 -1.9827
  919MOL0     H24027   6.284   4.195   2.095 -1.3027 -5.7600  1.8328
  919MOL0     H24028   6.293   4.258   2.257 -0.3483  1.3941  0.5850
  919MOL0     H24029   5.719   4.278   2.584 -0.5978  1.2022 -0.4890
  919MOL0     H24030   5.710   4.311   2.822 -0.9834 -1.0758 -1.1269
  919MOL0     H24031   5.950   4.515   3.159  4.1909 -2.1202 -0.8570
  919MOL0     H24032   6.037   4.574   3.032  0.4636  1.7092  0.5697
  919MOL0     H24033   5.761   4.663   3.020  1.2376 -1.1914 -2.0445
  919MOL0     H24034   5.858   4.711   3.158  0.2411 -0.1044  0.4339
  919MOL0     H24035   5.841   4.861   2.947 -1.5271 -0.5551  0.2726
  919MOL0     H24036   5.948   4.736   2.871  1.6581 -1.4696  1.8220
  919MOL0     H24037   6.042   4.907   3.106 -0.3414  1.6699 -1.7133
  919MOL0     H24038   6.122   4.784   3.008  1.2339 -0.2001  3.5702
  919MOL0     H24039   6.002   5.054   2.900 -2.5255 -1.5978  0.2390
  919MOL0     H24040   6.035   4.935   2.795  0.0033 -0.8515 -0.1949
  919MOL0     H24041   6.273   4.949   2.835  1.6388  0.6600  0.7959
  919MOL0     H24042   6.193   5.113   2.830 -2.3603  0.6448  1.3268
  919MOL0     H24043   6.298   4.965   3.082  2.1231  0.5710  0.2454
  919MOL0     H24044   6.197   5.106   3.094  0.0187 -1.4184 -0.4789
  919MOL0     H24045   6.467   5.084   2.951  2.4377  0.2049  1.8491
  919MOL0     H24046   6.469   5.146   3.100  1.7586 -1.4726 -1.3454
  919MOL0     H24047   6.073   4.533   2.829 -0.2256  4.4704 -3.6874
  919MOL0     H24048   6.057   4.554   2.571 -2.3402  4.9929  1.5205
  919MOL0     H24049   5.954   4.611   2.268  0.6538  0.0464 -0.6223
  919MOL0     H24050   6.007   4.715   2.066  2.4804  1.1777  0.7014
  919MOL0     H24051   7.739   4.750   1.911 -0.1297  0.3651 -0.0336
  919MOL0     H24052   7.907   4.573   1.937  0.2839  0.1793  1.1689
  919MOL0     H24053   8.285   4.378   1.888 -1.3611 -0.5209  0.4097
  919MOL0     H24054   8.487   4.212   1.933  2.4452 -0.0361 -1.0823
  919MOL0     H24055   8.542   4.278   2.288  0.0769  0.1687 -0.3628
  919MOL0     H24056   8.523   4.117   2.210 -0.1643 -0.6360  0.9242
  919MOL0     H24057   8.777   4.230   2.335 -0.5418  0.7204  1.4741
  919MOL0     H24058   8.745   4.061   2.274 -1.4153 -0.3403 -2.3503
  919MOL0     H24059   8.621   4.008   2.477  1.5268 -1.0650  1.4789
  919MOL0     H24060   8.604   4.190   2.504 -0.4209 -0.8919  1.3230
  919MOL0     H24061   8.809   4.217   2.585  0.4301 -0.0051 -0.6702
  919MOL0     H24062   8.874   4.059   2.514  0.6400 -0.3438  1.8081
  919MOL0     H24063   8.749   3.967   2.892  0.7851 -1.4930 -0.1600
  919MOL0     H24064   8.669   4.528   2.151 -0.6850 -2.2051  1.8860
  919MOL0     H24065   8.505   4.686   2.074  1.4347 -0.1259  0.5165
  920MOL0     O24066   0.209  11.002   8.499  0.1439  0.3303 -0.0318
  920MOL0     C24067   0.283  10.921   8.550  0.0558  0.3994 -0.3543
  920MOL0     O24068   0.231  10.820   8.639 -0.6172  0.2332 -0.1993
  920MOL0     C24069   0.097  10.813   8.674  0.6278 -0.0882 -0.3360
  920MOL0     C24070  -0.021  10.820   8.594 -0.7484  0.9365 -0.6808
  920MOL0     C24071  -0.148  10.809   8.646 -0.3157  0.9827  0.4616
  920MOL0     C24072  -0.169  10.796   8.784  0.4825  0.2487 -0.5622
  920MOL0     O24073  -0.286  10.781   8.849  0.0338 -0.4576  0.1740
  920MOL0     C24074  -0.403  10.759   8.765 -0.6062 -0.4132  0.4406
  920MOL0     C24075  -0.505  10.691   8.855  0.2278 -0.6233 -0.2006
  920MOL0     C24076  -0.641  10.673   8.794  0.2520  0.5375  0.0193
  920MOL0     C24077  -0.734  10.608   8.898 -0.5710  0.2493 -0.2158
  920MOL0     C24078  -0.883  10.599   8.853 -0.3228 -0.0738  0.2601
  920MOL0     C24079  -0.992  10.594   8.962  0.2599  0.2400  0.0478
  920MOL0     C24080  -1.132  10.608   8.911 -0.0679  0.1844 -1.0972
  920MOL0     C24081  -1.229  10.514   8.993 -0.4378 -0.3114  0.5318
  920MOL0     N24082  -1.369  10.553   8.988 -0.5955  0.3703 -1.1247
  920MOL0     C24083  -1.469  10.494   8.917  0.0088 -0.1886  0.6046
  920MOL0     C24084  -1.581  10.562   8.953  0.1579 -0.7476  0.3725
  920MOL0     C24085  -1.709  10.556   8.879 -0.7053 -0.0554  0.4826
  920MOL0     C24086  -1.790  10.431   8.903  0.7081  0.3547 -1.2817
  920MOL0     C24087  -1.907  10.436   8.815 -0.4907 -0.1009 -0.2636
  920MOL0     C24088  -1.996  10.312   8.845 -0.4408  0.6826 -0.4971
  920MOL0     O24089  -2.060  10.332   8.971 -0.0137 -0.3418 -0.1070
  920MOL0     C24090  -2.159  10.245   9.008 -0.0023  0.5821 -0.1964
  920MOL0     C24091  -2.216  10.282   9.130  0.4818  0.4097  0.5910
  920MOL0     C24092  -2.340  10.238   9.166 -0.1765  0.1928 -0.8239
  920MOL0     C24093  -2.402  10.299   9.303 -0.3611  0.1975 -0.5171
  920MOL0     C24094  -2.411  10.141   9.093  0.5603 -0.5202 -0.1614
  920MOL0     C24095  -2.544  10.085   9.136  0.1525  0.4762 -0.0040
  920MOL0     O24096  -2.586  10.100   9.264 -0.0892  0.6922  0.1954
  920MOL0     C24097  -2.720  10.098   9.300  0.8135  0.2296  0.2836
  920MOL0     C24098  -2.822  10.129   9.210  0.4884 -0.3434  0.7086
  920MOL0     C24099  -2.952  10.133   9.254  0.6725  0.0255 -0.1851
  920MOL0     C24100  -2.986  10.102   9.389 -0.9784 -0.5454 -0.2547
  920MOL0     O24101  -3.119  10.114   9.417  0.3755 -0.0292 -0.0572
  920MOL0     C24102  -3.158  10.237   9.470  0.2830  0.3190 -0.4678
  920MOL0     C24103  -3.314  10.222   9.497  0.1331  0.2719 -0.1318
  920MOL0     C24104  -3.371  10.345   9.578 -0.2688  1.1436 -0.0062
  920MOL0     C24105  -3.507  10.315   9.635 -1.1800 -0.3143  0.8060
  920MOL0     C24106  -3.559  10.439   9.708 -0.4269 -0.0561 -0.0663
  920MOL0     C24107  -3.707  10.471   9.707 -0.1687  0.0973  0.4385
  920MOL0     C24108  -3.793  10.387   9.798 -0.4949  0.1176 -0.6016
  920MOL0     C24109  -3.799  10.443   9.946 -1.0192  1.5012  0.0596
  920MOL0    Cl24110  -3.649  10.423  10.065 -0.0814  0.0441  0.4307
  920MOL0     C24111  -2.886  10.069   9.472 -0.2853  0.8008  0.1161
  920MOL0     C24112  -2.752  10.057   9.432 -0.3803  0.3945  0.0340
  920MOL0     O24113  -2.605  10.019   9.056  0.7978 -0.0201  0.2809
  920MOL0     C24114  -2.350  10.086   8.980 -0.2207  0.6845 -1.2039
  920MOL0     C24115  -2.227  10.143   8.936 -0.6034 -0.2570 -0.5491
  920MOL0     N24116  -1.545  10.654   9.045  0.2527 -0.3644 -0.4271
  920MOL0     N24117  -1.420  10.656   9.066 -0.5870 -0.1878  0.3750
  920MOL0     C24118  -0.061  10.786   8.866 -0.2161 -0.0603  0.7738
  920MOL0     C24119   0.066  10.796   8.812 -0.4202 -0.1034  0.4324
  920MOL0     C24120   0.421  10.924   8.511 -0.4426  0.0164  1.3624
  920MOL0     C24121   0.518  10.820   8.542  0.0750  0.6166 -0.4797
  920MOL0     C24122   0.653  10.833   8.506 -0.2195 -0.6284  0.4409
  920MOL0     C24123   0.695  10.950   8.432  0.6820  0.0776 -0.5550
  920MOL0     O24124   0.827  10.962   8.400 -0.2141  0.3026 -0.0135
  920MOL0     C24125   0.868  10.863   8.304  1.0447 -0.4623 -0.2315
  920MOL0     C24126   1.017  10.887   8.275 -0.1117 -0.5741 -0.4789
  920MOL0     C24127   1.118  10.837   8.375  0.0243  0.1919 -0.4823
  920MOL0     C24128   1.253  10.910   8.365 -0.0024 -0.3869 -0.5274
  920MOL0     C24129   1.241  11.061   8.368 -0.6341  0.4087 -0.2960
  920MOL0     C24130   1.228  11.179   8.376 -0.4770 -0.4750 -0.4160
  920MOL0     C24131   0.606  11.047   8.392  0.3439 -0.0781 -1.4610
  920MOL0     C24132   0.471  11.040   8.431  0.0400 -0.0985 -0.2069
  920MOL0     H24133  -0.005  10.827   8.487  2.3252  1.7256 -0.2574
  920MOL0     H24134  -0.224  10.805   8.569  1.0405 -2.5423 -0.9043
  920MOL0     H24135  -0.446  10.846   8.716 -0.7516 -0.6337  0.1765
  920MOL0     H24136  -0.385  10.689   8.683 -2.4569 -0.2289 -0.1555
  920MOL0     H24137  -0.467  10.590   8.868  2.3263  0.1622  0.0808
  920MOL0     H24138  -0.501  10.744   8.951  3.1868  0.2607 -0.7162
  920MOL0     H24139  -0.692  10.766   8.767 -1.1728 -0.6590 -1.6992
  920MOL0     H24140  -0.623  10.611   8.706  1.5556  0.9355 -0.0135
  920MOL0     H24141  -0.691  10.513   8.929  0.9794  1.7607  2.6994
  920MOL0     H24142  -0.734  10.680   8.981 -2.2813 -0.2056  0.2296
  920MOL0     H24143  -0.909  10.681   8.786 -2.3844 -0.8564  0.0360
  920MOL0     H24144  -0.897  10.509   8.792 -3.1688 -2.0462  3.4568
  920MOL0     H24145  -0.976  10.497   9.011 -2.1025 -1.8037 -2.8699
  920MOL0     H24146  -0.983  10.683   9.025 -2.2952  0.9697 -0.5196
  920MOL0     H24147  -1.163  10.712   8.924 -0.0915 -0.0817  1.4249
  920MOL0     H24148  -1.128  10.605   8.802  3.1263  1.5606 -1.1326
  920MOL0     H24149  -1.196  10.527   9.096  2.3345  2.0968 -0.5160
  920MOL0     H24150  -1.206  10.412   8.960 -0.3156  0.3183 -1.4841
  920MOL0     H24151  -1.456  10.408   8.851 -2.2486  0.4905 -0.8327
  920MOL0     H24152  -1.758  10.653   8.892 -0.7886 -0.1842  1.1469
  920MOL0     H24153  -1.693  10.560   8.771 -1.2254  1.2222  0.4345
  920MOL0     H24154  -1.808  10.416   9.010  1.5500  2.7995 -0.7217
  920MOL0     H24155  -1.732  10.340   8.884  3.2238  1.8251 -1.1392
  920MOL0     H24156  -1.866  10.437   8.714 -0.3465  7.7775 -0.7637
  920MOL0     H24157  -1.955  10.534   8.822  1.1419  0.7258 -0.1662
  920MOL0     H24158  -1.936  10.221   8.837 -0.0908  0.9406 -0.8165
  920MOL0     H24159  -2.064  10.287   8.763  0.9294  1.4875 -1.9220
  920MOL0     H24160  -2.162  10.355   9.189  1.6062  1.3591 -1.5205
  920MOL0     H24161  -2.423  10.218   9.374  0.4747 -0.3478 -0.8801
  920MOL0     H24162  -2.331  10.370   9.346 -4.6210  2.8893  2.9004
  920MOL0     H24163  -2.488  10.362   9.281  0.2962 -0.0506 -4.5606
  920MOL0     H24164  -2.808  10.149   9.105 -1.5853 -0.5837  0.3493
  920MOL0     H24165  -3.028  10.159   9.182  0.8582 -0.5794 -0.6156
  920MOL0     H24166  -3.113  10.256   9.569  2.4282 -1.2034 -1.0723
  920MOL0     H24167  -3.138  10.324   9.407 -1.8695  2.0773  1.1285
  920MOL0     H24168  -3.348  10.206   9.394  3.5001 -2.4916 -0.9611
  920MOL0     H24169  -3.339  10.132   9.554 -0.8169 -0.6428 -1.8962
  920MOL0     H24170  -3.375  10.436   9.519 -2.2590  0.3671 -1.1445
  920MOL0     H24171  -3.301  10.364   9.661 -0.3325  1.3814 -0.0061
  920MOL0     H24172  -3.577  10.286   9.556 -0.7718 -0.1908  0.3998
  920MOL0     H24173  -3.504  10.230   9.704  0.7790 -0.9564  0.0020
  920MOL0     H24174  -3.510  10.520   9.654  0.7634 -1.9714 -1.9956
  920MOL0     H24175  -3.520  10.442   9.810 -2.8322 -0.4678  0.9260
  920MOL0     H24176  -3.722  10.573   9.746 -2.0458  0.2366 -0.5217
  920MOL0     H24177  -3.737  10.478   9.603 -1.7224  1.0507  0.9139
  920MOL0     H24178  -3.746  10.289   9.797  2.4009  1.3771  0.2896
  920MOL0     H24179  -3.892  10.392   9.752 -0.2136 -2.2730 -1.5950
  920MOL0     H24180  -3.885  10.389   9.987 -0.9517  1.3280 -0.0251
  920MOL0     H24181  -3.836  10.546   9.945 -0.5553  1.6851  1.1132
  920MOL0     H24182  -2.900  10.036   9.574  0.6238 -2.0584 -0.6031
  920MOL0     H24183  -2.680  10.026   9.507  1.5240  0.3909 -1.6848
  920MOL0     H24184  -2.399  10.019   8.910  0.6482  1.1395 -2.2677
  920MOL0     H24185  -2.196  10.103   8.840 -4.7111 -1.9329 -1.3745
  920MOL0     H24186  -0.065  10.782   8.975  2.0993 -0.3011  0.9045
  920MOL0     H24187   0.154  10.777   8.872 -0.0386 -0.0448 -0.0992
  920MOL0     H24188   0.490  10.733   8.601  1.7702 -0.1639 -0.7504
  920MOL0     H24189   0.721  10.755   8.536 -0.8993 -2.1798 -1.7329
  920MOL0     H24190   0.857  10.759   8.336  3.5465 -0.9803 -0.8282
  920MOL0     H24191   0.813  10.880   8.211 -1.5869  0.7771  1.4367
  920MOL0     H24192   1.030  10.994   8.258  1.5131 -0.8362 -1.1180
  920MOL0     H24193   1.032  10.841   8.176  0.6964 -0.0348 -0.6201
  920MOL0     H24194   1.150  10.733   8.367  0.3832  0.2462  0.2199
  920MOL0     H24195   1.066  10.851   8.470  2.5205  0.3982  0.9593
  920MOL0     H24196   1.301  10.866   8.277 -1.8339 -1.6021 -0.9611
  920MOL0     H24197   1.312  10.883   8.453 -0.3541  0.3335 -0.0661
  920MOL0     H24198   1.222  11.286   8.385 -0.2607 -0.3412 -1.6637
  920MOL0     H24199   0.644  11.136   8.343 -1.9055  2.6487  1.3167
  920MOL0     H24200   0.406  11.126   8.424  1.4262  1.1359  1.4536
  921MOL0     O24201   3.426  11.116   1.386 -0.4398 -0.5958 -0.0020
  921MOL0     C24202   3.425  11.065   1.268  0.6842 -0.3436  1.0537
  921MOL0     O24203   3.337  10.975   1.224 -1.1119  0.0992  0.3138
  921MOL0     C24204   3.242  10.926   1.293  0.2887  0.7369 -0.2015
  921MOL0     C24205   3.123  10.902   1.224  0.6037  0.7453  0.1722
  921MOL0     C24206   3.001  10.870   1.287  0.4526 -0.5597 -0.2129
  921MOL0     C24207   3.007  10.846   1.420 -1.9490  0.2725 -0.6125
  921MOL0     O24208   2.885  10.803   1.476 -0.6888 -0.6669  0.3085
  921MOL0     C24209   2.897  10.697   1.573  0.3524  0.8982 -0.5008
  921MOL0     C24210   2.763  10.643   1.623 -0.7857 -0.8477 -0.2457
  921MOL0     C24211   2.688  10.564   1.521  0.3849 -0.3380 -0.1047
  921MOL0     C24212   2.567  10.477   1.569  0.2228 -0.0567 -1.3148
  921MOL0     C24213   2.508  10.395   1.455  0.2550 -0.3425 -0.2945
  921MOL0     C24214   2.367  10.341   1.486  0.1582 -0.5169  0.4146
  921MOL0     C24215   2.337  10.220   1.385 -0.0416 -0.5752 -0.0689
  921MOL0     C24216   2.192  10.189   1.381  0.2054  0.4546  0.0932
  921MOL0     N24217   2.150  10.089   1.478  0.0844  0.1253  0.4388
  921MOL0     C24218   2.223   9.973   1.517 -0.5044 -0.3481 -0.2300
  921MOL0     C24219   2.147   9.927   1.614 -0.6793  0.0875 -0.2624
  921MOL0     C24220   2.181   9.805   1.708 -0.6596 -0.0977 -0.5454
  921MOL0     C24221   2.101   9.822   1.835 -0.1860  0.1644 -0.3446
  921MOL0     C24222   2.141   9.736   1.959 -0.2697  0.5786  0.7157
  921MOL0     C24223   2.137   9.578   1.955 -0.1176  0.5083 -0.4734
  921MOL0     O24224   2.014   9.524   1.896  0.5356 -0.8720 -0.1237
  921MOL0     C24225   1.889   9.561   1.948  0.1395  0.9605 -0.4808
  921MOL0     C24226   1.786   9.569   1.862  0.0839  0.0548 -0.1625
  921MOL0     C24227   1.656   9.608   1.903  0.0989  0.3571 -0.5654
  921MOL0     C24228   1.552   9.628   1.794  0.0356  0.0759  1.0523
  921MOL0     C24229   1.646   9.623   2.039 -0.1498 -0.8034  0.0809
  921MOL0     C24230   1.518   9.674   2.099  0.1923  0.3448  0.3149
  921MOL0     O24231   1.478   9.610   2.210 -0.3771 -0.0652  0.4587
  921MOL0     C24232   1.341   9.638   2.248  0.1582  0.0350  0.3255
  921MOL0     C24233   1.315   9.757   2.311 -0.0629 -0.0288  0.4426
  921MOL0     C24234   1.188   9.791   2.347  0.6613  0.9920 -0.7236
  921MOL0     C24235   1.083   9.697   2.330 -0.0478 -0.1882 -0.8338
  921MOL0     O24236   0.957   9.734   2.380 -0.0927 -0.0956 -0.6717
  921MOL0     C24237   0.846   9.729   2.285 -0.5588  0.5939  0.1571
  921MOL0     C24238   0.725   9.791   2.364 -0.4259  0.1767  1.3670
  921MOL0     C24239   0.618   9.844   2.271  0.2578 -0.2583 -0.0780
  921MOL0     C24240   0.572   9.759   2.152  0.6009  0.2066  0.1877
  921MOL0     C24241   0.530   9.611   2.188 -0.8218  0.1775  0.0444
  921MOL0     C24242   0.410   9.604   2.278 -0.5629 -1.5713 -0.0092
  921MOL0     C24243   0.341   9.473   2.292  0.0256  0.6032 -0.1591
  921MOL0     C24244   0.219   9.490   2.380  0.1865  0.1609  0.2699
  921MOL0    Cl24245   0.194   9.634   2.487  0.5389  0.5436  0.0749
  921MOL0     C24246   1.106   9.579   2.271  0.8457  0.6202 -0.5160
  921MOL0     C24247   1.227   9.551   2.228  0.1120  0.2774 -0.4011
  921MOL0     O24248   1.469   9.768   2.035  0.6023  0.3663 -0.0544
  921MOL0     C24249   1.745   9.615   2.131 -0.7927 -0.5779 -1.0693
  921MOL0     C24250   1.868   9.577   2.088  0.7579 -0.1814 -0.4211
  921MOL0     N24251   2.046  10.018   1.636 -0.4431  1.2909  0.0790
  921MOL0     N24252   2.047  10.119   1.553  0.1428  0.5124 -0.0407
  921MOL0     C24253   3.126  10.866   1.489  0.3608  0.4888  0.1317
  921MOL0     C24254   3.247  10.893   1.428  0.1145  0.0526 -0.0196
  921MOL0     C24255   3.541  11.095   1.178  0.1836  0.8071 -0.8561
  921MOL0     C24256   3.643  11.182   1.215  0.3221 -0.5316  0.7645
  921MOL0     C24257   3.745  11.215   1.119 -0.6972  0.4297  0.5989
  921MOL0     C24258   3.750  11.142   1.001  0.0886  0.0657 -0.4079
  921MOL0     O24259   3.851  11.153   0.903  0.8127  0.0460  0.1319
  921MOL0     C24260   3.981  11.151   0.957 -0.6761 -1.1088  0.5383
  921MOL0     C24261   4.034  11.020   0.922 -0.5390  0.2635 -0.4764
  921MOL0     C24262   4.052  10.998   0.766 -0.2127  0.0561 -0.1862
  921MOL0     C24263   4.192  10.957   0.719  0.2586 -0.3813 -0.0995
  921MOL0     C24264   4.233  10.940   0.580  0.4212 -0.3575 -0.6873
  921MOL0     C24265   4.280  10.924   0.473  0.3359 -0.5839 -0.0910
  921MOL0     C24266   3.645  11.058   0.959 -0.3683 -0.0037 -0.6528
  921MOL0     C24267   3.546  11.031   1.053  1.3496  0.0749 -0.1308
  921MOL0     H24268   3.114  10.923   1.118 -3.5491  3.0410  0.7724
  921MOL0     H24269   2.903  10.875   1.239  0.8902  1.1518 -0.9997
  921MOL0     H24270   2.952  10.618   1.520 -0.2777 -0.8252  1.2942
  921MOL0     H24271   2.951  10.742   1.657 -0.9248  3.6369 -1.0297
  921MOL0     H24272   2.799  10.579   1.705  0.3893 -1.7654 -1.4380
  921MOL0     H24273   2.699  10.720   1.668 -0.0592 -1.0760  1.2573
  921MOL0     H24274   2.649  10.631   1.443  2.2880  1.4850  0.4135
  921MOL0     H24275   2.764  10.500   1.477  1.3025 -0.4781  1.6249
  921MOL0     H24276   2.592  10.418   1.657 -2.8711 -0.6165 -0.6956
  921MOL0     H24277   2.489  10.549   1.596  1.0467 -0.3414  2.2768
  921MOL0     H24278   2.511  10.457   1.365  0.1360  0.8855  0.5300
  921MOL0     H24279   2.558  10.300   1.434 -1.3544 -1.1876 -0.4402
  921MOL0     H24280   2.364  10.304   1.589  2.4734 -0.7427  0.4617
  921MOL0     H24281   2.294  10.420   1.467  0.4215 -0.9806 -3.1659
  921MOL0     H24282   2.363  10.251   1.283  0.9301  0.3114  0.4244
  921MOL0     H24283   2.410  10.140   1.403  2.4577  1.8124  1.2039
  921MOL0     H24284   2.172  10.136   1.287  2.3797  0.8041 -0.6123
  921MOL0     H24285   2.134  10.280   1.397  0.8343  0.8853 -0.0652
  921MOL0     H24286   2.315   9.928   1.479  0.5078  2.1938 -0.9818
  921MOL0     H24287   2.150   9.714   1.656  0.0779 -1.3768  1.1532
  921MOL0     H24288   2.288   9.787   1.724 -0.4036 -0.0159 -2.0308
  921MOL0     H24289   2.002   9.793   1.798  0.9829 -2.1985 -1.8402
  921MOL0     H24290   2.110   9.925   1.870 -0.1670  1.1797 -3.1051
  921MOL0     H24291   2.069   9.764   2.036 -0.1333  0.1905  0.9931
  921MOL0     H24292   2.244   9.760   1.987  1.4701 -1.7627 -2.8935
  921MOL0     H24293   2.148   9.547   2.059  1.5719 -3.6094 -1.7113
  921MOL0     H24294   2.218   9.532   1.898 -1.3444 -1.4875 -0.6925
  921MOL0     H24295   1.814   9.551   1.758  1.1974  2.1222 -0.2868
  921MOL0     H24296   1.554   9.732   1.759  0.7405 -0.3419 -0.2141
  921MOL0     H24297   1.574   9.561   1.711 -0.8232 -0.9568  1.6326
  921MOL0     H24298   1.454   9.607   1.838 -0.2277  0.0572  0.4616
  921MOL0     H24299   1.401   9.819   2.333  0.4872 -0.7606  0.3749
  921MOL0     H24300   1.148   9.882   2.389 -1.3077  0.0357 -0.4009
  921MOL0     H24301   0.870   9.787   2.196 -1.0046  0.0546 -0.3167
  921MOL0     H24302   0.818   9.624   2.270  0.6095  0.2121  0.5678
  921MOL0     H24303   0.672   9.716   2.424  1.4342 -2.0307  0.4056
  921MOL0     H24304   0.739   9.877   2.430 -2.2558  0.3035  1.6476
  921MOL0     H24305   0.632   9.945   2.231  3.1936 -0.2260  0.8124
  921MOL0     H24306   0.538   9.854   2.346  1.2672  0.9530  0.8830
  921MOL0     H24307   0.480   9.804   2.112 -1.1538 -2.4818  0.9110
  921MOL0     H24308   0.650   9.745   2.077  0.0837 -5.1308  0.3135
  921MOL0     H24309   0.615   9.555   2.228 -1.6131 -1.2389 -0.1798
  921MOL0     H24310   0.519   9.549   2.098  2.2777 -0.7327  0.1918
  921MOL0     H24311   0.425   9.646   2.378  0.0614 -0.8585 -0.3935
  921MOL0     H24312   0.341   9.668   2.222  1.2137 -1.5573 -2.3656
  921MOL0     H24313   0.409   9.399   2.336  0.2117  0.4776 -0.6492
  921MOL0     H24314   0.316   9.426   2.196  4.1639 -1.1526 -0.6072
  921MOL0     H24315   0.223   9.404   2.448 -1.6153  0.2782  0.5778
  921MOL0     H24316   0.130   9.471   2.318  0.0318  0.1939  0.4813
  921MOL0     H24317   1.023   9.511   2.255 -2.0041  4.2127 -2.2412
  921MOL0     H24318   1.238   9.459   2.171 -2.8290 -0.3595 -0.0748
  921MOL0     H24319   1.723   9.639   2.235  2.9988 -0.9443 -0.0270
  921MOL0     H24320   1.949   9.569   2.160 -0.1834 -0.1293  0.6642
  921MOL0     H24321   3.122  10.836   1.593  2.8280 -0.2476  0.0852
  921MOL0     H24322   3.331  10.907   1.495 -0.1159 -0.5531  0.4075
  921MOL0     H24323   3.651  11.229   1.312  3.1439  0.9793 -0.0605
  921MOL0     H24324   3.819  11.286   1.156 -2.1256  1.8917  0.7659
  921MOL0     H24325   4.042  11.234   0.919 -2.5063 -0.0385 -0.2187
  921MOL0     H24326   3.983  11.166   1.065  1.1485 -2.3581  0.7139
  921MOL0     H24327   3.962  10.950   0.966 -0.1347 -1.7406 -2.7733
  921MOL0     H24328   4.129  11.012   0.975 -1.8703  0.1352  2.0670
  921MOL0     H24329   4.035  11.095   0.718 -2.7285 -0.1242  0.2017
  921MOL0     H24330   3.978  10.925   0.731 -0.3248  0.6948 -1.3350
  921MOL0     H24331   4.214  10.866   0.776  1.0298  0.0864  0.3732
  921MOL0     H24332   4.259  11.031   0.763  0.3349 -0.1847 -0.5325
  921MOL0     H24333   4.327  10.920   0.376 -0.8461 -0.6319 -0.6741
  921MOL0     H24334   3.660  11.023   0.857  2.8870  3.0850 -1.4472
  921MOL0     H24335   3.477  10.955   1.018  1.7290 -0.4972  0.3453
  922MOL0     O24336   8.943   4.060   3.761 -0.2974 -0.0947 -0.1297
  922MOL0     C24337   8.950   4.095   3.876 -1.2612 -0.6646 -0.7671
  922MOL0     O24338   8.867   4.186   3.934  0.0170  0.0128 -0.0203
  922MOL0     C24339   8.747   4.238   3.885  0.1512 -0.1834 -0.2624
  922MOL0     C24340   8.657   4.154   3.816 -0.8529  0.4572  0.1792
  922MOL0     C24341   8.528   4.205   3.787  0.0406  0.0613  0.3527
  922MOL0     C24342   8.501   4.333   3.815  0.0927 -0.8047 -0.2994
  922MOL0     O24343   8.367   4.375   3.787 -1.1007 -0.2291 -0.4594
  922MOL0     C24344   8.356   4.468   3.679 -0.7555  0.1277 -0.2716
  922MOL0     C24345   8.217   4.541   3.687  0.8321  0.7614  1.6542
  922MOL0     C24346   8.172   4.592   3.823 -0.4930  0.8318  0.1485
  922MOL0     C24347   8.023   4.547   3.844 -0.0403 -0.6796 -0.1980
  922MOL0     C24348   7.978   4.554   3.993  0.0381  0.2136  0.0225
  922MOL0     C24349   7.984   4.686   4.078 -0.1174 -0.7658  0.7230
  922MOL0     C24350   7.930   4.670   4.217 -0.5343 -0.3313  0.1436
  922MOL0     C24351   7.793   4.747   4.231  0.0702 -0.3050 -0.3619
  922MOL0     N24352   7.749   4.731   4.372 -0.7453  0.0726 -0.0227
  922MOL0     C24353   7.633   4.670   4.436 -0.5316 -0.6262 -1.0557
  922MOL0     C24354   7.639   4.715   4.567 -0.7110  0.3422 -0.1981
  922MOL0     C24355   7.544   4.694   4.678 -1.0465  1.0693  0.5771
  922MOL0     C24356   7.502   4.824   4.734 -0.2766  0.5471  0.6290
  922MOL0     C24357   7.422   4.799   4.861 -0.4574  0.4708  0.1095
  922MOL0     C24358   7.400   4.917   4.955 -0.4835 -0.2858  0.4480
  922MOL0     O24359   7.324   5.014   4.878  0.0866  0.1018 -0.1499
  922MOL0     C24360   7.188   5.024   4.888  1.3401 -0.2662  0.3445
  922MOL0     C24361   7.136   5.138   4.821  0.9545  1.4512 -0.2299
  922MOL0     C24362   6.996   5.170   4.842 -0.6181 -1.3314  0.0318
  922MOL0     C24363   6.948   5.294   4.769 -1.5741  0.8068 -0.6813
  922MOL0     C24364   6.911   5.085   4.918 -0.0602  0.6408 -1.0976
  922MOL0     C24365   6.770   5.106   4.912  1.3659  1.1915  0.2717
  922MOL0     O24366   6.720   5.111   4.781 -0.1090  0.8702 -0.3193
  922MOL0     C24367   6.602   5.169   4.757  0.3832 -0.1376  0.7578
  922MOL0     C24368   6.494   5.088   4.713 -0.2351  0.1864 -0.8162
  922MOL0     C24369   6.382   5.148   4.669 -0.4920 -0.6686  0.6375
  922MOL0     C24370   6.363   5.281   4.672  0.2875 -0.2562  0.4811
  922MOL0     O24371   6.242   5.325   4.620 -0.1161 -0.8490  0.5651
  922MOL0     C24372   6.254   5.451   4.554  0.8872 -0.1345  0.3055
  922MOL0     C24373   6.154   5.472   4.436  0.0930 -0.7213  0.5163
  922MOL0     C24374   6.121   5.618   4.401  0.1326  0.3691  0.2059
  922MOL0     C24375   6.056   5.625   4.264 -0.1312 -0.2230  0.4236
  922MOL0     C24376   6.009   5.766   4.213  0.6539  0.2488  0.0866
  922MOL0     C24377   5.873   5.797   4.271 -0.5589  0.3991  0.3434
  922MOL0     C24378   5.851   5.944   4.291  0.4001 -0.1914 -0.5730
  922MOL0     C24379   5.721   5.969   4.372 -0.0110  0.3286  0.0136
  922MOL0    Cl24380   5.766   5.944   4.549 -0.0666  0.4695  0.2790
  922MOL0     C24381   6.462   5.367   4.726 -0.3380 -0.0231  0.6570
  922MOL0     C24382   6.578   5.308   4.770 -0.0927 -0.3234 -0.7480
  922MOL0     O24383   6.698   5.105   5.011  0.4210 -0.1578 -0.0374
  922MOL0     C24384   6.964   4.965   4.976 -0.0626 -0.1599  0.2092
  922MOL0     C24385   7.102   4.941   4.957  0.5694 -1.2868  0.1271
  922MOL0     N24386   7.753   4.788   4.583 -0.9530  0.7020  0.1580
  922MOL0     N24387   7.820   4.788   4.474  0.3760 -0.6319 -0.0355
  922MOL0     C24388   8.584   4.417   3.885 -0.2802 -0.2330  0.5507
  922MOL0     C24389   8.703   4.364   3.921  0.7691  0.8932 -1.2154
  922MOL0     C24390   9.068   4.076   3.959  0.2356  0.8410  0.0926
  922MOL0     C24391   9.198   4.080   3.905 -0.6709  0.0298 -0.3931
  922MOL0     C24392   9.308   4.073   3.988  1.0468  0.3608 -0.4806
  922MOL0     C24393   9.292   4.044   4.128  0.5895  0.0564  0.3915
  922MOL0     O24394   9.394   4.020   4.216  0.3189 -0.4852 -1.0013
  922MOL0     C24395   9.528   4.040   4.173  0.0075 -1.3430  0.0027
  922MOL0     C24396   9.580   3.926   4.089 -0.8533  0.5547  0.7317
  922MOL0     C24397   9.723   3.893   4.121  0.2340 -1.0167  0.0018
  922MOL0     C24398   9.790   3.799   4.019 -0.6981  0.4243 -0.0757
  922MOL0     C24399   9.819   3.872   3.896  0.6710  0.3554  0.2706
  922MOL0     C24400   9.850   3.933   3.791 -0.4000  0.0828  0.3832
  922MOL0     C24401   9.164   4.045   4.171  0.3942  0.7528 -0.3466
  922MOL0     C24402   9.048   4.058   4.093  1.0155 -0.7959  0.5302
  922MOL0     H24403   8.686   4.063   3.766 -1.6657  1.2306 -1.8245
  922MOL0     H24404   8.459   4.140   3.733 -0.9037 -0.0237  1.6190
  922MOL0     H24405   8.435   4.542   3.694 -0.9150 -0.0871  1.9551
  922MOL0     H24406   8.373   4.412   3.587  0.4170  0.1044 -0.0609
  922MOL0     H24407   8.218   4.623   3.616 -3.6159 -0.5268 -0.2101
  922MOL0     H24408   8.140   4.479   3.640  0.7025  1.9102  0.2773
  922MOL0     H24409   8.240   4.560   3.902  0.1491 -1.9131 -1.3960
  922MOL0     H24410   8.168   4.702   3.816 -2.6219  0.8816  1.2324
  922MOL0     H24411   7.950   4.608   3.791 -1.2141 -0.9307  1.1050
  922MOL0     H24412   8.017   4.445   3.804  2.2705 -1.1962  0.5920
  922MOL0     H24413   7.875   4.517   3.995  0.5218 -1.1874  1.4861
  922MOL0     H24414   8.034   4.475   4.045 -1.0262 -0.0611  0.7673
  922MOL0     H24415   8.092   4.702   4.080 -0.0149 -1.2572 -0.2704
  922MOL0     H24416   7.951   4.778   4.028  2.1022  0.7491  1.8681
  922MOL0     H24417   7.901   4.568   4.244 -0.1929 -0.1320  1.2839
  922MOL0     H24418   7.999   4.714   4.289 -1.4596  0.4217  0.5928
  922MOL0     H24419   7.723   4.699   4.162 -1.7470 -0.2147  1.3478
  922MOL0     H24420   7.818   4.852   4.210  0.1195 -0.5521 -1.5951
  922MOL0     H24421   7.556   4.604   4.397  0.6519 -3.0780  0.4906
  922MOL0     H24422   7.464   4.631   4.638  0.0656 -0.5346  0.7516
  922MOL0     H24423   7.597   4.637   4.755  1.7046 -0.6071 -2.2903
  922MOL0     H24424   7.442   4.881   4.663  0.6782  1.7344  0.7282
  922MOL0     H24425   7.595   4.880   4.754 -0.0264  0.9147 -1.3398
  922MOL0     H24426   7.475   4.727   4.925  0.7208 -1.0908 -2.4819
  922MOL0     H24427   7.329   4.748   4.834 -0.1236 -1.3962  2.2082
  922MOL0     H24428   7.496   4.958   4.986  0.3081  0.6779 -2.8868
  922MOL0     H24429   7.346   4.895   5.048 -1.3660  1.3041  0.3614
  922MOL0     H24430   7.201   5.208   4.770  1.8683  0.7751 -0.0164
  922MOL0     H24431   6.908   5.361   4.846  1.1894  3.2814 -1.2294
  922MOL0     H24432   7.032   5.350   4.729  1.0598 -0.8562  2.0751
  922MOL0     H24433   6.873   5.268   4.694 -0.8719 -0.7305 -0.8875
  922MOL0     H24434   6.507   4.981   4.704 -0.5713  0.0542  0.1809
  922MOL0     H24435   6.306   5.087   4.623  0.2262 -2.2130  1.4059
  922MOL0     H24436   6.233   5.526   4.631  3.4321  0.6278  0.3487
  922MOL0     H24437   6.350   5.483   4.513 -1.2545  3.1016 -2.7174
  922MOL0     H24438   6.208   5.417   4.358  2.9966 -0.9851  2.5066
  922MOL0     H24439   6.060   5.424   4.463 -2.9980  3.3428 -2.0038
  922MOL0     H24440   6.211   5.678   4.410  0.8288 -0.8353  1.7969
  922MOL0     H24441   6.051   5.643   4.482 -1.8498 -3.1252 -0.1979
  922MOL0     H24442   6.142   5.593   4.206 -0.6769 -2.0446  0.5406
  922MOL0     H24443   5.975   5.551   4.255 -0.5505  0.2221  0.5290
  922MOL0     H24444   6.014   5.768   4.104  1.6241 -0.1501  0.1175
  922MOL0     H24445   6.092   5.833   4.236  2.0000 -0.4042 -2.4955
  922MOL0     H24446   5.798   5.752   4.206  0.4606 -1.0630  0.1192
  922MOL0     H24447   5.862   5.750   4.370 -0.6750 -0.9924 -0.3018
  922MOL0     H24448   5.846   5.995   4.194 -1.7572  0.0474 -0.4014
  922MOL0     H24449   5.937   5.988   4.341  0.9916 -2.2334  0.3147
  922MOL0     H24450   5.640   5.907   4.333 -0.8034  2.0552 -1.2336
  922MOL0     H24451   5.690   6.074   4.365 -1.9057 -0.2659 -1.0693
  922MOL0     H24452   6.458   5.475   4.737  2.8162  0.1264  1.4065
  922MOL0     H24453   6.657   5.355   4.827 -1.3215  1.2062 -0.2203
  922MOL0     H24454   6.901   4.892   5.026 -0.1480  0.3533  0.8785
  922MOL0     H24455   7.137   4.855   5.013  0.5369  0.0240  2.2814
  922MOL0     H24456   8.570   4.514   3.931  4.3845 -0.7354  3.8356
  922MOL0     H24457   8.775   4.430   3.969 -0.8219  1.8536 -0.0466
  922MOL0     H24458   9.215   4.108   3.801  2.0573  1.8551  0.4573
  922MOL0     H24459   9.410   4.090   3.956  0.4323 -1.2601 -3.6945
  922MOL0     H24460   9.539   4.138   4.125  4.0995 -1.4085  0.5123
  922MOL0     H24461   9.588   4.059   4.262 -0.4888  1.3866 -0.1392
  922MOL0     H24462   9.579   3.966   3.987  2.0866 -0.2500  0.2816
  922MOL0     H24463   9.513   3.841   4.106 -0.0206 -0.2801 -0.0613
  922MOL0     H24464   9.725   3.862   4.226 -1.1507 -0.5473  0.1997
  922MOL0     H24465   9.785   3.982   4.134 -0.6106 -0.6480  1.8952
  922MOL0     H24466   9.724   3.718   3.986 -1.5795  1.2221 -0.3140
  922MOL0     H24467   9.882   3.756   4.058 -2.2124 -1.4643  1.6691
  922MOL0     H24468   9.893   3.987   3.709  3.0366  1.2810  2.7270
  922MOL0     H24469   9.160   4.038   4.280  0.2106  1.0180 -0.3359
  922MOL0     H24470   8.954   4.062   4.147  1.6834 -0.9791  1.7310
  923MOL0     O24471   6.027   7.711   0.309 -0.1837  0.5703  0.1293
  923MOL0     C24472   6.054   7.599   0.350 -0.2639  0.9344 -0.0351
  923MOL0     O24473   5.966   7.502   0.399  0.1959 -0.1965 -0.2794
  923MOL0     C24474   5.835   7.547   0.398  0.0274 -0.8501  0.4012
  923MOL0     C24475   5.748   7.501   0.304 -0.1779 -0.0651  0.7408
  923MOL0     C24476   5.613   7.528   0.309  0.5394  0.2676  0.7352
  923MOL0     C24477   5.550   7.610   0.417  1.2549  0.5961  0.9683
  923MOL0     O24478   5.423   7.635   0.435  0.8368 -0.1669  0.0060
  923MOL0     C24479   5.328   7.576   0.344  0.4616  0.4417  0.6097
  923MOL0     C24480   5.180   7.629   0.378  0.2037  0.1689  0.3519
  923MOL0     C24481   5.171   7.780   0.384  0.0974 -0.9209 -0.2181
  923MOL0     C24482   5.041   7.844   0.413  0.0738  0.1441 -0.4396
  923MOL0     C24483   4.977   7.784   0.544 -0.2122 -0.0069 -0.0405
  923MOL0     C24484   4.860   7.865   0.602 -0.4552  0.2672 -0.1988
  923MOL0     C24485   4.745   7.895   0.509  1.2305 -0.1661  0.2974
  923MOL0     C24486   4.623   7.945   0.581 -0.1905 -0.5582  0.8677
  923MOL0     N24487   4.522   7.990   0.483 -0.1609  0.2533 -0.5542
  923MOL0     C24488   4.410   7.918   0.440  0.5509  1.0761 -0.4098
  923MOL0     C24489   4.342   7.999   0.359 -1.1029 -0.0149  0.4158
  923MOL0     C24490   4.233   7.964   0.263 -0.0288 -0.1832 -0.6198
  923MOL0     C24491   4.249   8.036   0.133 -0.1688 -0.7771 -0.2363
  923MOL0     C24492   4.124   7.998   0.037 -0.4729 -0.7046 -0.4801
  923MOL0     C24493   4.151   7.871  -0.050 -0.9400 -0.2543 -0.1865
  923MOL0     O24494   4.184   7.742   0.011 -0.0244  0.4195 -0.1688
  923MOL0     C24495   4.083   7.665   0.069  0.2032  0.1011  0.3043
  923MOL0     C24496   4.112   7.538   0.095 -0.0666  0.3788  0.5969
  923MOL0     C24497   4.018   7.436   0.125  0.1553 -0.7253  0.3499
  923MOL0     C24498   4.061   7.295   0.141  0.1023  0.5536  0.0954
  923MOL0     C24499   3.884   7.468   0.151 -0.1182 -0.1074  0.4890
  923MOL0     C24500   3.784   7.381   0.212 -0.5469 -0.4152  0.5118
  923MOL0     O24501   3.715   7.310   0.122  0.1993 -0.0348 -0.1103
  923MOL0     C24502   3.650   7.202   0.166 -0.6777  0.1598 -0.5562
  923MOL0     C24503   3.529   7.180   0.105 -0.5862  0.6490 -0.1419
  923MOL0     C24504   3.456   7.056   0.119 -0.5622 -0.2071 -0.8007
  923MOL0     C24505   3.515   6.947   0.194  0.2100  0.3737  0.4394
  923MOL0     O24506   3.449   6.825   0.201 -0.2323  0.1929 -0.0726
  923MOL0     C24507   3.458   6.742   0.317  0.2067 -0.0866  1.3500
  923MOL0     C24508   3.573   6.646   0.285  0.8199 -0.0741  0.2028
  923MOL0     C24509   3.526   6.555   0.172 -0.0875  0.0017 -0.0221
  923MOL0     C24510   3.602   6.416   0.167  0.4650 -0.3797  0.8068
  923MOL0     C24511   3.756   6.443   0.178 -0.0408  1.0331  0.5174
  923MOL0     C24512   3.835   6.322   0.144 -0.2479 -0.0350 -0.0432
  923MOL0     C24513   3.972   6.335   0.215  0.7946 -0.6826  0.1300
  923MOL0     C24514   4.091   6.258   0.144  0.0669  1.3950  0.4808
  923MOL0    Cl24515   4.250   6.280   0.221  0.4042 -0.1118  0.1251
  923MOL0     C24516   3.626   6.986   0.275  0.4242 -0.7451 -0.9265
  923MOL0     C24517   3.694   7.112   0.259  0.6591  0.1610 -0.8300
  923MOL0     O24518   3.769   7.390   0.329 -0.0373 -0.0822 -0.5745
  923MOL0     C24519   3.855   7.606   0.130  0.4699 -0.2360  0.0638
  923MOL0     C24520   3.949   7.702   0.105 -0.5121  0.6157  0.6653
  923MOL0     N24521   4.397   8.125   0.373  0.3584 -0.1321  0.0129
  923MOL0     N24522   4.498   8.120   0.449  0.0564 -0.1249 -0.1080
  923MOL0     C24523   5.641   7.649   0.512  0.1418 -0.7525  0.3892
  923MOL0     C24524   5.779   7.621   0.497  0.4584 -0.4847  1.3474
  923MOL0     C24525   6.200   7.564   0.360  0.0045 -0.2289 -0.7768
  923MOL0     C24526   6.243   7.465   0.453  0.4618 -0.4255 -0.3793
  923MOL0     C24527   6.357   7.391   0.408  0.4482  0.9095 -0.2028
  923MOL0     C24528   6.439   7.434   0.306  0.6119 -0.5372 -0.0437
  923MOL0     O24529   6.546   7.345   0.268 -0.0141 -0.2362 -0.2682
  923MOL0     C24530   6.654   7.403   0.198  0.1383 -0.2891  0.1255
  923MOL0     C24531   6.776   7.308   0.201  0.2908 -0.8447  1.1519
  923MOL0     C24532   6.918   7.373   0.147  0.1394 -1.4472 -1.0339
  923MOL0     C24533   7.030   7.270   0.158 -0.1590  0.7393  0.3482
  923MOL0     C24534   7.027   7.193   0.280 -0.4586 -0.2501  0.1667
  923MOL0     C24535   7.030   7.130   0.384 -0.0697  0.1925  0.1908
  923MOL0     C24536   6.418   7.558   0.237 -0.3395 -0.1225  0.5286
  923MOL0     C24537   6.293   7.607   0.263 -0.2475  0.8063 -0.1362
  923MOL0     H24538   5.783   7.441   0.221 -1.3974  1.1444 -0.7214
  923MOL0     H24539   5.548   7.490   0.230 -0.5117  5.8322 -1.5363
  923MOL0     H24540   5.354   7.596   0.239 -1.6837 -3.7995 -0.9631
  923MOL0     H24541   5.325   7.467   0.351  0.1032  0.1099 -2.7631
  923MOL0     H24542   5.122   7.579   0.300 -1.4929  0.6332  1.2661
  923MOL0     H24543   5.158   7.593   0.479 -0.0828 -0.9904 -0.1068
  923MOL0     H24544   5.238   7.818   0.462  0.6810  0.3422 -1.3091
  923MOL0     H24545   5.203   7.826   0.290 -1.9062  3.3480  0.9274
  923MOL0     H24546   5.054   7.952   0.424 -0.9986  0.1853  0.6291
  923MOL0     H24547   4.968   7.827   0.334 -1.0841 -0.9612  0.8172
  923MOL0     H24548   4.936   7.684   0.525  1.7835 -1.1289  1.2407
  923MOL0     H24549   5.047   7.777   0.628 -0.7085 -2.7237  0.2388
  923MOL0     H24550   4.821   7.812   0.689 -1.0004  0.3769 -0.3718
  923MOL0     H24551   4.912   7.960   0.622 -1.0949  0.7458 -0.7617
  923MOL0     H24552   4.772   7.969   0.433 -3.4166  3.0227  1.3016
  923MOL0     H24553   4.721   7.806   0.449 -0.4790 -0.1842  0.9406
  923MOL0     H24554   4.647   8.035   0.639  2.0715  0.2016 -1.0764
  923MOL0     H24555   4.584   7.867   0.647 -1.0165  0.5445  1.7449
  923MOL0     H24556   4.395   7.812   0.455  1.9974  0.3505 -3.3809
  923MOL0     H24557   4.226   7.857   0.241  0.1389 -0.6387  1.3592
  923MOL0     H24558   4.140   7.997   0.309 -0.3138 -1.1672 -0.4612
  923MOL0     H24559   4.349   8.011   0.097  0.4610 -1.9601  2.1123
  923MOL0     H24560   4.249   8.145   0.148 -0.2558 -0.4991 -2.0898
  923MOL0     H24561   4.102   8.087  -0.022  0.7614  0.1459  0.2988
  923MOL0     H24562   4.035   7.986   0.099 -1.5799  0.4816 -1.7748
  923MOL0     H24563   4.239   7.893  -0.113  0.2016  0.7902  1.6836
  923MOL0     H24564   4.063   7.862  -0.114 -0.3137  0.5487 -1.2047
  923MOL0     H24565   4.214   7.512   0.071  0.3807  0.7404  1.9804
  923MOL0     H24566   3.986   7.221   0.111 -0.1038  0.0461  1.7741
  923MOL0     H24567   4.154   7.277   0.087  0.6371  0.3830  1.0602
  923MOL0     H24568   4.062   7.265   0.246  1.4937  0.4723  0.0726
  923MOL0     H24569   3.477   7.237   0.029  0.4443  0.5646 -0.9366
  923MOL0     H24570   3.358   7.044   0.076 -0.7870  2.2399 -1.0731
  923MOL0     H24571   3.473   6.811   0.401 -1.1330  2.0497 -0.0476
  923MOL0     H24572   3.365   6.686   0.332 -0.1150  0.0180 -0.0989
  923MOL0     H24573   3.661   6.704   0.255  0.7682 -0.8654 -1.5631
  923MOL0     H24574   3.602   6.588   0.373 -0.4272 -0.8762  0.1198
  923MOL0     H24575   3.548   6.602   0.076  0.9209 -1.2554 -0.4357
  923MOL0     H24576   3.419   6.544   0.192 -0.2388  0.4647 -0.5299
  923MOL0     H24577   3.575   6.354   0.253 -1.0204  2.0330  2.1976
  923MOL0     H24578   3.574   6.365   0.074 -2.2577  2.6868 -0.2763
  923MOL0     H24579   3.773   6.464   0.284 -2.9229 -1.0306  1.5095
  923MOL0     H24580   3.777   6.525   0.108 -2.3987  0.2045 -1.3062
  923MOL0     H24581   3.780   6.236   0.181 -0.1474 -0.0227  0.1364
  923MOL0     H24582   3.838   6.322   0.035  2.7558  0.6477 -0.0494
  923MOL0     H24583   3.951   6.306   0.318 -1.6932  2.0785  0.5301
  923MOL0     H24584   4.001   6.441   0.224  0.6236 -0.7352  1.5563
  923MOL0     H24585   4.104   6.292   0.041  2.3152  2.5124  1.0627
  923MOL0     H24586   4.063   6.152   0.138 -0.3016  1.3048  2.7983
  923MOL0     H24587   3.676   6.918   0.343 -0.2529  0.9114  1.3491
  923MOL0     H24588   3.777   7.144   0.321  0.0169 -0.9873  0.6839
  923MOL0     H24589   3.756   7.645   0.149  0.6257 -0.6768  2.0405
  923MOL0     H24590   3.918   7.804   0.087 -1.7360 -0.3709 -4.2336
  923MOL0     H24591   5.614   7.702   0.603 -0.1414 -1.0859  0.5051
  923MOL0     H24592   5.856   7.661   0.562  2.2330  3.0542 -2.5103
  923MOL0     H24593   6.173   7.430   0.528 -2.6737 -0.1177 -2.8989
  923MOL0     H24594   6.375   7.293   0.452  1.0221  0.9326 -0.3793
  923MOL0     H24595   6.624   7.425   0.095  0.5224 -2.8773 -0.6090
  923MOL0     H24596   6.672   7.497   0.250 -0.1274 -0.8758  1.3463
  923MOL0     H24597   6.746   7.227   0.134 -0.3175  0.9497 -0.8517
  923MOL0     H24598   6.795   7.271   0.302 -2.4320 -2.4261  1.1854
  923MOL0     H24599   6.931   7.471   0.195 -3.5694 -1.5712  0.6350
  923MOL0     H24600   6.901   7.394   0.041 -0.0964 -0.4639 -0.8083
  923MOL0     H24601   7.125   7.323   0.146 -1.0070  2.0678 -0.8146
  923MOL0     H24602   7.020   7.207   0.069 -0.1413 -0.7789  1.3820
  923MOL0     H24603   7.048   7.062   0.465  3.2068  1.3956  0.6308
  923MOL0     H24604   6.482   7.594   0.158 -0.8773 -2.7139 -1.2237
  923MOL0     H24605   6.267   7.696   0.207 -1.9190  2.0690  2.4635
  924MOL0     O24606   9.776   9.756   2.756  0.0492 -0.6446  0.0535
  924MOL0     C24607   9.768   9.876   2.739 -0.0050 -0.0621 -0.2413
  924MOL0     O24608   9.654   9.948   2.764  0.3678 -0.2635 -0.8480
  924MOL0     C24609   9.545   9.876   2.821  0.2239 -0.0439 -0.1005
  924MOL0     C24610   9.482   9.767   2.755 -0.3025 -1.1826 -0.6173
  924MOL0     C24611   9.369   9.703   2.815 -0.6322  0.0905  0.4209
  924MOL0     C24612   9.327   9.741   2.937  0.3066 -0.2187  0.1336
  924MOL0     O24613   9.221   9.674   2.990 -0.5169 -0.7814 -0.3445
  924MOL0     C24614   9.129   9.748   3.067 -0.0263 -0.7363 -0.7075
  924MOL0     C24615   8.982   9.695   3.051 -0.0832 -0.2808  0.4370
  924MOL0     C24616   8.953   9.668   2.907 -0.4561 -0.1211  0.1024
  924MOL0     C24617   8.801   9.659   2.899 -0.5655  0.5681 -0.3122
  924MOL0     C24618   8.735   9.640   2.752 -0.4650 -0.4605 -0.2997
  924MOL0     C24619   8.588   9.625   2.755  0.2968  0.1383  0.8706
  924MOL0     C24620   8.522   9.613   2.613 -1.2869  0.9786  0.7816
  924MOL0     C24621   8.503   9.754   2.543 -1.0536  0.6123  0.2582
  924MOL0     N24622   8.361   9.798   2.573 -0.0906 -0.4064  0.2124
  924MOL0     C24623   8.251   9.715   2.546 -0.2057  0.6605 -0.3313
  924MOL0     C24624   8.138   9.789   2.574  0.3569  0.5697  0.1356
  924MOL0     C24625   7.997   9.755   2.537 -0.3758  0.2032 -0.8488
  924MOL0     C24626   7.887   9.833   2.606  0.6266 -0.4709 -1.2282
  924MOL0     C24627   7.752   9.771   2.576 -0.2159  0.3046 -0.4424
  924MOL0     C24628   7.633   9.845   2.631 -0.8948  0.8141 -0.1359
  924MOL0     O24629   7.519   9.772   2.598  0.0771 -0.1464  0.0407
  924MOL0     C24630   7.399   9.805   2.657  0.2781  0.4787  0.1378
  924MOL0     C24631   7.381   9.900   2.764 -0.4310  0.6416  1.3590
  924MOL0     C24632   7.253   9.949   2.803 -0.1794  1.1166 -0.0524
  924MOL0     C24633   7.259  10.062   2.904 -0.2273  0.9210 -0.3171
  924MOL0     C24634   7.139   9.888   2.744  0.2625  0.7249  0.2196
  924MOL0     C24635   6.998   9.928   2.771 -0.1621  0.7996 -0.6490
  924MOL0     O24636   6.905   9.862   2.692  0.5523 -0.0199 -1.1786
  924MOL0     C24637   6.775   9.887   2.712  1.0319  0.2099  0.2511
  924MOL0     C24638   6.706   9.886   2.838  1.1299 -0.3042 -0.6305
  924MOL0     C24639   6.561   9.900   2.851  0.0630  0.5091 -0.4859
  924MOL0     C24640   6.483   9.890   2.740  0.1704  0.3009 -0.3004
  924MOL0     O24641   6.350   9.899   2.745 -0.3729  0.5429  0.2414
  924MOL0     C24642   6.290   9.783   2.807  0.1724  0.1984 -0.8395
  924MOL0     C24643   6.154   9.817   2.871  0.1189  0.5737 -0.1186
  924MOL0     C24644   6.112   9.723   2.982 -0.3148 -0.1934 -0.0386
  924MOL0     C24645   5.978   9.786   3.040  0.0663  0.2193 -0.0518
  924MOL0     C24646   5.996   9.923   3.103 -1.1547  0.3255 -0.1080
  924MOL0     C24647   5.857   9.974   3.155 -0.6981  0.5821  0.2676
  924MOL0     C24648   5.800   9.887   3.275  0.3220 -0.3211 -0.4593
  924MOL0     C24649   5.640   9.871   3.261  0.6213 -0.3408  1.0463
  924MOL0    Cl24650   5.550  10.031   3.264  0.5765  0.0041 -0.1667
  924MOL0     C24651   6.550   9.880   2.617  0.1227 -0.1577 -0.3815
  924MOL0     C24652   6.689   9.885   2.598 -0.5666 -0.6303  0.6335
  924MOL0     O24653   6.974  10.003   2.868  0.2450 -0.1477  0.1682
  924MOL0     C24654   7.165   9.793   2.642 -0.0545  0.1500  0.5062
  924MOL0     C24655   7.292   9.748   2.601  0.2404  0.9995 -0.1986
  924MOL0     N24656   8.185   9.911   2.623  1.4711 -0.1134  0.4907
  924MOL0     N24657   8.307   9.911   2.607  0.1190 -0.6335 -1.4597
  924MOL0     C24658   9.387   9.852   3.001 -0.3776 -1.0097  0.5759
  924MOL0     C24659   9.503   9.906   2.945  0.4983  0.5245  0.2176
  924MOL0     C24660   9.896   9.949   2.700  1.0629 -1.1397  0.2277
  924MOL0     C24661  10.015   9.878   2.684  0.9399 -0.5847 -0.5155
  924MOL0     C24662  10.130   9.944   2.662  0.3484  0.1609  0.4142
  924MOL0     C24663  10.132  10.077   2.627 -0.0873  0.4825 -0.2677
  924MOL0     O24664  10.248  10.131   2.574 -0.9364  0.1913 -0.0797
  924MOL0     C24665  10.256  10.277   2.549  0.7645  0.5391 -0.0671
  924MOL0     C24666  10.392  10.309   2.482  0.2824 -0.1982  0.0213
  924MOL0     C24667  10.402  10.294   2.333 -0.0387 -0.7961  0.7334
  924MOL0     C24668  10.515  10.384   2.281  0.2681 -0.6660 -0.3014
  924MOL0     C24669  10.645  10.339   2.340  0.3792  0.6839  0.0306
  924MOL0     C24670  10.751  10.291   2.381 -0.8149 -0.0521 -0.3087
  924MOL0     C24671  10.012  10.148   2.636 -0.9948  0.7242  0.3298
  924MOL0     C24672   9.891  10.087   2.685 -0.7111 -0.1208  0.2804
  924MOL0     H24673   9.513   9.732   2.657  0.7535  1.1139 -1.1737
  924MOL0     H24674   9.316   9.633   2.752 -1.8779  2.3576 -1.2100
  924MOL0     H24675   9.163   9.751   3.171  1.6005 -1.4580 -1.1833
  924MOL0     H24676   9.126   9.854   3.044 -0.8153 -0.4989  0.4135
  924MOL0     H24677   8.969   9.605   3.112 -3.1912  0.9090  1.7583
  924MOL0     H24678   8.904   9.762   3.090 -3.1549 -3.5857  0.5138
  924MOL0     H24679   8.988   9.752   2.846 -1.3190  1.2318  1.3828
  924MOL0     H24680   9.010   9.577   2.884  1.6813  0.8719  1.1262
  924MOL0     H24681   8.763   9.578   2.962 -0.8238  0.6943 -0.3040
  924MOL0     H24682   8.759   9.749   2.944  2.0974  0.9938  1.6131
  924MOL0     H24683   8.763   9.735   2.704  1.5287 -0.1840  1.2714
  924MOL0     H24684   8.784   9.558   2.700 -2.6249 -1.2005 -1.2847
  924MOL0     H24685   8.563   9.528   2.799  0.5589 -1.1960 -1.7134
  924MOL0     H24686   8.538   9.701   2.815  0.0778 -0.8476  1.9708
  924MOL0     H24687   8.590   9.565   2.541 -2.7657  3.2458 -2.3545
  924MOL0     H24688   8.426   9.561   2.606 -0.7092  0.0509 -0.9691
  924MOL0     H24689   8.510   9.740   2.434 -2.2587 -0.0807  0.2440
  924MOL0     H24690   8.573   9.828   2.581 -1.1351  1.1696 -0.6282
  924MOL0     H24691   8.262   9.615   2.505  0.8668  0.4182  0.4998
  924MOL0     H24692   7.982   9.766   2.429 -0.1689  0.7925 -0.8212
  924MOL0     H24693   7.980   9.648   2.549 -2.4700 -0.4937 -6.6736
  924MOL0     H24694   7.883   9.940   2.583 -2.5236 -0.3523 -0.6840
  924MOL0     H24695   7.891   9.831   2.715 -0.5634  0.4811 -1.1360
  924MOL0     H24696   7.759   9.667   2.609  0.6518  0.3952 -0.3090
  924MOL0     H24697   7.732   9.765   2.468 -0.4952 -4.3598 -0.3353
  924MOL0     H24698   7.631   9.945   2.588  0.6281  0.4323 -1.1720
  924MOL0     H24699   7.644   9.851   2.740  1.1949  0.5266 -0.2799
  924MOL0     H24700   7.466   9.949   2.810  1.8305 -3.6423  2.2321
  924MOL0     H24701   7.210  10.018   2.991 -0.7417  1.1999 -0.4608
  924MOL0     H24702   7.361  10.089   2.931  0.3137 -0.9358 -0.3539
  924MOL0     H24703   7.197  10.139   2.858 -2.9122 -1.2468 -0.6191
  924MOL0     H24704   6.764   9.890   2.929  3.8666  2.9068 -2.3033
  924MOL0     H24705   6.520   9.911   2.950  2.2055 -0.0553  0.5342
  924MOL0     H24706   6.274   9.700   2.738 -0.6184 -1.4155  1.1834
  924MOL0     H24707   6.355   9.744   2.886  1.6397  1.8120 -1.1772
  924MOL0     H24708   6.167   9.919   2.907 -2.2730  1.9143 -2.7007
  924MOL0     H24709   6.083   9.827   2.789 -0.1735 -0.3402  0.0078
  924MOL0     H24710   6.182   9.717   3.066 -0.1256 -2.0354 -0.2892
  924MOL0     H24711   6.077   9.628   2.941 -3.9237  0.4420  1.1587
  924MOL0     H24712   5.906   9.803   2.959  0.3677 -0.9186 -0.5802
  924MOL0     H24713   5.935   9.719   3.115  0.1539  0.3129  0.0836
  924MOL0     H24714   6.010   9.990   3.017 -0.7270 -0.9211 -1.0458
  924MOL0     H24715   6.086   9.932   3.164 -0.1189 -0.0893 -1.5198
  924MOL0     H24716   5.860  10.079   3.183 -1.3931  0.9893 -1.0831
  924MOL0     H24717   5.789   9.970   3.069  1.7064 -0.9167 -1.7038
  924MOL0     H24718   5.826   9.942   3.366 -0.4210 -0.3497 -0.2263
  924MOL0     H24719   5.832   9.783   3.274  1.8952  0.0767  1.1809
  924MOL0     H24720   5.600   9.809   3.342  3.3098 -2.9957  0.5535
  924MOL0     H24721   5.623   9.818   3.167  0.0359  1.5462  0.0362
  924MOL0     H24722   6.485   9.870   2.531 -0.9058  1.4644  0.1692
  924MOL0     H24723   6.735   9.886   2.500  3.0447  0.9025  2.1773
  924MOL0     H24724   7.079   9.743   2.598  0.7642 -0.3935 -0.5196
  924MOL0     H24725   7.321   9.685   2.517 -1.3541 -0.8608  0.5971
  924MOL0     H24726   9.342   9.890   3.093 -2.8988 -0.4512 -0.7847
  924MOL0     H24727   9.549   9.990   2.998  1.8669 -0.5520  0.7962
  924MOL0     H24728  10.029   9.775   2.714  0.2532 -0.0997  1.5828
  924MOL0     H24729  10.229   9.903   2.643  1.3880  1.7987  1.9785
  924MOL0     H24730  10.180  10.317   2.482  1.5545  0.1499 -1.2387
  924MOL0     H24731  10.244  10.317   2.650 -2.4742  1.1162 -0.5748
  924MOL0     H24732  10.464  10.243   2.531 -0.0827 -0.6291 -0.0171
  924MOL0     H24733  10.392  10.417   2.502 -1.6848  0.0877 -1.3033
  924MOL0     H24734  10.312  10.346   2.300  0.5893  0.7521  1.3831
  924MOL0     H24735  10.409  10.188   2.306  0.2816 -0.8388  0.9718
  924MOL0     H24736  10.495  10.487   2.311 -0.0646 -0.2469 -1.8959
  924MOL0     H24737  10.528  10.381   2.173 -0.4082 -0.2990 -0.3959
  924MOL0     H24738  10.845  10.259   2.421 -0.7706  3.1237  2.6667
  924MOL0     H24739  10.018  10.255   2.622  0.1488  0.4279 -1.9324
  924MOL0     H24740   9.801  10.140   2.716  0.7309  1.9197  1.1821
  925MOL0     O24741   6.586   9.430   3.577 -0.3827  0.5333  0.0124
  925MOL0     C24742   6.584   9.346   3.478 -0.8318  0.4460 -0.2386
  925MOL0     O24743   6.486   9.328   3.396  0.6034  0.1421  0.2535
  925MOL0     C24744   6.362   9.376   3.427  0.6355 -0.7045 -0.0054
  925MOL0     C24745   6.299   9.345   3.542  0.3000  0.3197 -1.0109
  925MOL0     C24746   6.170   9.393   3.566 -0.9554  0.9936 -0.2191
  925MOL0     C24747   6.098   9.462   3.465 -0.2181  0.3178  0.0336
  925MOL0     O24748   5.962   9.492   3.463  0.3700  0.3681 -0.5930
  925MOL0     C24749   5.894   9.474   3.586 -0.1583  0.2743  0.6582
  925MOL0     C24750   5.759   9.540   3.569 -0.3366 -0.2091 -0.0665
  925MOL0     C24751   5.669   9.472   3.469  0.0282 -0.4951  0.8695
  925MOL0     C24752   5.519   9.516   3.496 -0.1393 -0.5120 -0.4239
  925MOL0     C24753   5.423   9.473   3.390  0.9557 -0.1486  0.5302
  925MOL0     C24754   5.280   9.510   3.423 -0.1601 -0.0507  0.7744
  925MOL0     C24755   5.177   9.479   3.310 -0.8573 -0.0674 -0.3159
  925MOL0     C24756   5.039   9.523   3.351 -0.5404  0.3389 -0.3067
  925MOL0     N24757   4.973   9.420   3.437 -0.5473  0.3916  0.0854
  925MOL0     C24758   4.968   9.424   3.579  0.1691  0.1914 -0.7556
  925MOL0     C24759   4.863   9.344   3.612  0.0988 -0.5687 -0.0077
  925MOL0     C24760   4.831   9.283   3.747  0.0308  0.3245 -0.0871
  925MOL0     C24761   4.734   9.365   3.831 -0.4678 -0.8541 -0.9102
  925MOL0     C24762   4.700   9.273   3.957 -0.1980 -0.5024  0.1416
  925MOL0     C24763   4.575   9.321   4.034  0.4554  0.8042 -0.1266
  925MOL0     O24764   4.470   9.339   3.942  0.0792 -0.7725  0.1605
  925MOL0     C24765   4.337   9.346   3.983  0.6019  0.1161 -0.4209
  925MOL0     C24766   4.232   9.325   3.888  0.5028 -0.3707 -0.0413
  925MOL0     C24767   4.094   9.327   3.933  1.3922  1.0037 -0.8614
  925MOL0     C24768   3.998   9.291   3.817  0.0223  0.7799 -0.1828
  925MOL0     C24769   4.062   9.338   4.072 -0.4942  0.2166 -0.1906
  925MOL0     C24770   3.931   9.309   4.130 -0.9137  0.6839 -0.5393
  925MOL0     O24771   3.835   9.239   4.057  0.1306  0.5267  0.1761
  925MOL0     C24772   3.707   9.210   4.115  0.2146  0.4709  0.0399
  925MOL0     C24773   3.586   9.199   4.039  0.4751  0.2345 -0.5444
  925MOL0     C24774   3.461   9.183   4.101  0.0993 -0.6202  0.2069
  925MOL0     C24775   3.458   9.161   4.246  0.3750 -0.0053 -0.0285
  925MOL0     O24776   3.340   9.148   4.313  0.1482  0.7357 -0.1182
  925MOL0     C24777   3.224   9.092   4.246  0.7863 -0.1099 -1.0288
  925MOL0     C24778   3.115   9.037   4.351 -0.0053  0.1433  0.0824
  925MOL0     C24779   3.006   8.951   4.278  0.6389 -0.5062 -0.6236
  925MOL0     C24780   2.889   8.906   4.367 -0.0064  1.6315  0.2939
  925MOL0     C24781   2.786   9.021   4.360  0.9393 -0.2098  0.1483
  925MOL0     C24782   2.682   8.996   4.472  0.5255  0.2436 -0.8823
  925MOL0     C24783   2.591   9.122   4.488  0.4220  0.8929 -0.0569
  925MOL0     C24784   2.528   9.166   4.357  0.7858 -0.5860 -0.0052
  925MOL0    Cl24785   2.627   9.287   4.270  0.0472  0.0086  0.0641
  925MOL0     C24786   3.568   9.159   4.322  0.1416 -0.1729 -0.2528
  925MOL0     C24787   3.688   9.188   4.260  0.2211  0.2938 -0.1451
  925MOL0     O24788   3.918   9.370   4.237 -0.4511 -0.0034 -0.9723
  925MOL0     C24789   4.168   9.366   4.159 -0.8425  0.0522  0.3860
  925MOL0     C24790   4.308   9.368   4.116  0.7480 -0.3019  0.6275
  925MOL0     N24791   4.809   9.292   3.493  0.9497 -0.3100  0.0135
  925MOL0     N24792   4.877   9.332   3.390 -0.4671  0.1679 -0.3109
  925MOL0     C24793   6.166   9.500   3.347 -0.0291 -0.8642  0.4733
  925MOL0     C24794   6.299   9.458   3.337 -0.4149 -0.3719 -0.4497
  925MOL0     C24795   6.707   9.259   3.451  0.6530 -0.5842  0.0934
  925MOL0     C24796   6.707   9.147   3.363  0.6676 -0.0440  0.2177
  925MOL0     C24797   6.822   9.070   3.347  0.4245  0.7354 -0.6292
  925MOL0     C24798   6.939   9.098   3.425 -0.2994 -0.7957 -0.4653
  925MOL0     O24799   7.056   9.035   3.395 -0.2480  0.6327  0.0450
  925MOL0     C24800   7.181   9.068   3.459 -1.0418  0.6332 -0.6810
  925MOL0     C24801   7.304   9.013   3.398  0.2232  0.1268  0.2074
  925MOL0     C24802   7.311   9.034   3.249  0.2976  0.0660  0.3840
  925MOL0     C24803   7.435   8.972   3.188  0.1920  0.3118 -0.3198
  925MOL0     C24804   7.528   9.060   3.120 -0.2656  0.4661  0.0589
  925MOL0     C24805   7.607   9.133   3.066  0.3800 -0.9359 -0.0147
  925MOL0     C24806   6.927   9.202   3.521  0.5811 -0.4827 -0.2009
  925MOL0     C24807   6.821   9.282   3.533  0.5577  0.4030  0.4063
  925MOL0     H24808   6.337   9.272   3.613  1.3249  0.6812 -1.1694
  925MOL0     H24809   6.128   9.367   3.663  0.2464  0.3771  0.1596
  925MOL0     H24810   5.876   9.368   3.603 -3.1803  0.5341 -0.2348
  925MOL0     H24811   5.956   9.513   3.667  3.0153  1.0495 -1.9393
  925MOL0     H24812   5.714   9.528   3.668 -1.0641 -1.9191 -0.5543
  925MOL0     H24813   5.762   9.647   3.547 -1.3404  0.0260  0.8431
  925MOL0     H24814   5.699   9.512   3.371 -2.8580  0.9677  0.4503
  925MOL0     H24815   5.670   9.364   3.480 -1.9364 -0.6044  0.3406
  925MOL0     H24816   5.497   9.476   3.595 -0.3777  0.9078  0.1171
  925MOL0     H24817   5.511   9.625   3.504 -0.8521 -0.3190 -2.8203
  925MOL0     H24818   5.439   9.515   3.290  0.3055 -0.0297  0.4680
  925MOL0     H24819   5.428   9.364   3.377  2.8623 -0.3421  2.4680
  925MOL0     H24820   5.253   9.445   3.507  2.2810 -1.5343  0.5199
  925MOL0     H24821   5.274   9.616   3.449 -2.1118 -0.1957  1.0590
  925MOL0     H24822   5.204   9.514   3.209 -0.7368  0.6503 -0.0367
  925MOL0     H24823   5.184   9.371   3.292 -1.0904 -0.1237 -0.0696
  925MOL0     H24824   4.981   9.536   3.259 -0.0379  0.6242 -0.5868
  925MOL0     H24825   5.043   9.613   3.412 -1.0319 -0.8860  1.6100
  925MOL0     H24826   5.032   9.482   3.644 -3.1910  1.4022  1.7609
  925MOL0     H24827   4.774   9.194   3.722 -1.2800  1.1929 -0.3094
  925MOL0     H24828   4.924   9.264   3.801 -1.3253 -1.6507  1.7070
  925MOL0     H24829   4.639   9.393   3.786 -2.1336 -0.2471  2.6477
  925MOL0     H24830   4.783   9.459   3.858 -0.9329 -0.4843 -1.3383
  925MOL0     H24831   4.782   9.249   4.025 -0.4355  0.3055  0.7233
  925MOL0     H24832   4.666   9.177   3.917  0.3030 -0.1924 -1.0726
  925MOL0     H24833   4.608   9.418   4.073  1.6353  0.4171 -0.1226
  925MOL0     H24834   4.532   9.249   4.104 -0.4233  1.6545  0.2299
  925MOL0     H24835   4.260   9.308   3.785  5.2119 -2.7991  1.3277
  925MOL0     H24836   3.898   9.325   3.843 -0.7187 -1.7817  0.5629
  925MOL0     H24837   4.027   9.336   3.721 -0.1270 -0.5282 -0.8626
  925MOL0     H24838   4.004   9.183   3.801 -0.4968  0.3064  2.3538
  925MOL0     H24839   3.589   9.192   3.931  0.4393  0.8138 -0.5885
  925MOL0     H24840   3.372   9.166   4.042  0.2574 -3.5497  0.6427
  925MOL0     H24841   3.177   9.170   4.185 -0.6712 -0.6582 -0.6527
  925MOL0     H24842   3.249   9.014   4.173 -2.2485 -0.6581 -1.6075
  925MOL0     H24843   3.169   8.979   4.427  0.6480 -0.0477 -0.5160
  925MOL0     H24844   3.075   9.115   4.417  3.4507  1.0340  1.3756
  925MOL0     H24845   3.062   8.859   4.256  2.0951 -0.5053  2.5836
  925MOL0     H24846   2.979   8.991   4.180  1.0387  0.2040 -0.4485
  925MOL0     H24847   2.849   8.810   4.332  2.2134  1.3585 -1.7959
  925MOL0     H24848   2.936   8.874   4.461 -2.1490 -0.8822  0.6316
  925MOL0     H24849   2.731   9.030   4.266 -1.6066  1.8154  1.7062
  925MOL0     H24850   2.827   9.122   4.374  1.1314 -0.5901  2.7597
  925MOL0     H24851   2.622   8.907   4.449  1.0715 -0.3189 -0.1597
  925MOL0     H24852   2.721   8.970   4.570 -2.5539 -2.3146 -0.1627
  925MOL0     H24853   2.640   9.204   4.541  0.3774  0.7176  0.2516
  925MOL0     H24854   2.502   9.098   4.547  1.1002 -2.3218 -0.1962
  925MOL0     H24855   2.440   9.218   4.396 -0.4545 -2.0052 -0.8150
  925MOL0     H24856   2.490   9.080   4.301 -0.5906 -1.9164  2.7431
  925MOL0     H24857   3.552   9.157   4.429 -0.5230  2.2947 -0.2393
  925MOL0     H24858   3.781   9.189   4.316  0.0247 -2.5159  0.3598
  925MOL0     H24859   4.172   9.376   4.267  1.1407  4.6987  0.0960
  925MOL0     H24860   4.379   9.391   4.194  2.4847 -0.7094 -0.7708
  925MOL0     H24861   6.110   9.539   3.263  1.0436  0.6038  0.4008
  925MOL0     H24862   6.336   9.494   3.241  2.0191  2.4868  1.3614
  925MOL0     H24863   6.616   9.118   3.312 -0.1855  3.2093 -0.3109
  925MOL0     H24864   6.819   8.996   3.267 -1.8281  1.4182 -1.2566
  925MOL0     H24865   7.194   9.175   3.471 -1.8742  0.5188  1.7415
  925MOL0     H24866   7.185   9.020   3.557 -2.9532 -0.1960 -0.9560
  925MOL0     H24867   7.310   8.905   3.417 -0.1693  0.2061  0.7882
  925MOL0     H24868   7.383   9.067   3.450 -1.4267  0.6356  2.3030
  925MOL0     H24869   7.296   9.139   3.222  0.4899 -0.8930 -4.1487
  925MOL0     H24870   7.218   8.988   3.215 -1.2490  2.1867  1.5054
  925MOL0     H24871   7.399   8.907   3.108  0.3994  0.4201 -0.4996
  925MOL0     H24872   7.485   8.905   3.258  0.6284  0.5624 -0.3895
  925MOL0     H24873   7.666   9.210   3.020 -1.2177 -0.2227 -0.9806
  925MOL0     H24874   7.008   9.233   3.585 -0.0707  1.8097 -0.4141
  925MOL0     H24875   6.830   9.356   3.612 -0.9282 -0.0897  1.0783
  926MOL0     O24876   0.208   7.351   2.606  0.4986 -0.1239 -0.5554
  926MOL0     C24877   0.246   7.423   2.512 -0.6284 -0.4953 -0.0333
  926MOL0     O24878   0.170   7.471   2.407  0.5536  0.5020 -0.8418
  926MOL0     C24879   0.036   7.429   2.391 -0.9130 -0.3626 -0.3778
  926MOL0     C24880  -0.007   7.360   2.277  0.0877  0.2661  0.2495
  926MOL0     C24881  -0.143   7.332   2.251  1.0251  0.0030 -0.5138
  926MOL0     C24882  -0.241   7.368   2.349  0.0400 -0.5348 -0.1287
  926MOL0     O24883  -0.374   7.346   2.337 -0.4142  0.2948  1.0983
  926MOL0     C24884  -0.432   7.272   2.230  0.1763 -0.3338  1.0539
  926MOL0     C24885  -0.582   7.311   2.213 -0.5021 -0.2492  0.1341
  926MOL0     C24886  -0.640   7.283   2.350 -0.1666 -0.1376 -0.0250
  926MOL0     C24887  -0.793   7.258   2.339  1.0579  0.3036  0.0626
  926MOL0     C24888  -0.840   7.196   2.477  0.2689  0.5769  0.8097
  926MOL0     C24889  -0.987   7.153   2.472  0.8186 -0.0051 -1.4529
  926MOL0     C24890  -1.010   7.074   2.598  0.7398  0.2205  0.2173
  926MOL0     C24891  -0.991   7.148   2.735  0.6418 -0.1213  0.4618
  926MOL0     N24892  -1.057   7.080   2.848  1.0334  0.2278  0.0431
  926MOL0     C24893  -1.199   7.091   2.876  1.0884 -0.3433 -0.2226
  926MOL0     C24894  -1.204   7.001   2.982  0.1164  0.1440 -0.5271
  926MOL0     C24895  -1.329   6.960   3.058 -0.5007 -0.3307 -0.0044
  926MOL0     C24896  -1.413   6.846   2.989 -0.4686  0.0243  0.5241
  926MOL0     C24897  -1.532   6.811   3.079  0.1985  0.7032  1.2575
  926MOL0     C24898  -1.643   6.764   3.000 -0.1424  0.5931  0.0164
  926MOL0     O24899  -1.770   6.798   3.051 -0.3419  0.9479  0.5638
  926MOL0     C24900  -1.884   6.729   3.012 -0.6876  0.1279  0.5955
  926MOL0     C24901  -1.901   6.691   2.873 -0.5027 -0.1260  0.0465
  926MOL0     C24902  -2.008   6.609   2.841 -0.5791  1.1894 -0.3948
  926MOL0     C24903  -2.033   6.564   2.705 -0.4141 -0.3369  0.2204
  926MOL0     C24904  -2.104   6.565   2.941  0.9293 -0.7363 -0.2144
  926MOL0     C24905  -2.231   6.491   2.908  0.1408 -0.4163  0.3231
  926MOL0     O24906  -2.300   6.533   2.797  0.1531  0.4622  0.0626
  926MOL0     C24907  -2.433   6.488   2.782 -0.2869 -0.4059 -1.2206
  926MOL0     C24908  -2.457   6.369   2.723  0.1281  0.2225  0.0338
  926MOL0     C24909  -2.599   6.335   2.705 -0.1881  0.6711 -0.1139
  926MOL0     C24910  -2.697   6.415   2.760  0.4908  0.5664 -0.4638
  926MOL0     O24911  -2.836   6.398   2.742 -0.1195 -0.8017 -0.0072
  926MOL0     C24912  -2.882   6.280   2.674  0.0060  0.2872 -0.3332
  926MOL0     C24913  -2.865   6.289   2.524  0.4442  0.0896  0.6887
  926MOL0     C24914  -2.904   6.424   2.467  0.5231  0.2959  0.8176
  926MOL0     C24915  -2.787   6.500   2.451 -0.3210 -0.9369  0.3247
  926MOL0     C24916  -2.808   6.631   2.388 -0.9976 -0.0873  0.2636
  926MOL0     C24917  -2.691   6.711   2.423  0.0628  0.4502  0.0980
  926MOL0     C24918  -2.557   6.645   2.386 -0.8039 -0.6231  0.2243
  926MOL0     C24919  -2.445   6.742   2.427  0.1384  0.9997 -0.5382
  926MOL0    Cl24920  -2.296   6.682   2.378 -0.3627  0.3495  0.0896
  926MOL0     C24921  -2.666   6.526   2.831 -0.6878 -0.3170  0.4786
  926MOL0     C24922  -2.532   6.555   2.850  0.1256  0.6605  0.1381
  926MOL0     O24923  -2.283   6.415   2.988 -0.5957 -0.6047 -0.3804
  926MOL0     C24924  -2.066   6.592   3.078  0.0321  0.2206 -0.2339
  926MOL0     C24925  -1.950   6.665   3.108  0.1013  0.6783  0.0503
  926MOL0     N24926  -1.082   6.944   3.005 -0.0990 -0.6956 -1.2269
  926MOL0     N24927  -0.994   6.999   2.932 -0.6555  0.2566 -0.0490
  926MOL0     C24928  -0.192   7.438   2.464 -0.5460 -0.5914 -0.1706
  926MOL0     C24929  -0.058   7.466   2.484  0.6987 -1.2691 -0.6925
  926MOL0     C24930   0.394   7.439   2.499  0.5119 -0.1148 -1.0784
  926MOL0     C24931   0.481   7.359   2.579 -0.1194 -0.3681  0.1478
  926MOL0     C24932   0.622   7.372   2.572 -0.6030  0.2724 -0.2908
  926MOL0     C24933   0.679   7.472   2.496  0.7519  0.9838 -0.1117
  926MOL0     O24934   0.807   7.474   2.487 -0.0588 -0.1105 -0.0111
  926MOL0     C24935   0.869   7.490   2.362 -0.1637  0.0955 -0.3231
  926MOL0     C24936   0.906   7.366   2.301  0.0174  0.3587  0.1527
  926MOL0     C24937   0.791   7.271   2.261  0.3234 -0.1266  0.4157
  926MOL0     C24938   0.808   7.189   2.134 -0.3828 -0.6471  0.0407
  926MOL0     C24939   0.772   7.256   2.013  0.1681  0.9853  0.3888
  926MOL0     C24940   0.740   7.303   1.909  0.1144  0.6567 -0.2281
  926MOL0     C24941   0.586   7.547   2.417 -0.9067  0.2165  0.7169
  926MOL0     C24942   0.449   7.541   2.418  0.9159  0.4955  0.2909
  926MOL0     H24943   0.069   7.333   2.205 -0.7810 -0.2008 -0.5093
  926MOL0     H24944  -0.178   7.265   2.174 -0.6935  0.5829 -0.2642
  926MOL0     H24945  -0.391   7.294   2.131 -1.8668  0.3818  0.3122
  926MOL0     H24946  -0.430   7.165   2.248 -4.0181 -1.0463 -1.4296
  926MOL0     H24947  -0.594   7.419   2.205 -0.6221  0.1440  4.0398
  926MOL0     H24948  -0.630   7.251   2.134  0.8866 -0.5489 -0.5294
  926MOL0     H24949  -0.588   7.198   2.396 -0.1928  0.0367  0.3306
  926MOL0     H24950  -0.632   7.367   2.420  2.4307 -0.6813  0.4236
  926MOL0     H24951  -0.831   7.359   2.320 -1.1120 -0.2078  1.2816
  926MOL0     H24952  -0.823   7.193   2.255 -0.0835  1.0116 -0.0982
  926MOL0     H24953  -0.778   7.106   2.483 -1.6633 -1.1006 -1.9849
  926MOL0     H24954  -0.827   7.273   2.554 -1.2992  1.4140  0.2736
  926MOL0     H24955  -1.061   7.233   2.464  0.4383 -0.0607  0.8390
  926MOL0     H24956  -0.998   7.085   2.387 -2.4834 -3.5089  1.3661
  926MOL0     H24957  -1.110   7.031   2.591  2.2231 -3.3256 -1.9496
  926MOL0     H24958  -0.942   6.989   2.609 -2.2215 -2.0635  3.2208
  926MOL0     H24959  -1.036   7.246   2.718  1.3854  0.0011 -0.9294
  926MOL0     H24960  -0.884   7.166   2.750  0.2349  3.1558  0.0855
  926MOL0     H24961  -1.283   7.140   2.826  0.5032 -1.6969 -0.5990
  926MOL0     H24962  -1.300   6.931   3.159  0.2573  2.4659  0.6804
  926MOL0     H24963  -1.379   7.056   3.073 -2.0870 -1.0637 -0.4277
  926MOL0     H24964  -1.365   6.750   2.972 -2.8445 -0.8952 -1.6321
  926MOL0     H24965  -1.432   6.890   2.891  3.0185  1.0036  0.1504
  926MOL0     H24966  -1.554   6.903   3.134 -0.9916  0.1894  1.6706
  926MOL0     H24967  -1.493   6.725   3.134 -0.3974 -1.8020 -1.9137
  926MOL0     H24968  -1.635   6.655   2.991  1.0976  0.6849 -0.1606
  926MOL0     H24969  -1.634   6.814   2.903  1.0533  0.9017  0.2684
  926MOL0     H24970  -1.824   6.719   2.803 -2.8904  1.9910 -1.9221
  926MOL0     H24971  -2.104   6.636   2.663 -0.5202 -0.3007  0.4594
  926MOL0     H24972  -1.946   6.575   2.641  0.6448  0.4649  1.7333
  926MOL0     H24973  -2.077   6.464   2.700 -1.4009  0.1382 -1.5104
  926MOL0     H24974  -2.378   6.303   2.690  0.6227  0.2821  1.0496
  926MOL0     H24975  -2.618   6.245   2.648 -0.9476  1.6420 -1.4381
  926MOL0     H24976  -2.844   6.185   2.712 -1.4842 -0.5927 -0.9361
  926MOL0     H24977  -2.987   6.275   2.703  0.5503 -0.4910  1.6155
  926MOL0     H24978  -2.762   6.261   2.499  0.4015 -1.9053  2.4144
  926MOL0     H24979  -2.936   6.220   2.477 -1.2915  2.8794 -1.0300
  926MOL0     H24980  -2.979   6.465   2.536  3.1583  1.0545  3.4262
  926MOL0     H24981  -2.956   6.417   2.371  0.5023  0.9485  0.7762
  926MOL0     H24982  -2.753   6.523   2.552 -1.1517  1.5135  0.1279
  926MOL0     H24983  -2.712   6.448   2.391  0.8537 -0.7754  1.6042
  926MOL0     H24984  -2.903   6.674   2.422 -2.2478 -2.3920 -0.0873
  926MOL0     H24985  -2.815   6.613   2.280  0.3060 -0.2986  0.1998
  926MOL0     H24986  -2.698   6.811   2.380  2.0423  0.4302 -0.3671
  926MOL0     H24987  -2.700   6.735   2.529 -2.5804 -0.7469  0.2019
  926MOL0     H24988  -2.552   6.616   2.281 -0.1327 -1.3031  0.4346
  926MOL0     H24989  -2.542   6.550   2.439 -3.0944 -1.0499  0.1855
  926MOL0     H24990  -2.452   6.764   2.534 -1.0735  1.0874 -0.6229
  926MOL0     H24991  -2.462   6.839   2.380  1.7946  3.8624  4.1370
  926MOL0     H24992  -2.738   6.592   2.879 -1.6298  0.0767 -1.3857
  926MOL0     H24993  -2.489   6.630   2.915 -1.9207  2.0295  0.0089
  926MOL0     H24994  -2.123   6.539   3.154  1.4440 -2.1728 -0.7370
  926MOL0     H24995  -1.920   6.687   3.210 -2.6826  3.7303  0.3959
  926MOL0     H24996  -0.269   7.471   2.532 -1.3568 -2.4796 -0.1111
  926MOL0     H24997  -0.030   7.531   2.567 -1.3149 -4.0636  2.3958
  926MOL0     H24998   0.433   7.290   2.648  1.3028  0.1676  1.7497
  926MOL0     H24999   0.683   7.316   2.643 -0.2109 -0.2146 -1.0007
  926MOL0     H25000   0.816   7.561   2.297 -0.0606 -0.3953 -0.9456
  926MOL0     H25001   0.967   7.538   2.367 -0.3625  0.6075 -1.1478
  926MOL0     H25002   0.980   7.322   2.369  1.7910  2.8829  0.0054
  926MOL0     H25003   0.958   7.390   2.208 -1.1824  0.0613 -0.6070
  926MOL0     H25004   0.703   7.333   2.247  0.5012  0.7829  2.8342
  926MOL0     H25005   0.767   7.207   2.346 -2.1869 -2.2019 -1.6753
  926MOL0     H25006   0.744   7.100   2.142 -3.0620  1.3410  5.1193
  926MOL0     H25007   0.911   7.160   2.115 -0.4012 -0.4510 -0.3675
  926MOL0     H25008   0.733   7.334   1.806 -0.9407 -2.5195 -1.2185
  926MOL0     H25009   0.626   7.624   2.352  1.7567 -2.5989 -1.1941
  926MOL0     H25010   0.380   7.602   2.362  0.7288  0.0687  0.0504
  927MOL0     O25011   6.228   2.197   5.643  0.0748 -0.1306 -0.3237
  927MOL0     C25012   6.257   2.115   5.731  0.1450  0.2441  0.2715
  927MOL0     O25013   6.168   2.061   5.828 -0.1814 -0.5216 -0.0216
  927MOL0     C25014   6.038   2.098   5.823  0.9986 -0.6153 -0.3720
  927MOL0     C25015   5.962   2.049   5.711 -0.0748 -0.3249 -1.6455
  927MOL0     C25016   5.822   2.069   5.710 -0.7836  0.5097 -0.1594
  927MOL0     C25017   5.756   2.124   5.820 -0.5403 -0.0120 -0.4200
  927MOL0     O25018   5.624   2.123   5.806  0.4368  0.2749  0.4554
  927MOL0     C25019   5.532   2.204   5.876  0.0926  0.2549 -0.5479
  927MOL0     C25020   5.490   2.114   5.994  0.5012 -0.2116 -0.1971
  927MOL0     C25021   5.409   1.993   5.944 -0.3923  0.5266  0.8092
  927MOL0     C25022   5.268   2.051   5.923 -0.0671  0.2949 -0.1315
  927MOL0     C25023   5.173   1.962   5.837 -0.1402 -0.3967 -0.1657
  927MOL0     C25024   5.031   2.017   5.821 -0.1492 -0.4935 -1.0253
  927MOL0     C25025   4.952   1.904   5.751  0.3800  0.0225  0.8222
  927MOL0     C25026   4.805   1.961   5.760 -0.3330  0.7713 -0.3782
  927MOL0     N25027   4.712   1.852   5.807  0.0439 -0.4212  0.1717
  927MOL0     C25028   4.674   1.745   5.730 -0.1610  0.0555 -0.7234
  927MOL0     C25029   4.638   1.655   5.824 -0.8205 -0.3173  0.0081
  927MOL0     C25030   4.604   1.512   5.802 -2.0505 -0.0677  0.0805
  927MOL0     C25031   4.448   1.495   5.766  0.5705  0.3221 -0.5971
  927MOL0     C25032   4.409   1.346   5.774 -0.3695  0.9616 -0.0735
  927MOL0     C25033   4.262   1.313   5.742 -1.1305 -0.1725 -0.3360
  927MOL0     O25034   4.239   1.182   5.685  0.5214  0.5006 -0.5725
  927MOL0     C25035   4.111   1.135   5.689  0.0465  0.4377  0.3434
  927MOL0     C25036   4.000   1.212   5.654 -0.3889  0.1016  0.5814
  927MOL0     C25037   3.868   1.157   5.669  0.0969 -0.7309 -1.0045
  927MOL0     C25038   3.762   1.246   5.603  0.5395 -1.3354 -1.0040
  927MOL0     C25039   3.841   1.036   5.727  0.3972 -0.0355 -0.7691
  927MOL0     C25040   3.709   0.979   5.734  0.4509  0.5786 -0.1322
  927MOL0     O25041   3.636   0.988   5.615  0.6348  1.0540 -0.7630
  927MOL0     C25042   3.521   0.917   5.590  0.5767  0.6973  0.4904
  927MOL0     C25043   3.495   0.903   5.457 -0.4191 -0.5942 -0.4846
  927MOL0     C25044   3.384   0.830   5.413  0.3666  0.3774 -0.3285
  927MOL0     C25045   3.312   0.747   5.500  0.1695 -0.0429  0.2957
  927MOL0     O25046   3.209   0.665   5.466 -0.3017  0.3003 -0.3946
  927MOL0     C25047   3.207   0.617   5.328  0.2080  0.1389 -0.5093
  927MOL0     C25048   3.109   0.492   5.323 -0.6504  0.0588  0.1865
  927MOL0     C25049   3.032   0.497   5.197  0.0192  0.3424 -0.3324
  927MOL0     C25050   3.105   0.458   5.057  1.1613 -0.9788 -0.2854
  927MOL0     C25051   3.168   0.313   5.052  0.1766 -0.3898 -0.0192
  927MOL0     C25052   3.269   0.311   4.932 -0.0127  0.2607  0.4284
  927MOL0     C25053   3.313   0.171   4.893  0.1107  0.3342 -0.7053
  927MOL0     C25054   3.426   0.173   4.794 -0.2698  0.2792 -0.5156
  927MOL0    Cl25055   3.585   0.240   4.859 -0.2769  0.5547 -0.4002
  927MOL0     C25056   3.338   0.756   5.634 -0.0911 -0.5055  0.1212
  927MOL0     C25057   3.429   0.848   5.677 -0.1160  0.5540  0.6949
  927MOL0     O25058   3.681   0.915   5.834  0.0643 -0.5445  0.0750
  927MOL0     C25059   3.956   0.957   5.759  0.8450  0.1407 -0.0842
  927MOL0     C25060   4.088   1.010   5.748  0.8833  0.6748 -0.4383
  927MOL0     N25061   4.642   1.713   5.954 -0.1997  0.2545  0.1864
  927MOL0     N25062   4.694   1.830   5.939  0.1536  0.5333  0.2062
  927MOL0     C25063   5.825   2.176   5.935  0.2347 -0.3197  0.1217
  927MOL0     C25064   5.971   2.158   5.931  0.7200  0.2986  1.2868
  927MOL0     C25065   6.394   2.050   5.721 -0.4972  0.2315 -0.8503
  927MOL0     C25066   6.493   2.089   5.628  0.0598  0.1102 -0.5338
  927MOL0     C25067   6.616   2.041   5.628 -0.2040 -0.2009 -0.2844
  927MOL0     C25068   6.661   1.943   5.718  0.0093  0.1405 -0.4715
  927MOL0     O25069   6.792   1.902   5.706  0.6652 -0.2450  0.1237
  927MOL0     C25070   6.847   1.804   5.797 -0.6319 -0.1159 -1.1492
  927MOL0     C25071   6.979   1.868   5.854  0.2216  0.9435  0.3574
  927MOL0     C25072   6.964   1.938   5.978  0.5655  0.5176  1.2064
  927MOL0     C25073   7.098   1.976   6.044  0.0274  0.8002 -1.0566
  927MOL0     C25074   7.074   2.052   6.175  0.2327  0.4824  0.8624
  927MOL0     C25075   7.048   2.120   6.274 -0.5972 -0.3428 -0.1643
  927MOL0     C25076   6.565   1.896   5.807  0.0845 -0.4562  0.4543
  927MOL0     C25077   6.433   1.948   5.805 -0.9887 -0.1186  0.0592
  927MOL0     H25078   6.020   1.994   5.637  1.4807 -1.6533  0.4620
  927MOL0     H25079   5.766   2.026   5.627 -0.6412 -0.2686  0.1317
  927MOL0     H25080   5.581   2.296   5.909  1.1437  0.1436 -1.7183
  927MOL0     H25081   5.448   2.231   5.810 -0.1521  0.7394 -0.0493
  927MOL0     H25082   5.585   2.072   6.029  1.1201 -0.7158 -2.3139
  927MOL0     H25083   5.440   2.168   6.074  0.8079  2.9294 -1.9465
  927MOL0     H25084   5.459   1.948   5.858  1.0118  2.2051  0.6730
  927MOL0     H25085   5.395   1.913   6.017 -2.2576 -0.1333 -0.2098
  927MOL0     H25086   5.214   2.090   6.009 -1.7384  0.8748 -1.3818
  927MOL0     H25087   5.292   2.141   5.865  3.6473 -0.5882 -0.2122
  927MOL0     H25088   5.220   1.950   5.739  0.0858 -1.7826  0.0941
  927MOL0     H25089   5.170   1.866   5.890  1.8171  0.0522  0.8681
  927MOL0     H25090   4.989   2.031   5.921  0.3633 -1.8154 -0.5984
  927MOL0     H25091   5.034   2.113   5.768  0.0517  1.0201  1.5746
  927MOL0     H25092   4.987   1.905   5.648  0.6491 -0.8969  0.8941
  927MOL0     H25093   4.969   1.802   5.788  0.7855  0.7190  2.6980
  927MOL0     H25094   4.782   1.991   5.658  2.8195  2.5048 -0.7140
  927MOL0     H25095   4.796   2.047   5.826  0.8614  1.2448 -0.8115
  927MOL0     H25096   4.684   1.715   5.626  0.7691 -1.5147 -0.2140
  927MOL0     H25097   4.663   1.454   5.729 -3.0535 -1.7291  0.5246
  927MOL0     H25098   4.618   1.456   5.895  0.6742 -0.8481 -0.7206
  927MOL0     H25099   4.428   1.540   5.668  1.3292  0.1407 -0.8405
  927MOL0     H25100   4.385   1.542   5.842  2.2502  1.7622 -0.0321
  927MOL0     H25101   4.426   1.298   5.871  2.5760 -2.5423 -2.0712
  927MOL0     H25102   4.481   1.300   5.706 -0.4145  0.3924  0.2552
  927MOL0     H25103   4.229   1.385   5.667 -1.5665  3.1461  2.7638
  927MOL0     H25104   4.202   1.323   5.833  0.5477 -3.3920  1.2980
  927MOL0     H25105   4.026   1.309   5.613  1.1212 -0.4035  0.2816
  927MOL0     H25106   3.793   1.350   5.604 -1.1830 -0.7869 -1.0342
  927MOL0     H25107   3.749   1.217   5.498 -2.1883 -2.1659 -0.5339
  927MOL0     H25108   3.660   1.246   5.644  0.4957 -1.4574 -1.1086
  927MOL0     H25109   3.553   0.964   5.388  1.0977  2.2149  2.9515
  927MOL0     H25110   3.349   0.827   5.310  0.3795  1.9886 -0.3966
  927MOL0     H25111   3.157   0.690   5.265 -3.9131 -1.6546  0.3196
  927MOL0     H25112   3.305   0.598   5.283  0.0548  2.1438 -1.8207
  927MOL0     H25113   3.179   0.409   5.327  2.2507  2.3046 -0.4009
  927MOL0     H25114   3.046   0.500   5.412 -0.0352  1.5163  0.5246
  927MOL0     H25115   2.998   0.601   5.197  0.9966  0.6708 -0.2892
  927MOL0     H25116   2.939   0.441   5.213 -2.0713  3.6195  0.0675
  927MOL0     H25117   3.031   0.472   4.977 -0.0546  1.6764  1.1851
  927MOL0     H25118   3.178   0.534   5.029  0.4696  0.0284  0.5725
  927MOL0     H25119   3.095   0.234   5.032  1.2244 -2.3634  3.1343
  927MOL0     H25120   3.217   0.299   5.149 -0.9472  1.2061  0.8117
  927MOL0     H25121   3.224   0.367   4.849 -1.2960 -0.9146  0.2838
  927MOL0     H25122   3.358   0.364   4.966 -0.6978  2.7367 -1.3389
  927MOL0     H25123   3.225   0.122   4.851 -0.6571  1.4433 -0.3993
  927MOL0     H25124   3.333   0.105   4.978 -0.2700 -1.9495 -2.3006
  927MOL0     H25125   3.394   0.228   4.706 -0.4825 -0.4803 -0.9290
  927MOL0     H25126   3.448   0.072   4.756 -1.2600 -0.7640  1.5067
  927MOL0     H25127   3.292   0.684   5.701 -3.7933  2.6286  1.3405
  927MOL0     H25128   3.456   0.835   5.781  0.5618 -2.6273  0.2396
  927MOL0     H25129   3.930   0.856   5.789  1.0523 -0.4598 -1.7988
  927MOL0     H25130   4.167   0.942   5.779 -0.3336 -0.4634  0.2694
  927MOL0     H25131   5.773   2.208   6.025 -0.6618 -0.7849 -0.2181
  927MOL0     H25132   6.037   2.179   6.014  3.6104  2.0212 -1.2226
  927MOL0     H25133   6.476   2.165   5.552  3.6735  1.0374 -0.5838
  927MOL0     H25134   6.692   2.074   5.558  0.8203 -0.0250  0.8702
  927MOL0     H25135   6.782   1.781   5.881  2.3104  0.1763  1.4099
  927MOL0     H25136   6.876   1.716   5.739 -3.0248 -0.6592 -1.6094
  927MOL0     H25137   7.014   1.942   5.782 -1.0908  2.2459  1.0165
  927MOL0     H25138   7.054   1.788   5.857  0.4080  1.1326  0.8062
  927MOL0     H25139   6.906   1.875   6.046 -0.5665  1.3463  1.0432
  927MOL0     H25140   6.897   2.021   5.950 -1.6008 -1.7553 -0.9012
  927MOL0     H25141   7.163   2.032   5.977  2.5586  0.4539  0.9411
  927MOL0     H25142   7.153   1.883   6.062  1.1422  1.7668  0.8571
  927MOL0     H25143   7.021   2.181   6.358  1.0554 -1.2720  1.1033
  927MOL0     H25144   6.592   1.821   5.880 -2.7728 -3.0979 -0.9414
  927MOL0     H25145   6.370   1.910   5.885  0.1586 -2.1556  0.0638
  928MOL0     O25146   3.303   2.052   1.871 -0.3743  0.1567 -0.1840
  928MOL0     C25147   3.248   2.088   1.766  0.4355 -0.0630 -0.1696
  928MOL0     O25148   3.110   2.078   1.744  0.2884  0.4930 -0.2982
  928MOL0     C25149   3.014   2.039   1.841  0.3112 -0.6896  0.4430
  928MOL0     C25150   3.039   2.052   1.972 -0.0961  0.1032  0.1722
  928MOL0     C25151   2.936   2.031   2.062 -0.2955 -0.3794  0.1084
  928MOL0     C25152   2.806   2.004   2.015  0.6955  0.2282  0.5802
  928MOL0     O25153   2.692   2.004   2.097 -0.6527  0.1676 -0.0198
  928MOL0     C25154   2.654   2.129   2.150  0.9815  0.2586  0.5978
  928MOL0     C25155   2.549   2.195   2.056  0.3790  0.7322 -0.0854
  928MOL0     C25156   2.411   2.214   2.120  0.1511  0.5518 -0.7757
  928MOL0     C25157   2.295   2.276   2.041  0.0809 -0.1908 -0.0287
  928MOL0     C25158   2.158   2.259   2.099 -0.4989 -0.8500 -0.6659
  928MOL0     C25159   2.059   2.285   1.990  0.7562  0.4389  0.3639
  928MOL0     C25160   1.915   2.254   2.041  0.1879  0.0557  0.4266
  928MOL0     C25161   1.820   2.264   1.915 -0.1822  0.1188 -0.7553
  928MOL0     N25162   1.680   2.219   1.931  0.2623 -0.4806  0.4835
  928MOL0     C25163   1.614   2.132   1.849 -0.0158  0.6649  0.3210
  928MOL0     C25164   1.483   2.125   1.901  0.2780 -0.1545  0.5631
  928MOL0     C25165   1.383   2.032   1.827  0.4351  0.4723  0.1451
  928MOL0     C25166   1.255   2.023   1.900 -0.0868  0.3551  0.7374
  928MOL0     C25167   1.171   1.904   1.866 -0.4906 -0.1993 -0.4019
  928MOL0     C25168   1.057   1.879   1.955  0.7788 -0.9658  0.7318
  928MOL0     O25169   0.951   1.981   1.940  0.3398  0.6570  0.7493
  928MOL0     C25170   0.823   1.957   1.981 -0.5554  0.1904  0.9725
  928MOL0     C25171   0.776   1.839   2.045 -0.1078 -0.2436  0.6327
  928MOL0     C25172   0.641   1.824   2.091  0.4381 -1.0207  0.4771
  928MOL0     C25173   0.601   1.694   2.146 -0.9076 -0.8279 -0.2545
  928MOL0     C25174   0.542   1.926   2.062  0.0993  0.3024  0.8873
  928MOL0     C25175   0.399   1.923   2.107  1.1158 -0.4070 -1.0978
  928MOL0     O25176   0.377   1.860   2.230 -0.0194  0.2843  0.0474
  928MOL0     C25177   0.245   1.839   2.262  0.6363 -0.8332 -0.4616
  928MOL0     C25178   0.186   1.704   2.263 -0.4226 -0.5215  0.3686
  928MOL0     C25179   0.051   1.685   2.303 -0.3214  0.4589  0.4324
  928MOL0     C25180  -0.026   1.795   2.340  0.2710  0.0734  0.2584
  928MOL0     O25181  -0.152   1.786   2.396 -0.2798 -0.4192  0.1596
  928MOL0     C25182  -0.235   1.671   2.360 -0.6593 -0.5191 -0.0879
  928MOL0     C25183  -0.391   1.695   2.366 -0.7262 -0.5729  0.8443
  928MOL0     C25184  -0.473   1.572   2.396  0.3278 -0.2590 -0.0097
  928MOL0     C25185  -0.620   1.614   2.400 -0.4984  0.1285 -0.0163
  928MOL0     C25186  -0.683   1.498   2.477  0.0161 -0.3258  0.0941
  928MOL0     C25187  -0.832   1.528   2.464 -0.4297 -0.4643 -0.2666
  928MOL0     C25188  -0.921   1.440   2.560  0.1874 -0.2834  0.3117
  928MOL0     C25189  -1.003   1.522   2.665 -0.6129  0.0658  0.4347
  928MOL0    Cl25190  -1.110   1.418   2.767 -0.9281  0.2238 -0.0339
  928MOL0     C25191   0.032   1.927   2.343 -0.3836  0.4367 -0.4229
  928MOL0     C25192   0.165   1.949   2.309 -1.4756 -0.2238  0.7029
  928MOL0     O25193   0.314   1.980   2.040 -0.1742 -0.0460  1.0108
  928MOL0     C25194   0.596   2.044   2.001  0.0508 -0.8774  0.1233
  928MOL0     C25195   0.732   2.053   1.957 -0.3468 -0.0143 -0.0767
  928MOL0     N25196   1.475   2.207   2.005  0.5500  0.5618  0.0065
  928MOL0     N25197   1.591   2.262   2.018 -0.6451 -0.4159 -0.4652
  928MOL0     C25198   2.793   1.976   1.880  0.1830  0.7433  0.2976
  928MOL0     C25199   2.899   2.002   1.791 -0.2644 -0.5031  0.1359
  928MOL0     C25200   3.331   2.111   1.644  0.2646  0.1969  0.4289
  928MOL0     C25201   3.451   2.181   1.661  0.4596 -0.4961  0.5335
  928MOL0     C25202   3.525   2.228   1.544  0.0259  0.5380 -0.8519
  928MOL0     C25203   3.477   2.193   1.411 -0.3709 -0.1989  0.3732
  928MOL0     O25204   3.567   2.207   1.308 -0.7227 -0.1015 -1.2880
  928MOL0     C25205   3.531   2.202   1.171  0.2132 -0.1134 -0.3295
  928MOL0     C25206   3.649   2.240   1.091  0.0422  0.9021  0.3694
  928MOL0     C25207   3.712   2.374   1.139 -0.5853  0.5352 -1.1344
  928MOL0     C25208   3.835   2.356   1.234 -0.4693  0.6265  0.5864
  928MOL0     C25209   3.956   2.300   1.165  0.1710  0.1369 -0.6385
  928MOL0     C25210   4.046   2.263   1.093  0.6874 -0.1537 -0.1509
  928MOL0     C25211   3.368   2.103   1.403  0.4620 -0.1557 -0.3427
  928MOL0     C25212   3.291   2.067   1.512  0.2735 -0.2947 -0.1611
  928MOL0     H25213   3.134   2.084   2.015 -0.0360  1.5249 -0.9742
  928MOL0     H25214   2.959   2.038   2.168  0.9737 -0.6405 -0.1339
  928MOL0     H25215   2.613   2.123   2.251  3.5549 -1.2348  1.6394
  928MOL0     H25216   2.744   2.188   2.168  0.5440  0.8954  0.7522
  928MOL0     H25217   2.587   2.292   2.024 -0.0030  0.6786 -0.7289
  928MOL0     H25218   2.533   2.128   1.971  2.9366 -2.4352  1.7234
  928MOL0     H25219   2.361   2.118   2.140 -0.8115  1.0489 -0.7345
  928MOL0     H25220   2.428   2.269   2.213 -1.5527  4.1624 -2.4305
  928MOL0     H25221   2.318   2.380   2.017  2.0290 -0.6325 -0.2576
  928MOL0     H25222   2.303   2.241   1.937 -1.6844 -0.7711  0.0022
  928MOL0     H25223   2.144   2.162   2.148 -1.7740  0.0803  0.9186
  928MOL0     H25224   2.145   2.342   2.170 -2.9732  0.6846 -2.7351
  928MOL0     H25225   2.063   2.392   1.969  1.3878  0.3435 -0.0169
  928MOL0     H25226   2.078   2.222   1.903 -2.6248 -1.8540  1.0707
  928MOL0     H25227   1.905   2.157   2.089 -0.6292 -1.0620 -1.8453
  928MOL0     H25228   1.877   2.334   2.106 -1.0523  0.5751 -0.8743
  928MOL0     H25229   1.867   2.203   1.837  4.2323  0.6129  1.2380
  928MOL0     H25230   1.822   2.369   1.884 -1.0598  0.3907  0.0600
  928MOL0     H25231   1.659   2.063   1.777  1.2259 -0.1078  1.7715
  928MOL0     H25232   1.371   2.073   1.727  0.0817  1.8569  0.7277
  928MOL0     H25233   1.434   1.935   1.818  0.3585  0.0066  3.4099
  928MOL0     H25234   1.194   2.114   1.906 -2.5672 -1.2506  1.4634
  928MOL0     H25235   1.284   2.011   2.005 -0.0218  3.1470  1.1080
  928MOL0     H25236   1.239   1.819   1.862  0.4010  0.5350 -4.0718
  928MOL0     H25237   1.137   1.928   1.765 -1.5971  1.1038  0.2401
  928MOL0     H25238   1.074   1.866   2.062  0.5866 -0.2429  0.8567
  928MOL0     H25239   1.009   1.789   1.916  1.6291 -0.7651 -0.8598
  928MOL0     H25240   0.843   1.761   2.078 -1.2230 -1.5924 -0.1980
  928MOL0     H25241   0.571   1.711   2.250  0.7033 -0.8249  0.2227
  928MOL0     H25242   0.525   1.644   2.085  2.7000 -0.3832 -5.7610
  928MOL0     H25243   0.687   1.627   2.155 -0.1723  0.1802  0.3766
  928MOL0     H25244   0.256   1.622   2.249 -1.8481 -1.5397 -1.0713
  928MOL0     H25245   0.018   1.582   2.305 -0.4943  0.4982 -0.1438
  928MOL0     H25246  -0.220   1.632   2.259 -2.1714 -0.4524 -0.3561
  928MOL0     H25247  -0.202   1.586   2.420 -0.2358 -1.6161 -1.7779
  928MOL0     H25248  -0.416   1.770   2.442  0.8481  1.1787 -0.3037
  928MOL0     H25249  -0.419   1.734   2.268 -0.7043 -1.3232  0.5310
  928MOL0     H25250  -0.444   1.541   2.497 -1.5944 -0.4289  0.5407
  928MOL0     H25251  -0.455   1.489   2.327 -0.9320 -3.3002  3.0139
  928MOL0     H25252  -0.625   1.705   2.460 -1.1109 -1.5111  2.5479
  928MOL0     H25253  -0.663   1.624   2.299 -0.7071 -2.1035 -0.1890
  928MOL0     H25254  -0.646   1.496   2.580  0.5084  0.7778 -0.0474
  928MOL0     H25255  -0.662   1.400   2.432  0.5429 -0.2583  0.1845
  928MOL0     H25256  -0.845   1.634   2.487  0.4949 -0.4578  0.2596
  928MOL0     H25257  -0.868   1.503   2.364 -2.4133 -3.5844  1.0897
  928MOL0     H25258  -0.856   1.374   2.617  0.7195 -1.1845 -1.2715
  928MOL0     H25259  -0.985   1.374   2.501 -0.2483  0.9907 -0.7048
  928MOL0     H25260  -1.062   1.603   2.622  0.1844 -0.6054 -2.1020
  928MOL0     H25261  -0.935   1.580   2.728 -1.3595  1.3424  0.0848
  928MOL0     H25262  -0.033   2.012   2.360  0.6293  0.7834  2.0841
  928MOL0     H25263   0.202   2.051   2.316 -0.9199 -0.4603  1.3152
  928MOL0     H25264   0.532   2.131   1.999 -1.3858 -1.4873  5.2048
  928MOL0     H25265   0.769   2.143   1.907 -4.3459  1.0549 -1.4656
  928MOL0     H25266   2.700   1.936   1.841  0.1292  2.5242 -1.5909
  928MOL0     H25267   2.886   1.989   1.683  3.6874  1.7000 -0.7705
  928MOL0     H25268   3.495   2.206   1.757 -0.6545 -2.2450  1.5506
  928MOL0     H25269   3.615   2.288   1.546 -1.7471  3.4153  1.7217
  928MOL0     H25270   3.513   2.096   1.149  2.7555 -1.0579  1.6919
  928MOL0     H25271   3.445   2.268   1.153  2.3410  3.0229  0.2774
  928MOL0     H25272   3.613   2.246   0.988 -0.4664  0.2851  0.5042
  928MOL0     H25273   3.721   2.158   1.093  0.7506  1.4954 -0.3982
  928MOL0     H25274   3.641   2.437   1.193  1.7120  1.7881  0.6486
  928MOL0     H25275   3.746   2.440   1.059  0.7706  0.5276 -0.6057
  928MOL0     H25276   3.809   2.290   1.317 -0.0539  0.7713  0.8324
  928MOL0     H25277   3.866   2.454   1.271 -1.9875  1.7925 -1.0765
  928MOL0     H25278   4.121   2.236   1.021  0.8841 -1.0519  0.3712
  928MOL0     H25279   3.348   2.057   1.307 -0.0615  0.0571 -0.3400
  928MOL0     H25280   3.206   2.004   1.485  0.0884  0.6923 -2.0361
  929MOL0     O25281   3.178   7.655   8.200 -0.1337 -0.1760  0.1140
  929MOL0     C25282   3.207   7.771   8.227  0.0413 -0.0514  0.8075
  929MOL0     O25283   3.130   7.846   8.300 -0.1620 -0.1229 -0.7329
  929MOL0     C25284   3.000   7.825   8.318 -0.1074  0.1159  0.4079
  929MOL0     C25285   2.942   7.867   8.430  0.7950  0.6979 -0.9721
  929MOL0     C25286   2.805   7.842   8.452  0.2765 -0.2733 -0.2680
  929MOL0     C25287   2.715   7.794   8.349 -0.2668 -1.7356 -0.8731
  929MOL0     O25288   2.579   7.777   8.356 -0.6834  0.2089  0.3151
  929MOL0     C25289   2.512   7.828   8.476  0.2860 -0.2602  0.0887
  929MOL0     C25290   2.370   7.777   8.478  0.1764  0.5977 -0.4273
  929MOL0     C25291   2.281   7.827   8.366  0.2112  0.1868  0.1684
  929MOL0     C25292   2.155   7.744   8.349  0.3876  0.9155  0.5575
  929MOL0     C25293   2.042   7.782   8.451 -0.6339  0.8126 -0.0415
  929MOL0     C25294   1.911   7.705   8.424  0.3074  0.1894  0.3748
  929MOL0     C25295   1.815   7.683   8.540  0.0380 -0.4394  0.3356
  929MOL0     C25296   1.754   7.811   8.601  0.5805 -0.7159 -0.8533
  929MOL0     N25297   1.681   7.888   8.503 -0.5914 -0.9866 -0.4259
  929MOL0     C25298   1.594   7.843   8.406  0.4321 -0.0479  0.4896
  929MOL0     C25299   1.608   7.934   8.308  0.4763 -0.2076 -0.1293
  929MOL0     C25300   1.532   7.924   8.172  0.1922  0.6651 -0.0005
  929MOL0     C25301   1.552   7.798   8.088  0.3457 -0.1084  0.1007
  929MOL0     C25302   1.646   7.812   7.970  0.2452  0.0691 -0.0387
  929MOL0     C25303   1.788   7.855   7.998 -0.1451  0.4440  0.0752
  929MOL0     O25304   1.859   7.838   7.871 -0.0276 -0.3223 -0.6676
  929MOL0     C25305   1.984   7.789   7.885 -0.1337 -0.2920  0.2806
  929MOL0     C25306   2.084   7.880   7.845 -0.4766 -0.8584 -0.1452
  929MOL0     C25307   2.222   7.851   7.863  0.7859  0.0364  0.9247
  929MOL0     C25308   2.315   7.958   7.818  0.7157 -0.2374  0.0323
  929MOL0     C25309   2.261   7.727   7.909  0.8772 -0.6814 -0.6205
  929MOL0     C25310   2.402   7.686   7.925 -0.5010 -0.0191  0.5110
  929MOL0     O25311   2.500   7.757   7.858  0.2662 -0.9181  0.1901
  929MOL0     C25312   2.633   7.731   7.865 -1.4818 -0.5004  0.0216
  929MOL0     C25313   2.702   7.616   7.916 -0.3903  0.8108  0.3560
  929MOL0     C25314   2.843   7.608   7.900 -0.2056 -0.1295  0.2400
  929MOL0     C25315   2.924   7.705   7.834 -0.6594  0.3483  0.0216
  929MOL0     O25316   3.058   7.693   7.811  0.6604  0.7318  0.4219
  929MOL0     C25317   3.119   7.564   7.825 -0.0817 -0.8732  0.4598
  929MOL0     C25318   3.267   7.580   7.809  0.8782 -0.0693  0.2206
  929MOL0     C25319   3.337   7.440   7.842  0.2828 -0.2269  0.3363
  929MOL0     C25320   3.480   7.435   7.773  0.3110  1.1681 -0.0657
  929MOL0     C25321   3.589   7.493   7.868  0.0844  0.3331  0.5462
  929MOL0     C25322   3.721   7.524   7.786 -0.9179 -1.0584 -1.0505
  929MOL0     C25323   3.720   7.641   7.682 -1.3576  0.4187 -0.3750
  929MOL0     C25324   3.688   7.785   7.734  0.1978  0.2239  0.6397
  929MOL0    Cl25325   3.508   7.803   7.749  0.4958 -0.3830  0.0439
  929MOL0     C25326   2.851   7.816   7.783 -0.2499 -0.0431 -0.3225
  929MOL0     C25327   2.708   7.826   7.797 -0.1782 -0.1845 -0.4536
  929MOL0     O25328   2.422   7.587   7.997  0.5300  1.0104 -0.5598
  929MOL0     C25329   2.159   7.640   7.953  0.9098 -0.8020 -0.5126
  929MOL0     C25330   2.023   7.667   7.938  0.2819 -0.1564  0.2087
  929MOL0     N25331   1.684   8.034   8.350 -0.3387 -0.1540  0.1435
  929MOL0     N25332   1.730   8.011   8.464 -0.0705 -0.5141 -0.1736
  929MOL0     C25333   2.780   7.782   8.226 -0.3810  0.5455  0.6554
  929MOL0     C25334   2.919   7.794   8.211  0.0347 -0.2558 -0.2280
  929MOL0     C25335   3.336   7.823   8.178  0.4004  0.2402  0.2482
  929MOL0     C25336   3.459   7.751   8.173 -0.3841  0.6867 -0.9149
  929MOL0     C25337   3.573   7.808   8.130  1.4413  0.6875 -0.3804
  929MOL0     C25338   3.578   7.927   8.066  0.3840  0.2279  0.2099
  929MOL0     O25339   3.701   7.964   8.020 -0.1771  0.7645  0.3877
  929MOL0     C25340   3.715   8.089   7.949  0.2947 -0.5746 -0.1960
  929MOL0     C25341   3.742   8.211   8.039  0.2875  0.5934 -0.7356
  929MOL0     C25342   3.893   8.225   8.071  0.0042  0.5916 -0.0784
  929MOL0     C25343   3.949   8.108   8.161  0.2151 -0.1464 -0.1290
  929MOL0     C25344   3.887   8.072   8.284  0.3881  0.8561 -0.4294
  929MOL0     C25345   3.829   8.065   8.395 -1.7601 -0.1962 -0.0819
  929MOL0     C25346   3.451   7.996   8.057 -0.1397 -0.1582  0.0549
  929MOL0     C25347   3.332   7.946   8.112 -0.6097 -0.2829 -0.8817
  929MOL0     H25348   3.002   7.926   8.499 -0.7720  0.9227  0.2634
  929MOL0     H25349   2.765   7.854   8.553  0.1102 -2.9195  0.0495
  929MOL0     H25350   2.564   7.804   8.569 -0.5301  0.8676  0.8683
  929MOL0     H25351   2.512   7.937   8.485  0.0650 -0.3811  2.2009
  929MOL0     H25352   2.378   7.668   8.467  1.3803  0.4444  1.4298
  929MOL0     H25353   2.324   7.808   8.572 -0.8023 -1.7186 -0.0680
  929MOL0     H25354   2.249   7.930   8.387  1.8954  0.5934  0.9623
  929MOL0     H25355   2.348   7.835   8.280  0.7565  1.0723  0.6556
  929MOL0     H25356   2.107   7.760   8.252 -1.7694  1.0484  1.5790
  929MOL0     H25357   2.180   7.637   8.353  1.2134  0.9651 -1.7093
  929MOL0     H25358   2.074   7.757   8.552 -1.1941  1.2907  0.2577
  929MOL0     H25359   2.019   7.889   8.451  0.5736  1.0943 -0.8114
  929MOL0     H25360   1.867   7.769   8.348  2.8113 -0.9119 -2.1854
  929MOL0     H25361   1.933   7.607   8.380 -0.8846  0.4612 -0.9104
  929MOL0     H25362   1.740   7.613   8.501  1.4555 -1.0855 -1.3755
  929MOL0     H25363   1.870   7.626   8.616 -0.1449 -1.1374 -0.0473
  929MOL0     H25364   1.823   7.880   8.650  0.8338 -2.8096  2.0451
  929MOL0     H25365   1.681   7.781   8.677 -0.3540 -1.5539 -2.0495
  929MOL0     H25366   1.542   7.747   8.406  2.4026 -1.1893 -1.0264
  929MOL0     H25367   1.427   7.921   8.202 -0.3895 -0.2341 -1.9867
  929MOL0     H25368   1.547   8.010   8.107  0.7946 -1.1222 -2.3623
  929MOL0     H25369   1.458   7.749   8.060 -0.9197  0.3401  3.1188
  929MOL0     H25370   1.589   7.723   8.159  0.0084 -1.2386 -0.8815
  929MOL0     H25371   1.601   7.886   7.902 -1.8656  0.6485  1.8514
  929MOL0     H25372   1.653   7.714   7.923  1.1883 -0.1003  0.4263
  929MOL0     H25373   1.832   7.790   8.074  3.7544 -0.6832 -2.8273
  929MOL0     H25374   1.795   7.954   8.044 -0.0526  0.5928 -0.2540
  929MOL0     H25375   2.067   7.981   7.809  4.6676 -0.0886 -1.3098
  929MOL0     H25376   2.255   8.049   7.805  0.6338 -0.5115 -1.8303
  929MOL0     H25377   2.387   7.969   7.899 -0.9303  0.5979  1.4409
  929MOL0     H25378   2.359   7.926   7.723 -2.8435 -1.0630 -1.5273
  929MOL0     H25379   2.646   7.540   7.968  0.3226  0.3515  0.4691
  929MOL0     H25380   2.893   7.520   7.937  1.3621 -0.2343 -1.9385
  929MOL0     H25381   3.100   7.525   7.925 -1.8366 -1.7283 -0.1669
  929MOL0     H25382   3.086   7.490   7.751  1.4592  1.1788 -2.4723
  929MOL0     H25383   3.279   7.597   7.702  3.1962 -1.4260  0.1960
  929MOL0     H25384   3.308   7.671   7.853  1.9685 -0.9178  1.0332
  929MOL0     H25385   3.283   7.351   7.811  0.7169 -1.0574  1.8593
  929MOL0     H25386   3.352   7.449   7.950  0.5648  2.2243  0.1516
  929MOL0     H25387   3.514   7.337   7.738 -0.9098  0.6380  0.1773
  929MOL0     H25388   3.468   7.498   7.685 -2.0306  0.4506 -0.3049
  929MOL0     H25389   3.621   7.432   7.953  0.7522 -0.6860 -0.4184
  929MOL0     H25390   3.556   7.585   7.918 -1.4477  0.4527 -0.6117
  929MOL0     H25391   3.803   7.553   7.852 -0.8427  0.2234 -1.6775
  929MOL0     H25392   3.755   7.432   7.738  3.3248  0.9564 -2.3577
  929MOL0     H25393   3.645   7.612   7.607 -0.1284 -0.0991 -1.4340
  929MOL0     H25394   3.816   7.644   7.629 -1.6278  0.9615 -0.8472
  929MOL0     H25395   3.720   7.865   7.667  0.7500  1.4365  2.2793
  929MOL0     H25396   3.738   7.808   7.829  1.1089 -0.8770  0.4484
  929MOL0     H25397   2.901   7.901   7.738  0.7775 -0.5941 -0.2495
  929MOL0     H25398   2.655   7.912   7.759  1.6564  2.0125  1.6172
  929MOL0     H25399   2.181   7.555   8.018 -0.9294  0.3162  1.7129
  929MOL0     H25400   1.964   7.577   7.953  0.7095 -0.4187  0.3226
  929MOL0     H25401   2.722   7.741   8.144  1.5567 -0.9185 -0.0316
  929MOL0     H25402   2.961   7.763   8.116 -1.1022 -3.0435  0.0738
  929MOL0     H25403   3.462   7.648   8.205  3.6467  0.8003 -0.3962
  929MOL0     H25404   3.662   7.747   8.147  1.1479  0.5967  0.9523
  929MOL0     H25405   3.800   8.090   7.880  0.4725  1.9861 -0.0224
  929MOL0     H25406   3.618   8.099   7.898 -1.5098  0.1472  3.0702
  929MOL0     H25407   3.696   8.205   8.138  3.9152 -0.7744  1.0702
  929MOL0     H25408   3.707   8.307   8.001  0.1723  0.1297 -1.8367
  929MOL0     H25409   3.902   8.319   8.125 -1.2702  0.2201  0.8323
  929MOL0     H25410   3.944   8.217   7.975  0.9232  0.1194  0.4400
  929MOL0     H25411   4.054   8.124   8.187 -0.0369  0.5976  0.4540
  929MOL0     H25412   3.942   8.021   8.096 -1.1978  1.7590 -2.6964
  929MOL0     H25413   3.786   8.048   8.492 -0.6256 -0.0106  0.4734
  929MOL0     H25414   3.425   8.092   8.013 -1.2017 -2.0187 -3.8641
  929MOL0     H25415   3.241   8.005   8.113 -0.2144  0.3643  1.4910
  930MOL0     O25416   9.766  10.218   8.576  0.6025  0.0179  0.2671
  930MOL0     C25417   9.797  10.126   8.501  0.1260  0.8651  0.0811
  930MOL0     O25418   9.731  10.005   8.498 -0.4753  0.8357  0.2055
  930MOL0     C25419   9.597   9.982   8.527 -0.7711 -0.9422 -0.1521
  930MOL0     C25420   9.500  10.077   8.564  0.5638 -0.2977  1.2333
  930MOL0     C25421   9.366  10.042   8.583  0.1969 -0.0900 -0.5222
  930MOL0     C25422   9.323   9.911   8.587 -0.1440  1.6794 -0.8068
  930MOL0     O25423   9.196   9.887   8.640 -0.1492  0.5736  0.0835
  930MOL0     C25424   9.144   9.755   8.643  0.4147 -0.1505 -0.7752
  930MOL0     C25425   9.027   9.763   8.751  0.3368  0.5289  0.6848
  930MOL0     C25426   8.897   9.817   8.686  0.1321  0.6067 -0.3383
  930MOL0     C25427   8.778   9.804   8.782 -0.0646  0.0524 -0.2500
  930MOL0     C25428   8.656   9.895   8.743 -0.5044  0.6386 -0.5391
  930MOL0     C25429   8.534   9.831   8.809  0.9564 -0.3216  0.3872
  930MOL0     C25430   8.407   9.905   8.759  0.1015  0.1363 -0.1348
  930MOL0     C25431   8.359   9.858   8.618  0.0860 -0.3711 -0.5412
  930MOL0     N25432   8.230   9.926   8.591  0.5830 -0.1381  0.0268
  930MOL0     C25433   8.197   9.974   8.469 -0.7206 -0.3497  0.8720
  930MOL0     C25434   8.073  10.029   8.474  0.1189  1.0360 -1.2078
  930MOL0     C25435   7.993  10.074   8.345  0.7519  0.8615 -0.4895
  930MOL0     C25436   8.074  10.174   8.252 -0.5434 -0.7286 -0.3413
  930MOL0     C25437   8.146  10.288   8.324  0.0561  0.7061  0.7044
  930MOL0     C25438   8.046  10.373   8.407 -0.0789  0.2175  0.0794
  930MOL0     O25439   7.950  10.431   8.320  0.2666 -0.5530 -0.2602
  930MOL0     C25440   7.847  10.507   8.370 -0.5906  0.9698  0.1727
  930MOL0     C25441   7.752  10.562   8.286  0.0884  0.6064 -0.1207
  930MOL0     C25442   7.651  10.643   8.329 -0.4206 -0.0745 -0.3837
  930MOL0     C25443   7.553  10.689   8.218  0.3171  0.7449 -0.2560
  930MOL0     C25444   7.641  10.665   8.477  0.5722  0.2874  0.0767
  930MOL0     C25445   7.532  10.736   8.555  0.3364 -0.1309  0.7366
  930MOL0     O25446   7.538  10.772   8.692  0.1247  0.2237 -0.1233
  930MOL0     C25447   7.462  10.871   8.751 -0.3932  0.9199 -0.0501
  930MOL0     C25448   7.319  10.877   8.741  0.0455  0.0896  0.2389
  930MOL0     C25449   7.243  10.987   8.796  0.3817 -0.5780 -0.5234
  930MOL0     C25450   7.309  11.079   8.869 -0.0284  0.3146 -0.9517
  930MOL0     O25451   7.237  11.172   8.932 -0.2276  0.1233 -0.9608
  930MOL0     C25452   7.290  11.300   8.966  0.9883  0.1840 -0.3689
  930MOL0     C25453   7.184  11.380   9.049 -0.0888  0.0627  0.4054
  930MOL0     C25454   7.068  11.421   8.964  0.4735 -0.1187  0.9796
  930MOL0     C25455   6.983  11.304   8.916  0.0805  0.5241  0.2133
  930MOL0     C25456   6.837  11.350   8.905  1.6585 -0.1971 -0.1035
  930MOL0     C25457   6.742  11.245   8.829 -0.4542 -0.0470  0.6677
  930MOL0     C25458   6.742  11.117   8.917  0.1529 -0.2186 -0.7436
  930MOL0     C25459   6.683  11.011   8.829  0.1390  0.1553 -0.1807
  930MOL0    Cl25460   6.519  11.048   8.771 -0.2274 -0.0942 -0.1285
  930MOL0     C25461   7.445  11.058   8.902 -0.1702  1.1286  0.0397
  930MOL0     C25462   7.522  10.959   8.838  1.0181 -0.3591  0.3910
  930MOL0     O25463   7.432  10.759   8.491  0.0999 -0.0011  0.2093
  930MOL0     C25464   7.735  10.605   8.559  0.0732  0.4426  0.2757
  930MOL0     C25465   7.843  10.538   8.505  0.6679  0.0509  0.0088
  930MOL0     N25466   8.035  10.011   8.605 -0.8870  0.4088 -0.4239
  930MOL0     N25467   8.120   9.939   8.672  0.5995 -0.4521  0.3919
  930MOL0     C25468   9.419   9.808   8.550 -0.0702 -0.3559 -0.7635
  930MOL0     C25469   9.547   9.851   8.513  0.5292  0.1605  0.5784
  930MOL0     C25470   9.917  10.142   8.426 -0.5074 -0.2939 -0.4961
  930MOL0     C25471   9.990  10.266   8.432 -0.3761  0.2716 -0.1941
  930MOL0     C25472  10.107  10.273   8.348  0.0713 -0.2098 -0.4987
  930MOL0     C25473  10.153  10.166   8.276  0.6866  1.2760 -0.1176
  930MOL0     O25474  10.254  10.182   8.191  0.1202 -0.3043 -0.1621
  930MOL0     C25475  10.389  10.176   8.244  0.9923 -0.2805 -0.5588
  930MOL0     C25476  10.490  10.172   8.131  0.6165  0.2662  0.8029
  930MOL0     C25477  10.460  10.041   8.049 -0.4820  0.1768  0.4433
  930MOL0     C25478  10.416  10.064   7.903 -0.7150 -0.7866 -0.5640
  930MOL0     C25479  10.406   9.947   7.833 -0.7386 -0.0970  0.3139
  930MOL0     C25480  10.406   9.839   7.773  0.3395  0.1338  0.3287
  930MOL0     C25481  10.088  10.047   8.285  1.2300  1.2551  0.0960
  930MOL0     C25482   9.978  10.024   8.374 -0.5376  0.5350  0.3419
  930MOL0     H25483   9.515  10.185   8.565 -0.8275 -0.0749  0.0852
  930MOL0     H25484   9.302  10.124   8.614  2.6403  0.6951  3.2120
  930MOL0     H25485   9.091   9.732   8.551  0.7441  2.3041 -1.6646
  930MOL0     H25486   9.215   9.678   8.675 -2.0045 -2.3782 -0.4917
  930MOL0     H25487   8.990   9.662   8.773  1.2913 -0.1779 -0.7597
  930MOL0     H25488   9.056   9.806   8.848  0.9758  4.3667 -1.0497
  930MOL0     H25489   8.921   9.918   8.652  3.5805 -0.4023 -1.3532
  930MOL0     H25490   8.859   9.759   8.601 -3.8523  2.8312 -0.3179
  930MOL0     H25491   8.753   9.698   8.788  2.8804 -0.9631 -3.2411
  930MOL0     H25492   8.816   9.834   8.880  1.9853 -1.8541 -0.4019
  930MOL0     H25493   8.669  10.001   8.768  1.1610 -0.1727  2.6076
  930MOL0     H25494   8.644   9.887   8.634 -0.2086  0.3062 -0.5476
  930MOL0     H25495   8.514   9.725   8.790  1.7776 -0.6336  1.1839
  930MOL0     H25496   8.528   9.855   8.915  1.4478 -2.0632  0.8445
  930MOL0     H25497   8.317   9.878   8.815 -1.6153 -0.2759 -2.9403
  930MOL0     H25498   8.418  10.014   8.767 -0.6195  0.2704 -0.8683
  930MOL0     H25499   8.355   9.749   8.617 -0.6793 -0.4736  2.6408
  930MOL0     H25500   8.439   9.891   8.550  0.8863  1.0571  1.0203
  930MOL0     H25501   8.260   9.955   8.383 -3.0010 -0.4725 -0.8798
  930MOL0     H25502   7.975   9.982   8.288  0.9183  1.7169 -1.9822
  930MOL0     H25503   7.891  10.103   8.372  0.0602 -1.1726 -0.7292
  930MOL0     H25504   7.993  10.221   8.195  1.0093  1.7015 -0.6867
  930MOL0     H25505   8.151  10.131   8.187  1.5511  1.9429  0.2293
  930MOL0     H25506   8.203  10.349   8.254 -0.3576 -0.7965 -1.0402
  930MOL0     H25507   8.213  10.241   8.397 -0.8894 -2.0269 -0.0438
  930MOL0     H25508   8.104  10.449   8.460 -2.6483  1.6229  1.1146
  930MOL0     H25509   8.006  10.319   8.493  1.5249 -0.3917  0.4638
  930MOL0     H25510   7.770  10.546   8.180 -0.3809 -2.3883  0.1517
  930MOL0     H25511   7.523  10.791   8.244  0.3692  0.5544  0.5698
  930MOL0     H25512   7.595  10.688   8.118 -0.4898 -1.8475 -0.6487
  930MOL0     H25513   7.468  10.620   8.230  1.2944 -0.2432  1.4179
  930MOL0     H25514   7.275  10.803   8.676  1.0509 -2.2407  2.0565
  930MOL0     H25515   7.135  11.002   8.794  0.5653  1.2988  1.0244
  930MOL0     H25516   7.368  11.286   9.041  0.7069 -2.2165 -0.4324
  930MOL0     H25517   7.322  11.370   8.888  1.1900  1.3872  0.7584
  930MOL0     H25518   7.147  11.320   9.133 -1.7378  3.1849  2.1028
  930MOL0     H25519   7.241  11.468   9.079  3.3621 -0.8360 -2.7886
  930MOL0     H25520   7.094  11.479   8.875 -2.8702  1.7232  1.0542
  930MOL0     H25521   7.001  11.486   9.021  1.6369  1.3338  0.7566
  930MOL0     H25522   7.030  11.260   8.827  0.6128  1.3348  0.0840
  930MOL0     H25523   7.000  11.224   8.989 -0.0028  1.0994  0.8796
  930MOL0     H25524   6.833  11.450   8.861 -0.1391 -0.9873 -1.9024
  930MOL0     H25525   6.810  11.352   9.011  1.8025 -3.1585  0.0685
  930MOL0     H25526   6.639  11.280   8.821  0.6174  3.1148 -0.9382
  930MOL0     H25527   6.776  11.235   8.725  0.9218 -1.7675  1.2350
  930MOL0     H25528   6.675  11.136   9.002 -0.0193  0.2837 -0.9915
  930MOL0     H25529   6.846  11.093   8.941  0.9058  2.1915 -1.3774
  930MOL0     H25530   6.680  10.919   8.889 -0.4419 -0.8732 -1.7126
  930MOL0     H25531   6.753  10.979   8.750  0.0624 -0.6274  0.0556
  930MOL0     H25532   7.502  11.122   8.969 -0.5970  0.0542  1.4919
  930MOL0     H25533   7.623  10.957   8.878  0.8661 -0.6647  0.7636
  930MOL0     H25534   7.730  10.602   8.667  0.6729  1.3834  0.3466
  930MOL0     H25535   7.921  10.503   8.572  1.1184  0.4161 -0.3194
  930MOL0     H25536   9.393   9.702   8.551 -0.2636 -0.3208 -1.4224
  930MOL0     H25537   9.627   9.783   8.486  0.8250  1.0723 -1.0213
  930MOL0     H25538   9.959  10.350   8.494  1.9453 -0.0720  1.5543
  930MOL0     H25539  10.161  10.363   8.319  1.7319 -1.9574 -3.1785
  930MOL0     H25540  10.418  10.269   8.293  0.0405 -1.3190  2.2141
  930MOL0     H25541  10.401  10.086   8.306  0.3115 -1.7779 -2.4881
  930MOL0     H25542  10.589  10.165   8.176  1.4672  0.6469 -0.9109
  930MOL0     H25543  10.487  10.259   8.064 -1.0582  0.3050  0.8782
  930MOL0     H25544  10.394   9.976   8.107  1.7291  0.5486  3.6139
  930MOL0     H25545  10.556   9.989   8.041 -1.2311 -1.4178  1.4368
  930MOL0     H25546  10.485  10.133   7.855 -0.4372  0.6299  1.7505
  930MOL0     H25547  10.316  10.108   7.912  0.1485  0.8657  1.7654
  930MOL0     H25548  10.404   9.740   7.731 -1.1832  1.0448 -1.9376
  930MOL0     H25549  10.136   9.963   8.235  2.3955  0.8293  1.8584
  930MOL0     H25550   9.944   9.921   8.379 -0.5943  0.4244 -1.5332
  931MOL0     O25551   9.832   7.296   4.646 -0.3282  0.1426 -0.3270
  931MOL0     C25552   9.925   7.319   4.723 -0.4504 -0.5414  0.6153
  931MOL0     O25553   9.911   7.361   4.852  0.8556 -0.8469  0.8658
  931MOL0     C25554   9.787   7.363   4.914  0.2707  0.7605  0.0985
  931MOL0     C25555   9.708   7.255   4.924 -0.1405 -0.0410  0.6456
  931MOL0     C25556   9.573   7.253   4.955 -0.4744  0.0513  0.6485
  931MOL0     C25557   9.511   7.376   4.981  0.8081  0.2684 -0.5750
  931MOL0     O25558   9.380   7.374   5.016  0.8154 -0.3204  0.1027
  931MOL0     C25559   9.296   7.485   5.049  0.1860 -0.0314 -0.4272
  931MOL0     C25560   9.148   7.463   5.024 -0.3993 -0.3603 -0.3696
  931MOL0     C25561   9.096   7.325   5.066 -0.4961 -0.2070  0.0068
  931MOL0     C25562   8.944   7.331   5.034  0.3595 -0.4426 -0.8247
  931MOL0     C25563   8.868   7.287   5.152  0.0863  0.3576  0.0601
  931MOL0     C25564   8.718   7.319   5.143  0.3436  0.7227  1.2592
  931MOL0     C25565   8.639   7.256   5.264 -0.6981  0.4375 -0.1207
  931MOL0     C25566   8.488   7.293   5.271  0.4001 -0.3901 -0.0917
  931MOL0     N25567   8.417   7.275   5.141  0.3287 -0.4887  0.1554
  931MOL0     C25568   8.328   7.360   5.082  0.3652  0.3541  0.1783
  931MOL0     C25569   8.309   7.313   4.955 -1.0178 -0.6747 -0.5547
  931MOL0     C25570   8.216   7.373   4.846 -0.4926  0.0221  0.6234
  931MOL0     C25571   8.083   7.288   4.835 -0.0122 -0.3630 -0.9391
  931MOL0     C25572   8.030   7.222   4.962  0.5737 -0.8072  0.1981
  931MOL0     C25573   7.887   7.181   4.929 -0.4438  0.9327 -0.8661
  931MOL0     O25574   7.879   7.078   4.825 -0.0623  0.3637 -0.3874
  931MOL0     C25575   7.877   6.953   4.874 -0.6405 -0.2792  0.4737
  931MOL0     C25576   7.989   6.875   4.853 -0.4549 -0.4261 -0.0488
  931MOL0     C25577   7.992   6.728   4.874  0.1156 -0.5128  0.0851
  931MOL0     C25578   8.108   6.651   4.824 -0.5621  0.4633  0.5253
  931MOL0     C25579   7.869   6.676   4.940  0.9018 -0.0979  0.2160
  931MOL0     C25580   7.851   6.534   4.985  0.2481  0.1890 -0.4190
  931MOL0     O25581   7.728   6.497   5.016  0.0818 -0.0737 -0.6643
  931MOL0     C25582   7.699   6.399   5.105 -0.0902  0.1727 -0.4473
  931MOL0     C25583   7.582   6.335   5.098 -0.0001  0.0300 -0.4277
  931MOL0     C25584   7.545   6.235   5.187 -0.2778 -0.2342 -0.9264
  931MOL0     C25585   7.630   6.209   5.301  0.1877 -0.2078 -0.7630
  931MOL0     O25586   7.576   6.117   5.381 -0.9711 -0.1878 -0.4464
  931MOL0     C25587   7.638   6.087   5.508  0.5416 -0.8927 -0.1386
  931MOL0     C25588   7.515   6.038   5.600 -0.6187  0.1664  0.3740
  931MOL0     C25589   7.414   6.139   5.640  0.1891 -0.6723  0.1730
  931MOL0     C25590   7.298   6.070   5.723  0.0283  0.3826  0.5501
  931MOL0     C25591   7.244   6.167   5.826 -0.4935 -0.0961  1.1085
  931MOL0     C25592   7.133   6.091   5.912  0.8116  0.6277  0.0632
  931MOL0     C25593   6.992   6.081   5.842 -0.1178 -0.0333  0.3179
  931MOL0     C25594   6.923   5.953   5.871  0.3737  0.3897 -0.2823
  931MOL0    Cl25595   6.754   5.959   5.829  0.0115 -0.1849  0.4390
  931MOL0     C25596   7.752   6.282   5.315  0.5005  0.0511 -0.4624
  931MOL0     C25597   7.789   6.372   5.220  0.4005 -0.6257 -0.4205
  931MOL0     O25598   7.952   6.471   4.988 -0.8119  0.4375 -0.2270
  931MOL0     C25599   7.759   6.767   4.973  0.1838  0.2310 -0.5641
  931MOL0     C25600   7.760   6.897   4.923 -0.3982 -0.0036 -0.4688
  931MOL0     N25601   8.383   7.203   4.936 -0.0018 -0.5228  1.0475
  931MOL0     N25602   8.454   7.181   5.051 -0.8005 -0.1811  0.0921
  931MOL0     C25603   9.594   7.497   4.978  0.0876 -0.4118 -0.2950
  931MOL0     C25604   9.731   7.488   4.947 -0.4449 -0.5770  0.9514
  931MOL0     C25605  10.068   7.311   4.664  0.4293 -0.1226 -0.2614
  931MOL0     C25606  10.094   7.268   4.526 -0.3320  1.4813 -0.5982
  931MOL0     C25607  10.223   7.248   4.488 -0.2776 -0.5227  0.4129
  931MOL0     C25608  10.334   7.270   4.570  0.5475 -1.0041 -1.1922
  931MOL0     O25609  10.453   7.252   4.513  0.2734 -0.5794 -0.0621
  931MOL0     C25610  10.576   7.271   4.591  0.4776 -0.1720  0.2423
  931MOL0     C25611  10.629   7.410   4.548 -1.1561  0.1448 -0.1832
  931MOL0     C25612  10.763   7.435   4.607 -0.6032 -0.0445  1.2279
  931MOL0     C25613  10.814   7.577   4.569  0.2777  0.4704  1.0266
  931MOL0     C25614  10.770   7.689   4.655 -0.2602  0.9287 -0.8488
  931MOL0     C25615  10.730   7.783   4.712  0.0032  0.1252 -0.1527
  931MOL0     C25616  10.303   7.328   4.692 -0.7258 -0.4107 -0.7310
  931MOL0     C25617  10.177   7.338   4.741 -0.3291  0.2180  0.3904
  931MOL0     H25618   9.748   7.156   4.905 -3.3065 -2.0742  3.4985
  931MOL0     H25619   9.519   7.161   4.975  2.2237 -1.1906  2.9842
  931MOL0     H25620   9.308   7.507   5.155  0.6454  2.0888 -0.8695
  931MOL0     H25621   9.315   7.570   4.983 -3.3110  0.1198 -1.4347
  931MOL0     H25622   9.101   7.543   5.082  0.7139 -0.5818  0.8904
  931MOL0     H25623   9.151   7.476   4.915  4.0828  1.8307 -0.2420
  931MOL0     H25624   9.139   7.242   5.010  0.5445  0.2238  0.1478
  931MOL0     H25625   9.123   7.306   5.171  0.0722  0.8427  0.0688
  931MOL0     H25626   8.910   7.430   5.002 -0.1309 -0.8267 -1.5136
  931MOL0     H25627   8.919   7.269   4.948  0.1805  2.5921 -3.1355
  931MOL0     H25628   8.882   7.179   5.157 -1.5808  0.1599  2.0779
  931MOL0     H25629   8.912   7.333   5.241  0.7916 -1.0951  0.4850
  931MOL0     H25630   8.696   7.426   5.144 -0.6784  0.5194  1.9801
  931MOL0     H25631   8.683   7.285   5.045  2.6039  0.6064  0.4190
  931MOL0     H25632   8.642   7.146   5.267  2.6173  0.4096 -0.2623
  931MOL0     H25633   8.690   7.294   5.353 -0.1109  0.2863 -0.3856
  931MOL0     H25634   8.474   7.395   5.309 -2.4806 -0.7428  0.0510
  931MOL0     H25635   8.446   7.226   5.346  0.6373  0.8041  1.1446
  931MOL0     H25636   8.301   7.458   5.120  2.2447  0.9083  0.1891
  931MOL0     H25637   8.197   7.476   4.874 -0.5093  1.5062 -3.9776
  931MOL0     H25638   8.268   7.376   4.749  2.3487 -1.2663  1.9813
  931MOL0     H25639   8.106   7.207   4.765  1.0946 -1.0466  0.1797
  931MOL0     H25640   8.006   7.355   4.795 -1.7147 -1.4251  0.4440
  931MOL0     H25641   8.030   7.291   5.047 -1.0757  0.3291 -0.6691
  931MOL0     H25642   8.096   7.137   4.983  1.3335  0.3107  2.7935
  931MOL0     H25643   7.832   7.264   4.883  0.3820  1.6389 -0.5979
  931MOL0     H25644   7.830   7.148   5.017  4.0810  2.1538  2.9320
  931MOL0     H25645   8.078   6.920   4.811  0.7602  0.0637  2.7777
  931MOL0     H25646   8.174   6.610   4.901  0.1311 -2.2717 -1.3843
  931MOL0     H25647   8.070   6.563   4.770 -2.1095  0.2002  1.9387
  931MOL0     H25648   8.180   6.707   4.765 -0.1144  0.5073  1.1021
  931MOL0     H25649   7.520   6.357   5.012 -1.2465 -2.9105 -0.3857
  931MOL0     H25650   7.446   6.190   5.187  0.0069 -0.8755 -1.0343
  931MOL0     H25651   7.722   6.018   5.498  2.1236  0.9950 -0.4017
  931MOL0     H25652   7.678   6.175   5.559 -0.0277 -1.4497  1.3268
  931MOL0     H25653   7.476   5.942   5.564 -0.1431  0.5273 -1.1978
  931MOL0     H25654   7.564   6.014   5.695  0.7945  1.7737  0.1004
  931MOL0     H25655   7.369   6.201   5.561  0.8455  0.5050  0.6924
  931MOL0     H25656   7.461   6.215   5.703 -1.4385  0.1612  0.4485
  931MOL0     H25657   7.215   6.049   5.654  1.9638  0.3014 -1.9213
  931MOL0     H25658   7.337   5.986   5.781 -1.2759 -0.2621  0.5061
  931MOL0     H25659   7.220   6.260   5.774 -0.4960  1.5043  3.7767
  931MOL0     H25660   7.327   6.191   5.893 -0.4473 -1.2886  1.5099
  931MOL0     H25661   7.163   5.987   5.926 -1.1817 -0.4776 -2.8199
  931MOL0     H25662   7.114   6.142   6.007  0.1413 -0.6319  0.6272
  931MOL0     H25663   7.005   6.082   5.733 -1.1125 -3.3031  0.0560
  931MOL0     H25664   6.924   6.159   5.877 -2.2927 -1.5425 -0.2937
  931MOL0     H25665   6.931   5.931   5.978  1.6096 -5.1395 -1.1568
  931MOL0     H25666   6.975   5.872   5.818 -0.2911 -0.5547  0.4546
  931MOL0     H25667   7.824   6.282   5.396 -0.6537 -2.0571  0.6582
  931MOL0     H25668   7.879   6.434   5.226 -1.3550  2.3202 -1.8614
  931MOL0     H25669   7.663   6.732   5.011 -0.8070  1.9404 -1.3619
  931MOL0     H25670   7.670   6.957   4.928 -0.2695  0.0827  1.4436
  931MOL0     H25671   9.563   7.598   5.004 -0.2899 -0.4171 -0.7148
  931MOL0     H25672   9.794   7.575   4.930  1.2400 -2.4490 -4.0888
  931MOL0     H25673  10.017   7.261   4.450  1.0518  1.6310 -2.0728
  931MOL0     H25674  10.246   7.212   4.388  0.1605  1.5219 -0.2614
  931MOL0     H25675  10.567   7.252   4.698 -1.6691 -1.3033 -0.0916
  931MOL0     H25676  10.644   7.197   4.548 -0.5988 -0.7580 -0.4882
  931MOL0     H25677  10.551   7.472   4.595 -1.8491 -0.6886 -0.2094
  931MOL0     H25678  10.623   7.418   4.440 -0.2054  0.2526 -0.2319
  931MOL0     H25679  10.834   7.366   4.560  0.3909  3.6441 -3.4230
  931MOL0     H25680  10.767   7.419   4.715  1.4723 -1.2901  1.0181
  931MOL0     H25681  10.782   7.600   4.467 -2.8967 -2.0457  1.2721
  931MOL0     H25682  10.923   7.568   4.570  0.2421  0.0409  1.3567
  931MOL0     H25683  10.703   7.873   4.764  1.0106  1.0199 -1.1389
  931MOL0     H25684  10.377   7.371   4.759 -0.6536 -0.9703 -0.4436
  931MOL0     H25685  10.148   7.397   4.828 -1.3293 -0.5993  0.6257
  932MOL0     O25686   1.461  10.136   3.623  0.3183  0.4971  0.2258
  932MOL0     C25687   1.550  10.202   3.669  0.0530 -0.4240 -0.1269
  932MOL0     O25688   1.581  10.213   3.799  0.7726  1.2617 -0.5429
  932MOL0     C25689   1.496  10.154   3.886 -0.8858 -0.9532  0.0134
  932MOL0     C25690   1.363  10.185   3.893 -0.7095 -0.7403 -0.7196
  932MOL0     C25691   1.282  10.114   3.976  0.0976 -0.3131 -0.7691
  932MOL0     C25692   1.326  10.009   4.062  0.0310  0.4245  1.1282
  932MOL0     O25693   1.246   9.947   4.154  0.0719  0.2392 -0.0009
  932MOL0     C25694   1.107   9.917   4.113 -0.2276 -0.2816 -0.0292
  932MOL0     C25695   1.033   9.875   4.240  0.1255  0.2196  0.9485
  932MOL0     C25696   0.880   9.863   4.209 -0.1614 -0.0174  0.5334
  932MOL0     C25697   0.800   9.824   4.333  0.2530 -0.2875  0.9368
  932MOL0     C25698   0.644   9.814   4.296 -0.1827 -0.5911 -0.7966
  932MOL0     C25699   0.572   9.945   4.335 -0.5510  0.5196  0.3653
  932MOL0     C25700   0.426   9.945   4.293 -0.3765  0.4717  0.0878
  932MOL0     C25701   0.345   9.849   4.375 -1.0919 -0.2597 -0.3107
  932MOL0     N25702   0.205   9.880   4.370 -0.3810  0.2966  0.3082
  932MOL0     C25703   0.115   9.850   4.274 -1.0165 -0.0329  0.7445
  932MOL0     C25704  -0.001   9.912   4.308  0.5768 -0.4395 -0.5442
  932MOL0     C25705  -0.120   9.927   4.221  0.2995 -0.9624 -0.1371
  932MOL0     C25706  -0.189   9.791   4.198 -0.0284  0.4854 -0.0651
  932MOL0     C25707  -0.246   9.724   4.320 -1.0921 -0.4542  0.1324
  932MOL0     C25708  -0.389   9.762   4.338  0.2125  0.2427 -0.1257
  932MOL0     O25709  -0.436   9.721   4.466 -0.0838  0.4280  0.0108
  932MOL0     C25710  -0.565   9.757   4.509 -0.4131 -0.1564 -0.7425
  932MOL0     C25711  -0.675   9.787   4.428  0.3526  0.5845 -0.2342
  932MOL0     C25712  -0.799   9.821   4.486 -0.7035  0.9971 -0.3339
  932MOL0     C25713  -0.921   9.873   4.405  0.1341 -1.0883  0.0718
  932MOL0     C25714  -0.810   9.802   4.631 -0.0069 -0.3766 -0.3007
  932MOL0     C25715  -0.939   9.829   4.710 -0.3665 -0.1495 -0.2817
  932MOL0     O25716  -1.026   9.931   4.664  0.0253 -0.1910 -0.3316
  932MOL0     C25717  -1.132   9.963   4.740  1.0244  0.6582  0.4026
  932MOL0     C25718  -1.264   9.941   4.692 -0.0844  0.0584  0.1546
  932MOL0     C25719  -1.375   9.962   4.779  0.1493 -0.8434 -0.5270
  932MOL0     C25720  -1.357  10.014   4.910  1.3626 -0.8210 -0.4488
  932MOL0     O25721  -1.471  10.040   4.982  0.7809  0.2442  0.5176
  932MOL0     C25722  -1.444  10.123   5.095  0.5951 -0.5203  0.4105
  932MOL0     C25723  -1.578  10.152   5.164 -0.7125 -0.2474 -0.2808
  932MOL0     C25724  -1.674  10.030   5.162  0.3417 -0.2606 -0.7448
  932MOL0     C25725  -1.787  10.052   5.268 -0.2629  0.3298  0.7908
  932MOL0     C25726  -1.865   9.922   5.307  0.7532  0.1105  0.2383
  932MOL0     C25727  -1.996   9.950   5.383 -0.2963 -0.7374 -0.8099
  932MOL0     C25728  -2.086   9.827   5.393 -0.2863 -0.2024 -1.1283
  932MOL0     C25729  -2.188   9.827   5.277  0.4072 -0.0962  0.6618
  932MOL0    Cl25730  -2.301   9.697   5.321 -0.6778 -0.4793  0.1263
  932MOL0     C25731  -1.221  10.040   4.955  1.1968 -0.3036 -0.4407
  932MOL0     C25732  -1.116  10.023   4.867 -0.5906 -0.6688  0.2868
  932MOL0     O25733  -0.954   9.757   4.807  0.2715 -0.0992  0.5813
  932MOL0     C25734  -0.693   9.777   4.706  0.0220  0.1844  0.0119
  932MOL0     C25735  -0.574   9.748   4.647  0.0186 -0.1847  0.6363
  932MOL0     N25736   0.008   9.969   4.432  0.2988  0.2964 -0.7240
  932MOL0     N25737   0.133   9.939   4.469  0.7617  0.0340  0.6521
  932MOL0     C25738   1.462   9.977   4.061  0.6673  0.4096  0.2497
  932MOL0     C25739   1.547  10.057   3.974  0.3588  0.1028  0.2000
  932MOL0     C25740   1.648  10.241   3.564 -0.2998 -1.1813  0.1797
  932MOL0     C25741   1.624  10.241   3.422  0.1744 -0.6304 -0.3199
  932MOL0     C25742   1.712  10.289   3.325  0.2147 -0.0663  0.1063
  932MOL0     C25743   1.836  10.335   3.373 -0.5456  0.9631  0.7749
  932MOL0     O25744   1.935  10.364   3.269  0.0605 -1.2634 -0.8393
  932MOL0     C25745   2.072  10.383   3.305  0.3276 -0.0349 -0.3245
  932MOL0     C25746   2.158  10.422   3.190  0.1676  0.3464 -0.7793
  932MOL0     C25747   2.303  10.453   3.225 -0.7103  0.2975 -1.1054
  932MOL0     C25748   2.407  10.492   3.113 -0.0224 -0.8494  0.0599
  932MOL0     C25749   2.442  10.365   3.048 -0.4693 -0.3889 -0.5376
  932MOL0     C25750   2.474  10.261   2.991  0.7821 -0.2503  0.3109
  932MOL0     C25751   1.866  10.334   3.509  0.8322 -0.9804  0.2290
  932MOL0     C25752   1.773  10.285   3.604 -0.2095  0.2251 -0.3430
  932MOL0     H25753   1.330  10.268   3.832  0.6178  1.9692  2.0166
  932MOL0     H25754   1.178  10.145   3.981  0.3661  0.4558  1.4490
  932MOL0     H25755   1.059  10.010   4.082  0.9590  1.5765  3.2221
  932MOL0     H25756   1.098   9.850   4.027  3.3061  1.3918 -1.9065
  932MOL0     H25757   1.066   9.779   4.281  1.1025  0.3018  0.3615
  932MOL0     H25758   1.053   9.950   4.317  0.2212  3.1533 -1.7486
  932MOL0     H25759   0.850   9.957   4.162 -1.4400 -1.3982 -1.5806
  932MOL0     H25760   0.858   9.793   4.127  3.2671 -0.0537 -0.5139
  932MOL0     H25761   0.834   9.729   4.375 -0.0551 -0.6862  0.3016
  932MOL0     H25762   0.822   9.903   4.405  0.5096  1.2198 -0.7173
  932MOL0     H25763   0.628   9.796   4.189 -1.1872 -0.6908 -0.6350
  932MOL0     H25764   0.600   9.736   4.358  0.9609  0.9516  2.1751
  932MOL0     H25765   0.583   9.950   4.444 -1.2522 -3.1775  0.7438
  932MOL0     H25766   0.622  10.027   4.281  1.0763 -1.2423 -0.9697
  932MOL0     H25767   0.386  10.046   4.308 -1.1121 -0.1442  2.9750
  932MOL0     H25768   0.413   9.915   4.189 -0.0670 -2.3296  0.8011
  932MOL0     H25769   0.386   9.871   4.474 -1.2050 -0.7479 -0.1522
  932MOL0     H25770   0.360   9.744   4.345 -0.0556 -0.4887  0.9021
  932MOL0     H25771   0.143   9.799   4.182 -0.8723 -0.9355  1.2801
  932MOL0     H25772  -0.184  10.009   4.256  1.5512  1.1949 -2.5394
  932MOL0     H25773  -0.080   9.963   4.126  0.0293 -1.8372 -0.5921
  932MOL0     H25774  -0.114   9.722   4.160  1.8729  1.5629  1.5565
  932MOL0     H25775  -0.269   9.810   4.126 -2.5437  1.0734  2.6846
  932MOL0     H25776  -0.188   9.743   4.411  0.7802  2.7785 -1.5743
  932MOL0     H25777  -0.259   9.617   4.301 -1.9515 -0.4617  0.6725
  932MOL0     H25778  -0.449   9.716   4.259  0.7843 -3.2980  1.3555
  932MOL0     H25779  -0.396   9.872   4.340 -1.3252  0.1468  1.6011
  932MOL0     H25780  -0.651   9.811   4.325  1.5672 -0.3865 -0.2060
  932MOL0     H25781  -0.903   9.878   4.297  1.2664 -2.1487  0.1911
  932MOL0     H25782  -1.015   9.823   4.430  0.1461 -1.0281  0.2345
  932MOL0     H25783  -0.922   9.980   4.431 -1.5319 -0.9158 -0.5940
  932MOL0     H25784  -1.280   9.908   4.590 -0.1632 -2.1276  0.8228
  932MOL0     H25785  -1.477   9.937   4.751  0.6483 -3.0562 -0.5332
  932MOL0     H25786  -1.389  10.069   5.173  0.6529 -1.1075 -0.0301
  932MOL0     H25787  -1.390  10.216   5.074 -1.8296  1.1835  1.3483
  932MOL0     H25788  -1.554  10.171   5.269  1.5469  1.9272 -1.0901
  932MOL0     H25789  -1.631  10.232   5.112  0.1546 -1.4171 -3.1671
  932MOL0     H25790  -1.622   9.937   5.187 -1.8903 -1.5724 -0.7265
  932MOL0     H25791  -1.718  10.014   5.063  0.0464 -1.8930 -0.3887
  932MOL0     H25792  -1.740  10.085   5.361  0.2191 -1.7404  1.3477
  932MOL0     H25793  -1.863  10.122   5.234  0.1936 -0.4375 -2.1099
  932MOL0     H25794  -1.794   9.863   5.365  0.2015 -2.0195 -1.1220
  932MOL0     H25795  -1.901   9.866   5.220 -4.2723  1.0295  1.3808
  932MOL0     H25796  -1.973   9.975   5.487 -0.3534  0.7062 -1.1312
  932MOL0     H25797  -2.048  10.035   5.340 -0.9110 -1.5617 -1.7232
  932MOL0     H25798  -2.138   9.815   5.489  1.1579  0.2868 -0.2426
  932MOL0     H25799  -2.027   9.735   5.388  1.3761  0.8733 -2.2693
  932MOL0     H25800  -2.133   9.816   5.183  2.1843  1.5080  1.4543
  932MOL0     H25801  -2.249   9.918   5.282 -0.2665 -0.6054  3.4525
  932MOL0     H25802  -1.199  10.091   5.048 -0.6376 -1.6044  0.7759
  932MOL0     H25803  -1.013  10.045   4.894 -0.4570 -0.3042 -0.4998
  932MOL0     H25804  -0.710   9.756   4.811 -0.1672 -1.1883 -0.2739
  932MOL0     H25805  -0.484   9.714   4.697  3.2533 -2.2470 -5.5638
  932MOL0     H25806   1.496   9.897   4.126 -0.9360  0.5286  1.3038
  932MOL0     H25807   1.654  10.037   3.976  0.7593  2.0671  0.1280
  932MOL0     H25808   1.532  10.205   3.377 -0.2284  0.1023 -0.0993
  932MOL0     H25809   1.688  10.297   3.219 -2.4919  0.5768  0.6791
  932MOL0     H25810   2.079  10.466   3.375 -1.0182  0.0727 -0.2998
  932MOL0     H25811   2.103  10.291   3.354  0.6758  0.3876  0.2584
  932MOL0     H25812   2.117  10.516   3.152  0.3726  0.1296 -1.5678
  932MOL0     H25813   2.151  10.348   3.110  1.2115  1.6487 -2.1368
  932MOL0     H25814   2.347  10.367   3.276  0.0435 -1.6106 -4.5869
  932MOL0     H25815   2.309  10.539   3.292  2.0819 -0.0444 -0.7707
  932MOL0     H25816   2.500  10.531   3.154 -0.3572  0.4427 -0.3713
  932MOL0     H25817   2.363  10.566   3.045  0.9395 -1.8813 -1.7591
  932MOL0     H25818   2.495  10.187   2.917 -2.1352  0.0921 -0.9940
  932MOL0     H25819   1.954  10.382   3.552 -1.8092  2.8525  1.9806
  932MOL0     H25820   1.811  10.277   3.706  1.1689  2.7076 -0.5829
  933MOL0     O25821   8.487   3.097   5.804 -0.7589 -0.5149 -0.0261
  933MOL0     C25822   8.508   3.035   5.905  0.6378 -0.5118 -0.0793
  933MOL0     O25823   8.415   2.946   5.967  0.3579 -0.2023 -0.7282
  933MOL0     C25824   8.287   2.940   5.928  0.2436 -0.3536 -0.4533
  933MOL0     C25825   8.179   2.973   6.013 -0.3468  0.1490  0.0969
  933MOL0     C25826   8.055   2.933   5.971 -0.4048 -0.4927 -0.6594
  933MOL0     C25827   8.033   2.885   5.844 -0.3493  0.5202 -0.6742
  933MOL0     O25828   7.906   2.847   5.806 -0.2397  0.2812 -0.2044
  933MOL0     C25829   7.894   2.723   5.729 -1.3153 -0.5026 -0.1363
  933MOL0     C25830   7.768   2.644   5.774 -0.7176 -0.1620 -0.6980
  933MOL0     C25831   7.639   2.706   5.729  1.2126  0.2252 -0.1517
  933MOL0     C25832   7.515   2.627   5.774  0.3351  0.0625 -0.5809
  933MOL0     C25833   7.380   2.689   5.732 -0.0746 -0.0659 -0.3607
  933MOL0     C25834   7.335   2.800   5.833  0.3963  0.4903 -0.7491
  933MOL0     C25835   7.206   2.870   5.799  0.8394  0.1070 -0.1755
  933MOL0     C25836   7.179   3.001   5.888 -0.6484 -0.3834 -0.3839
  933MOL0     N25837   7.052   3.066   5.855  0.2185 -0.7364  1.1815
  933MOL0     C25838   7.021   3.127   5.738  0.1823 -0.4941 -0.1547
  933MOL0     C25839   6.893   3.160   5.739  0.3870  0.1856  0.7765
  933MOL0     C25840   6.797   3.221   5.640  0.4952  0.1000 -0.3372
  933MOL0     C25841   6.771   3.368   5.678  0.1654 -0.0543  0.3540
  933MOL0     C25842   6.623   3.401   5.650 -0.3913 -0.6364 -0.2015
  933MOL0     C25843   6.596   3.411   5.502 -0.2256  0.2543  0.3383
  933MOL0     O25844   6.661   3.526   5.447  0.7988 -0.0548 -0.0116
  933MOL0     C25845   6.598   3.648   5.425 -0.4308  0.5657  0.2925
  933MOL0     C25846   6.646   3.733   5.328 -0.3011 -0.0159 -0.0420
  933MOL0     C25847   6.577   3.849   5.287  0.1851 -0.2047 -0.5500
  933MOL0     C25848   6.634   3.914   5.160  0.6761  0.2549 -0.6336
  933MOL0     C25849   6.461   3.893   5.361  0.6451 -0.8556  0.4625
  933MOL0     C25850   6.379   4.022   5.335 -0.0081  0.0291 -0.1263
  933MOL0     O25851   6.249   4.037   5.371  0.6963  0.9160 -0.3087
  933MOL0     C25852   6.185   4.154   5.343 -0.1179  0.6775 -0.4937
  933MOL0     C25853   6.215   4.230   5.222  0.2743 -0.6804  0.0031
  933MOL0     C25854   6.131   4.340   5.193 -0.1747  0.5590  0.2407
  933MOL0     C25855   6.010   4.354   5.256  0.2401 -0.8196 -0.4028
  933MOL0     O25856   5.916   4.448   5.213 -0.6712 -0.2201 -1.1122
  933MOL0     C25857   5.896   4.467   5.070 -0.4903 -0.4738  0.8788
  933MOL0     C25858   5.756   4.507   5.065  0.1478 -0.1508  0.0189
  933MOL0     C25859   5.659   4.400   5.020  0.2656  0.2966 -0.2459
  933MOL0     C25860   5.507   4.436   5.037 -1.0411  0.3882 -0.1445
  933MOL0     C25861   5.421   4.314   5.001  0.5378 -0.2733  0.6648
  933MOL0     C25862   5.307   4.351   4.909 -0.3615 -0.8305  0.5542
  933MOL0     C25863   5.246   4.230   4.851  0.4644  0.7807  1.1638
  933MOL0     C25864   5.113   4.260   4.776  0.0174 -0.1469  0.2527
  933MOL0    Cl25865   5.038   4.099   4.730  0.0359 -0.2186  0.2940
  933MOL0     C25866   5.989   4.282   5.376  0.5818  0.1627  0.8574
  933MOL0     C25867   6.082   4.192   5.426  0.4407 -0.7506  0.2245
  933MOL0     O25868   6.453   4.109   5.289  0.5137  0.5214  0.1323
  933MOL0     C25869   6.416   3.815   5.456 -0.3214  0.8912  0.3119
  933MOL0     C25870   6.476   3.688   5.480  0.5229 -0.4321 -0.3486
  933MOL0     N25871   6.849   3.118   5.858  0.8253  0.9425 -0.3946
  933MOL0     N25872   6.943   3.067   5.930 -0.3363  0.5809  0.4769
  933MOL0     C25873   8.144   2.851   5.760  0.2428 -0.1137 -0.0470
  933MOL0     C25874   8.268   2.875   5.808 -0.1852  0.5317  0.0289
  933MOL0     C25875   8.643   3.044   5.966 -0.0823 -0.4349  0.2764
  933MOL0     C25876   8.665   2.993   6.094 -0.4913  0.0154 -0.6316
  933MOL0     C25877   8.788   3.006   6.157 -0.1676  0.4949  0.5683
  933MOL0     C25878   8.889   3.077   6.088 -0.3716 -0.3539 -0.1210
  933MOL0     O25879   9.018   3.099   6.132 -0.0355 -0.0687  0.1518
  933MOL0     C25880   9.053   3.038   6.260 -0.2821 -0.7981  0.6403
  933MOL0     C25881   9.191   3.077   6.290 -0.9746 -0.3110  0.5716
  933MOL0     C25882   9.207   3.191   6.399  0.5399  0.2316 -0.1448
  933MOL0     C25883   9.349   3.214   6.463 -0.4043  0.1104 -0.3254
  933MOL0     C25884   9.339   3.269   6.594 -0.0706  0.3349 -0.3498
  933MOL0     C25885   9.334   3.310   6.711  0.5702 -0.4663  0.7882
  933MOL0     C25886   8.874   3.121   5.959 -0.2929 -0.2185 -0.2287
  933MOL0     C25887   8.748   3.113   5.906  0.2478 -0.5107 -0.1912
  933MOL0     H25888   8.203   3.011   6.111  0.9152 -0.3374 -0.0044
  933MOL0     H25889   7.977   2.942   6.045 -0.1575 -0.6943 -0.3724
  933MOL0     H25890   7.902   2.753   5.624 -0.1128  2.7755  0.7661
  933MOL0     H25891   7.987   2.667   5.742 -1.0686 -0.0820 -0.0647
  933MOL0     H25892   7.763   2.545   5.729 -2.5023 -0.6892  0.5206
  933MOL0     H25893   7.765   2.624   5.882  1.5556 -1.7680 -0.8659
  933MOL0     H25894   7.635   2.802   5.782  0.1402  0.5477 -0.7821
  933MOL0     H25895   7.645   2.701   5.620  1.6681  0.6354 -0.1528
  933MOL0     H25896   7.526   2.534   5.719  0.5602 -1.1106  1.3719
  933MOL0     H25897   7.520   2.602   5.880  0.7465 -1.3189 -0.9099
  933MOL0     H25898   7.395   2.730   5.632 -1.4173  2.7246  0.4735
  933MOL0     H25899   7.303   2.612   5.733 -2.6136  2.2799  2.0076
  933MOL0     H25900   7.322   2.747   5.927  0.6938 -0.6846 -1.3491
  933MOL0     H25901   7.416   2.874   5.842  1.3073 -0.6464  0.8753
  933MOL0     H25902   7.213   2.894   5.692  0.1740  1.8950  0.1469
  933MOL0     H25903   7.123   2.800   5.812  0.1208  1.4151  3.3181
  933MOL0     H25904   7.254   3.078   5.868 -1.3303  0.2552 -0.5021
  933MOL0     H25905   7.179   2.974   5.994 -1.6361 -0.7900 -0.4738
  933MOL0     H25906   7.085   3.149   5.653  0.4928 -0.0968  0.1777
  933MOL0     H25907   6.827   3.211   5.535 -1.0931  1.5020 -0.9591
  933MOL0     H25908   6.707   3.159   5.645  0.0683  0.7785  0.6436
  933MOL0     H25909   6.849   3.426   5.627 -1.6674  1.4443 -0.9098
  933MOL0     H25910   6.781   3.396   5.784 -0.4247  0.9466  0.1646
  933MOL0     H25911   6.592   3.494   5.699 -0.6101 -0.8143 -0.0020
  933MOL0     H25912   6.559   3.327   5.698 -1.7003  0.0129 -0.8944
  933MOL0     H25913   6.489   3.412   5.476 -0.5829  0.4288  1.7595
  933MOL0     H25914   6.632   3.328   5.441 -2.0443  1.2157 -2.2742
  933MOL0     H25915   6.729   3.702   5.266 -0.3693  0.1734 -0.2276
  933MOL0     H25916   6.734   3.947   5.188  0.1330  0.8873  0.6752
  933MOL0     H25917   6.646   3.842   5.079 -0.2345  0.5743 -1.0617
  933MOL0     H25918   6.576   3.997   5.118  1.9761  1.3540 -0.3266
  933MOL0     H25919   6.291   4.211   5.147 -0.0918 -3.1122  0.1793
  933MOL0     H25920   6.155   4.391   5.100 -2.4015  0.6531 -0.3235
  933MOL0     H25921   5.961   4.550   5.039  0.9696 -1.9343 -0.1043
  933MOL0     H25922   5.928   4.384   5.007 -0.1588 -0.1898  0.6663
  933MOL0     H25923   5.711   4.535   5.161 -0.6019  0.5577 -0.5259
  933MOL0     H25924   5.741   4.588   4.994 -1.8615  0.7420  1.3857
  933MOL0     H25925   5.685   4.320   5.089  2.8775  2.7687  1.8648
  933MOL0     H25926   5.684   4.371   4.917 -2.6727  1.7086 -1.4959
  933MOL0     H25927   5.500   4.464   5.142 -0.6134 -3.2746  1.0046
  933MOL0     H25928   5.483   4.513   4.963 -1.3802  1.0066  0.6075
  933MOL0     H25929   5.378   4.268   5.090 -3.0373  1.6351  0.0857
  933MOL0     H25930   5.478   4.234   4.953 -1.4678 -0.9351 -0.7454
  933MOL0     H25931   5.225   4.401   4.962 -0.2263  2.0955 -1.7328
  933MOL0     H25932   5.335   4.429   4.837 -2.0674  1.4315  2.1553
  933MOL0     H25933   5.226   4.149   4.922 -2.0230 -0.2779 -0.6340
  933MOL0     H25934   5.322   4.187   4.786 -2.4589 -1.2691 -1.1544
  933MOL0     H25935   5.137   4.314   4.684  2.2379 -1.0762  0.2221
  933MOL0     H25936   5.038   4.308   4.840  0.7361  0.8196  0.3892
  933MOL0     H25937   5.893   4.292   5.425 -0.2143 -0.6708 -0.4738
  933MOL0     H25938   6.058   4.125   5.507 -4.1845 -2.7787 -2.4168
  933MOL0     H25939   6.321   3.844   5.500 -1.6333 -1.2397 -0.9310
  933MOL0     H25940   6.443   3.630   5.566 -0.4115 -1.1987 -1.2153
  933MOL0     H25941   8.130   2.801   5.665 -0.6815 -2.3090  1.1738
  933MOL0     H25942   8.356   2.842   5.754 -0.5763 -1.3944  0.5013
  933MOL0     H25943   8.587   2.951   6.157  1.0035 -0.0104  1.3057
  933MOL0     H25944   8.787   2.976   6.261  0.7497  0.9550  0.7139
  933MOL0     H25945   9.003   3.076   6.350 -0.4659 -1.2075  0.7101
  933MOL0     H25946   9.034   2.931   6.261  0.5155 -0.9452  0.7878
  933MOL0     H25947   9.258   3.104   6.209  0.1074 -1.5264  1.0308
  933MOL0     H25948   9.241   2.989   6.332 -0.5818 -0.5256 -0.3276
  933MOL0     H25949   9.141   3.174   6.484  1.2543 -2.0036  0.0244
  933MOL0     H25950   9.175   3.286   6.354 -2.1785  0.7570  2.6098
  933MOL0     H25951   9.422   3.266   6.401 -0.3828  2.0993  1.2887
  933MOL0     H25952   9.399   3.118   6.483  0.8206  0.6758 -0.5878
  933MOL0     H25953   9.316   3.350   6.809 -0.4800 -1.7512  1.1354
  933MOL0     H25954   8.964   3.163   5.917  1.1372 -2.9244 -0.1288
  933MOL0     H25955   8.731   3.148   5.805  0.8831 -0.5299 -0.3101
  934MOL0     O25956   0.389   2.799   5.384  0.1488  0.3342  0.1818
  934MOL0     C25957   0.452   2.699   5.428  0.5467 -0.5897  0.8402
  934MOL0     O25958   0.416   2.573   5.413 -0.3176  0.1509  0.5701
  934MOL0     C25959   0.281   2.537   5.394 -0.0897  0.8779  0.7509
  934MOL0     C25960   0.258   2.419   5.328  0.3996 -0.0216 -0.1765
  934MOL0     C25961   0.140   2.359   5.325  1.5430 -0.5627 -0.4076
  934MOL0     C25962   0.023   2.417   5.379  0.7621  0.1928 -0.8285
  934MOL0     O25963  -0.091   2.339   5.383  0.4118 -0.9076 -0.3883
  934MOL0     C25964  -0.210   2.413   5.432 -0.1473  0.2780  0.0594
  934MOL0     C25965  -0.328   2.317   5.414 -0.3025 -0.1494 -0.3184
  934MOL0     C25966  -0.470   2.390   5.417 -0.5036 -0.2779  0.6528
  934MOL0     C25967  -0.572   2.325   5.321  0.2450 -0.5492  0.0257
  934MOL0     C25968  -0.697   2.411   5.281  0.8453  0.2728 -0.4354
  934MOL0     C25969  -0.793   2.313   5.222  0.1989 -1.3010  0.0693
  934MOL0     C25970  -0.901   2.371   5.125 -0.5008 -0.2731 -1.0336
  934MOL0     C25971  -0.992   2.472   5.203 -0.3052 -0.9347  0.0469
  934MOL0     N25972  -1.046   2.429   5.334 -0.4770 -0.3157  0.7494
  934MOL0     C25973  -1.154   2.347   5.348  0.3372  0.4492  0.1073
  934MOL0     C25974  -1.181   2.345   5.481 -0.6797  0.6645  0.5766
  934MOL0     C25975  -1.314   2.291   5.546 -0.1392 -0.5420 -0.0917
  934MOL0     C25976  -1.365   2.400   5.643 -0.6090 -0.8310 -0.2045
  934MOL0     C25977  -1.502   2.355   5.714 -0.0931 -0.9263 -0.4255
  934MOL0     C25978  -1.628   2.432   5.654  0.3859  0.0160  0.8046
  934MOL0     O25979  -1.647   2.400   5.515  0.3787 -0.0220 -0.3848
  934MOL0     C25980  -1.738   2.302   5.485  0.5871  0.7001 -0.6867
  934MOL0     C25981  -1.785   2.203   5.577 -0.1175  0.2559 -0.8295
  934MOL0     C25982  -1.897   2.121   5.549 -0.0586  0.2042  0.0150
  934MOL0     C25983  -1.941   2.021   5.653 -0.9244  0.5477  0.3224
  934MOL0     C25984  -1.940   2.116   5.414  0.6953  0.7558 -0.1662
  934MOL0     C25985  -2.052   2.021   5.371  0.7901 -0.0212 -0.3567
  934MOL0     O25986  -2.145   2.063   5.282 -0.0600 -0.4083  0.5258
  934MOL0     C25987  -2.217   1.970   5.217  0.5968 -0.6211  0.1304
  934MOL0     C25988  -2.147   1.871   5.146  0.5784  0.4954  0.1585
  934MOL0     C25989  -2.215   1.775   5.070 -0.6589  0.1079 -0.1242
  934MOL0     C25990  -2.350   1.783   5.067  1.4210  0.4042 -0.9669
  934MOL0     O25991  -2.425   1.709   4.979 -0.1682  0.3901  0.1655
  934MOL0     C25992  -2.369   1.610   4.891  0.5127  0.0243 -0.9588
  934MOL0     C25993  -2.469   1.555   4.780 -0.0196  0.2219  0.1025
  934MOL0     C25994  -2.567   1.476   4.861 -0.2935  0.0373 -0.4799
  934MOL0     C25995  -2.675   1.438   4.775 -0.3241 -0.3996  0.5497
  934MOL0     C25996  -2.777   1.372   4.860  0.5821 -0.4215  0.6801
  934MOL0     C25997  -2.900   1.317   4.775 -0.8836  0.1977  0.0920
  934MOL0     C25998  -3.032   1.285   4.852 -0.9675 -0.0853  0.1802
  934MOL0     C25999  -3.101   1.170   4.774 -0.1686 -0.0322  0.0155
  934MOL0    Cl26000  -3.204   1.229   4.637  0.4122  0.3867 -0.3736
  934MOL0     C26001  -2.423   1.888   5.132  0.3328 -0.6578  0.3129
  934MOL0     C26002  -2.361   1.989   5.205 -0.2206  0.0660  0.0700
  934MOL0     O26003  -2.044   1.903   5.410  0.4905 -0.5102  0.1180
  934MOL0     C26004  -1.876   2.199   5.321  0.3012  0.0139  0.4371
  934MOL0     C26005  -1.784   2.294   5.356 -0.2215 -0.4819  0.0035
  934MOL0     N26006  -1.094   2.423   5.554 -0.3193 -0.1517  0.8619
  934MOL0     N26007  -1.013   2.479   5.462 -0.3751 -0.2301  0.7705
  934MOL0     C26008   0.045   2.538   5.450 -0.0274 -0.2758  0.4751
  934MOL0     C26009   0.174   2.593   5.462  0.0572 -0.0946 -1.4727
  934MOL0     C26010   0.575   2.737   5.515  0.0151  0.6583 -0.9614
  934MOL0     C26011   0.586   2.860   5.580  0.3483 -0.3237 -0.0705
  934MOL0     C26012   0.705   2.882   5.659  0.4389  0.0421  0.5011
  934MOL0     C26013   0.814   2.795   5.658 -0.2252 -0.3948  0.0551
  934MOL0     O26014   0.922   2.845   5.725  0.7661  0.3002  0.2040
  934MOL0     C26015   1.024   2.753   5.769  0.7487 -1.1290 -0.2637
  934MOL0     C26016   0.992   2.662   5.877 -0.3960  0.2495  0.4478
  934MOL0     C26017   0.902   2.728   5.985  0.5469  0.3641  0.4019
  934MOL0     C26018   0.865   2.634   6.101 -0.0922  0.4057 -0.0800
  934MOL0     C26019   0.975   2.566   6.162  0.2748  0.9225 -0.1817
  934MOL0     C26020   1.070   2.510   6.220 -0.5087  0.1209  0.4712
  934MOL0     C26021   0.800   2.669   5.593  0.6226 -0.7255  0.4840
  934MOL0     C26022   0.682   2.640   5.528  0.9389  0.0496 -0.0219
  934MOL0     H26023   0.342   2.367   5.282  1.1501  1.5909 -0.7137
  934MOL0     H26024   0.138   2.256   5.289  2.2568  0.1784 -2.7361
  934MOL0     H26025  -0.199   2.434   5.539  0.7693 -0.7245  0.1775
  934MOL0     H26026  -0.223   2.500   5.368  4.2907  2.4044  1.6163
  934MOL0     H26027  -0.321   2.278   5.312 -5.4168 -1.8990 -0.2585
  934MOL0     H26028  -0.315   2.233   5.483  2.5163  0.7611  0.3903
  934MOL0     H26029  -0.516   2.401   5.515 -3.4954 -0.1149 -0.6401
  934MOL0     H26030  -0.452   2.489   5.372  0.5672 -0.8268 -0.1973
  934MOL0     H26031  -0.510   2.310   5.232 -0.9819 -2.0866 -0.6052
  934MOL0     H26032  -0.609   2.228   5.357 -0.7469 -0.4771 -0.7660
  934MOL0     H26033  -0.745   2.451   5.371  0.6675  0.8493 -0.7790
  934MOL0     H26034  -0.674   2.489   5.207 -0.0749  1.3352  0.3601
  934MOL0     H26035  -0.741   2.227   5.179 -0.3913 -1.5588 -0.1479
  934MOL0     H26036  -0.840   2.253   5.301 -1.9422 -1.1768 -1.0444
  934MOL0     H26037  -0.862   2.422   5.037  0.2747 -0.7161 -0.9554
  934MOL0     H26038  -0.962   2.289   5.085  0.8547  0.0580 -4.0136
  934MOL0     H26039  -1.074   2.504   5.138  0.6564  2.0330  0.1377
  934MOL0     H26040  -0.935   2.564   5.220 -0.3379 -0.8425 -0.3259
  934MOL0     H26041  -1.221   2.309   5.271  1.4435  0.1212 -0.7233
  934MOL0     H26042  -1.384   2.259   5.468  0.7107 -0.4428 -0.9227
  934MOL0     H26043  -1.299   2.206   5.613  0.6867  1.0686  1.8594
  934MOL0     H26044  -1.380   2.492   5.586  1.7776 -0.9720 -1.1546
  934MOL0     H26045  -1.300   2.419   5.728 -1.0472 -1.0236  0.1841
  934MOL0     H26046  -1.492   2.384   5.819 -2.5021 -1.8419  0.1055
  934MOL0     H26047  -1.511   2.246   5.718  1.1785 -1.0118  2.2746
  934MOL0     H26048  -1.598   2.538   5.654  1.2109 -0.1999 -0.3365
  934MOL0     H26049  -1.721   2.420   5.709 -0.2084 -2.1948 -0.5674
  934MOL0     H26050  -1.743   2.184   5.675  1.0588  0.9103 -1.1907
  934MOL0     H26051  -2.050   2.012   5.659 -0.8053 -3.1538 -0.1722
  934MOL0     H26052  -1.900   1.922   5.629  2.3784  2.2748 -2.0273
  934MOL0     H26053  -1.907   2.049   5.753 -0.4796  0.1660  0.2830
  934MOL0     H26054  -2.040   1.858   5.161  0.7118  0.5391 -0.6723
  934MOL0     H26055  -2.153   1.694   5.033 -1.9083 -3.5877  4.7737
  934MOL0     H26056  -2.276   1.649   4.849 -0.4619  3.5341 -0.1492
  934MOL0     H26057  -2.347   1.520   4.949 -0.6934 -0.5991 -1.4316
  934MOL0     H26058  -2.522   1.636   4.729  0.4386  2.1525  2.5003
  934MOL0     H26059  -2.424   1.486   4.709  1.4810 -1.3937  2.4778
  934MOL0     H26060  -2.595   1.527   4.953 -1.0208  2.3131 -1.8801
  934MOL0     H26061  -2.510   1.388   4.892  0.6269  0.6299 -0.4432
  934MOL0     H26062  -2.720   1.523   4.723 -2.6362 -1.8795 -0.0187
  934MOL0     H26063  -2.637   1.369   4.699  0.5838  2.0836 -1.3910
  934MOL0     H26064  -2.802   1.448   4.934  0.2218  1.2841 -1.1106
  934MOL0     H26065  -2.734   1.293   4.922  0.8029 -2.7964 -2.2778
  934MOL0     H26066  -2.926   1.396   4.704  2.4614  2.6776  1.3501
  934MOL0     H26067  -2.880   1.226   4.718  0.0214  0.5146 -0.1070
  934MOL0     H26068  -3.079   1.384   4.855  0.9149  0.8857 -0.0960
  934MOL0     H26069  -3.001   1.266   4.956 -0.4793  1.2004  0.2916
  934MOL0     H26070  -3.166   1.125   4.849 -0.2658  0.9822  0.5565
  934MOL0     H26071  -3.033   1.092   4.741  2.1141  1.9541 -0.2226
  934MOL0     H26072  -2.530   1.897   5.112  0.0619 -1.2879  1.4136
  934MOL0     H26073  -2.407   2.082   5.238  0.0835  0.3943 -0.4285
  934MOL0     H26074  -1.907   2.193   5.217  2.2896  0.1633 -0.1992
  934MOL0     H26075  -1.752   2.353   5.270 -1.7875  1.0137  0.4080
  934MOL0     H26076  -0.041   2.588   5.494 -0.5940 -3.1282  2.9085
  934MOL0     H26077   0.190   2.687   5.513  1.6357 -1.4310  0.6807
  934MOL0     H26078   0.511   2.938   5.571 -0.1059 -0.9593 -2.4556
  934MOL0     H26079   0.718   2.984   5.695 -3.8685  1.0442 -0.3194
  934MOL0     H26080   1.067   2.693   5.689 -1.1025 -0.2539 -2.0049
  934MOL0     H26081   1.096   2.824   5.812  0.5937  0.7852 -2.9249
  934MOL0     H26082   1.087   2.635   5.925  1.3471  1.6467 -2.0033
  934MOL0     H26083   0.946   2.578   5.825  3.4405 -0.1023 -2.8362
  934MOL0     H26084   0.814   2.759   5.927  0.7356 -0.6048 -0.4304
  934MOL0     H26085   0.942   2.822   6.024 -0.0965  0.9338 -0.2916
  934MOL0     H26086   0.808   2.552   6.057  2.3291 -3.3783  3.1255
  934MOL0     H26087   0.802   2.669   6.183 -2.0428 -1.5479 -0.6700
  934MOL0     H26088   1.147   2.451   6.266 -2.4937 -1.8845  1.4403
  934MOL0     H26089   0.885   2.601   5.596 -0.3977 -2.2471 -1.9624
  934MOL0     H26090   0.686   2.543   5.480  3.5848  1.5031 -3.0702
  935MOL0     O26091   7.964   0.604   8.816 -0.5170  0.3068 -0.6769
  935MOL0     C26092   8.005   0.509   8.752 -0.4907 -0.0493  0.0973
  935MOL0     O26093   7.932   0.452   8.650 -0.3876 -0.6034 -0.2062
  935MOL0     C26094   7.801   0.496   8.640 -0.2234 -0.0955  1.0513
  935MOL0     C26095   7.774   0.607   8.563 -0.9722 -0.1531  0.2040
  935MOL0     C26096   7.643   0.649   8.546 -0.1897 -0.3070  0.5347
  935MOL0     C26097   7.533   0.565   8.575 -0.9012  0.1048  0.7607
  935MOL0     O26098   7.406   0.612   8.553 -0.6039 -0.1587 -0.3061
  935MOL0     C26099   7.347   0.687   8.660 -0.5826 -0.3443 -0.4210
  935MOL0     C26100   7.246   0.784   8.598  0.1583  0.2963 -0.0109
  935MOL0     C26101   7.158   0.706   8.497  0.0402 -0.2587  0.4832
  935MOL0     C26102   7.037   0.793   8.456 -0.0777 -0.2296 -0.1003
  935MOL0     C26103   6.948   0.717   8.356 -0.0192 -0.2649 -0.1455
  935MOL0     C26104   6.839   0.801   8.295 -0.4000 -0.3751 -0.9267
  935MOL0     C26105   6.763   0.724   8.193  0.0760 -0.3054  0.5892
  935MOL0     C26106   6.615   0.766   8.181 -0.7172 -0.4547 -0.5677
  935MOL0     N26107   6.611   0.903   8.125 -0.0440  0.2413  0.0292
  935MOL0     C26108   6.593   0.934   7.994  0.4786  0.8850  0.0822
  935MOL0     C26109   6.620   1.069   7.997  0.1995 -0.5205  1.5657
  935MOL0     C26110   6.614   1.177   7.893  1.2821  0.8272 -0.0452
  935MOL0     C26111   6.717   1.158   7.789  0.2137 -0.3021  0.6265
  935MOL0     C26112   6.721   1.282   7.696  0.0190 -0.1405  0.6038
  935MOL0     C26113   6.588   1.316   7.624 -0.0494  0.4577  0.1881
  935MOL0     O26114   6.550   1.187   7.554 -0.2646  0.2126 -0.0014
  935MOL0     C26115   6.418   1.156   7.547  0.6899  0.3627 -0.2099
  935MOL0     C26116   6.324   1.258   7.531  0.2652 -0.4274  0.4972
  935MOL0     C26117   6.182   1.239   7.519 -0.6290  0.3054 -0.4459
  935MOL0     C26118   6.080   1.354   7.496 -0.1314  1.5507  0.3360
  935MOL0     C26119   6.145   1.107   7.533 -0.3633 -1.0300  1.1543
  935MOL0     C26120   6.009   1.074   7.536  0.1591  1.2723 -0.0132
  935MOL0     O26121   5.941   1.104   7.423  0.8575 -0.1112  0.1363
  935MOL0     C26122   5.810   1.054   7.427  0.2338  0.0096  0.1531
  935MOL0     C26123   5.771   0.941   7.351  0.5205  0.3413  0.1962
  935MOL0     C26124   5.640   0.894   7.343  0.1920  0.3348 -0.3679
  935MOL0     C26125   5.542   0.954   7.416 -0.2302  0.1953  0.2187
  935MOL0     O26126   5.408   0.923   7.432  0.1124  0.6608  0.3314
  935MOL0     C26127   5.382   0.785   7.393 -0.3255  0.5651  0.6668
  935MOL0     C26128   5.227   0.764   7.372 -0.3018  0.1458 -0.3105
  935MOL0     C26129   5.188   0.623   7.336  0.1776  0.4004  0.4514
  935MOL0     C26130   5.044   0.596   7.318 -0.2857  0.1866 -0.0687
  935MOL0     C26131   5.017   0.498   7.198 -0.6791 -1.1117 -0.1888
  935MOL0     C26132   4.873   0.461   7.184 -0.6565 -0.4593 -0.2293
  935MOL0     C26133   4.856   0.388   7.052 -1.3254 -0.6914 -0.1681
  935MOL0     C26134   4.718   0.328   7.028  0.5301  0.3893 -0.2056
  935MOL0    Cl26135   4.712   0.257   6.865 -0.0768  0.2713 -0.0307
  935MOL0     C26136   5.586   1.065   7.493  0.0308  0.0006 -1.2469
  935MOL0     C26137   5.714   1.111   7.504 -0.6735 -0.1034 -0.2708
  935MOL0     O26138   5.970   1.002   7.628 -0.4667  0.4837 -0.4781
  935MOL0     C26139   6.235   1.001   7.535 -0.7535 -0.9477  0.5962
  935MOL0     C26140   6.373   1.024   7.553  0.5090 -0.8183 -0.6319
  935MOL0     N26141   6.645   1.110   8.128 -0.6754  0.2076 -0.4452
  935MOL0     N26142   6.617   1.009   8.209 -0.6702  0.6114  0.4977
  935MOL0     C26143   7.562   0.453   8.651  0.6630 -0.3281  0.0240
  935MOL0     C26144   7.691   0.416   8.675  0.8666  1.4755 -0.1187
  935MOL0     C26145   8.131   0.446   8.796 -0.5569  0.7050 -0.6033
  935MOL0     C26146   8.209   0.371   8.704 -0.8533  0.0478  0.5748
  935MOL0     C26147   8.323   0.298   8.755  0.2507  0.0770 -0.2620
  935MOL0     C26148   8.361   0.301   8.890 -0.0946  0.2571  0.4267
  935MOL0     O26149   8.474   0.222   8.926 -0.0450 -0.4416  0.5822
  935MOL0     C26150   8.546   0.257   9.041  0.2549 -0.3623 -0.5821
  935MOL0     C26151   8.664   0.160   9.073 -0.7205 -0.3526  0.9483
  935MOL0     C26152   8.784   0.164   8.973  0.1639 -0.7045  0.9936
  935MOL0     C26153   8.748   0.160   8.820 -0.2319 -0.0406 -0.0607
  935MOL0     C26154   8.854   0.143   8.715  0.4178  0.2106 -0.9579
  935MOL0     C26155   8.941   0.119   8.636 -0.2437 -0.3351 -1.1238
  935MOL0     C26156   8.291   0.384   8.978 -0.4149 -0.1939  0.2409
  935MOL0     C26157   8.172   0.458   8.928 -0.2704  0.3501  0.6657
  935MOL0     H26158   7.854   0.665   8.518  0.7748 -0.6900  2.4188
  935MOL0     H26159   7.612   0.745   8.506  4.5116  0.4641 -2.0325
  935MOL0     H26160   7.297   0.619   8.730  0.4128 -1.4203 -0.7169
  935MOL0     H26161   7.424   0.748   8.709 -1.8017  1.9912 -1.2887
  935MOL0     H26162   7.180   0.820   8.677  0.2920 -4.3842  2.5948
  935MOL0     H26163   7.286   0.869   8.541  0.2411  0.5051  0.3528
  935MOL0     H26164   7.220   0.686   8.409 -0.3030 -1.5084  0.5070
  935MOL0     H26165   7.124   0.618   8.552 -2.2382  0.0549 -0.3270
  935MOL0     H26166   6.980   0.836   8.539 -1.1275 -1.0452 -0.3691
  935MOL0     H26167   7.087   0.874   8.401 -0.2127 -1.0185 -1.4373
  935MOL0     H26168   7.010   0.687   8.270 -0.4893 -0.1057 -0.5416
  935MOL0     H26169   6.906   0.626   8.400 -1.6161 -0.9821 -2.8986
  935MOL0     H26170   6.766   0.829   8.371 -0.4878 -2.7940 -0.0344
  935MOL0     H26171   6.875   0.895   8.252  2.4144 -0.4415  1.0290
  935MOL0     H26172   6.805   0.745   8.094  0.2305 -0.4664  0.6213
  935MOL0     H26173   6.768   0.617   8.213  1.2736 -0.3597  0.0804
  935MOL0     H26174   6.553   0.752   8.270  0.6146  2.0521  0.8750
  935MOL0     H26175   6.581   0.702   8.099 -1.6473  1.7591 -1.9978
  935MOL0     H26176   6.578   0.867   7.911  0.4506 -0.1458  0.9057
  935MOL0     H26177   6.511   1.167   7.857  0.6715  0.0042  1.7766
  935MOL0     H26178   6.624   1.272   7.946  1.0787  0.5869  0.4267
  935MOL0     H26179   6.699   1.066   7.733  0.9701 -0.8100  1.2050
  935MOL0     H26180   6.813   1.147   7.840 -0.1426  3.3926  2.4231
  935MOL0     H26181   6.802   1.260   7.626  0.7780  0.8592  1.1305
  935MOL0     H26182   6.759   1.366   7.755 -2.6055  0.8450  1.0232
  935MOL0     H26183   6.596   1.401   7.556  0.1580  1.0750  0.9762
  935MOL0     H26184   6.509   1.332   7.698 -0.5379  0.9631 -0.4348
  935MOL0     H26185   6.354   1.361   7.511  1.1651 -0.3894  1.9057
  935MOL0     H26186   5.986   1.329   7.545 -1.6490  3.1327 -1.6108
  935MOL0     H26187   6.116   1.443   7.549 -0.8060  1.9126  0.1913
  935MOL0     H26188   6.062   1.385   7.393  1.4354 -2.4951 -1.3939
  935MOL0     H26189   5.855   0.886   7.308  1.8015  1.7411  0.8009
  935MOL0     H26190   5.626   0.807   7.280  1.4397  1.3788 -2.1688
  935MOL0     H26191   5.427   0.750   7.300  0.1649 -0.3797  1.2371
  935MOL0     H26192   5.423   0.709   7.461 -1.4873 -0.0985  0.6471
  935MOL0     H26193   5.185   0.806   7.465 -0.6272 -1.0451  0.1015
  935MOL0     H26194   5.204   0.838   7.295  2.1373  1.4413  0.0927
  935MOL0     H26195   5.231   0.557   7.412 -0.4424  1.6113  1.9045
  935MOL0     H26196   5.238   0.606   7.240 -0.0679  2.1947 -0.0373
  935MOL0     H26197   5.003   0.551   7.409  3.4935 -2.8179  0.4237
  935MOL0     H26198   4.996   0.691   7.293  1.2674  0.5388 -1.9859
  935MOL0     H26199   5.074   0.405   7.202 -1.3938 -1.6746 -1.9961
  935MOL0     H26200   5.054   0.561   7.118  1.3238 -0.3356  1.2650
  935MOL0     H26201   4.830   0.399   7.262  1.8192 -0.6770  1.0522
  935MOL0     H26202   4.816   0.554   7.177  1.7253  1.0360 -1.3537
  935MOL0     H26203   4.922   0.300   7.056 -1.3737 -0.7465 -0.4868
  935MOL0     H26204   4.890   0.448   6.967 -1.2682 -1.8402 -0.9980
  935MOL0     H26205   4.642   0.406   7.040  0.4895  0.4656 -0.9242
  935MOL0     H26206   4.706   0.248   7.101  0.8611  1.5338  1.1384
  935MOL0     H26207   5.513   1.109   7.560  1.3325  1.7436 -0.9106
  935MOL0     H26208   5.740   1.176   7.586 -0.6234 -1.6408  0.9876
  935MOL0     H26209   6.196   0.900   7.543 -0.1862 -1.0652  2.2989
  935MOL0     H26210   6.443   0.942   7.563  2.9445  1.4022  2.2324
  935MOL0     H26211   7.477   0.390   8.676 -1.6860  3.0201  1.3459
  935MOL0     H26212   7.694   0.315   8.715 -2.0412 -0.5180 -4.1501
  935MOL0     H26213   8.176   0.343   8.605  2.9630 -0.2853 -0.7445
  935MOL0     H26214   8.377   0.229   8.692 -0.9488 -0.9881 -0.1512
  935MOL0     H26215   8.596   0.353   9.029  0.0138 -0.2034 -0.3027
  935MOL0     H26216   8.486   0.262   9.132  3.6259 -0.0013  1.8099
  935MOL0     H26217   8.627   0.057   9.064  1.1549 -0.8871 -2.9252
  935MOL0     H26218   8.707   0.170   9.173 -2.0036  2.2438  1.3347
  935MOL0     H26219   8.850   0.079   8.997  1.0191 -0.2643  0.2738
  935MOL0     H26220   8.837   0.257   8.992  0.4510 -0.3539 -1.2036
  935MOL0     H26221   8.694   0.250   8.790  1.3305  0.7544 -0.6292
  935MOL0     H26222   8.684   0.075   8.797  0.5065 -0.8230  0.6882
  935MOL0     H26223   9.013   0.096   8.560 -1.1548 -0.1435 -2.0721
  935MOL0     H26224   8.328   0.404   9.078 -1.6859  1.0530  0.4855
  935MOL0     H26225   8.117   0.517   9.001 -3.6159  0.0091 -1.3423
  936MOL0     O26226   0.738   7.708   5.661  0.0511 -0.4105  0.2061
  936MOL0     C26227   0.776   7.719   5.772  0.0381 -0.2968  0.3633
  936MOL0     O26228   0.712   7.676   5.882  0.2971 -0.1041  1.3053
  936MOL0     C26229   0.584   7.618   5.875  0.1483  0.1068 -0.2664
  936MOL0     C26230   0.492   7.653   5.976 -0.3430  0.4094 -0.3546
  936MOL0     C26231   0.375   7.579   5.996 -0.1705  0.2471  0.0504
  936MOL0     C26232   0.342   7.477   5.916  0.5462  0.2344  0.4747
  936MOL0     O26233   0.227   7.400   5.928  0.3597 -0.2131  0.2171
  936MOL0     C26234   0.109   7.436   6.008 -0.3828  0.4467 -0.1952
  936MOL0     C26235  -0.005   7.378   5.919  0.6339  0.0039 -0.0200
  936MOL0     C26236  -0.151   7.408   5.969 -0.7866 -0.0356  0.0894
  936MOL0     C26237  -0.152   7.430   6.121  0.3358  0.6485  0.2443
  936MOL0     C26238  -0.303   7.435   6.169 -0.4229 -0.9822  0.2601
  936MOL0     C26239  -0.381   7.557   6.116 -0.1257 -0.7544 -0.5055
  936MOL0     C26240  -0.525   7.551   6.178 -0.0710  0.8659 -0.4299
  936MOL0     C26241  -0.591   7.674   6.118 -0.0633 -1.0534  0.0328
  936MOL0     N26242  -0.732   7.660   6.134  0.2316 -0.0552 -0.1100
  936MOL0     C26243  -0.809   7.568   6.065  0.3076 -0.2519  0.0107
  936MOL0     C26244  -0.929   7.563   6.129 -0.1231 -0.2505 -0.0355
  936MOL0     C26245  -1.051   7.494   6.078 -0.3783  0.1144  0.2436
  936MOL0     C26246  -1.161   7.483   6.184  0.3671 -0.9080  0.0820
  936MOL0     C26247  -1.266   7.377   6.155 -0.3803 -0.2310 -0.1686
  936MOL0     C26248  -1.363   7.430   6.060  0.7464 -0.1585  0.3621
  936MOL0     O26249  -1.405   7.564   6.087  0.0269 -0.4017 -0.7367
  936MOL0     C26250  -1.539   7.582   6.120 -0.3849 -0.0722 -0.5119
  936MOL0     C26251  -1.583   7.719   6.102  1.0789 -0.9256  0.7399
  936MOL0     C26252  -1.718   7.752   6.108  0.4217 -0.7312 -0.2120
  936MOL0     C26253  -1.743   7.891   6.066  0.0694 -0.2147 -0.0769
  936MOL0     C26254  -1.817   7.657   6.147  0.6571 -0.6429  0.4519
  936MOL0     C26255  -1.958   7.688   6.189  0.9045 -0.4747 -0.3827
  936MOL0     O26256  -2.028   7.589   6.250  0.3195  0.2810 -0.4004
  936MOL0     C26257  -2.159   7.622   6.279 -0.1458  0.2712 -0.1876
  936MOL0     C26258  -2.264   7.533   6.241 -0.4706  0.2323 -0.1857
  936MOL0     C26259  -2.393   7.551   6.287  0.1000 -0.2829  0.1744
  936MOL0     C26260  -2.427   7.650   6.376  0.1825 -0.7589  0.2687
  936MOL0     O26261  -2.549   7.671   6.440 -0.1312  0.4230 -0.2032
  936MOL0     C26262  -2.664   7.575   6.428  0.1117 -1.4544  0.3364
  936MOL0     C26263  -2.783   7.616   6.512 -0.2564 -0.2298  0.5671
  936MOL0     C26264  -2.904   7.523   6.472  0.2035 -0.5674 -0.1416
  936MOL0     C26265  -3.016   7.557   6.571  0.3149 -0.4480  0.3047
  936MOL0     C26266  -3.152   7.480   6.539 -0.1438 -0.3367  0.6024
  936MOL0     C26267  -3.270   7.516   6.634 -0.4471  0.6107 -0.4758
  936MOL0     C26268  -3.380   7.406   6.613 -0.1405 -0.1013  0.2968
  936MOL0     C26269  -3.481   7.448   6.508  0.1299 -0.3203 -0.0411
  936MOL0    Cl26270  -3.415   7.505   6.349  0.1092  0.0129 -0.2546
  936MOL0     C26271  -2.322   7.738   6.412  0.2742  0.6567  0.5093
  936MOL0     C26272  -2.194   7.726   6.366 -0.0509 -0.1467  0.4754
  936MOL0     O26273  -1.998   7.803   6.166  0.4033  0.9225 -0.9130
  936MOL0     C26274  -1.770   7.520   6.147  0.2947 -0.0050 -1.0281
  936MOL0     C26275  -1.641   7.483   6.144  0.0488  0.6988 -0.4982
  936MOL0     N26276  -0.919   7.637   6.244  0.8803  0.0152  0.1074
  936MOL0     N26277  -0.807   7.702   6.238 -0.6858 -0.6890  0.2836
  936MOL0     C26278   0.427   7.440   5.818  0.5503 -0.1097  0.5078
  936MOL0     C26279   0.552   7.503   5.799 -0.8155 -0.5558  0.3356
  936MOL0     C26280   0.922   7.742   5.780  0.4735 -0.3324  1.1899
  936MOL0     C26281   1.000   7.694   5.894 -0.1539  0.0341  0.7393
  936MOL0     C26282   1.141   7.707   5.896  0.2633  0.3519  0.3001
  936MOL0     C26283   1.207   7.777   5.793  0.3046  1.2188 -0.1861
  936MOL0     O26284   1.341   7.814   5.793 -0.1711 -0.2327  0.1432
  936MOL0     C26285   1.413   7.816   5.918 -0.1809  0.0433  0.0389
  936MOL0     C26286   1.561   7.841   5.894  0.7040  0.1333 -0.6480
  936MOL0     C26287   1.614   7.949   5.985  0.0686  0.2931 -0.1194
  936MOL0     C26288   1.763   7.973   5.974  0.4593 -0.0251 -0.5639
  936MOL0     C26289   1.797   8.090   6.049  0.0909 -0.0686  0.2719
  936MOL0     C26290   1.834   8.196   6.109 -0.5649  0.7052  0.8373
  936MOL0     C26291   1.137   7.800   5.672  0.6597  0.4436 -0.6391
  936MOL0     C26292   0.994   7.798   5.665  0.5915 -0.4250  0.4034
  936MOL0     H26293   0.521   7.726   6.050 -0.1371  0.3918 -0.4175
  936MOL0     H26294   0.305   7.603   6.076 -0.7956  0.3349 -0.5112
  936MOL0     H26295   0.123   7.393   6.108  1.6063  0.9681 -0.2048
  936MOL0     H26296   0.097   7.545   6.005 -2.6051  0.2439 -1.4819
  936MOL0     H26297  -0.001   7.435   5.826  1.9199  2.2918  1.3456
  936MOL0     H26298  -0.004   7.270   5.901  1.3421 -0.3450  1.9085
  936MOL0     H26299  -0.196   7.492   5.915 -2.8722 -1.1550  0.0132
  936MOL0     H26300  -0.208   7.320   5.939 -1.3006  0.2171  0.3156
  936MOL0     H26301  -0.116   7.342   6.175 -0.8342 -0.6143 -0.9805
  936MOL0     H26302  -0.098   7.520   6.153 -1.0564  2.5525 -2.3998
  936MOL0     H26303  -0.355   7.342   6.142  1.8130 -1.6204 -2.2738
  936MOL0     H26304  -0.309   7.438   6.278  1.2901 -0.3386  0.3637
  936MOL0     H26305  -0.345   7.656   6.144 -4.6612  0.7642  0.8178
  936MOL0     H26306  -0.390   7.553   6.007  1.3983  1.8280 -0.8036
  936MOL0     H26307  -0.561   7.457   6.136 -0.5510  1.0044 -0.3318
  936MOL0     H26308  -0.528   7.549   6.287  0.1406 -1.7724 -0.4266
  936MOL0     H26309  -0.572   7.682   6.011  1.1957  0.9584  0.3544
  936MOL0     H26310  -0.551   7.763   6.167  0.7260 -2.4313  2.0208
  936MOL0     H26311  -0.777   7.521   5.972  0.0946  0.1976 -0.2914
  936MOL0     H26312  -1.079   7.531   5.980  1.0062  1.0295  0.1747
  936MOL0     H26313  -1.011   7.393   6.062 -1.3591 -0.4931  1.3771
  936MOL0     H26314  -1.203   7.579   6.216 -0.2012 -1.4357  0.9503
  936MOL0     H26315  -1.110   7.435   6.268  0.2281 -0.1197  0.6246
  936MOL0     H26316  -1.316   7.369   6.253 -0.5090  4.1738  0.3266
  936MOL0     H26317  -1.211   7.287   6.128  2.6846  0.1915  3.7232
  936MOL0     H26318  -1.443   7.357   6.049 -1.7516  2.2093  1.6801
  936MOL0     H26319  -1.309   7.447   5.966  2.3656 -1.6544  0.9694
  936MOL0     H26320  -1.508   7.793   6.074  0.6775 -0.9102 -0.3336
  936MOL0     H26321  -1.670   7.942   6.002  0.3354 -1.7694 -1.0647
  936MOL0     H26322  -1.839   7.904   6.016  0.5238 -0.8057 -1.1116
  936MOL0     H26323  -1.747   7.955   6.155  1.5379  0.5993 -0.5595
  936MOL0     H26324  -2.237   7.445   6.183 -1.6474 -0.8465  0.8272
  936MOL0     H26325  -2.478   7.491   6.258 -0.2792 -1.4546  3.3962
  936MOL0     H26326  -2.703   7.561   6.327 -0.9021 -2.9393  0.8869
  936MOL0     H26327  -2.646   7.474   6.466 -0.6647 -1.5152  0.5640
  936MOL0     H26328  -2.770   7.600   6.620 -3.3287  2.1266  1.4260
  936MOL0     H26329  -2.794   7.724   6.499  0.5819  0.1244  2.3728
  936MOL0     H26330  -2.872   7.420   6.490  0.4167 -0.0780  2.7666
  936MOL0     H26331  -2.938   7.540   6.370  0.8798 -4.8194 -1.2341
  936MOL0     H26332  -2.987   7.531   6.673 -0.9819  3.3614  1.7995
  936MOL0     H26333  -3.040   7.663   6.563 -3.7545 -1.2112  0.2415
  936MOL0     H26334  -3.133   7.373   6.531  1.1851 -0.1626  1.2298
  936MOL0     H26335  -3.184   7.506   6.437  2.2712 -0.4985 -0.2593
  936MOL0     H26336  -3.244   7.502   6.739  2.3801 -2.5791 -1.4387
  936MOL0     H26337  -3.297   7.619   6.609 -3.0852  0.2570  0.5762
  936MOL0     H26338  -3.424   7.365   6.705  1.2599 -1.9447  0.1980
  936MOL0     H26339  -3.329   7.321   6.567  2.0632  0.2091  2.0197
  936MOL0     H26340  -3.531   7.531   6.559  1.3710  0.0963  0.5451
  936MOL0     H26341  -3.552   7.369   6.482 -0.9344  0.7585 -0.4990
  936MOL0     H26342  -2.337   7.811   6.492  1.0850  0.6488  0.6806
  936MOL0     H26343  -2.109   7.784   6.401  1.4734 -1.9227 -0.1247
  936MOL0     H26344  -1.839   7.438   6.164 -0.0204  0.3685 -0.4639
  936MOL0     H26345  -1.610   7.380   6.151  0.4270  0.8422 -0.0246
  936MOL0     H26346   0.371   7.371   5.755 -1.6126 -0.7658  2.9575
  936MOL0     H26347   0.624   7.473   5.722 -1.9874 -1.3875 -0.4622
  936MOL0     H26348   0.964   7.649   5.986 -1.5631 -1.2562 -0.3949
  936MOL0     H26349   1.194   7.674   5.984 -1.0648  1.4225  1.5550
  936MOL0     H26350   1.374   7.895   5.983  0.2358  1.1823 -1.0745
  936MOL0     H26351   1.398   7.720   5.968 -1.1518 -0.1610 -0.6056
  936MOL0     H26352   1.576   7.865   5.788  2.2082  1.5751 -0.1656
  936MOL0     H26353   1.605   7.747   5.929 -0.0681 -0.4159 -1.1186
  936MOL0     H26354   1.588   7.924   6.088 -0.3090  0.2655 -0.2197
  936MOL0     H26355   1.569   8.044   5.953 -2.3109 -0.7666 -0.0961
  936MOL0     H26356   1.783   7.978   5.866  4.1764 -0.4664 -0.0276
  936MOL0     H26357   1.816   7.886   6.014 -0.5082 -1.1192 -1.6109
  936MOL0     H26358   1.865   8.292   6.146  3.6906 -0.6038  1.3085
  936MOL0     H26359   1.175   7.847   5.582 -0.9138  3.3840  0.1255
  936MOL0     H26360   0.952   7.836   5.573  0.5892  1.8657  1.2874
  937MOL0     O26361   3.873   8.115   1.123  0.2885  0.6694  0.0769
  937MOL0     C26362   3.888   8.114   1.242 -0.1071 -0.1871 -0.1085
  937MOL0     O26363   3.784   8.147   1.329 -0.0955  0.1075  0.3798
  937MOL0     C26364   3.666   8.205   1.280 -0.0102  0.5894 -0.7653
  937MOL0     C26365   3.636   8.342   1.289 -0.0371 -0.0536 -0.3006
  937MOL0     C26366   3.509   8.393   1.254  0.2144  0.6064 -0.4339
  937MOL0     C26367   3.421   8.301   1.193 -0.2305 -0.0751  0.7352
  937MOL0     O26368   3.305   8.337   1.127  0.5611  0.4730 -0.7264
  937MOL0     C26369   3.304   8.465   1.063 -0.1462 -0.0016  0.4692
  937MOL0     C26370   3.180   8.480   0.969 -0.2343  0.4340 -0.0554
  937MOL0     C26371   3.044   8.459   1.037 -0.1238  0.1495 -0.5615
  937MOL0     C26372   2.933   8.491   0.943 -0.1294  0.2316 -0.3230
  937MOL0     C26373   2.797   8.419   0.976 -0.4499 -0.8795  0.4792
  937MOL0     C26374   2.674   8.462   0.891 -0.3480 -0.1365 -0.0601
  937MOL0     C26375   2.695   8.407   0.742  0.3290  0.0029 -0.2451
  937MOL0     C26376   2.591   8.483   0.651 -0.0196  0.4266 -0.3592
  937MOL0     N26377   2.462   8.482   0.703  0.1206 -0.4879  1.0362
  937MOL0     C26378   2.398   8.369   0.726 -0.4691 -0.0382 -0.4963
  937MOL0     C26379   2.274   8.413   0.762  0.7006  0.3035  0.2108
  937MOL0     C26380   2.152   8.324   0.813 -0.1683  0.0937  0.2887
  937MOL0     C26381   2.125   8.353   0.963 -0.1816  0.2957  0.6187
  937MOL0     C26382   2.023   8.250   1.022  0.3561  0.0176  0.5197
  937MOL0     C26383   1.888   8.277   0.961 -1.0032 -0.2049  0.1783
  937MOL0     O26384   1.797   8.188   1.026  0.1457 -0.0315 -0.2191
  937MOL0     C26385   1.659   8.206   1.010  0.1472 -0.3828 -0.5999
  937MOL0     C26386   1.588   8.279   0.913 -0.0998  0.0891  0.6434
  937MOL0     C26387   1.449   8.284   0.907  0.3629 -0.6087 -0.1184
  937MOL0     C26388   1.386   8.367   0.801 -0.6384 -0.1491  0.9368
  937MOL0     C26389   1.380   8.202   1.002  0.0054  0.5091  0.8193
  937MOL0     C26390   1.229   8.175   0.994 -1.2498  0.0473  0.3650
  937MOL0     O26391   1.178   8.062   1.069 -1.4557  0.6564 -0.3709
  937MOL0     C26392   1.046   8.038   1.079  0.4613  0.4682  0.4285
  937MOL0     C26393   0.950   8.131   1.097  0.8131 -0.4493 -0.1614
  937MOL0     C26394   0.817   8.092   1.107  0.5384  0.5231 -0.4144
  937MOL0     C26395   0.776   7.956   1.099  0.0034  0.2603  0.4315
  937MOL0     O26396   0.651   7.910   1.118 -0.5587 -0.7697  0.3107
  937MOL0     C26397   0.540   7.997   1.101  0.2453 -0.7163 -0.4858
  937MOL0     C26398   0.422   7.913   1.126 -0.2902 -0.2840  0.3309
  937MOL0     C26399   0.290   7.991   1.137  0.4240  0.8281 -0.3695
  937MOL0     C26400   0.174   7.901   1.137  0.1238  0.4795  0.3377
  937MOL0     C26401   0.030   7.961   1.130 -0.4796  0.6890  0.3635
  937MOL0     C26402  -0.075   7.858   1.177  0.3659 -0.4969 -0.0663
  937MOL0     C26403  -0.210   7.927   1.178  0.0063 -0.1024 -0.2539
  937MOL0     C26404  -0.262   7.965   1.311 -0.3111  0.1635  0.5805
  937MOL0    Cl26405  -0.172   8.085   1.424 -0.0504  0.2295 -0.1521
  937MOL0     C26406   0.875   7.856   1.109 -0.6875  0.3900 -0.5681
  937MOL0     C26407   1.014   7.894   1.086  0.7209  0.5116  0.0937
  937MOL0     O26408   1.161   8.260   0.927 -0.7210  0.6256 -0.4475
  937MOL0     C26409   1.455   8.133   1.102 -0.3224  0.7409  0.4679
  937MOL0     C26410   1.587   8.148   1.115 -0.3210  0.6004 -0.1205
  937MOL0     N26411   2.269   8.550   0.756  0.4099  0.0450 -0.1113
  937MOL0     N26412   2.381   8.592   0.714  0.3475  0.6848  0.1590
  937MOL0     C26413   3.446   8.165   1.182  0.6016 -0.5042  0.2537
  937MOL0     C26414   3.572   8.115   1.222  0.0439  0.4234 -0.4708
  937MOL0     C26415   4.028   8.099   1.300  0.1678  1.0309 -0.3731
  937MOL0     C26416   4.063   8.164   1.422 -0.3094 -0.0761 -0.2414
  937MOL0     C26417   4.175   8.132   1.497 -0.4847 -0.6309 -0.4448
  937MOL0     C26418   4.270   8.044   1.438  0.7717  0.0738  0.1366
  937MOL0     O26419   4.387   8.033   1.504 -0.3768 -0.1670  0.6921
  937MOL0     C26420   4.493   7.962   1.442 -0.7572  0.0871  0.3954
  937MOL0     C26421   4.617   7.975   1.533 -0.3806  0.1701 -0.3287
  937MOL0     C26422   4.587   7.957   1.685  0.7296 -0.1163 -0.0866
  937MOL0     C26423   4.702   7.900   1.772  0.4959 -1.0183  0.3556
  937MOL0     C26424   4.734   7.760   1.734 -0.8282 -0.2093  0.0523
  937MOL0     C26425   4.743   7.639   1.717  0.7478  0.2393 -0.0939
  937MOL0     C26426   4.231   7.972   1.322  0.8077 -0.5404  0.0037
  937MOL0     C26427   4.108   7.990   1.257  0.4494 -0.8451  0.4288
  937MOL0     H26428   3.697   8.413   1.344 -0.5563  1.7915 -2.0244
  937MOL0     H26429   3.492   8.498   1.275 -2.2704 -0.1042  1.6903
  937MOL0     H26430   3.307   8.538   1.144 -0.8174 -1.1843  1.5971
  937MOL0     H26431   3.395   8.470   1.003 -0.0111 -1.9666  0.4550
  937MOL0     H26432   3.170   8.577   0.918 -2.5716  0.2136 -0.1230
  937MOL0     H26433   3.184   8.399   0.895 -1.7561 -0.4794  0.8138
  937MOL0     H26434   3.044   8.352   1.064  1.4485  0.0406 -0.8683
  937MOL0     H26435   3.046   8.528   1.122  2.9220  2.5080 -2.3404
  937MOL0     H26436   2.906   8.597   0.946  3.0368  1.1047  1.1288
  937MOL0     H26437   2.970   8.471   0.842 -0.0522  2.2977 -0.7455
  937MOL0     H26438   2.809   8.311   0.968  0.3821 -0.6815 -1.5382
  937MOL0     H26439   2.775   8.448   1.079 -0.8542 -0.3848  0.2628
  937MOL0     H26440   2.582   8.422   0.935 -0.9183  0.8061 -0.3756
  937MOL0     H26441   2.676   8.570   0.873 -1.2142  0.0929  1.0922
  937MOL0     H26442   2.796   8.434   0.711  0.1538 -2.3514 -3.3552
  937MOL0     H26443   2.674   8.299   0.736 -2.0977  0.4672 -1.0610
  937MOL0     H26444   2.594   8.445   0.548  2.8017  1.4327 -0.7328
  937MOL0     H26445   2.633   8.583   0.634 -0.0057  1.0660  2.7745
  937MOL0     H26446   2.427   8.265   0.716 -1.9392 -0.8715  2.6426
  937MOL0     H26447   2.064   8.358   0.757  0.3481  2.8704  0.9852
  937MOL0     H26448   2.166   8.216   0.807  0.6272  0.0340  2.4520
  937MOL0     H26449   2.093   8.457   0.961 -2.4266 -0.3452  0.0645
  937MOL0     H26450   2.219   8.348   1.018 -1.7526 -2.0048  3.3893
  937MOL0     H26451   2.007   8.280   1.126 -2.1666  0.4627  0.0830
  937MOL0     H26452   2.056   8.146   1.020  1.1239  0.2314  1.4187
  937MOL0     H26453   1.895   8.267   0.852 -1.1910 -0.9582  0.2295
  937MOL0     H26454   1.862   8.383   0.969 -3.7139 -0.8808  1.5057
  937MOL0     H26455   1.636   8.327   0.828  0.2759 -1.3568  0.0116
  937MOL0     H26456   1.334   8.303   0.729  2.3661 -0.3523 -1.2939
  937MOL0     H26457   1.316   8.440   0.841 -3.0500 -0.6670 -1.9730
  937MOL0     H26458   1.464   8.425   0.750  0.4579  0.2930  3.0308
  937MOL0     H26459   0.980   8.235   1.106 -0.2259 -0.2718  1.7875
  937MOL0     H26460   0.749   8.177   1.110 -0.7299 -0.4130 -1.3654
  937MOL0     H26461   0.540   8.088   1.161  0.6515 -1.7310  1.1351
  937MOL0     H26462   0.524   8.026   0.997 -1.2695 -1.0259 -0.3563
  937MOL0     H26463   0.421   7.841   1.043  2.2327 -2.3871  1.9697
  937MOL0     H26464   0.447   7.853   1.214 -0.1362 -0.1797  0.3576
  937MOL0     H26465   0.278   8.064   1.056 -0.5777  1.1126  0.0167
  937MOL0     H26466   0.304   8.058   1.222  1.6047  3.0505 -2.1808
  937MOL0     H26467   0.199   7.834   1.053  2.9714  1.4843  0.2781
  937MOL0     H26468   0.178   7.845   1.231 -2.7370 -1.3256 -0.4667
  937MOL0     H26469  -0.001   8.007   1.036 -1.3416  0.7542  0.6722
  937MOL0     H26470   0.033   8.036   1.209  2.9294 -1.7188  2.8149
  937MOL0     H26471  -0.090   7.775   1.107 -1.1644 -0.2890 -0.0249
  937MOL0     H26472  -0.052   7.808   1.271  1.6920 -0.7179 -0.4882
  937MOL0     H26473  -0.276   7.846   1.147  2.6498 -2.6074  0.2118
  937MOL0     H26474  -0.217   8.011   1.109  0.6014 -0.0250 -0.2248
  937MOL0     H26475  -0.281   7.871   1.363  0.6161 -0.8686 -0.8506
  937MOL0     H26476  -0.356   8.017   1.289 -0.7397 -1.4986 -1.8629
  937MOL0     H26477   0.838   7.756   1.129 -1.7228  1.3543  3.0607
  937MOL0     H26478   1.105   7.835   1.078  1.3282  1.6292 -1.8888
  937MOL0     H26479   1.390   8.084   1.175 -2.3062 -0.8668 -2.1833
  937MOL0     H26480   1.643   8.096   1.192  0.4631  0.8978 -0.4726
  937MOL0     H26481   3.378   8.098   1.130  2.8288 -0.9377 -2.3806
  937MOL0     H26482   3.599   8.010   1.210  0.2536  0.3411  0.6205
  937MOL0     H26483   3.993   8.240   1.458 -0.9244 -0.3603 -0.8125
  937MOL0     H26484   4.200   8.186   1.588 -0.6674  0.8534 -1.2349
  937MOL0     H26485   4.469   7.857   1.425  3.9342 -1.1082 -0.3142
  937MOL0     H26486   4.520   8.002   1.344 -0.0263 -1.7070 -0.1710
  937MOL0     H26487   4.654   8.077   1.523  0.0294 -0.0124 -0.7184
  937MOL0     H26488   4.690   7.902   1.497 -1.1665 -1.3905  1.0704
  937MOL0     H26489   4.496   7.899   1.700 -0.6471  2.2814  1.5805
  937MOL0     H26490   4.553   8.054   1.723 -0.9645 -0.2796 -1.0831
  937MOL0     H26491   4.668   7.908   1.875 -1.2262  0.7489 -0.2849
  937MOL0     H26492   4.791   7.962   1.753 -1.5717  2.1725  0.3504
  937MOL0     H26493   4.738   7.532   1.715 -0.6823  0.3120 -0.9020
  937MOL0     H26494   4.292   7.894   1.277  0.1907 -1.1706  0.2468
  937MOL0     H26495   4.075   7.924   1.178  1.5327 -1.0425  0.1135
  938MOL0     O26496   8.587   1.584   3.264 -0.1949 -0.4880  0.7062
  938MOL0     C26497   8.573   1.487   3.338 -0.2029  0.3194 -0.3812
  938MOL0     O26498   8.457   1.444   3.390 -0.6499  0.2064  0.5579
  938MOL0     C26499   8.348   1.524   3.359 -0.3160 -0.2722  0.1480
  938MOL0     C26500   8.266   1.479   3.254 -0.2100 -0.3505 -0.2094
  938MOL0     C26501   8.142   1.552   3.235 -0.1764 -0.1224 -0.0524
  938MOL0     C26502   8.109   1.667   3.316  1.2750  0.9096 -0.0539
  938MOL0     O26503   7.997   1.741   3.287 -0.4736 -0.3890 -0.3840
  938MOL0     C26504   8.006   1.884   3.307  0.9430  0.9265  0.3470
  938MOL0     C26505   7.903   1.962   3.216  1.0143  0.4335 -0.9450
  938MOL0     C26506   7.884   1.936   3.063  0.2173 -0.3692 -0.1474
  938MOL0     C26507   8.006   1.990   2.988  0.5347  0.0752  0.1658
  938MOL0     C26508   8.024   1.953   2.842 -0.1187 -0.0410  0.1765
  938MOL0     C26509   8.057   1.796   2.831 -0.7282 -0.0701  0.0350
  938MOL0     C26510   8.127   1.760   2.697 -0.4172  0.3961 -0.5284
  938MOL0     C26511   8.132   1.607   2.661 -0.1260 -0.4394  0.0980
  938MOL0     N26512   8.216   1.534   2.761  0.0069 -0.1256 -0.2921
  938MOL0     C26513   8.325   1.442   2.740  0.2801  0.3526 -0.1248
  938MOL0     C26514   8.347   1.373   2.864  0.5585  1.1177 -0.7461
  938MOL0     C26515   8.459   1.277   2.885 -1.0728  0.5087 -0.2411
  938MOL0     C26516   8.536   1.293   3.023  0.4659 -0.3017 -0.1220
  938MOL0     C26517   8.657   1.196   3.037  0.1841  0.3193  0.3126
  938MOL0     C26518   8.763   1.196   2.926  0.3359 -0.5704 -1.0162
  938MOL0     O26519   8.872   1.108   2.974 -0.5501 -0.2184 -0.0844
  938MOL0     C26520   8.994   1.139   2.940 -1.6760  0.0883  0.8968
  938MOL0     C26521   9.080   1.167   3.044  0.4172  0.4385  0.3084
  938MOL0     C26522   9.217   1.198   3.029 -0.0446 -0.7610  0.6331
  938MOL0     C26523   9.303   1.231   3.140 -0.6968 -0.1651 -0.7586
  938MOL0     C26524   9.268   1.208   2.889  0.3916 -0.8971  0.0833
  938MOL0     C26525   9.407   1.223   2.839  0.2092 -0.8060  0.3005
  938MOL0     O26526   9.423   1.281   2.714 -0.3572 -0.4009 -0.8577
  938MOL0     C26527   9.542   1.322   2.658 -0.1311  0.0462  0.0847
  938MOL0     C26528   9.665   1.356   2.726  1.2096 -0.4204 -0.5246
  938MOL0     C26529   9.777   1.395   2.655 -0.7599 -0.1213 -0.2492
  938MOL0     C26530   9.781   1.386   2.510  0.1412  0.2059 -0.8605
  938MOL0     O26531   9.882   1.423   2.430 -0.4986  0.6383  0.1270
  938MOL0     C26532  10.003   1.473   2.507 -0.3013 -0.3740  0.3072
  938MOL0     C26533  10.100   1.531   2.406  0.1160 -0.5883 -0.3113
  938MOL0     C26534  10.150   1.423   2.314 -0.0938  0.9010  0.0866
  938MOL0     C26535  10.243   1.481   2.211 -0.9229  0.2482  0.3104
  938MOL0     C26536  10.259   1.389   2.082  0.4590  0.6174 -0.8784
  938MOL0     C26537  10.132   1.328   2.026  0.7187 -0.0678  0.3804
  938MOL0     C26538  10.020   1.429   1.980  0.0630 -0.3125 -0.2719
  938MOL0     C26539   9.889   1.363   1.966 -0.1330 -0.2299  0.2813
  938MOL0    Cl26540   9.797   1.341   2.115  0.1269 -0.3976  0.0236
  938MOL0     C26541   9.664   1.335   2.441 -0.7060  0.8147 -0.6863
  938MOL0     C26542   9.555   1.311   2.519  0.4809 -0.2879  0.2693
  938MOL0     O26543   9.500   1.196   2.919 -0.7408 -0.1281  0.7494
  938MOL0     C26544   9.168   1.192   2.786  0.6205  0.0933 -0.4644
  938MOL0     C26545   9.042   1.142   2.809  0.0843  0.0277  0.3455
  938MOL0     N26546   8.242   1.415   2.951 -1.0492 -0.5775  0.1912
  938MOL0     N26547   8.166   1.513   2.889 -0.2078  0.8874  0.3963
  938MOL0     C26548   8.183   1.690   3.425  0.2922 -0.5337 -0.5259
  938MOL0     C26549   8.302   1.626   3.449 -0.7300  0.3407  0.4429
  938MOL0     C26550   8.697   1.398   3.357  0.4479  0.3761  0.7283
  938MOL0     C26551   8.811   1.433   3.297  0.1457  0.2406 -1.1072
  938MOL0     C26552   8.923   1.351   3.321 -0.2358  0.0313 -0.2450
  938MOL0     C26553   8.923   1.239   3.403 -1.0549 -0.0572  0.8850
  938MOL0     O26554   9.047   1.174   3.410 -0.7871  0.2732 -0.4046
  938MOL0     C26555   9.061   1.071   3.505 -0.2726  0.0359  0.8194
  938MOL0     C26556   9.021   0.942   3.437  0.1965 -0.0345  0.1123
  938MOL0     C26557   9.066   0.821   3.521  0.1734  0.0680 -0.0226
  938MOL0     C26558   8.958   0.774   3.618  0.4674  0.0267 -0.2656
  938MOL0     C26559   8.960   0.850   3.739  0.3227  0.2089  0.3975
  938MOL0     C26560   8.954   0.908   3.845  0.5723 -0.1859 -0.9778
  938MOL0     C26561   8.798   1.205   3.461 -0.6865  0.1085  0.5811
  938MOL0     C26562   8.688   1.280   3.441 -0.3389 -0.3405 -0.6376
  938MOL0     H26563   8.307   1.409   3.182 -0.8028  2.4186 -3.5748
  938MOL0     H26564   8.084   1.511   3.153 -1.8629 -0.6055  1.3252
  938MOL0     H26565   7.963   1.886   3.407 -0.5936 -3.3192 -0.0056
  938MOL0     H26566   8.108   1.922   3.313  1.3883 -0.2973  0.7734
  938MOL0     H26567   7.803   1.932   3.249  1.3087  0.6968  0.2370
  938MOL0     H26568   7.908   2.067   3.248  1.1520  0.1369  0.0423
  938MOL0     H26569   7.891   1.828   3.048 -0.9694 -0.4637 -0.0868
  938MOL0     H26570   7.787   1.972   3.028  1.0371  2.3101  0.1362
  938MOL0     H26571   7.989   2.098   3.001 -2.3968 -0.3032  0.2584
  938MOL0     H26572   8.087   1.945   3.046  0.5637 -1.9724 -1.3840
  938MOL0     H26573   7.940   1.981   2.778  1.2105  1.4916 -1.0104
  938MOL0     H26574   8.104   2.016   2.801  0.8696 -1.3045  0.1013
  938MOL0     H26575   8.114   1.755   2.915  1.5829 -1.5106 -2.0804
  938MOL0     H26576   7.962   1.742   2.833  0.0575 -1.5929 -1.2055
  938MOL0     H26577   8.058   1.797   2.620 -1.4347  0.6062  0.4586
  938MOL0     H26578   8.226   1.803   2.682  0.1625 -1.5957 -3.1188
  938MOL0     H26579   8.167   1.611   2.557  0.8080 -0.3985  0.3978
  938MOL0     H26580   8.032   1.564   2.664 -0.2562 -0.2818 -1.5161
  938MOL0     H26581   8.389   1.440   2.653 -2.5939 -1.3594 -2.4050
  938MOL0     H26582   8.419   1.176   2.867  1.7399 -0.4144 -1.8166
  938MOL0     H26583   8.527   1.292   2.801 -0.6848 -2.4138 -0.5666
  938MOL0     H26584   8.466   1.267   3.103  1.8325 -1.7078  0.6996
  938MOL0     H26585   8.575   1.394   3.041 -0.8908  0.4495 -1.2066
  938MOL0     H26586   8.611   1.098   3.048  1.5717 -0.5975 -1.6465
  938MOL0     H26587   8.707   1.224   3.131  0.7439 -1.3880  0.5594
  938MOL0     H26588   8.800   1.298   2.912  1.7763 -1.2736 -2.6374
  938MOL0     H26589   8.709   1.159   2.839 -0.8431  0.2746 -0.6731
  938MOL0     H26590   9.039   1.176   3.144 -3.1069  1.0067 -1.0352
  938MOL0     H26591   9.364   1.322   3.143  1.8611 -1.7770 -0.2766
  938MOL0     H26592   9.248   1.237   3.234 -0.4734  3.1674 -0.7142
  938MOL0     H26593   9.368   1.143   3.138  0.8276  0.8092  1.5952
  938MOL0     H26594   9.674   1.353   2.834  1.4843 -3.0100 -0.5571
  938MOL0     H26595   9.864   1.418   2.716 -2.1258  1.2569  1.3129
  938MOL0     H26596   9.975   1.555   2.574  1.2883  0.1251  0.4031
  938MOL0     H26597  10.060   1.406   2.572 -1.4203 -0.3500  1.3341
  938MOL0     H26598  10.048   1.604   2.344  1.5520 -0.7360 -1.7701
  938MOL0     H26599  10.186   1.574   2.458  0.3973 -1.2214 -0.2431
  938MOL0     H26600  10.076   1.365   2.258  1.6859  1.4145 -3.0301
  938MOL0     H26601  10.199   1.339   2.365 -0.6807  0.4697 -0.0493
  938MOL0     H26602  10.211   1.583   2.185 -2.9993 -0.5586 -0.4985
  938MOL0     H26603  10.343   1.508   2.246 -0.9646 -0.1290  0.7292
  938MOL0     H26604  10.327   1.306   2.106 -1.9602 -1.8355 -2.0441
  938MOL0     H26605  10.306   1.453   2.007  1.6956 -0.3769 -0.9917
  938MOL0     H26606  10.164   1.271   1.939 -0.3442 -1.3859  0.8249
  938MOL0     H26607  10.099   1.249   2.094  0.3322 -0.2002  0.0351
  938MOL0     H26608  10.057   1.464   1.883 -0.7243  0.6799 -0.2291
  938MOL0     H26609  10.014   1.520   2.041  2.5103  0.3858 -0.9689
  938MOL0     H26610   9.894   1.261   1.926  1.6708  0.4983 -1.5265
  938MOL0     H26611   9.826   1.432   1.908  0.4542  1.2954  1.3953
  938MOL0     H26612   9.662   1.333   2.333 -1.1269  0.0654 -0.6694
  938MOL0     H26613   9.462   1.282   2.470  0.5195  1.7042 -1.1012
  938MOL0     H26614   9.187   1.197   2.679  1.8378 -0.9312 -0.3234
  938MOL0     H26615   8.970   1.113   2.733 -0.3588 -4.2859  2.1342
  938MOL0     H26616   8.165   1.766   3.499 -1.6616 -0.0773 -1.4016
  938MOL0     H26617   8.351   1.632   3.546 -0.2654 -1.1622  0.3224
  938MOL0     H26618   8.827   1.524   3.240  0.6195  0.8219 -0.0685
  938MOL0     H26619   9.020   1.378   3.279  0.1111 -1.2367 -0.3117
  938MOL0     H26620   9.169   1.059   3.519 -0.5813 -4.2395  0.5950
  938MOL0     H26621   9.018   1.095   3.602 -0.7584 -0.8838  0.8347
  938MOL0     H26622   9.059   0.941   3.335  1.7079 -0.1643  0.6519
  938MOL0     H26623   8.912   0.949   3.433  0.3283  4.1802 -0.2341
  938MOL0     H26624   9.156   0.847   3.578  0.5350 -0.7478 -0.2111
  938MOL0     H26625   9.089   0.743   3.447  0.3875  0.5033 -0.4246
  938MOL0     H26626   8.975   0.671   3.649  0.9804  0.2598  0.2289
  938MOL0     H26627   8.859   0.779   3.571  0.0183 -1.4603  0.4612
  938MOL0     H26628   8.944   0.967   3.934 -0.5050 -3.3048  1.1466
  938MOL0     H26629   8.786   1.111   3.514  0.8180 -1.8247 -2.2500
  938MOL0     H26630   8.593   1.259   3.491 -1.3325  2.7871 -1.0043
  939MOL0     O26631   8.163   8.908   7.548 -0.6154 -0.5062 -1.0261
  939MOL0     C26632   8.105   9.004   7.591 -0.2832 -0.4710 -0.8210
  939MOL0     O26633   8.134   9.134   7.555 -0.5287 -0.7675 -0.8957
  939MOL0     C26634   8.229   9.160   7.465 -0.9024 -0.6365  0.5891
  939MOL0     C26635   8.367   9.143   7.495  0.3128 -0.5072  0.0304
  939MOL0     C26636   8.461   9.163   7.396  0.6020 -0.2338  0.3248
  939MOL0     C26637   8.428   9.199   7.266  0.1751  0.0575 -0.2133
  939MOL0     O26638   8.532   9.212   7.175 -0.3697  0.4421 -0.6670
  939MOL0     C26639   8.502   9.206   7.039 -0.2448 -0.5914 -0.4290
  939MOL0     C26640   8.609   9.244   6.943  0.7496  0.4091  0.3247
  939MOL0     C26641   8.751   9.205   6.968 -0.2700  0.0406 -0.2168
  939MOL0     C26642   8.837   9.237   6.841  0.3113  0.0832 -0.3462
  939MOL0     C26643   8.868   9.386   6.835  0.3058 -0.3298 -0.0529
  939MOL0     C26644   8.902   9.418   6.699 -0.6560 -0.0552  0.9365
  939MOL0     C26645   8.935   9.563   6.668 -0.8645  0.4941  0.3708
  939MOL0     C26646   9.087   9.578   6.704  0.3474 -0.2745  0.3280
  939MOL0     N26647   9.178   9.589   6.590  0.3997 -0.1601 -0.5050
  939MOL0     C26648   9.227   9.711   6.537  0.1182  0.3512 -1.2064
  939MOL0     C26649   9.305   9.670   6.442 -0.2155  0.1515  0.9626
  939MOL0     C26650   9.360   9.774   6.341 -0.2145 -0.6323 -0.0976
  939MOL0     C26651   9.474   9.854   6.413 -0.5917  0.4998  0.1603
  939MOL0     C26652   9.560   9.933   6.313  0.6563  0.0290 -0.5016
  939MOL0     C26653   9.484  10.046   6.234  0.0506 -0.5242  0.2602
  939MOL0     O26654   9.437  10.142   6.330 -0.4738  0.6556 -0.0229
  939MOL0     C26655   9.421  10.265   6.275  0.5816 -0.2241 -0.8058
  939MOL0     C26656   9.532  10.355   6.279 -0.1516 -0.1313 -0.2784
  939MOL0     C26657   9.514  10.485   6.244  0.3859  0.3719 -0.2448
  939MOL0     C26658   9.629  10.578   6.257 -1.0837 -0.2355  0.2919
  939MOL0     C26659   9.385  10.525   6.197  0.0457 -0.0556 -0.1205
  939MOL0     C26660   9.343  10.661   6.169 -0.8238 -0.1576  0.0661
  939MOL0     O26661   9.222  10.673   6.105 -0.2194 -0.0185  0.4861
  939MOL0     C26662   9.165  10.794   6.076  0.0886 -0.1432 -0.1343
  939MOL0     C26663   9.021  10.788   6.055 -0.4977 -0.6811 -0.0149
  939MOL0     C26664   8.960  10.908   6.024  0.1651 -0.3731  0.8307
  939MOL0     C26665   9.025  11.024   5.981 -0.5383 -1.1473 -0.3019
  939MOL0     O26666   8.965  11.146   5.956  0.7367 -0.1674 -0.1276
  939MOL0     C26667   8.836  11.168   6.013 -0.1900  0.1708  0.5182
  939MOL0     C26668   8.827  11.172   6.167 -0.0643  0.5872 -0.4951
  939MOL0     C26669   8.689  11.219   6.209  0.4039  1.4694  0.1165
  939MOL0     C26670   8.638  11.191   6.353  0.5794 -0.2461  0.6106
  939MOL0     C26671   8.510  11.274   6.380  0.5620  0.4752 -0.7901
  939MOL0     C26672   8.438  11.224   6.505  0.2457  0.4559  0.8302
  939MOL0     C26673   8.510  11.235   6.644 -0.2374 -0.1837 -0.3086
  939MOL0     C26674   8.502  11.374   6.717 -0.0820 -0.0399 -0.4962
  939MOL0    Cl26675   8.334  11.413   6.751 -0.5528  0.2886 -0.2049
  939MOL0     C26676   9.164  11.026   5.989  0.7755  1.0276 -0.0244
  939MOL0     C26677   9.232  10.909   6.032 -0.9881  0.6454 -1.6035
  939MOL0     O26678   9.421  10.752   6.199 -0.0802  0.0850 -0.6943
  939MOL0     C26679   9.280  10.433   6.211  1.0625 -0.1698  0.4071
  939MOL0     C26680   9.294  10.304   6.252  0.1799 -0.6819 -0.0256
  939MOL0     N26681   9.336   9.534   6.447  0.5990 -0.3401 -0.5015
  939MOL0     N26682   9.252   9.490   6.541 -0.3408  0.0150  0.1318
  939MOL0     C26683   8.295   9.224   7.233 -0.5683 -0.8984  1.1443
  939MOL0     C26684   8.196   9.206   7.329  0.0286 -0.8774 -1.1404
  939MOL0     C26685   7.977   8.985   7.667 -0.1015 -0.8236 -0.3314
  939MOL0     C26686   7.953   8.874   7.749 -0.5878  0.7436  0.5622
  939MOL0     C26687   7.828   8.864   7.816 -1.2584  0.6808  0.1953
  939MOL0     C26688   7.737   8.965   7.818  0.1475  0.5303 -0.0095
  939MOL0     O26689   7.632   8.947   7.915 -0.0046 -0.3674 -0.4378
  939MOL0     C26690   7.553   9.055   7.967 -0.4751 -0.8493  1.0615
  939MOL0     C26691   7.466   8.980   8.065 -0.4746  0.0221  0.5068
  939MOL0     C26692   7.358   9.067   8.133  0.6508  0.2845 -0.0848
  939MOL0     C26693   7.250   8.968   8.193  0.2088 -0.2411 -0.0357
  939MOL0     C26694   7.177   9.046   8.293 -0.4868  0.1636 -0.7958
  939MOL0     C26695   7.117   9.085   8.388  0.5742  0.4365  0.4721
  939MOL0     C26696   7.752   9.067   7.724 -0.0895 -0.1297 -0.2818
  939MOL0     C26697   7.873   9.073   7.651 -0.0580  0.3780  0.1682
  939MOL0     H26698   8.404   9.106   7.590  2.1087 -1.3577 -0.9308
  939MOL0     H26699   8.565   9.154   7.426 -0.3440  0.7682  4.5819
  939MOL0     H26700   8.466   9.105   7.017 -0.3428 -1.1769  2.0779
  939MOL0     H26701   8.423   9.280   7.023  0.7400  1.4947  3.1311
  939MOL0     H26702   8.581   9.215   6.841 -0.4133  2.8135 -0.0989
  939MOL0     H26703   8.602   9.352   6.958 -1.7436  0.2206  0.9103
  939MOL0     H26704   8.788   9.266   7.050 -0.2726 -0.9980  0.5845
  939MOL0     H26705   8.772   9.104   7.004  1.0408  0.1496 -0.6443
  939MOL0     H26706   8.927   9.174   6.846 -0.5638 -1.1948 -0.3966
  939MOL0     H26707   8.792   9.199   6.750  0.3841  2.7006 -1.5793
  939MOL0     H26708   8.783   9.446   6.869  0.6668  0.5276 -0.6312
  939MOL0     H26709   8.954   9.419   6.894 -0.0059  2.4383 -0.9840
  939MOL0     H26710   8.990   9.359   6.671  1.1542  2.7654  0.2829
  939MOL0     H26711   8.825   9.386   6.628 -0.8742 -1.2686  1.6804
  939MOL0     H26712   8.920   9.582   6.562 -0.8055  0.9518  0.4420
  939MOL0     H26713   8.867   9.632   6.718 -1.1918 -0.6339  1.5306
  939MOL0     H26714   9.117   9.494   6.767 -1.5063 -0.5889  0.8703
  939MOL0     H26715   9.096   9.666   6.768 -3.2620 -0.7245  1.6779
  939MOL0     H26716   9.185   9.809   6.558  1.9437  1.2601 -1.5266
  939MOL0     H26717   9.412   9.717   6.263  0.5541 -1.4466  0.9940
  939MOL0     H26718   9.284   9.839   6.296  1.2059  0.1757 -1.4221
  939MOL0     H26719   9.543   9.785   6.462  0.6589  1.3465 -0.3382
  939MOL0     H26720   9.436   9.924   6.488  1.8062  0.7636  1.2250
  939MOL0     H26721   9.601   9.859   6.244 -1.1226  0.5863 -2.2610
  939MOL0     H26722   9.644   9.982   6.362 -0.6257  1.0357  0.7899
  939MOL0     H26723   9.394  10.006   6.185 -1.6780  1.6692  1.4790
  939MOL0     H26724   9.556  10.090   6.164  1.6661  0.8774  2.6396
  939MOL0     H26725   9.632  10.320   6.304 -0.5103  0.0850  1.6213
  939MOL0     H26726   9.650  10.636   6.167  0.4429 -0.1292  0.6786
  939MOL0     H26727   9.617  10.651   6.337  2.2930  2.1869 -1.1403
  939MOL0     H26728   9.717  10.519   6.286 -4.2037 -4.2983  2.4512
  939MOL0     H26729   8.964  10.699   6.076  2.3717 -2.0174  2.9995
  939MOL0     H26730   8.854  10.903   6.002  0.3619  3.1932 -1.7278
  939MOL0     H26731   8.805  11.269   5.984 -1.5372  0.3964  2.5259
  939MOL0     H26732   8.766  11.095   5.970  1.2593 -0.1724 -1.4052
  939MOL0     H26733   8.857  11.078   6.214  0.9031  1.6026  0.9638
  939MOL0     H26734   8.886  11.254   6.207 -1.0014  0.2765  1.6492
  939MOL0     H26735   8.614  11.170   6.146  2.0860  1.1388 -1.7226
  939MOL0     H26736   8.692  11.327   6.192 -0.4042  1.2655 -1.6220
  939MOL0     H26737   8.625  11.082   6.346 -1.1524  0.0188 -1.3786
  939MOL0     H26738   8.712  11.217   6.428  0.0853 -0.4371  1.1707
  939MOL0     H26739   8.435  11.259   6.302 -0.3282 -2.0786  0.4670
  939MOL0     H26740   8.527  11.382   6.373  0.1171  0.8131  2.1040
  939MOL0     H26741   8.354  11.294   6.509  0.1610  0.8609 -3.5121
  939MOL0     H26742   8.400  11.122   6.492 -1.4985  1.4077 -2.6555
  939MOL0     H26743   8.618  11.221   6.631  0.3249  2.5046  0.7308
  939MOL0     H26744   8.483  11.162   6.721  0.4803 -1.1225 -0.9234
  939MOL0     H26745   8.554  11.454   6.663 -3.5965  1.8428 -1.3655
  939MOL0     H26746   8.549  11.368   6.816  0.1607 -2.1520 -0.6789
  939MOL0     H26747   9.224  11.109   5.952 -0.0943  0.9992 -1.5895
  939MOL0     H26748   9.340  10.916   6.041 -0.7885 -2.9178  1.2277
  939MOL0     H26749   9.178  10.471   6.210 -0.1425 -2.8994 -2.8028
  939MOL0     H26750   9.214  10.236   6.279  1.0320 -0.9156  2.1046
  939MOL0     H26751   8.264   9.245   7.132 -0.0114  0.5487  1.2481
  939MOL0     H26752   8.088   9.221   7.321  0.1306  1.6587  0.9961
  939MOL0     H26753   8.018   8.788   7.749 -2.8856 -1.1191 -1.0223
  939MOL0     H26754   7.821   8.776   7.879 -0.2792 -0.6468 -1.4589
  939MOL0     H26755   7.617   9.135   8.005  2.3008 -3.0685  1.3605
  939MOL0     H26756   7.491   9.096   7.886 -0.9131 -0.4570  1.5915
  939MOL0     H26757   7.532   8.925   8.133  0.3548 -0.4176 -0.6277
  939MOL0     H26758   7.414   8.906   8.004  0.8217 -1.2210  0.8532
  939MOL0     H26759   7.308   9.138   8.067 -0.7706  0.5669  1.2418
  939MOL0     H26760   7.397   9.121   8.220 -1.5117  2.0344 -0.1091
  939MOL0     H26761   7.287   8.878   8.243  3.0778  1.8998  2.0640
  939MOL0     H26762   7.183   8.924   8.118 -2.1747 -2.1551  2.9718
  939MOL0     H26763   7.063   9.118   8.474  0.2009  3.9417 -0.9505
  939MOL0     H26764   7.680   9.147   7.714  1.8764  1.7931  0.1349
  939MOL0     H26765   7.884   9.167   7.597  1.0665  0.9528  1.3321
  940MOL0     O26766  10.734   2.296   8.941 -0.8365  0.8589 -0.1198
  940MOL0     C26767  10.845   2.247   8.956 -0.7739 -0.2578 -0.3177
  940MOL0     O26768  10.901   2.206   9.072 -0.6317 -0.6020  0.2445
  940MOL0     C26769  10.862   2.237   9.205 -0.0022 -0.4758 -0.8719
  940MOL0     C26770  10.895   2.145   9.312 -0.2535  0.4180  0.4440
  940MOL0     C26771  10.844   2.157   9.439  0.6059  0.1305 -0.6736
  940MOL0     C26772  10.757   2.258   9.469  0.7407 -0.2903 -0.1706
  940MOL0     O26773  10.701   2.278   9.592 -0.0322 -0.1816  0.0170
  940MOL0     C26774  10.769   2.238   9.707 -0.5380 -0.8153  0.3095
  940MOL0     C26775  10.698   2.125   9.781  0.1733  0.1077 -0.9245
  940MOL0     C26776  10.565   2.175   9.847 -0.5694 -0.0005  0.3530
  940MOL0     C26777  10.514   2.071   9.942 -0.3951  0.4320  0.5339
  940MOL0     C26778  10.376   2.107   9.990 -1.1053 -0.2315  0.4385
  940MOL0     C26779  10.266   2.072   9.896  0.0867 -0.1664  0.1934
  940MOL0     C26780  10.134   2.072   9.975 -0.3728 -0.2677 -0.2898
  940MOL0     C26781  10.006   2.071   9.892 -0.1528  0.6918  0.7529
  940MOL0     N26782   9.886   2.060   9.977  0.4450 -0.7074 -0.1614
  940MOL0     C26783   9.839   2.176  10.040  0.2849  0.7498  0.4025
  940MOL0     C26784   9.741   2.129  10.114  0.7301  0.1698 -0.6525
  940MOL0     C26785   9.661   2.211  10.218  0.1627 -0.6065 -0.4786
  940MOL0     C26786   9.533   2.271  10.153  0.0876  0.4118  0.4670
  940MOL0     C26787   9.578   2.360  10.036  0.2214  0.1063 -0.6549
  940MOL0     C26788   9.468   2.455   9.993  0.7762 -0.5760 -0.1620
  940MOL0     O26789   9.351   2.376   9.948 -0.2546 -0.3541 -0.0101
  940MOL0     C26790   9.239   2.447   9.940 -0.9595  1.0189 -0.2217
  940MOL0     C26791   9.221   2.553   9.852 -0.5165 -0.4917  0.9887
  940MOL0     C26792   9.097   2.610   9.821 -0.3767  0.4213  0.5992
  940MOL0     C26793   9.097   2.728   9.723  0.3005 -0.2554 -0.6572
  940MOL0     C26794   8.982   2.540   9.882 -0.6726 -0.6130  0.5920
  940MOL0     C26795   8.844   2.578   9.864  0.6131 -0.4139  0.4768
  940MOL0     O26796   8.759   2.479   9.832  0.5745  0.6165 -0.1133
  940MOL0     C26797   8.622   2.511   9.818  0.5831  0.4124 -0.7125
  940MOL0     C26798   8.555   2.464   9.709  0.2321 -0.3337  0.0980
  940MOL0     C26799   8.420   2.499   9.686 -0.5331  0.7713 -0.9608
  940MOL0     C26800   8.346   2.584   9.774 -0.4189 -0.2901 -0.4474
  940MOL0     O26801   8.219   2.614   9.748 -0.8768 -0.2273 -0.7985
  940MOL0     C26802   8.129   2.552   9.837 -0.1195  0.5192 -0.5304
  940MOL0     C26803   7.998   2.505   9.761 -1.1652 -0.4358 -0.6361
  940MOL0     C26804   7.901   2.610   9.740  0.3705  0.4354 -0.1944
  940MOL0     C26805   7.787   2.563   9.650 -0.2325 -0.4215  0.2057
  940MOL0     C26806   7.665   2.653   9.652  0.2783 -0.3400 -0.5264
  940MOL0     C26807   7.574   2.581   9.557  0.4753  0.4837 -0.1249
  940MOL0     C26808   7.431   2.638   9.568 -0.6156  0.1680  0.0532
  940MOL0     C26809   7.323   2.554   9.507 -0.1671 -0.0523 -0.2496
  940MOL0    Cl26810   7.158   2.635   9.531 -0.1186 -0.2736  0.0034
  940MOL0     C26811   8.413   2.617   9.891 -1.3269 -0.9076 -0.3357
  940MOL0     C26812   8.548   2.586   9.907  0.0431  0.2035 -0.5405
  940MOL0     O26813   8.815   2.698   9.845  0.3405  0.4597 -0.6175
  940MOL0     C26814   9.001   2.448   9.984 -1.0171  0.3965  0.5988
  940MOL0     C26815   9.128   2.395  10.005  1.3298  0.1083 -0.0100
  940MOL0     N26816   9.726   1.996  10.105  0.1521  0.2376  0.1935
  940MOL0     N26817   9.814   1.945  10.013 -0.3833 -0.7977 -0.4279
  940MOL0     C26818  10.701   2.339   9.365 -0.1509  1.3848 -0.1458
  940MOL0     C26819  10.758   2.333   9.240 -0.6025  1.6753 -0.5663
  940MOL0     C26820  10.935   2.194   8.841  0.3151 -0.5350  0.3974
  940MOL0     C26821  10.870   2.172   8.713 -0.3044  0.2249  0.5853
  940MOL0     C26822  10.948   2.135   8.604  0.6756  0.0555 -0.6139
  940MOL0     C26823  11.083   2.099   8.622  1.2405 -0.8938 -0.0943
  940MOL0     O26824  11.147   2.043   8.515 -0.2370  0.6230  0.0256
  940MOL0     C26825  11.280   2.063   8.508 -0.8532  0.5020  0.3119
  940MOL0     C26826  11.336   2.069   8.364 -0.6868  0.6010  0.0805
  940MOL0     C26827  11.325   2.207   8.293  0.2475  0.3882 -0.2848
  940MOL0     C26828  11.283   2.180   8.154  0.6287 -0.2703 -0.7482
  940MOL0     C26829  11.384   2.141   8.057 -0.2463  0.2118  0.3682
  940MOL0     C26830  11.460   2.095   7.975 -0.1603  0.1719 -0.0623
  940MOL0     C26831  11.135   2.107   8.751  0.6912 -0.1017  0.2312
  940MOL0     C26832  11.069   2.165   8.854 -0.6070  0.8244  0.2114
  940MOL0     H26833  10.950   2.058   9.276 -2.1152 -2.1968  3.3697
  940MOL0     H26834  10.877   2.079   9.508  2.7666 -0.0556 -1.8267
  940MOL0     H26835  10.874   2.216   9.687 -0.2112  0.2233  0.7487
  940MOL0     H26836  10.766   2.328   9.770 -0.5327  0.4010 -1.3728
  940MOL0     H26837  10.666   2.043   9.717 -0.1761  0.0228 -0.6409
  940MOL0     H26838  10.768   2.085   9.855 -0.3167  1.2891  0.2190
  940MOL0     H26839  10.571   2.267   9.906 -0.8685 -2.2353  4.2145
  940MOL0     H26840  10.495   2.181   9.763  2.4545  1.7795 -2.2668
  940MOL0     H26841  10.513   1.970   9.901  0.0930  0.7160 -0.2029
  940MOL0     H26842  10.595   2.068  10.016  1.9385 -1.4593 -1.9180
  940MOL0     H26843  10.357   2.069  10.091 -1.9346 -0.5299  0.1750
  940MOL0     H26844  10.368   2.213  10.015 -1.5187 -0.3233  0.6952
  940MOL0     H26845  10.268   2.148   9.817  1.1597 -1.5240 -1.1286
  940MOL0     H26846  10.289   1.971   9.863  0.6216  0.3564 -1.1094
  940MOL0     H26847  10.136   1.980  10.033 -3.8896  0.9441  2.0934
  940MOL0     H26848  10.141   2.156  10.045  3.9313 -1.9452  1.6572
  940MOL0     H26849  10.011   1.980   9.832  0.7526  0.9343  0.4482
  940MOL0     H26850  10.000   2.154   9.821 -2.8623 -0.4844 -0.4938
  940MOL0     H26851   9.893   2.270  10.026  2.0531 -0.6483 -4.1567
  940MOL0     H26852   9.632   2.139  10.295 -2.5597  0.2507 -0.6157
  940MOL0     H26853   9.721   2.286  10.270  1.1082 -0.6092 -1.5140
  940MOL0     H26854   9.485   2.338  10.225  1.9154 -0.5906  2.7398
  940MOL0     H26855   9.460   2.198  10.114  1.2558 -0.8137  0.5011
  940MOL0     H26856   9.592   2.297   9.948 -2.8768  0.0046 -1.1800
  940MOL0     H26857   9.666   2.423  10.052 -0.2527  0.3848  1.1664
  940MOL0     H26858   9.511   2.518   9.914  0.8916 -1.4891 -0.8497
  940MOL0     H26859   9.433   2.513  10.078 -1.5741  2.1063 -2.7498
  940MOL0     H26860   9.311   2.581   9.799 -1.6198  1.9998  0.2800
  940MOL0     H26861   9.199   2.757   9.697  0.4129  0.8464  0.9130
  940MOL0     H26862   9.060   2.690   9.627  1.9659 -2.3355 -0.5634
  940MOL0     H26863   9.033   2.812   9.751  2.0224  0.4309  1.4828
  940MOL0     H26864   8.607   2.405   9.634  3.1947  1.7669  0.3359
  940MOL0     H26865   8.370   2.469   9.594 -2.0873 -0.9898  0.4078
  940MOL0     H26866   8.188   2.471   9.882  2.4259  2.4152 -0.2282
  940MOL0     H26867   8.111   2.604   9.932  3.1786 -1.8341  1.5995
  940MOL0     H26868   8.032   2.459   9.668  1.8707 -2.0765  1.1329
  940MOL0     H26869   7.950   2.428   9.822 -1.0207 -1.1849 -1.4494
  940MOL0     H26870   7.941   2.704   9.702 -0.3684  0.8734  0.0935
  940MOL0     H26871   7.862   2.628   9.841  0.7180  2.0881 -0.3354
  940MOL0     H26872   7.814   2.554   9.544  1.3517 -0.6073  0.5982
  940MOL0     H26873   7.756   2.464   9.685 -3.1601 -0.0561 -1.0596
  940MOL0     H26874   7.694   2.748   9.605  1.0801 -0.4916 -0.3660
  940MOL0     H26875   7.618   2.665   9.750  2.7037  1.2578  0.5509
  940MOL0     H26876   7.608   2.600   9.455  2.7141 -3.1505 -0.2356
  940MOL0     H26877   7.568   2.472   9.565  2.0408  0.4805  2.5100
  940MOL0     H26878   7.432   2.737   9.522 -0.2084 -0.7721 -2.0833
  940MOL0     H26879   7.395   2.639   9.671  2.3625 -0.0864  1.1898
  940MOL0     H26880   7.336   2.454   9.551  0.6847  0.4000  0.5539
  940MOL0     H26881   7.346   2.524   9.405 -0.9695 -3.1053  0.3393
  940MOL0     H26882   8.370   2.663   9.980 -0.7497 -3.2083  1.2156
  940MOL0     H26883   8.591   2.626   9.998  0.3242  0.0591 -0.6089
  940MOL0     H26884   8.924   2.405  10.048  0.2423 -1.0811  1.1722
  940MOL0     H26885   9.149   2.317  10.078 -1.5276 -0.0545  0.7317
  940MOL0     H26886  10.603   2.382   9.383 -1.3677 -1.8209  1.6056
  940MOL0     H26887  10.726   2.406   9.167  1.2437  1.8415 -1.2515
  940MOL0     H26888  10.768   2.203   8.691 -0.4114  0.3900  1.2981
  940MOL0     H26889  10.894   2.127   8.510  0.8554  2.7844 -1.0157
  940MOL0     H26890  11.305   2.156   8.559  1.8824  0.7543 -1.2844
  940MOL0     H26891  11.333   1.983   8.562  0.9315  0.1212 -1.8713
  940MOL0     H26892  11.292   1.985   8.309 -0.5528  1.4001 -1.2873
  940MOL0     H26893  11.444   2.047   8.364 -0.0890  2.9678 -2.3159
  940MOL0     H26894  11.417   2.266   8.285  1.8845 -2.1617 -1.7831
  940MOL0     H26895  11.239   2.261   8.333 -0.0607  0.6901 -1.3132
  940MOL0     H26896  11.234   2.269   8.115  0.4049  0.9528  2.0749
  940MOL0     H26897  11.210   2.098   8.146  0.7235 -0.2777 -1.5466
  940MOL0     H26898  11.529   2.058   7.901  0.6859 -0.1289  0.8554
  940MOL0     H26899  11.234   2.072   8.781 -0.9880 -3.6034  2.3235
  940MOL0     H26900  11.122   2.180   8.948 -0.6643 -0.4676  0.4711
  941MOL0     O26901   3.464   4.924   3.517 -0.0940 -0.1496 -1.0016
  941MOL0     C26902   3.582   4.950   3.539  0.1828 -0.4310 -0.1993
  941MOL0     O26903   3.676   4.999   3.445  0.3796  0.2389  0.0299
  941MOL0     C26904   3.643   5.022   3.316 -0.3934 -0.1877  1.0271
  941MOL0     C26905   3.553   5.127   3.282  0.7544  0.4529  0.3608
  941MOL0     C26906   3.510   5.161   3.155 -0.0756  0.5748  0.7884
  941MOL0     C26907   3.547   5.078   3.052 -0.0529  0.3104  0.2709
  941MOL0     O26908   3.500   5.095   2.925 -0.0837  0.5713  0.1696
  941MOL0     C26909   3.430   5.218   2.893  0.0818  0.3573 -0.0305
  941MOL0     C26910   3.356   5.207   2.764  0.3216 -0.1470  0.4898
  941MOL0     C26911   3.245   5.109   2.748  1.1360  0.1761  0.1117
  941MOL0     C26912   3.159   5.115   2.621  0.6833  0.2394 -0.2474
  941MOL0     C26913   3.023   5.049   2.646 -0.4297 -0.0699 -0.9116
  941MOL0     C26914   2.926   5.117   2.548 -0.4845 -0.2760 -1.1949
  941MOL0     C26915   2.794   5.031   2.532  0.1520 -0.2702  0.2789
  941MOL0     C26916   2.801   4.946   2.413 -0.6937 -0.3119  0.9157
  941MOL0     N26917   2.695   4.846   2.389 -0.5906 -0.4260 -0.3881
  941MOL0     C26918   2.566   4.890   2.368 -0.2275 -0.0208 -0.3098
  941MOL0     C26919   2.497   4.773   2.346 -1.3825 -0.6257  0.0588
  941MOL0     C26920   2.373   4.760   2.266 -0.0804  0.4070  0.2193
  941MOL0     C26921   2.277   4.875   2.264  0.3122  0.4437  0.3684
  941MOL0     C26922   2.212   4.902   2.404 -0.8661  1.0097  0.0289
  941MOL0     C26923   2.120   5.027   2.392  0.6387  0.1578  0.1210
  941MOL0     O26924   2.038   5.025   2.507  0.1281 -0.4557 -0.1272
  941MOL0     C26925   1.904   4.998   2.505 -1.7517 -1.2561 -0.2205
  941MOL0     C26926   1.817   5.062   2.592 -0.2950  0.5981 -0.6644
  941MOL0     C26927   1.682   5.043   2.581  0.6496  0.7604 -0.9107
  941MOL0     C26928   1.586   5.125   2.658 -0.2861 -0.4509  0.4913
  941MOL0     C26929   1.635   4.940   2.500  0.3267  0.0644  0.2308
  941MOL0     C26930   1.494   4.897   2.491 -0.1044  0.3605 -0.3410
  941MOL0     O26931   1.401   4.946   2.581 -0.0610  0.5528 -0.5929
  941MOL0     C26932   1.288   4.877   2.630  0.0267  0.0393  1.0886
  941MOL0     C26933   1.281   4.846   2.764 -0.5813 -0.7611 -0.2627
  941MOL0     C26934   1.160   4.805   2.818  0.4383  0.4933  0.1580
  941MOL0     C26935   1.048   4.796   2.741  0.0050  0.8199  1.2043
  941MOL0     O26936   0.919   4.733   2.768  0.1832  0.3658 -0.2764
  941MOL0     C26937   0.894   4.664   2.892 -0.2915  1.7877 -0.5287
  941MOL0     C26938   0.761   4.593   2.908 -0.3943  0.5523 -0.0109
  941MOL0     C26939   0.739   4.483   3.012 -0.5218  0.6216  1.3043
  941MOL0     C26940   0.615   4.406   2.982  0.2545 -0.0505 -0.2042
  941MOL0     C26941   0.604   4.273   3.055  0.2714  1.1053  0.1733
  941MOL0     C26942   0.465   4.220   3.027  0.0574 -0.4254  0.7630
  941MOL0     C26943   0.441   4.078   3.070  0.9299  0.4368 -0.0361
  941MOL0     C26944   0.442   4.062   3.222  0.1481 -1.0804 -0.1571
  941MOL0    Cl26945   0.376   3.900   3.255 -0.0806  0.2087  0.3347
  941MOL0     C26946   1.050   4.832   2.610  0.4711 -0.1867 -0.3472
  941MOL0     C26947   1.172   4.872   2.550  0.1546  0.0805 -0.6348
  941MOL0     O26948   1.475   4.806   2.407  0.3183 -0.0245  0.0610
  941MOL0     C26949   1.722   4.876   2.416 -0.8531 -1.0287  0.0484
  941MOL0     C26950   1.856   4.902   2.416 -0.4189  0.2960  0.6196
  941MOL0     N26951   2.588   4.670   2.351 -0.4421 -0.6879 -0.6087
  941MOL0     N26952   2.710   4.714   2.376 -0.2265  0.8711  0.1904
  941MOL0     C26953   3.640   4.974   3.073  0.1735  0.2672 -0.4495
  941MOL0     C26954   3.688   4.942   3.206 -0.3844  0.5841  0.3769
  941MOL0     C26955   3.636   4.923   3.676 -0.7077 -0.7621  0.7152
  941MOL0     C26956   3.757   4.982   3.715 -0.0150  0.0267 -0.4310
  941MOL0     C26957   3.803   4.961   3.840 -0.5667 -0.2664  0.1070
  941MOL0     C26958   3.723   4.899   3.944  0.3702  0.1035 -0.1946
  941MOL0     O26959   3.759   4.871   4.072 -0.1862  0.0999 -0.1712
  941MOL0     C26960   3.890   4.897   4.110 -0.5874  0.7883 -1.0211
  941MOL0     C26961   3.917   4.841   4.250  0.0640  0.3598 -0.1182
  941MOL0     C26962   3.867   4.690   4.260  0.3384 -0.0659  0.0345
  941MOL0     C26963   3.903   4.633   4.400  0.3672 -1.0200 -0.0886
  941MOL0     C26964   4.038   4.669   4.442  0.5158  0.0894  1.2291
  941MOL0     C26965   4.148   4.703   4.465  1.0275 -1.2255 -0.2491
  941MOL0     C26966   3.595   4.861   3.914  0.6950 -0.3077  0.0892
  941MOL0     C26967   3.554   4.868   3.772  0.4917  0.6529 -0.0926
  941MOL0     H26968   3.508   5.181   3.365 -2.2912 -0.4215 -0.5952
  941MOL0     H26969   3.430   5.235   3.152 -1.0205 -0.2963  2.8690
  941MOL0     H26970   3.346   5.226   2.964 -1.0897 -1.3571 -1.1358
  941MOL0     H26971   3.500   5.302   2.894  1.1480 -0.4978 -0.9433
  941MOL0     H26972   3.326   5.308   2.737  3.1744  0.1075 -2.2549
  941MOL0     H26973   3.426   5.184   2.683 -0.7488  0.0516 -0.5212
  941MOL0     H26974   3.283   5.007   2.750  2.0128  0.5045  1.8898
  941MOL0     H26975   3.176   5.115   2.833  0.2503 -1.0957 -0.4706
  941MOL0     H26976   3.143   5.222   2.608 -1.8297  0.2925  2.2216
  941MOL0     H26977   3.213   5.064   2.541 -1.3929  0.4237 -1.8569
  941MOL0     H26978   3.036   4.942   2.626  0.5275 -0.1761  0.1626
  941MOL0     H26979   2.983   5.051   2.748 -0.8470  0.2489 -1.0799
  941MOL0     H26980   2.901   5.207   2.606  0.5085 -1.8252  1.8544
  941MOL0     H26981   2.979   5.137   2.455  0.1940 -1.5831 -1.1005
  941MOL0     H26982   2.776   4.966   2.618 -0.1528  2.2644  2.2403
  941MOL0     H26983   2.713   5.104   2.532  0.4051  0.0149 -0.5346
  941MOL0     H26984   2.898   4.895   2.424 -0.7349 -0.5393  0.2546
  941MOL0     H26985   2.825   5.001   2.322 -1.0378 -0.2678  0.8500
  941MOL0     H26986   2.538   4.994   2.369  0.3219  0.1320 -0.2995
  941MOL0     H26987   2.403   4.750   2.161  2.3121 -0.2897  0.8987
  941MOL0     H26988   2.321   4.665   2.280  1.3730 -0.7865 -1.9000
  941MOL0     H26989   2.192   4.864   2.195 -0.2344  1.3193  0.8739
  941MOL0     H26990   2.327   4.966   2.230 -0.4607  2.4777  4.1064
  941MOL0     H26991   2.286   4.907   2.484  0.7851  0.4301 -1.3942
  941MOL0     H26992   2.143   4.822   2.433 -0.5114  0.5868 -0.2792
  941MOL0     H26993   2.054   5.018   2.305 -3.3342 -2.8430  3.0528
  941MOL0     H26994   2.190   5.111   2.392  0.7903  0.0426  0.8539
  941MOL0     H26995   1.844   5.140   2.663 -2.8356  0.8264  0.1530
  941MOL0     H26996   1.646   5.207   2.699  1.6562 -0.2225 -2.5201
  941MOL0     H26997   1.506   5.155   2.590  2.2376  3.5580 -1.0484
  941MOL0     H26998   1.541   5.072   2.742 -2.5187  1.9706  0.9544
  941MOL0     H26999   1.362   4.873   2.831  1.5583  0.2981 -3.0509
  941MOL0     H27000   1.165   4.782   2.925 -2.1174 -0.1341  0.2190
  941MOL0     H27001   0.970   4.585   2.886 -1.3527  0.2822  3.0581
  941MOL0     H27002   0.915   4.714   2.988  2.0508 -0.2114  0.0904
  941MOL0     H27003   0.695   4.673   2.944 -0.0221  1.3275 -1.0172
  941MOL0     H27004   0.738   4.550   2.810  0.9470 -0.4462  0.0951
  941MOL0     H27005   0.739   4.528   3.111 -2.3102  0.5269  1.3812
  941MOL0     H27006   0.826   4.417   3.002  1.2786  2.9879  0.5190
  941MOL0     H27007   0.527   4.467   3.005 -0.8425 -1.2012 -1.1575
  941MOL0     H27008   0.601   4.391   2.874 -2.7321 -0.8193  0.1786
  941MOL0     H27009   0.625   4.273   3.162  3.4872  0.4629 -0.3653
  941MOL0     H27010   0.670   4.197   3.013 -0.7550  0.9170 -1.1641
  941MOL0     H27011   0.409   4.293   3.086 -0.1150  1.3293 -1.4455
  941MOL0     H27012   0.437   4.237   2.922  0.8426  1.4831  0.8385
  941MOL0     H27013   0.534   4.029   3.038  2.6185  3.0543  0.5358
  941MOL0     H27014   0.354   4.036   3.020  1.3093 -1.6086  0.9155
  941MOL0     H27015   0.386   4.143   3.270  0.0082 -0.6819 -0.9794
  941MOL0     H27016   0.542   4.068   3.264  0.6538  1.5086 -1.5019
  941MOL0     H27017   0.956   4.832   2.555  0.0825 -2.5345  0.2166
  941MOL0     H27018   1.177   4.914   2.450 -0.6430 -2.9551 -2.0635
  941MOL0     H27019   1.684   4.803   2.345 -0.3310  1.1576 -2.6395
  941MOL0     H27020   1.921   4.848   2.347 -2.2737  0.6467 -1.4973
  941MOL0     H27021   3.675   4.906   2.996  1.8390 -2.2102  2.2463
  941MOL0     H27022   3.742   4.852   3.230  1.0321  0.6559 -2.2058
  941MOL0     H27023   3.820   5.029   3.640 -0.2242  0.5789 -0.2631
  941MOL0     H27024   3.904   4.999   3.854 -0.7913  0.7457 -0.8467
  941MOL0     H27025   3.956   4.850   4.038 -0.5000 -1.0225  0.1925
  941MOL0     H27026   3.913   5.004   4.112 -0.4404  0.8065 -2.4303
  941MOL0     H27027   3.869   4.907   4.322  0.8665 -0.5673  1.3195
  941MOL0     H27028   4.023   4.852   4.275  0.8076 -0.4284 -2.6179
  941MOL0     H27029   3.899   4.630   4.175 -2.4142  0.8918 -1.8041
  941MOL0     H27030   3.758   4.684   4.269  0.3418  0.8510  1.0139
  941MOL0     H27031   3.895   4.524   4.397  0.1915 -0.9845 -1.5013
  941MOL0     H27032   3.823   4.654   4.472 -1.8588 -2.1800 -2.0575
  941MOL0     H27033   4.244   4.722   4.508  0.8470 -0.5358 -0.1355
  941MOL0     H27034   3.534   4.828   3.997 -0.8162  0.2480 -0.7417
  941MOL0     H27035   3.457   4.837   3.733 -0.1658  2.3641  0.0731
  942MOL0     O27036   2.618   7.231   7.828  0.4563 -0.2501 -0.7333
  942MOL0     C27037   2.563   7.311   7.752 -0.3714 -0.1549 -0.8555
  942MOL0     O27038   2.425   7.324   7.728 -0.3256  0.1851 -0.6936
  942MOL0     C27039   2.324   7.262   7.800 -0.1497 -0.5764 -1.0339
  942MOL0     C27040   2.340   7.140   7.862  0.1186  0.1763 -0.4888
  942MOL0     C27041   2.229   7.081   7.917  0.1510  0.4351 -0.1176
  942MOL0     C27042   2.103   7.139   7.916  0.3421 -0.7204 -0.2574
  942MOL0     O27043   1.990   7.084   7.972 -0.2980  0.5579 -0.2268
  942MOL0     C27044   1.993   7.022   8.105 -0.3914 -0.2314  0.2502
  942MOL0     C27045   1.861   6.964   8.134 -0.3056  0.7915  0.8155
  942MOL0     C27046   1.850   6.878   8.257 -0.0627  0.2934  0.4795
  942MOL0     C27047   1.848   6.966   8.386 -0.7656  0.3825  0.3995
  942MOL0     C27048   1.799   6.889   8.500 -0.3068  0.2946  0.4602
  942MOL0     C27049   1.808   6.972   8.633 -0.1070 -0.0771 -1.1454
  942MOL0     C27050   1.723   6.895   8.740 -0.0612 -0.8589 -0.6707
  942MOL0     C27051   1.690   6.995   8.852  0.5246  0.2207 -0.5995
  942MOL0     N27052   1.810   7.044   8.919 -0.4158 -0.3415  0.0234
  942MOL0     C27053   1.857   7.182   8.932 -0.2933 -0.3890  0.4433
  942MOL0     C27054   1.976   7.174   8.996 -0.5217 -0.8102 -0.0420
  942MOL0     C27055   2.078   7.291   9.024 -0.3694  0.2596 -0.0397
  942MOL0     C27056   2.130   7.356   8.896  0.3050  0.1848 -0.4054
  942MOL0     C27057   2.267   7.301   8.836 -0.0895 -0.5584  1.4866
  942MOL0     C27058   2.281   7.364   8.690 -0.1715 -0.0015  0.0627
  942MOL0     O27059   2.298   7.510   8.690 -0.1009 -0.0878 -0.0082
  942MOL0     C27060   2.413   7.552   8.752 -0.5807 -0.5344  0.6950
  942MOL0     C27061   2.542   7.522   8.704  0.5726 -0.0569  0.3627
  942MOL0     C27062   2.664   7.573   8.773  0.3796 -0.8159 -0.7090
  942MOL0     C27063   2.791   7.545   8.700  0.7472 -0.5476 -0.5895
  942MOL0     C27064   2.651   7.656   8.885 -0.2706  0.4899 -0.3261
  942MOL0     C27065   2.766   7.729   8.949 -0.3808  0.7349 -0.1609
  942MOL0     O27066   2.729   7.816   9.052  0.3052 -0.0564 -0.3153
  942MOL0     C27067   2.816   7.884   9.138  0.0249 -0.1979  0.1218
  942MOL0     C27068   2.776   7.897   9.270 -1.0285  0.2711  0.0347
  942MOL0     C27069   2.861   7.960   9.364 -0.3269  0.0020 -1.1613
  942MOL0     C27070   2.983   8.020   9.323  0.2635  0.2722 -0.2926
  942MOL0     O27071   3.068   8.095   9.396 -0.5941  0.6013 -0.4006
  942MOL0     C27072   3.118   8.060   9.525  0.0858  0.5285 -0.0523
  942MOL0     C27073   3.222   7.944   9.526  0.5220  0.2237  0.5903
  942MOL0     C27074   3.268   7.914   9.672 -0.1144 -0.4204  0.0754
  942MOL0     C27075   3.344   8.031   9.738  0.9167 -0.3087 -0.8303
  942MOL0     C27076   3.381   8.000   9.889 -0.1337 -0.3996 -0.6246
  942MOL0     C27077   3.446   8.121   9.957 -0.0166  0.4411 -0.4961
  942MOL0     C27078   3.508   8.090  10.094  0.9741  0.2881 -1.0537
  942MOL0     C27079   3.511   8.211  10.186 -0.7005  0.1408  0.2622
  942MOL0    Cl27080   3.622   8.165  10.328  0.4699 -0.4552 -0.3416
  942MOL0     C27081   3.015   8.004   9.188  0.7807  0.2451 -0.8273
  942MOL0     C27082   2.936   7.937   9.094 -0.7280 -0.2878  0.5835
  942MOL0     O27083   2.884   7.707   8.925  0.2634 -0.0024 -0.2675
  942MOL0     C27084   2.526   7.672   8.937 -0.3858  0.0054  0.5952
  942MOL0     C27085   2.404   7.636   8.864 -0.1925 -0.2389  1.1602
  942MOL0     N27086   1.993   7.042   9.032  1.2660  0.3073 -0.6216
  942MOL0     N27087   1.903   6.963   8.980 -0.1009  0.0044  0.0614
  942MOL0     C27088   2.088   7.266   7.848 -0.4712 -0.1559 -0.2419
  942MOL0     C27089   2.201   7.331   7.800  0.0754 -0.3380 -0.3292
  942MOL0     C27090   2.661   7.383   7.668  0.6826 -1.0369 -0.4079
  942MOL0     C27091   2.806   7.350   7.661  0.3039  0.1111 -0.6515
  942MOL0     C27092   2.881   7.424   7.572 -0.0027 -0.4199  0.3733
  942MOL0     C27093   2.821   7.531   7.500 -1.0986 -0.0555 -0.4514
  942MOL0     O27094   2.890   7.636   7.432 -0.2467 -0.6504 -0.2307
  942MOL0     C27095   3.022   7.664   7.452 -0.0075 -0.5290  1.1858
  942MOL0     C27096   3.045   7.801   7.402  0.6594 -0.3346  0.1895
  942MOL0     C27097   3.179   7.847   7.454 -0.9376  0.2746  0.1845
  942MOL0     C27098   3.302   7.776   7.399 -0.7383  0.8433  0.4010
  942MOL0     C27099   3.325   7.810   7.258  0.7116  0.1236  0.4043
  942MOL0     C27100   3.336   7.853   7.145 -0.0679 -0.7423  0.1443
  942MOL0     C27101   2.687   7.554   7.508  0.7328  0.3603 -0.7373
  942MOL0     C27102   2.610   7.483   7.591 -0.3687  1.0577  0.1888
  942MOL0     H27103   2.436   7.088   7.868 -0.6681 -1.2739  0.1729
  942MOL0     H27104   2.247   6.987   7.968  1.8020 -1.1645 -3.3482
  942MOL0     H27105   2.066   6.941   8.111  1.0003  0.6704 -2.6173
  942MOL0     H27106   2.013   7.101   8.179  1.3469  1.0755 -1.5262
  942MOL0     H27107   1.785   7.043   8.139  0.1000  1.3893 -1.3588
  942MOL0     H27108   1.842   6.905   8.044  2.3307  0.2546  0.5267
  942MOL0     H27109   1.753   6.829   8.246 -1.9386  3.2965  2.0320
  942MOL0     H27110   1.922   6.797   8.269 -2.1282 -1.2676  3.9515
  942MOL0     H27111   1.947   7.010   8.400  1.3826 -3.4787 -1.0444
  942MOL0     H27112   1.794   7.054   8.350  3.1462  2.6900 -0.3930
  942MOL0     H27113   1.696   6.862   8.476  0.4810  0.5154 -3.9304
  942MOL0     H27114   1.851   6.794   8.512 -0.0492 -0.0464 -2.5998
  942MOL0     H27115   1.910   6.992   8.668 -0.5641 -0.2603  0.3547
  942MOL0     H27116   1.765   7.072   8.623 -0.3261  0.1802  1.6715
  942MOL0     H27117   1.631   6.851   8.701  0.0833 -1.3596 -0.4620
  942MOL0     H27118   1.788   6.812   8.771 -0.1212 -0.6301  0.0770
  942MOL0     H27119   1.614   6.960   8.922 -0.4092  0.1142 -1.6501
  942MOL0     H27120   1.640   7.076   8.798  0.0147 -1.5279 -2.9281
  942MOL0     H27121   1.793   7.260   8.892 -1.3262 -0.4810  1.8561
  942MOL0     H27122   2.027   7.370   9.080  0.7278  0.8692  0.1312
  942MOL0     H27123   2.160   7.255   9.088  0.4661 -0.3954 -1.4317
  942MOL0     H27124   2.139   7.464   8.911 -0.4898  0.4799 -1.8528
  942MOL0     H27125   2.061   7.337   8.813  0.2348 -2.5320  0.1581
  942MOL0     H27126   2.262   7.193   8.825  1.6378 -0.4170 -2.0467
  942MOL0     H27127   2.352   7.323   8.901  0.8621  0.1143  0.0556
  942MOL0     H27128   2.196   7.347   8.624 -0.0595  1.9004 -0.6215
  942MOL0     H27129   2.366   7.322   8.634 -0.2104 -0.7809  0.5692
  942MOL0     H27130   2.551   7.479   8.605  1.6641 -2.0708  1.2638
  942MOL0     H27131   2.835   7.640   8.668 -2.9216  1.2589 -0.7767
  942MOL0     H27132   2.844   7.477   8.767  0.0702 -1.0414 -0.5398
  942MOL0     H27133   2.773   7.498   8.602  0.8180  1.0021 -1.3797
  942MOL0     H27134   2.680   7.854   9.299 -1.8661  1.3629 -1.0152
  942MOL0     H27135   2.835   7.958   9.469  0.9641  2.8664 -0.6998
  942MOL0     H27136   3.160   8.152   9.567  0.5105 -0.7742  2.5380
  942MOL0     H27137   3.030   8.038   9.587  0.6365  1.0186  0.9318
  942MOL0     H27138   3.175   7.848   9.501  2.2397 -0.2726 -0.9739
  942MOL0     H27139   3.310   7.965   9.465  1.8581 -2.6822  1.3388
  942MOL0     H27140   3.349   7.841   9.663  2.1745  1.8255  1.2873
  942MOL0     H27141   3.189   7.874   9.736 -0.1607  0.9329  0.8986
  942MOL0     H27142   3.436   8.063   9.689  0.6709  2.2914  0.2704
  942MOL0     H27143   3.271   8.112   9.746  1.0518 -0.3214  5.4322
  942MOL0     H27144   3.445   7.911   9.895  1.5908  0.7964 -0.6217
  942MOL0     H27145   3.285   7.975   9.934 -0.2986  1.4835  0.1528
  942MOL0     H27146   3.528   8.154   9.893  1.0883 -0.6282  0.3297
  942MOL0     H27147   3.379   8.208   9.962 -1.4300 -0.6395 -0.0220
  942MOL0     H27148   3.608   8.047  10.086 -0.0256 -2.5374  0.1961
  942MOL0     H27149   3.448   8.016  10.148  0.5706  0.4232 -1.3179
  942MOL0     H27150   3.413   8.245  10.218 -0.5614  1.7926 -0.9212
  942MOL0     H27151   3.556   8.292  10.127 -2.9893 -0.1971 -2.1218
  942MOL0     H27152   3.117   8.038   9.168 -0.2849  3.5533 -1.3865
  942MOL0     H27153   2.970   7.935   8.991  0.0482 -3.1391  0.8043
  942MOL0     H27154   2.509   7.726   9.030  0.0673 -0.0381  0.7029
  942MOL0     H27155   2.311   7.657   8.916 -1.0435  0.0116 -0.3962
  942MOL0     H27156   1.987   7.302   7.836 -0.0552  1.0224 -0.3794
  942MOL0     H27157   2.180   7.426   7.753 -0.3038  0.0745  0.6564
  942MOL0     H27158   2.842   7.266   7.720  2.1995  0.6638 -0.9602
  942MOL0     H27159   2.988   7.408   7.566  0.0712 -0.1459  0.9182
  942MOL0     H27160   3.052   7.647   7.556 -1.2591 -1.2168  1.4505
  942MOL0     H27161   3.067   7.587   7.389 -2.5059 -1.4167  0.3543
  942MOL0     H27162   2.971   7.873   7.439  1.2633  0.1003  0.5738
  942MOL0     H27163   3.042   7.806   7.292  0.1957  1.3406  0.2459
  942MOL0     H27164   3.188   7.827   7.561  0.9036 -1.5000 -0.2486
  942MOL0     H27165   3.191   7.952   7.428  0.5608  0.4023  1.2579
  942MOL0     H27166   3.290   7.669   7.420 -0.0337  0.6857  0.0262
  942MOL0     H27167   3.396   7.808   7.446 -1.1724  2.8350 -0.0091
  942MOL0     H27168   3.351   7.883   7.043  0.2513 -1.2274  0.0414
  942MOL0     H27169   2.638   7.637   7.459 -0.2617 -1.0355 -2.2052
  942MOL0     H27170   2.505   7.511   7.598 -0.0635  1.9264  1.8013
  943MOL0     O27171  10.485   9.001   7.050  0.3848  0.4058  0.0076
  943MOL0     C27172  10.525   8.930   6.957  0.0218 -0.2528 -0.2090
  943MOL0     O27173  10.445   8.881   6.859 -0.0929  0.2966 -0.7475
  943MOL0     C27174  10.317   8.908   6.837 -0.0494  0.7717 -0.0327
  943MOL0     C27175  10.226   8.794   6.838  0.6258 -0.3906 -0.7643
  943MOL0     C27176  10.088   8.839   6.820  0.1514  0.2271  0.4937
  943MOL0     C27177  10.042   8.965   6.807  1.1394 -1.1229  0.3005
  943MOL0     O27178   9.915   9.011   6.784  0.7147  0.0012 -0.1059
  943MOL0     C27179   9.817   8.926   6.715  0.8649  0.3552 -0.2573
  943MOL0     C27180   9.671   8.972   6.729 -0.0473 -0.1193  0.5194
  943MOL0     C27181   9.624   8.993   6.873  0.2189 -0.6721  0.3181
  943MOL0     C27182   9.654   9.144   6.918 -0.3656  0.5853  0.1173
  943MOL0     C27183   9.680   9.153   7.067  0.0335 -0.3689  0.3459
  943MOL0     C27184   9.544   9.138   7.144 -0.1379 -0.7240  0.6445
  943MOL0     C27185   9.551   9.161   7.299 -0.4868 -0.2814  0.8188
  943MOL0     C27186   9.536   9.316   7.330 -0.4346 -0.3085  0.5385
  943MOL0     N27187   9.402   9.377   7.323 -0.3484  0.9603 -0.5784
  943MOL0     C27188   9.285   9.338   7.379  0.1668  0.4177 -0.0939
  943MOL0     C27189   9.201   9.433   7.347 -0.3357 -0.6994  0.1468
  943MOL0     C27190   9.055   9.446   7.394 -0.4595 -0.7361 -0.2488
  943MOL0     C27191   8.948   9.378   7.314 -0.3910  0.4274  0.1245
  943MOL0     C27192   8.808   9.392   7.369 -1.4871 -0.8659 -0.5918
  943MOL0     C27193   8.746   9.526   7.349 -0.8281  0.2823  0.6244
  943MOL0     O27194   8.614   9.513   7.387  0.3127 -0.4711 -0.4499
  943MOL0     C27195   8.547   9.606   7.453  0.8320 -0.8074 -0.0545
  943MOL0     C27196   8.561   9.748   7.446  0.7806  0.2876  0.1387
  943MOL0     C27197   8.475   9.835   7.517 -0.1823 -0.1786 -0.3465
  943MOL0     C27198   8.502   9.980   7.501  0.0840  0.1578  0.4620
  943MOL0     C27199   8.363   9.779   7.584 -0.2024 -0.3226 -0.6472
  943MOL0     C27200   8.255   9.852   7.657 -0.1434 -0.4187  0.3328
  943MOL0     O27201   8.154   9.778   7.711  0.3674 -0.2023  0.1514
  943MOL0     C27202   8.053   9.834   7.779  0.4450 -0.0768 -0.2954
  943MOL0     C27203   7.928   9.776   7.765 -0.1230  0.0293  0.6272
  943MOL0     C27204   7.817   9.838   7.816 -0.0262 -0.9904 -0.8520
  943MOL0     C27205   7.821   9.958   7.894  0.8597  0.0581  0.0152
  943MOL0     O27206   7.704  10.012   7.936  0.4680 -0.6282 -0.5093
  943MOL0     C27207   7.708  10.086   8.063 -0.9652  0.5478  0.0307
  943MOL0     C27208   7.578  10.151   8.114 -0.3663  1.1942  0.3021
  943MOL0     C27209   7.589  10.189   8.265 -0.1504  0.2327  0.9415
  943MOL0     C27210   7.466  10.271   8.310 -0.0398 -0.6285  0.6483
  943MOL0     C27211   7.496  10.325   8.457 -0.2066 -0.7873  0.2537
  943MOL0     C27212   7.375  10.399   8.524  0.2496 -0.8957  0.5545
  943MOL0     C27213   7.233  10.337   8.517 -0.8540  0.2392  0.5494
  943MOL0     C27214   7.235  10.199   8.565  0.4732 -0.0507 -0.7804
  943MOL0    Cl27215   7.081  10.158   8.648 -0.3770  0.4546 -0.5139
  943MOL0     C27216   7.953  10.016   7.913 -0.5370 -0.5126  0.4645
  943MOL0     C27217   8.063   9.953   7.855 -0.0968 -0.3063  1.2137
  943MOL0     O27218   8.264   9.973   7.658  0.1780  0.2242 -1.1570
  943MOL0     C27219   8.349   9.639   7.591 -0.7260 -0.1551  0.7159
  943MOL0     C27220   8.442   9.558   7.531  0.0887 -0.3656  0.0114
  943MOL0     N27221   9.264   9.525   7.261  0.8599 -0.2897 -0.2276
  943MOL0     N27222   9.385   9.484   7.245  0.8238 -0.3252  0.2896
  943MOL0     C27223  10.137   9.067   6.794  0.0235 -0.5953 -0.3474
  943MOL0     C27224  10.273   9.040   6.817  0.2112 -0.0512  0.4354
  943MOL0     C27225  10.667   8.889   6.958 -0.1912  0.4801 -0.6319
  943MOL0     C27226  10.702   8.771   6.905  0.0142  0.3534  0.0738
  943MOL0     C27227  10.837   8.746   6.896 -0.8758  0.4639 -0.6348
  943MOL0     C27228  10.936   8.839   6.945 -0.6110  0.1106 -0.3162
  943MOL0     O27229  11.064   8.795   6.924  0.4945  1.1491 -0.4267
  943MOL0     C27230  11.180   8.871   6.940 -0.8060  0.3980 -0.9518
  943MOL0     C27231  11.217   8.891   7.097 -0.1823 -0.4538 -0.4915
  943MOL0     C27232  11.242   8.759   7.174 -0.3449  0.0264 -0.1678
  943MOL0     C27233  11.386   8.720   7.205 -0.6080  0.5935  0.4468
  943MOL0     C27234  11.474   8.738   7.094 -0.3864  0.0991 -0.2986
  943MOL0     C27235  11.547   8.746   6.996 -0.0543 -0.6778 -0.2202
  943MOL0     C27236  10.897   8.957   7.008 -0.1407  0.2288  0.0499
  943MOL0     C27237  10.764   8.974   7.014 -0.0512 -0.6056  0.2252
  943MOL0     H27238  10.238   8.686   6.849 -4.0076 -1.1622 -1.1983
  943MOL0     H27239  10.013   8.760   6.822  0.1191  0.2178 -0.5144
  943MOL0     H27240   9.844   8.916   6.609  1.4831  4.1143 -0.6134
  943MOL0     H27241   9.827   8.829   6.763  1.1798  0.3847 -0.2561
  943MOL0     H27242   9.669   9.065   6.670 -0.0578 -1.1590 -1.1924
  943MOL0     H27243   9.610   8.893   6.685  1.4149 -0.7319 -0.5006
  943MOL0     H27244   9.517   8.974   6.883  0.1686 -0.7029 -0.2450
  943MOL0     H27245   9.665   8.915   6.937 -0.6019 -1.4470 -0.0775
  943MOL0     H27246   9.751   9.172   6.876 -0.3776 -2.0421 -1.9613
  943MOL0     H27247   9.575   9.209   6.879 -0.6780 -1.2789 -2.6474
  943MOL0     H27248   9.758   9.080   7.090  1.3504  0.9811  0.2922
  943MOL0     H27249   9.731   9.248   7.086  0.0674 -0.1917 -0.5753
  943MOL0     H27250   9.487   9.214   7.090 -0.7895 -1.0082  0.9296
  943MOL0     H27251   9.504   9.040   7.119 -2.2165  0.4261 -0.8181
  943MOL0     H27252   9.472   9.111   7.355 -0.4521  1.1143  2.1952
  943MOL0     H27253   9.642   9.111   7.333 -0.5737 -0.7542  0.3648
  943MOL0     H27254   9.603   9.380   7.272 -0.9999 -2.2982 -2.5402
  943MOL0     H27255   9.569   9.312   7.434  3.5143 -2.3046 -0.5771
  943MOL0     H27256   9.253   9.257   7.444  0.5530  0.9225  0.7433
  943MOL0     H27257   9.061   9.400   7.493  0.7335 -0.5551 -0.2130
  943MOL0     H27258   9.035   9.553   7.403  0.4615 -0.5276 -0.5509
  943MOL0     H27259   8.972   9.273   7.298  3.1323  1.3456 -1.8313
  943MOL0     H27260   8.941   9.426   7.216  1.3457  1.5939  0.5237
  943MOL0     H27261   8.810   9.364   7.474  4.3864 -0.7722 -0.3164
  943MOL0     H27262   8.739   9.328   7.312 -1.5058 -0.1287 -1.4237
  943MOL0     H27263   8.740   9.551   7.242  0.0340  1.8140  0.8916
  943MOL0     H27264   8.800   9.606   7.401  0.1932 -0.3285  0.5252
  943MOL0     H27265   8.654   9.778   7.400  3.0650  0.6061  4.4434
  943MOL0     H27266   8.582   9.996   7.428 -0.8824  0.3284 -0.5868
  943MOL0     H27267   8.417  10.027   7.450 -0.4836 -0.0014  1.2368
  943MOL0     H27268   8.511  10.031   7.597 -2.6802  1.1523  0.2882
  943MOL0     H27269   7.923   9.686   7.704  1.8417 -0.1534  0.6799
  943MOL0     H27270   7.716   9.804   7.796 -0.5280 -1.1895  1.7191
  943MOL0     H27271   7.744  10.016   8.139 -0.0698 -0.4017 -1.2286
  943MOL0     H27272   7.778  10.169   8.073  0.4436 -0.7837  2.1312
  943MOL0     H27273   7.550  10.240   8.056  0.3531  3.4789  3.2368
  943MOL0     H27274   7.504  10.072   8.097 -0.3233  0.9609  1.1452
  943MOL0     H27275   7.679  10.252   8.269  0.0379  0.1423 -0.7873
  943MOL0     H27276   7.618  10.109   8.333  0.4130  0.2808  0.7647
  943MOL0     H27277   7.445  10.351   8.239 -0.2575 -0.4168  0.9439
  943MOL0     H27278   7.388  10.195   8.296  3.0233 -3.4050 -3.8231
  943MOL0     H27279   7.586  10.387   8.445 -0.7746 -0.2136 -1.2930
  943MOL0     H27280   7.521  10.243   8.525 -0.1744  0.8765  2.3587
  943MOL0     H27281   7.403  10.431   8.625  0.9202  1.5661 -0.3633
  943MOL0     H27282   7.362  10.490   8.466 -0.2999 -0.9791  0.5440
  943MOL0     H27283   7.202  10.344   8.412 -0.1591 -1.4389  0.2034
  943MOL0     H27284   7.170  10.405   8.575 -0.2431  2.7354 -1.4709
  943MOL0     H27285   7.312  10.177   8.639  1.0002  0.1594 -1.2590
  943MOL0     H27286   7.249  10.132   8.479 -0.8721 -2.4994  0.7844
  943MOL0     H27287   7.983  10.102   7.972  1.2157  1.4921 -3.0872
  943MOL0     H27288   8.150  10.018   7.867 -1.3370  2.3481 -2.4597
  943MOL0     H27289   8.265   9.597   7.646 -1.6862  1.6751  0.7139
  943MOL0     H27290   8.432   9.450   7.541  1.5041 -0.3610  2.2389
  943MOL0     H27291  10.107   9.171   6.784  1.4646  0.0878  1.6947
  943MOL0     H27292  10.349   9.116   6.806  0.6291 -0.2088  1.9595
  943MOL0     H27293  10.635   8.700   6.857  0.4526  1.4573 -2.3376
  943MOL0     H27294  10.871   8.652   6.855  1.4403  0.6341  0.7433
  943MOL0     H27295  11.263   8.812   6.900 -1.7145 -0.7426 -1.2021
  943MOL0     H27296  11.168   8.965   6.885 -2.0396  3.2359  3.6254
  943MOL0     H27297  11.137   8.945   7.147 -1.2445 -2.0707 -0.3771
  943MOL0     H27298  11.312   8.946   7.104  0.9984 -2.4972  0.7683
  943MOL0     H27299  11.195   8.679   7.117  1.3317  0.0388 -1.6621
  943MOL0     H27300  11.203   8.766   7.276  1.3830 -1.0346  0.6181
  943MOL0     H27301  11.394   8.618   7.243 -2.0543  0.6189  0.8885
  943MOL0     H27302  11.413   8.775   7.296  5.0468 -1.4065  0.3335
  943MOL0     H27303  11.624   8.752   6.921  1.4579 -1.7038  1.1684
  943MOL0     H27304  10.969   9.029   7.046  0.5796  0.3786 -1.5214
  943MOL0     H27305  10.727   9.059   7.070  0.6010 -1.1626  1.5419
  944MOL0     O27306   1.955  10.267  10.279  0.1690  0.3235 -0.3092
  944MOL0     C27307   1.939  10.383  10.245  1.2166 -0.2337  0.2701
  944MOL0     O27308   2.016  10.451  10.163 -0.6579 -0.3925 -0.1868
  944MOL0     C27309   2.146  10.396  10.159 -0.1761 -0.1987 -1.1150
  944MOL0     C27310   2.225  10.363  10.269 -0.1516 -0.3176 -0.1624
  944MOL0     C27311   2.347  10.298  10.250 -0.1487 -0.2801  0.0510
  944MOL0     C27312   2.403  10.285  10.118  0.9346 -0.3344 -0.9670
  944MOL0     O27313   2.516  10.207  10.116  0.1840  0.9286  0.1915
  944MOL0     C27314   2.635  10.280  10.086 -0.0344 -0.0831  0.3413
  944MOL0     C27315   2.671  10.391  10.196  0.4056  0.2997 -0.2257
  944MOL0     C27316   2.701  10.339  10.326 -0.3299  0.2140  0.4882
  944MOL0     C27317   2.775  10.439  10.412 -0.6326 -0.3424  0.3868
  944MOL0     C27318   2.698  10.530  10.508  0.0942 -0.1827  0.2499
  944MOL0     C27319   2.621  10.641  10.427  1.1358 -0.1312 -0.2283
  944MOL0     C27320   2.611  10.784  10.496  0.2607  0.1503  0.6223
  944MOL0     C27321   2.544  10.788  10.640  0.0936  0.1052  0.0124
  944MOL0     N27322   2.522  10.929  10.691 -0.4905  0.4047 -0.0049
  944MOL0     C27323   2.614  11.030  10.692 -0.2720 -0.2761 -1.2187
  944MOL0     C27324   2.547  11.128  10.767  0.9661  0.7272  0.8102
  944MOL0     C27325   2.620  11.253  10.801 -0.3124  0.2032 -0.5965
  944MOL0     C27326   2.650  11.264  10.950  0.8230 -0.1772  0.1835
  944MOL0     C27327   2.743  11.375  10.993  0.1684  0.4854  0.5620
  944MOL0     C27328   2.706  11.511  10.939  0.2011 -0.1120 -0.2513
  944MOL0     O27329   2.572  11.550  10.980  0.0998  0.3765  0.4793
  944MOL0     C27330   2.473  11.569  10.889 -0.0536 -0.0084 -0.4054
  944MOL0     C27331   2.484  11.605  10.756  0.6249 -0.5135  0.2789
  944MOL0     C27332   2.376  11.633  10.676  0.9157 -0.2288 -0.6850
  944MOL0     C27333   2.399  11.663  10.525 -0.3434 -0.1910  0.0881
  944MOL0     C27334   2.243  11.622  10.732 -0.1175 -0.3737 -0.2467
  944MOL0     C27335   2.124  11.647  10.667  0.0977 -0.1279  0.6055
  944MOL0     O27336   2.120  11.743  10.566 -0.2725  0.0284  0.0971
  944MOL0     C27337   2.009  11.780  10.493 -0.2944  0.4280  0.1650
  944MOL0     C27338   1.876  11.772  10.536  0.9351 -0.2405  0.5991
  944MOL0     C27339   1.774  11.824  10.450 -1.1010 -0.0550 -0.6723
  944MOL0     C27340   1.810  11.885  10.329  0.1518 -0.2781  0.2801
  944MOL0     O27341   1.713  11.950  10.257  0.4090 -0.1581 -0.1444
  944MOL0     C27342   1.631  11.858  10.181  0.6643 -0.8609  0.3273
  944MOL0     C27343   1.601  11.927  10.051  0.0817  0.2341 -0.2893
  944MOL0     C27344   1.510  11.835   9.962  0.4384 -0.2567  0.7381
  944MOL0     C27345   1.369  11.819  10.019  0.2694 -1.0528  0.3299
  944MOL0     C27346   1.274  11.780   9.918 -0.7038 -0.1590 -0.0301
  944MOL0     C27347   1.132  11.805   9.949  0.1993 -0.3010 -0.1064
  944MOL0     C27348   1.034  11.759   9.844  0.2247 -0.2812 -0.6723
  944MOL0     C27349   0.969  11.620   9.868  0.3236 -0.6684 -0.4447
  944MOL0    Cl27350   0.844  11.564   9.757  0.2137 -0.8581 -0.2731
  944MOL0     C27351   1.942  11.896  10.284  0.1210 -0.1536 -0.1483
  944MOL0     C27352   2.039  11.846  10.367  0.0127 -0.0057 -0.2180
  944MOL0     O27353   2.033  11.562  10.687 -0.2416 -0.2145 -0.7059
  944MOL0     C27354   2.234  11.588  10.864  0.6449  0.0292 -0.5623
  944MOL0     C27355   2.349  11.554  10.941  0.2952  0.0380 -0.5038
  944MOL0     N27356   2.420  11.084  10.784 -0.1670 -0.8250  0.0279
  944MOL0     N27357   2.400  10.979  10.728  0.0944 -0.0923  0.2142
  944MOL0     C27358   2.332  10.318  10.006  0.2753  0.0151 -0.4973
  944MOL0     C27359   2.203  10.387  10.029 -0.4858  0.3923 -0.1396
  944MOL0     C27360   1.815  10.449  10.274  0.1668  0.5186  0.1203
  944MOL0     C27361   1.695  10.376  10.254  0.6219 -0.2106  0.0509
  944MOL0     C27362   1.568  10.429  10.270  0.8357 -0.1417 -0.2729
  944MOL0     C27363   1.558  10.568  10.283 -0.3662 -0.0058  0.5862
  944MOL0     O27364   1.430  10.625  10.259 -0.0150 -0.4717  0.0544
  944MOL0     C27365   1.424  10.762  10.227  0.7017  0.6005 -0.8339
  944MOL0     C27366   1.276  10.784  10.179 -0.5210  0.6490  0.1517
  944MOL0     C27367   1.184  10.816  10.296  0.6293  0.3934 -0.5870
  944MOL0     C27368   1.041  10.850  10.247  0.4107  0.3928 -0.4154
  944MOL0     C27369   1.030  10.988  10.201 -0.4568  0.4549 -0.1326
  944MOL0     C27370   1.016  11.091  10.129 -0.0110 -0.2947 -0.2961
  944MOL0     C27371   1.676  10.635  10.322 -0.9411 -0.3600  0.0628
  944MOL0     C27372   1.802  10.579  10.316  0.2377  0.0891 -0.6965
  944MOL0     H27373   2.190  10.378  10.371 -0.4590  4.1798 -0.7054
  944MOL0     H27374   2.399  10.263  10.339 -2.6326 -3.0523  0.6045
  944MOL0     H27375   2.710  10.202  10.103 -0.8584 -0.9788 -0.0701
  944MOL0     H27376   2.642  10.321   9.985 -0.1083  0.9013  0.7223
  944MOL0     H27377   2.755  10.452  10.160 -1.4814  3.0589 -0.3086
  944MOL0     H27378   2.593  10.466  10.212 -1.4374 -1.2009 -1.6524
  944MOL0     H27379   2.605  10.305  10.364 -0.6599 -0.0379 -0.5360
  944MOL0     H27380   2.773  10.259  10.305 -1.5763 -0.3574 -1.9192
  944MOL0     H27381   2.832  10.366  10.470 -2.2147 -2.6576 -0.8273
  944MOL0     H27382   2.834  10.508  10.351  1.3189 -0.5695  1.9408
  944MOL0     H27383   2.608  10.483  10.550 -1.4186  3.3714  1.4100
  944MOL0     H27384   2.763  10.565  10.589 -2.1047 -3.0091  3.5275
  944MOL0     H27385   2.661  10.656  10.326 -0.8286  2.7936 -0.7019
  944MOL0     H27386   2.520  10.601  10.416  0.6548  0.6083  1.2457
  944MOL0     H27387   2.715  10.816  10.497  1.1000 -2.2875 -0.8319
  944MOL0     H27388   2.551  10.852  10.435 -1.7203 -1.4537  0.6633
  944MOL0     H27389   2.603  10.723  10.705  1.1653 -1.9643 -2.8272
  944MOL0     H27390   2.447  10.739  10.633 -0.8601  1.5396  2.1949
  944MOL0     H27391   2.717  11.024  10.658  0.8949  2.0089  1.4127
  944MOL0     H27392   2.713  11.262  10.743  1.7732 -1.5059  2.1883
  944MOL0     H27393   2.550  11.331  10.771 -1.1438 -0.0585  0.5912
  944MOL0     H27394   2.686  11.165  10.980 -0.6824 -1.3790 -1.7041
  944MOL0     H27395   2.560  11.260  11.012  1.3462 -0.0848  0.9636
  944MOL0     H27396   2.843  11.347  10.959 -1.6373  0.7509 -6.4678
  944MOL0     H27397   2.738  11.376  11.102 -0.4550 -1.0737  0.5761
  944MOL0     H27398   2.717  11.496  10.831  1.0765 -1.7305  0.0429
  944MOL0     H27399   2.769  11.593  10.974 -0.8802  0.9487 -0.7173
  944MOL0     H27400   2.583  11.604  10.711  0.1805  0.0379 -0.7533
  944MOL0     H27401   2.508  11.661  10.512 -0.5046 -0.5981 -1.3509
  944MOL0     H27402   2.369  11.585  10.454  0.9309 -0.6923  0.0719
  944MOL0     H27403   2.357  11.760  10.500 -2.5170 -0.4124  2.4610
  944MOL0     H27404   1.858  11.727  10.633 -4.1210 -0.1602 -0.0527
  944MOL0     H27405   1.673  11.822  10.489 -2.0854 -0.3390 -3.0854
  944MOL0     H27406   1.675  11.761  10.157  2.8756  0.2755 -0.5441
  944MOL0     H27407   1.531  11.839  10.221  0.5578 -2.0193 -0.4433
  944MOL0     H27408   1.565  12.027  10.079 -1.8550 -0.1098 -1.4143
  944MOL0     H27409   1.694  11.949   9.998  0.8559  1.1889  1.3913
  944MOL0     H27410   1.566  11.743   9.944  1.2126 -0.2065  2.6122
  944MOL0     H27411   1.509  11.880   9.862  3.4475  0.1405  0.7895
  944MOL0     H27412   1.360  11.740  10.094  3.0856 -1.8034 -0.0278
  944MOL0     H27413   1.343  11.920  10.051 -0.8153  0.2363 -3.9476
  944MOL0     H27414   1.288  11.676   9.887 -0.2964 -0.0802 -0.1134
  944MOL0     H27415   1.291  11.855   9.840  0.1160  0.3690  0.6441
  944MOL0     H27416   1.106  11.755  10.043  0.2740  0.9642  0.6129
  944MOL0     H27417   1.124  11.913   9.957  0.4493 -0.3461  0.8881
  944MOL0     H27418   1.086  11.762   9.748  1.8454  1.9764  0.1915
  944MOL0     H27419   0.950  11.830   9.842  0.6629  0.2793  0.1254
  944MOL0     H27420   0.920  11.632   9.965  4.0057  1.0641  1.4031
  944MOL0     H27421   1.035  11.535   9.883 -0.5565 -1.2041  0.5058
  944MOL0     H27422   1.969  11.953  10.196  1.2996  0.1107  0.3644
  944MOL0     H27423   2.141  11.870  10.340 -0.7021  1.8114 -1.4338
  944MOL0     H27424   2.137  11.594  10.911  1.2431 -2.8893  1.2816
  944MOL0     H27425   2.331  11.531  11.046 -0.8062  2.9721  0.0548
  944MOL0     H27426   2.378  10.307   9.908  1.1075  1.5510 -0.3059
  944MOL0     H27427   2.142  10.419   9.944 -1.5306 -1.6830 -0.2254
  944MOL0     H27428   1.707  10.276  10.212  1.1198 -0.8076  1.5599
  944MOL0     H27429   1.484  10.369  10.236  2.1420 -1.0085 -2.0976
  944MOL0     H27430   1.436  10.827  10.314  1.7742  3.4747 -2.9859
  944MOL0     H27431   1.498  10.789  10.152  2.2601 -0.0010  0.4374
  944MOL0     H27432   1.235  10.696  10.128 -2.4235  1.6320 -0.1031
  944MOL0     H27433   1.280  10.863  10.104 -0.1542 -1.1815 -1.8671
  944MOL0     H27434   1.217  10.910  10.339 -0.0429  0.8336 -1.0145
  944MOL0     H27435   1.201  10.732  10.364 -1.4562 -2.7559 -3.5588
  944MOL0     H27436   0.972  10.851  10.332 -1.6983  0.1021 -2.0406
  944MOL0     H27437   1.003  10.779  10.174  1.6527 -1.1329  0.3491
  944MOL0     H27438   0.984  11.171  10.065 -1.7842  1.7881  2.8765
  944MOL0     H27439   1.654  10.739  10.340 -1.3525 -0.5619  0.7659
  944MOL0     H27440   1.896  10.631  10.333  0.9298 -1.9532  2.7016
  945MOL0     O27441   5.151   4.283   6.977 -0.1684  0.4871  0.5821
  945MOL0     C27442   5.213   4.369   6.921 -0.2413  0.4561  0.0685
  945MOL0     O27443   5.156   4.477   6.846 -0.2684 -0.0434  1.3422
  945MOL0     C27444   5.022   4.518   6.835  0.2447  0.2460 -0.6172
  945MOL0     C27445   4.916   4.458   6.911 -0.2386  0.0764 -0.2809
  945MOL0     C27446   4.782   4.504   6.895  0.6700  0.1527 -0.6368
  945MOL0     C27447   4.745   4.589   6.791  0.9164 -0.3222 -0.7445
  945MOL0     O27448   4.611   4.620   6.762 -0.3846  0.4337  1.0069
  945MOL0     C27449   4.573   4.690   6.639 -0.1671  0.1578 -1.0087
  945MOL0     C27450   4.421   4.708   6.618  0.2998  0.2066  0.5722
  945MOL0     C27451   4.347   4.577   6.599  0.3481 -0.0870 -0.3068
  945MOL0     C27452   4.191   4.599   6.574 -0.2542  0.2335 -0.3426
  945MOL0     C27453   4.120   4.474   6.589 -0.1617 -0.3966 -0.2427
  945MOL0     C27454   3.964   4.484   6.574 -1.4200 -0.2788 -0.5031
  945MOL0     C27455   3.929   4.493   6.425  0.4160  0.7082  0.9400
  945MOL0     C27456   3.859   4.352   6.394  0.2811  0.3498 -0.2225
  945MOL0     N27457   3.724   4.330   6.467  0.1322 -0.5194  0.2836
  945MOL0     C27458   3.600   4.361   6.419 -0.4099 -0.1951  0.0309
  945MOL0     C27459   3.507   4.301   6.498  0.3519  0.8250  0.1065
  945MOL0     C27460   3.353   4.286   6.483 -0.7702 -0.3995 -0.1274
  945MOL0     C27461   3.288   4.272   6.617  0.3135 -0.4407 -0.4524
  945MOL0     C27462   3.136   4.220   6.607 -1.1287 -0.4272  0.5643
  945MOL0     C27463   3.055   4.337   6.552  0.4275  0.1358 -0.0946
  945MOL0     O27464   2.918   4.292   6.536 -0.0203  0.3828  0.5443
  945MOL0     C27465   2.828   4.379   6.500 -0.0031 -0.2329 -0.0147
  945MOL0     C27466   2.692   4.334   6.496  0.3607  0.3536  0.0522
  945MOL0     C27467   2.597   4.414   6.433  0.8312  0.5659  0.4874
  945MOL0     C27468   2.457   4.355   6.430 -0.5404  0.0070 -0.0147
  945MOL0     C27469   2.624   4.543   6.383  0.0675  0.4011  0.5469
  945MOL0     C27470   2.529   4.619   6.302  0.6321  0.9247 -0.3044
  945MOL0     O27471   2.476   4.559   6.188  0.9385  0.1310 -0.1878
  945MOL0     C27472   2.402   4.633   6.108  0.1306  0.0956  1.0184
  945MOL0     C27473   2.257   4.605   6.100 -0.1686  0.1221  0.5075
  945MOL0     C27474   2.175   4.675   6.006  0.1405  0.1986 -0.5939
  945MOL0     C27475   2.234   4.788   5.945 -0.0553  0.1767  0.9278
  945MOL0     O27476   2.161   4.862   5.843 -0.5730 -0.5861  0.0081
  945MOL0     C27477   2.037   4.812   5.792  0.7599  0.1308  0.3852
  945MOL0     C27478   1.970   4.916   5.710  0.6833 -0.4479 -0.1562
  945MOL0     C27479   1.859   4.862   5.624 -0.3967 -0.5267  0.3307
  945MOL0     C27480   1.720   4.846   5.696 -0.9702 -0.5071  1.0694
  945MOL0     C27481   1.640   4.722   5.652 -0.8787  0.0550  0.7106
  945MOL0     C27482   1.506   4.706   5.730 -0.4356 -0.9913  0.5945
  945MOL0     C27483   1.439   4.571   5.727  0.4329  0.1908  0.1519
  945MOL0     C27484   1.287   4.563   5.772  0.3890  0.3585  0.0463
  945MOL0    Cl27485   1.248   4.622   5.938  0.0019  0.3789  0.3119
  945MOL0     C27486   2.370   4.820   5.967  0.1275  0.0988 -0.3982
  945MOL0     C27487   2.451   4.742   6.037 -1.5456  0.1881  0.7937
  945MOL0     O27488   2.505   4.736   6.331 -0.5493 -0.7916 -0.4385
  945MOL0     C27489   2.754   4.578   6.395 -0.0341  0.3108 -0.4732
  945MOL0     C27490   2.856   4.499   6.455  0.3621 -0.3736  0.0336
  945MOL0     N27491   3.584   4.233   6.599 -0.4024  0.1020 -0.0347
  945MOL0     N27492   3.716   4.257   6.578  0.0287 -0.2591  0.2383
  945MOL0     C27493   4.845   4.641   6.713 -0.6377  0.4541 -0.5849
  945MOL0     C27494   4.985   4.612   6.736 -0.7952 -0.2116 -0.6718
  945MOL0     C27495   5.363   4.363   6.911 -0.1096 -0.1400 -0.4421
  945MOL0     C27496   5.440   4.459   6.841 -0.6278  0.6814 -0.2261
  945MOL0     C27497   5.576   4.455   6.852  0.8351 -0.2307  0.8770
  945MOL0     C27498   5.650   4.355   6.921  0.5928  0.5380  0.5282
  945MOL0     O27499   5.789   4.339   6.923 -0.5360  0.2197  0.3401
  945MOL0     C27500   5.852   4.307   6.801 -0.2604 -0.2139 -1.0329
  945MOL0     C27501   5.998   4.333   6.825  0.0148 -0.5415  0.2168
  945MOL0     C27502   6.045   4.236   6.934 -0.4331 -0.1850  0.1729
  945MOL0     C27503   6.193   4.210   6.945  0.1666  0.4643  0.4393
  945MOL0     C27504   6.277   4.323   6.976  0.0697 -0.4007  0.1592
  945MOL0     C27505   6.348   4.421   6.987 -0.1658  0.3964  0.5121
  945MOL0     C27506   5.577   4.258   6.991  0.6758 -0.3314  0.5026
  945MOL0     C27507   5.433   4.265   6.990  0.2321  0.3960 -0.5842
  945MOL0     H27508   4.941   4.376   6.978  1.0162 -2.6010 -3.6661
  945MOL0     H27509   4.716   4.460   6.968  4.6449 -1.3982  2.3880
  945MOL0     H27510   4.605   4.794   6.642  0.4898 -0.0545 -0.5142
  945MOL0     H27511   4.622   4.636   6.557  1.3676  1.3091 -0.8933
  945MOL0     H27512   4.379   4.758   6.705 -2.4762  0.9014 -1.0274
  945MOL0     H27513   4.415   4.773   6.530  3.7083  1.3862  1.0628
  945MOL0     H27514   4.395   4.520   6.519  1.9221  0.7223  0.0272
  945MOL0     H27515   4.354   4.513   6.687 -1.1513 -0.9197 -0.7433
  945MOL0     H27516   4.160   4.662   6.658  1.1992 -0.3084  0.6446
  945MOL0     H27517   4.163   4.651   6.482  1.2259  2.8958  0.5652
  945MOL0     H27518   4.165   4.395   6.529 -0.2944  0.0515 -0.9465
  945MOL0     H27519   4.134   4.451   6.695  1.4666  0.2524 -0.2905
  945MOL0     H27520   3.912   4.403   6.625 -1.5782 -1.4036 -2.3680
  945MOL0     H27521   3.941   4.582   6.617 -1.0294  0.7751 -2.5758
  945MOL0     H27522   3.851   4.570   6.416 -2.3129 -1.7069  2.1592
  945MOL0     H27523   4.013   4.505   6.357 -2.4701  1.7790 -2.7988
  945MOL0     H27524   3.920   4.266   6.422  0.2377  0.5330  0.4597
  945MOL0     H27525   3.846   4.346   6.286 -0.4062  2.6481 -0.3329
  945MOL0     H27526   3.583   4.422   6.331 -2.5959  0.7206  0.9975
  945MOL0     H27527   3.315   4.373   6.430 -0.9313 -0.3497  0.0691
  945MOL0     H27528   3.326   4.200   6.420 -1.0030  0.2143 -0.8763
  945MOL0     H27529   3.293   4.367   6.671  2.0443 -1.0473  0.5507
  945MOL0     H27530   3.348   4.202   6.678  0.1226 -2.2936 -2.2714
  945MOL0     H27531   3.099   4.185   6.704  0.0756  1.6392  1.8469
  945MOL0     H27532   3.134   4.140   6.532  0.2464  1.0984 -1.2311
  945MOL0     H27533   3.098   4.369   6.457 -0.6137 -0.7952 -0.9093
  945MOL0     H27534   3.053   4.424   6.619 -1.0981  1.6729 -2.0140
  945MOL0     H27535   2.674   4.232   6.528  1.3387 -0.2538 -1.2279
  945MOL0     H27536   2.395   4.406   6.505 -0.4123 -1.2205  0.9609
  945MOL0     H27537   2.413   4.366   6.331  1.5542 -1.5652 -1.1886
  945MOL0     H27538   2.455   4.249   6.455 -0.5874  0.0759  0.2818
  945MOL0     H27539   2.218   4.522   6.158  0.0737 -0.4998 -0.1976
  945MOL0     H27540   2.070   4.654   5.987  0.5155 -2.2772 -0.2328
  945MOL0     H27541   2.061   4.727   5.727  0.5913  0.2901  0.1147
  945MOL0     H27542   1.966   4.775   5.867 -1.1982 -0.8593 -1.8597
  945MOL0     H27543   1.932   4.991   5.780  0.2742 -0.5299 -0.2859
  945MOL0     H27544   2.047   4.963   5.648  0.9350  0.5149  0.8542
  945MOL0     H27545   1.895   4.774   5.570 -0.2629  0.9048 -2.0334
  945MOL0     H27546   1.834   4.931   5.543  1.6811  0.7105  0.6607
  945MOL0     H27547   1.745   4.837   5.802  1.5383  1.2877  0.7096
  945MOL0     H27548   1.658   4.933   5.672 -2.4191 -1.8569 -0.3933
  945MOL0     H27549   1.704   4.635   5.667 -3.0481 -1.3877  2.1152
  945MOL0     H27550   1.621   4.721   5.544  0.8224  1.2128  0.3504
  945MOL0     H27551   1.524   4.730   5.835  0.3194  3.8860 -0.3791
  945MOL0     H27552   1.435   4.780   5.690  0.0483 -0.9002 -0.1144
  945MOL0     H27553   1.506   4.515   5.792  0.0802 -2.0144 -1.2739
  945MOL0     H27554   1.440   4.529   5.625  0.6769 -2.4280  1.1589
  945MOL0     H27555   1.248   4.461   5.768 -2.7824  1.3918  1.5949
  945MOL0     H27556   1.217   4.621   5.711 -1.6817 -2.8648 -0.9393
  945MOL0     H27557   2.414   4.903   5.914 -0.5562 -0.0636 -1.2402
  945MOL0     H27558   2.559   4.754   6.033 -1.3922 -1.3288 -1.4699
  945MOL0     H27559   2.779   4.668   6.340  1.2998 -0.1135 -0.6047
  945MOL0     H27560   2.955   4.542   6.451 -0.0844  0.8699  1.4527
  945MOL0     H27561   4.832   4.700   6.623 -0.7803 -1.7993 -2.1299
  945MOL0     H27562   5.061   4.664   6.678 -0.8415  2.7943  1.6952
  945MOL0     H27563   5.402   4.539   6.777 -1.8265  0.7681  0.5663
  945MOL0     H27564   5.635   4.533   6.805 -0.6474  0.7093  0.5163
  945MOL0     H27565   5.835   4.200   6.794 -1.1718 -0.3470  1.9420
  945MOL0     H27566   5.818   4.365   6.714  0.2459  2.8323  0.6581
  945MOL0     H27567   6.012   4.433   6.868 -0.7939 -0.3277  0.0022
  945MOL0     H27568   6.055   4.325   6.732  1.5601  2.0976  0.8196
  945MOL0     H27569   5.997   4.138   6.925 -1.3983  0.3111 -0.1404
  945MOL0     H27570   6.010   4.278   7.029 -1.3253 -6.7198  3.2877
  945MOL0     H27571   6.230   4.157   6.856  1.0930 -0.4047  1.3123
  945MOL0     H27572   6.183   4.142   7.030  1.1448 -0.4587 -0.1449
  945MOL0     H27573   6.411   4.505   7.007 -2.7511  2.2846  1.2221
  945MOL0     H27574   5.637   4.184   7.041 -0.8514 -1.7343  0.3329
  945MOL0     H27575   5.368   4.192   7.036 -1.6610  1.7919 -0.9233
  946MOL0     O27576   9.029   4.887   2.052 -0.0262 -0.6547 -0.1719
  946MOL0     C27577   9.001   4.800   1.972 -0.3250  0.1139 -0.3829
  946MOL0     O27578   8.882   4.788   1.904  0.3177  0.4126 -0.1284
  946MOL0     C27579   8.784   4.883   1.926  0.3515  0.4899 -0.3987
  946MOL0     C27580   8.730   4.895   2.058 -0.1879  0.0523  0.5308
  946MOL0     C27581   8.630   4.986   2.090 -1.4119  0.0608 -0.2841
  946MOL0     C27582   8.569   5.046   1.984 -0.0951 -0.2187  0.1834
  946MOL0     O27583   8.473   5.135   2.013  0.1494 -0.1211  0.3814
  946MOL0     C27584   8.341   5.107   1.961 -0.4916 -0.7889 -0.2419
  946MOL0     C27585   8.246   5.078   2.075 -0.3930 -0.2405  0.1637
  946MOL0     C27586   8.096   5.094   2.033 -0.7608 -0.7353  0.4091
  946MOL0     C27587   8.006   5.130   2.151  0.1964 -1.0068  0.0409
  946MOL0     C27588   7.862   5.103   2.103 -0.1125 -0.5674 -0.3065
  946MOL0     C27589   7.772   5.128   2.220 -0.2896  0.0056  0.2365
  946MOL0     C27590   7.624   5.114   2.179 -0.2533  0.3675 -0.3547
  946MOL0     C27591   7.593   4.970   2.131  0.2418 -0.2616  0.5950
  946MOL0     N27592   7.454   4.947   2.127  0.2858 -0.0796  0.2308
  946MOL0     C27593   7.361   5.035   2.079 -0.7506 -0.1975  0.0514
  946MOL0     C27594   7.238   5.006   2.133 -0.2164  0.6162  0.3061
  946MOL0     C27595   7.112   5.091   2.116 -0.2646 -0.1942  0.5633
  946MOL0     C27596   6.985   5.007   2.143  0.6203 -0.7974  0.2979
  946MOL0     C27597   6.861   5.096   2.105  0.7088  0.1316 -0.4837
  946MOL0     C27598   6.734   5.009   2.132 -0.4871 -1.3657  0.4459
  946MOL0     O27599   6.629   5.094   2.108 -0.2868 -0.2819  0.0373
  946MOL0     C27600   6.508   5.065   2.162 -0.4103 -0.2867 -0.7871
  946MOL0     C27601   6.488   5.074   2.299  0.0493 -0.0008 -0.7821
  946MOL0     C27602   6.367   5.025   2.351  0.7422  0.2060 -0.0620
  946MOL0     C27603   6.362   5.019   2.498 -0.0925 -0.1449 -0.3737
  946MOL0     C27604   6.265   4.979   2.264  0.7070  0.3613 -0.5338
  946MOL0     C27605   6.134   4.939   2.313 -0.1355 -0.0015 -0.1160
  946MOL0     O27606   6.111   4.925   2.451 -0.6052  0.4507  0.2093
  946MOL0     C27607   5.978   4.940   2.489 -0.8917  0.1159 -0.4581
  946MOL0     C27608   5.931   4.848   2.577 -1.3214  0.4923  0.8707
  946MOL0     C27609   5.806   4.865   2.636 -0.2043  0.6873 -0.3954
  946MOL0     C27610   5.715   4.970   2.597 -0.0338  0.0078  0.2888
  946MOL0     O27611   5.594   5.002   2.661 -0.0426  0.6359  0.3233
  946MOL0     C27612   5.597   4.971   2.798  0.0451  0.1891  0.1902
  946MOL0     C27613   5.525   5.091   2.866  0.7233 -0.7257  0.0166
  946MOL0     C27614   5.490   5.057   3.010 -0.3018  0.2304 -0.1561
  946MOL0     C27615   5.597   5.105   3.106  0.1132 -0.7987 -0.1911
  946MOL0     C27616   5.539   5.129   3.246 -0.4667 -0.4194  1.0425
  946MOL0     C27617   5.642   5.184   3.339 -1.1800  0.2541 -0.4705
  946MOL0     C27618   5.596   5.195   3.488 -0.9378  0.3858 -0.0149
  946MOL0     C27619   5.659   5.302   3.578 -0.3388  0.0284  0.7449
  946MOL0    Cl27620   5.824   5.249   3.582  0.2625 -0.1979  0.2124
  946MOL0     C27621   5.761   5.059   2.502  0.4933 -0.8336  0.3746
  946MOL0     C27622   5.890   5.046   2.446 -1.0274 -0.1074  0.3671
  946MOL0     O27623   6.052   4.917   2.226  0.9445  0.6477  0.6000
  946MOL0     C27624   6.296   4.957   2.129 -0.5449  0.8874 -0.3986
  946MOL0     C27625   6.418   5.006   2.078  0.2235 -0.8069  0.4189
  946MOL0     N27626   7.258   4.891   2.203 -0.5102  0.7868  0.0570
  946MOL0     N27627   7.384   4.859   2.200 -0.6231  0.6356  0.0175
  946MOL0     C27628   8.617   5.034   1.848  0.6033 -0.2086  1.3275
  946MOL0     C27629   8.730   4.950   1.821  1.2828  0.0937 -0.4568
  946MOL0     C27630   9.102   4.688   1.951  0.0408  0.0614  0.4263
  946MOL0     C27631   9.057   4.570   1.887  0.5560 -0.1377  0.2482
  946MOL0     C27632   9.156   4.470   1.860 -0.0135 -0.2548 -0.5661
  946MOL0     C27633   9.288   4.492   1.902 -0.2697 -0.1327 -0.5214
  946MOL0     O27634   9.370   4.394   1.883  0.0960  0.7773 -0.0438
  946MOL0     C27635   9.505   4.422   1.828  0.5169  0.0034 -0.1193
  946MOL0     C27636   9.560   4.298   1.759  0.1503  0.1546 -0.7809
  946MOL0     C27637   9.703   4.322   1.722 -0.0324 -0.4502  0.0209
  946MOL0     C27638   9.711   4.389   1.582  0.5594  0.1115  0.1527
  946MOL0     C27639   9.850   4.386   1.538  0.7768 -0.1200  0.5677
  946MOL0     C27640   9.972   4.378   1.519 -0.5784 -0.5323  0.8379
  946MOL0     C27641   9.328   4.605   1.965  0.0457  0.3281 -0.0009
  946MOL0     C27642   9.236   4.702   1.991  0.2647  0.0762 -0.4804
  946MOL0     H27643   8.767   4.822   2.130 -1.7052 -1.3497 -0.0304
  946MOL0     H27644   8.596   5.008   2.191  1.2345 -2.0428  1.2085
  946MOL0     H27645   8.314   5.200   1.911 -2.5529 -2.1349 -1.8276
  946MOL0     H27646   8.346   5.027   1.886  0.5265 -0.5277 -0.4640
  946MOL0     H27647   8.269   4.975   2.107 -2.4079 -1.0486 -0.8080
  946MOL0     H27648   8.263   5.137   2.165  0.8846  0.9494 -0.8195
  946MOL0     H27649   8.078   5.177   1.964  2.8263  0.5088  0.7128
  946MOL0     H27650   8.065   4.996   1.997  1.0043 -0.7276 -1.3484
  946MOL0     H27651   8.030   5.076   2.244  0.0678  0.6409  1.0804
  946MOL0     H27652   8.008   5.238   2.166 -0.8884 -0.8100 -1.0724
  946MOL0     H27653   7.839   5.163   2.014 -0.7738 -3.3534 -2.1735
  946MOL0     H27654   7.858   4.998   2.069  0.7253  0.0737 -2.5920
  946MOL0     H27655   7.786   5.054   2.299 -2.2015 -1.8400 -1.0558
  946MOL0     H27656   7.785   5.231   2.256 -1.5058  0.4788 -0.6013
  946MOL0     H27657   7.563   5.151   2.261  1.3967 -2.3379  2.2914
  946MOL0     H27658   7.614   5.174   2.088  1.3996  1.1198 -0.0806
  946MOL0     H27659   7.648   4.888   2.178  0.6626 -0.6581 -0.5541
  946MOL0     H27660   7.625   4.956   2.027  0.2743 -1.7482  0.7917
  946MOL0     H27661   7.392   5.118   2.016  0.6081  0.3962  1.4278
  946MOL0     H27662   7.106   5.179   2.180  0.8865 -0.7155  1.4393
  946MOL0     H27663   7.100   5.133   2.015  1.3853  2.5599  1.4178
  946MOL0     H27664   6.979   4.967   2.245  1.0290  0.0862  0.6738
  946MOL0     H27665   6.980   4.925   2.070  2.8673  0.3173 -1.2066
  946MOL0     H27666   6.870   5.119   1.998 -0.3281  0.7108 -0.4527
  946MOL0     H27667   6.852   5.191   2.157 -1.5786 -0.2679 -0.0735
  946MOL0     H27668   6.740   4.982   2.238  0.2686  3.0698  1.7404
  946MOL0     H27669   6.745   4.914   2.079  1.1235 -1.7040  1.3375
  946MOL0     H27670   6.568   5.101   2.368 -0.2604  4.7041 -1.9418
  946MOL0     H27671   6.333   4.921   2.536 -0.4220 -1.3603 -3.4916
  946MOL0     H27672   6.459   5.051   2.537  0.2886 -0.5652 -0.9528
  946MOL0     H27673   6.285   5.083   2.543 -0.1105 -0.9208  0.7337
  946MOL0     H27674   5.986   4.758   2.599 -1.0093  0.2267 -0.8666
  946MOL0     H27675   5.778   4.790   2.710  1.8035 -1.7484 -1.9155
  946MOL0     H27676   5.529   4.886   2.815  2.0182 -0.9477  3.1701
  946MOL0     H27677   5.692   4.959   2.850 -1.2071  2.2383  3.2154
  946MOL0     H27678   5.583   5.184   2.865  1.3372 -1.0970  0.4221
  946MOL0     H27679   5.441   5.111   2.799  0.5089  0.0396  0.5120
  946MOL0     H27680   5.469   4.950   3.024  2.2107 -0.7544 -2.9200
  946MOL0     H27681   5.397   5.113   3.023 -1.0379 -0.5121 -1.8695
  946MOL0     H27682   5.674   5.029   3.116  2.5380  1.6616  1.4904
  946MOL0     H27683   5.636   5.201   3.069  2.1117 -1.7135 -0.5466
  946MOL0     H27684   5.518   5.032   3.291 -0.8238  0.2457  2.3838
  946MOL0     H27685   5.448   5.191   3.249 -1.1622 -1.3451 -0.2621
  946MOL0     H27686   5.730   5.119   3.336 -0.2332  1.5087 -3.2691
  946MOL0     H27687   5.669   5.282   3.299 -0.2242 -0.2253 -1.0484
  946MOL0     H27688   5.597   5.094   3.530 -1.2598 -0.5084 -2.0529
  946MOL0     H27689   5.490   5.219   3.473 -1.5364 -0.9168  1.6523
  946MOL0     H27690   5.617   5.307   3.679  1.6669  1.9763  1.5766
  946MOL0     H27691   5.661   5.401   3.530 -1.1858  0.2459  1.1563
  946MOL0     H27692   5.713   5.154   2.483 -1.4171 -1.9274 -0.6252
  946MOL0     H27693   5.939   5.124   2.388  1.2016  0.2174  2.5092
  946MOL0     H27694   6.217   4.904   2.077 -2.8709  2.9541  0.7719
  946MOL0     H27695   6.453   4.985   1.978  1.5479 -1.8049  1.0530
  946MOL0     H27696   8.565   5.075   1.762 -0.4587 -4.8283 -0.5212
  946MOL0     H27697   8.780   4.937   1.726 -0.9350 -0.6819 -1.5802
  946MOL0     H27698   8.955   4.565   1.852  0.7309 -1.1656 -0.1343
  946MOL0     H27699   9.134   4.372   1.819 -0.3062 -1.0667  1.3980
  946MOL0     H27700   9.498   4.514   1.768 -2.6314 -0.7796 -1.1259
  946MOL0     H27701   9.574   4.453   1.907 -0.1939  2.6139 -0.4084
  946MOL0     H27702   9.496   4.257   1.681 -1.2095 -1.0589  0.8816
  946MOL0     H27703   9.558   4.230   1.844  0.6765  1.6472  0.4824
  946MOL0     H27704   9.758   4.228   1.729 -1.2700 -1.0511  4.9375
  946MOL0     H27705   9.745   4.390   1.797 -0.8704  3.8900 -3.0264
  946MOL0     H27706   9.680   4.494   1.583  0.0161 -0.0483  0.3683
  946MOL0     H27707   9.650   4.340   1.505 -1.3002 -0.4996  1.9301
  946MOL0     H27708  10.076   4.379   1.496 -0.8110 -1.8431 -0.4560
  946MOL0     H27709   9.429   4.617   2.003 -0.5789  1.8347  1.2829
  946MOL0     H27710   9.270   4.794   2.038  2.2274  0.4100 -2.3905
  947MOL0     O27711   5.425   3.003   3.061  0.0053  0.3921  0.1995
  947MOL0     C27712   5.394   3.095   2.991 -1.0354  0.6404 -0.5834
  947MOL0     O27713   5.294   3.090   2.896 -0.1946 -0.3341  0.1357
  947MOL0     C27714   5.216   2.976   2.882  0.3034  0.0402  0.1441
  947MOL0     C27715   5.075   2.984   2.900 -0.3677 -0.1199  0.1156
  947MOL0     C27716   5.004   2.870   2.871 -0.0140  0.5818  0.4456
  947MOL0     C27717   5.054   2.749   2.824  0.7139  0.4089 -0.9462
  947MOL0     O27718   4.961   2.643   2.802  0.3325  0.0265  0.5846
  947MOL0     C27719   4.935   2.643   2.660  0.4008  0.3013  0.3502
  947MOL0     C27720   4.790   2.675   2.617  0.0998 -0.1998  0.8327
  947MOL0     C27721   4.704   2.544   2.620 -0.2103  0.3076  0.2608
  947MOL0     C27722   4.562   2.563   2.552  1.2265  0.7014  0.1678
  947MOL0     C27723   4.465   2.444   2.586 -0.6817 -0.7421 -0.2768
  947MOL0     C27724   4.337   2.450   2.507  0.4899  0.4409  0.4441
  947MOL0     C27725   4.244   2.566   2.553 -0.5099  0.6276 -0.0272
  947MOL0     C27726   4.101   2.567   2.497 -0.0577  0.7152 -0.6667
  947MOL0     N27727   4.019   2.674   2.566 -0.1896  0.0023  0.0121
  947MOL0     C27728   3.980   2.670   2.695  0.1162  0.1725  0.2877
  947MOL0     C27729   3.902   2.779   2.709  1.4359  0.3918  0.1250
  947MOL0     C27730   3.810   2.806   2.823  0.2414  0.1675 -0.8181
  947MOL0     C27731   3.669   2.801   2.776  0.4054  0.6990 -0.2613
  947MOL0     C27732   3.574   2.838   2.889  0.3030  0.4489  0.3623
  947MOL0     C27733   3.436   2.863   2.837 -0.5495  0.0270 -0.0950
  947MOL0     O27734   3.340   2.836   2.948 -0.0942 -0.4572 -0.0847
  947MOL0     C27735   3.211   2.806   2.914  0.1979  0.0346 -0.4014
  947MOL0     C27736   3.126   2.754   3.013  0.0029  0.1505  0.1108
  947MOL0     C27737   2.991   2.713   2.987 -0.6181  0.3064 -0.5322
  947MOL0     C27738   2.910   2.677   3.114 -0.8502  0.2312  0.1707
  947MOL0     C27739   2.942   2.741   2.859  0.2832  0.3135 -0.0447
  947MOL0     C27740   2.810   2.698   2.816 -0.8119 -0.0898 -0.3414
  947MOL0     O27741   2.753   2.583   2.872 -0.3149  0.3853  0.8262
  947MOL0     C27742   2.642   2.532   2.807  0.0533 -0.2961 -0.7662
  947MOL0     C27743   2.513   2.594   2.821 -0.2944  0.9045 -0.2934
  947MOL0     C27744   2.401   2.533   2.758  0.5296 -0.0055  0.5939
  947MOL0     C27745   2.422   2.421   2.675 -0.6703  0.4696  0.8196
  947MOL0     O27746   2.317   2.374   2.598  0.0071 -0.8851  0.1633
  947MOL0     C27747   2.295   2.229   2.606 -0.6556  0.8192  0.2641
  947MOL0     C27748   2.169   2.204   2.508 -0.2766 -1.0543  1.1445
  947MOL0     C27749   2.035   2.280   2.556  0.1927 -0.2061 -1.0000
  947MOL0     C27750   1.997   2.221   2.696  0.2762 -0.0169 -0.4032
  947MOL0     C27751   1.849   2.267   2.722  0.4794 -0.4097 -0.0046
  947MOL0     C27752   1.830   2.407   2.778  0.2683 -0.8481  0.4069
  947MOL0     C27753   1.682   2.415   2.821  0.1723 -0.8373 -0.0789
  947MOL0     C27754   1.656   2.568   2.862 -0.2165 -0.4228  0.0458
  947MOL0    Cl27755   1.489   2.593   2.912 -0.4637  0.0763  0.3213
  947MOL0     C27756   2.545   2.361   2.664  0.4531  0.4079  0.2622
  947MOL0     C27757   2.650   2.416   2.739 -0.5620 -0.2825 -0.4062
  947MOL0     O27758   2.753   2.781   2.745  0.3422 -0.6946  0.1063
  947MOL0     C27759   3.021   2.809   2.769 -0.5398  0.7283 -0.3544
  947MOL0     C27760   3.158   2.835   2.787  0.3747 -0.7921 -0.7050
  947MOL0     N27761   3.919   2.863   2.596  0.1368 -0.1447 -0.5058
  947MOL0     N27762   3.983   2.794   2.514 -0.2282  0.0997  0.6337
  947MOL0     C27763   5.200   2.739   2.817  1.0534  0.1050  0.8590
  947MOL0     C27764   5.273   2.859   2.835  0.9446  0.8556 -0.0788
  947MOL0     C27765   5.485   3.207   2.981 -0.0032  0.7120  0.0820
  947MOL0     C27766   5.581   3.228   3.083  0.8760  0.2389 -0.0861
  947MOL0     C27767   5.665   3.336   3.076  0.2617 -1.2172  0.3654
  947MOL0     C27768   5.661   3.423   2.962  0.4293 -0.3414  0.2159
  947MOL0     O27769   5.752   3.527   2.972 -0.2279 -0.3595 -0.2822
  947MOL0     C27770   5.764   3.608   2.852 -0.1932 -0.2137  0.5421
  947MOL0     C27771   5.904   3.657   2.856 -0.1613 -0.3830  0.0226
  947MOL0     C27772   5.923   3.760   2.742  0.3906 -0.1896  0.1629
  947MOL0     C27773   6.071   3.770   2.705 -0.7041  0.0883  0.9337
  947MOL0     C27774   6.093   3.841   2.577 -0.2359  0.5295  0.3246
  947MOL0     C27775   6.115   3.912   2.488 -0.7901 -0.6517  0.5926
  947MOL0     C27776   5.572   3.403   2.854 -0.3391  0.3716 -0.0798
  947MOL0     C27777   5.478   3.295   2.869  0.6134  0.8903  0.1824
  947MOL0     H27778   5.016   3.067   2.937 -2.9049 -1.5579 -0.5340
  947MOL0     H27779   4.895   2.865   2.874  0.0324 -0.6805  0.4426
  947MOL0     H27780   5.019   2.697   2.615  1.8604 -0.4775  1.9958
  947MOL0     H27781   4.954   2.540   2.630  1.9047  0.5660  0.3172
  947MOL0     H27782   4.755   2.746   2.693 -0.3931  3.2165 -2.3389
  947MOL0     H27783   4.785   2.722   2.519  0.3568 -1.9246 -0.0604
  947MOL0     H27784   4.755   2.468   2.559 -1.5209  1.6070 -2.6670
  947MOL0     H27785   4.699   2.508   2.723 -0.3999  0.4819  0.3125
  947MOL0     H27786   4.517   2.657   2.585  0.7659  0.5477 -0.0132
  947MOL0     H27787   4.565   2.576   2.443  1.0550 -0.9077 -0.0502
  947MOL0     H27788   4.516   2.350   2.564 -1.2559 -0.7994 -1.4747
  947MOL0     H27789   4.434   2.448   2.691 -1.4989  1.2763 -0.5344
  947MOL0     H27790   4.353   2.442   2.399  1.7084 -1.9906  0.7368
  947MOL0     H27791   4.283   2.358   2.530 -2.1446  1.4491 -1.1731
  947MOL0     H27792   4.242   2.555   2.662 -0.2703 -4.2471 -0.2869
  947MOL0     H27793   4.299   2.652   2.513  2.0443 -0.8108  0.2015
  947MOL0     H27794   4.047   2.473   2.509  1.3984 -0.2609 -1.4967
  947MOL0     H27795   4.098   2.592   2.391 -0.0371  2.0766 -0.3621
  947MOL0     H27796   3.976   2.585   2.762  1.4633  0.0249  0.2101
  947MOL0     H27797   3.827   2.728   2.899 -1.8987  0.0554 -0.3762
  947MOL0     H27798   3.841   2.902   2.865 -0.1745 -0.0118 -0.0707
  947MOL0     H27799   3.655   2.697   2.747  3.1894  0.8562 -2.6906
  947MOL0     H27800   3.657   2.866   2.689 -0.4308 -0.8988 -1.3780
  947MOL0     H27801   3.619   2.921   2.945  1.1571  0.7583 -0.7435
  947MOL0     H27802   3.568   2.758   2.963  2.0859  0.8693  1.0181
  947MOL0     H27803   3.420   2.802   2.748  2.2621  0.1907 -0.8064
  947MOL0     H27804   3.409   2.964   2.805 -2.2820 -1.0804 -2.4472
  947MOL0     H27805   3.163   2.750   3.115 -0.1796  0.1732  0.1783
  947MOL0     H27806   2.845   2.756   3.152  0.6699  1.1776  0.9451
  947MOL0     H27807   2.856   2.584   3.101  2.1477 -1.6240 -0.0543
  947MOL0     H27808   2.979   2.668   3.199  0.7153  4.8096 -0.2996
  947MOL0     H27809   2.527   2.683   2.882  1.8643 -0.0390  0.7123
  947MOL0     H27810   2.299   2.566   2.774 -0.0972 -1.1132 -0.8772
  947MOL0     H27811   2.383   2.176   2.570 -0.9290  0.3244  0.3258
  947MOL0     H27812   2.269   2.208   2.710 -0.7263 -2.3303 -0.3018
  947MOL0     H27813   2.197   2.246   2.410  1.0669 -2.0074  1.0983
  947MOL0     H27814   2.157   2.097   2.492 -0.4247 -0.8873 -0.0136
  947MOL0     H27815   1.957   2.257   2.483 -2.8810  0.2056  1.8524
  947MOL0     H27816   2.037   2.388   2.571  0.4911 -0.4851  1.4081
  947MOL0     H27817   2.000   2.112   2.693  0.5671 -0.0266  0.0968
  947MOL0     H27818   2.067   2.260   2.771  1.3212 -0.4327 -1.1405
  947MOL0     H27819   1.816   2.206   2.806  1.2183 -0.1659  0.4698
  947MOL0     H27820   1.788   2.244   2.634  3.0974  2.4416 -2.8178
  947MOL0     H27821   1.896   2.418   2.865 -0.4397 -0.1644  0.8728
  947MOL0     H27822   1.849   2.485   2.704 -3.8039 -1.4001 -1.4605
  947MOL0     H27823   1.665   2.343   2.901  2.0431 -3.2926 -1.7267
  947MOL0     H27824   1.619   2.390   2.735 -1.0198  1.0478  0.1839
  947MOL0     H27825   1.676   2.630   2.774 -0.0053  1.8767  1.6316
  947MOL0     H27826   1.732   2.592   2.937 -0.7190 -1.7983  1.0326
  947MOL0     H27827   2.565   2.278   2.598  0.0104 -1.3268  2.1801
  947MOL0     H27828   2.749   2.375   2.722  0.0352  0.3199  1.3394
  947MOL0     H27829   2.985   2.826   2.668 -2.2457  1.5355  0.3621
  947MOL0     H27830   3.213   2.869   2.700  0.4648 -2.1520 -1.2090
  947MOL0     H27831   5.245   2.649   2.776  0.9610  0.6064 -0.3679
  947MOL0     H27832   5.378   2.851   2.809  1.3194 -1.5289  1.7720
  947MOL0     H27833   5.571   3.179   3.179 -1.8360 -1.1146 -0.9383
  947MOL0     H27834   5.725   3.352   3.165  0.1833  1.5162  0.0130
  947MOL0     H27835   5.756   3.561   2.754 -0.8209  0.5746  0.2051
  947MOL0     H27836   5.691   3.688   2.865  0.8624  0.9970 -0.6421
  947MOL0     H27837   5.960   3.563   2.856 -0.9564 -0.9153  2.5061
  947MOL0     H27838   5.933   3.702   2.951 -0.3000 -2.5170  1.1266
  947MOL0     H27839   5.873   3.851   2.775  1.1350  0.5244 -0.6298
  947MOL0     H27840   5.872   3.723   2.653 -0.0755  2.0918 -0.5871
  947MOL0     H27841   6.105   3.667   2.691  1.4021  0.7460  0.7684
  947MOL0     H27842   6.131   3.815   2.785  0.8304  0.0667 -0.1701
  947MOL0     H27843   6.120   3.978   2.403  1.2391  0.2094  1.3148
  947MOL0     H27844   5.558   3.469   2.768 -3.1966  1.3183  1.0108
  947MOL0     H27845   5.390   3.275   2.808 -0.1077 -2.7736  2.1126
  948MOL0     O27846   5.335   0.617   7.800  0.0856 -0.8382  0.0903
  948MOL0     C27847   5.379   0.645   7.908 -1.1756 -0.1577 -0.1609
  948MOL0     O27848   5.306   0.651   8.022 -0.4174  0.0396 -0.1010
  948MOL0     C27849   5.184   0.583   8.040  0.0565 -0.2183 -0.0126
  948MOL0     C27850   5.105   0.633   8.146  0.2596 -0.1222 -0.0509
  948MOL0     C27851   4.978   0.569   8.157  0.3463 -0.4709 -0.4361
  948MOL0     C27852   4.933   0.462   8.071  0.7306 -0.3888 -0.2186
  948MOL0     O27853   4.807   0.403   8.085 -0.4977 -0.1837  0.0571
  948MOL0     C27854   4.726   0.441   8.198 -0.0596 -0.2746 -0.1689
  948MOL0     C27855   4.585   0.373   8.194  0.0021 -0.8950  0.3677
  948MOL0     C27856   4.473   0.456   8.259 -0.3382 -0.1585 -0.1147
  948MOL0     C27857   4.424   0.409   8.397  0.4196 -0.3169 -0.3496
  948MOL0     C27858   4.311   0.311   8.375  0.3321 -0.0323 -0.1409
  948MOL0     C27859   4.255   0.256   8.509  0.3877  0.3574  0.6197
  948MOL0     C27860   4.101   0.200   8.505 -0.4805 -0.7431 -0.1514
  948MOL0     C27861   4.084   0.115   8.626  1.1722 -0.4182  0.4952
  948MOL0     N27862   4.097  -0.029   8.598  0.1108  0.2207  0.1982
  948MOL0     C27863   3.995  -0.112   8.554  0.0548 -0.4997  0.0636
  948MOL0     C27864   4.030  -0.243   8.557  0.7473 -1.1841  0.6173
  948MOL0     C27865   3.945  -0.356   8.503 -0.7172 -0.6123 -0.2212
  948MOL0     C27866   3.841  -0.406   8.598  0.1715  0.0321 -0.2265
  948MOL0     C27867   3.897  -0.468   8.731  0.6211 -0.1363  0.2491
  948MOL0     C27868   3.804  -0.451   8.854 -0.0236  0.0679  0.0583
  948MOL0     O27869   3.733  -0.322   8.856 -0.7147 -0.3520  0.2955
  948MOL0     C27870   3.803  -0.198   8.888  0.2388  0.1438 -0.0101
  948MOL0     C27871   3.728  -0.085   8.896 -0.0206 -0.0068 -0.8724
  948MOL0     C27872   3.785   0.046   8.902  0.8921 -0.5077  0.1361
  948MOL0     C27873   3.676   0.156   8.876 -0.2217  0.0459  0.3458
  948MOL0     C27874   3.926   0.054   8.930 -0.3670 -0.5260  0.3107
  948MOL0     C27875   3.990   0.178   8.973  0.8749 -0.3325  0.1280
  948MOL0     O27876   4.114   0.187   8.983  0.2235  0.5928 -0.6546
  948MOL0     C27877   4.167   0.305   9.037 -0.4074  1.2105  0.3779
  948MOL0     C27878   4.211   0.311   9.169 -0.0844  1.0628  0.0746
  948MOL0     C27879   4.280   0.420   9.218 -0.6466 -0.1979  0.1945
  948MOL0     C27880   4.294   0.530   9.134 -0.3101  0.4441 -0.0268
  948MOL0     O27881   4.363   0.642   9.162  0.6320  0.1405  0.3174
  948MOL0     C27882   4.459   0.632   9.259  0.1425  0.0278  0.2154
  948MOL0     C27883   4.556   0.751   9.253  0.6977 -0.2060 -0.2585
  948MOL0     C27884   4.674   0.742   9.345  0.8634 -1.2471 -0.6541
  948MOL0     C27885   4.758   0.871   9.339 -0.2019 -0.0955  0.2283
  948MOL0     C27886   4.877   0.862   9.417 -0.5890 -0.4027 -0.1855
  948MOL0     C27887   4.966   0.969   9.452  1.0298  0.4157  0.0914
  948MOL0     C27888   5.093   0.921   9.516  0.9541  0.3690  0.0247
  948MOL0     C27889   5.169   1.033   9.579  0.9730 -0.1359 -0.0602
  948MOL0    Cl27890   5.225   1.157   9.461  0.1251 -0.2222  0.5530
  948MOL0     C27891   4.238   0.532   9.000  0.1226 -0.1745  0.1862
  948MOL0     C27892   4.194   0.413   8.952 -0.0551  0.4114  0.3454
  948MOL0     O27893   3.910   0.275   8.989 -0.4797  0.0874 -0.4294
  948MOL0     C27894   3.996  -0.069   8.934  0.4150 -0.1401 -0.0447
  948MOL0     C27895   3.939  -0.190   8.908  0.0083  0.0605 -0.3947
  948MOL0     N27896   4.159  -0.232   8.598  0.0017 -0.4847 -0.1683
  948MOL0     N27897   4.200  -0.112   8.619 -0.2035  0.5122 -0.0744
  948MOL0     C27898   5.015   0.416   7.972 -0.4193 -0.5937  0.0244
  948MOL0     C27899   5.144   0.477   7.961 -0.1933 -0.1555 -0.3239
  948MOL0     C27900   5.516   0.697   7.921  0.2000 -0.3133  0.4875
  948MOL0     C27901   5.576   0.694   8.043 -0.3465  0.0207 -0.0947
  948MOL0     C27902   5.705   0.728   8.067 -0.2159 -0.4337 -0.1804
  948MOL0     C27903   5.791   0.766   7.960  0.3504 -1.1833 -0.1411
  948MOL0     O27904   5.918   0.794   7.990 -0.5717  0.0871 -0.1992
  948MOL0     C27905   6.014   0.829   7.880  0.2830  0.6398  0.3046
  948MOL0     C27906   6.155   0.802   7.933 -0.1297  0.0475 -0.1469
  948MOL0     C27907   6.190   0.656   7.956 -0.0326 -0.9690  0.3694
  948MOL0     C27908   6.331   0.628   7.991 -0.2249 -0.2951  0.8348
  948MOL0     C27909   6.351   0.486   7.972  0.2056  0.0905 -0.1964
  948MOL0     C27910   6.374   0.369   7.960  0.1776  0.6069  0.2483
  948MOL0     C27911   5.730   0.782   7.837  0.0722  0.4456 -1.0965
  948MOL0     C27912   5.593   0.746   7.816 -0.6138  0.0261  0.3276
  948MOL0     H27913   5.126   0.708   8.222  2.8449  1.3219 -2.0195
  948MOL0     H27914   4.912   0.595   8.239  0.0740 -1.4024 -0.3499
  948MOL0     H27915   4.776   0.422   8.293  0.5054  0.9812 -0.1943
  948MOL0     H27916   4.709   0.549   8.202 -0.3990 -0.3297 -0.0815
  948MOL0     H27917   4.556   0.353   8.090 -2.9541  3.4944  0.0749
  948MOL0     H27918   4.595   0.273   8.236  1.9570 -0.5065  0.9252
  948MOL0     H27919   4.501   0.561   8.272  1.2904 -0.5233 -0.4179
  948MOL0     H27920   4.392   0.457   8.186  0.3266  2.3041 -0.9363
  948MOL0     H27921   4.514   0.359   8.434  0.8001 -0.3490 -1.2963
  948MOL0     H27922   4.402   0.497   8.458  2.5118  1.7433 -2.3676
  948MOL0     H27923   4.228   0.355   8.319  0.0981 -0.1234  0.1295
  948MOL0     H27924   4.359   0.231   8.317 -0.4848 -0.6621  0.0324
  948MOL0     H27925   4.333   0.191   8.549  1.1114  0.3300 -0.7538
  948MOL0     H27926   4.246   0.344   8.574 -1.1722 -0.8718  2.1601
  948MOL0     H27927   4.042   0.291   8.510  2.5536  1.3410  1.6241
  948MOL0     H27928   4.081   0.144   8.414  0.9015  0.4347 -1.2355
  948MOL0     H27929   3.983   0.134   8.665  1.8449 -2.3827  3.5452
  948MOL0     H27930   4.152   0.147   8.705  0.3800  0.9813  0.6496
  948MOL0     H27931   3.897  -0.073   8.527 -0.4406 -2.2375 -0.7636
  948MOL0     H27932   3.912  -0.319   8.405 -0.6521 -1.3420 -0.5214
  948MOL0     H27933   4.013  -0.439   8.481  0.2816 -0.0263  0.5643
  948MOL0     H27934   3.781  -0.489   8.558 -2.6851  1.1727  1.4174
  948MOL0     H27935   3.772  -0.323   8.615  0.6763  0.8577 -1.9143
  948MOL0     H27936   3.989  -0.418   8.763 -0.9788  1.3464  2.9799
  948MOL0     H27937   3.926  -0.573   8.727  1.1358 -0.0372  1.1040
  948MOL0     H27938   3.853  -0.457   8.952  0.5405  1.0622 -0.1517
  948MOL0     H27939   3.727  -0.529   8.849 -0.1637  0.0987  1.3964
  948MOL0     H27940   3.624  -0.103   8.873 -0.2172 -1.4283  0.8994
  948MOL0     H27941   3.704   0.207   8.782 -1.7622  0.1289 -0.0891
  948MOL0     H27942   3.572   0.125   8.867 -0.8411  1.9082  0.5199
  948MOL0     H27943   3.683   0.244   8.940  0.8749  0.7084 -0.6401
  948MOL0     H27944   4.190   0.228   9.236 -2.5648 -0.6419 -2.5966
  948MOL0     H27945   4.328   0.423   9.315  0.7631  1.5699 -0.5101
  948MOL0     H27946   4.415   0.633   9.359  3.1628  5.1586  1.8655
  948MOL0     H27947   4.515   0.538   9.254  2.1140  1.2225 -2.1363
  948MOL0     H27948   4.588   0.756   9.149  0.6301 -0.8629 -0.3153
  948MOL0     H27949   4.494   0.835   9.286 -0.9484 -1.1722 -0.8166
  948MOL0     H27950   4.740   0.659   9.322  0.7059 -1.5479 -0.0446
  948MOL0     H27951   4.641   0.722   9.448  0.8917  1.2686 -0.0977
  948MOL0     H27952   4.789   0.898   9.238  2.7361 -0.1790  1.0252
  948MOL0     H27953   4.690   0.949   9.375 -0.5407  0.8684 -2.2901
  948MOL0     H27954   4.948   0.803   9.358 -0.5389  0.2347 -0.7779
  948MOL0     H27955   4.855   0.812   9.512 -0.0285  0.9680  0.6855
  948MOL0     H27956   4.984   1.024   9.359  0.2833 -0.2197 -0.4401
  948MOL0     H27957   4.903   1.030   9.518  0.2117  0.9386 -1.1395
  948MOL0     H27958   5.158   0.872   9.443  3.2061  0.2689  1.9822
  948MOL0     H27959   5.082   0.843   9.592  1.0704  2.6501  2.5610
  948MOL0     H27960   5.256   1.001   9.638  1.0525  0.7457  0.3213
  948MOL0     H27961   5.094   1.068   9.650  1.7691 -1.0515  1.2995
  948MOL0     H27962   4.256   0.612   8.930 -4.1401 -0.0899 -1.0759
  948MOL0     H27963   4.157   0.417   8.850  2.5046  3.9491 -0.6709
  948MOL0     H27964   4.103  -0.057   8.951  1.1824 -1.2341 -3.3117
  948MOL0     H27965   4.003  -0.277   8.917  0.1670 -0.0246 -2.0428
  948MOL0     H27966   4.996   0.334   7.904  3.3252 -1.3021 -0.3988
  948MOL0     H27967   5.216   0.430   7.895  2.3668 -1.9207  3.3861
  948MOL0     H27968   5.517   0.651   8.123 -2.2871 -2.3124 -2.5847
  948MOL0     H27969   5.743   0.726   8.169 -1.3937  1.2971  0.3470
  948MOL0     H27970   5.987   0.758   7.801 -0.4021  2.0635 -0.8064
  948MOL0     H27971   6.004   0.935   7.852  2.9225  1.1835  1.1371
  948MOL0     H27972   6.173   0.861   8.023  1.1472 -1.6111  0.7357
  948MOL0     H27973   6.226   0.834   7.855  1.3410  0.0939  1.1618
  948MOL0     H27974   6.164   0.607   7.861 -1.0846 -0.0407  0.1488
  948MOL0     H27975   6.129   0.609   8.034 -0.5734 -1.9584 -0.6143
  948MOL0     H27976   6.359   0.654   8.093  0.6504  3.6014 -0.2121
  948MOL0     H27977   6.406   0.678   7.928 -1.9977  0.7989 -0.5255
  948MOL0     H27978   6.401   0.267   7.943  2.2511  1.0535  0.5491
  948MOL0     H27979   5.782   0.819   7.749 -0.9275  3.0600 -0.6789
  948MOL0     H27980   5.548   0.747   7.717 -1.8639 -0.0006  0.8740
  949MOL0     O27981   4.972   2.102  11.175 -0.0757  0.6198  0.6084
  949MOL0     C27982   5.004   2.112  11.292 -0.9818  0.0167  0.8133
  949MOL0     O27983   4.925   2.145  11.390 -0.1262  0.2483 -0.3339
  949MOL0     C27984   4.799   2.198  11.362 -0.5893  0.2068 -0.6634
  949MOL0     C27985   4.692   2.145  11.432 -0.2656  1.3702  0.5188
  949MOL0     C27986   4.557   2.182  11.405  0.3440 -0.3251  0.7515
  949MOL0     C27987   4.529   2.274  11.309  0.1820  0.0244  0.4732
  949MOL0     O27988   4.403   2.301  11.293  0.1841 -0.5547 -0.4572
  949MOL0     C27989   4.372   2.335  11.160  1.1291 -1.5121 -0.1838
  949MOL0     C27990   4.224   2.347  11.157  0.8448  0.3136  0.1509
  949MOL0     C27991   4.142   2.422  11.278 -0.3106  0.5143 -0.3812
  949MOL0     C27992   4.000   2.440  11.233 -0.0006 -0.0158 -0.0935
  949MOL0     C27993   3.928   2.498  11.340  0.2073 -0.5982  0.2441
  949MOL0     C27994   3.792   2.537  11.280 -0.2268 -0.1431  0.7132
  949MOL0     C27995   3.704   2.567  11.402  0.0947 -0.2582 -0.2548
  949MOL0     C27996   3.559   2.602  11.367 -0.2798 -0.6635  0.0198
  949MOL0     N27997   3.492   2.675  11.480  0.9148 -0.0404  0.1849
  949MOL0     C27998   3.560   2.723  11.591  0.2142 -0.0512 -0.2285
  949MOL0     C27999   3.461   2.794  11.654 -0.7268 -0.5120  0.3181
  949MOL0     C28000   3.480   2.870  11.785  0.5550  0.0802  0.0973
  949MOL0     C28001   3.389   2.814  11.897  1.2584  0.0024 -0.3028
  949MOL0     C28002   3.431   2.870  12.035  0.1363 -0.2819  0.6969
  949MOL0     C28003   3.326   2.853  12.142 -0.6946 -0.4346 -0.0946
  949MOL0     O28004   3.401   2.874  12.268  0.4184  0.2044 -0.4158
  949MOL0     C28005   3.352   2.966  12.365  0.5992  0.2462 -0.2544
  949MOL0     C28006   3.452   3.045  12.422  0.0654 -0.2841 -0.5220
  949MOL0     C28007   3.414   3.140  12.522  0.5409 -0.7269  0.3931
  949MOL0     C28008   3.532   3.237  12.552  0.0045 -0.3494  0.1094
  949MOL0     C28009   3.274   3.144  12.575  0.3036 -0.2347  0.3760
  949MOL0     C28010   3.215   3.225  12.676  0.4099 -0.1969 -0.2830
  949MOL0     O28011   3.094   3.196  12.725 -0.9355  0.3121  0.8172
  949MOL0     C28012   3.052   3.263  12.832 -0.8840 -0.1438 -0.5838
  949MOL0     C28013   3.095   3.230  12.964  0.3772  0.6946  0.4511
  949MOL0     C28014   3.060   3.317  13.069 -0.0276  0.0340 -0.2832
  949MOL0     C28015   2.978   3.429  13.048 -0.1908 -0.0119 -0.9783
  949MOL0     O28016   2.925   3.504  13.156  0.1375 -0.2933  0.2066
  949MOL0     C28017   2.959   3.483  13.292 -1.1339 -0.2762 -0.4476
  949MOL0     C28018   2.899   3.603  13.369 -0.0796  0.4318  0.8492
  949MOL0     C28019   2.740   3.626  13.370  0.4788  0.0286  0.6235
  949MOL0     C28020   2.676   3.573  13.500  0.9469  1.1337 -0.2640
  949MOL0     C28021   2.540   3.644  13.523 -0.2046  0.0739  0.2172
  949MOL0     C28022   2.444   3.613  13.416  0.3927  0.1084  0.6500
  949MOL0     C28023   2.319   3.692  13.450  0.5081 -0.5338 -0.3574
  949MOL0     C28024   2.186   3.635  13.403 -0.8160  0.2187 -0.5384
  949MOL0    Cl28025   2.043   3.738  13.468 -0.6618 -0.3139 -0.0873
  949MOL0     C28026   2.935   3.461  12.919 -0.1365  0.6987  0.2528
  949MOL0     C28027   2.978   3.383  12.813  0.3506 -0.5651  0.2114
  949MOL0     O28028   3.285   3.312  12.727 -0.4644 -0.0811  0.4791
  949MOL0     C28029   3.188   3.064  12.501 -0.2579  0.0836 -0.9918
  949MOL0     C28030   3.224   2.972  12.399  0.4652 -0.1548 -0.9044
  949MOL0     N28031   3.334   2.790  11.592 -0.7958 -0.3976  0.1270
  949MOL0     N28032   3.363   2.704  11.493  1.2966 -0.3855 -0.0730
  949MOL0     C28033   4.640   2.330  11.236  0.3403  0.5255 -0.9047
  949MOL0     C28034   4.768   2.293  11.267 -0.2729 -1.1789  0.0570
  949MOL0     C28035   5.142   2.115  11.324  1.2668  0.0791  0.0738
  949MOL0     C28036   5.240   2.104  11.230 -0.7790 -1.2726  0.1694
  949MOL0     C28037   5.380   2.130  11.265 -0.4265  0.4982  0.0383
  949MOL0     C28038   5.412   2.143  11.400 -1.5899  0.4387  0.2665
  949MOL0     O28039   5.544   2.167  11.441 -0.3657 -0.0894  0.6004
  949MOL0     C28040   5.640   2.092  11.370  0.1513  0.8167  0.3670
  949MOL0     C28041   5.761   2.041  11.435 -0.3374 -0.0584 -0.9019
  949MOL0     C28042   5.840   2.168  11.480 -0.2408  0.6662  0.1033
  949MOL0     C28043   5.968   2.138  11.565 -0.3093  0.3257  0.1481
  949MOL0     C28044   6.013   2.262  11.627 -0.2423  0.9302  0.2441
  949MOL0     C28045   6.045   2.360  11.681 -0.5857 -0.2732 -0.2843
  949MOL0     C28046   5.314   2.141  11.498 -0.2281  0.6231  0.0791
  949MOL0     C28047   5.180   2.130  11.458 -0.2833 -0.4666  0.2121
  949MOL0     H28048   4.714   2.070  11.507 -1.9448  0.8496  0.5319
  949MOL0     H28049   4.476   2.137  11.462  0.4612 -0.8611  0.5047
  949MOL0     H28050   4.406   2.433  11.123 -1.4495 -0.6362 -0.4156
  949MOL0     H28051   4.407   2.267  11.082  0.0476 -2.7533  0.3934
  949MOL0     H28052   4.201   2.407  11.069  1.6133 -2.9021 -2.4254
  949MOL0     H28053   4.175   2.251  11.143 -0.7698  1.0115  0.7688
  949MOL0     H28054   4.153   2.363  11.370  0.5312 -1.3572 -1.6204
  949MOL0     H28055   4.190   2.517  11.302  0.9771  0.2920 -1.9382
  949MOL0     H28056   3.981   2.497  11.142  0.6565 -1.3266 -1.0961
  949MOL0     H28057   3.953   2.342  11.224 -1.3554  0.8283 -3.4009
  949MOL0     H28058   3.922   2.432  11.427  1.5437 -1.6298 -0.4010
  949MOL0     H28059   3.982   2.585  11.379 -2.4833  0.7542  1.1741
  949MOL0     H28060   3.794   2.624  11.215 -1.6439 -2.3053 -2.4986
  949MOL0     H28061   3.753   2.455  11.219 -0.6776  0.0646  0.7142
  949MOL0     H28062   3.706   2.477  11.464  0.0196 -1.1422 -1.4929
  949MOL0     H28063   3.764   2.649  11.443  1.7174 -1.2736 -0.5061
  949MOL0     H28064   3.510   2.506  11.348 -1.7249  0.1713 -0.6432
  949MOL0     H28065   3.562   2.670  11.282 -0.2741  0.1479  0.6561
  949MOL0     H28066   3.651   2.700  11.646 -2.5739 -1.7652  4.2056
  949MOL0     H28067   3.583   2.867  11.823  0.3359  1.8494  0.9253
  949MOL0     H28068   3.468   2.976  11.765  1.4093  0.1840  0.0755
  949MOL0     H28069   3.400   2.706  11.902 -3.8947 -0.9831 -3.5089
  949MOL0     H28070   3.283   2.838  11.883  0.7382 -1.4526  0.9061
  949MOL0     H28071   3.449   2.976  12.016 -2.4177  0.0859 -0.0023
  949MOL0     H28072   3.529   2.837  12.070 -0.1688 -2.1202 -0.0771
  949MOL0     H28073   3.285   2.752  12.139  0.9858 -1.2043  1.1477
  949MOL0     H28074   3.243   2.924  12.127 -2.3902 -2.0916  0.9548
  949MOL0     H28075   3.552   3.049  12.380  0.2510 -2.2569 -0.3746
  949MOL0     H28076   3.602   3.171  12.604  0.4462  0.1014  0.0941
  949MOL0     H28077   3.575   3.278  12.459  0.1461  0.9706  0.7376
  949MOL0     H28078   3.498   3.320  12.613 -1.0889 -0.2564 -0.6078
  949MOL0     H28079   3.162   3.145  12.980 -0.7010  0.0732  1.8375
  949MOL0     H28080   3.098   3.295  13.168  2.3686  3.1198 -0.3426
  949MOL0     H28081   2.905   3.395  13.329 -1.5071 -0.2901 -1.0240
  949MOL0     H28082   3.068   3.479  13.306 -1.1333  0.6394 -0.1597
  949MOL0     H28083   2.930   3.590  13.473  0.6904  0.0916  0.5824
  949MOL0     H28084   2.948   3.696  13.339  1.6096  0.0942  2.3751
  949MOL0     H28085   2.696   3.577  13.282  3.9996 -0.7434 -0.8836
  949MOL0     H28086   2.716   3.731  13.351  0.9793 -0.2043 -1.6625
  949MOL0     H28087   2.664   3.468  13.473  3.0383  0.3893  1.4077
  949MOL0     H28088   2.735   3.569  13.592  1.1025 -1.5076 -0.3886
  949MOL0     H28089   2.564   3.751  13.525  4.9517 -0.7903  0.0384
  949MOL0     H28090   2.498   3.618  13.621 -2.4909  2.2278 -0.0841
  949MOL0     H28091   2.487   3.638  13.318 -2.2878  1.0223 -0.3812
  949MOL0     H28092   2.417   3.507  13.406  0.2749 -0.0082  2.0375
  949MOL0     H28093   2.327   3.792  13.407  0.6955 -0.3752  0.0384
  949MOL0     H28094   2.298   3.697  13.558 -1.5256 -2.9141 -0.5405
  949MOL0     H28095   2.179   3.531  13.434  1.3284  0.3327  0.5253
  949MOL0     H28096   2.187   3.638  13.294 -2.4946  1.1098 -0.5523
  949MOL0     H28097   2.864   3.542  12.904  0.3653  1.5694  2.2828
  949MOL0     H28098   2.955   3.410  12.710 -1.0306  2.4451  1.2048
  949MOL0     H28099   3.080   3.060  12.516 -0.1630 -1.2844 -0.5319
  949MOL0     H28100   3.153   2.897  12.364 -3.7784  2.5409  0.9842
  949MOL0     H28101   4.609   2.404  11.163 -1.9093 -1.2233 -1.8119
  949MOL0     H28102   4.847   2.339  11.209 -0.9633  0.3893  0.2816
  949MOL0     H28103   5.223   2.074  11.127  2.0494 -1.1268 -0.4341
  949MOL0     H28104   5.453   2.146  11.185 -1.7162 -0.8370 -1.4772
  949MOL0     H28105   5.585   2.000  11.348  2.3629 -0.6150  0.5797
  949MOL0     H28106   5.666   2.150  11.281 -2.0954  2.5705  0.7731
  949MOL0     H28107   5.814   1.976  11.364  0.7694  1.6186 -1.6943
  949MOL0     H28108   5.733   1.984  11.524  2.2020  2.4329  1.6644
  949MOL0     H28109   5.771   2.232  11.535 -0.7065  0.9411 -0.7896
  949MOL0     H28110   5.871   2.206  11.382  1.8703 -0.0913  0.4209
  949MOL0     H28111   6.045   2.089  11.504 -1.8865 -4.0948  1.3007
  949MOL0     H28112   5.950   2.065  11.645  1.0794 -0.2360 -0.0209
  949MOL0     H28113   6.076   2.460  11.705 -0.8365  0.5648 -3.1435
  949MOL0     H28114   5.346   2.145  11.602 -0.7418 -1.3900  0.3524
  949MOL0     H28115   5.104   2.131  11.536  0.6658 -1.1060  1.1825
  950MOL0     O28116   4.172   1.277   5.105 -0.2584  0.2063  0.2890
  950MOL0     C28117   4.098   1.262   5.202  0.3998 -0.5401 -0.5908
  950MOL0     O28118   4.141   1.271   5.335 -0.1188 -0.1090  0.9416
  950MOL0     C28119   4.272   1.270   5.365  1.1701 -0.0856 -0.1756
  950MOL0     C28120   4.331   1.384   5.415  0.1049  0.2405 -0.1574
  950MOL0     C28121   4.469   1.383   5.442  0.7203  0.0967  0.3289
  950MOL0     C28122   4.546   1.267   5.422 -0.7669 -0.0041  0.0295
  950MOL0     O28123   4.674   1.284   5.455 -0.0257 -0.5311  0.3266
  950MOL0     C28124   4.765   1.178   5.416  0.0156  0.3983  0.2306
  950MOL0     C28125   4.909   1.217   5.445 -0.8195 -0.4696 -0.0365
  950MOL0     C28126   5.007   1.100   5.404 -0.6812  0.0563  0.5031
  950MOL0     C28127   5.093   1.143   5.282 -0.5663 -0.7637  0.4969
  950MOL0     C28128   5.172   1.034   5.226 -0.0094  0.3067 -0.0797
  950MOL0     C28129   5.298   0.997   5.308 -0.1413 -0.2615 -0.0299
  950MOL0     C28130   5.371   0.888   5.238  0.1370 -0.2536  1.0612
  950MOL0     C28131   5.478   0.839   5.339  0.5817 -0.0270  0.3280
  950MOL0     N28132   5.553   0.727   5.274  0.4044 -0.3159  0.2652
  950MOL0     C28133   5.501   0.600   5.252 -0.5395  1.0706 -0.2701
  950MOL0     C28134   5.598   0.542   5.181  0.6594  0.5787  0.7823
  950MOL0     C28135   5.591   0.406   5.134 -1.2653 -0.2619  0.8258
  950MOL0     C28136   5.588   0.290   5.234  0.8737 -0.7393 -0.3271
  950MOL0     C28137   5.561   0.162   5.162  0.0711 -0.1856 -0.5205
  950MOL0     C28138   5.419   0.130   5.104  0.2148 -0.0116 -0.0879
  950MOL0     O28139   5.325   0.141   5.217  0.1523 -0.5661 -0.2534
  950MOL0     C28140   5.187   0.139   5.185 -0.5590  1.2091  0.1073
  950MOL0     C28141   5.137   0.123   5.052  0.2906  0.1765 -0.6815
  950MOL0     C28142   5.003   0.120   5.022  0.1803 -0.1879  0.3039
  950MOL0     C28143   4.966   0.077   4.883  0.4688 -0.3347  0.1969
  950MOL0     C28144   4.908   0.141   5.125 -0.1750 -0.1580 -0.0589
  950MOL0     C28145   4.765   0.124   5.109  0.4014  0.8153 -0.1585
  950MOL0     O28146   4.718   0.031   5.033 -0.6850  0.3488 -0.1883
  950MOL0     C28147   4.595  -0.009   5.038  0.2680  0.4297  0.2415
  950MOL0     C28148   4.563  -0.123   5.111  0.7098 -0.9948  0.2369
  950MOL0     C28149   4.431  -0.156   5.129 -0.5188 -0.3303  0.5284
  950MOL0     C28150   4.323  -0.094   5.067 -1.0552 -0.0708  0.9863
  950MOL0     O28151   4.188  -0.125   5.086  0.6563 -0.0381 -0.8920
  950MOL0     C28152   4.158  -0.230   5.187 -0.5888  0.0369  0.0815
  950MOL0     C28153   3.998  -0.223   5.186  0.1774  0.0043 -0.6159
  950MOL0     C28154   3.941  -0.102   5.257  0.0186  0.0819  0.3039
  950MOL0     C28155   3.800  -0.134   5.309  0.3213 -0.9933 -0.0415
  950MOL0     C28156   3.712  -0.008   5.273 -0.1297  0.7059  0.0586
  950MOL0     C28157   3.574  -0.026   5.341  0.6400  0.3921 -0.0655
  950MOL0     C28158   3.475   0.065   5.266 -0.4181  0.4605 -0.4529
  950MOL0     C28159   3.332   0.081   5.330 -0.2381 -0.8957 -0.4312
  950MOL0    Cl28160   3.329   0.194   5.468  0.1709  0.4780 -0.0975
  950MOL0     C28161   4.357   0.010   4.981  0.3490 -0.5087 -1.0011
  950MOL0     C28162   4.492   0.062   4.966  0.0521  0.6716 -0.1276
  950MOL0     O28163   4.693   0.209   5.165  0.8034  0.0811 -0.0271
  950MOL0     C28164   4.960   0.158   5.255  0.5858  0.5313  0.0905
  950MOL0     C28165   5.087   0.148   5.284  0.1164  0.7985  0.3165
  950MOL0     N28166   5.711   0.631   5.187  0.2826  1.2405  0.5807
  950MOL0     N28167   5.684   0.742   5.246  0.3940 -0.6340 -0.4661
  950MOL0     C28168   4.484   1.157   5.368  0.2977  0.2761 -0.7230
  950MOL0     C28169   4.350   1.160   5.339  0.1115  0.2327  0.9722
  950MOL0     C28170   3.959   1.237   5.180  0.1183 -0.7264  0.4049
  950MOL0     C28171   3.900   1.140   5.103 -0.0824  0.3051  0.1827
  950MOL0     C28172   3.763   1.124   5.086  0.1340 -0.1977 -0.4189
  950MOL0     C28173   3.681   1.220   5.138 -0.4320  0.2069 -1.0548
  950MOL0     O28174   3.545   1.214   5.127 -0.2733 -0.0905 -0.4052
  950MOL0     C28175   3.490   1.206   4.997 -0.9211  0.4261  0.2224
  950MOL0     C28176   3.335   1.212   5.002  0.3801  0.0872 -0.2813
  950MOL0     C28177   3.280   1.084   5.076  0.4171  0.3666  0.0037
  950MOL0     C28178   3.132   1.081   5.100  0.0032 -0.6524  0.4118
  950MOL0     C28179   3.045   0.976   5.048 -0.3303  0.2064  0.7468
  950MOL0     C28180   2.950   0.907   4.999  0.0322 -0.0847 -0.0397
  950MOL0     C28181   3.738   1.308   5.240  0.9067  0.1339 -0.7179
  950MOL0     C28182   3.871   1.317   5.259 -0.5307  0.7173  0.0690
  950MOL0     H28183   4.260   1.460   5.445  0.2726  0.1727  0.4264
  950MOL0     H28184   4.517   1.474   5.476  1.0345  1.0004 -2.3621
  950MOL0     H28185   4.749   1.083   5.468 -1.3095 -0.2143 -1.2262
  950MOL0     H28186   4.767   1.163   5.308 -0.2889  0.2834  0.2415
  950MOL0     H28187   4.922   1.311   5.391 -2.9091  0.8166  1.5728
  950MOL0     H28188   4.934   1.240   5.549  3.6147  1.2646 -1.2135
  950MOL0     H28189   5.068   1.085   5.494  2.2415  3.4599 -0.6910
  950MOL0     H28190   4.959   1.005   5.376  1.0015 -1.0346  1.1427
  950MOL0     H28191   5.025   1.181   5.205 -2.1071  1.0397  2.6251
  950MOL0     H28192   5.156   1.227   5.312 -2.2292  1.4951 -1.8344
  950MOL0     H28193   5.110   0.945   5.213 -0.3499  0.1149  2.3271
  950MOL0     H28194   5.193   1.070   5.125 -1.3292  0.2407 -0.3945
  950MOL0     H28195   5.359   1.087   5.324  0.5047 -0.7931  0.5221
  950MOL0     H28196   5.266   0.958   5.404  0.4074 -1.7254 -0.4270
  950MOL0     H28197   5.307   0.799   5.227  0.5488 -0.7809  2.7298
  950MOL0     H28198   5.415   0.933   5.148  0.7388 -0.0980  1.4274
  950MOL0     H28199   5.441   0.803   5.435  1.7793 -0.3588  0.6820
  950MOL0     H28200   5.548   0.915   5.376  2.9498 -1.5534 -0.8232
  950MOL0     H28201   5.414   0.543   5.282  0.4061  0.1248  0.7533
  950MOL0     H28202   5.517   0.387   5.055  0.5974  0.4382 -1.2131
  950MOL0     H28203   5.689   0.393   5.087 -1.6082  0.7377 -0.2197
  950MOL0     H28204   5.503   0.301   5.302 -0.1142 -2.0928 -1.2776
  950MOL0     H28205   5.678   0.297   5.295  1.0494  0.3555 -0.6863
  950MOL0     H28206   5.579   0.081   5.234  1.3745  0.9350  0.4781
  950MOL0     H28207   5.636   0.154   5.083 -1.1585  0.9139 -1.8541
  950MOL0     H28208   5.420   0.029   5.062  1.1547  0.1019 -0.3639
  950MOL0     H28209   5.390   0.205   5.030 -0.2368  0.7397  0.8268
  950MOL0     H28210   5.216   0.111   4.978  0.6390 -1.9234 -0.0324
  950MOL0     H28211   5.034   0.117   4.808  2.7362  2.3195  3.3638
  950MOL0     H28212   4.970  -0.032   4.875  2.2870 -0.2714 -0.1476
  950MOL0     H28213   4.863   0.104   4.857 -0.4179 -0.6231  3.0125
  950MOL0     H28214   4.641  -0.177   5.164  1.5448  1.7246  1.9950
  950MOL0     H28215   4.416  -0.241   5.194 -0.4857 -1.2255 -0.6146
  950MOL0     H28216   4.194  -0.328   5.155 -0.7918  0.1887 -0.6293
  950MOL0     H28217   4.198  -0.199   5.284  1.9563 -3.3212  0.2793
  950MOL0     H28218   3.954  -0.213   5.087 -3.0519 -0.4534  0.6603
  950MOL0     H28219   3.966  -0.318   5.228 -2.6946  1.7651  1.6303
  950MOL0     H28220   3.955  -0.015   5.193  0.7767  1.3167  2.0967
  950MOL0     H28221   4.002  -0.071   5.341 -1.2567  1.8314  0.6288
  950MOL0     H28222   3.756  -0.223   5.262  3.8175 -1.0454 -3.7390
  950MOL0     H28223   3.799  -0.153   5.417 -2.5245 -1.1588 -0.0185
  950MOL0     H28224   3.705   0.016   5.167 -0.9649  3.8441  0.7193
  950MOL0     H28225   3.762   0.077   5.319  4.8754 -0.1944 -2.9718
  950MOL0     H28226   3.539  -0.129   5.336  0.5572  0.2836  1.9900
  950MOL0     H28227   3.575   0.005   5.445 -0.0831  2.6193 -0.6588
  950MOL0     H28228   3.459   0.015   5.170  3.5477 -3.9752  0.8198
  950MOL0     H28229   3.523   0.161   5.248  1.3293 -0.3053 -0.1011
  950MOL0     H28230   3.298  -0.012   5.378 -0.5920  1.0929  3.5812
  950MOL0     H28231   3.254   0.110   5.258 -1.4110  2.3555  1.8932
  950MOL0     H28232   4.271   0.059   4.935 -1.3515  0.8797  3.1502
  950MOL0     H28233   4.522   0.135   4.891  1.6371  0.1294 -0.0568
  950MOL0     H28234   4.889   0.180   5.335  0.2360 -0.0096 -0.0650
  950MOL0     H28235   5.119   0.166   5.386 -3.8430 -0.5604  2.0060
  950MOL0     H28236   4.541   1.068   5.348 -2.5218 -1.9199  0.3635
  950MOL0     H28237   4.317   1.079   5.275  3.1460 -0.4811  0.1616
  950MOL0     H28238   3.959   1.065   5.052 -0.1854 -0.0618  0.6063
  950MOL0     H28239   3.726   1.034   5.038 -1.5405 -1.2582  2.5738
  950MOL0     H28240   3.534   1.282   4.932 -0.2037 -2.7741 -3.4176
  950MOL0     H28241   3.518   1.106   4.962  0.4539  0.8648  0.0180
  950MOL0     H28242   3.285   1.222   4.905  1.7750  0.6283 -0.9682
  950MOL0     H28243   3.306   1.301   5.057  1.4832  0.6559 -0.5934
  950MOL0     H28244   3.325   1.077   5.176 -1.5919  2.7539  1.1719
  950MOL0     H28245   3.308   1.002   5.009 -3.5868  0.6983 -2.3968
  950MOL0     H28246   3.102   1.176   5.054 -0.1755 -1.3166 -0.8956
  950MOL0     H28247   3.119   1.076   5.208  0.7475  0.5830  0.5723
  950MOL0     H28248   2.864   0.851   4.966 -1.8122  0.9175  2.7019
  950MOL0     H28249   3.682   1.378   5.301  1.1496  0.3571 -0.7475
  950MOL0     H28250   3.908   1.389   5.331 -1.8419  3.2685 -1.6133
  951MOL0     O28251   1.583   5.169   8.834  0.1611 -0.7662 -0.0151
  951MOL0     C28252   1.694   5.156   8.775 -0.4753 -0.3225  0.8636
  951MOL0     O28253   1.710   5.135   8.639  0.3590 -0.2157 -0.0222
  951MOL0     C28254   1.597   5.146   8.559  0.8187 -0.4245 -0.4836
  951MOL0     C28255   1.528   5.030   8.523  0.4145  1.2848  0.0205
  951MOL0     C28256   1.415   5.026   8.439 -0.0340  0.0120 -0.1353
  951MOL0     C28257   1.372   5.151   8.384 -1.1355 -0.8893  0.3840
  951MOL0     O28258   1.249   5.150   8.321  0.8796  0.1964  0.0802
  951MOL0     C28259   1.224   5.251   8.218  0.5453  0.9490 -0.0933
  951MOL0     C28260   1.107   5.220   8.127 -0.2012 -0.1827  0.1616
  951MOL0     C28261   0.983   5.229   8.207  0.9068  0.0742  0.4856
  951MOL0     C28262   0.854   5.163   8.147 -0.0503  0.7158  1.0429
  951MOL0     C28263   0.753   5.143   8.252 -0.4495  0.7276  1.0611
  951MOL0     C28264   0.610   5.104   8.207 -0.6494  0.1863  0.0758
  951MOL0     C28265   0.611   4.964   8.139  0.3629 -0.6491 -0.5694
  951MOL0     C28266   0.520   4.957   8.016  0.0049 -0.7475  0.2832
  951MOL0     N28267   0.373   4.951   8.030  0.3060 -0.3618  0.0171
  951MOL0     C28268   0.308   4.863   8.119 -0.2878  0.4723 -0.4128
  951MOL0     C28269   0.186   4.909   8.136  0.1727 -0.5353  0.4494
  951MOL0     C28270   0.074   4.852   8.217 -0.0086 -0.6806  0.8045
  951MOL0     C28271   0.013   4.947   8.323 -0.7780 -0.3783  0.1301
  951MOL0     C28272  -0.095   5.049   8.275 -1.0324  0.0004 -0.4111
  951MOL0     C28273  -0.158   5.124   8.393 -0.0218 -0.1383  0.0462
  951MOL0     O28274  -0.260   5.212   8.352 -0.2727  0.2132  0.1154
  951MOL0     C28275  -0.340   5.256   8.457 -0.4565  0.5779  0.1403
  951MOL0     C28276  -0.284   5.351   8.545  0.1295  0.2560  0.2095
  951MOL0     C28277  -0.365   5.423   8.636  0.1413 -0.2320  0.5314
  951MOL0     C28278  -0.305   5.537   8.708 -0.4129 -0.6966 -0.1326
  951MOL0     C28279  -0.506   5.392   8.641 -0.3905  0.1058  0.5531
  951MOL0     C28280  -0.607   5.467   8.700  0.9869  0.2585  0.1819
  951MOL0     O28281  -0.585   5.541   8.813 -0.2056 -0.7987  0.2775
  951MOL0     C28282  -0.698   5.610   8.865 -0.1526  0.1539 -0.4954
  951MOL0     C28283  -0.743   5.730   8.816 -0.1336 -0.3327  1.0304
  951MOL0     C28284  -0.839   5.805   8.884  0.1830 -0.7868  0.4442
  951MOL0     C28285  -0.903   5.759   8.999 -0.5938  0.3675 -0.3969
  951MOL0     O28286  -1.000   5.844   9.052 -0.1892 -0.2566  1.0658
  951MOL0     C28287  -1.086   5.780   9.146  1.0387 -0.8876 -1.0849
  951MOL0     C28288  -1.204   5.872   9.167  0.7110 -0.1778  0.3828
  951MOL0     C28289  -1.318   5.821   9.264 -0.5328  0.1940  0.0191
  951MOL0     C28290  -1.441   5.907   9.260  0.5344 -0.1775  0.5902
  951MOL0     C28291  -1.537   5.879   9.381 -0.5881 -0.4911 -0.0491
  951MOL0     C28292  -1.671   5.942   9.360 -0.3807  0.4403  0.5618
  951MOL0     C28293  -1.758   5.995   9.477  1.0327 -0.0825  1.1599
  951MOL0     C28294  -1.806   5.876   9.568 -0.6676  1.1514  0.0539
  951MOL0    Cl28295  -1.910   5.763   9.485  0.1068  0.3629  0.1687
  951MOL0     C28296  -0.870   5.624   9.041  0.0050  0.3067 -0.2378
  951MOL0     C28297  -0.762   5.554   8.979  0.3553  0.0445 -0.4161
  951MOL0     O28298  -0.715   5.471   8.637 -0.4127 -0.3860 -0.3404
  951MOL0     C28299  -0.554   5.282   8.555 -0.4340  0.1207  0.0963
  951MOL0     C28300  -0.466   5.220   8.464 -0.2290  0.0765 -0.2061
  951MOL0     N28301   0.170   5.019   8.051  0.6517 -0.8449 -0.4014
  951MOL0     N28302   0.278   5.039   7.988 -0.4464  0.2401  0.8225
  951MOL0     C28303   1.441   5.265   8.420  0.1177 -0.8468 -0.5854
  951MOL0     C28304   1.553   5.268   8.499 -0.7197  0.9411 -0.5334
  951MOL0     C28305   1.819   5.154   8.845  0.0551  0.5609  0.9504
  951MOL0     C28306   1.817   5.195   8.974 -0.9341 -0.0405  0.3431
  951MOL0     C28307   1.932   5.184   9.055  0.1055 -0.2059 -0.6056
  951MOL0     C28308   2.048   5.134   8.996 -0.0704  0.3485 -0.0650
  951MOL0     O28309   2.171   5.097   9.061  0.1645  0.1587 -0.0436
  951MOL0     C28310   2.170   5.135   9.200 -0.4868 -0.1772  0.6945
  951MOL0     C28311   2.296   5.085   9.272  1.0108  0.5280 -0.8625
  951MOL0     C28312   2.421   5.125   9.197 -0.0993 -0.5757  0.1521
  951MOL0     C28313   2.551   5.064   9.256  0.2053  0.1621 -0.7764
  951MOL0     C28314   2.680   5.115   9.208 -0.3903  0.2115  0.4907
  951MOL0     C28315   2.782   5.159   9.168 -0.2420  0.2311  0.0503
  951MOL0     C28316   2.058   5.099   8.866  0.1461 -0.4742 -0.0103
  951MOL0     C28317   1.937   5.112   8.792 -0.3464 -0.2941  0.3629
  951MOL0     H28318   1.553   4.937   8.574  1.7100  2.9324  2.5993
  951MOL0     H28319   1.361   4.933   8.422 -0.1199  0.3060 -1.6112
  951MOL0     H28320   1.212   5.346   8.271 -0.5779 -1.0742  3.6329
  951MOL0     H28321   1.315   5.261   8.158  0.8390  0.9548  0.3488
  951MOL0     H28322   1.099   5.290   8.043  1.5084  0.4706  0.5190
  951MOL0     H28323   1.132   5.116   8.102 -0.6224 -0.5028  1.0395
  951MOL0     H28324   1.002   5.181   8.304  0.8767  1.1091  1.0268
  951MOL0     H28325   0.953   5.333   8.227 -1.1279 -0.6999  1.8105
  951MOL0     H28326   0.802   5.224   8.073 -0.0988 -0.8549 -0.2667
  951MOL0     H28327   0.880   5.070   8.095 -2.2635  0.1522  0.8143
  951MOL0     H28328   0.784   5.075   8.331 -1.3745  0.4875  1.2347
  951MOL0     H28329   0.737   5.234   8.311 -3.0987  1.5020 -0.6398
  951MOL0     H28330   0.533   5.111   8.285 -1.4120  3.1709 -0.8346
  951MOL0     H28331   0.578   5.187   8.145  3.1036  2.8654  1.3367
  951MOL0     H28332   0.712   4.936   8.109  0.0264 -0.9770 -1.4344
  951MOL0     H28333   0.586   4.890   8.215  1.8938 -0.4480  0.1583
  951MOL0     H28334   0.546   4.867   7.961  1.3098  0.3785 -1.0038
  951MOL0     H28335   0.543   5.042   7.951  2.5961 -1.4748  0.1465
  951MOL0     H28336   0.349   4.774   8.167  2.9922 -0.3700 -4.1762
  951MOL0     H28337  -0.003   4.798   8.160 -2.1771  0.1577  2.7564
  951MOL0     H28338   0.127   4.776   8.275  1.4290  0.0080  0.4181
  951MOL0     H28339   0.094   5.005   8.369  0.4442 -1.1874 -0.9496
  951MOL0     H28340  -0.044   4.888   8.396 -0.1083 -2.4200 -0.9176
  951MOL0     H28341  -0.172   4.998   8.217 -0.1065 -3.7781  1.3831
  951MOL0     H28342  -0.048   5.129   8.216  1.9739  0.6499  2.5104
  951MOL0     H28343  -0.077   5.175   8.445  0.3138 -0.3108 -0.2952
  951MOL0     H28344  -0.208   5.052   8.459 -0.3041 -2.2696 -2.2902
  951MOL0     H28345  -0.180   5.378   8.532  0.4389  1.1519  3.6755
  951MOL0     H28346  -0.372   5.587   8.779  0.1187 -0.6282  0.3270
  951MOL0     H28347  -0.217   5.505   8.765  0.3956  1.2796 -0.1934
  951MOL0     H28348  -0.266   5.613   8.640 -0.9336 -1.1952 -1.0015
  951MOL0     H28349  -0.689   5.752   8.724  0.7008 -2.0250  1.0626
  951MOL0     H28350  -0.878   5.900   8.849 -0.7673 -1.4060 -0.2034
  951MOL0     H28351  -1.129   5.687   9.108  1.0203 -2.4648  2.4443
  951MOL0     H28352  -1.037   5.755   9.240 -2.3943 -1.9101  0.6061
  951MOL0     H28353  -1.175   5.973   9.196 -0.1938  0.5923 -1.2670
  951MOL0     H28354  -1.245   5.899   9.069 -1.2724 -1.1888  0.8936
  951MOL0     H28355  -1.285   5.813   9.368  0.3028 -2.3734 -0.3770
  951MOL0     H28356  -1.336   5.719   9.231  0.5668 -0.6273  1.8470
  951MOL0     H28357  -1.421   6.015   9.259 -1.4705  0.2537 -1.3196
  951MOL0     H28358  -1.498   5.898   9.167  0.9996 -0.7039  0.3494
  951MOL0     H28359  -1.486   5.931   9.463 -0.0826  0.7157 -1.1008
  951MOL0     H28360  -1.544   5.771   9.399  1.1832 -1.0421 -2.2729
  951MOL0     H28361  -1.660   6.028   9.294  0.4432 -0.7208 -0.8764
  951MOL0     H28362  -1.740   5.881   9.300  0.4016 -0.7798  0.8847
  951MOL0     H28363  -1.843   6.057   9.448  0.4836 -0.5694  1.7000
  951MOL0     H28364  -1.703   6.068   9.538  0.4524  0.9334  0.4922
  951MOL0     H28365  -1.845   5.918   9.661  2.8305 -1.1857  2.7942
  951MOL0     H28366  -1.720   5.815   9.594 -0.5220  2.6162  3.5850
  951MOL0     H28367  -0.910   5.579   9.131  1.9398  0.8161  0.9210
  951MOL0     H28368  -0.711   5.464   9.011 -0.7757  0.0097  1.3808
  951MOL0     H28369  -0.658   5.252   8.545 -0.7657  0.7305  1.4667
  951MOL0     H28370  -0.494   5.155   8.381  1.1464  0.4132 -0.9644
  951MOL0     H28371   1.405   5.361   8.384  0.4063 -0.3762  0.3667
  951MOL0     H28372   1.621   5.351   8.515 -0.5866  0.7403 -0.0276
  951MOL0     H28373   1.726   5.230   9.022  0.3455  2.2838  1.2283
  951MOL0     H28374   1.927   5.202   9.162  0.0207 -1.1966 -0.4325
  951MOL0     H28375   2.172   5.243   9.183 -0.4869 -0.6766 -3.5809
  951MOL0     H28376   2.083   5.109   9.260  1.2361 -0.9545  2.9896
  951MOL0     H28377   2.280   4.977   9.277 -0.6194  0.7773  0.4237
  951MOL0     H28378   2.314   5.110   9.378  5.2049 -3.3213 -0.3865
  951MOL0     H28379   2.437   5.233   9.198  1.9440 -0.8489  0.6206
  951MOL0     H28380   2.403   5.088   9.095  0.1459  0.6100 -0.3419
  951MOL0     H28381   2.551   4.954   9.260  0.3192  0.2004  1.3894
  951MOL0     H28382   2.563   5.089   9.361  2.5004 -3.7835  0.1097
  951MOL0     H28383   2.881   5.175   9.132 -0.5722  0.3131 -0.8442
  951MOL0     H28384   2.152   5.065   8.824  0.9460  3.6790 -2.0924
  951MOL0     H28385   1.950   5.084   8.688 -1.2723 -0.0195  0.1626
  952MOL0     O28386   8.476   9.705   0.602 -0.0818  0.1215 -0.1276
  952MOL0     C28387   8.509   9.821   0.614 -0.2448  0.7006  0.7264
  952MOL0     O28388   8.426   9.921   0.573 -0.0276  0.1006 -0.1004
  952MOL0     C28389   8.285   9.908   0.575 -0.3048 -0.3333  0.8546
  952MOL0     C28390   8.231   9.853   0.690  0.5874  0.0552  0.6621
  952MOL0     C28391   8.093   9.839   0.713  0.6532 -1.0558  0.1175
  952MOL0     C28392   8.011   9.897   0.619  0.3435 -0.3795  0.7182
  952MOL0     O28393   7.877   9.905   0.663  0.3493 -0.2941 -0.2236
  952MOL0     C28394   7.786   9.882   0.559  0.5708 -0.1259 -0.1931
  952MOL0     C28395   7.679   9.783   0.612 -0.1938  0.1791 -0.0586
  952MOL0     C28396   7.543   9.787   0.534  0.8417  0.0250  0.2211
  952MOL0     C28397   7.453   9.914   0.573  0.3065  0.5232 -0.0669
  952MOL0     C28398   7.321   9.910   0.489  0.5150  0.1264 -0.2184
  952MOL0     C28399   7.210  10.004   0.552 -0.7240  1.4852  0.7603
  952MOL0     C28400   7.070  10.006   0.475 -0.0870  0.4170  0.3277
  952MOL0     C28401   7.002   9.863   0.491 -0.2780  0.7737 -0.3840
  952MOL0     N28402   6.881   9.859   0.413 -0.0970 -0.4312  0.4201
  952MOL0     C28403   6.867   9.829   0.277  0.1425  0.6701 -0.0688
  952MOL0     C28404   6.728   9.828   0.253 -0.7036  0.1175 -0.8888
  952MOL0     C28405   6.664   9.801   0.121 -0.7858 -0.0075 -1.2383
  952MOL0     C28406   6.517   9.777   0.129  0.4607  0.5121  0.1410
  952MOL0     C28407   6.454   9.746  -0.016 -0.5801  0.1295  0.3627
  952MOL0     C28408   6.306   9.768  -0.028  1.1626 -0.3885 -0.1226
  952MOL0     O28409   6.222   9.677   0.042 -0.1080 -0.5775 -0.0725
  952MOL0     C28410   6.103   9.725   0.089  0.4627 -0.1718  0.6976
  952MOL0     C28411   6.011   9.771  -0.005  0.1933 -0.5711 -0.7736
  952MOL0     C28412   5.874   9.787   0.027  0.4456 -0.1297 -0.3434
  952MOL0     C28413   5.783   9.808  -0.099 -0.2555 -0.7904 -0.3159
  952MOL0     C28414   5.829   9.778   0.162 -0.5814 -0.6260  0.5621
  952MOL0     C28415   5.694   9.807   0.214  1.5718 -0.3195  0.5640
  952MOL0     O28416   5.612   9.873   0.127 -0.7160 -0.4929  0.3640
  952MOL0     C28417   5.478   9.883   0.147 -1.1193 -0.3857 -0.1088
  952MOL0     C28418   5.432  10.021   0.136 -0.3258 -1.1350  0.7062
  952MOL0     C28419   5.298  10.044   0.148 -0.4953 -0.4024  0.2517
  952MOL0     C28420   5.200   9.952   0.173 -0.6321 -0.9867 -0.1113
  952MOL0     O28421   5.074   9.995   0.171 -0.4778 -0.8194 -0.1980
  952MOL0     C28422   4.976   9.900   0.204  0.2162  0.0810  0.8819
  952MOL0     C28423   4.852   9.971   0.253 -0.0519 -0.1068  0.0330
  952MOL0     C28424   4.762  10.016   0.142  1.1240 -0.3554  0.2414
  952MOL0     C28425   4.615  10.051   0.196  0.2906 -0.7262 -0.0072
  952MOL0     C28426   4.527  10.150   0.097  0.0404 -0.3709 -0.0107
  952MOL0     C28427   4.542  10.106  -0.052  0.6410 -0.6152  0.1398
  952MOL0     C28428   4.441  10.192  -0.136  0.2755 -0.4590  0.6877
  952MOL0     C28429   4.436  10.170  -0.288  0.1620 -0.0609 -0.5328
  952MOL0    Cl28430   4.394   9.997  -0.326  0.1009  0.3753 -0.5047
  952MOL0     C28431   5.247   9.821   0.193  0.1564  0.1471  0.3845
  952MOL0     C28432   5.383   9.786   0.169 -0.5509 -0.5949  0.1349
  952MOL0     O28433   5.657   9.766   0.328  0.1919 -0.4158  0.0386
  952MOL0     C28434   5.932   9.753   0.259 -0.1262  0.9648  0.6369
  952MOL0     C28435   6.061   9.712   0.215 -0.5618 -0.4579 -0.4448
  952MOL0     N28436   6.662   9.863   0.375  0.2953 -0.4313  0.1264
  952MOL0     N28437   6.755   9.886   0.461 -0.1862 -0.0222 -0.8278
  952MOL0     C28438   8.059   9.962   0.507  0.2143 -0.3387 -0.2988
  952MOL0     C28439   8.194   9.967   0.486 -0.0974 -0.8796  0.0134
  952MOL0     C28440   8.649   9.848   0.650  0.7656  0.0590 -0.1247
  952MOL0     C28441   8.714   9.967   0.608  0.7611  0.5474 -0.1651
  952MOL0     C28442   8.844  10.006   0.652 -0.6633  0.1793  0.0787
  952MOL0     C28443   8.913   9.919   0.738  0.8497 -0.4339 -0.7096
  952MOL0     O28444   9.033   9.968   0.770 -1.0729 -0.0048  0.4387
  952MOL0     C28445   9.119   9.893   0.859  0.1194 -0.1055  0.1322
  952MOL0     C28446   9.253   9.956   0.884 -0.1776 -0.1781  0.0914
  952MOL0     C28447   9.375   9.868   0.906 -0.1459 -0.9892  0.2747
  952MOL0     C28448   9.501   9.957   0.893  0.4601 -0.0450 -0.7208
  952MOL0     C28449   9.616   9.872   0.927  0.1220 -0.9640  0.1592
  952MOL0     C28450   9.718   9.813   0.952  0.7603  0.3136  0.3647
  952MOL0     C28451   8.853   9.802   0.777  1.1211  0.0159  0.2378
  952MOL0     C28452   8.725   9.764   0.730 -0.3157  0.2358 -0.4447
  952MOL0     H28453   8.295   9.813   0.769 -0.1347 -1.9338  0.2765
  952MOL0     H28454   8.056   9.790   0.803 -2.9825 -1.6351 -1.5447
  952MOL0     H28455   7.745   9.982   0.539  0.4550  0.1883  1.4605
  952MOL0     H28456   7.825   9.837   0.468 -1.0304 -1.4931 -0.2617
  952MOL0     H28457   7.718   9.681   0.604 -1.3281 -0.2145 -0.9257
  952MOL0     H28458   7.657   9.803   0.717  1.7532  1.0191  0.2147
  952MOL0     H28459   7.563   9.779   0.427 -1.4919  1.1825 -0.3745
  952MOL0     H28460   7.487   9.699   0.566 -2.6198  2.4394  1.3244
  952MOL0     H28461   7.435   9.906   0.681 -1.2964  2.4760 -0.1292
  952MOL0     H28462   7.504  10.007   0.547 -0.7062  1.9866  2.7556
  952MOL0     H28463   7.346   9.945   0.388  1.3062 -1.7288 -0.7141
  952MOL0     H28464   7.286   9.807   0.481 -0.5788  0.5139 -0.5114
  952MOL0     H28465   7.201   9.967   0.655 -0.9472 -0.2256  0.1615
  952MOL0     H28466   7.244  10.108   0.550 -0.6058  1.4895 -3.2316
  952MOL0     H28467   7.007  10.087   0.513  1.4550  1.3365  0.9915
  952MOL0     H28468   7.083  10.023   0.368 -0.3794  0.7054  0.3371
  952MOL0     H28469   6.981   9.848   0.597  0.5001 -1.0856 -0.4475
  952MOL0     H28470   7.070   9.784   0.457 -0.0919  0.1835  1.2733
  952MOL0     H28471   6.941   9.805   0.201  0.7531  1.2903  0.3228
  952MOL0     H28472   6.686   9.892   0.065  3.1486 -0.3912 -0.6423
  952MOL0     H28473   6.720   9.722   0.069  1.4883  0.6168  0.0941
  952MOL0     H28474   6.467   9.872   0.150 -5.3241 -2.0724  0.1569
  952MOL0     H28475   6.487   9.711   0.211 -0.5189  1.5025  0.6050
  952MOL0     H28476   6.467   9.639  -0.038 -0.5299 -0.0327  1.1388
  952MOL0     H28477   6.501   9.816  -0.085 -1.2965  0.7294  0.4700
  952MOL0     H28478   6.282   9.763  -0.134 -1.3215 -3.9768  0.4167
  952MOL0     H28479   6.288   9.871   0.006  0.8786 -0.3810 -0.2953
  952MOL0     H28480   6.050   9.780  -0.106  3.1274  2.1597  0.4490
  952MOL0     H28481   5.800   9.913  -0.126 -0.4099 -1.0933 -1.6790
  952MOL0     H28482   5.821   9.745  -0.179 -1.5468 -0.7095 -1.0195
  952MOL0     H28483   5.678   9.783  -0.079 -1.0068  2.6093  0.7676
  952MOL0     H28484   5.504  10.099   0.117  0.4239 -2.5880 -3.3524
  952MOL0     H28485   5.268  10.148   0.138 -1.3885 -0.5710  1.0872
  952MOL0     H28486   4.949   9.837   0.118 -0.8063 -1.5075  2.3122
  952MOL0     H28487   4.998   9.836   0.290 -1.4474 -1.1313  0.4633
  952MOL0     H28488   4.791   9.902   0.311 -2.5857  1.4157 -0.6730
  952MOL0     H28489   4.882  10.057   0.313 -0.5321  0.6861 -0.8419
  952MOL0     H28490   4.741   9.938   0.069 -0.1127  0.4144 -0.2569
  952MOL0     H28491   4.806  10.095   0.081 -2.3947  0.0774 -1.9585
  952MOL0     H28492   4.575   9.951   0.216  2.7956 -1.4391  2.0676
  952MOL0     H28493   4.636  10.102   0.290  0.0682  2.0038 -1.3457
  952MOL0     H28494   4.558  10.254   0.083 -0.2177 -0.3327 -0.2991
  952MOL0     H28495   4.427  10.153   0.140 -0.0322  0.6327 -0.2445
  952MOL0     H28496   4.645  10.115  -0.089  0.7923  1.1540  0.9077
  952MOL0     H28497   4.514  10.002  -0.068  0.9211 -0.2012 -4.1441
  952MOL0     H28498   4.441  10.301  -0.128 -0.0105 -0.5442  2.2134
  952MOL0     H28499   4.345  10.155  -0.098 -0.3379  2.8558  2.7853
  952MOL0     H28500   4.523  10.198  -0.349 -0.5059  0.3314 -1.3312
  952MOL0     H28501   4.348  10.221  -0.330 -0.9698 -0.6427  1.0500
  952MOL0     H28502   5.178   9.740   0.213 -0.5939  0.5309 -0.5433
  952MOL0     H28503   5.421   9.684   0.178  0.7087 -0.0933  0.7833
  952MOL0     H28504   5.896   9.733   0.360 -1.1791 -1.0015 -0.0832
  952MOL0     H28505   6.133   9.671   0.285  0.1919  2.8300  0.8628
  952MOL0     H28506   7.992  10.023   0.448 -2.1779 -3.5834 -1.2108
  952MOL0     H28507   8.236  10.034   0.412  0.6363 -1.3191  0.0195
  952MOL0     H28508   8.660  10.028   0.536  2.2944 -1.4580 -3.2484
  952MOL0     H28509   8.887  10.099   0.617  1.4540 -0.0740  1.8179
  952MOL0     H28510   9.061   9.877   0.950  0.1786 -1.8494 -0.1103
  952MOL0     H28511   9.141   9.797   0.811 -2.7747 -0.6980 -0.2066
  952MOL0     H28512   9.249  10.033   0.961  1.7184  0.0697 -0.0078
  952MOL0     H28513   9.282  10.012   0.794 -1.9079 -1.2435 -1.2010
  952MOL0     H28514   9.378   9.793   0.827 -1.5475  1.0774 -1.8457
  952MOL0     H28515   9.364   9.828   1.007  0.4266 -0.2176  0.6616
  952MOL0     H28516   9.498  10.035   0.970 -1.0808 -0.6645 -0.1119
  952MOL0     H28517   9.526  10.012   0.802  6.9504  0.8982  1.1340
  952MOL0     H28518   9.812   9.763   0.967  1.6217  1.6525 -0.3406
  952MOL0     H28519   8.899   9.727   0.841 -0.9212 -0.6388  1.0225
  952MOL0     H28520   8.685   9.671   0.769  1.0860  0.3029  1.3272
  953MOL0     O28521   6.240   9.216  10.685  0.3394  0.4912  0.3963
  953MOL0     C28522   6.326   9.172  10.763 -0.5350  0.6581  0.2005
  953MOL0     O28523   6.296   9.081  10.856 -0.1020  0.8651 -0.8831
  953MOL0     C28524   6.170   9.017  10.863  0.2538  0.3022  0.3160
  953MOL0     C28525   6.115   8.960  10.752 -0.5620 -0.5272  0.4326
  953MOL0     C28526   5.986   8.903  10.750 -0.0521 -0.6077 -0.3062
  953MOL0     C28527   5.918   8.893  10.875 -0.0520  0.5280  0.6562
  953MOL0     O28528   5.785   8.848  10.891 -0.2540  0.0957 -0.1242
  953MOL0     C28529   5.745   8.736  10.814 -0.5417  0.7811  0.1174
  953MOL0     C28530   5.667   8.626  10.896  0.1885 -0.3036 -0.3407
  953MOL0     C28531   5.662   8.483  10.830 -0.4237  0.3426  0.2321
  953MOL0     C28532   5.632   8.385  10.948  0.0820 -0.0859  0.1419
  953MOL0     C28533   5.646   8.241  10.903 -0.3294 -0.8577  1.1886
  953MOL0     C28534   5.581   8.139  10.993 -0.1238 -0.7358 -0.2678
  953MOL0     C28535   5.571   7.995  10.937 -1.2901 -0.8212 -0.5484
  953MOL0     C28536   5.581   7.891  11.051  0.0791 -0.8845  0.1459
  953MOL0     N28537   5.448   7.906  11.121 -0.4796  0.3778 -0.6809
  953MOL0     C28538   5.341   7.840  11.079  0.5397 -0.1881 -0.2175
  953MOL0     C28539   5.250   7.859  11.176  1.3553  0.8153 -0.2086
  953MOL0     C28540   5.113   7.793  11.173  0.6163  0.4224  0.3928
  953MOL0     C28541   5.099   7.633  11.187  0.5185 -0.3637  0.0045
  953MOL0     C28542   5.114   7.592  11.336  0.5290 -0.0390 -0.2102
  953MOL0     C28543   5.092   7.439  11.336  1.0237 -0.4952  0.6947
  953MOL0     O28544   4.956   7.408  11.297  0.4159  0.2787 -0.0289
  953MOL0     C28545   4.861   7.419  11.402 -0.1945  0.5593 -0.1834
  953MOL0     C28546   4.757   7.512  11.369 -0.0397 -0.2916 -0.0869
  953MOL0     C28547   4.660   7.548  11.465 -0.0651  0.4285  1.0858
  953MOL0     C28548   4.573   7.663  11.419  0.5932  0.5378  0.5551
  953MOL0     C28549   4.658   7.487  11.587 -0.1253 -0.6436 -0.2805
  953MOL0     C28550   4.555   7.522  11.698 -0.4929 -0.5491 -0.4470
  953MOL0     O28551   4.488   7.419  11.761 -0.3632 -0.1711  0.3402
  953MOL0     C28552   4.386   7.446  11.840  0.2620 -0.2567 -0.5471
  953MOL0     C28553   4.251   7.429  11.797 -0.6258  0.6149  0.4484
  953MOL0     C28554   4.145   7.463  11.884 -0.0662  0.5681 -0.7225
  953MOL0     C28555   4.170   7.527  11.999  0.0447 -0.4390 -0.1713
  953MOL0     O28556   4.064   7.564  12.095 -0.6141 -0.0346  0.7156
  953MOL0     C28557   3.925   7.554  12.062  0.4338 -0.0164 -1.1246
  953MOL0     C28558   3.874   7.650  11.954  0.4912 -0.0474  0.0716
  953MOL0     C28559   3.914   7.799  11.952  0.2176 -0.7807 -0.2649
  953MOL0     C28560   3.851   7.873  11.833  0.3386 -0.0196 -0.2672
  953MOL0     C28561   3.704   7.909  11.870  0.2917 -0.4894  0.0383
  953MOL0     C28562   3.620   7.987  11.759 -1.0714  0.2734 -0.1559
  953MOL0     C28563   3.629   7.898  11.633  0.8237 -0.5734  0.6270
  953MOL0     C28564   3.502   7.923  11.546  0.4375  0.6569 -0.2288
  953MOL0    Cl28565   3.537   7.833  11.398 -0.3180 -0.1340 -0.0520
  953MOL0     C28566   4.306   7.554  12.030  0.6640 -0.4478  0.0931
  953MOL0     C28567   4.412   7.523  11.951  0.1960 -0.9983  0.3912
  953MOL0     O28568   4.530   7.643  11.718 -0.6152  0.2099  0.1219
  953MOL0     C28569   4.752   7.390  11.616 -0.1539 -0.3637  0.5657
  953MOL0     C28570   4.859   7.362  11.524 -0.1467 -0.1519 -0.7098
  953MOL0     N28571   5.302   7.935  11.280  0.0289 -0.5987  0.8316
  953MOL0     N28572   5.423   7.959  11.244 -0.3071  0.1034  0.8507
  953MOL0     C28573   5.974   8.935  10.994  0.2888  1.1776  0.6570
  953MOL0     C28574   6.097   8.997  10.985 -0.2327 -0.4822 -0.4905
  953MOL0     C28575   6.459   9.225  10.754  0.1467 -0.3834 -0.6417
  953MOL0     C28576   6.494   9.312  10.648  0.5769  0.9802 -0.2744
  953MOL0     C28577   6.623   9.363  10.641  0.5505  0.2454  0.6322
  953MOL0     C28578   6.722   9.351  10.748  0.1755 -0.5232 -0.0235
  953MOL0     O28579   6.849   9.408  10.727  0.8352 -0.3957 -0.1725
  953MOL0     C28580   6.944   9.374  10.828 -0.9622 -0.3729  0.1435
  953MOL0     C28581   7.084   9.401  10.773  0.3295  0.4383 -0.1180
  953MOL0     C28582   7.102   9.553  10.757 -0.0070  0.5409 -0.7832
  953MOL0     C28583   7.236   9.591  10.703 -1.0672  0.3245 -0.1053
  953MOL0     C28584   7.351   9.540  10.783  0.3441  0.0271  0.2813
  953MOL0     C28585   7.446   9.506  10.845  0.5564  0.2765 -0.2984
  953MOL0     C28586   6.671   9.284  10.862  0.2659  0.4986  0.0412
  953MOL0     C28587   6.545   9.222  10.865  0.0360  1.1373  0.3421
  953MOL0     H28588   6.168   8.973  10.658 -2.4669  0.8919 -0.5132
  953MOL0     H28589   5.942   8.858  10.662 -1.3238  0.5838 -0.3087
  953MOL0     H28590   5.677   8.771  10.735  0.8689  0.3950 -1.3136
  953MOL0     H28591   5.824   8.688  10.756 -0.8388  1.1335 -0.5915
  953MOL0     H28592   5.716   8.627  10.994  2.3814  0.8265 -1.3776
  953MOL0     H28593   5.564   8.661  10.904  0.8454  1.7761 -0.1766
  953MOL0     H28594   5.586   8.474  10.753 -1.0573 -2.0191  1.0507
  953MOL0     H28595   5.756   8.450  10.783 -1.0267 -0.4051 -0.4742
  953MOL0     H28596   5.705   8.399  11.028 -2.2702  1.8715  2.1565
  953MOL0     H28597   5.530   8.397  10.987 -0.7659 -1.1925 -1.5869
  953MOL0     H28598   5.617   8.240  10.797  1.5056  0.0671  0.6217
  953MOL0     H28599   5.752   8.215  10.901 -0.0023  0.4038 -0.5577
  953MOL0     H28600   5.648   8.134  11.080 -0.7661 -1.6665  0.1870
  953MOL0     H28601   5.487   8.180  11.030 -0.3133  1.6554 -3.0596
  953MOL0     H28602   5.477   7.999  10.881 -1.3945  3.0583 -0.3112
  953MOL0     H28603   5.654   7.972  10.870 -1.3398 -0.5907 -0.6883
  953MOL0     H28604   5.665   7.910  11.118  1.3021 -0.7164 -1.3788
  953MOL0     H28605   5.588   7.791  11.007  2.2661 -1.2734  1.2556
  953MOL0     H28606   5.340   7.771  10.995  2.6664  0.5175 -0.9000
  953MOL0     H28607   5.045   7.836  11.248  1.1051 -0.1066  1.1545
  953MOL0     H28608   5.063   7.818  11.079  0.1673 -1.7233  0.0236
  953MOL0     H28609   5.171   7.588  11.117  1.3934  0.2960  0.4649
  953MOL0     H28610   4.999   7.607  11.150  1.2183 -3.0861 -0.1557
  953MOL0     H28611   5.042   7.632  11.408 -1.3970 -3.5039  0.0467
  953MOL0     H28612   5.219   7.614  11.356  0.6665 -0.0673 -0.9003
  953MOL0     H28613   5.121   7.397  11.432 -2.8424 -0.8279  1.8899
  953MOL0     H28614   5.162   7.386  11.270  0.5754  0.2270 -0.3958
  953MOL0     H28615   4.749   7.550  11.268 -0.7198 -2.4817 -0.9309
  953MOL0     H28616   4.583   7.695  11.315  0.3032  0.3348  0.4626
  953MOL0     H28617   4.469   7.634  11.441  0.9064 -1.4038 -0.2926
  953MOL0     H28618   4.599   7.756  11.470 -1.1501  1.5466 -0.3162
  953MOL0     H28619   4.236   7.373  11.705 -1.1072  2.9860 -0.9972
  953MOL0     H28620   4.046   7.430  11.852  0.0427  1.9095 -2.6109
  953MOL0     H28621   3.902   7.452  12.029 -0.0035 -0.2818 -0.0424
  953MOL0     H28622   3.872   7.578  12.155  2.4469  0.3050  0.0098
  953MOL0     H28623   3.916   7.619  11.858  2.7229  0.7544  0.7175
  953MOL0     H28624   3.766   7.636  11.950  0.6489 -1.2986 -0.1146
  953MOL0     H28625   4.023   7.811  11.944  0.3786  2.8254  3.6299
  953MOL0     H28626   3.874   7.845  12.043  1.7470  1.3527 -0.5822
  953MOL0     H28627   3.902   7.968  11.813  0.1291 -0.0486 -0.9580
  953MOL0     H28628   3.851   7.805  11.747 -0.3664 -1.7614  1.0735
  953MOL0     H28629   3.695   7.970  11.960 -0.3750 -0.8816  0.2463
  953MOL0     H28630   3.654   7.815  11.898  0.6386 -1.0429 -1.1532
  953MOL0     H28631   3.515   8.001  11.786 -0.9907 -0.2878  0.4711
  953MOL0     H28632   3.659   8.087  11.736  0.1316 -0.5377 -1.9290
  953MOL0     H28633   3.651   7.794  11.658  2.4529 -1.1979 -2.8083
  953MOL0     H28634   3.709   7.927  11.564 -1.6167 -0.3763 -2.3104
  953MOL0     H28635   3.492   8.028  11.517 -0.2837  0.5882 -0.2552
  953MOL0     H28636   3.414   7.889  11.601 -0.7691 -0.0765 -2.4983
  953MOL0     H28637   4.323   7.602  12.126 -2.2173  1.3634 -0.1691
  953MOL0     H28638   4.511   7.562  11.970 -0.1359  0.6002 -0.8847
  953MOL0     H28639   4.755   7.347  11.716  2.8415  0.9133  1.1240
  953MOL0     H28640   4.932   7.290  11.562 -1.2259  0.5831  3.2591
  953MOL0     H28641   5.926   8.914  11.089 -0.7986 -0.8376 -0.2575
  953MOL0     H28642   6.146   9.039  11.072  0.8458 -1.7342 -0.4525
  953MOL0     H28643   6.421   9.327  10.569  0.2897 -0.8343 -0.4010
  953MOL0     H28644   6.658   9.415  10.552  4.3104 -2.5989  0.2231
  953MOL0     H28645   6.930   9.427  10.923 -0.3723 -0.5460  0.3364
  953MOL0     H28646   6.933   9.266  10.842  3.7557 -0.9351  1.5657
  953MOL0     H28647   7.086   9.369  10.668  0.6235  1.5991 -0.4729
  953MOL0     H28648   7.164   9.345  10.823 -0.9836 -1.8833 -0.4246
  953MOL0     H28649   7.086   9.592  10.858  2.1243 -1.8386  0.5812
  953MOL0     H28650   7.020   9.593  10.697 -1.5581 -0.9626  0.2402
  953MOL0     H28651   7.238   9.698  10.681  4.2151  0.4915  0.0406
  953MOL0     H28652   7.241   9.555  10.600 -5.6871  3.7315 -1.8835
  953MOL0     H28653   7.538   9.479  10.892  0.4485  2.7039  1.5553
  953MOL0     H28654   6.729   9.274  10.952 -0.9032 -2.5748  0.5524
  953MOL0     H28655   6.519   9.164  10.952  3.2850 -2.3766 -0.7631
  954MOL0     O28656   2.128   5.244   7.450 -0.4609 -0.3622 -0.9745
  954MOL0     C28657   2.174   5.319   7.366 -0.5045 -0.5930  1.2964
  954MOL0     O28658   2.105   5.368   7.256 -0.0795  0.4270 -0.4046
  954MOL0     C28659   1.983   5.332   7.226 -0.1522  0.0664  0.1879
  954MOL0     C28660   1.872   5.356   7.312  0.5878 -0.3020  0.4353
  954MOL0     C28661   1.743   5.328   7.254  0.2357  0.6395  0.3152
  954MOL0     C28662   1.728   5.285   7.123  0.6935 -0.4585 -0.0308
  954MOL0     O28663   1.600   5.254   7.082  0.0440 -0.2917  0.8534
  954MOL0     C28664   1.582   5.278   6.937 -0.1724  0.0457  0.2367
  954MOL0     C28665   1.428   5.274   6.912  1.0430  1.2348  0.4125
  954MOL0     C28666   1.362   5.143   6.959 -0.0806  0.7198  0.0367
  954MOL0     C28667   1.210   5.132   6.948  0.1025  0.0528 -0.0947
  954MOL0     C28668   1.155   4.998   7.003 -0.0967  0.5026  0.1264
  954MOL0     C28669   1.203   4.867   6.937  0.0658  0.1579  0.1858
  954MOL0     C28670   1.318   4.814   7.030  0.1690  0.6840  0.2066
  954MOL0     C28671   1.389   4.703   6.971 -0.7043  0.6624  0.5481
  954MOL0     N28672   1.481   4.645   7.063 -0.5160  0.6582 -0.4046
  954MOL0     C28673   1.557   4.717   7.158  0.1536  1.0364  1.1022
  954MOL0     C28674   1.640   4.621   7.215  0.1140  0.4369  0.2178
  954MOL0     C28675   1.737   4.631   7.323  0.5113  0.6679 -0.7566
  954MOL0     C28676   1.805   4.769   7.334 -0.4564 -0.8547  1.3105
  954MOL0     C28677   1.926   4.764   7.428 -0.1745 -0.5620  0.2161
  954MOL0     C28678   2.029   4.888   7.404 -0.3800  1.0483  0.1597
  954MOL0     O28679   2.169   4.844   7.381  0.8880  0.1112  0.6164
  954MOL0     C28680   2.261   4.843   7.477  1.3246 -0.0203 -0.5568
  954MOL0     C28681   2.381   4.900   7.456  0.1844  0.1165 -0.9582
  954MOL0     C28682   2.485   4.899   7.550 -0.2070 -0.8613 -0.6272
  954MOL0     C28683   2.619   4.954   7.509 -0.6219  0.3778  0.0187
  954MOL0     C28684   2.457   4.856   7.685  0.8499 -0.7481  0.5708
  954MOL0     C28685   2.551   4.846   7.797 -0.8229 -0.8098  0.0810
  954MOL0     O28686   2.521   4.768   7.905 -0.2851  0.3046  0.8452
  954MOL0     C28687   2.604   4.743   8.007 -0.3961 -0.4075 -1.1227
  954MOL0     C28688   2.556   4.637   8.085 -0.0189 -0.5845 -1.0452
  954MOL0     C28689   2.636   4.583   8.184  0.0651  0.6603 -0.3278
  954MOL0     C28690   2.768   4.643   8.223  0.5404 -0.1072  0.0705
  954MOL0     O28691   2.836   4.607   8.336  0.0707 -0.4153 -0.2915
  954MOL0     C28692   2.986   4.630   8.334  0.3977 -0.1173  0.1761
  954MOL0     C28693   3.050   4.531   8.436  0.0486 -0.1373  0.7401
  954MOL0     C28694   3.095   4.605   8.565  0.6383 -0.1960 -0.2633
  954MOL0     C28695   3.174   4.517   8.665 -0.3622  0.3653  0.1917
  954MOL0     C28696   3.212   4.600   8.796  0.7124  0.7605 -0.3559
  954MOL0     C28697   3.317   4.709   8.763 -0.1687 -0.1693 -0.1491
  954MOL0     C28698   3.342   4.788   8.885 -0.0887 -0.6865 -0.9386
  954MOL0     C28699   3.454   4.733   8.978  0.2913 -0.4526  0.4503
  954MOL0    Cl28700   3.614   4.745   8.918  0.5791  0.0657 -0.0483
  954MOL0     C28701   2.806   4.765   8.156 -0.0810 -0.5865 -0.6634
  954MOL0     C28702   2.739   4.807   8.041  0.5578 -0.7432 -0.1931
  954MOL0     O28703   2.640   4.934   7.796  0.5841 -0.1159 -0.1642
  954MOL0     C28704   2.323   4.817   7.712  0.2520  0.7954 -0.1774
  954MOL0     C28705   2.226   4.804   7.605 -1.0342 -0.0688 -0.7226
  954MOL0     N28706   1.614   4.493   7.148 -0.8441 -1.2604 -0.4665
  954MOL0     N28707   1.522   4.510   7.060  1.4123 -0.7226  0.4035
  954MOL0     C28708   1.843   5.254   7.046 -0.1886  0.0616 -0.3289
  954MOL0     C28709   1.966   5.287   7.093  0.1756 -0.3316 -0.5865
  954MOL0     C28710   2.317   5.354   7.381  1.6859 -0.7855 -0.8189
  954MOL0     C28711   2.419   5.280   7.433  1.1697  0.1608  0.0529
  954MOL0     C28712   2.550   5.330   7.448 -0.3723  0.7917  0.6373
  954MOL0     C28713   2.597   5.452   7.393 -0.3182 -0.5474  0.2200
  954MOL0     O28714   2.730   5.481   7.396 -1.2250  0.7303  0.7219
  954MOL0     C28715   2.785   5.577   7.301  0.3156  1.2180  0.5658
  954MOL0     C28716   2.920   5.640   7.352 -0.2198 -0.3040 -0.6278
  954MOL0     C28717   3.031   5.541   7.389 -0.5890 -0.2994  0.8260
  954MOL0     C28718   3.169   5.596   7.386 -0.5401  0.5413  0.2669
  954MOL0     C28719   3.280   5.512   7.440  0.7693 -0.2401 -0.6387
  954MOL0     C28720   3.358   5.435   7.491 -0.0823 -0.5661  0.2137
  954MOL0     C28721   2.495   5.517   7.318 -1.4013 -0.6109 -0.6487
  954MOL0     C28722   2.366   5.473   7.312  0.5831  0.8634 -0.9342
  954MOL0     H28723   1.879   5.391   7.414  2.0361 -0.7922  0.5267
  954MOL0     H28724   1.663   5.331   7.327 -0.2828  0.4085 -0.2344
  954MOL0     H28725   1.627   5.372   6.903 -0.5920 -0.2046 -1.0597
  954MOL0     H28726   1.638   5.205   6.877  0.0724 -2.4729  3.2760
  954MOL0     H28727   1.381   5.354   6.971 -2.7144 -0.4107 -0.1033
  954MOL0     H28728   1.412   5.293   6.806  1.9273 -1.0110 -0.1709
  954MOL0     H28729   1.410   5.065   6.898 -1.7990  1.4142 -2.3462
  954MOL0     H28730   1.384   5.117   7.063 -3.3316  0.5045  0.7734
  954MOL0     H28731   1.178   5.201   7.026 -1.5717 -0.3473 -0.3843
  954MOL0     H28732   1.171   5.162   6.850  3.3435  1.8418 -0.9839
  954MOL0     H28733   1.182   4.995   7.109  1.0422  0.4164 -0.1618
  954MOL0     H28734   1.047   5.013   6.995  0.0276  0.8846 -1.1494
  954MOL0     H28735   1.124   4.792   6.933  0.5066 -0.5108  2.3128
  954MOL0     H28736   1.246   4.879   6.837 -1.1590  1.6344 -0.1983
  954MOL0     H28737   1.387   4.894   7.058  0.7018  0.1916  0.3134
  954MOL0     H28738   1.282   4.779   7.127 -0.8791  0.0928 -0.3853
  954MOL0     H28739   1.453   4.735   6.889 -0.2495 -3.8067 -1.1097
  954MOL0     H28740   1.331   4.628   6.917  0.5398 -0.3489  0.5607
  954MOL0     H28741   1.541   4.821   7.184  1.0390  1.7926 -1.1088
  954MOL0     H28742   1.685   4.615   7.417  3.7183  3.2296  1.7079
  954MOL0     H28743   1.816   4.555   7.320 -0.7900 -0.8538  1.4033
  954MOL0     H28744   1.732   4.846   7.360  0.6588  0.2330  1.3308
  954MOL0     H28745   1.840   4.801   7.235 -1.5900  1.4296  1.5908
  954MOL0     H28746   1.991   4.678   7.410  0.2845 -0.5341  1.6249
  954MOL0     H28747   1.897   4.756   7.533  1.4615  0.1248  0.7633
  954MOL0     H28748   2.021   4.949   7.494  2.9716  2.0718 -0.1164
  954MOL0     H28749   1.989   4.952   7.324  0.8913  1.3262 -0.2838
  954MOL0     H28750   2.393   4.938   7.355 -0.7366  0.1649 -1.0611
  954MOL0     H28751   2.697   4.878   7.508  1.3475  2.2107  2.4227
  954MOL0     H28752   2.610   4.999   7.409  0.7021  1.9776  0.5736
  954MOL0     H28753   2.643   5.033   7.580 -1.0415  1.1423 -0.6574
  954MOL0     H28754   2.462   4.589   8.058 -1.7914  0.1955  3.0305
  954MOL0     H28755   2.599   4.499   8.242  2.6874  0.3797  1.1105
  954MOL0     H28756   3.021   4.624   8.231  1.6995  2.3953  0.3950
  954MOL0     H28757   3.015   4.725   8.380 -0.8760 -0.0314  0.8507
  954MOL0     H28758   2.985   4.445   8.451  0.0830 -1.0446 -3.3222
  954MOL0     H28759   3.138   4.490   8.386  1.3429  3.0204  0.1859
  954MOL0     H28760   3.011   4.653   8.618  0.3253  0.2542 -1.1481
  954MOL0     H28761   3.159   4.692   8.547 -0.2270  1.3586  3.2400
  954MOL0     H28762   3.123   4.423   8.690  1.7277 -1.0188 -0.4236
  954MOL0     H28763   3.269   4.493   8.618 -0.7208 -0.5136 -0.1091
  954MOL0     H28764   3.259   4.533   8.868 -1.5926  0.1343  0.6507
  954MOL0     H28765   3.119   4.638   8.838  1.4543  0.4773  1.6181
  954MOL0     H28766   3.406   4.653   8.732  1.2201  1.9228 -0.1090
  954MOL0     H28767   3.276   4.776   8.688  0.3639 -1.5110 -1.6917
  954MOL0     H28768   3.246   4.802   8.935 -0.0483 -2.9805 -0.1078
  954MOL0     H28769   3.375   4.887   8.851 -0.3682 -0.2819 -0.0640
  954MOL0     H28770   3.441   4.627   9.004  0.3352 -0.7834 -0.8366
  954MOL0     H28771   3.448   4.788   9.073  0.4549 -1.7715  1.2522
  954MOL0     H28772   2.904   4.800   8.188 -1.0923 -1.2312  3.8829
  954MOL0     H28773   2.779   4.895   7.991 -0.0379  1.0824  2.3683
  954MOL0     H28774   2.287   4.802   7.813  2.8097  0.8531  0.8355
  954MOL0     H28775   2.123   4.783   7.634 -1.3003  2.4067  0.4193
  954MOL0     H28776   1.834   5.211   6.947 -0.9998  1.7435 -1.0307
  954MOL0     H28777   2.051   5.260   7.031 -1.0440 -1.7820 -1.7262
  954MOL0     H28778   2.403   5.179   7.468 -1.0557 -0.5400 -2.6146
  954MOL0     H28779   2.619   5.256   7.487  0.4448  0.0252 -2.0260
  954MOL0     H28780   2.796   5.513   7.213 -2.8913  0.0082  0.8907
  954MOL0     H28781   2.719   5.657   7.267 -0.9815  1.1051  2.6425
  954MOL0     H28782   2.911   5.708   7.438  2.6665  0.2983 -0.6897
  954MOL0     H28783   2.952   5.697   7.265  2.0997 -1.2231 -0.4456
  954MOL0     H28784   3.028   5.478   7.299  1.3566  3.1985 -1.9244
  954MOL0     H28785   3.013   5.498   7.488 -0.1617  0.4201  1.2226
  954MOL0     H28786   3.154   5.686   7.446 -1.6560  1.8942 -1.9387
  954MOL0     H28787   3.194   5.615   7.282 -0.1855  1.2712  0.4847
  954MOL0     H28788   3.419   5.348   7.501 -0.3590 -0.9836 -1.3961
  954MOL0     H28789   2.521   5.603   7.257  0.6448  0.5781  1.7114
  954MOL0     H28790   2.290   5.535   7.266 -0.4273  0.7775  0.5887
  955MOL0     O28791   4.866   4.843   8.613  0.0394 -0.1261  0.4320
  955MOL0     C28792   4.841   4.747   8.685  0.3349  0.1983  0.0348
  955MOL0     O28793   4.722   4.724   8.744  0.1628  0.4668  0.0581
  955MOL0     C28794   4.609   4.791   8.725 -0.5734 -1.2959  0.7944
  955MOL0     C28795   4.541   4.843   8.833  0.5175  0.4889  0.4355
  955MOL0     C28796   4.428   4.921   8.826  0.7364  0.5495  1.1935
  955MOL0     C28797   4.385   4.962   8.699  0.3809  0.3796  0.4576
  955MOL0     O28798   4.285   5.059   8.670  0.9527  0.6931 -0.0697
  955MOL0     C28799   4.221   5.125   8.781  0.9791 -1.9457 -0.3504
  955MOL0     C28800   4.152   5.249   8.738 -0.7308 -0.6623  0.2575
  955MOL0     C28801   4.033   5.226   8.645  0.3098  0.5122 -0.2069
  955MOL0     C28802   3.955   5.360   8.650 -0.1227  0.3204 -0.0072
  955MOL0     C28803   3.859   5.372   8.531 -0.6357  0.0063  0.0069
  955MOL0     C28804   3.936   5.383   8.389 -0.3260 -0.0252  0.2128
  955MOL0     C28805   3.856   5.470   8.292 -0.9706  0.4114  0.1672
  955MOL0     C28806   3.755   5.378   8.215 -0.1563  0.1869  0.9587
  955MOL0     N28807   3.683   5.449   8.103  0.2632  0.9110  0.6122
  955MOL0     C28808   3.558   5.496   8.115 -0.3980 -0.5867  0.5723
  955MOL0     C28809   3.545   5.569   8.006  0.5320 -0.5166 -0.3453
  955MOL0     C28810   3.425   5.657   7.969 -0.0993  0.2967  0.6174
  955MOL0     C28811   3.352   5.573   7.867 -0.5883  0.3801  0.8588
  955MOL0     C28812   3.245   5.641   7.782  0.5630  0.1508  0.0691
  955MOL0     C28813   3.128   5.680   7.874 -0.1451 -0.0773  0.9068
  955MOL0     O28814   3.021   5.724   7.786 -0.0192  0.4389 -0.7980
  955MOL0     C28815   2.888   5.707   7.828  0.3420 -0.1964  1.1948
  955MOL0     C28816   2.849   5.713   7.963 -0.1194  0.1987 -0.0241
  955MOL0     C28817   2.715   5.708   7.994  0.2281  0.0013 -0.0370
  955MOL0     C28818   2.685   5.734   8.142  0.1552  0.2468  1.6012
  955MOL0     C28819   2.615   5.698   7.894 -0.1116  0.4222  0.4146
  955MOL0     C28820   2.469   5.674   7.919 -0.1944 -0.7434 -1.4810
  955MOL0     O28821   2.434   5.623   8.031  0.3387  0.0314 -0.4568
  955MOL0     C28822   2.301   5.626   8.066 -0.1187 -0.1807  0.0259
  955MOL0     C28823   2.213   5.538   8.008  0.9136  0.5778  0.1160
  955MOL0     C28824   2.076   5.557   8.033 -0.7924  0.0268  0.6525
  955MOL0     C28825   2.035   5.659   8.124  0.1273 -0.0358  0.1147
  955MOL0     O28826   1.904   5.684   8.157  0.5157 -0.0833 -0.0775
  955MOL0     C28827   1.793   5.601   8.124 -0.4046  0.3026 -0.1701
  955MOL0     C28828   1.665   5.676   8.167  0.2896 -0.4736 -0.4091
  955MOL0     C28829   1.620   5.655   8.310 -1.6054 -1.4217  0.2574
  955MOL0     C28830   1.495   5.744   8.333 -0.1004 -0.0209 -0.1448
  955MOL0     C28831   1.461   5.749   8.484  0.4168  0.2199  0.1508
  955MOL0     C28832   1.342   5.848   8.508 -0.1915 -0.0393  0.3479
  955MOL0     C28833   1.206   5.776   8.462  0.0209  0.6704 -0.5081
  955MOL0     C28834   1.082   5.852   8.504 -1.2335 -0.2623 -0.4284
  955MOL0    Cl28835   1.088   6.011   8.442 -0.1279  0.0248 -0.0818
  955MOL0     C28836   2.129   5.752   8.169  0.6553  0.1185  0.0608
  955MOL0     C28837   2.267   5.736   8.140 -0.2055  0.6944  1.3918
  955MOL0     O28838   2.400   5.697   7.828  1.0451 -0.4205  0.3051
  955MOL0     C28839   2.654   5.695   7.761 -0.0279  0.7524 -0.5310
  955MOL0     C28840   2.789   5.702   7.725 -0.9326 -0.3683  0.2619
  955MOL0     N28841   3.637   5.548   7.914 -0.2785 -0.0126  0.1092
  955MOL0     N28842   3.727   5.481   7.984 -0.9053  0.1577  0.7062
  955MOL0     C28843   4.459   4.912   8.582  0.3735  0.0318 -0.7609
  955MOL0     C28844   4.563   4.824   8.593 -0.0244 -0.3211 -0.0530
  955MOL0     C28845   4.949   4.652   8.711 -0.5782 -0.3587 -0.7662
  955MOL0     C28846   5.064   4.656   8.632 -0.4774 -1.3058 -0.1213
  955MOL0     C28847   5.168   4.565   8.661  0.8631 -0.0740 -0.5539
  955MOL0     C28848   5.162   4.467   8.760  0.0248  0.2707 -0.5744
  955MOL0     O28849   5.273   4.390   8.765  0.2331 -0.4772  0.4012
  955MOL0     C28850   5.300   4.307   8.875  0.7577 -0.5192 -0.3168
  955MOL0     C28851   5.452   4.299   8.890  0.8207  0.3595  0.2422
  955MOL0     C28852   5.531   4.239   8.774 -0.1261  0.2345 -0.3788
  955MOL0     C28853   5.663   4.191   8.799 -0.7435  0.0959  0.4931
  955MOL0     C28854   5.751   4.261   8.883  0.4717 -0.1938  0.3123
  955MOL0     C28855   5.831   4.305   8.965  0.5204 -0.6488  0.4974
  955MOL0     C28856   5.050   4.473   8.842 -0.8116  0.2383 -0.0352
  955MOL0     C28857   4.939   4.557   8.822 -0.2225 -0.4079  0.8018
  955MOL0     H28858   4.586   4.811   8.927  0.2399 -2.8862 -0.4380
  955MOL0     H28859   4.375   4.973   8.905  1.1256  1.9671  0.5624
  955MOL0     H28860   4.157   5.045   8.818 -1.2859 -0.4205 -0.7922
  955MOL0     H28861   4.287   5.160   8.862  0.3408 -0.4728 -0.4402
  955MOL0     H28862   4.116   5.294   8.831  2.9676  0.9932  1.0456
  955MOL0     H28863   4.220   5.318   8.689 -1.8049  0.6623  0.5650
  955MOL0     H28864   4.056   5.204   8.540 -1.8637 -0.0657 -0.6030
  955MOL0     H28865   3.978   5.138   8.678 -0.0954  1.2313  1.1137
  955MOL0     H28866   3.905   5.361   8.747  0.3934 -1.3649  0.3157
  955MOL0     H28867   4.016   5.450   8.648 -0.1806  0.3459 -1.1799
  955MOL0     H28868   3.790   5.287   8.521 -0.1458 -0.2684 -1.2911
  955MOL0     H28869   3.814   5.471   8.541  1.0767  0.7813  0.3969
  955MOL0     H28870   4.034   5.426   8.408 -0.4266 -0.4719  1.9111
  955MOL0     H28871   3.959   5.282   8.356  0.1450  0.0501  0.3055
  955MOL0     H28872   3.807   5.558   8.334 -1.6274  0.8928 -1.5139
  955MOL0     H28873   3.934   5.505   8.224  0.5961  2.1353  2.7034
  955MOL0     H28874   3.679   5.329   8.276 -2.3886 -1.4048 -2.8014
  955MOL0     H28875   3.816   5.300   8.169 -1.5376  0.6029 -1.8027
  955MOL0     H28876   3.486   5.493   8.196  0.2509  0.8020  1.2370
  955MOL0     H28877   3.375   5.678   8.064  3.6610 -0.5807  3.0178
  955MOL0     H28878   3.439   5.761   7.938  1.4171 -0.0721 -0.0221
  955MOL0     H28879   3.307   5.484   7.912 -2.0443 -0.2745 -1.6716
  955MOL0     H28880   3.423   5.542   7.789 -1.3957 -0.9678  0.6352
  955MOL0     H28881   3.208   5.569   7.708 -2.2933 -0.7682  2.2011
  955MOL0     H28882   3.292   5.729   7.738  0.3067  1.2785  1.9652
  955MOL0     H28883   3.161   5.764   7.937  3.2649 -0.7654  0.2686
  955MOL0     H28884   3.100   5.597   7.939 -1.1284  0.7791  1.6297
  955MOL0     H28885   2.920   5.730   8.043 -3.3927 -0.0058  3.1998
  955MOL0     H28886   2.645   5.648   8.197  0.6804  0.2347  1.9719
  955MOL0     H28887   2.774   5.779   8.188  2.1439  0.5516 -2.1734
  955MOL0     H28888   2.604   5.808   8.140  0.4143  0.5145  0.5021
  955MOL0     H28889   2.236   5.455   7.942  4.9270  0.2566  1.6129
  955MOL0     H28890   2.002   5.493   7.986  1.6128 -1.9296 -0.6567
  955MOL0     H28891   1.793   5.584   8.016  1.1561 -0.8475 -0.0108
  955MOL0     H28892   1.811   5.507   8.175  2.0520  1.0792  0.5054
  955MOL0     H28893   1.690   5.782   8.155  2.2162 -1.0200 -1.7456
  955MOL0     H28894   1.580   5.656   8.101 -1.7616  1.1411  1.5988
  955MOL0     H28895   1.699   5.678   8.381 -2.5933 -2.2137  1.6675
  955MOL0     H28896   1.590   5.552   8.335  2.6170 -3.5237 -2.2472
  955MOL0     H28897   1.509   5.844   8.290  1.9306 -1.1558 -2.3993
  955MOL0     H28898   1.411   5.694   8.284  0.2377  1.0744 -1.9292
  955MOL0     H28899   1.553   5.779   8.535  0.8438  0.3873 -0.7037
  955MOL0     H28900   1.443   5.647   8.519  0.8923  0.0760 -0.0137
  955MOL0     H28901   1.354   5.876   8.613 -0.3137  1.3598 -0.0019
  955MOL0     H28902   1.365   5.938   8.451 -0.8985  1.1258  1.8218
  955MOL0     H28903   1.192   5.678   8.508  0.3442  1.4953  1.4588
  955MOL0     H28904   1.213   5.761   8.354  1.6386 -0.4952 -0.2826
  955MOL0     H28905   1.078   5.851   8.614  0.9608 -0.7807 -0.3139
  955MOL0     H28906   0.989   5.812   8.462 -1.8262 -0.1918  0.7538
  955MOL0     H28907   2.107   5.840   8.230  1.1052  0.4545 -0.2582
  955MOL0     H28908   2.343   5.809   8.168  1.4044 -0.2900 -0.1712
  955MOL0     H28909   2.577   5.682   7.686 -1.9550 -0.1942  1.4831
  955MOL0     H28910   2.819   5.700   7.621  2.7362 -0.9723  1.2040
  955MOL0     H28911   4.408   4.939   8.490 -3.2083 -0.9315  0.7365
  955MOL0     H28912   4.613   4.782   8.507  0.4306  0.5869 -0.2411
  955MOL0     H28913   5.083   4.717   8.544  0.2944 -0.7026  0.4506
  955MOL0     H28914   5.253   4.571   8.593  1.4137 -0.3695  0.0965
  955MOL0     H28915   5.266   4.352   8.969  0.5460  0.1409 -0.7062
  955MOL0     H28916   5.242   4.215   8.860 -0.8439  0.4918 -0.5604
  955MOL0     H28917   5.471   4.228   8.971  1.8282 -0.5746 -0.7835
  955MOL0     H28918   5.488   4.400   8.912 -0.5633  1.3515 -1.7948
  955MOL0     H28919   5.533   4.314   8.694 -2.9182  0.4408 -0.3641
  955MOL0     H28920   5.468   4.155   8.743 -0.1361  0.5660 -1.3022
  955MOL0     H28921   5.719   4.185   8.705 -0.9860  1.1099  0.2719
  955MOL0     H28922   5.658   4.088   8.836  2.0219 -1.2476 -2.4254
  955MOL0     H28923   5.908   4.331   9.035 -0.0584 -0.2463  0.9937
  955MOL0     H28924   5.060   4.401   8.922  4.9133  1.9886  1.2961
  955MOL0     H28925   4.848   4.567   8.880 -0.9289  3.3603 -0.6831
  956MOL0     O28926   6.408   9.767   7.114 -0.2931 -0.6393  0.3009
  956MOL0     C28927   6.450   9.654   7.128  0.4566 -0.4765 -0.6068
  956MOL0     O28928   6.388   9.558   7.197 -0.3640  0.9689 -0.1304
  956MOL0     C28929   6.274   9.587   7.270 -0.2135 -0.1729 -1.0025
  956MOL0     C28930   6.245   9.701   7.351  0.6141  0.2627  0.0291
  956MOL0     C28931   6.129   9.709   7.420 -1.5905  0.1678 -1.0160
  956MOL0     C28932   6.029   9.610   7.415  0.4460  0.6904  0.5385
  956MOL0     O28933   5.908   9.609   7.480 -0.0027  0.2082  0.0611
  956MOL0     C28934   5.886   9.727   7.571  0.4022  0.0841 -0.0195
  956MOL0     C28935   5.773   9.711   7.672  0.6125  0.2626 -0.2294
  956MOL0     C28936   5.799   9.600   7.774 -0.3641 -0.3467 -0.2376
  956MOL0     C28937   5.671   9.517   7.813  0.2599 -0.2402 -0.3497
  956MOL0     C28938   5.586   9.565   7.933  0.0416  0.7032 -0.6035
  956MOL0     C28939   5.465   9.471   7.963 -0.6628  0.0181  1.3370
  956MOL0     C28940   5.400   9.508   8.087  1.2837 -0.2185 -0.5925
  956MOL0     C28941   5.332   9.654   8.080 -1.0265 -0.1032 -0.7936
  956MOL0     N28942   5.204   9.662   8.147 -0.5218 -0.4473 -0.1312
  956MOL0     C28943   5.094   9.580   8.132 -0.2438  0.2510 -0.2166
  956MOL0     C28944   5.021   9.585   8.248 -0.8736 -0.5327  0.3146
  956MOL0     C28945   4.877   9.540   8.265  0.0201  0.0654  0.3870
  956MOL0     C28946   4.772   9.627   8.188 -0.3460  0.7301  0.4871
  956MOL0     C28947   4.751   9.753   8.273  0.4456 -0.6400  0.4239
  956MOL0     C28948   4.690   9.871   8.210  0.0482  0.5237  0.2325
  956MOL0     O28949   4.617   9.939   8.313  0.1972 -0.7958  0.6057
  956MOL0     C28950   4.491   9.909   8.360 -0.2135  0.9186  0.4852
  956MOL0     C28951   4.422   9.998   8.449  0.1057  0.6055  0.2237
  956MOL0     C28952   4.292   9.973   8.506 -1.1248  0.5931  0.3353
  956MOL0     C28953   4.221  10.085   8.570  0.8014 -0.1209  0.3794
  956MOL0     C28954   4.227   9.864   8.455  0.7707  0.6397 -0.0468
  956MOL0     C28955   4.086   9.835   8.487 -0.0813  0.1327  0.0851
  956MOL0     O28956   3.998   9.923   8.434  0.1957 -0.5129 -0.4227
  956MOL0     C28957   3.860   9.904   8.459 -0.6990  0.1053 -0.2326
  956MOL0     C28958   3.784   9.793   8.423 -0.5821  0.5007  0.1011
  956MOL0     C28959   3.645   9.799   8.444  0.4261  0.3144  0.2575
  956MOL0     C28960   3.574   9.900   8.497 -0.0820  0.7984 -0.1981
  956MOL0     O28961   3.445   9.903   8.529 -0.7739  0.4281  0.3747
  956MOL0     C28962   3.381   9.782   8.563 -1.4257 -0.2389  0.4782
  956MOL0     C28963   3.268   9.809   8.660 -0.0285  0.1798  0.0595
  956MOL0     C28964   3.146   9.874   8.593 -0.5121 -0.2595  0.6846
  956MOL0     C28965   3.043   9.902   8.693  0.3903 -0.4655  0.6287
  956MOL0     C28966   2.929   9.992   8.631  0.6995  0.7757  0.0286
  956MOL0     C28967   2.812  10.005   8.726 -0.7325 -0.4303 -0.4423
  956MOL0     C28968   2.682  10.051   8.655 -0.2712 -1.4133  0.3025
  956MOL0     C28969   2.579  10.091   8.754  0.1211  0.3402  0.3200
  956MOL0    Cl28970   2.542   9.947   8.840 -0.3554  0.0329  0.1447
  956MOL0     C28971   3.650  10.010   8.526 -0.2054  0.5474 -1.0417
  956MOL0     C28972   3.792  10.015   8.509  0.0631 -0.0844 -0.7449
  956MOL0     O28973   4.063   9.726   8.539  0.6541  0.1598 -0.0033
  956MOL0     C28974   4.290   9.769   8.364 -0.1102 -0.8130 -0.0838
  956MOL0     C28975   4.424   9.789   8.318  0.1099 -0.0255  0.3728
  956MOL0     N28976   5.091   9.683   8.323 -0.3441  0.2703  0.8745
  956MOL0     N28977   5.201   9.723   8.265 -0.1563 -0.6987  0.4485
  956MOL0     C28978   6.055   9.502   7.330  1.1711 -0.2132  0.2242
  956MOL0     C28979   6.175   9.491   7.265 -0.0636  0.1253  0.1992
  956MOL0     C28980   6.594   9.621   7.090  0.0200  0.1390 -1.1205
  956MOL0     C28981   6.658   9.500   7.128 -0.7533  0.2282  0.4700
  956MOL0     C28982   6.800   9.498   7.107  0.6780  1.3175 -0.7403
  956MOL0     C28983   6.864   9.587   7.020 -0.3825  0.0687  0.2952
  956MOL0     O28984   6.993   9.576   6.986 -0.0063  0.9546 -0.1805
  956MOL0     C28985   7.073   9.473   7.048  0.4975  0.6294 -0.3104
  956MOL0     C28986   7.223   9.504   7.027 -0.0331 -0.8344 -0.9984
  956MOL0     C28987   7.261   9.499   6.873 -0.5290 -0.0596 -0.6603
  956MOL0     C28988   7.407   9.468   6.841 -0.3067 -0.3667 -0.8959
  956MOL0     C28989   7.507   9.526   6.936 -0.3069 -0.1613 -0.1452
  956MOL0     C28990   7.570   9.584   7.029  0.5459 -0.2016  1.2136
  956MOL0     C28991   6.798   9.708   6.986 -1.3608  0.2818 -1.3316
  956MOL0     C28992   6.659   9.720   7.017  0.1174 -0.1615 -0.5769
  956MOL0     H28993   6.316   9.783   7.343  1.0918 -0.1860 -0.3509
  956MOL0     H28994   6.116   9.791   7.490  2.0064  0.0165  0.0597
  956MOL0     H28995   5.974   9.752   7.632 -0.3859  1.9482  0.4187
  956MOL0     H28996   5.851   9.804   7.503 -1.3319 -0.4851  0.1707
  956MOL0     H28997   5.761   9.801   7.733  1.6531 -0.0717  0.4960
  956MOL0     H28998   5.677   9.694   7.622 -2.4197  0.3795  4.8468
  956MOL0     H28999   5.882   9.529   7.760  1.7601  1.8544  0.4602
  956MOL0     H29000   5.842   9.650   7.861 -0.6128 -1.5930  0.6220
  956MOL0     H29001   5.596   9.499   7.735 -3.2628  1.2498  2.4009
  956MOL0     H29002   5.720   9.423   7.839 -2.4108 -1.6866 -0.1713
  956MOL0     H29003   5.647   9.567   8.023 -3.1904  1.0897  1.7560
  956MOL0     H29004   5.547   9.667   7.923 -2.7608 -0.1621  0.3674
  956MOL0     H29005   5.402   9.478   7.873  1.4426 -4.5587 -0.8624
  956MOL0     H29006   5.506   9.370   7.971 -0.9857 -0.5565 -2.2637
  956MOL0     H29007   5.319   9.437   8.102  0.1103  1.2780  0.3582
  956MOL0     H29008   5.465   9.507   8.175 -2.1659 -0.6559  2.1289
  956MOL0     H29009   5.327   9.686   7.976 -0.0140 -0.1653 -0.8773
  956MOL0     H29010   5.412   9.716   8.122  1.0900 -2.4139 -1.1310
  956MOL0     H29011   5.064   9.528   8.042 -0.9001  1.7019 -0.8769
  956MOL0     H29012   4.865   9.438   8.228 -0.2175  0.4147 -0.5410
  956MOL0     H29013   4.843   9.536   8.369 -1.1252 -0.6523  0.0024
  956MOL0     H29014   4.684   9.562   8.183  1.2228 -1.5296  0.5724
  956MOL0     H29015   4.815   9.659   8.092 -2.9463  2.0400 -0.3292
  956MOL0     H29016   4.846   9.794   8.310  0.7760 -0.3027 -0.7420
  956MOL0     H29017   4.693   9.735   8.364  0.1450  0.0622  0.3824
  956MOL0     H29018   4.630   9.837   8.125 -1.3418  1.9668  0.5977
  956MOL0     H29019   4.770   9.934   8.170 -1.2617  1.1837 -1.4278
  956MOL0     H29020   4.465  10.086   8.494  0.9426  0.0716  0.4989
  956MOL0     H29021   4.278  10.162   8.622 -2.5280  0.5598  3.3869
  956MOL0     H29022   4.154  10.123   8.492 -3.8133 -4.6510  1.5552
  956MOL0     H29023   4.158  10.044   8.649  0.8186  2.0245  1.5698
  956MOL0     H29024   3.831   9.706   8.378  1.3806  1.1566  0.7716
  956MOL0     H29025   3.580   9.722   8.402  0.5440  0.2082  0.2678
  956MOL0     H29026   3.345   9.725   8.477  1.7100 -0.2556 -0.9402
  956MOL0     H29027   3.451   9.717   8.617 -0.5916  1.7836  1.9322
  956MOL0     H29028   3.242   9.708   8.694  1.7062 -0.3951 -0.2198
  956MOL0     H29029   3.303   9.870   8.743  0.6417  1.3054 -1.0193
  956MOL0     H29030   3.105   9.804   8.519 -3.1159  2.7378 -0.9681
  956MOL0     H29031   3.166   9.957   8.525 -1.0525 -1.8886 -1.5879
  956MOL0     H29032   3.016   9.802   8.729  2.8240 -1.7312 -0.7876
  956MOL0     H29033   3.083   9.958   8.777 -0.0734 -0.4496  0.8424
  956MOL0     H29034   2.888   9.941   8.543 -1.5518  0.2333  1.3101
  956MOL0     H29035   2.969  10.088   8.599 -0.6918  1.5280  0.5006
  956MOL0     H29036   2.794   9.902   8.759 -0.3569 -1.6128 -3.5973
  956MOL0     H29037   2.826  10.074   8.809 -2.9013  1.9661 -1.9108
  956MOL0     H29038   2.640   9.989   8.576 -3.8217  0.2434  0.6784
  956MOL0     H29039   2.708  10.141   8.598 -1.1655 -2.3216 -1.6200
  956MOL0     H29040   2.505  10.139   8.690  0.7911 -1.4967 -1.9701
  956MOL0     H29041   2.623  10.161   8.826  1.5099  0.9975 -1.0944
  956MOL0     H29042   3.604  10.100   8.565  0.2054  0.3665 -0.1159
  956MOL0     H29043   3.850  10.106   8.522 -3.4934  2.7840 -3.1578
  956MOL0     H29044   4.230   9.682   8.340 -2.8795 -0.3257  3.9203
  956MOL0     H29045   4.461   9.713   8.251  0.6698  0.0979  0.5367
  956MOL0     H29046   5.969   9.436   7.327 -0.6281  2.0513 -1.6629
  956MOL0     H29047   6.192   9.412   7.192  1.3173  1.1878 -0.6783
  956MOL0     H29048   6.617   9.422   7.192 -0.4752 -0.8999 -0.6849
  956MOL0     H29049   6.852   9.412   7.148 -1.3231 -0.6998 -2.1663
  956MOL0     H29050   7.060   9.492   7.155  2.1177  1.0625 -0.1515
  956MOL0     H29051   7.043   9.372   7.019  1.0620 -0.2212  1.8390
  956MOL0     H29052   7.266   9.435   7.100 -2.0106 -2.9389 -1.7025
  956MOL0     H29053   7.254   9.602   7.064  1.4531 -1.4204 -0.6264
  956MOL0     H29054   7.220   9.582   6.815 -1.6542 -0.6270 -0.7081
  956MOL0     H29055   7.209   9.415   6.827 -2.7437  0.7093  0.2705
  956MOL0     H29056   7.428   9.494   6.737 -0.1768 -1.7745 -1.2532
  956MOL0     H29057   7.416   9.360   6.857 -0.2232 -0.4416 -1.4066
  956MOL0     H29058   7.630   9.631   7.104  1.8559 -0.7810  0.5643
  956MOL0     H29059   6.850   9.790   6.939 -2.1810  1.3144 -0.4707
  956MOL0     H29060   6.614   9.816   6.991  1.5447  0.5053 -0.6945
  957MOL0     O29061   6.753  11.119   2.402  0.1908 -0.1019 -0.7666
  957MOL0     C29062   6.793  11.158   2.514 -0.3293  0.5234  0.5932
  957MOL0     O29063   6.716  11.168   2.625 -0.4152 -0.4120  0.4383
  957MOL0     C29064   6.578  11.159   2.618  0.8851 -0.2034  0.4615
  957MOL0     C29065   6.506  11.083   2.709  0.1068  0.7745 -0.2582
  957MOL0     C29066   6.364  11.079   2.716 -0.0734 -0.1849  0.6291
  957MOL0     C29067   6.286  11.151   2.622 -0.8449  0.0551 -0.3337
  957MOL0     O29068   6.147  11.171   2.628  0.6403  1.0063 -0.4162
  957MOL0     C29069   6.074  11.090   2.721  1.1066  0.0300  0.2790
  957MOL0     C29070   5.917  11.107   2.699  0.1368  1.1002  0.3467
  957MOL0     C29071   5.872  11.072   2.559 -0.0599 -0.5615 -0.2931
  957MOL0     C29072   5.722  11.062   2.534 -0.3135  1.0448 -0.0628
  957MOL0     C29073   5.657  11.190   2.582  0.1163 -0.0423  0.0064
  957MOL0     C29074   5.508  11.187   2.524 -0.8806  0.0845 -0.1173
  957MOL0     C29075   5.441  11.322   2.543  0.0596  1.1680  0.4103
  957MOL0     C29076   5.332  11.337   2.445 -0.0174 -0.1501  0.2512
  957MOL0     N29077   5.225  11.234   2.471  0.1377 -0.5592  0.5623
  957MOL0     C29078   5.139  11.191   2.374  0.7906 -0.0527  0.2706
  957MOL0     C29079   5.039  11.129   2.433 -1.2203 -0.0214  0.6482
  957MOL0     C29080   4.932  11.046   2.366  0.0788  0.1789 -0.1268
  957MOL0     C29081   4.789  11.113   2.376  0.7042  0.0550  0.3944
  957MOL0     C29082   4.794  11.251   2.304 -0.4859 -0.4806  0.8432
  957MOL0     C29083   4.653  11.318   2.299  1.4110 -0.0002 -0.4470
  957MOL0     O29084   4.537  11.234   2.288 -0.3292  0.1354 -0.4903
  957MOL0     C29085   4.408  11.267   2.261 -0.2062  0.0056  0.0668
  957MOL0     C29086   4.350  11.392   2.242 -0.5997 -0.2463  0.0053
  957MOL0     C29087   4.213  11.406   2.218  0.6119 -0.5042  0.2720
  957MOL0     C29088   4.159  11.551   2.210  0.4751  0.5159 -0.1054
  957MOL0     C29089   4.140  11.282   2.197  0.1830  0.2614  0.5668
  957MOL0     C29090   3.991  11.287   2.164 -0.4192 -0.0639  0.1714
  957MOL0     O29091   3.935  11.413   2.165  0.3679  0.2861 -0.0047
  957MOL0     C29092   3.803  11.423   2.178 -0.0023 -0.5162  0.8290
  957MOL0     C29093   3.735  11.394   2.299 -0.0868 -0.2516  0.4121
  957MOL0     C29094   3.599  11.412   2.307  0.3284 -0.0650  0.4874
  957MOL0     C29095   3.526  11.466   2.202  0.3846  0.3631  1.2437
  957MOL0     O29096   3.389  11.469   2.220  0.6562 -0.4187 -0.1897
  957MOL0     C29097   3.306  11.491   2.112  0.4037 -0.3145  0.2360
  957MOL0     C29098   3.163  11.474   2.158 -1.1898  0.5026 -0.2914
  957MOL0     C29099   3.123  11.570   2.276  0.8030  0.2055 -0.7557
  957MOL0     C29100   3.131  11.493   2.416 -0.0108  0.2651 -0.4305
  957MOL0     C29101   3.049  11.572   2.522 -0.0392  0.3047 -0.1743
  957MOL0     C29102   3.095  11.706   2.574  0.0009  0.8827 -0.0040
  957MOL0     C29103   3.225  11.680   2.658 -0.4129 -0.4223  0.2914
  957MOL0     C29104   3.353  11.730   2.588 -0.7535  0.1560 -0.0582
  957MOL0    Cl29105   3.504  11.671   2.661  0.4319  0.0895 -0.3699
  957MOL0     C29106   3.594  11.497   2.083  1.0474 -0.0256 -0.1578
  957MOL0     C29107   3.729  11.477   2.068 -0.1274 -0.0060 -0.3325
  957MOL0     O29108   3.938  11.177   2.151  0.8058 -0.5154  0.4780
  957MOL0     C29109   4.205  11.159   2.213 -0.2273 -0.0794 -0.1167
  957MOL0     C29110   4.337  11.151   2.243  0.1285  0.6050  0.0717
  957MOL0     N29111   5.076  11.123   2.565  0.4307 -0.8393  1.3702
  957MOL0     N29112   5.192  11.175   2.589 -0.3035 -0.5222 -0.2540
  957MOL0     C29113   6.357  11.231   2.525  1.0795 -0.4566 -0.0754
  957MOL0     C29114   6.502  11.242   2.530  0.1425  1.1625  0.3752
  957MOL0     C29115   6.932  11.202   2.523  0.5162 -0.3746  0.5087
  957MOL0     C29116   7.026  11.175   2.425 -0.5995  0.0736 -0.2002
  957MOL0     C29117   7.162  11.225   2.444  0.0037 -0.1992  0.3311
  957MOL0     C29118   7.193  11.298   2.558 -0.2721 -0.9931 -0.1611
  957MOL0     O29119   7.326  11.322   2.588  0.5411 -0.3352  0.3812
  957MOL0     C29120   7.395  11.392   2.486 -0.9564  0.1104  0.4476
  957MOL0     C29121   7.505  11.470   2.556  0.8826 -0.2774 -0.4127
  957MOL0     C29122   7.635  11.392   2.562 -0.5700  0.0701 -0.4435
  957MOL0     C29123   7.756  11.463   2.642 -0.1510 -0.8522  0.6216
  957MOL0     C29124   7.812  11.575   2.563 -0.3555 -0.0873 -0.4565
  957MOL0     C29125   7.841  11.675   2.508  0.3080  0.4040 -0.1939
  957MOL0     C29126   7.103  11.309   2.663  0.4646 -0.2353 -0.1630
  957MOL0     C29127   6.974  11.259   2.652  0.4005 -0.2265  0.9906
  957MOL0     H29128   6.570  11.032   2.781 -1.1477 -0.4219  0.0537
  957MOL0     H29129   6.317  11.030   2.800  1.8714  1.4517  2.7948
  957MOL0     H29130   6.103  10.986   2.703  0.5821  0.5166 -4.7807
  957MOL0     H29131   6.093  11.123   2.823 -1.0340  2.3010  0.0422
  957MOL0     H29132   5.865  11.052   2.778  0.9680 -0.7824 -0.3663
  957MOL0     H29133   5.894  11.214   2.705  1.8879  1.5446 -0.2924
  957MOL0     H29134   5.896  11.160   2.499 -3.6513  1.0456  0.3893
  957MOL0     H29135   5.928  10.987   2.518 -1.7492 -1.5734 -0.5933
  957MOL0     H29136   5.692  11.058   2.429  0.2191  0.7076 -0.2092
  957MOL0     H29137   5.686  10.978   2.595 -2.3523 -0.1372 -2.6749
  957MOL0     H29138   5.652  11.194   2.691 -1.5168  2.2096 -0.0740
  957MOL0     H29139   5.701  11.280   2.538  4.2339 -0.9453  1.8399
  957MOL0     H29140   5.514  11.149   2.422 -1.2075 -2.1633  0.6406
  957MOL0     H29141   5.454  11.109   2.579 -1.9222  0.7377 -0.1915
  957MOL0     H29142   5.401  11.330   2.645  2.6626 -1.0303  1.7304
  957MOL0     H29143   5.512  11.404   2.533 -1.7633  2.5021 -3.3083
  957MOL0     H29144   5.364  11.353   2.341 -0.5481 -1.2056 -0.0979
  957MOL0     H29145   5.294  11.436   2.469  0.0939  0.0419 -0.3512
  957MOL0     H29146   5.141  11.224   2.270 -1.2122  0.4886  0.3667
  957MOL0     H29147   4.945  11.029   2.258 -1.6011 -0.8123 -0.2113
  957MOL0     H29148   4.924  10.950   2.417 -0.0085  0.3991  0.2839
  957MOL0     H29149   4.763  11.137   2.480 -1.4517  1.0670 -0.3200
  957MOL0     H29150   4.725  11.037   2.329  0.4502 -0.8942  2.1892
  957MOL0     H29151   4.827  11.236   2.201 -1.2759  2.9861 -0.0665
  957MOL0     H29152   4.866  11.322   2.347 -1.4249  0.3420  1.1202
  957MOL0     H29153   4.657  11.392   2.219 -0.8721 -2.8309 -3.4564
  957MOL0     H29154   4.633  11.374   2.391 -3.2990 -0.8381 -0.7162
  957MOL0     H29155   4.409  11.481   2.259  3.1412 -2.4495 -0.4257
  957MOL0     H29156   4.241  11.621   2.229 -0.0390  0.7679  1.3578
  957MOL0     H29157   4.126  11.587   2.112  2.4758 -0.6340 -1.2728
  957MOL0     H29158   4.093  11.574   2.294  2.0917  3.9171  0.3910
  957MOL0     H29159   3.788  11.364   2.389  1.6255 -0.9090 -0.7625
  957MOL0     H29160   3.548  11.383   2.398 -0.7859 -1.3308 -0.5165
  957MOL0     H29161   3.311  11.599   2.098  1.1096 -0.4406 -0.5981
  957MOL0     H29162   3.322  11.425   2.026 -1.0432 -0.1727 -0.1610
  957MOL0     H29163   3.093  11.495   2.077  0.3518  2.0530 -1.2674
  957MOL0     H29164   3.150  11.368   2.180  2.5049 -0.7539 -3.1982
  957MOL0     H29165   3.022  11.608   2.255  0.5206  1.1765  1.8759
  957MOL0     H29166   3.176  11.665   2.291  0.6314  0.7170 -3.0162
  957MOL0     H29167   3.088  11.393   2.419  0.5173 -0.1075  5.1106
  957MOL0     H29168   3.236  11.489   2.450 -0.4243 -1.8789  0.7674
  957MOL0     H29169   3.049  11.499   2.603  3.3564 -0.3242 -0.6165
  957MOL0     H29170   2.944  11.580   2.490  0.4302  2.6221 -1.4212
  957MOL0     H29171   3.102  11.786   2.500  3.2474  0.2693 -0.4954
  957MOL0     H29172   3.014  11.736   2.641 -0.3168 -1.0641  0.5693
  957MOL0     H29173   3.231  11.577   2.695  1.7035 -1.1711 -1.9290
  957MOL0     H29174   3.238  11.748   2.743  3.0668 -0.2631 -0.2218
  957MOL0     H29175   3.346  11.837   2.565 -2.3373  0.6027  2.2131
  957MOL0     H29176   3.352  11.688   2.487  5.1544  1.1477 -0.9101
  957MOL0     H29177   3.538  11.522   1.994 -0.5783  0.0881  0.8557
  957MOL0     H29178   3.769  11.494   1.969 -0.4525  2.2609 -0.1113
  957MOL0     H29179   4.147  11.069   2.197  0.8458 -0.8673  0.2789
  957MOL0     H29180   4.380  11.053   2.262 -1.8444  0.1790  2.9125
  957MOL0     H29181   6.292  11.284   2.457 -3.1037 -1.8667  2.4266
  957MOL0     H29182   6.561  11.299   2.459  0.5034 -0.2091 -0.4679
  957MOL0     H29183   6.987  11.133   2.333  0.9933  2.8096 -2.2729
  957MOL0     H29184   7.239  11.196   2.373  2.6695 -1.5830  3.5307
  957MOL0     H29185   7.444  11.319   2.421  2.1946 -0.2064  2.9352
  957MOL0     H29186   7.336  11.466   2.431  1.0341  0.6487 -1.0875
  957MOL0     H29187   7.464  11.486   2.656  0.0432  1.0696 -0.9379
  957MOL0     H29188   7.520  11.565   2.504  0.9030 -0.3584 -0.5557
  957MOL0     H29189   7.680  11.378   2.463  0.7191 -2.7575  0.4256
  957MOL0     H29190   7.614  11.291   2.598  2.9344 -1.1901 -1.4828
  957MOL0     H29191   7.839  11.393   2.648  1.7590  1.0356 -1.5997
  957MOL0     H29192   7.732  11.502   2.741 -2.3246  4.1206 -1.5414
  957MOL0     H29193   7.842  11.776   2.471  0.0411  0.6723  0.5123
  957MOL0     H29194   7.136  11.368   2.748  1.6041  0.6176 -1.1644
  957MOL0     H29195   6.902  11.282   2.731  0.8170 -1.2906  1.7076
  958MOL0     O29196   7.492   4.925   0.796  0.4988 -0.2279 -0.5826
  958MOL0     C29197   7.575   4.844   0.773 -0.0602  0.1418  0.1699
  958MOL0     O29198   7.553   4.727   0.719 -0.2567 -0.2485 -0.0630
  958MOL0     C29199   7.423   4.700   0.682  0.4111  0.6167 -0.1245
  958MOL0     C29200   7.302   4.708   0.751 -0.5428 -0.6869  0.8456
  958MOL0     C29201   7.180   4.653   0.701 -0.6297  0.5227  0.1183
  958MOL0     C29202   7.182   4.581   0.578  0.4255  0.0314  0.0169
  958MOL0     O29203   7.073   4.515   0.522 -0.0766  0.4705  0.1859
  958MOL0     C29204   6.939   4.551   0.565 -0.1142  0.1830 -0.5315
  958MOL0     C29205   6.856   4.453   0.488 -0.3652 -0.8087 -0.8879
  958MOL0     C29206   6.721   4.425   0.570  0.4284  0.7098 -0.3255
  958MOL0     C29207   6.630   4.329   0.513 -0.3937  0.2047 -0.1002
  958MOL0     C29208   6.490   4.309   0.592  0.0054 -0.0713  0.8196
  958MOL0     C29209   6.409   4.432   0.622 -1.4930 -0.5714  0.4705
  958MOL0     C29210   6.276   4.390   0.691 -0.4175 -0.5226 -0.6810
  958MOL0     C29211   6.300   4.403   0.846  0.5433  0.8142 -0.0021
  958MOL0     N29212   6.197   4.320   0.924 -0.2023  0.9134 -0.7365
  958MOL0     C29213   6.065   4.323   0.906  0.2451 -0.0548 -0.2364
  958MOL0     C29214   6.012   4.233   0.995 -0.3751 -0.8564 -0.9513
  958MOL0     C29215   5.865   4.217   1.009  0.3022 -0.2812 -0.5428
  958MOL0     C29216   5.815   4.224   1.155  0.3068  0.7838 -0.2533
  958MOL0     C29217   5.685   4.151   1.186 -0.5422  0.2446  0.4141
  958MOL0     C29218   5.641   4.200   1.322 -0.1510 -0.5878  0.2974
  958MOL0     O29219   5.528   4.117   1.367 -0.2594  0.4438 -0.2785
  958MOL0     C29220   5.451   4.146   1.473 -0.2851  0.1821 -0.4322
  958MOL0     C29221   5.335   4.066   1.489  0.0875 -1.6213  0.7876
  958MOL0     C29222   5.234   4.111   1.586 -0.2941  0.3549  0.5151
  958MOL0     C29223   5.099   4.039   1.597 -0.3012  0.1513  0.1694
  958MOL0     C29224   5.268   4.224   1.681  0.5834  0.8454  1.0077
  958MOL0     C29225   5.184   4.268   1.799  0.2192  0.8205  0.2602
  958MOL0     O29226   5.259   4.318   1.901  0.2066  0.2364 -0.6012
  958MOL0     C29227   5.192   4.365   2.011  0.7396 -0.4664 -0.0937
  958MOL0     C29228   5.089   4.462   2.006  0.9677 -0.3507 -0.7214
  958MOL0     C29229   5.034   4.521   2.122  0.5558  0.4479  0.2093
  958MOL0     C29230   5.077   4.488   2.250 -0.3516  0.8686 -0.4877
  958MOL0     O29231   5.010   4.545   2.357  0.0088 -0.4467 -0.3583
  958MOL0     C29232   5.002   4.467   2.473  0.0811  0.5501  0.0142
  958MOL0     C29233   4.858   4.430   2.493  0.6687  0.8667  0.2163
  958MOL0     C29234   4.831   4.306   2.402 -0.2023 -0.2152  0.7614
  958MOL0     C29235   4.688   4.243   2.419  0.0496 -0.8033  0.2275
  958MOL0     C29236   4.674   4.111   2.372  0.1718  0.5290 -0.1423
  958MOL0     C29237   4.545   4.035   2.416 -0.2497 -0.4853  0.4542
  958MOL0     C29238   4.423   4.133   2.393 -0.5597  0.5368  0.9016
  958MOL0     C29239   4.293   4.060   2.394  0.0763 -1.2758  0.2730
  958MOL0    Cl29240   4.271   3.948   2.253 -0.1002  0.4403  0.1409
  958MOL0     C29241   5.185   4.395   2.261 -0.2997  0.6077  0.7200
  958MOL0     C29242   5.246   4.340   2.144  0.4119  0.2800  0.9128
  958MOL0     O29243   5.066   4.276   1.785 -0.2284 -0.2388  0.1784
  958MOL0     C29244   5.391   4.284   1.672  0.1352  0.5422 -0.7504
  958MOL0     C29245   5.483   4.244   1.568 -0.0063  0.1642 -0.0308
  958MOL0     N29246   6.121   4.178   1.065  0.1873 -0.4103 -0.9265
  958MOL0     N29247   6.227   4.228   1.018  0.0380  0.5416 -0.8254
  958MOL0     C29248   7.302   4.564   0.506  0.5091 -0.3634 -0.3586
  958MOL0     C29249   7.419   4.626   0.561  0.3180 -0.1594  0.6937
  958MOL0     C29250   7.709   4.866   0.827  0.5060 -0.0300 -0.8950
  958MOL0     C29251   7.764   4.992   0.840  0.0182 -0.1815  0.5869
  958MOL0     C29252   7.882   5.015   0.912  0.4792  0.0394 -0.8224
  958MOL0     C29253   7.948   4.905   0.967  0.1522  0.7148  0.0983
  958MOL0     O29254   8.067   4.918   1.042  0.2961  0.1506  0.1844
  958MOL0     C29255   8.146   5.037   1.015 -0.0844  0.0067 -0.7898
  958MOL0     C29256   8.290   5.022   1.066 -0.4827  0.3767 -0.1136
  958MOL0     C29257   8.356   5.147   1.127 -0.4524 -0.2589 -0.8414
  958MOL0     C29258   8.500   5.110   1.136 -0.6370 -0.0166 -0.1172
  958MOL0     C29259   8.588   5.214   1.200  0.3461  0.6397  0.4641
  958MOL0     C29260   8.663   5.285   1.252 -0.9955  0.0248 -0.0268
  958MOL0     C29261   7.898   4.776   0.961  0.8002  0.1663 -0.2263
  958MOL0     C29262   7.780   4.764   0.888  0.4871  0.3246  0.3314
  958MOL0     H29263   7.288   4.758   0.847  0.1736  0.0954  0.5600
  958MOL0     H29264   7.091   4.672   0.760 -1.3241  0.6985 -0.9630
  958MOL0     H29265   6.938   4.526   0.671 -0.9482  1.9942 -0.0641
  958MOL0     H29266   6.917   4.658   0.555  4.1573  1.2778 -0.2086
  958MOL0     H29267   6.830   4.486   0.387 -1.4623  2.1765  0.2635
  958MOL0     H29268   6.905   4.360   0.456  1.6542  0.3794 -1.4174
  958MOL0     H29269   6.750   4.398   0.672 -0.8800  1.1806  0.1866
  958MOL0     H29270   6.665   4.519   0.580  1.6270  1.6565 -1.9972
  958MOL0     H29271   6.611   4.373   0.414  0.1206  3.2454  1.0276
  958MOL0     H29272   6.673   4.230   0.497 -0.1674  0.5107 -1.5030
  958MOL0     H29273   6.429   4.238   0.534  2.0849 -1.3237  0.0343
  958MOL0     H29274   6.512   4.267   0.690 -0.4627  3.5827  2.6549
  958MOL0     H29275   6.464   4.514   0.669 -1.3014 -0.1962 -0.3852
  958MOL0     H29276   6.382   4.467   0.522  0.3351  0.7215  0.3703
  958MOL0     H29277   6.200   4.467   0.671 -0.8706  0.1187  2.8906
  958MOL0     H29278   6.253   4.297   0.639  0.7145  0.0828 -2.3333
  958MOL0     H29279   6.279   4.501   0.891 -0.5483  1.0822 -1.0484
  958MOL0     H29280   6.397   4.365   0.879 -0.0225  0.8441  1.7772
  958MOL0     H29281   6.004   4.381   0.838  0.8061 -0.4631 -1.1099
  958MOL0     H29282   5.818   4.302   0.958 -0.1250  1.3003  2.2688
  958MOL0     H29283   5.838   4.124   0.958 -2.6246  1.1084 -1.7456
  958MOL0     H29284   5.796   4.330   1.174  1.0433  1.2446 -1.9734
  958MOL0     H29285   5.893   4.193   1.226 -1.4191 -1.1152  0.9122
  958MOL0     H29286   5.699   4.042   1.184  2.8950  0.5671 -0.0799
  958MOL0     H29287   5.611   4.171   1.108 -1.2730 -1.0299  0.7374
  958MOL0     H29288   5.610   4.304   1.309  3.1548  0.5433  0.5410
  958MOL0     H29289   5.729   4.202   1.386  0.3228 -0.4459 -0.3440
  958MOL0     H29290   5.316   3.976   1.432 -0.5159 -0.4140 -1.0150
  958MOL0     H29291   5.094   3.976   1.686  0.3933  0.0331  0.1236
  958MOL0     H29292   5.019   4.114   1.597  0.2794  0.8016 -1.5386
  958MOL0     H29293   5.089   3.976   1.509  4.8006 -1.5312  0.4819
  958MOL0     H29294   5.041   4.501   1.917 -0.3831  3.6915  1.5096
  958MOL0     H29295   4.963   4.600   2.100  1.9315  1.4427 -0.8153
  958MOL0     H29296   5.057   4.373   2.486  1.0356  1.1032 -0.0208
  958MOL0     H29297   5.040   4.528   2.556  1.1826  1.2875 -1.0113
  958MOL0     H29298   4.853   4.405   2.599  2.7939 -0.2215  0.1004
  958MOL0     H29299   4.788   4.513   2.474 -2.2487 -2.0344 -3.1538
  958MOL0     H29300   4.902   4.226   2.426 -0.7652 -1.0439 -0.2809
  958MOL0     H29301   4.846   4.346   2.301 -0.1680  2.7069  1.8283
  958MOL0     H29302   4.651   4.238   2.522 -4.1263 -0.4045 -1.0583
  958MOL0     H29303   4.615   4.309   2.371  1.4805  0.0305 -0.8611
  958MOL0     H29304   4.755   4.052   2.414  0.7884 -0.1040 -2.1054
  958MOL0     H29305   4.684   4.090   2.265  3.0221 -0.6044  0.2528
  958MOL0     H29306   4.532   3.934   2.376 -0.7009 -0.1846 -0.1799
  958MOL0     H29307   4.542   4.023   2.524 -0.7844  0.8003  0.6020
  958MOL0     H29308   4.436   4.184   2.297 -0.4746  0.4136  0.8486
  958MOL0     H29309   4.434   4.218   2.462  1.3814 -0.4425  1.8764
  958MOL0     H29310   4.210   4.131   2.396  2.2946  1.5524 -0.9396
  958MOL0     H29311   4.288   4.003   2.488 -0.9725  0.5251  1.3570
  958MOL0     H29312   5.227   4.365   2.357  0.0055 -0.0949  0.3769
  958MOL0     H29313   5.336   4.280   2.157 -0.8537 -1.7402  0.7881
  958MOL0     H29314   5.415   4.360   1.746 -2.7736 -0.8622  1.8609
  958MOL0     H29315   5.577   4.298   1.574 -1.6241  3.0772  1.1366
  958MOL0     H29316   7.316   4.510   0.413  3.3000 -1.2149  0.4892
  958MOL0     H29317   7.517   4.613   0.514  0.5037 -1.7100  1.4508
  958MOL0     H29318   7.709   5.082   0.813 -2.7888 -1.7447  0.6978
  958MOL0     H29319   7.908   5.119   0.929 -2.1986  0.8160 -0.9928
  958MOL0     H29320   8.146   5.059   0.908  0.9435 -1.4365 -1.1213
  958MOL0     H29321   8.094   5.110   1.078  0.1635 -1.7441  1.5929
  958MOL0     H29322   8.348   4.988   0.979 -0.9925 -1.2145  0.1409
  958MOL0     H29323   8.301   4.952   1.149  2.1652  1.3863  0.4982
  958MOL0     H29324   8.308   5.156   1.225 -1.1759 -3.1442 -0.8222
  958MOL0     H29325   8.347   5.245   1.079  1.9260  0.5074  0.1227
  958MOL0     H29326   8.537   5.101   1.033 -0.6973  0.1706 -0.1558
  958MOL0     H29327   8.510   5.018   1.195  2.1300  1.8628  2.6819
  958MOL0     H29328   8.739   5.347   1.295 -0.4569 -0.0523 -0.8487
  958MOL0     H29329   7.923   4.686   1.016 -0.8751  0.6356  1.3848
  958MOL0     H29330   7.727   4.671   0.874 -1.1261  1.0756  1.2395
  959MOL0     O29331   6.655   6.657   8.001  0.6902 -0.6793  0.5414
  959MOL0     C29332   6.540   6.636   7.967 -0.8978 -0.3857 -1.7906
  959MOL0     O29333   6.427   6.685   8.030  0.4949 -0.2818 -0.5144
  959MOL0     C29334   6.443   6.747   8.150  0.3819  0.2101 -0.5817
  959MOL0     C29335   6.507   6.698   8.263 -0.3214  0.1010 -0.0337
  959MOL0     C29336   6.512   6.764   8.393 -0.1047 -0.4867 -0.4698
  959MOL0     C29337   6.443   6.885   8.400 -0.6709  0.1636 -0.0068
  959MOL0     O29338   6.453   6.952   8.518  0.7830 -0.2632 -0.2259
  959MOL0     C29339   6.344   6.932   8.614 -1.3401  0.1279  0.1913
  959MOL0     C29340   6.207   6.988   8.582  0.2759 -0.4784  0.3509
  959MOL0     C29341   6.206   7.133   8.553 -0.4306 -0.7478  0.6770
  959MOL0     C29342   6.070   7.195   8.546  0.0222  0.4936  0.1832
  959MOL0     C29343   6.057   7.347   8.541 -0.4383 -0.2697 -0.0615
  959MOL0     C29344   6.123   7.398   8.409  0.2498  0.2306 -0.9740
  959MOL0     C29345   6.030   7.362   8.291 -0.1981 -0.6423 -0.8940
  959MOL0     C29346   6.071   7.424   8.165 -0.0046 -0.2975  0.4552
  959MOL0     N29347   6.199   7.366   8.118  0.4887  0.2889 -0.5792
  959MOL0     C29348   6.280   7.439   8.034 -0.0868  0.4065  0.5437
  959MOL0     C29349   6.381   7.354   8.008 -0.2323  0.2350 -0.1676
  959MOL0     C29350   6.492   7.384   7.913  0.1043  0.4658  0.3371
  959MOL0     C29351   6.600   7.476   7.963 -0.3983 -0.4142 -0.0597
  959MOL0     C29352   6.687   7.416   8.077  0.3522  0.0116 -0.8622
  959MOL0     C29353   6.747   7.273   8.072 -0.0194 -0.0555 -0.5073
  959MOL0     O29354   6.851   7.240   8.168  0.1257  0.3919  0.0883
  959MOL0     C29355   6.816   7.229   8.299 -0.1950 -0.0154  0.5552
  959MOL0     C29356   6.849   7.331   8.392  0.1224 -1.3738 -1.0453
  959MOL0     C29357   6.811   7.312   8.528 -0.0065  0.5834 -0.2137
  959MOL0     C29358   6.852   7.410   8.621 -0.7363 -0.0880 -1.0450
  959MOL0     C29359   6.759   7.186   8.563 -0.1769 -0.2063 -0.5955
  959MOL0     C29360   6.726   7.152   8.703  0.0948  0.2248  0.6915
  959MOL0     O29361   6.608   7.164   8.761 -0.1091 -0.4334  0.1043
  959MOL0     C29362   6.552   7.286   8.748 -0.8445 -0.5306 -0.9877
  959MOL0     C29363   6.583   7.383   8.842  0.6747 -0.1412 -0.3345
  959MOL0     C29364   6.530   7.511   8.832  0.3227 -0.7010 -0.8138
  959MOL0     C29365   6.455   7.552   8.724 -0.8642  0.6514  1.3669
  959MOL0     O29366   6.413   7.680   8.706  0.2545 -0.0345  0.1195
  959MOL0     C29367   6.339   7.734   8.814  0.7522 -0.5370  0.1344
  959MOL0     C29368   6.221   7.836   8.776 -0.3757  0.6147 -0.0184
  959MOL0     C29369   6.120   7.754   8.693 -0.5285 -0.4484  0.5953
  959MOL0     C29370   5.989   7.837   8.672 -0.8099  0.9824 -0.4324
  959MOL0     C29371   5.868   7.749   8.622 -0.1397 -0.6524 -0.7550
  959MOL0     C29372   5.884   7.740   8.469  0.9270  0.4035  0.2974
  959MOL0     C29373   5.752   7.691   8.403  1.1644  0.0112  0.3657
  959MOL0     C29374   5.730   7.719   8.254 -0.7516 -0.7376  0.7726
  959MOL0    Cl29375   5.817   7.615   8.142  0.2419 -0.2578  0.4994
  959MOL0     C29376   6.447   7.456   8.618 -0.1720  0.3099 -0.2173
  959MOL0     C29377   6.482   7.323   8.635  0.1949  0.0510  1.1087
  959MOL0     O29378   6.818   7.085   8.745  0.2239 -0.3236 -0.1826
  959MOL0     C29379   6.728   7.088   8.465  0.2104 -0.3183 -0.2526
  959MOL0     C29380   6.759   7.107   8.334 -0.9005 -1.3634  0.2823
  959MOL0     N29381   6.365   7.236   8.080  0.5447  0.2501  0.6814
  959MOL0     N29382   6.251   7.240   8.143  0.5557  0.3113  0.3145
  959MOL0     C29383   6.391   6.936   8.284 -0.2865  0.3852  0.4554
  959MOL0     C29384   6.381   6.865   8.157  0.1782 -0.4048  0.1774
  959MOL0     C29385   6.527   6.545   7.855 -0.0705  0.5134 -0.3343
  959MOL0     C29386   6.402   6.517   7.796  0.0640  0.4355  0.6904
  959MOL0     C29387   6.400   6.418   7.693  0.8379 -0.7764 -0.4007
  959MOL0     C29388   6.515   6.373   7.629  0.2881 -0.3034  0.1834
  959MOL0     O29389   6.486   6.281   7.530 -0.2877  0.3495  0.4536
  959MOL0     C29390   6.577   6.267   7.426 -0.1405 -0.6257  0.3390
  959MOL0     C29391   6.674   6.151   7.456  0.7911 -0.8995  0.1361
  959MOL0     C29392   6.621   6.046   7.553  0.2876 -0.0863 -1.1375
  959MOL0     C29393   6.516   5.962   7.487  0.3753 -0.0881 -0.9022
  959MOL0     C29394   6.387   5.955   7.557 -0.2145 -0.3401 -0.0629
  959MOL0     C29395   6.287   5.956   7.624 -0.0255 -0.1908  0.6495
  959MOL0     C29396   6.640   6.424   7.668  0.1652 -0.1902 -0.4384
  959MOL0     C29397   6.644   6.501   7.782  0.5634  0.4429  0.1133
  959MOL0     H29398   6.547   6.598   8.252 -1.1177 -0.0709 -1.8667
  959MOL0     H29399   6.561   6.721   8.480  2.4541  1.8387 -0.6537
  959MOL0     H29400   6.352   6.826   8.641 -1.1707 -0.4857 -1.9992
  959MOL0     H29401   6.376   6.976   8.708  0.8163 -1.0395  0.0753
  959MOL0     H29402   6.181   6.938   8.489 -0.5927  0.6028 -0.0093
  959MOL0     H29403   6.142   6.961   8.666  0.0211 -2.7340 -0.5067
  959MOL0     H29404   6.266   7.178   8.633 -0.2167  0.7019 -0.2562
  959MOL0     H29405   6.253   7.148   8.455 -0.4077  1.2703  0.9563
  959MOL0     H29406   6.015   7.140   8.469 -0.1973  1.4650 -0.3689
  959MOL0     H29407   6.026   7.171   8.643  0.4497 -1.0857  0.0242
  959MOL0     H29408   5.952   7.377   8.531 -0.6101 -1.6158 -5.6407
  959MOL0     H29409   6.104   7.401   8.624  2.0542  1.0507 -2.1710
  959MOL0     H29410   6.137   7.507   8.410 -1.4719  0.4629 -0.0673
  959MOL0     H29411   6.222   7.351   8.404  1.3954  2.5646 -2.5228
  959MOL0     H29412   6.024   7.253   8.283  3.0121 -1.1245  1.3831
  959MOL0     H29413   5.931   7.388   8.328 -0.0382 -3.1125  1.6025
  959MOL0     H29414   6.085   7.531   8.182  2.9640 -0.6682  1.0027
  959MOL0     H29415   5.995   7.398   8.092  0.4612 -1.8113  0.4688
  959MOL0     H29416   6.243   7.534   7.995 -3.6785 -0.7726  0.7109
  959MOL0     H29417   6.528   7.287   7.878 -2.0742 -0.4640  0.5155
  959MOL0     H29418   6.450   7.431   7.824  0.2688 -0.9156 -0.5027
  959MOL0     H29419   6.555   7.571   7.993 -0.5288  0.4484 -2.7417
  959MOL0     H29420   6.657   7.494   7.871 -1.6365  2.7543 -0.3057
  959MOL0     H29421   6.634   7.417   8.172 -2.2004  0.1975 -2.1999
  959MOL0     H29422   6.775   7.481   8.086  0.3665  0.0869 -1.4853
  959MOL0     H29423   6.793   7.264   7.974  2.0181  2.3732  0.1338
  959MOL0     H29424   6.660   7.207   8.079  0.2511 -0.4543 -0.8824
  959MOL0     H29425   6.900   7.423   8.363  0.0961 -0.9266  0.2758
  959MOL0     H29426   6.960   7.422   8.611 -0.5085 -0.2919  0.8762
  959MOL0     H29427   6.793   7.500   8.599 -0.8124 -0.2618 -1.5671
  959MOL0     H29428   6.834   7.377   8.724  1.8990 -1.2757 -0.9015
  959MOL0     H29429   6.651   7.352   8.921  0.6877 -0.0489 -0.3096
  959MOL0     H29430   6.556   7.588   8.905 -1.2586  0.2685 -1.2249
  959MOL0     H29431   6.293   7.649   8.864  0.6168 -2.7171 -3.3972
  959MOL0     H29432   6.412   7.780   8.882 -1.2547  1.3285  1.1528
  959MOL0     H29433   6.178   7.880   8.867 -0.5807 -2.7107  1.6557
  959MOL0     H29434   6.259   7.912   8.707  1.0651 -0.2693 -0.2381
  959MOL0     H29435   6.103   7.659   8.744  2.0182 -0.9621  0.5998
  959MOL0     H29436   6.163   7.725   8.597 -2.0831 -3.4222  0.6879
  959MOL0     H29437   5.944   7.872   8.765  0.7024  1.5002  0.1385
  959MOL0     H29438   6.003   7.925   8.607  0.5077 -1.3598 -3.5997
  959MOL0     H29439   5.771   7.793   8.649  1.1610  0.6139  2.3915
  959MOL0     H29440   5.870   7.644   8.655  2.4354 -0.3645  0.2610
  959MOL0     H29441   5.917   7.836   8.427  1.6004 -0.2107 -0.6189
  959MOL0     H29442   5.966   7.670   8.451  1.4348  0.7671  1.1237
  959MOL0     H29443   5.659   7.734   8.439  1.0560 -0.1971  0.3373
  959MOL0     H29444   5.751   7.583   8.418 -3.4453 -0.6371 -2.5494
  959MOL0     H29445   5.756   7.824   8.239 -0.5655 -0.9620 -0.5926
  959MOL0     H29446   5.622   7.715   8.238 -0.3323  0.9986 -3.9420
  959MOL0     H29447   6.394   7.482   8.527  0.9048  1.8980 -0.4130
  959MOL0     H29448   6.460   7.250   8.558 -0.8206 -2.1960  3.3831
  959MOL0     H29449   6.694   6.991   8.499 -2.2832  1.5232  3.0949
  959MOL0     H29450   6.727   7.045   8.251 -1.1286  0.7660 -1.3022
  959MOL0     H29451   6.345   7.034   8.272 -1.2773 -0.1323 -0.1585
  959MOL0     H29452   6.345   6.913   8.067  1.6989 -3.2696 -2.1404
  959MOL0     H29453   6.307   6.556   7.831 -1.3567 -2.4295  0.3139
  959MOL0     H29454   6.302   6.381   7.666 -0.0306  2.7501 -2.7234
  959MOL0     H29455   6.528   6.237   7.333 -0.8696  3.7275 -0.8873
  959MOL0     H29456   6.640   6.353   7.406 -1.6370  0.3528 -0.3695
  959MOL0     H29457   6.762   6.197   7.503 -0.9611 -0.0090  2.7483
  959MOL0     H29458   6.701   6.102   7.362  0.2932 -0.3952 -0.2779
  959MOL0     H29459   6.581   6.090   7.645 -1.6024 -1.7993 -1.0479
  959MOL0     H29460   6.695   5.977   7.596 -0.9675  0.0570  1.4012
  959MOL0     H29461   6.548   5.857   7.483 -4.6822 -1.9674  0.5793
  959MOL0     H29462   6.501   5.993   7.383  2.9964  0.1058 -1.3053
  959MOL0     H29463   6.202   5.963   7.689  2.5571 -2.6353  4.7573
  959MOL0     H29464   6.736   6.394   7.627  0.9649  0.6687  0.7465
  959MOL0     H29465   6.738   6.544   7.816  2.0868 -2.4606 -0.0498
  960MOL0     O29466  10.450  11.243   1.161  0.7746 -1.0187  0.1779
  960MOL0     C29467  10.438  11.137   1.103 -0.3363 -0.6175  0.2722
  960MOL0     O29468  10.331  11.102   1.030 -1.0949  0.0196 -0.3404
  960MOL0     C29469  10.216  11.182   1.039 -0.8369 -0.3128 -0.6085
  960MOL0     C29470  10.105  11.133   1.114 -0.0556 -0.6297  0.3057
  960MOL0     C29471   9.979  11.196   1.118 -0.9311 -0.0934 -0.1253
  960MOL0     C29472   9.965  11.321   1.056 -0.3253  0.2403  0.1215
  960MOL0     O29473   9.859  11.406   1.055  0.1299 -0.2945 -0.0148
  960MOL0     C29474   9.768  11.383   1.170  0.5001 -0.2626  0.5793
  960MOL0     C29475   9.691  11.504   1.210  0.9299 -0.5902  0.5153
  960MOL0     C29476   9.766  11.625   1.275 -0.0871  0.3349 -0.2786
  960MOL0     C29477   9.670  11.732   1.311 -0.2516 -0.1818  0.9237
  960MOL0     C29478   9.576  11.709   1.423  0.1018  0.0785 -0.2669
  960MOL0     C29479   9.514  11.829   1.484 -0.0997  0.0920  1.0178
  960MOL0     C29480   9.427  11.915   1.389  0.4669 -0.4387  0.5438
  960MOL0     C29481   9.314  11.829   1.324 -0.2334 -0.2744  0.6021
  960MOL0     N29482   9.228  11.763   1.422 -0.1765 -0.0718  0.2104
  960MOL0     C29483   9.176  11.829   1.530 -0.4229 -0.5186  0.2501
  960MOL0     C29484   9.114  11.734   1.592 -0.3587 -0.2064 -0.2900
  960MOL0     C29485   9.023  11.735   1.706  0.5298  0.0562 -0.0651
  960MOL0     C29486   8.883  11.666   1.675 -0.4134 -0.5262  1.0908
  960MOL0     C29487   8.893  11.508   1.673  0.2127  0.0759 -0.4630
  960MOL0     C29488   8.769  11.435   1.718  0.2148 -1.7009  0.1881
  960MOL0     O29489   8.657  11.500   1.646  0.0881  0.8826  0.2094
  960MOL0     C29490   8.529  11.480   1.690 -0.2684 -0.4197  0.5476
  960MOL0     C29491   8.432  11.577   1.660 -0.2126 -0.2106 -0.3588
  960MOL0     C29492   8.301  11.564   1.715 -0.7993 -0.4955 -0.5178
  960MOL0     C29493   8.208  11.678   1.698 -0.3674  0.4375 -0.5641
  960MOL0     C29494   8.273  11.449   1.793 -0.2122  0.2378 -0.2652
  960MOL0     C29495   8.143  11.433   1.855  0.2508  0.3539  0.2922
  960MOL0     O29496   8.043  11.485   1.786  0.5015 -0.3814 -0.7124
  960MOL0     C29497   7.918  11.466   1.838  0.0004  0.0252 -0.1524
  960MOL0     C29498   7.852  11.558   1.916 -0.7297  0.4897 -0.3959
  960MOL0     C29499   7.726  11.540   1.971 -0.2810 -0.3521 -0.8600
  960MOL0     C29500   7.663  11.419   1.958 -0.0278 -0.0713 -0.8248
  960MOL0     O29501   7.543  11.386   2.016 -0.5751 -0.3481 -0.6151
  960MOL0     C29502   7.479  11.485   2.098 -0.7215  0.2727 -0.7778
  960MOL0     C29503   7.329  11.450   2.140  0.6423  0.3071 -0.2356
  960MOL0     C29504   7.234  11.569   2.169 -0.0930 -0.2752 -0.5442
  960MOL0     C29505   7.085  11.545   2.157 -0.6222 -0.3913  0.4685
  960MOL0     C29506   7.036  11.410   2.209 -0.6866 -0.0783  0.8806
  960MOL0     C29507   6.900  11.366   2.145 -0.4101  0.4317  0.4197
  960MOL0     C29508   6.781  11.434   2.213  0.5391  0.4134  0.6331
  960MOL0     C29509   6.662  11.355   2.182 -0.8514 -0.8168  0.1338
  960MOL0    Cl29510   6.518  11.444   2.221 -0.0096 -0.1668  0.4357
  960MOL0     C29511   7.732  11.315   1.888  0.2648 -1.5344 -1.0112
  960MOL0     C29512   7.860  11.338   1.839  0.5198 -0.0694 -0.0679
  960MOL0     O29513   8.136  11.372   1.961  0.2014 -0.1546  0.6291
  960MOL0     C29514   8.368  11.350   1.815  0.2592  0.1025 -0.0879
  960MOL0     C29515   8.499  11.366   1.767 -0.7663 -0.0971 -0.3672
  960MOL0     N29516   9.144  11.614   1.539 -0.7531  0.0495  0.1249
  960MOL0     N29517   9.224  11.629   1.446 -0.4314  0.2494 -0.5373
  960MOL0     C29518  10.082  11.370   0.995  0.0709 -0.2704 -0.1313
  960MOL0     C29519  10.202  11.307   0.986 -0.3504 -0.2222  0.3921
  960MOL0     C29520  10.555  11.052   1.103 -0.6327  0.3807  0.2412
  960MOL0     C29521  10.680  11.099   1.155 -0.3052  0.9583 -0.4660
  960MOL0     C29522  10.796  11.019   1.141 -1.0105  0.4912  0.2332
  960MOL0     C29523  10.799  10.898   1.080  0.9946  0.5404 -0.3912
  960MOL0     O29524  10.904  10.812   1.076  0.4537 -0.3668  0.1413
  960MOL0     C29525  11.022  10.867   1.011 -0.0605  0.0475 -1.0213
  960MOL0     C29526  11.148  10.824   1.093 -0.2715 -0.0568 -0.0529
  960MOL0     C29527  11.194  10.917   1.207 -0.0233 -0.3358  0.2285
  960MOL0     C29528  11.271  11.031   1.147  0.5455 -0.1283 -0.3135
  960MOL0     C29529  11.335  11.094   1.256 -0.1056  0.2885 -0.0622
  960MOL0     C29530  11.388  11.167   1.342 -0.0885  0.4969 -0.5473
  960MOL0     C29531  10.678  10.841   1.034 -0.9214 -0.8899 -1.0666
  960MOL0     C29532  10.562  10.923   1.040 -0.5508  0.1009 -0.1238
  960MOL0     H29533  10.121  11.034   1.155 -0.0284 -0.7386  0.0385
  960MOL0     H29534   9.891  11.146   1.157 -2.3679  2.0963 -0.3503
  960MOL0     H29535   9.690  11.309   1.150  0.6806 -0.3540  0.2015
  960MOL0     H29536   9.823  11.353   1.260  0.3848 -0.2289  0.6601
  960MOL0     H29537   9.638  11.551   1.126  1.0814  1.2624  1.4135
  960MOL0     H29538   9.617  11.466   1.280 -1.0372  1.3055 -0.3885
  960MOL0     H29539   9.808  11.591   1.371  0.4038  0.0246 -0.6021
  960MOL0     H29540   9.853  11.656   1.218  0.5071 -0.9719 -0.1403
  960MOL0     H29541   9.722  11.828   1.322 -2.3364  0.9615  1.2919
  960MOL0     H29542   9.610  11.761   1.224 -0.4321 -1.7818  0.4779
  960MOL0     H29543   9.494  11.640   1.406  0.3890 -0.3244 -0.0298
  960MOL0     H29544   9.633  11.664   1.505 -0.3607  1.1133  0.6524
  960MOL0     H29545   9.447  11.793   1.562  0.5015 -4.1427 -0.1609
  960MOL0     H29546   9.599  11.890   1.517  2.0054 -1.0245 -1.8654
  960MOL0     H29547   9.384  11.999   1.445  1.1830  0.8516 -0.7735
  960MOL0     H29548   9.486  11.955   1.306 -1.6445  1.7261 -0.0353
  960MOL0     H29549   9.367  11.754   1.265  2.7619 -0.2923  3.0784
  960MOL0     H29550   9.261  11.886   1.247  0.1726  1.5235  1.6018
  960MOL0     H29551   9.174  11.936   1.548 -0.0054  0.3050 -3.6809
  960MOL0     H29552   9.082  11.692   1.788  0.1241  0.3512  0.3891
  960MOL0     H29553   9.014  11.842   1.728  1.0526 -0.1223  1.1195
  960MOL0     H29554   8.846  11.689   1.574  1.5540  0.6848  0.5728
  960MOL0     H29555   8.804  11.702   1.742  0.4416  2.1043  0.8372
  960MOL0     H29556   8.969  11.466   1.739 -1.0592 -0.0559  0.9449
  960MOL0     H29557   8.903  11.467   1.572 -0.5096 -1.1247 -0.0661
  960MOL0     H29558   8.764  11.436   1.827  1.1381  2.2693  0.3398
  960MOL0     H29559   8.774  11.331   1.682 -0.2951 -2.3923  2.0264
  960MOL0     H29560   8.454  11.673   1.614  0.1719  0.1169  0.4691
  960MOL0     H29561   8.136  11.667   1.615 -0.2555  0.4241 -0.6598
  960MOL0     H29562   8.150  11.703   1.787 -2.9898  0.3916 -2.1329
  960MOL0     H29563   8.268  11.767   1.680  1.5866 -1.0772 -1.9280
  960MOL0     H29564   7.909  11.645   1.947 -1.0470 -0.0056  1.7324
  960MOL0     H29565   7.674  11.617   2.027  0.2781  0.1847 -1.0655
  960MOL0     H29566   7.535  11.496   2.191  0.8000 -1.8104 -1.3594
  960MOL0     H29567   7.478  11.582   2.047  1.2937 -0.4815 -2.4040
  960MOL0     H29568   7.293  11.369   2.076  1.9881 -0.7123  0.2388
  960MOL0     H29569   7.335  11.395   2.234 -0.5629  1.4394  0.5361
  960MOL0     H29570   7.260  11.650   2.100  1.0865  0.9234  1.2010
  960MOL0     H29571   7.263  11.602   2.269 -2.3808  0.8859 -0.2087
  960MOL0     H29572   7.033  11.616   2.221 -0.0339  0.7398 -0.2819
  960MOL0     H29573   7.055  11.566   2.054  2.4134  1.8451 -0.0897
  960MOL0     H29574   7.017  11.426   2.315  0.4139 -0.7566  1.1952
  960MOL0     H29575   7.107  11.330   2.184 -0.0787  1.2607 -2.2167
  960MOL0     H29576   6.898  11.379   2.036 -1.4329 -1.5530  0.1557
  960MOL0     H29577   6.913  11.258   2.155  1.0874  0.4421 -0.8589
  960MOL0     H29578   6.776  11.539   2.184  0.1061  0.2142 -0.0355
  960MOL0     H29579   6.793  11.431   2.322  0.9263  3.8914  0.7854
  960MOL0     H29580   6.674  11.259   2.233 -1.7294 -0.4047  1.1468
  960MOL0     H29581   6.655  11.326   2.077 -0.1222 -0.6608  0.0371
  960MOL0     H29582   7.691  11.214   1.884  0.9860 -2.1347  2.8148
  960MOL0     H29583   7.892  11.251   1.782  0.5333 -0.7145  0.9042
  960MOL0     H29584   8.339  11.266   1.876  0.8328  0.0687  0.1477
  960MOL0     H29585   8.567  11.282   1.771 -0.6473  0.0131 -0.0493
  960MOL0     H29586  10.075  11.463   0.940  0.1581 -1.0906 -1.5757
  960MOL0     H29587  10.283  11.368   0.948 -1.1292 -0.6219 -2.0818
  960MOL0     H29588  10.702  11.180   1.223  1.6829 -0.5649  0.7999
  960MOL0     H29589  10.894  11.044   1.181 -0.5806 -0.3144 -0.2851
  960MOL0     H29590  11.029  10.823   0.911 -1.2944 -0.4526 -0.9123
  960MOL0     H29591  11.018  10.975   0.993 -0.2072  0.3573  0.6965
  960MOL0     H29592  11.232  10.827   1.024  1.9835 -4.3419  2.1204
  960MOL0     H29593  11.128  10.722   1.128 -0.7886 -0.0685 -0.3636
  960MOL0     H29594  11.260  10.861   1.274  1.5498  0.7879 -0.3184
  960MOL0     H29595  11.103  10.942   1.262 -0.4399 -1.8325  0.2748
  960MOL0     H29596  11.196  11.091   1.095 -1.5602 -1.5228  0.9921
  960MOL0     H29597  11.350  10.995   1.080 -1.1091 -0.3242 -2.2492
  960MOL0     H29598  11.449  11.225   1.410  0.5679 -0.1972 -0.5279
  960MOL0     H29599  10.681  10.748   0.979  3.7762 -0.2441 -2.3583
  960MOL0     H29600  10.471  10.877   1.004  1.4736 -3.1684 -1.4460
  961MOL0     O29601   9.739   2.865   5.658 -0.0949  0.1728  0.0872
  961MOL0     C29602   9.840   2.823   5.587 -0.1209 -0.1823 -0.5426
  961MOL0     O29603   9.829   2.779   5.463 -0.7502  0.1997 -0.1837
  961MOL0     C29604   9.708   2.786   5.402  0.3310  0.7295  0.6674
  961MOL0     C29605   9.646   2.912   5.392  0.4451  0.4618 -0.4084
  961MOL0     C29606   9.525   2.929   5.323 -0.6576 -0.2707 -0.2467
  961MOL0     C29607   9.465   2.822   5.253  0.3420 -0.3288  0.1238
  961MOL0     O29608   9.354   2.828   5.181  0.1856 -0.0198 -0.1191
  961MOL0     C29609   9.271   2.947   5.180  0.2959  0.0006 -0.4294
  961MOL0     C29610   9.179   2.927   5.063  0.1083 -0.0118 -0.0902
  961MOL0     C29611   9.054   2.847   5.102 -0.7346 -0.0318  0.5649
  961MOL0     C29612   8.988   2.808   4.966  0.1348  0.0734  0.0994
  961MOL0     C29613   8.876   2.710   4.999 -0.4401  0.6472  1.3035
  961MOL0     C29614   8.753   2.772   5.085 -0.1465  0.0702 -0.2356
  961MOL0     C29615   8.699   2.898   5.014  0.4355 -0.5786  0.1744
  961MOL0     C29616   8.571   2.948   5.093 -0.8687 -0.2504  0.3683
  961MOL0     N29617   8.446   2.873   5.073  0.3550  1.3040  0.3955
  961MOL0     C29618   8.348   2.896   4.979 -0.4506  0.2988  0.6656
  961MOL0     C29619   8.254   2.798   5.015 -0.0967 -0.5303 -0.7961
  961MOL0     C29620   8.126   2.787   4.935  0.5540 -0.2643  0.2290
  961MOL0     C29621   8.027   2.879   5.000  0.0152 -0.2279 -0.2125
  961MOL0     C29622   8.016   2.871   5.151 -0.3480 -0.1007 -0.6822
  961MOL0     C29623   7.902   2.955   5.208 -0.7098 -0.1463  0.1388
  961MOL0     O29624   7.779   2.921   5.144 -0.2466 -0.3360 -0.2831
  961MOL0     C29625   7.651   2.950   5.197  0.6200 -0.2769 -0.5073
  961MOL0     C29626   7.626   2.991   5.333  0.2469 -0.2917  0.4598
  961MOL0     C29627   7.501   3.025   5.385 -0.8384  0.5133  0.2099
  961MOL0     C29628   7.517   3.068   5.526  0.3034  0.2238 -1.0644
  961MOL0     C29629   7.389   3.005   5.299  0.1707  0.7587  0.8062
  961MOL0     C29630   7.250   3.011   5.347 -0.9659 -0.3864 -0.6505
  961MOL0     O29631   7.157   2.944   5.268 -0.1364  0.0567 -0.2480
  961MOL0     C29632   7.036   2.937   5.319 -0.0250 -0.1227  0.2349
  961MOL0     C29633   7.013   2.892   5.450  0.3760  0.8596  0.7064
  961MOL0     C29634   6.887   2.887   5.505  0.5480  0.2229 -0.5830
  961MOL0     C29635   6.774   2.922   5.425 -0.6107  0.4026 -0.2357
  961MOL0     O29636   6.658   2.913   5.497  0.7978 -0.1051  0.2097
  961MOL0     C29637   6.536   2.921   5.421  0.3657 -0.5170  1.2479
  961MOL0     C29638   6.419   2.886   5.511  0.0842  0.6313  0.2532
  961MOL0     C29639   6.407   2.961   5.638  0.4579  0.1665  0.1564
  961MOL0     C29640   6.293   2.904   5.718 -0.0668 -0.7038 -1.1731
  961MOL0     C29641   6.262   2.967   5.848 -0.2147 -0.4055 -0.1702
  961MOL0     C29642   6.171   2.873   5.927  0.5059  0.1000  0.4571
  961MOL0     C29643   6.168   2.910   6.078  0.8907  0.0856  0.0427
  961MOL0     C29644   6.034   2.870   6.140  0.0145  0.7866 -0.1238
  961MOL0    Cl29645   5.908   2.976   6.069 -0.5405  0.2566 -0.0919
  961MOL0     C29646   6.793   2.952   5.292  0.4929 -0.5004 -0.1626
  961MOL0     C29647   6.924   2.953   5.231 -0.0574 -0.3604 -0.4436
  961MOL0     O29648   7.236   3.083   5.443  0.3680  0.0220  0.1342
  961MOL0     C29649   7.406   2.970   5.158 -0.6399  0.2100  0.2023
  961MOL0     C29650   7.540   2.940   5.115  1.3284 -0.2434 -0.7204
  961MOL0     N29651   8.300   2.712   5.111  0.2444 -0.3206  0.1759
  961MOL0     N29652   8.412   2.762   5.152 -0.1119 -0.3218 -0.4824
  961MOL0     C29653   9.541   2.703   5.240  0.2072 -0.2373 -1.1576
  961MOL0     C29654   9.661   2.690   5.314 -0.6556  0.3785  0.0456
  961MOL0     C29655   9.973   2.839   5.649  0.3516 -0.3105  0.1170
  961MOL0     C29656  10.078   2.768   5.585 -0.2249  0.5303  0.5899
  961MOL0     C29657  10.198   2.760   5.638 -0.2257 -0.6051 -0.5740
  961MOL0     C29658  10.230   2.826   5.753 -0.0103 -0.7031 -0.3009
  961MOL0     O29659  10.354   2.838   5.816  0.6031 -0.1637  0.7409
  961MOL0     C29660  10.462   2.749   5.780  0.2717 -0.4620 -0.3779
  961MOL0     C29661  10.538   2.804   5.658 -0.0055 -1.5833 -0.5756
  961MOL0     C29662  10.650   2.710   5.609  0.4758 -0.4421  0.0094
  961MOL0     C29663  10.743   2.765   5.498 -0.2033 -0.1020 -0.2370
  961MOL0     C29664  10.660   2.786   5.377  0.7870  0.2607  0.5467
  961MOL0     C29665  10.593   2.810   5.281  1.0729  0.0063  0.4363
  961MOL0     C29666  10.124   2.900   5.820 -0.6212  0.4398  0.2126
  961MOL0     C29667   9.998   2.910   5.767  0.1476  0.7352  0.5448
  961MOL0     H29668   9.694   2.998   5.438 -0.3101  0.8082 -0.2494
  961MOL0     H29669   9.477   3.026   5.329  1.7011  0.9482  0.0038
  961MOL0     H29670   9.204   2.965   5.264  0.0969 -0.0699 -0.5731
  961MOL0     H29671   9.333   3.036   5.162 -0.0147  0.9212  2.5277
  961MOL0     H29672   9.148   3.027   5.030  1.7425  0.2951 -0.8046
  961MOL0     H29673   9.239   2.883   4.982 -0.1842  0.2533 -0.4575
  961MOL0     H29674   9.083   2.760   5.162  0.0454  0.9201  1.6153
  961MOL0     H29675   8.976   2.893   5.164  1.6738  0.9671  3.0602
  961MOL0     H29676   8.947   2.894   4.911 -0.4969 -1.1482 -1.4190
  961MOL0     H29677   9.060   2.751   4.908  1.6279  3.1556 -1.3197
  961MOL0     H29678   8.846   2.672   4.901 -1.5750  0.7698  1.5972
  961MOL0     H29679   8.913   2.632   5.067  0.1480  2.1518  2.8072
  961MOL0     H29680   8.674   2.696   5.093  0.3124 -0.2491  1.8331
  961MOL0     H29681   8.779   2.783   5.191 -0.2151 -1.4611 -0.0268
  961MOL0     H29682   8.775   2.977   5.022 -0.0540 -0.2532  2.5196
  961MOL0     H29683   8.677   2.867   4.912  2.4108 -2.6797  0.2877
  961MOL0     H29684   8.553   3.046   5.047 -0.6055 -0.6122 -0.5142
  961MOL0     H29685   8.591   2.963   5.200  0.3836  0.2859  0.0772
  961MOL0     H29686   8.331   2.983   4.916 -0.8201  1.5130  2.3628
  961MOL0     H29687   8.152   2.810   4.831  1.5684 -3.9910 -0.5175
  961MOL0     H29688   8.087   2.685   4.938  0.2513 -0.1423  0.3485
  961MOL0     H29689   7.933   2.848   4.952  0.4854 -0.4704 -1.0026
  961MOL0     H29690   8.054   2.980   4.969 -0.2768  0.5741  2.0011
  961MOL0     H29691   8.107   2.919   5.190  1.1633 -2.0973 -1.5772
  961MOL0     H29692   8.019   2.768   5.186 -0.8989 -0.3451 -1.3472
  961MOL0     H29693   7.917   3.062   5.189 -0.3633  0.1126  1.7320
  961MOL0     H29694   7.894   2.931   5.314  1.4694  0.4028  0.4753
  961MOL0     H29695   7.711   2.993   5.400  0.7148 -1.3990 -0.0923
  961MOL0     H29696   7.465   3.161   5.550  0.3879 -0.5056  2.3952
  961MOL0     H29697   7.471   2.991   5.588 -1.1683 -0.0364 -2.4307
  961MOL0     H29698   7.620   3.074   5.563 -0.1380 -4.3477  1.6613
  961MOL0     H29699   7.095   2.850   5.508  0.4690 -0.7538 -0.5045
  961MOL0     H29700   6.865   2.850   5.604 -0.4412 -2.7027 -1.7898
  961MOL0     H29701   6.524   3.024   5.388 -2.8833 -0.7786  1.2239
  961MOL0     H29702   6.520   2.864   5.328 -2.7222  2.6599 -0.4082
  961MOL0     H29703   6.334   2.903   5.445  1.3259 -1.3986 -1.9984
  961MOL0     H29704   6.426   2.779   5.529 -1.4064  0.4287 -0.1909
  961MOL0     H29705   6.390   3.064   5.605  0.3674 -0.3691 -1.5384
  961MOL0     H29706   6.503   2.950   5.691  1.5188 -0.6811 -1.8385
  961MOL0     H29707   6.200   2.914   5.662 -0.7767 -3.0684 -0.5345
  961MOL0     H29708   6.320   2.799   5.728  1.4756 -0.2904 -0.7279
  961MOL0     H29709   6.215   3.065   5.840  1.2303  0.2302 -1.2228
  961MOL0     H29710   6.356   2.978   5.902 -1.3764 -0.1236  1.9035
  961MOL0     H29711   6.073   2.874   5.877  0.3405  0.1920  0.7802
  961MOL0     H29712   6.203   2.769   5.917  0.0759  0.1696 -3.6835
  961MOL0     H29713   6.181   3.016   6.102 -1.4214  1.0761 -2.6047
  961MOL0     H29714   6.246   2.850   6.127  1.2025  0.0914 -0.4425
  961MOL0     H29715   6.033   2.878   6.249  1.1438  0.7473 -0.0978
  961MOL0     H29716   6.009   2.766   6.122  0.3764  1.0302 -2.4707
  961MOL0     H29717   6.709   2.982   5.230 -0.7565 -1.1849  1.1547
  961MOL0     H29718   6.938   2.978   5.126  1.4422  2.6062  0.3224
  961MOL0     H29719   7.329   2.952   5.084 -1.1633 -2.6580  1.3108
  961MOL0     H29720   7.554   2.910   5.012 -1.6565 -1.7597 -0.7669
  961MOL0     H29721   9.500   2.622   5.180 -0.2067 -1.3531  0.5280
  961MOL0     H29722   9.720   2.599   5.310  2.2256  2.1614 -0.5176
  961MOL0     H29723  10.057   2.707   5.498  1.3823 -0.4294  0.8410
  961MOL0     H29724  10.279   2.697   5.602 -0.7428  0.2870 -3.5471
  961MOL0     H29725  10.537   2.731   5.857  1.6382 -0.3398 -1.6247
  961MOL0     H29726  10.422   2.650   5.758  0.1754 -0.7963  1.2416
  961MOL0     H29727  10.578   2.897   5.700 -0.9132 -0.9362 -1.0904
  961MOL0     H29728  10.470   2.827   5.576  0.9240 -1.1215 -1.2254
  961MOL0     H29729  10.606   2.613   5.587  0.8713 -1.6621  3.8363
  961MOL0     H29730  10.716   2.683   5.693  1.4621 -1.9168 -1.1901
  961MOL0     H29731  10.819   2.692   5.471 -0.7856 -1.7698  2.2768
  961MOL0     H29732  10.792   2.858   5.527 -3.3668  0.9109  2.6312
  961MOL0     H29733  10.547   2.826   5.185  0.4405 -0.8758  0.5779
  961MOL0     H29734  10.157   2.943   5.914  3.6368 -2.6448  0.4448
  961MOL0     H29735   9.923   2.964   5.823 -0.1807 -1.5951  2.4877
  962MOL0     O29736   2.118   3.531   8.079 -0.6098  0.2186  0.5095
  962MOL0     C29737   2.079   3.468   7.984  1.0752  1.1643  0.0942
  962MOL0     O29738   2.141   3.456   7.868 -0.1875 -0.0907  0.1206
  962MOL0     C29739   2.251   3.527   7.833  0.0548 -0.3568  0.4713
  962MOL0     C29740   2.243   3.612   7.717  0.3141 -0.2789  0.4213
  962MOL0     C29741   2.361   3.660   7.661 -1.3358 -0.7060 -0.1967
  962MOL0     C29742   2.487   3.648   7.726  0.8281  1.0885  0.7967
  962MOL0     O29743   2.591   3.716   7.667 -0.1612  0.6180 -0.1366
  962MOL0     C29744   2.693   3.757   7.760 -0.2484 -0.0112  1.1027
  962MOL0     C29745   2.716   3.903   7.710  1.0581  0.0720 -0.4557
  962MOL0     C29746   2.591   4.004   7.710 -0.2673  0.8320  0.1925
  962MOL0     C29747   2.529   4.029   7.844 -0.7942 -0.3089  0.4966
  962MOL0     C29748   2.378   4.030   7.839 -0.1784  0.4515  1.1550
  962MOL0     C29749   2.324   4.053   7.981  0.5222  0.4809  0.3061
  962MOL0     C29750   2.171   4.022   7.980  0.1137  0.8622  0.2810
  962MOL0     C29751   2.142   3.878   8.032  0.4925  0.2844  0.0073
  962MOL0     N29752   1.999   3.846   8.008 -0.4640  0.4663 -1.0768
  962MOL0     C29753   1.944   3.792   7.895 -0.6215  0.0004 -0.1725
  962MOL0     C29754   1.815   3.763   7.924 -0.5992 -0.2634 -0.9251
  962MOL0     C29755   1.721   3.701   7.825 -0.2340  0.9285  0.3779
  962MOL0     C29756   1.584   3.748   7.837 -0.1384  0.4837  0.1310
  962MOL0     C29757   1.494   3.660   7.750 -0.4120 -0.3454  0.0825
  962MOL0     C29758   1.341   3.683   7.771  0.1571  0.6362 -0.3991
  962MOL0     O29759   1.300   3.701   7.910  0.4458 -0.4900 -0.4185
  962MOL0     C29760   1.166   3.723   7.933 -0.2841 -0.6905  0.7073
  962MOL0     C29761   1.059   3.718   7.844  0.7822  0.0673  0.6497
  962MOL0     C29762   0.923   3.760   7.879  0.0194 -0.0980 -0.0312
  962MOL0     C29763   0.823   3.746   7.763  0.3923  0.1205  0.8983
  962MOL0     C29764   0.902   3.809   8.018  1.3923 -0.0064  0.3094
  962MOL0     C29765   0.772   3.866   8.071 -0.2644  0.1030 -1.1117
  962MOL0     O29766   0.759   3.872   8.208 -1.2507 -0.7470  0.2092
  962MOL0     C29767   0.633   3.912   8.242 -0.6063  0.1737 -0.0663
  962MOL0     C29768   0.596   4.047   8.246 -0.0629 -0.1733 -0.4021
  962MOL0     C29769   0.473   4.083   8.281 -0.1251  0.4473 -0.3797
  962MOL0     C29770   0.368   3.986   8.314 -0.7784  0.5054  0.0579
  962MOL0     O29771   0.239   4.009   8.347 -1.6196  0.1208 -0.6871
  962MOL0     C29772   0.200   4.143   8.363  0.5486 -1.2740 -0.7100
  962MOL0     C29773   0.049   4.162   8.403 -0.1818 -1.0189  0.6108
  962MOL0     C29774   0.020   4.314   8.416  0.2667 -0.2022 -1.5006
  962MOL0     C29775  -0.128   4.342   8.445 -0.1558 -0.0591 -0.5492
  962MOL0     C29776  -0.151   4.486   8.455  0.3362 -0.5111 -0.3417
  962MOL0     C29777  -0.299   4.502   8.503 -0.1551 -0.0305  0.0976
  962MOL0     C29778  -0.320   4.650   8.517 -0.4820 -0.7153  0.8859
  962MOL0     C29779  -0.466   4.677   8.550  0.4393 -0.2072  0.3230
  962MOL0    Cl29780  -0.516   4.822   8.465  0.1840  0.2722 -0.5198
  962MOL0     C29781   0.406   3.857   8.300 -0.4682  0.7616 -0.1709
  962MOL0     C29782   0.537   3.812   8.271 -0.1963 -0.7864  0.1873
  962MOL0     O29783   0.688   3.904   7.984 -0.1866  0.4058  0.5474
  962MOL0     C29784   1.008   3.787   8.108  0.3220 -0.1907 -0.0374
  962MOL0     C29785   1.134   3.740   8.070 -0.5209 -0.9019  0.3188
  962MOL0     N29786   1.792   3.816   8.051  0.2170 -0.0507 -0.0173
  962MOL0     N29787   1.898   3.859   8.105  0.1497  0.0422  0.3897
  962MOL0     C29788   2.493   3.554   7.832 -0.4666  0.1974 -0.0714
  962MOL0     C29789   2.374   3.500   7.888 -0.9525  0.0098  0.3003
  962MOL0     C29790   1.951   3.389   7.999  0.4006  0.2402 -0.0772
  962MOL0     C29791   1.858   3.424   8.096  0.2377  0.0196 -0.1044
  962MOL0     C29792   1.731   3.360   8.101  0.2437 -0.2988  1.8008
  962MOL0     C29793   1.692   3.261   8.008 -0.9710 -0.3341  0.4659
  962MOL0     O29794   1.576   3.198   8.009 -0.0616 -0.2466 -0.1383
  962MOL0     C29795   1.495   3.212   8.131 -0.1159  0.0034 -0.6375
  962MOL0     C29796   1.365   3.131   8.115  0.0348  0.5016 -0.6547
  962MOL0     C29797   1.256   3.155   8.227 -0.8038 -0.4740 -0.7730
  962MOL0     C29798   1.296   3.118   8.377 -0.0373  0.4743 -1.0436
  962MOL0     C29799   1.359   2.983   8.381  0.8577  0.1409 -0.5634
  962MOL0     C29800   1.410   2.876   8.380  0.4783  0.5004 -0.2708
  962MOL0     C29801   1.792   3.224   7.904  0.3068  0.8346  0.4905
  962MOL0     C29802   1.919   3.294   7.901 -0.1491 -0.2258  0.3389
  962MOL0     H29803   2.147   3.615   7.667  2.0762 -0.9661 -3.3828
  962MOL0     H29804   2.351   3.717   7.569 -2.3497 -0.4667  0.0505
  962MOL0     H29805   2.660   3.757   7.864 -3.7693  0.0767  0.1144
  962MOL0     H29806   2.783   3.697   7.744  0.5369  0.8487  2.1688
  962MOL0     H29807   2.795   3.940   7.776  0.9865 -2.0915  0.9290
  962MOL0     H29808   2.750   3.901   7.606 -0.6252 -1.6083 -1.0354
  962MOL0     H29809   2.632   4.100   7.676  0.1781  1.0207  1.2305
  962MOL0     H29810   2.517   3.962   7.641 -1.2749  3.0117 -0.1458
  962MOL0     H29811   2.577   3.952   7.905  1.1472 -2.4099 -3.3788
  962MOL0     H29812   2.557   4.130   7.877 -2.1891  0.7722 -1.4196
  962MOL0     H29813   2.347   4.107   7.767 -0.6159  1.3733  2.2940
  962MOL0     H29814   2.341   3.933   7.806 -2.0918  1.5814 -0.2442
  962MOL0     H29815   2.370   3.996   8.062  0.7021 -1.3968 -1.0460
  962MOL0     H29816   2.343   4.159   8.001  1.2789  1.4302 -4.2749
  962MOL0     H29817   2.119   4.092   8.046 -0.1625 -0.3634  1.4153
  962MOL0     H29818   2.128   4.035   7.880 -0.8295 -1.5628  0.3136
  962MOL0     H29819   2.164   3.865   8.138  0.7980 -1.1074 -0.2116
  962MOL0     H29820   2.211   3.806   7.989  1.6043  0.0872  2.0290
  962MOL0     H29821   1.998   3.765   7.804 -0.0224  1.7634 -0.3807
  962MOL0     H29822   1.759   3.712   7.723 -2.0366  0.5398 -0.3680
  962MOL0     H29823   1.716   3.598   7.862 -0.8116  1.8148  2.9850
  962MOL0     H29824   1.573   3.855   7.820 -1.0619  0.7753  2.2851
  962MOL0     H29825   1.556   3.730   7.941 -0.3993 -4.6677 -0.5487
  962MOL0     H29826   1.506   3.551   7.758 -4.0321 -0.9693 -0.9805
  962MOL0     H29827   1.520   3.678   7.645 -0.2918  1.8797  0.4433
  962MOL0     H29828   1.280   3.601   7.732  3.8884 -1.7561 -1.7063
  962MOL0     H29829   1.300   3.764   7.711 -0.6150  0.1129 -0.5925
  962MOL0     H29830   1.075   3.684   7.742 -2.6729 -4.0243  1.2082
  962MOL0     H29831   0.783   3.651   7.728 -1.2861  1.5264 -1.3417
  962MOL0     H29832   0.737   3.810   7.784  0.9749  1.4749 -0.5905
  962MOL0     H29833   0.872   3.794   7.677  0.3561 -0.7901  0.3576
  962MOL0     H29834   0.661   4.129   8.220  1.0819 -1.6545 -2.4214
  962MOL0     H29835   0.449   4.188   8.287 -0.3146  0.4872 -1.5680
  962MOL0     H29836   0.258   4.182   8.448 -2.1341 -1.4799  1.3308
  962MOL0     H29837   0.225   4.202   8.275  1.0865 -0.6675 -0.1638
  962MOL0     H29838  -0.010   4.114   8.324  1.0816 -2.8864  0.7300
  962MOL0     H29839   0.020   4.116   8.498 -3.2667  0.6706  0.5870
  962MOL0     H29840   0.060   4.375   8.335  2.4142  1.1519  0.4336
  962MOL0     H29841   0.072   4.347   8.506 -1.4478 -1.4230  0.0308
  962MOL0     H29842  -0.190   4.302   8.365  0.5692  0.4490 -1.3741
  962MOL0     H29843  -0.155   4.291   8.538 -0.2027  0.3825 -0.3188
  962MOL0     H29844  -0.137   4.535   8.359 -0.3293  1.6018  0.5694
  962MOL0     H29845  -0.097   4.550   8.526  1.3753  1.9041 -3.1431
  962MOL0     H29846  -0.366   4.470   8.422  0.2872  0.7414 -0.5827
  962MOL0     H29847  -0.319   4.458   8.601  2.4947 -1.4212  0.0784
  962MOL0     H29848  -0.290   4.695   8.421  3.7793 -1.2899  1.7421
  962MOL0     H29849  -0.254   4.698   8.590  2.5086  0.3282 -2.1718
  962MOL0     H29850  -0.476   4.705   8.655  1.8377  4.1436 -0.5187
  962MOL0     H29851  -0.529   4.591   8.524  1.8107 -0.9160 -0.8241
  962MOL0     H29852   0.335   3.786   8.341 -0.8687  0.9915 -0.4626
  962MOL0     H29853   0.579   3.711   8.272  1.0511 -0.3689  4.1413
  962MOL0     H29854   0.991   3.802   8.214 -0.6548  0.8053 -0.3154
  962MOL0     H29855   1.216   3.733   8.140  1.0674 -1.7421 -1.5295
  962MOL0     H29856   2.588   3.536   7.881  0.6967 -0.7917 -2.5547
  962MOL0     H29857   2.376   3.449   7.984 -1.2046  0.4910  0.5639
  962MOL0     H29858   1.860   3.504   8.169  0.1234 -0.9160  0.9523
  962MOL0     H29859   1.650   3.396   8.163 -0.9166 -0.3026  0.3288
  962MOL0     H29860   1.557   3.173   8.213  0.0450 -1.8109 -1.5517
  962MOL0     H29861   1.466   3.315   8.153 -1.1147 -0.4510  0.2684
  962MOL0     H29862   1.397   3.027   8.108  0.5145  0.3334  2.5296
  962MOL0     H29863   1.318   3.163   8.022 -1.0502  1.3139  0.1384
  962MOL0     H29864   1.164   3.105   8.195 -2.2982  0.4054  1.7669
  962MOL0     H29865   1.239   3.263   8.218 -0.7629 -0.5051 -1.2020
  962MOL0     H29866   1.211   3.115   8.446 -1.0310 -1.1781 -2.2632
  962MOL0     H29867   1.369   3.189   8.415  1.4703 -1.1292 -0.8228
  962MOL0     H29868   1.451   2.777   8.384  0.8563  0.6221 -1.0016
  962MOL0     H29869   1.779   3.140   7.836 -0.6749 -1.1492  2.9729
  962MOL0     H29870   1.985   3.266   7.819  1.3150 -0.4613  1.5605
  963MOL0     O29871   2.835   2.617  10.300  0.0793 -0.3452  1.0294
  963MOL0     C29872   2.799   2.504  10.299  0.4107 -0.1419 -0.8599
  963MOL0     O29873   2.677   2.459  10.263  0.6065 -0.0696 -0.5355
  963MOL0     C29874   2.573   2.552  10.222 -1.2555  1.3319 -0.2258
  963MOL0     C29875   2.449   2.510  10.243  0.8767  0.3388  0.9790
  963MOL0     C29876   2.336   2.591  10.202  0.5844  0.8580  0.4078
  963MOL0     C29877   2.360   2.708  10.135  0.1254 -1.1098 -0.1357
  963MOL0     O29878   2.242   2.774  10.101 -0.5300 -0.4917  0.2222
  963MOL0     C29879   2.255   2.915  10.061 -0.1065  0.8276 -0.1156
  963MOL0     C29880   2.117   2.953  10.015  0.1159 -0.1982  0.4064
  963MOL0     C29881   2.078   2.863   9.889  0.1265  0.8746  1.2212
  963MOL0     C29882   1.993   2.941   9.787 -0.5358 -0.0130 -0.0258
  963MOL0     C29883   1.939   2.845   9.690 -0.7740  0.0911 -0.9034
  963MOL0     C29884   1.834   2.902   9.605  0.3674  0.4683  0.1048
  963MOL0     C29885   1.774   2.792   9.506 -0.6033 -0.0879 -0.4392
  963MOL0     C29886   1.623   2.796   9.512  0.0250  0.5695 -0.2745
  963MOL0     N29887   1.560   2.722   9.629  0.0105 -0.2482 -0.4958
  963MOL0     C29888   1.572   2.759   9.767 -1.2886  0.8338  0.3961
  963MOL0     C29889   1.500   2.661   9.831  0.4897 -0.3315  0.6137
  963MOL0     C29890   1.498   2.649   9.980 -0.4535 -0.1761  0.2424
  963MOL0     C29891   1.643   2.619  10.014  0.2722  0.5087  0.6287
  963MOL0     C29892   1.683   2.469   9.988  0.0652 -0.1267  0.1584
  963MOL0     C29893   1.834   2.427   9.999  0.7365 -0.3203 -0.3644
  963MOL0     O29894   1.907   2.517   9.908  0.3259 -0.0798  0.0861
  963MOL0     C29895   2.033   2.472   9.879  0.2257  0.0437 -0.8339
  963MOL0     C29896   2.085   2.543   9.769 -0.3132  0.0992 -0.0788
  963MOL0     C29897   2.224   2.542   9.750  0.8414  0.3034 -0.4637
  963MOL0     C29898   2.278   2.626   9.632 -0.0349  0.4870  0.4151
  963MOL0     C29899   2.306   2.467   9.841 -0.3138 -0.4743  0.5778
  963MOL0     C29900   2.453   2.437   9.825  0.2573  0.2256  1.0897
  963MOL0     O29901   2.509   2.344   9.908 -0.3914  0.5072 -0.2268
  963MOL0     C29902   2.639   2.314   9.926 -0.3368  0.2340  0.3880
  963MOL0     C29903   2.673   2.254  10.045  0.1220 -0.8385 -0.0200
  963MOL0     C29904   2.801   2.210  10.075 -0.2884  0.4211  0.1955
  963MOL0     C29905   2.896   2.219   9.967 -0.0398 -0.0536 -0.6232
  963MOL0     O29906   3.023   2.170   9.977  0.0968  0.4051 -0.0620
  963MOL0     C29907   3.075   2.129  10.101  0.6842 -0.2667 -1.1308
  963MOL0     C29908   3.212   2.066  10.106  0.0596  0.0191  0.5225
  963MOL0     C29909   3.328   2.150  10.069  0.1784 -0.1200  0.5476
  963MOL0     C29910   3.457   2.067  10.065  0.2829 -0.2189 -0.5864
  963MOL0     C29911   3.577   2.149  10.016  0.3728 -0.6247 -1.2335
  963MOL0     C29912   3.624   2.247  10.116 -0.7579  0.0045 -0.4833
  963MOL0     C29913   3.706   2.352  10.053 -0.2649  0.1579 -0.7970
  963MOL0     C29914   3.839   2.315   9.988  0.3075 -1.0519 -0.1749
  963MOL0    Cl29915   3.959   2.248  10.109 -0.5115 -0.1800  0.2654
  963MOL0     C29916   2.856   2.281   9.850 -0.0395  0.0154 -0.1293
  963MOL0     C29917   2.728   2.321   9.826 -1.3259 -0.1200  0.2319
  963MOL0     O29918   2.518   2.503   9.742 -0.1235 -0.3943 -0.2784
  963MOL0     C29919   2.244   2.393   9.940  0.1093 -0.1025  0.8609
  963MOL0     C29920   2.111   2.391   9.968  1.0308 -0.5263 -0.2078
  963MOL0     N29921   1.448   2.574   9.739 -0.3126  0.0280  0.7668
  963MOL0     N29922   1.483   2.615   9.616 -0.3217 -0.3972 -0.7204
  963MOL0     C29923   2.487   2.740  10.101 -0.5010 -0.0572  0.2911
  963MOL0     C29924   2.599   2.668  10.141  0.6843  0.0421 -0.4138
  963MOL0     C29925   2.890   2.403  10.361  0.9831  0.1435  0.6265
  963MOL0     C29926   3.023   2.434  10.390 -0.7696  0.2599  0.4307
  963MOL0     C29927   3.103   2.341  10.440  0.3889 -0.0527  0.3648
  963MOL0     C29928   3.056   2.212  10.466 -1.3279 -0.9995  1.1515
  963MOL0     O29929   3.134   2.104  10.507 -0.1229  0.0892  0.2428
  963MOL0     C29930   3.256   2.134  10.571 -0.4823 -0.6685  0.3122
  963MOL0     C29931   3.311   2.003  10.624 -0.1207  0.5018  0.1746
  963MOL0     C29932   3.229   1.940  10.737  0.8069  0.7054  0.1136
  963MOL0     C29933   3.299   1.813  10.794 -0.1122 -0.6734 -0.0942
  963MOL0     C29934   3.319   1.700  10.701  0.2707  0.3421  0.0331
  963MOL0     C29935   3.342   1.598  10.646  0.3195 -0.1172  0.7086
  963MOL0     C29936   2.919   2.184  10.450 -0.1046  0.3479 -0.6453
  963MOL0     C29937   2.835   2.275  10.389  0.2401 -0.5280  0.1493
  963MOL0     H29938   2.437   2.415  10.294  2.2055 -0.3977 -0.0265
  963MOL0     H29939   2.233   2.558  10.213  0.0036  2.8558  1.4505
  963MOL0     H29940   2.271   2.983  10.146 -1.5892  1.0800 -0.0174
  963MOL0     H29941   2.334   2.934   9.988 -0.2371 -1.3339 -0.8745
  963MOL0     H29942   2.053   2.935  10.101  0.0915 -2.5481 -0.0512
  963MOL0     H29943   2.122   3.061   9.999  1.4724 -0.6047 -2.6677
  963MOL0     H29944   2.162   2.829   9.829 -0.0365 -1.3960  2.2025
  963MOL0     H29945   2.017   2.780   9.926  2.0920 -1.2906 -0.1523
  963MOL0     H29946   1.912   2.999   9.832 -0.2263  2.4385 -2.3380
  963MOL0     H29947   2.062   3.015   9.744  1.5182 -1.2579  0.9770
  963MOL0     H29948   2.028   2.805   9.641 -2.2760 -4.0328 -0.6656
  963MOL0     H29949   1.886   2.767   9.747 -2.4133  1.0400 -1.0557
  963MOL0     H29950   1.748   2.939   9.663 -0.8215  1.5070 -2.1907
  963MOL0     H29951   1.882   2.974   9.538  0.6054  0.8807  0.7095
  963MOL0     H29952   1.806   2.831   9.409 -3.7146  7.0588  0.8000
  963MOL0     H29953   1.802   2.687   9.524 -0.0521 -0.0055 -0.7675
  963MOL0     H29954   1.580   2.761   9.417 -0.2686  0.4613 -0.1060
  963MOL0     H29955   1.607   2.903   9.526  4.0052  1.0284  1.9174
  963MOL0     H29956   1.627   2.840   9.811 -0.1667  0.5395 -0.4184
  963MOL0     H29957   1.461   2.733  10.040 -1.8408  1.4982 -2.7213
  963MOL0     H29958   1.431   2.567  10.006  0.9028 -0.6081  2.7068
  963MOL0     H29959   1.668   2.651  10.116 -2.3016 -1.9580  2.1959
  963MOL0     H29960   1.708   2.675   9.947 -1.8891  3.7291  0.9797
  963MOL0     H29961   1.655   2.463   9.883 -0.5680  0.9029  0.2576
  963MOL0     H29962   1.611   2.403  10.037 -2.0784  1.1919 -1.0293
  963MOL0     H29963   1.843   2.321   9.973 -0.1850 -0.6050  0.4371
  963MOL0     H29964   1.869   2.438  10.102  0.2591  0.6203 -0.2899
  963MOL0     H29965   2.020   2.596   9.700 -2.5058  1.0080  2.5342
  963MOL0     H29966   2.354   2.700   9.662  1.8626 -0.5516 -1.5509
  963MOL0     H29967   2.334   2.557   9.568 -1.1512 -1.4865  1.4833
  963MOL0     H29968   2.206   2.680   9.571  1.1852  1.5940 -0.0952
  963MOL0     H29969   2.599   2.263  10.124  1.7990  0.5828  1.5025
  963MOL0     H29970   2.832   2.152  10.162  3.6232 -0.4586 -1.5294
  963MOL0     H29971   3.076   2.209  10.176 -1.2258 -1.5082  0.2885
  963MOL0     H29972   3.004   2.058  10.144  1.3855 -0.3198 -0.0186
  963MOL0     H29973   3.231   2.034  10.209  4.1042 -2.0165 -0.6657
  963MOL0     H29974   3.217   1.973  10.049  0.4785  0.5524 -0.3300
  963MOL0     H29975   3.328   2.240  10.132  0.2481  0.4480 -0.2533
  963MOL0     H29976   3.303   2.185   9.969 -1.3657  0.7660  1.2007
  963MOL0     H29977   3.485   2.029  10.163  3.4867 -0.8171 -1.6131
  963MOL0     H29978   3.441   1.984   9.996  0.8372 -0.8689  0.0488
  963MOL0     H29979   3.545   2.200   9.925  0.2756  0.9557 -0.3418
  963MOL0     H29980   3.663   2.084   9.997  0.0595 -0.7362 -2.3711
  963MOL0     H29981   3.536   2.289  10.165 -1.0971 -0.9589 -0.2497
  963MOL0     H29982   3.683   2.192  10.190  2.4043  1.4806 -1.6933
  963MOL0     H29983   3.735   2.420  10.134  0.3722  0.3245 -1.1597
  963MOL0     H29984   3.643   2.403   9.979  0.7487  0.4224 -1.4988
  963MOL0     H29985   3.883   2.408   9.949 -0.8422 -0.8745 -1.0870
  963MOL0     H29986   3.829   2.244   9.906 -1.7868 -0.3091 -0.6118
  963MOL0     H29987   2.943   2.284   9.786  0.5511 -2.9827  0.3908
  963MOL0     H29988   2.724   2.366   9.727  1.5516 -4.2275 -2.0676
  963MOL0     H29989   2.306   2.328  10.001 -1.3513 -0.0406  2.4729
  963MOL0     H29990   2.069   2.343  10.056  0.4580  1.9759  0.9604
  963MOL0     H29991   2.520   2.826  10.043 -1.4361 -0.5756 -1.0388
  963MOL0     H29992   2.697   2.702  10.109  1.3699 -3.5173 -2.6551
  963MOL0     H29993   3.069   2.532  10.385  0.4465 -0.1672  2.2796
  963MOL0     H29994   3.208   2.371  10.441 -0.1568  2.0394  0.5337
  963MOL0     H29995   3.330   2.186  10.510 -0.2239  0.0572  1.2182
  963MOL0     H29996   3.230   2.196  10.657  2.1983 -0.3678  0.9878
  963MOL0     H29997   3.408   2.031  10.665 -0.1436  1.5400 -0.4475
  963MOL0     H29998   3.316   1.934  10.539 -0.2545  0.0695  0.5110
  963MOL0     H29999   3.126   1.919  10.705  0.5961 -0.6592  1.5712
  963MOL0     H30000   3.222   2.007  10.822 -2.7949  0.2011  0.3909
  963MOL0     H30001   3.235   1.774  10.873 -0.7784 -0.3553 -0.4629
  963MOL0     H30002   3.388   1.843  10.849 -1.8879 -0.0768  2.6623
  963MOL0     H30003   3.366   1.500  10.609  0.1280 -1.4882  3.8082
  963MOL0     H30004   2.895   2.080  10.464 -2.4217  1.1508  2.3673
  963MOL0     H30005   2.737   2.238  10.362 -0.2939 -0.0468  1.3169
  964MOL0     O30006   4.192   2.561  10.884 -0.7636  0.5313  0.4212
  964MOL0     C30007   4.144   2.461  10.830  0.6193  0.6936  0.7286
  964MOL0     O30008   4.012   2.445  10.800 -0.0167  0.7976 -0.1348
  964MOL0     C30009   3.921   2.542  10.819  0.2557 -0.3156 -0.7872
  964MOL0     C30010   3.811   2.501  10.892  0.5901 -0.0317  0.5977
  964MOL0     C30011   3.692   2.588  10.905  0.0499  0.5765 -0.5018
  964MOL0     C30012   3.695   2.718  10.847 -0.0437 -1.3548  0.5187
  964MOL0     O30013   3.600   2.819  10.855 -0.5912 -0.3468  0.3491
  964MOL0     C30014   3.468   2.773  10.836 -0.1279  0.2922  0.4269
  964MOL0     C30015   3.374   2.894  10.813 -0.6049  0.4838  0.0481
  964MOL0     C30016   3.354   2.982  10.942 -0.1394 -0.0555 -0.7140
  964MOL0     C30017   3.259   2.913  11.049  0.6915 -0.0420  0.6182
  964MOL0     C30018   3.224   2.982  11.175 -0.4217 -0.4102  0.4683
  964MOL0     C30019   3.128   2.905  11.268  0.0511  0.1790 -0.3553
  964MOL0     C30020   2.987   2.891  11.210  0.1078  0.6163  0.8934
  964MOL0     C30021   2.911   3.024  11.212  0.0524  0.2529  0.3915
  964MOL0     N30022   2.775   3.016  11.170  0.2663 -0.4147 -0.5683
  964MOL0     C30023   2.723   3.006  11.044 -0.2238 -0.9207 -0.1232
  964MOL0     C30024   2.592   2.997  11.051  0.0985  0.5150 -0.5519
  964MOL0     C30025   2.490   2.966  10.941  0.6745  0.9219 -0.4039
  964MOL0     C30026   2.351   3.018  10.996 -1.6247  0.8739  0.9934
  964MOL0     C30027   2.233   3.021  10.898  0.5495 -0.2418  1.1084
  964MOL0     C30028   2.193   2.890  10.827  0.7977 -0.4410 -0.6307
  964MOL0     O30029   2.125   2.799  10.921 -0.5875  0.0530 -0.6061
  964MOL0     C30030   2.005   2.838  10.966  1.0102 -0.2229 -0.1062
  964MOL0     C30031   1.985   2.871  11.098 -1.8549  0.4353 -0.0405
  964MOL0     C30032   1.867   2.893  11.154  0.1974 -0.6903  0.0846
  964MOL0     C30033   1.877   2.953  11.292  0.1444 -0.4185  0.4673
  964MOL0     C30034   1.751   2.895  11.072  0.0097 -0.0565  0.2045
  964MOL0     C30035   1.619   2.940  11.129 -0.2070 -0.6303  0.2045
  964MOL0     O30036   1.577   2.895  11.253 -0.2753  0.3293  0.0517
  964MOL0     C30037   1.459   2.921  11.317 -0.4102 -0.3320  0.6172
  964MOL0     C30038   1.357   2.993  11.254  0.7466  0.0660 -0.5434
  964MOL0     C30039   1.226   3.000  11.317  0.2858  0.7272 -0.6516
  964MOL0     C30040   1.204   2.958  11.447 -0.5571  0.1444  0.2511
  964MOL0     O30041   1.075   2.961  11.489 -0.5616 -0.2378 -0.4161
  964MOL0     C30042   1.048   2.898  11.618  0.2421 -0.5120  0.3783
  964MOL0     C30043   0.889   2.872  11.615  0.3768 -0.6227 -0.1501
  964MOL0     C30044   0.853   2.775  11.499 -0.5055  0.6015 -0.9235
  964MOL0     C30045   0.711   2.721  11.511  0.3201 -0.0488  0.3921
  964MOL0     C30046   0.696   2.599  11.413 -0.0046  0.1016  0.6453
  964MOL0     C30047   0.556   2.548  11.426 -0.5778  0.3422 -0.1849
  964MOL0     C30048   0.537   2.448  11.319  0.4927  0.2171  0.8732
  964MOL0     C30049   0.533   2.497  11.179  0.4330 -0.5330  0.1000
  964MOL0    Cl30050   0.434   2.653  11.173  0.0631 -0.1790  0.1669
  964MOL0     C30051   1.313   2.890  11.513  1.1081 -0.9326 -0.0352
  964MOL0     C30052   1.437   2.864  11.443 -0.1289  0.1742  1.3932
  964MOL0     O30053   1.560   3.016  11.056  0.2531 -0.1388 -1.2165
  964MOL0     C30054   1.768   2.878  10.930 -0.1795  0.2925  0.4043
  964MOL0     C30055   1.891   2.845  10.878 -0.3572  0.3466 -0.4526
  964MOL0     N30056   2.567   2.986  11.187 -0.4763  0.1469  0.9084
  964MOL0     N30057   2.672   3.005  11.253 -0.6797 -0.7099  0.3183
  964MOL0     C30058   3.816   2.755  10.779 -0.8290  0.1878  0.0242
  964MOL0     C30059   3.926   2.673  10.765  0.2271  0.9357 -0.1091
  964MOL0     C30060   4.239   2.349  10.807 -0.3801  0.6750  0.1158
  964MOL0     C30061   4.372   2.381  10.791 -0.0493  0.0304 -0.4956
  964MOL0     C30062   4.460   2.270  10.779 -0.1943 -0.7947 -0.3980
  964MOL0     C30063   4.425   2.137  10.798  0.2095  0.5482 -0.4205
  964MOL0     O30064   4.515   2.033  10.779  0.0231  0.3093 -0.0054
  964MOL0     C30065   4.653   2.043  10.786 -0.2019 -0.4298  1.6738
  964MOL0     C30066   4.713   1.951  10.874 -0.8910 -0.0243 -0.1363
  964MOL0     C30067   4.678   1.989  11.023 -0.3792  0.0225  0.6150
  964MOL0     C30068   4.656   1.870  11.116  0.0086  0.1234 -0.3843
  964MOL0     C30069   4.777   1.786  11.122 -0.3189  0.2221  0.1206
  964MOL0     C30070   4.888   1.737  11.130 -0.0591  0.1176  1.1561
  964MOL0     C30071   4.290   2.109  10.814  0.6667 -0.0061 -0.5130
  964MOL0     C30072   4.193   2.218  10.820 -0.2995 -0.0997  0.2473
  964MOL0     H30073   3.808   2.399  10.930 -0.2891 -0.3634 -0.3147
  964MOL0     H30074   3.604   2.558  10.961  0.3079  2.3273  0.9613
  964MOL0     H30075   3.456   2.719  10.742 -0.3419  0.7059  0.2125
  964MOL0     H30076   3.440   2.710  10.921 -0.9817 -0.0026 -0.0695
  964MOL0     H30077   3.430   2.956  10.743  2.1811 -0.1092  1.5957
  964MOL0     H30078   3.281   2.863  10.766 -0.3551 -0.9363  0.4546
  964MOL0     H30079   3.451   3.004  10.988  0.0135 -1.1933 -0.4714
  964MOL0     H30080   3.305   3.074  10.909 -0.8650 -0.2826 -0.2954
  964MOL0     H30081   3.167   2.870  11.008 -0.2001  1.7611  0.6513
  964MOL0     H30082   3.310   2.822  11.081  0.7484  0.0381  0.7580
  964MOL0     H30083   3.324   2.995  11.216  0.3711  1.4424 -1.8474
  964MOL0     H30084   3.183   3.080  11.147  1.3152 -0.0765 -1.0972
  964MOL0     H30085   3.181   2.810  11.281 -1.5033 -0.6137  0.4684
  964MOL0     H30086   3.135   2.948  11.368 -0.2987 -1.2367  0.2919
  964MOL0     H30087   2.987   2.835  11.116  1.4975  0.5306  0.9237
  964MOL0     H30088   2.925   2.829  11.275 -2.8987  0.8991 -1.4747
  964MOL0     H30089   2.966   3.090  11.144  0.9636  1.1170  1.9311
  964MOL0     H30090   2.907   3.072  11.310  0.8044 -0.1605  0.6353
  964MOL0     H30091   2.778   3.003  10.950 -1.3317 -0.4386 -0.8094
  964MOL0     H30092   2.515   2.998  10.839 -1.6859  0.5668 -1.1568
  964MOL0     H30093   2.493   2.857  10.949  1.0599  1.0491  1.7653
  964MOL0     H30094   2.367   3.118  11.039 -0.3552  1.5328 -0.9226
  964MOL0     H30095   2.317   2.949  11.074 -0.8888 -2.6698 -1.6143
  964MOL0     H30096   2.255   3.090  10.816 -1.7798 -2.2817 -1.4775
  964MOL0     H30097   2.142   3.063  10.940  1.3941  2.7710  0.1669
  964MOL0     H30098   2.284   2.847  10.785  0.9305  1.3455 -2.3150
  964MOL0     H30099   2.127   2.901  10.740  2.6036 -0.6559 -2.0906
  964MOL0     H30100   2.083   2.861  11.143 -1.0732 -1.2413 -1.9659
  964MOL0     H30101   1.892   3.061  11.287 -0.9143 -0.0981  3.0063
  964MOL0     H30102   1.801   2.932  11.367 -1.7341 -2.1398 -1.7642
  964MOL0     H30103   1.976   2.934  11.333  1.0859  2.2109 -0.3466
  964MOL0     H30104   1.368   3.047  11.161  0.9737  1.2550  0.1509
  964MOL0     H30105   1.142   3.044  11.264  0.0338  0.5671 -0.3890
  964MOL0     H30106   1.097   2.800  11.621 -0.8928 -1.2351 -2.2278
  964MOL0     H30107   1.083   2.960  11.701  0.6263  1.8282 -1.4212
  964MOL0     H30108   0.871   2.833  11.715 -0.8799  0.4290  0.0667
  964MOL0     H30109   0.825   2.960  11.598  0.1245 -1.0387 -1.4635
  964MOL0     H30110   0.924   2.693  11.510 -0.4855  0.8490  1.3976
  964MOL0     H30111   0.853   2.825  11.402 -3.8018  1.2280 -0.7276
  964MOL0     H30112   0.698   2.683  11.612  1.2584 -0.3142  0.4241
  964MOL0     H30113   0.647   2.808  11.493  2.4869  2.3292  3.2609
  964MOL0     H30114   0.770   2.524  11.441  1.9401  1.1867 -1.2415
  964MOL0     H30115   0.719   2.638  11.313 -3.2369 -2.1051 -1.1726
  964MOL0     H30116   0.560   2.507  11.528 -1.2999  3.3018  1.1531
  964MOL0     H30117   0.480   2.627  11.428 -1.0139 -0.0606  1.5413
  964MOL0     H30118   0.442   2.396  11.333 -0.4407  1.9427  1.2667
  964MOL0     H30119   0.617   2.373  11.324 -1.0649 -1.4825  1.1889
  964MOL0     H30120   0.477   2.428  11.116 -2.3237  0.9303  0.8186
  964MOL0     H30121   0.634   2.513  11.140  0.2251 -0.7836 -0.5561
  964MOL0     H30122   1.320   2.853  11.615 -1.8927  0.5128  0.8104
  964MOL0     H30123   1.516   2.811  11.495  2.7613  2.7153 -0.1096
  964MOL0     H30124   1.678   2.891  10.871  0.3246 -0.7975 -0.6248
  964MOL0     H30125   1.905   2.806  10.778 -2.7828 -0.5309 -0.5289
  964MOL0     H30126   3.822   2.856  10.740 -3.4540  0.3343 -0.1603
  964MOL0     H30127   4.023   2.704  10.728  2.1408 -4.1427 -0.0700
  964MOL0     H30128   4.400   2.485  10.779 -1.7427  1.3292  4.4954
  964MOL0     H30129   4.562   2.287  10.747 -0.7075  0.4043 -1.4884
  964MOL0     H30130   4.705   2.043  10.689 -2.5469 -1.2587  0.3428
  964MOL0     H30131   4.677   2.138  10.836 -0.7652  0.8118 -0.2661
  964MOL0     H30132   4.821   1.963  10.861 -0.3289 -1.0259  2.7673
  964MOL0     H30133   4.691   1.845  10.860 -3.9905  0.4005  0.7836
  964MOL0     H30134   4.592   2.057  11.024 -0.0544  0.4831 -0.6978
  964MOL0     H30135   4.760   2.053  11.054  1.0132  0.2713 -3.0863
  964MOL0     H30136   4.568   1.808  11.096  1.5980 -2.2802 -0.2579
  964MOL0     H30137   4.646   1.906  11.219  0.0615  0.3646 -0.4642
  964MOL0     H30138   4.981   1.684  11.140  0.1613  0.8255  3.6386
  964MOL0     H30139   4.239   2.013  10.818 -0.8904  0.7647 -1.0385
  964MOL0     H30140   4.088   2.193  10.817  0.0078 -1.3359 -1.1145
  965MOL0     O30141   3.552   1.413   7.310  0.1274  0.0046 -0.0849
  965MOL0     C30142   3.521   1.534   7.335  0.1289 -0.4145 -0.2222
  965MOL0     O30143   3.397   1.590   7.317  0.8334 -0.2615  0.4459
  965MOL0     C30144   3.305   1.529   7.234  0.3335 -0.2479  0.3355
  965MOL0     C30145   3.347   1.478   7.114 -0.4548  1.1337  0.7562
  965MOL0     C30146   3.253   1.425   7.028  0.0989 -0.6926  0.2750
  965MOL0     C30147   3.125   1.420   7.071 -0.0498 -0.6098  0.8405
  965MOL0     O30148   3.032   1.360   6.990  0.1744  0.6826  0.3612
  965MOL0     C30149   3.023   1.402   6.856  0.8397 -0.5782  0.2722
  965MOL0     C30150   2.874   1.384   6.814  0.1854 -0.1283  0.5709
  965MOL0     C30151   2.842   1.227   6.804  0.3567  0.3305 -0.7700
  965MOL0     C30152   2.730   1.189   6.697  0.2434  0.1752 -0.0316
  965MOL0     C30153   2.595   1.253   6.719  0.0297 -0.8268  0.0827
  965MOL0     C30154   2.540   1.204   6.855 -0.4118 -0.0153 -0.5373
  965MOL0     C30155   2.413   1.268   6.876  0.2236 -0.3907 -0.1932
  965MOL0     C30156   2.326   1.202   6.995  0.4269 -0.1611 -0.5687
  965MOL0     N30157   2.191   1.275   6.990  0.0171  0.0386  0.7629
  965MOL0     C30158   2.115   1.261   6.881  0.8193 -0.2341  0.4061
  965MOL0     C30159   2.008   1.338   6.918 -0.0059 -0.1680  0.2993
  965MOL0     C30160   1.872   1.359   6.851 -0.5791  1.1459 -0.0771
  965MOL0     C30161   1.815   1.224   6.797  0.3407 -0.2521  0.2662
  965MOL0     C30162   1.675   1.248   6.728 -0.4156  0.2107  0.0883
  965MOL0     C30163   1.552   1.292   6.804 -0.0971 -0.2386 -0.0961
  965MOL0     O30164   1.496   1.182   6.879  0.5435  0.1023  0.1600
  965MOL0     C30165   1.376   1.192   6.941 -0.0081 -0.4367 -0.0210
  965MOL0     C30166   1.290   1.303   6.941  0.1668  0.1346  0.5134
  965MOL0     C30167   1.177   1.323   7.024  0.6154 -0.0010 -0.8357
  965MOL0     C30168   1.081   1.432   6.995 -0.2263 -0.8959  0.5505
  965MOL0     C30169   1.139   1.213   7.102  0.6570 -0.3122 -0.5031
  965MOL0     C30170   1.009   1.193   7.165 -0.6372 -1.1652  0.1047
  965MOL0     O30171   0.957   1.072   7.170  0.8385 -0.1175  0.6009
  965MOL0     C30172   0.825   1.063   7.219 -0.3500  0.2351 -0.5868
  965MOL0     C30173   0.721   1.032   7.138 -0.1639  0.5882  0.3267
  965MOL0     C30174   0.592   1.006   7.182 -0.9988  0.0508  0.3673
  965MOL0     C30175   0.560   1.030   7.319 -0.7122  0.1256  0.2807
  965MOL0     O30176   0.431   1.031   7.365  0.2389 -0.1173 -0.4711
  965MOL0     C30177   0.337   0.935   7.301 -0.6119 -0.7300  0.6354
  965MOL0     C30178   0.221   0.929   7.393 -0.6810  0.4446 -0.4638
  965MOL0     C30179   0.133   0.820   7.344  0.1822  0.6148  0.7531
  965MOL0     C30180   0.044   0.778   7.460 -0.1986  0.8329 -0.0225
  965MOL0     C30181  -0.049   0.667   7.424 -0.5235  0.1974  0.9915
  965MOL0     C30182  -0.153   0.634   7.539 -0.1011 -0.8945  0.4742
  965MOL0     C30183  -0.276   0.537   7.523  0.0269 -0.6067 -0.8740
  965MOL0     C30184  -0.333   0.491   7.660  0.2812  0.0293  0.1239
  965MOL0    Cl30185  -0.197   0.414   7.743  0.0969 -0.3428  0.0905
  965MOL0     C30186   0.659   1.080   7.402 -0.0511  0.3290  0.4592
  965MOL0     C30187   0.790   1.082   7.362 -0.4146 -0.7205  0.4668
  965MOL0     O30188   0.959   1.293   7.207  0.2366 -0.6835  0.3461
  965MOL0     C30189   1.218   1.096   7.106 -0.0022 -0.3711  0.3333
  965MOL0     C30190   1.338   1.091   7.027  0.5951 -0.1892 -0.0912
  965MOL0     N30191   2.024   1.395   7.042 -0.1119 -0.1525 -0.4548
  965MOL0     N30192   2.136   1.348   7.089  0.4118 -0.0063 -0.6809
  965MOL0     C30193   3.083   1.457   7.203  0.0074 -0.4725 -0.3151
  965MOL0     C30194   3.174   1.530   7.278 -0.6325  0.2363 -0.4298
  965MOL0     C30195   3.613   1.595   7.435  0.2961  0.3599 -0.1405
  965MOL0     C30196   3.733   1.546   7.470  0.3951  0.0835 -0.8381
  965MOL0     C30197   3.806   1.592   7.575 -0.5215  0.6828 -0.2993
  965MOL0     C30198   3.768   1.707   7.648 -0.3469  1.1941  0.2664
  965MOL0     O30199   3.854   1.769   7.735  0.3767  0.6508 -1.1901
  965MOL0     C30200   3.957   1.679   7.792 -0.3820  0.0132 -0.5097
  965MOL0     C30201   4.023   1.755   7.909 -0.5889 -0.0121  0.7292
  965MOL0     C30202   3.919   1.787   8.017  0.5813 -0.0368  0.3222
  965MOL0     C30203   4.002   1.811   8.141 -0.3433  0.8159 -0.3966
  965MOL0     C30204   3.913   1.849   8.252  0.5457 -0.4427  0.9987
  965MOL0     C30205   3.837   1.881   8.342 -0.4486  0.3876  0.7778
  965MOL0     C30206   3.649   1.772   7.614 -0.2958  0.4887 -0.2416
  965MOL0     C30207   3.572   1.709   7.508  0.9050  0.3099  0.2854
  965MOL0     H30208   3.452   1.468   7.088 -0.0550 -2.6236  3.1788
  965MOL0     H30209   3.277   1.385   6.930  0.4503 -1.5696  0.7064
  965MOL0     H30210   3.048   1.508   6.840  0.3001 -0.5833 -0.6581
  965MOL0     H30211   3.086   1.350   6.784  0.1383  1.9407 -2.3431
  965MOL0     H30212   2.806   1.423   6.890  0.3712  1.5612 -0.0903
  965MOL0     H30213   2.856   1.426   6.714  0.3509  1.1804  1.0769
  965MOL0     H30214   2.931   1.172   6.774  2.7351  2.1673  2.2279
  965MOL0     H30215   2.828   1.188   6.906  0.3035  0.4192 -0.7429
  965MOL0     H30216   2.775   1.221   6.603  0.0725  1.9636  0.4547
  965MOL0     H30217   2.715   1.081   6.701  0.0279  0.2296  0.7240
  965MOL0     H30218   2.606   1.361   6.708  1.3583 -0.8240  1.2047
  965MOL0     H30219   2.524   1.230   6.639 -0.2732 -1.7553  0.5962
  965MOL0     H30220   2.517   1.097   6.857 -1.6308  0.1276  4.0279
  965MOL0     H30221   2.601   1.229   6.942 -1.2168 -0.5990  0.2065
  965MOL0     H30222   2.432   1.374   6.896 -1.9321  0.4605 -2.2765
  965MOL0     H30223   2.349   1.279   6.788 -3.6175  0.8284  2.4638
  965MOL0     H30224   2.381   1.208   7.090 -0.7012  0.8246  0.0495
  965MOL0     H30225   2.302   1.095   6.989  0.9695 -0.4711  1.7054
  965MOL0     H30226   2.125   1.189   6.800 -1.1079  0.2138 -0.2625
  965MOL0     H30227   1.805   1.385   6.934 -0.2448  0.5501  0.3887
  965MOL0     H30228   1.873   1.439   6.776  0.4475  0.6545 -0.6116
  965MOL0     H30229   1.795   1.159   6.883  0.9712  1.0770  1.4623
  965MOL0     H30230   1.889   1.189   6.724 -0.6042  1.4185 -1.6011
  965MOL0     H30231   1.657   1.150   6.683  1.5457 -0.7807  1.3187
  965MOL0     H30232   1.692   1.324   6.652  0.1996  0.5455  0.5479
  965MOL0     H30233   1.479   1.332   6.732  1.3408  1.7633 -0.5116
  965MOL0     H30234   1.582   1.379   6.862 -1.5581 -0.2810  0.7705
  965MOL0     H30235   1.319   1.393   6.887  3.8265 -0.0418  1.8793
  965MOL0     H30236   1.064   1.513   7.067 -0.5319  0.9514 -1.4828
  965MOL0     H30237   1.122   1.494   6.914 -2.3803  0.5690  0.5069
  965MOL0     H30238   0.984   1.391   6.963 -0.4695 -1.2986  1.7735
  965MOL0     H30239   0.732   1.010   7.033  0.7236  0.8614  0.3616
  965MOL0     H30240   0.515   0.980   7.110  0.5354  0.6089 -1.5450
  965MOL0     H30241   0.298   0.964   7.203 -2.1526  0.2790  1.5041
  965MOL0     H30242   0.377   0.833   7.294  1.1667 -0.0137 -0.5017
  965MOL0     H30243   0.258   0.902   7.492  1.5263  1.2159 -1.0153
  965MOL0     H30244   0.163   1.021   7.395  1.7433  2.0446  1.2536
  965MOL0     H30245   0.189   0.735   7.303 -1.1630  0.2940 -0.5179
  965MOL0     H30246   0.074   0.870   7.267 -2.4715 -0.7223  1.8104
  965MOL0     H30247   0.116   0.737   7.531 -0.0582 -1.1210 -1.2204
  965MOL0     H30248  -0.011   0.865   7.497 -0.5857  1.4438 -1.8953
  965MOL0     H30249   0.004   0.574   7.400 -1.9544 -0.7537  1.3987
  965MOL0     H30250  -0.104   0.689   7.332  2.5929 -2.4540 -1.7933
  965MOL0     H30251  -0.089   0.611   7.624 -0.7380 -2.7378  0.4932
  965MOL0     H30252  -0.198   0.728   7.573  1.3283 -1.0716  3.1532
  965MOL0     H30253  -0.238   0.454   7.463 -0.7119  0.5007 -2.9774
  965MOL0     H30254  -0.339   0.604   7.463  0.8193  0.6697 -0.3138
  965MOL0     H30255  -0.414   0.421   7.640 -1.6506  1.4932  2.2442
  965MOL0     H30256  -0.369   0.583   7.709 -2.2324 -1.0818  0.5007
  965MOL0     H30257   0.645   1.113   7.505 -0.0878  2.1177 -0.0873
  965MOL0     H30258   0.866   1.096   7.438  0.1242 -1.5555  0.1062
  965MOL0     H30259   1.185   1.008   7.160  0.6120 -1.0966 -0.4411
  965MOL0     H30260   1.389   0.995   7.028  0.8026 -0.0959  1.2972
  965MOL0     H30261   2.980   1.442   7.231  0.1679 -1.4318 -0.2189
  965MOL0     H30262   3.141   1.578   7.370 -2.9210  0.0633 -1.0999
  965MOL0     H30263   3.783   1.473   7.407  0.5750 -0.7724  0.2664
  965MOL0     H30264   3.890   1.527   7.597 -1.3308 -0.2568  0.0731
  965MOL0     H30265   3.928   1.578   7.819  1.0981 -0.4293 -0.5259
  965MOL0     H30266   4.033   1.678   7.713  0.0852  2.2641 -0.1719
  965MOL0     H30267   4.071   1.844   7.866 -0.5798  0.1420  1.0614
  965MOL0     H30268   4.095   1.691   7.960 -1.2485  0.3072  2.1030
  965MOL0     H30269   3.849   1.706   8.039 -1.6356  1.3887 -1.1932
  965MOL0     H30270   3.857   1.868   7.979 -1.7287  0.4410  4.4838
  965MOL0     H30271   4.076   1.890   8.126  1.0543  0.1381  2.3687
  965MOL0     H30272   4.054   1.723   8.179 -0.9149  0.7622  0.2843
  965MOL0     H30273   3.785   1.930   8.422 -0.2365 -2.3722  2.7420
  965MOL0     H30274   3.600   1.850   7.672 -0.7051 -0.8886  1.3526
  965MOL0     H30275   3.481   1.763   7.485  0.0301 -1.4722 -0.6889
  966MOL0     O30276   7.978   0.554   1.062 -0.2354 -0.8982 -0.0038
  966MOL0     C30277   8.002   0.468   0.983  0.4898  0.3142  0.7796
  966MOL0     O30278   7.915   0.361   0.954 -0.2294 -0.1101 -0.1865
  966MOL0     C30279   7.782   0.361   0.983  0.4254  0.1189 -0.3713
  966MOL0     C30280   7.702   0.463   1.040 -0.3436 -0.0077 -0.1098
  966MOL0     C30281   7.568   0.435   1.082  1.0721  0.2015  1.1204
  966MOL0     C30282   7.508   0.311   1.052 -0.3553 -0.0755 -0.1522
  966MOL0     O30283   7.373   0.277   1.064  0.4254 -0.1481  0.4221
  966MOL0     C30284   7.288   0.373   1.132 -0.1464 -0.3179  0.3838
  966MOL0     C30285   7.139   0.341   1.109 -0.3408 -0.1071 -0.4013
  966MOL0     C30286   7.086   0.231   1.190  0.2343 -0.1260  0.4420
  966MOL0     C30287   6.940   0.211   1.164  0.0938  0.8827 -0.8312
  966MOL0     C30288   6.880   0.087   1.235 -0.0212 -0.0364  0.0852
  966MOL0     C30289   6.834   0.128   1.379  0.0894  0.2887  0.1437
  966MOL0     C30290   6.692   0.194   1.361  0.0385 -0.1299 -0.4918
  966MOL0     C30291   6.575   0.095   1.356 -0.5723 -0.1869 -0.0273
  966MOL0     N30292   6.440   0.139   1.394  0.8459 -0.2757 -0.2776
  966MOL0     C30293   6.358   0.095   1.493 -0.2631  1.4286 -0.2891
  966MOL0     C30294   6.237   0.154   1.479 -0.5129 -0.7214 -0.3928
  966MOL0     C30295   6.107   0.097   1.528  0.6053 -0.2295 -0.2025
  966MOL0     C30296   6.037   0.029   1.415 -0.6463  1.1854 -0.2601
  966MOL0     C30297   6.107  -0.102   1.365  0.1808  0.5383  0.4442
  966MOL0     C30298   5.999  -0.197   1.303 -0.1123  0.2024 -0.2207
  966MOL0     O30299   5.949  -0.145   1.183 -0.1278  0.2460  0.0316
  966MOL0     C30300   6.023  -0.180   1.069 -0.1804 -0.3568 -0.2834
  966MOL0     C30301   5.969  -0.147   0.943  0.1735 -0.1820 -0.5636
  966MOL0     C30302   6.038  -0.182   0.825  0.4396 -0.6902 -0.3911
  966MOL0     C30303   5.970  -0.155   0.694 -0.1009 -0.3108  0.6311
  966MOL0     C30304   6.167  -0.239   0.835  0.2726  0.1060 -0.7006
  966MOL0     C30305   6.230  -0.288   0.712  0.0480 -0.4312 -0.6051
  966MOL0     O30306   6.267  -0.193   0.620 -0.0912  0.9097  0.0328
  966MOL0     C30307   6.328  -0.247   0.501  1.2073 -0.3271 -0.5935
  966MOL0     C30308   6.251  -0.260   0.379  0.0259 -0.0409 -0.6226
  966MOL0     C30309   6.320  -0.318   0.267 -0.1846  0.9758 -0.7184
  966MOL0     C30310   6.446  -0.378   0.277  0.4157 -0.2990  0.0887
  966MOL0     O30311   6.476  -0.460   0.167 -0.6806 -0.4254  0.6812
  966MOL0     C30312   6.614  -0.463   0.120 -0.5032  0.6586  0.5549
  966MOL0     C30313   6.667  -0.350   0.025  0.5585 -0.5748 -0.3034
  966MOL0     C30314   6.812  -0.361  -0.022 -1.2434  0.2287 -0.2257
  966MOL0     C30315   6.913  -0.340   0.096  0.6842 -0.7375  0.2151
  966MOL0     C30316   6.955  -0.192   0.115 -0.7285 -0.0743  0.9577
  966MOL0     C30317   6.995  -0.169   0.248  0.6358  0.4807 -0.3774
  966MOL0     C30318   7.054  -0.035   0.277 -0.1059 -0.1321  0.1577
  966MOL0     C30319   7.181   0.006   0.201  0.0447  1.0005 -0.1795
  966MOL0    Cl30320   7.304  -0.111   0.257 -0.1968  0.0644 -0.0666
  966MOL0     C30321   6.517  -0.356   0.390 -0.6909  0.1477  0.3447
  966MOL0     C30322   6.458  -0.298   0.501 -0.1904  0.3158 -0.1572
  966MOL0     O30323   6.255  -0.406   0.707 -0.7302 -0.2436 -1.0183
  966MOL0     C30324   6.227  -0.254   0.962  0.1969 -1.0062 -0.0040
  966MOL0     C30325   6.152  -0.228   1.072  0.0645 -0.8236 -0.4018
  966MOL0     N30326   6.251   0.246   1.377  0.5792 -0.3714  0.1375
  966MOL0     N30327   6.376   0.242   1.338 -0.7504 -0.9844 -0.6372
  966MOL0     C30328   7.588   0.205   1.002 -0.2566  0.0192 -0.2740
  966MOL0     C30329   7.718   0.236   0.963  0.5530 -0.6069  0.1324
  966MOL0     C30330   8.137   0.458   0.928 -0.2201 -0.1728 -0.2796
  966MOL0     C30331   8.172   0.364   0.833 -0.3565 -0.0045  1.0180
  966MOL0     C30332   8.301   0.351   0.785 -0.4092  0.5724  0.2256
  966MOL0     C30333   8.404   0.427   0.839  0.9294  0.3811 -0.1902
  966MOL0     O30334   8.527   0.393   0.793  0.2670  0.2022 -0.1522
  966MOL0     C30335   8.630   0.471   0.854  0.5981 -0.1978  1.0000
  966MOL0     C30336   8.760   0.406   0.828  0.4688 -0.8360  0.2375
  966MOL0     C30337   8.809   0.417   0.685  0.6699 -0.4333  0.7590
  966MOL0     C30338   8.884   0.550   0.655 -0.0105  0.1566 -0.2382
  966MOL0     C30339   8.912   0.565   0.516  1.2323 -0.0548  0.4869
  966MOL0     C30340   8.949   0.561   0.406  0.0187 -0.7862 -0.1879
  966MOL0     C30341   8.362   0.521   0.938 -0.3299  0.1857 -2.0808
  966MOL0     C30342   8.233   0.534   0.979  0.1564 -0.9901  1.1836
  966MOL0     H30343   7.730   0.566   1.060 -1.2133 -0.3370  3.4557
  966MOL0     H30344   7.511   0.514   1.131 -1.9347 -0.2997 -1.2639
  966MOL0     H30345   7.307   0.363   1.239 -0.0769 -2.8248  0.1762
  966MOL0     H30346   7.316   0.474   1.101 -0.5703  0.7724  3.2250
  966MOL0     H30347   7.090   0.435   1.136 -1.9805 -0.6977 -1.2116
  966MOL0     H30348   7.132   0.322   1.002  1.6846  1.4577 -0.8876
  966MOL0     H30349   7.151   0.144   1.178 -3.5160 -2.8873 -1.7697
  966MOL0     H30350   7.098   0.249   1.297  2.1753 -2.1920  0.6463
  966MOL0     H30351   6.879   0.299   1.186 -1.2760 -0.2512  0.0349
  966MOL0     H30352   6.948   0.198   1.055  2.4795  0.1241 -0.6214
  966MOL0     H30353   6.786   0.067   1.183 -0.1774  2.4441 -0.6946
  966MOL0     H30354   6.944  -0.002   1.236 -1.3439 -1.1241 -2.5294
  966MOL0     H30355   6.821   0.043   1.447  2.5610 -0.0094  0.3299
  966MOL0     H30356   6.909   0.196   1.420  1.5850 -0.8134 -0.6729
  966MOL0     H30357   6.681   0.271   1.438  1.1769 -1.5290  1.1416
  966MOL0     H30358   6.687   0.250   1.267  1.4899  4.0125  1.6510
  966MOL0     H30359   6.596   0.018   1.431 -0.6202 -2.0390 -1.8182
  966MOL0     H30360   6.560   0.053   1.255  3.9518  1.7035 -1.7536
  966MOL0     H30361   6.369   0.006   1.554 -3.4011  1.9340  1.1932
  966MOL0     H30362   6.137   0.018   1.596  1.7913 -1.0674 -1.6353
  966MOL0     H30363   6.040   0.170   1.574 -0.8690 -2.4617  1.3584
  966MOL0     H30364   6.026   0.097   1.329 -0.3541  1.0251 -0.4253
  966MOL0     H30365   5.937   0.006   1.453 -0.4170  1.8424  0.7837
  966MOL0     H30366   6.146  -0.157   1.451 -1.8613 -0.9055  0.5144
  966MOL0     H30367   6.192  -0.084   1.298  1.9693 -2.1499  1.8065
  966MOL0     H30368   5.909  -0.212   1.365  1.1825  0.4209  1.8270
  966MOL0     H30369   6.038  -0.297   1.281  2.2912  0.4937  2.1530
  966MOL0     H30370   5.871  -0.101   0.939  0.0441 -0.5526 -2.3167
  966MOL0     H30371   5.861  -0.165   0.688 -0.0590 -1.6207  1.5158
  966MOL0     H30372   5.995  -0.051   0.672 -1.2210 -0.2375 -0.3803
  966MOL0     H30373   6.017  -0.210   0.612  4.6692  0.1369  2.7605
  966MOL0     H30374   6.145  -0.235   0.378 -0.5102 -2.1187 -1.5490
  966MOL0     H30375   6.256  -0.343   0.183 -2.4135  1.7090  0.6477
  966MOL0     H30376   6.683  -0.470   0.205 -2.2235 -3.4308  1.8185
  966MOL0     H30377   6.632  -0.556   0.067 -2.3745 -0.0061  1.0221
  966MOL0     H30378   6.598  -0.349  -0.060  0.6929 -0.3729 -0.4092
  966MOL0     H30379   6.652  -0.253   0.073 -1.1141 -1.1619  0.4295
  966MOL0     H30380   6.841  -0.289  -0.099 -1.5880  1.5736  0.8417
  966MOL0     H30381   6.833  -0.460  -0.062  1.1391  1.1645 -1.5010
  966MOL0     H30382   6.882  -0.385   0.191  1.8753  0.0935  1.0272
  966MOL0     H30383   7.005  -0.393   0.071  0.5196 -0.6296 -0.6317
  966MOL0     H30384   6.865  -0.131   0.099  0.0820  0.8617 -0.2025
  966MOL0     H30385   7.035  -0.167   0.044 -0.7551 -0.1665  0.8943
  966MOL0     H30386   6.913  -0.187   0.319  2.0894  1.3454  1.6492
  966MOL0     H30387   7.073  -0.238   0.281  0.6541  1.2452  1.2802
  966MOL0     H30388   7.063  -0.026   0.386 -4.0077  1.8899  0.4814
  966MOL0     H30389   6.975   0.037   0.257  0.6925  0.3200 -1.5262
  966MOL0     H30390   7.211   0.110   0.217  0.5969  0.9175 -0.6060
  966MOL0     H30391   7.170   0.002   0.092 -0.3820  0.8926 -0.1326
  966MOL0     H30392   6.613  -0.408   0.392 -0.2290  0.4865 -3.8859
  966MOL0     H30393   6.518  -0.281   0.590 -0.1843  1.1932 -0.3234
  966MOL0     H30394   6.329  -0.288   0.978  0.9228  1.7083  1.8900
  966MOL0     H30395   6.202  -0.243   1.167 -0.6535  0.9825  0.3148
  966MOL0     H30396   7.541   0.110   0.982  0.7409 -0.2099 -1.6124
  966MOL0     H30397   7.774   0.159   0.911 -1.6035 -1.2728 -1.3320
  966MOL0     H30398   8.105   0.296   0.782  0.3325 -0.9654  1.3479
  966MOL0     H30399   8.328   0.279   0.708  2.3539 -0.1966  1.8023
  966MOL0     H30400   8.628   0.572   0.812 -0.4604 -0.5805  0.0518
  966MOL0     H30401   8.617   0.475   0.962  0.3823  0.1823  0.9627
  966MOL0     H30402   8.749   0.299   0.847 -0.6466 -0.5755  1.2055
  966MOL0     H30403   8.818   0.452   0.909  1.9058  0.2439 -1.3310
  966MOL0     H30404   8.729   0.399   0.613  0.5686 -0.7591  0.9539
  966MOL0     H30405   8.880   0.335   0.672  1.9132  0.9091 -1.4935
  966MOL0     H30406   8.977   0.552   0.711  0.1975  1.0438 -0.5911
  966MOL0     H30407   8.825   0.636   0.690  0.7043 -0.3935  2.5651
  966MOL0     H30408   9.002   0.563   0.313  2.5771  2.7473  1.1101
  966MOL0     H30409   8.442   0.582   0.978 -0.7147 -1.1146  0.8546
  966MOL0     H30410   8.212   0.610   1.054  0.5989 -1.8015  2.1672
  967MOL0     O30411   4.445   5.985   6.658  0.0698  0.1028  0.0007
  967MOL0     C30412   4.474   6.063   6.569 -0.0088  0.1312  1.0658
  967MOL0     O30413   4.603   6.106   6.532  0.1366 -0.3092 -0.5913
  967MOL0     C30414   4.697   6.073   6.630  1.4096 -0.5887  0.5915
  967MOL0     C30415   4.749   5.939   6.639  0.8432  0.1665  0.0606
  967MOL0     C30416   4.836   5.913   6.745  0.6290 -0.8041 -0.2201
  967MOL0     C30417   4.886   6.020   6.829  0.2662  0.2934 -0.2643
  967MOL0     O30418   4.965   5.975   6.939  0.1866 -0.2815  0.0946
  967MOL0     C30419   4.982   6.055   7.056 -0.1638 -0.7365 -0.3459
  967MOL0     C30420   5.040   5.985   7.185 -0.2625 -0.8013 -0.3557
  967MOL0     C30421   5.193   6.001   7.206 -0.0889  0.2785 -0.0163
  967MOL0     C30422   5.219   6.011   7.351 -0.6420 -0.1177 -0.4414
  967MOL0     C30423   5.170   5.891   7.428 -0.1119 -0.6277  1.1730
  967MOL0     C30424   5.219   5.870   7.571  0.3803  0.3631  0.1205
  967MOL0     C30425   5.176   5.979   7.670 -0.6082 -0.5462  0.0608
  967MOL0     C30426   5.209   5.954   7.815  0.1189 -0.4026  0.7251
  967MOL0     N30427   5.357   5.959   7.844 -0.4224  1.1517 -0.6628
  967MOL0     C30428   5.450   6.049   7.780  0.0002  0.0144 -0.4440
  967MOL0     C30429   5.565   6.003   7.833  0.0580  0.7797 -0.6777
  967MOL0     C30430   5.696   6.065   7.794 -0.0394 -0.1053  0.1691
  967MOL0     C30431   5.714   6.055   7.637 -1.1156 -0.7505 -0.4790
  967MOL0     C30432   5.717   5.909   7.583 -0.1188 -0.3024 -0.2892
  967MOL0     C30433   5.742   5.906   7.434  0.7523 -0.6301 -0.1043
  967MOL0     O30434   5.745   5.770   7.399 -0.0208 -0.1032 -0.3109
  967MOL0     C30435   5.710   5.755   7.271  0.2995  0.0862 -1.1134
  967MOL0     C30436   5.804   5.731   7.172  0.6508 -0.3268 -0.3829
  967MOL0     C30437   5.767   5.701   7.042 -0.4544  0.7043  1.1327
  967MOL0     C30438   5.872   5.669   6.941  0.1032 -0.0099  0.0995
  967MOL0     C30439   5.625   5.716   7.006  0.8723  0.1598  0.1486
  967MOL0     C30440   5.564   5.681   6.876  0.6213  0.3822  0.6296
  967MOL0     O30441   5.419   5.681   6.867 -0.3083  0.3574 -0.2065
  967MOL0     C30442   5.350   5.686   6.749  0.1871 -0.0328 -0.3772
  967MOL0     C30443   5.223   5.630   6.755  0.9815 -0.0551 -0.5020
  967MOL0     C30444   5.146   5.608   6.637 -0.6435 -0.1804  0.5231
  967MOL0     C30445   5.198   5.655   6.513 -0.4918  0.8477  0.0459
  967MOL0     O30446   5.128   5.622   6.395  0.1311  1.0246 -0.5088
  967MOL0     C30447   4.988   5.666   6.394 -0.7651 -0.1056  0.1379
  967MOL0     C30448   4.930   5.622   6.263  0.1422  0.3019  0.1145
  967MOL0     C30449   4.779   5.648   6.255 -0.1567 -0.0818  0.1399
  967MOL0     C30450   4.730   5.633   6.114 -0.9425 -0.0335 -0.2549
  967MOL0     C30451   4.575   5.649   6.118 -0.3752 -0.3256  0.6718
  967MOL0     C30452   4.515   5.648   5.968 -0.6067 -0.1660 -0.0161
  967MOL0     C30453   4.504   5.518   5.894 -0.3064  0.6319  0.2355
  967MOL0     C30454   4.401   5.433   5.977  0.9649  0.5495 -0.1990
  967MOL0    Cl30455   4.318   5.326   5.856 -0.2365  0.2004  0.1419
  967MOL0     C30456   5.328   5.713   6.505  0.3695  0.4178  0.4095
  967MOL0     C30457   5.403   5.731   6.625  0.0291 -0.1360  0.2836
  967MOL0     O30458   5.635   5.636   6.789  0.1313  0.4422  0.9013
  967MOL0     C30459   5.539   5.750   7.103  0.1235 -1.1554 -0.7963
  967MOL0     C30460   5.579   5.757   7.236  0.1836  0.1491 -0.4925
  967MOL0     N30461   5.542   5.890   7.924 -0.7446 -0.2791  1.0244
  967MOL0     N30462   5.421   5.868   7.933  0.4408 -0.2551  1.0791
  967MOL0     C30463   4.839   6.143   6.813  0.1486  0.3397 -0.2103
  967MOL0     C30464   4.738   6.175   6.725 -0.1471 -1.0403 -0.3336
  967MOL0     C30465   4.378   6.121   6.471 -0.1865  1.0160 -0.6597
  967MOL0     C30466   4.254   6.062   6.442  0.0395 -0.1253  0.0369
  967MOL0     C30467   4.152   6.124   6.364 -0.1472  0.0038 -0.5042
  967MOL0     C30468   4.186   6.240   6.294 -0.9553  0.9086 -0.4874
  967MOL0     O30469   4.090   6.297   6.223 -0.1861  0.0316 -0.0298
  967MOL0     C30470   4.127   6.400   6.123 -0.4869  0.1082  0.4102
  967MOL0     C30471   4.012   6.437   6.037  0.0877 -0.1456  0.3827
  967MOL0     C30472   3.959   6.320   5.958 -0.3380 -0.1929  0.3179
  967MOL0     C30473   3.881   6.368   5.831 -0.2751  0.3636  0.0726
  967MOL0     C30474   3.763   6.439   5.869  0.5397 -0.3760 -0.1943
  967MOL0     C30475   3.661   6.496   5.903 -0.1690 -0.1394 -0.4264
  967MOL0     C30476   4.321   6.274   6.296 -0.4144  0.5243  0.2344
  967MOL0     C30477   4.414   6.230   6.386  0.2799  0.2423 -0.1822
  967MOL0     H30478   4.734   5.859   6.568  2.9583 -0.6454  0.4548
  967MOL0     H30479   4.893   5.822   6.757  1.3476 -0.2903  0.3455
  967MOL0     H30480   5.052   6.135   7.033  1.1789 -0.8469  2.8365
  967MOL0     H30481   4.881   6.092   7.075  0.3567  0.4013  0.2782
  967MOL0     H30482   4.984   6.033   7.266 -1.0961  1.6780 -2.2861
  967MOL0     H30483   5.019   5.877   7.188 -2.8810 -0.4783 -3.0131
  967MOL0     H30484   5.238   5.906   7.178 -2.5620 -1.4460  1.4433
  967MOL0     H30485   5.237   6.077   7.141  2.4281  2.2690  3.6541
  967MOL0     H30486   5.324   6.033   7.369 -0.7241  1.3336 -1.5047
  967MOL0     H30487   5.161   6.099   7.380  0.7829  0.6190  0.2393
  967MOL0     H30488   5.062   5.877   7.420 -0.6321  2.5090  1.5810
  967MOL0     H30489   5.202   5.799   7.378  2.3041  1.8202 -2.2107
  967MOL0     H30490   5.186   5.770   7.601 -1.1231  0.9101  0.3592
  967MOL0     H30491   5.328   5.858   7.578  0.7618  3.1548  0.4924
  967MOL0     H30492   5.220   6.077   7.648 -1.7553 -0.6349 -3.1760
  967MOL0     H30493   5.067   5.992   7.669 -0.4621  0.8529  0.1576
  967MOL0     H30494   5.169   5.857   7.845 -1.8683  0.2020  0.1844
  967MOL0     H30495   5.169   6.029   7.884 -0.4880 -0.0350 -0.0094
  967MOL0     H30496   5.429   6.128   7.709  1.7073 -1.2820 -2.5202
  967MOL0     H30497   5.699   6.168   7.830  1.2165  0.2394 -0.8516
  967MOL0     H30498   5.779   6.009   7.837  1.2653  0.9899 -0.8631
  967MOL0     H30499   5.808   6.105   7.612 -0.8855 -1.4182 -0.9929
  967MOL0     H30500   5.626   6.097   7.588 -2.3578 -1.8062  0.7493
  967MOL0     H30501   5.619   5.862   7.593  0.1042 -0.6060  0.5638
  967MOL0     H30502   5.787   5.840   7.631 -0.8015 -1.9726 -1.6238
  967MOL0     H30503   5.841   5.950   7.420 -0.7739  3.3034 -0.0730
  967MOL0     H30504   5.668   5.965   7.379  0.6060  0.1200  0.8568
  967MOL0     H30505   5.906   5.742   7.206  0.0498 -0.4118  1.5722
  967MOL0     H30506   5.866   5.560   6.935 -2.0965  0.0776 -0.0879
  967MOL0     H30507   5.844   5.707   6.842  0.4180 -2.0082 -0.8041
  967MOL0     H30508   5.969   5.711   6.969 -0.9111  1.1011  2.1833
  967MOL0     H30509   5.183   5.587   6.846  2.3657 -0.9363 -0.2743
  967MOL0     H30510   5.051   5.556   6.642 -0.9801  0.5217  2.2772
  967MOL0     H30511   4.939   5.618   6.479  1.2171  0.5830  1.7740
  967MOL0     H30512   4.982   5.775   6.406  0.1666  0.1643 -1.4867
  967MOL0     H30513   4.981   5.676   6.182 -0.5434  2.3492  1.0081
  967MOL0     H30514   4.948   5.514   6.256  1.8752  0.6081 -0.8980
  967MOL0     H30515   4.760   5.755   6.262 -3.5426 -0.6558  1.3852
  967MOL0     H30516   4.713   5.592   6.322  0.9064 -4.2114 -1.9582
  967MOL0     H30517   4.758   5.714   6.046 -1.0992  0.7838  0.6211
  967MOL0     H30518   4.746   5.534   6.072  0.2931  1.1250 -2.7133
  967MOL0     H30519   4.539   5.741   6.165 -0.4045  1.6808 -2.9698
  967MOL0     H30520   4.534   5.568   6.180  1.1181 -2.3928 -0.8902
  967MOL0     H30521   4.410   5.676   5.955 -0.6007  0.1691  0.5773
  967MOL0     H30522   4.574   5.721   5.912  0.6586 -1.5202 -0.4851
  967MOL0     H30523   4.592   5.456   5.871  0.8227  1.8407  1.1275
  967MOL0     H30524   4.455   5.544   5.801 -0.4547  2.0548  0.6944
  967MOL0     H30525   4.328   5.498   6.026  0.7856  1.0749 -1.1359
  967MOL0     H30526   4.452   5.369   6.049  0.9660  1.5711  0.7260
  967MOL0     H30527   5.368   5.748   6.410  0.3125 -1.2226 -0.2510
  967MOL0     H30528   5.506   5.763   6.616 -1.0256  2.9533 -3.9492
  967MOL0     H30529   5.433   5.767   7.086 -0.6219 -2.1902  2.2039
  967MOL0     H30530   5.501   5.770   7.310 -0.8325  0.8022 -1.6326
  967MOL0     H30531   4.872   6.226   6.874 -0.9632  0.3917  0.3367
  967MOL0     H30532   4.692   6.272   6.718 -0.6127 -1.3243 -1.3921
  967MOL0     H30533   4.222   5.977   6.501 -1.7640 -2.1312 -3.5009
  967MOL0     H30534   4.049   6.089   6.362  0.2850 -1.2926 -1.8871
  967MOL0     H30535   4.161   6.492   6.170  0.1456 -0.8115  1.7886
  967MOL0     H30536   4.207   6.361   6.060 -0.2419 -3.3448  2.6038
  967MOL0     H30537   4.038   6.519   5.969 -0.0952  0.5519  1.1406
  967MOL0     H30538   3.924   6.476   6.089  0.7500  0.5324  1.0098
  967MOL0     H30539   3.896   6.253   6.018 -1.2489 -0.0811 -0.4887
  967MOL0     H30540   4.035   6.252   5.920 -0.4665 -0.3778  0.3879
  967MOL0     H30541   3.877   6.276   5.772  4.6315 -0.8398  1.1569
  967MOL0     H30542   3.949   6.430   5.773 -0.2342  1.0045  0.7921
  967MOL0     H30543   3.581   6.557   5.940 -0.6210  0.1077 -1.7397
  967MOL0     H30544   4.349   6.353   6.227 -0.9224  0.6795  0.1986
  967MOL0     H30545   4.509   6.282   6.392  0.5022 -0.3247  2.4198
  968MOL0     O30546   3.275   6.052   9.908  0.0968  0.4672 -0.0724
  968MOL0     C30547   3.375   6.124   9.915  0.7867 -0.4604 -0.1552
  968MOL0     O30548   3.387   6.244   9.862  0.0862 -0.4693 -0.1239
  968MOL0     C30549   3.287   6.320   9.830  0.0783  0.1928 -1.1240
  968MOL0     C30550   3.274   6.349   9.705 -0.3499 -0.2373 -0.4779
  968MOL0     C30551   3.165   6.431   9.668 -0.2221  0.4242 -0.1287
  968MOL0     C30552   3.074   6.485   9.759 -0.6995 -0.2773  0.3354
  968MOL0     O30553   2.982   6.567   9.729  0.5045 -0.4923  0.3464
  968MOL0     C30554   2.932   6.587   9.596  0.2270  0.1759 -1.1885
  968MOL0     C30555   2.843   6.462   9.552 -0.1208  0.3446 -0.2678
  968MOL0     C30556   2.719   6.458   9.647 -0.2756 -0.0492 -0.0019
  968MOL0     C30557   2.641   6.330   9.615  0.1112  0.3423  0.1641
  968MOL0     C30558   2.518   6.304   9.701 -0.8358  0.2238 -0.2669
  968MOL0     C30559   2.560   6.227   9.836 -1.0761 -0.1623 -0.2173
  968MOL0     C30560   2.448   6.199   9.937 -0.2622  0.3097 -0.3515
  968MOL0     C30561   2.335   6.306   9.943 -0.3147  0.5138 -0.2772
  968MOL0     N30562   2.216   6.277   9.867 -0.7274 -0.2019 -0.4152
  968MOL0     C30563   2.117   6.188   9.901  0.0738 -0.3729 -0.8237
  968MOL0     C30564   2.025   6.195   9.804 -0.0492  0.2372  0.6473
  968MOL0     C30565   1.904   6.098   9.787 -0.0156  0.7459  0.5862
  968MOL0     C30566   1.764   6.150   9.780 -0.4750 -1.1662 -0.1568
  968MOL0     C30567   1.669   6.043   9.731 -0.6583  0.2285 -0.1253
  968MOL0     C30568   1.537   6.099   9.696  0.0679  0.1500  0.1527
  968MOL0     O30569   1.448   5.988   9.685  0.1769  1.0450  0.1036
  968MOL0     C30570   1.323   6.006   9.648 -0.2957  0.2650 -0.7489
  968MOL0     C30571   1.233   5.900   9.659  1.0243  0.5464 -0.2850
  968MOL0     C30572   1.093   5.918   9.630  1.2830  0.8299 -0.2479
  968MOL0     C30573   1.000   5.801   9.653  1.1024 -0.4020 -0.3679
  968MOL0     C30574   1.045   6.044   9.596  0.2543 -0.6722  0.6753
  968MOL0     C30575   0.896   6.073   9.580 -0.6406 -0.0416  1.0139
  968MOL0     O30576   0.862   6.202   9.621  0.1512 -0.1074  0.9847
  968MOL0     C30577   0.740   6.246   9.583 -0.0981  1.0060 -0.2330
  968MOL0     C30578   0.650   6.281   9.685 -0.1312 -0.3641  0.2311
  968MOL0     C30579   0.526   6.339   9.651  0.5610 -0.9537 -0.7221
  968MOL0     C30580   0.490   6.369   9.508 -0.6736  0.3334 -0.1467
  968MOL0     O30581   0.355   6.406   9.482 -0.2446  0.2421 -0.2013
  968MOL0     C30582   0.325   6.398   9.346 -0.5354  0.7527  0.2714
  968MOL0     C30583   0.173   6.429   9.332 -0.1631  0.4980 -0.6164
  968MOL0     C30584   0.088   6.318   9.369  0.1851 -0.0934 -1.2891
  968MOL0     C30585   0.066   6.312   9.522 -0.2675  0.0252 -0.1547
  968MOL0     C30586   0.011   6.174   9.562  0.4448  0.6591 -1.4566
  968MOL0     C30587  -0.029   6.150   9.710  0.5324  0.2391  0.6931
  968MOL0     C30588   0.092   6.110   9.781  0.0746  0.4143  0.5024
  968MOL0     C30589   0.092   6.130   9.923 -0.0279 -0.3367 -0.3046
  968MOL0    Cl30590  -0.019   6.016  10.018 -0.0448  0.4797  0.0827
  968MOL0     C30591   0.585   6.332   9.413 -0.4413  0.8679 -0.1762
  968MOL0     C30592   0.708   6.274   9.452  0.5534  0.6191 -0.1593
  968MOL0     O30593   0.820   5.985   9.540  0.7695 -0.1014  0.1160
  968MOL0     C30594   1.136   6.149   9.586  0.3004  0.3771 -0.0785
  968MOL0     C30595   1.269   6.126   9.610 -0.0553 -0.6375 -0.0165
  968MOL0     N30596   2.076   6.277   9.714  0.2712 -0.0436 -0.9008
  968MOL0     N30597   2.182   6.344   9.757  1.1947 -0.4626  0.5223
  968MOL0     C30598   3.091   6.454   9.896  0.0928  0.9354 -0.6823
  968MOL0     C30599   3.202   6.376   9.931  0.1738 -0.0977 -0.5788
  968MOL0     C30600   3.481   6.059   9.983  0.3547 -0.4392 -0.2524
  968MOL0     C30601   3.581   6.142  10.029  0.0874  0.4359 -0.0569
  968MOL0     C30602   3.689   6.089  10.097 -1.0439  0.0012  0.5707
  968MOL0     C30603   3.694   5.955  10.137 -0.6234 -0.1874 -0.7641
  968MOL0     O30604   3.806   5.909  10.206  0.2262  0.4207  0.4715
  968MOL0     C30605   3.805   5.947  10.345 -0.3658  0.3610  0.1966
  968MOL0     C30606   3.886   5.854  10.435 -0.9123  0.2880 -0.3840
  968MOL0     C30607   4.031   5.868  10.398  0.3010 -0.2738  0.6615
  968MOL0     C30608   4.110   5.806  10.507 -0.1809 -0.4751  0.1527
  968MOL0     C30609   4.130   5.884  10.627 -0.4401 -0.8850 -0.4053
  968MOL0     C30610   4.166   5.955  10.718  0.2785 -0.1094  0.3268
  968MOL0     C30611   3.592   5.866  10.086 -0.0983  0.6481  0.1439
  968MOL0     C30612   3.486   5.927  10.020 -0.3764 -0.4346  0.3874
  968MOL0     H30613   3.332   6.323   9.616 -0.5255 -0.5442 -0.5066
  968MOL0     H30614   3.162   6.459   9.563  0.5435 -1.0426 -0.5519
  968MOL0     H30615   2.875   6.681   9.600  0.4954  0.4728 -3.0812
  968MOL0     H30616   3.006   6.617   9.521  0.6298  2.3555 -0.0112
  968MOL0     H30617   2.804   6.491   9.454 -1.7843  0.9246  0.5304
  968MOL0     H30618   2.894   6.369   9.524 -1.7157 -0.8189  0.5360
  968MOL0     H30619   2.751   6.457   9.752  0.3821 -2.7614 -0.1322
  968MOL0     H30620   2.656   6.546   9.637 -2.0460 -0.9367  2.5202
  968MOL0     H30621   2.615   6.336   9.509  1.4335  0.4364 -0.1746
  968MOL0     H30622   2.720   6.255   9.630  1.9782  2.5359  1.9676
  968MOL0     H30623   2.473   6.402   9.721 -0.7103  0.9228 -3.0996
  968MOL0     H30624   2.434   6.250   9.658 -4.0915  2.4629  2.6651
  968MOL0     H30625   2.608   6.132   9.811  0.8400  0.6453  0.2067
  968MOL0     H30626   2.630   6.288   9.893 -0.6977 -0.5294 -0.2826
  968MOL0     H30627   2.404   6.099   9.928  1.6339 -0.8320  1.9481
  968MOL0     H30628   2.487   6.196  10.039 -0.2689  0.3045 -0.3495
  968MOL0     H30629   2.379   6.403   9.915  1.3625 -0.7323 -2.2282
  968MOL0     H30630   2.306   6.325  10.047  3.9370 -0.2219  1.2314
  968MOL0     H30631   2.107   6.127   9.990 -0.1920  0.3982 -0.3153
  968MOL0     H30632   1.924   6.037   9.699  0.3822  2.1314 -0.3038
  968MOL0     H30633   1.897   6.027   9.870  0.3953  0.9839  0.8278
  968MOL0     H30634   1.764   6.230   9.705  0.3861 -1.1836 -0.1848
  968MOL0     H30635   1.742   6.191   9.879 -1.3600  0.2778 -0.9284
  968MOL0     H30636   1.668   5.962   9.803  0.8429  0.0045 -0.3299
  968MOL0     H30637   1.711   6.005   9.638  0.5404  0.6860  0.2093
  968MOL0     H30638   1.543   6.152   9.601  1.4548 -1.9578 -1.0327
  968MOL0     H30639   1.513   6.177   9.769  1.5591 -0.5751  1.4791
  968MOL0     H30640   1.279   5.810   9.702  2.1730  3.1728  4.8454
  968MOL0     H30641   1.060   5.713   9.680 -0.2443 -0.8222  1.4751
  968MOL0     H30642   0.935   5.823   9.738 -1.9424 -3.0141 -1.7660
  968MOL0     H30643   0.926   5.789   9.573 -1.6072  0.9107  1.7465
  968MOL0     H30644   0.677   6.265   9.789  2.4660  1.3464 -0.0848
  968MOL0     H30645   0.452   6.373   9.722  1.5128 -0.2782 -0.0271
  968MOL0     H30646   0.387   6.470   9.292 -1.8333  1.5886 -0.1685
  968MOL0     H30647   0.339   6.301   9.298  2.2099  0.5660  1.3159
  968MOL0     H30648   0.145   6.523   9.381  1.5579  1.4552 -1.3802
  968MOL0     H30649   0.150   6.437   9.225 -1.1961 -0.4818 -0.4900
  968MOL0     H30650   0.121   6.221   9.333  0.6800 -1.2205  1.8670
  968MOL0     H30651  -0.010   6.335   9.323  0.1380  0.2967 -1.0503
  968MOL0     H30652   0.156   6.328   9.583  1.2792 -0.9297 -2.0703
  968MOL0     H30653  -0.007   6.389   9.548 -0.6849  0.1951 -1.7511
  968MOL0     H30654   0.088   6.102   9.531  1.0603 -0.6425  2.5488
  968MOL0     H30655  -0.082   6.157   9.507 -1.7720 -0.6171  2.3270
  968MOL0     H30656  -0.070   6.243   9.751 -2.3751 -2.1054  3.7475
  968MOL0     H30657  -0.111   6.079   9.725  0.5214  0.4156  1.5778
  968MOL0     H30658   0.178   6.150   9.726 -0.0132 -1.5310 -1.1627
  968MOL0     H30659   0.110   6.003   9.774 -1.7439  0.1377 -0.6532
  968MOL0     H30660   0.077   6.238   9.937 -0.2837  0.0394 -3.0486
  968MOL0     H30661   0.192   6.103   9.956  0.0411 -0.5503 -0.6881
  968MOL0     H30662   0.583   6.341   9.305 -0.1923  2.2623 -0.0924
  968MOL0     H30663   0.788   6.264   9.378 -0.9887  1.7122 -2.0758
  968MOL0     H30664   1.110   6.253   9.568 -0.6221  0.1784  0.0651
  968MOL0     H30665   1.332   6.214   9.604 -1.2133  0.1164 -4.1113
  968MOL0     H30666   3.034   6.507   9.972 -0.4745 -0.4371 -0.1225
  968MOL0     H30667   3.219   6.352  10.035  0.1485 -2.5036 -1.0730
  968MOL0     H30668   3.575   6.245   9.997 -2.4590 -0.3202 -2.3241
  968MOL0     H30669   3.767   6.157  10.130 -0.1734 -0.1450 -1.0863
  968MOL0     H30670   3.844   6.049  10.352  0.1482  0.3693 -2.0781
  968MOL0     H30671   3.701   5.943  10.378 -0.3810  2.2868  0.4722
  968MOL0     H30672   3.855   5.750  10.431  0.6456 -0.3831  2.3494
  968MOL0     H30673   3.877   5.894  10.536  0.4221 -1.7079  0.6049
  968MOL0     H30674   4.058   5.972  10.380 -3.6834  1.2382  2.2190
  968MOL0     H30675   4.034   5.812  10.304  1.7612  0.9781 -0.0794
  968MOL0     H30676   4.207   5.788  10.460 -0.5486 -2.4328  0.0605
  968MOL0     H30677   4.073   5.704  10.522  1.4597 -1.3103 -1.1082
  968MOL0     H30678   4.194   6.027  10.792  0.4816  0.1500  0.0015
  968MOL0     H30679   3.587   5.758  10.095  0.8483  0.4149 -1.7487
  968MOL0     H30680   3.401   5.868   9.986 -1.9303  1.9437 -0.0407
  969MOL0     O30681   0.981   6.149   8.202 -0.0180  0.0832 -0.6193
  969MOL0     C30682   1.034   6.132   8.097  0.2345  0.2500 -1.0632
  969MOL0     O30683   0.963   6.110   7.984  0.0988 -0.1509 -0.6781
  969MOL0     C30684   0.823   6.127   7.994 -0.4473  0.7749  0.0479
  969MOL0     C30685   0.738   6.022   7.956  0.3534  0.6452 -0.4455
  969MOL0     C30686   0.599   6.021   7.958 -0.4941  0.1450 -0.2835
  969MOL0     C30687   0.538   6.139   7.995  0.7955  0.6812 -0.1950
  969MOL0     O30688   0.407   6.160   7.988  0.0848  0.2871  0.3611
  969MOL0     C30689   0.345   6.110   7.870 -0.2984  0.1561  0.4565
  969MOL0     C30690   0.231   6.213   7.867 -0.0742  0.0402 -0.7935
  969MOL0     C30691   0.169   6.207   7.716  0.3338 -0.6841 -0.2789
  969MOL0     C30692   0.078   6.087   7.698 -0.3066 -0.5562  0.2074
  969MOL0     C30693   0.035   6.050   7.550  0.2819  0.1619  0.9697
  969MOL0     C30694  -0.070   5.941   7.527 -0.2253  0.4371 -0.9287
  969MOL0     C30695  -0.093   5.921   7.375  0.1600  0.4941 -0.3311
  969MOL0     C30696  -0.194   5.811   7.342 -0.1357  0.3940 -0.4779
  969MOL0     N30697  -0.315   5.807   7.428  0.4280 -0.0750 -0.4685
  969MOL0     C30698  -0.412   5.899   7.427  0.3090  0.8458 -0.1976
  969MOL0     C30699  -0.485   5.880   7.538  0.2466 -0.2025  0.7732
  969MOL0     C30700  -0.618   5.949   7.565 -0.3633  0.4748 -0.2148
  969MOL0     C30701  -0.711   5.879   7.666 -0.2064 -0.3741 -0.1252
  969MOL0     C30702  -0.854   5.939   7.681 -0.1372  0.6101  0.1034
  969MOL0     C30703  -0.945   5.885   7.577  0.4618 -0.1869  0.3116
  969MOL0     O30704  -1.075   5.938   7.607 -0.1056  0.7553 -0.0267
  969MOL0     C30705  -1.183   5.849   7.634 -0.3906 -0.6518  0.8752
  969MOL0     C30706  -1.275   5.899   7.731  0.4950 -0.0443  0.3412
  969MOL0     C30707  -1.394   5.834   7.752 -0.1717  0.4078  0.1116
  969MOL0     C30708  -1.493   5.880   7.864 -0.6575 -0.2113 -0.6258
  969MOL0     C30709  -1.415   5.701   7.705  0.4394  0.5410 -0.7205
  969MOL0     C30710  -1.540   5.615   7.722  0.6629  0.1388  0.3254
  969MOL0     O30711  -1.654   5.670   7.773  0.0857 -0.4419  0.1047
  969MOL0     C30712  -1.762   5.584   7.779 -0.0608  0.4204 -0.7693
  969MOL0     C30713  -1.773   5.503   7.892 -0.4007  0.7858  1.1275
  969MOL0     C30714  -1.878   5.416   7.916 -0.0144  0.0544 -0.2570
  969MOL0     C30715  -1.991   5.418   7.830  0.2221 -0.2912 -0.6351
  969MOL0     O30716  -2.094   5.335   7.870  0.2402 -0.4828 -0.1288
  969MOL0     C30717  -2.214   5.314   7.794 -0.4583  0.3044  0.0026
  969MOL0     C30718  -2.304   5.432   7.830  0.2878 -0.3091 -0.5736
  969MOL0     C30719  -2.456   5.396   7.812 -1.0917 -0.1784  0.6557
  969MOL0     C30720  -2.497   5.379   7.666 -0.7150  0.6623 -0.4781
  969MOL0     C30721  -2.637   5.314   7.667 -0.9610  0.0286 -0.3966
  969MOL0     C30722  -2.702   5.330   7.532 -0.4972  0.3096  0.4339
  969MOL0     C30723  -2.830   5.244   7.526 -1.2384  0.1963  0.2085
  969MOL0     C30724  -2.895   5.223   7.384 -0.2891 -0.5156 -1.4533
  969MOL0    Cl30725  -2.937   5.384   7.331 -0.2643 -0.0243 -0.0671
  969MOL0     C30726  -1.995   5.515   7.726 -0.8776 -0.1875 -0.5077
  969MOL0     C30727  -1.878   5.596   7.700 -0.1853  0.1877  0.6089
  969MOL0     O30728  -1.520   5.500   7.717  0.8148  0.6319  0.2905
  969MOL0     C30729  -1.315   5.644   7.623 -0.1044 -0.0710  0.3348
  969MOL0     C30730  -1.205   5.718   7.585 -0.3741 -0.9064  0.2569
  969MOL0     N30731  -0.431   5.774   7.612  0.5229 -0.3895  0.3712
  969MOL0     N30732  -0.325   5.739   7.543 -1.2063 -0.5964 -0.0591
  969MOL0     C30733   0.621   6.248   8.039  0.5125  0.7055 -0.5834
  969MOL0     C30734   0.765   6.242   8.031  0.7089  0.7120  0.3269
  969MOL0     C30735   1.185   6.104   8.103 -0.0255  0.3205  0.1905
  969MOL0     C30736   1.265   6.148   8.219 -0.0646 -0.2388  0.7210
  969MOL0     C30737   1.401   6.120   8.213 -0.8056 -0.0847 -0.1506
  969MOL0     C30738   1.460   6.054   8.102  0.1856 -0.4876 -0.3312
  969MOL0     O30739   1.587   6.027   8.102  0.3006  0.4598  0.0218
  969MOL0     C30740   1.669   6.015   7.986 -0.0389  0.0392 -0.5568
  969MOL0     C30741   1.812   6.035   8.039 -0.1368 -0.7635 -0.5630
  969MOL0     C30742   1.919   6.010   7.938  0.3009  0.3296 -0.4010
  969MOL0     C30743   2.049   6.082   7.976 -0.5935  1.0746 -0.1854
  969MOL0     C30744   2.152   6.079   7.877 -0.0663 -0.7664  0.0798
  969MOL0     C30745   2.244   6.066   7.799 -0.0241 -0.9536  0.5480
  969MOL0     C30746   1.381   6.006   8.000  0.5646 -0.4614  1.1739
  969MOL0     C30747   1.242   6.030   7.998 -0.6123 -0.0941 -0.1405
  969MOL0     H30748   0.787   5.938   7.908  1.0291 -0.1387  1.4777
  969MOL0     H30749   0.538   5.937   7.925 -1.5017  0.4385  0.7655
  969MOL0     H30750   0.408   6.099   7.781 -0.1410  1.1333  0.4277
  969MOL0     H30751   0.310   6.009   7.890  1.2812 -0.8625 -1.5330
  969MOL0     H30752   0.149   6.198   7.937  1.3890  1.2106  1.3150
  969MOL0     H30753   0.265   6.316   7.887  0.3755 -0.1892 -0.3461
  969MOL0     H30754   0.120   6.302   7.695 -0.2689 -0.9772 -0.2246
  969MOL0     H30755   0.256   6.188   7.652 -0.7457 -0.6078 -1.8382
  969MOL0     H30756   0.107   5.996   7.752 -0.2285 -0.4318  0.3752
  969MOL0     H30757  -0.020   6.116   7.739  0.5658 -0.7922  2.6390
  969MOL0     H30758   0.003   6.145   7.506  1.3077  0.7451  1.4564
  969MOL0     H30759   0.126   6.018   7.499 -0.4801 -1.9155  0.8049
  969MOL0     H30760  -0.025   5.856   7.578  2.7397  3.5841  2.2573
  969MOL0     H30761  -0.158   5.989   7.572 -0.5783  0.6426 -1.8165
  969MOL0     H30762  -0.126   6.017   7.335 -1.4023 -0.3541 -1.1780
  969MOL0     H30763  -0.004   5.882   7.326 -1.5228 -1.4785 -2.0578
  969MOL0     H30764  -0.150   5.712   7.353 -0.7590  0.2336  0.8023
  969MOL0     H30765  -0.221   5.822   7.236  0.1396 -5.0920 -1.4025
  969MOL0     H30766  -0.442   5.967   7.348  0.8277 -1.1431 -2.2002
  969MOL0     H30767  -0.594   6.053   7.589 -0.1557 -0.0381  1.9713
  969MOL0     H30768  -0.670   5.959   7.469  0.6140 -0.8064 -0.9071
  969MOL0     H30769  -0.670   5.886   7.767 -0.4440  1.3596 -0.1087
  969MOL0     H30770  -0.725   5.779   7.625 -0.7473  0.2649 -1.5781
  969MOL0     H30771  -0.865   6.047   7.690 -0.5302  0.6911 -1.0851
  969MOL0     H30772  -0.887   5.903   7.779  0.0531  3.3512  1.2687
  969MOL0     H30773  -0.947   5.775   7.577 -2.4501 -0.2964 -2.4170
  969MOL0     H30774  -0.917   5.902   7.473  0.5308 -2.8501 -0.1837
  969MOL0     H30775  -1.265   5.992   7.785 -1.4804 -1.1922  2.9543
  969MOL0     H30776  -1.481   5.800   7.937  2.2637  0.4020 -0.2976
  969MOL0     H30777  -1.459   5.978   7.900 -2.9378  0.7530 -0.9523
  969MOL0     H30778  -1.598   5.884   7.833 -1.6876 -1.0272  2.3547
  969MOL0     H30779  -1.687   5.499   7.959  1.3188 -0.4589 -0.9976
  969MOL0     H30780  -1.880   5.354   8.005  2.4999  0.6443  0.2787
  969MOL0     H30781  -2.183   5.322   7.690  2.4870 -1.7626  0.6032
  969MOL0     H30782  -2.262   5.218   7.816  0.3609 -0.1541 -0.1787
  969MOL0     H30783  -2.294   5.450   7.938 -1.7011  1.3188 -0.6232
  969MOL0     H30784  -2.285   5.524   7.775  1.0300 -0.3905 -0.4745
  969MOL0     H30785  -2.524   5.471   7.853 -0.6759  0.0213  0.9918
  969MOL0     H30786  -2.468   5.300   7.863 -0.2385 -2.4569 -3.0354
  969MOL0     H30787  -2.499   5.480   7.626  0.8230  0.2397 -1.6930
  969MOL0     H30788  -2.425   5.321   7.608  1.5613  2.8447 -0.0253
  969MOL0     H30789  -2.703   5.370   7.734 -0.6768  0.3315 -0.3725
  969MOL0     H30790  -2.648   5.207   7.691 -0.9799 -0.1728 -1.2791
  969MOL0     H30791  -2.713   5.434   7.501 -0.6046  0.0078 -0.6045
  969MOL0     H30792  -2.639   5.277   7.458  1.2680 -0.0968  2.1405
  969MOL0     H30793  -2.910   5.275   7.593 -0.0173 -1.3620  2.5100
  969MOL0     H30794  -2.806   5.150   7.577  0.6774  2.1275  3.1316
  969MOL0     H30795  -2.984   5.160   7.378 -0.5611  0.0089 -3.7454
  969MOL0     H30796  -2.815   5.187   7.320  1.0711  0.7451 -0.5442
  969MOL0     H30797  -2.081   5.535   7.663  0.1242  1.4142 -1.4370
  969MOL0     H30798  -1.854   5.654   7.612  2.2870 -2.5691 -0.6964
  969MOL0     H30799  -1.324   5.545   7.578  2.8188  0.0376 -0.7093
  969MOL0     H30800  -1.117   5.681   7.532  1.3807  3.5242 -0.3753
  969MOL0     H30801   0.583   6.341   8.081  3.6447  1.7303  0.2143
  969MOL0     H30802   0.824   6.323   8.072  0.8170  0.0293  1.5586
  969MOL0     H30803   1.233   6.204   8.306  4.0289  0.3239  2.0296
  969MOL0     H30804   1.473   6.152   8.288  1.4942  0.3748 -2.4047
  969MOL0     H30805   1.656   5.927   7.923 -3.2894  0.0324 -0.0338
  969MOL0     H30806   1.643   6.092   7.913  1.7365 -0.1104 -1.4069
  969MOL0     H30807   1.837   5.984   8.132  2.8318  0.4147 -0.6172
  969MOL0     H30808   1.820   6.141   8.065 -2.0636  0.0800 -2.9770
  969MOL0     H30809   1.896   6.055   7.842  1.3010  0.3183 -0.6621
  969MOL0     H30810   1.930   5.901   7.936  0.3332  0.1852  2.4358
  969MOL0     H30811   2.093   6.042   8.067  2.6446 -2.2883 -2.8986
  969MOL0     H30812   2.034   6.187   8.001  1.1794  0.8857  1.9065
  969MOL0     H30813   2.326   6.052   7.731  1.5124  2.3141  1.5088
  969MOL0     H30814   1.420   5.958   7.910  1.4366  0.0063  1.2859
  969MOL0     H30815   1.190   5.988   7.913 -0.0484  2.0118 -1.6050
  970MOL0     O30816  10.018   8.411   2.117 -0.0798  0.2354  1.2404
  970MOL0     C30817  10.085   8.461   2.212 -0.5187  0.7850  0.7244
  970MOL0     O30818  10.032   8.490   2.335  0.0899 -0.1047 -0.5102
  970MOL0     C30819   9.893   8.492   2.358 -0.0257  0.0250 -0.8122
  970MOL0     C30820   9.838   8.585   2.432  0.2209 -0.3400 -0.7099
  970MOL0     C30821   9.702   8.587   2.472  0.2234 -0.4449 -0.6856
  970MOL0     C30822   9.615   8.484   2.435  0.6651  0.0569 -0.2175
  970MOL0     O30823   9.483   8.466   2.467  0.0020 -0.3036 -0.0990
  970MOL0     C30824   9.407   8.552   2.553 -0.0935 -0.7975  0.0694
  970MOL0     C30825   9.318   8.635   2.450 -0.5581 -0.4227 -0.2520
  970MOL0     C30826   9.195   8.677   2.513  0.2131 -0.2392 -0.0224
  970MOL0     C30827   9.108   8.765   2.419 -0.1956  0.2574 -0.8326
  970MOL0     C30828   8.975   8.820   2.482  0.6458 -0.3568  0.3741
  970MOL0     C30829   8.881   8.709   2.520 -0.1674 -0.2727  0.0873
  970MOL0     C30830   8.756   8.768   2.589 -0.6481 -0.2491 -0.6960
  970MOL0     C30831   8.662   8.653   2.620 -0.3083  0.5377 -0.5088
  970MOL0     N30832   8.532   8.672   2.686  0.7488 -0.1069  0.0251
  970MOL0     C30833   8.504   8.627   2.811  0.0511  0.0144 -0.5295
  970MOL0     C30834   8.373   8.669   2.828 -0.3385  0.7762  0.2688
  970MOL0     C30835   8.292   8.660   2.954 -0.6053  0.4918  0.3256
  970MOL0     C30836   8.178   8.567   2.911  0.7796  0.9183  0.1854
  970MOL0     C30837   8.085   8.534   3.032  0.0690 -0.3051  0.1325
  970MOL0     C30838   7.930   8.527   3.000 -0.0599 -0.5893 -0.3675
  970MOL0     O30839   7.845   8.564   3.105 -0.0794  0.2699  0.4437
  970MOL0     C30840   7.716   8.590   3.081 -0.5459 -0.0797 -0.0217
  970MOL0     C30841   7.642   8.568   2.959  0.1192 -0.1294  0.3831
  970MOL0     C30842   7.502   8.584   2.952  0.4643 -0.2212  0.1431
  970MOL0     C30843   7.439   8.557   2.821  0.8154  0.6311  0.1711
  970MOL0     C30844   7.430   8.604   3.073  0.1382 -0.9546  0.3665
  970MOL0     C30845   7.284   8.586   3.087  0.6143  0.9027 -0.0811
  970MOL0     O30846   7.214   8.673   3.165  0.6139 -0.1829  0.1670
  970MOL0     C30847   7.081   8.677   3.170 -0.6154  0.4988 -0.0753
  970MOL0     C30848   7.012   8.676   3.046  0.1531 -0.5896  0.2613
  970MOL0     C30849   6.882   8.711   3.045  0.1595  0.4031 -0.4435
  970MOL0     C30850   6.814   8.751   3.164 -0.4033 -0.4504 -0.3955
  970MOL0     O30851   6.685   8.796   3.173  0.4304 -0.5037  0.1479
  970MOL0     C30852   6.616   8.836   3.060  0.0317  0.9336 -0.3202
  970MOL0     C30853   6.489   8.913   3.113  0.3637  0.4034  1.1155
  970MOL0     C30854   6.414   8.840   3.225 -0.1059 -0.3022  0.4957
  970MOL0     C30855   6.283   8.919   3.266 -0.8923 -0.0842 -0.4408
  970MOL0     C30856   6.194   8.876   3.383 -0.4039  0.2895 -0.2666
  970MOL0     C30857   6.066   8.963   3.393 -0.0979  0.1813 -0.2720
  970MOL0     C30858   5.983   8.905   3.512  0.1986  0.3419  0.1533
  970MOL0     C30859   5.875   9.004   3.559 -0.4924  0.1419 -0.0418
  970MOL0    Cl30860   5.807   9.095   3.426  0.3268 -0.2778 -0.1107
  970MOL0     C30861   6.886   8.751   3.290  0.5449 -0.2082 -0.1213
  970MOL0     C30862   7.019   8.715   3.293 -0.3231 -0.5041  0.3957
  970MOL0     O30863   7.238   8.489   3.023 -0.5684  0.6308  0.3774
  970MOL0     C30864   7.495   8.636   3.187 -0.4471  0.5096 -1.1443
  970MOL0     C30865   7.639   8.626   3.190 -0.5943 -0.7733 -0.5325
  970MOL0     N30866   8.328   8.726   2.710  0.0364 -0.1072  0.0011
  970MOL0     N30867   8.426   8.727   2.625  0.0434 -0.8309 -0.3142
  970MOL0     C30868   9.674   8.385   2.352  0.0989 -0.4405  0.4465
  970MOL0     C30869   9.819   8.390   2.318  0.5563  0.2150  0.4233
  970MOL0     C30870  10.228   8.488   2.193  0.7583  0.2922  0.3531
  970MOL0     C30871  10.297   8.441   2.074 -0.1200 -0.2064 -0.7573
  970MOL0     C30872  10.436   8.473   2.057 -0.6204  0.0374 -1.4267
  970MOL0     C30873  10.505   8.543   2.165 -0.4658  0.9041 -0.0060
  970MOL0     O30874  10.637   8.565   2.170 -0.1918 -0.3175 -0.0368
  970MOL0     C30875  10.722   8.558   2.055 -0.0717 -0.7521 -1.5036
  970MOL0     C30876  10.863   8.592   2.083 -0.1813 -0.4192  0.7318
  970MOL0     C30877  10.892   8.736   2.128 -0.5921 -0.8688 -0.4524
  970MOL0     C30878  11.036   8.741   2.169 -0.2744 -0.3919  0.2065
  970MOL0     C30879  11.043   8.846   2.273 -0.1887 -0.7722 -0.9335
  970MOL0     C30880  11.046   8.940   2.356 -0.0964 -0.5980  0.6035
  970MOL0     C30881  10.431   8.582   2.280  0.1153 -0.2706 -0.0589
  970MOL0     C30882  10.294   8.561   2.297 -0.0345 -0.1935  0.1851
  970MOL0     H30883   9.907   8.659   2.471  2.5784 -1.7802 -1.9086
  970MOL0     H30884   9.664   8.667   2.534  0.4405  1.3169 -2.6932
  970MOL0     H30885   9.350   8.498   2.629 -1.2082 -1.1155 -0.9522
  970MOL0     H30886   9.475   8.614   2.611  0.4451 -1.8706  0.6084
  970MOL0     H30887   9.374   8.728   2.438 -0.1326 -0.6155  0.2037
  970MOL0     H30888   9.279   8.585   2.361 -1.3356  1.4382 -1.0328
  970MOL0     H30889   9.144   8.588   2.551  0.8362 -0.1132  1.1459
  970MOL0     H30890   9.216   8.735   2.603  0.2727  2.1773 -1.5063
  970MOL0     H30891   9.177   8.848   2.401  0.6801  0.6962  3.5879
  970MOL0     H30892   9.097   8.713   2.323  1.7579  1.2601 -1.6682
  970MOL0     H30893   9.004   8.872   2.573  2.5368 -2.6042  1.1515
  970MOL0     H30894   8.928   8.888   2.410 -2.2049 -1.8919  0.6311
  970MOL0     H30895   8.856   8.658   2.426 -0.1665  0.9183 -0.5762
  970MOL0     H30896   8.924   8.638   2.591  4.5038 -0.6418 -2.6875
  970MOL0     H30897   8.785   8.827   2.677  1.0073 -0.2793 -1.1849
  970MOL0     H30898   8.700   8.832   2.519 -1.3929  4.0381  3.3158
  970MOL0     H30899   8.725   8.588   2.682  0.9757  1.7478 -0.4720
  970MOL0     H30900   8.652   8.602   2.524 -2.0155 -2.3966  1.0817
  970MOL0     H30901   8.571   8.579   2.881  1.4970 -0.8424 -2.4100
  970MOL0     H30902   8.340   8.617   3.042  1.6382 -0.4242 -1.2737
  970MOL0     H30903   8.259   8.759   2.986 -3.6812 -0.3190  0.0766
  970MOL0     H30904   8.205   8.468   2.874 -1.9023  0.9237 -2.0769
  970MOL0     H30905   8.114   8.613   2.836  0.6946  1.9751  0.8734
  970MOL0     H30906   8.100   8.616   3.103 -1.3154 -0.6043  0.7792
  970MOL0     H30907   8.117   8.443   3.083 -2.0499 -1.8325 -1.0996
  970MOL0     H30908   7.906   8.423   2.976 -1.4499 -1.2750  3.3920
  970MOL0     H30909   7.916   8.598   2.918  5.1594 -0.8942 -1.8959
  970MOL0     H30910   7.694   8.538   2.869 -0.0179  0.5719  0.0644
  970MOL0     H30911   7.443   8.448   2.823 -0.0749  0.6000  1.2576
  970MOL0     H30912   7.335   8.589   2.812  0.4342 -0.6127 -0.0565
  970MOL0     H30913   7.498   8.592   2.735 -1.2874  1.7467 -0.9061
  970MOL0     H30914   7.060   8.667   2.950 -0.8477  1.9188 -0.5410
  970MOL0     H30915   6.833   8.708   2.949 -1.8896  2.6075  0.4516
  970MOL0     H30916   6.675   8.909   3.004 -0.7231 -0.5610 -3.2553
  970MOL0     H30917   6.586   8.748   3.001 -1.5170  1.5572 -0.5088
  970MOL0     H30918   6.534   9.008   3.144  0.3376  1.5736 -2.0961
  970MOL0     H30919   6.423   8.940   3.030 -0.9904 -0.6234  1.8170
  970MOL0     H30920   6.485   8.819   3.306  0.4566  1.4831  0.5003
  970MOL0     H30921   6.376   8.743   3.193  0.1745  0.4827 -2.5266
  970MOL0     H30922   6.320   9.017   3.298 -1.2689  0.3112 -1.1881
  970MOL0     H30923   6.221   8.932   3.177 -0.4398 -1.4694 -0.9746
  970MOL0     H30924   6.251   8.886   3.476  0.9129 -0.2910 -0.9844
  970MOL0     H30925   6.162   8.772   3.372  2.4198 -0.7890  0.8256
  970MOL0     H30926   6.099   9.066   3.406  0.9764 -0.0037 -1.2870
  970MOL0     H30927   6.014   8.946   3.299 -0.4876 -0.1907  0.0098
  970MOL0     H30928   6.057   8.876   3.586  0.9447  0.5391 -0.5062
  970MOL0     H30929   5.928   8.818   3.473 -1.8324  0.0458  3.2566
  970MOL0     H30930   5.926   9.069   3.630  0.7727  2.5656 -2.9511
  970MOL0     H30931   5.800   8.945   3.612 -1.2585 -0.4002 -1.6546
  970MOL0     H30932   6.826   8.775   3.378  0.4693 -1.8049  0.3005
  970MOL0     H30933   7.086   8.728   3.378  0.9621 -1.0736 -0.4949
  970MOL0     H30934   7.442   8.646   3.281  1.5932 -2.8130  0.5733
  970MOL0     H30935   7.693   8.648   3.282  4.4386 -0.7171 -3.1803
  970MOL0     H30936   9.610   8.307   2.311 -1.8965  2.1449 -1.6705
  970MOL0     H30937   9.852   8.303   2.262  1.0690  1.1141 -0.7199
  970MOL0     H30938  10.240   8.390   1.998 -1.5522  3.5879 -2.4612
  970MOL0     H30939  10.511   8.444   1.983 -0.6071  1.9516 -2.2108
  970MOL0     H30940  10.722   8.455   2.016  2.1223 -1.3989 -0.0226
  970MOL0     H30941  10.680   8.610   1.969  1.0967 -1.5938 -2.6267
  970MOL0     H30942  10.930   8.577   1.997  0.5409 -2.8445  1.6315
  970MOL0     H30943  10.892   8.526   2.165 -0.1637  2.6011  3.3371
  970MOL0     H30944  10.824   8.757   2.212  0.5184 -0.4723  0.3676
  970MOL0     H30945  10.872   8.816   2.057  0.8487  3.8761  3.8699
  970MOL0     H30946  11.100   8.769   2.085  0.4354 -0.3775  0.7437
  970MOL0     H30947  11.078   8.646   2.204  2.0956  0.5068 -0.0029
  970MOL0     H30948  11.036   9.022   2.424 -2.3851  2.8610 -3.3792
  970MOL0     H30949  10.491   8.624   2.361 -0.3349  0.0545  0.1069
  970MOL0     H30950  10.247   8.595   2.389  0.9777 -1.5199  1.2212
  971MOL0     O30951   1.418   3.494   8.426  0.2806 -0.1989  0.4682
  971MOL0     C30952   1.425   3.607   8.461 -0.5082  0.0943  0.0935
  971MOL0     O30953   1.316   3.687   8.470  0.6724 -0.0243 -0.2689
  971MOL0     C30954   1.184   3.642   8.465  0.3651  0.2198 -0.4185
  971MOL0     C30955   1.144   3.546   8.373 -0.6414 -0.1085 -0.3074
  971MOL0     C30956   1.015   3.505   8.359 -0.7332  0.1042 -0.4369
  971MOL0     C30957   0.913   3.583   8.429  0.6469 -0.6811 -0.0522
  971MOL0     O30958   0.773   3.557   8.434 -0.4273  0.9600 -0.1153
  971MOL0     C30959   0.720   3.466   8.345  0.0154 -0.8668  0.1694
  971MOL0     C30960   0.583   3.430   8.386  0.5108 -0.2712  0.1975
  971MOL0     C30961   0.567   3.296   8.479 -0.3394 -0.4471  0.4172
  971MOL0     C30962   0.585   3.177   8.375 -0.4182 -0.7114 -0.4680
  971MOL0     C30963   0.570   3.041   8.436 -0.6610  0.2632 -0.2395
  971MOL0     C30964   0.429   3.023   8.485 -0.4510 -0.1774 -0.0270
  971MOL0     C30965   0.413   2.868   8.517 -0.7532 -0.4240  0.1770
  971MOL0     C30966   0.263   2.834   8.557  0.5064 -0.5315  0.1190
  971MOL0     N30967   0.244   2.704   8.623  0.2862  0.1086  0.9262
  971MOL0     C30968   0.318   2.660   8.725 -0.7198 -0.3914 -0.2348
  971MOL0     C30969   0.315   2.523   8.721 -0.3433 -0.2889  0.0241
  971MOL0     C30970   0.392   2.433   8.810 -0.8543 -0.6917 -0.5106
  971MOL0     C30971   0.548   2.433   8.786  0.8031  1.2444  1.1824
  971MOL0     C30972   0.617   2.370   8.912  0.2908  0.0718  0.2673
  971MOL0     C30973   0.761   2.323   8.897  0.5500 -1.2473  0.0666
  971MOL0     O30974   0.777   2.262   8.772  0.0717  0.3339  0.7723
  971MOL0     C30975   0.900   2.232   8.721 -0.8006  0.2610  0.9040
  971MOL0     C30976   0.928   2.237   8.587 -0.3696  0.7416 -0.0205
  971MOL0     C30977   1.044   2.201   8.530  0.6633 -0.2535  0.3572
  971MOL0     C30978   1.059   2.210   8.381  0.2143 -0.3781  0.4950
  971MOL0     C30979   1.155   2.157   8.611  0.1137 -0.0934  0.5200
  971MOL0     C30980   1.292   2.143   8.551 -0.0362 -0.0402 -0.3374
  971MOL0     O30981   1.400   2.177   8.627  0.0199  0.5736  0.5687
  971MOL0     C30982   1.528   2.140   8.588  0.6790 -0.4912 -0.5536
  971MOL0     C30983   1.581   2.156   8.462  0.2404 -0.4840 -0.2661
  971MOL0     C30984   1.716   2.124   8.428  0.8719  1.1982 -0.7995
  971MOL0     C30985   1.790   2.064   8.536  0.5688  0.1555  0.7958
  971MOL0     O30986   1.917   2.022   8.519 -0.0300  0.3226  0.0770
  971MOL0     C30987   1.993   2.083   8.414 -0.3604  0.1926 -0.3645
  971MOL0     C30988   2.143   2.048   8.441 -0.7130  0.4500  0.0633
  971MOL0     C30989   2.196   2.088   8.582  0.1905  0.4689  0.4009
  971MOL0     C30990   2.322   2.014   8.624 -0.3397  0.0540  0.6184
  971MOL0     C30991   2.436   2.053   8.528  0.2799 -0.0597 -0.4543
  971MOL0     C30992   2.587   2.036   8.584  0.5895 -0.6090 -0.2467
  971MOL0     C30993   2.620   1.886   8.578  0.1554  0.3110  1.4214
  971MOL0     C30994   2.750   1.854   8.650  0.4058 -0.2761 -0.4931
  971MOL0    Cl30995   2.893   1.939   8.581 -0.1362  0.0261  0.6433
  971MOL0     C30996   1.729   2.023   8.656  0.3146  0.6610 -0.2366
  971MOL0     C30997   1.596   2.072   8.681 -1.2535 -0.8300 -0.3174
  971MOL0     O30998   1.302   2.092   8.439 -0.2195 -0.3827 -0.0213
  971MOL0     C30999   1.131   2.140   8.748  0.5423 -0.8551  0.3245
  971MOL0     C31000   1.007   2.183   8.801 -0.3495  1.0386  0.3265
  971MOL0     N31001   0.255   2.494   8.601  0.0209 -0.0318 -0.1951
  971MOL0     N31002   0.213   2.598   8.544  0.1964 -0.6912 -0.4671
  971MOL0     C31003   0.958   3.686   8.521  0.6546 -0.5966  0.2795
  971MOL0     C31004   1.091   3.719   8.534  0.1868 -0.4460  0.3144
  971MOL0     C31005   1.548   3.659   8.525  0.0620 -0.0476  0.0929
  971MOL0     C31006   1.672   3.616   8.473 -0.3888  0.3028  0.4124
  971MOL0     C31007   1.790   3.680   8.513  0.8733 -0.5013  0.0293
  971MOL0     C31008   1.788   3.765   8.627 -0.1998  0.3869 -0.3378
  971MOL0     O31009   1.907   3.825   8.672  0.8184 -0.0149 -0.1752
  971MOL0     C31010   2.033   3.769   8.649 -0.2155  1.2606  0.2277
  971MOL0     C31011   2.101   3.839   8.532  0.4919 -0.0208  0.3144
  971MOL0     C31012   2.228   3.909   8.586 -0.4628  0.2926 -0.0625
  971MOL0     C31013   2.294   3.991   8.471  0.3154  0.4809 -0.6275
  971MOL0     C31014   2.364   3.906   8.377  0.4458 -0.0172  0.3793
  971MOL0     C31015   2.415   3.829   8.300  0.0553  0.2041  0.0296
  971MOL0     C31016   1.664   3.802   8.678  0.4616  0.5684  0.2602
  971MOL0     C31017   1.545   3.747   8.632  0.3959  0.1501 -0.7253
  971MOL0     H31018   1.211   3.489   8.309  1.2897 -0.6967  2.0884
  971MOL0     H31019   0.977   3.431   8.290  0.3873  0.5606 -1.5779
  971MOL0     H31020   0.704   3.536   8.262 -2.9651 -0.7441  0.7348
  971MOL0     H31021   0.782   3.382   8.314 -1.6115 -1.7902 -0.7050
  971MOL0     H31022   0.537   3.516   8.436 -1.6797 -1.5423  0.5257
  971MOL0     H31023   0.520   3.420   8.297 -1.2113 -1.9721  1.5146
  971MOL0     H31024   0.645   3.292   8.555  0.3733 -0.2805 -0.2906
  971MOL0     H31025   0.474   3.301   8.537 -1.1510  3.8237 -0.8538
  971MOL0     H31026   0.511   3.189   8.295 -3.4533  0.5886  2.2656
  971MOL0     H31027   0.686   3.171   8.334  0.5209 -4.7108  1.9485
  971MOL0     H31028   0.596   2.973   8.354 -0.2765  0.7876 -0.5534
  971MOL0     H31029   0.638   3.012   8.516 -0.7513 -1.9193 -0.8766
  971MOL0     H31030   0.416   3.091   8.570  1.2013  2.8566 -2.0211
  971MOL0     H31031   0.345   3.049   8.419 -1.8366 -4.1070 -0.0884
  971MOL0     H31032   0.434   2.819   8.422 -0.3907  0.5732 -0.2728
  971MOL0     H31033   0.494   2.836   8.584  1.6647  0.3434 -2.1915
  971MOL0     H31034   0.204   2.833   8.465 -0.8562  0.3865  0.9526
  971MOL0     H31035   0.227   2.914   8.623  2.9146  2.4998 -1.9346
  971MOL0     H31036   0.381   2.712   8.797 -2.5913 -0.4027  1.4958
  971MOL0     H31037   0.370   2.465   8.912 -2.0040 -0.4094 -0.8337
  971MOL0     H31038   0.344   2.337   8.789 -0.4859 -0.8365 -0.6983
  971MOL0     H31039   0.584   2.532   8.757  0.9516  0.8225 -0.1564
  971MOL0     H31040   0.575   2.378   8.695 -1.3057  5.3536 -2.2539
  971MOL0     H31041   0.565   2.287   8.961  1.5361 -1.5281 -0.9974
  971MOL0     H31042   0.614   2.453   8.983  0.0580  0.4434 -0.1659
  971MOL0     H31043   0.786   2.258   8.981  1.0730 -0.9197  0.1687
  971MOL0     H31044   0.827   2.410   8.899  0.1853 -0.9555 -0.4124
  971MOL0     H31045   0.841   2.263   8.528 -0.8863  0.9482  0.8131
  971MOL0     H31046   1.096   2.116   8.339  1.2017 -0.0965  0.7167
  971MOL0     H31047   0.963   2.224   8.330  1.1759 -1.1096 -1.6643
  971MOL0     H31048   1.116   2.297   8.348 -0.3253 -0.2174 -0.0513
  971MOL0     H31049   1.526   2.201   8.379 -0.9296 -1.6814 -0.1738
  971MOL0     H31050   1.757   2.137   8.328  2.4919 -2.4900 -0.7472
  971MOL0     H31051   1.967   2.038   8.318  4.5948 -1.1342 -1.3332
  971MOL0     H31052   1.984   2.192   8.406 -2.7273  0.1986  1.2878
  971MOL0     H31053   2.156   1.940   8.426 -1.4490  0.3810 -0.0995
  971MOL0     H31054   2.211   2.092   8.368 -0.4317 -0.5700 -0.3082
  971MOL0     H31055   2.115   2.070   8.652 -0.0695  2.4609  0.6597
  971MOL0     H31056   2.194   2.197   8.585  0.7082  0.4662  0.9662
  971MOL0     H31057   2.335   2.038   8.730 -3.8749  0.9205  0.9554
  971MOL0     H31058   2.308   1.906   8.612  0.7587 -0.4162  3.0239
  971MOL0     H31059   2.429   2.161   8.512 -0.4380  0.1289  0.9958
  971MOL0     H31060   2.427   1.996   8.435 -0.1816  3.6270 -2.8847
  971MOL0     H31061   2.660   2.099   8.531  1.7442  0.4106  2.3765
  971MOL0     H31062   2.592   2.062   8.690  0.2416 -3.0091  0.4028
  971MOL0     H31063   2.623   1.861   8.472  2.2202  3.7690  0.5247
  971MOL0     H31064   2.540   1.820   8.614  1.3003 -1.5692  0.6837
  971MOL0     H31065   2.769   1.746   8.640  3.6351  0.3132 -2.3780
  971MOL0     H31066   2.741   1.870   8.758 -1.4023 -1.9217 -0.3447
  971MOL0     H31067   1.794   1.964   8.720 -0.1704 -1.5801 -1.6682
  971MOL0     H31068   1.543   2.048   8.772 -1.8007 -0.5377 -0.5542
  971MOL0     H31069   1.216   2.106   8.806  0.4584 -0.9942  0.3665
  971MOL0     H31070   1.004   2.186   8.909  1.2164 -0.1195  0.4289
  971MOL0     H31071   0.876   3.739   8.569  0.0640 -1.6854  0.5011
  971MOL0     H31072   1.125   3.800   8.597 -1.1363 -0.5416  1.1855
  971MOL0     H31073   1.684   3.549   8.388 -1.4257 -2.4484  2.2989
  971MOL0     H31074   1.885   3.641   8.474 -0.0906 -5.1410  1.6087
  971MOL0     H31075   2.097   3.790   8.736  2.9364  3.5840 -2.4099
  971MOL0     H31076   2.031   3.661   8.633 -0.3910  1.5999 -2.3414
  971MOL0     H31077   2.032   3.917   8.497  1.8349  1.2433  0.3890
  971MOL0     H31078   2.133   3.769   8.455  1.3404 -0.8518  1.3877
  971MOL0     H31079   2.298   3.834   8.623  0.6249  1.5664  0.5277
  971MOL0     H31080   2.205   3.972   8.673 -0.3332 -0.9654  0.9194
  971MOL0     H31081   2.373   4.043   8.524  1.4000 -2.5590  1.0076
  971MOL0     H31082   2.221   4.057   8.423  2.9435  1.6976 -3.2599
  971MOL0     H31083   2.452   3.755   8.232  6.9634  1.2217  1.9105
  971MOL0     H31084   1.660   3.883   8.749 -1.2564  0.9309 -0.2186
  971MOL0     H31085   1.450   3.773   8.678 -0.0200  2.9072 -2.8738
  972MOL0     O31086   9.577   6.587  11.341 -0.3323  1.5685 -0.2614
  972MOL0     C31087   9.653   6.687  11.367  0.3980 -0.2045  0.5539
  972MOL0     O31088   9.622   6.820  11.348  0.2985  0.0373 -0.6043
  972MOL0     C31089   9.499   6.866  11.292  0.6635  0.6732 -0.2376
  972MOL0     C31090   9.394   6.787  11.240 -0.3086  0.5327  0.0232
  972MOL0     C31091   9.273   6.849  11.209 -0.2897  0.2307  0.3599
  972MOL0     C31092   9.254   6.988  11.215 -0.6142  0.0013 -0.1211
  972MOL0     O31093   9.123   7.045  11.188 -0.0613 -0.5718  0.3550
  972MOL0     C31094   9.003   6.959  11.176 -0.3391 -0.3073 -0.3540
  972MOL0     C31095   8.864   7.037  11.175 -0.0608  0.0090 -0.8260
  972MOL0     C31096   8.746   6.949  11.156  0.1624 -0.5709  0.6171
  972MOL0     C31097   8.616   7.014  11.172  0.7047  0.3209  0.0143
  972MOL0     C31098   8.486   6.920  11.162 -0.1330 -0.2795 -0.6648
  972MOL0     C31099   8.361   7.007  11.171  1.3178 -0.7932  0.3168
  972MOL0     C31100   8.237   6.916  11.167  1.4942 -0.0868  0.3340
  972MOL0     C31101   8.107   6.988  11.190 -0.3517 -0.6737  0.3226
  972MOL0     N31102   7.998   6.901  11.218  0.6777 -1.0160  0.3626
  972MOL0     C31103   7.958   6.852  11.344 -0.7105 -0.6053  0.1029
  972MOL0     C31104   7.824   6.814  11.330 -0.3836  0.0314  0.1128
  972MOL0     C31105   7.746   6.764  11.441 -0.6741 -0.0453  0.9511
  972MOL0     C31106   7.606   6.704  11.416  0.2042 -0.2122  0.1302
  972MOL0     C31107   7.503   6.819  11.384  0.0266  0.4841  0.0217
  972MOL0     C31108   7.420   6.867  11.510 -0.1845 -0.0852 -0.0152
  972MOL0     O31109   7.341   6.769  11.578 -0.0925 -0.0669  1.1963
  972MOL0     C31110   7.209   6.786  11.598 -0.4907 -0.4769 -0.6032
  972MOL0     C31111   7.152   6.712  11.707 -0.2814 -0.1209  0.5510
  972MOL0     C31112   7.011   6.729  11.729 -0.1429  0.4473  0.3072
  972MOL0     C31113   6.960   6.624  11.823  0.4622  0.8005  0.7699
  972MOL0     C31114   6.930   6.813  11.651  0.1235  0.4997 -0.9611
  972MOL0     C31115   6.780   6.847  11.670 -0.1126 -0.8192 -0.0452
  972MOL0     O31116   6.727   6.940  11.587  0.2663 -0.2473  0.6387
  972MOL0     C31117   6.594   6.966  11.587 -0.1207  0.0890  0.1216
  972MOL0     C31118   6.526   6.998  11.706 -0.5355  0.3222 -0.3324
  972MOL0     C31119   6.387   6.998  11.709 -0.0764  0.2731 -0.0366
  972MOL0     C31120   6.314   6.989  11.586  0.3420  0.5989  0.6927
  972MOL0     O31121   6.180   6.994  11.588  0.1564 -0.5990  0.6990
  972MOL0     C31122   6.126   7.131  11.579 -0.1030  0.0848 -0.1243
  972MOL0     C31123   5.981   7.113  11.541  0.0299 -0.6706  0.2627
  972MOL0     C31124   5.957   7.027  11.406 -0.4904 -0.1817  0.2036
  972MOL0     C31125   5.810   6.985  11.391  0.0162  0.2349  0.2971
  972MOL0     C31126   5.787   6.844  11.441 -0.4062  0.3505 -0.1091
  972MOL0     C31127   5.661   6.770  11.382 -0.1617 -0.7275  0.5331
  972MOL0     C31128   5.533   6.861  11.414 -0.5200  0.4355  0.4191
  972MOL0     C31129   5.405   6.791  11.355  0.4587  0.0128 -0.2068
  972MOL0    Cl31130   5.370   6.622  11.403  0.1034 -0.5465 -0.0802
  972MOL0     C31131   6.386   6.980  11.460  0.3127 -0.1180  0.0925
  972MOL0     C31132   6.524   6.960  11.459  0.3102  0.1501  0.5758
  972MOL0     O31133   6.708   6.776  11.748 -0.3211  0.4997 -0.5614
  972MOL0     C31134   6.995   6.878  11.546  0.5847  0.1821  0.2450
  972MOL0     C31135   7.125   6.860  11.516 -0.9086 -0.8433 -0.3077
  972MOL0     N31136   7.799   6.825  11.191  0.3635 -0.2822 -0.8537
  972MOL0     N31137   7.896   6.886  11.135 -0.4210  0.1384 -0.0343
  972MOL0     C31138   9.356   7.065  11.261 -0.5916 -0.6500 -0.4018
  972MOL0     C31139   9.481   7.005  11.301  0.6339  0.1606  0.3919
  972MOL0     C31140   9.790   6.654  11.414  0.1027  0.7567 -0.2512
  972MOL0     C31141   9.869   6.756  11.471 -0.0534 -0.0741  0.2057
  972MOL0     C31142   9.996   6.732  11.526 -0.5811  0.6126  0.4067
  972MOL0     C31143  10.055   6.607  11.505  0.0136  1.1245  0.2482
  972MOL0     O31144  10.186   6.606  11.538  0.1415 -0.0330 -0.2526
  972MOL0     C31145  10.267   6.486  11.506  0.1317  0.4195 -0.3919
  972MOL0     C31146  10.303   6.505  11.361  1.1869 -0.3637 -0.1872
  972MOL0     C31147  10.407   6.617  11.354  0.3516 -0.1162  0.6660
  972MOL0     C31148  10.540   6.597  11.270 -0.4658  0.4576 -0.0192
  972MOL0     C31149  10.527   6.499  11.157 -0.3833  0.1354 -0.3202
  972MOL0     C31150  10.512   6.421  11.066  0.3349 -0.0561  0.0191
  972MOL0     C31151   9.978   6.498  11.450 -0.0191 -0.2652 -0.6742
  972MOL0     C31152   9.842   6.520  11.420 -1.1653 -0.9210 -0.4063
  972MOL0     H31153   9.402   6.680  11.224 -1.6526  0.6616 -1.9118
  972MOL0     H31154   9.191   6.786  11.178  0.9411 -1.9896  1.4177
  972MOL0     H31155   9.005   6.903  11.082 -0.9268 -0.0142 -0.5466
  972MOL0     H31156   9.017   6.887  11.256  1.7541 -1.7306 -1.8771
  972MOL0     H31157   8.861   7.105  11.260 -0.0443  1.6157 -2.0731
  972MOL0     H31158   8.872   7.112  11.095 -1.9016 -0.2177 -1.2650
  972MOL0     H31159   8.742   6.905  11.056 -3.6105  0.3825  0.2001
  972MOL0     H31160   8.742   6.873  11.235 -0.5187  1.0493  2.1852
  972MOL0     H31161   8.618   7.048  11.276  3.3342 -1.6235  0.7088
  972MOL0     H31162   8.599   7.101  11.109 -2.8749  1.0525  1.6806
  972MOL0     H31163   8.494   6.864  11.068 -0.1695 -1.1565 -0.1534
  972MOL0     H31164   8.489   6.856  11.250 -0.7070 -1.6390 -1.6063
  972MOL0     H31165   8.356   7.054  11.270  0.1548 -0.5575  0.1593
  972MOL0     H31166   8.353   7.094  11.106  1.7467 -1.1764 -0.2495
  972MOL0     H31167   8.247   6.879  11.065  2.0175 -0.1338  0.3979
  972MOL0     H31168   8.247   6.826  11.228 -3.5325 -2.5920 -1.9328
  972MOL0     H31169   8.099   7.050  11.099 -1.9261  0.5917  1.2610
  972MOL0     H31170   8.117   7.052  11.278 -1.7864 -0.6496  0.4928
  972MOL0     H31171   8.016   6.844  11.436  2.5790 -0.9289 -1.8320
  972MOL0     H31172   7.796   6.682  11.494  2.2398  1.2443  0.4129
  972MOL0     H31173   7.732   6.844  11.514 -0.7735 -1.5391  2.6296
  972MOL0     H31174   7.578   6.656  11.511 -1.2088 -1.7200 -0.9970
  972MOL0     H31175   7.607   6.625  11.341 -2.6604  1.3019 -1.6558
  972MOL0     H31176   7.431   6.784  11.310 -0.1853  0.5717  0.1835
  972MOL0     H31177   7.562   6.899  11.339 -3.2398  2.0134 -1.8640
  972MOL0     H31178   7.373   6.964  11.492 -0.3257 -0.2750 -0.7038
  972MOL0     H31179   7.495   6.889  11.586 -1.3475  4.0355  0.1549
  972MOL0     H31180   7.203   6.642  11.773 -2.3423 -0.1397  2.2205
  972MOL0     H31181   6.888   6.660  11.897  0.5141  0.6559  0.8917
  972MOL0     H31182   6.905   6.543  11.773 -0.5113 -0.8567  4.2199
  972MOL0     H31183   7.038   6.577  11.883  1.5603 -1.3603 -2.0907
  972MOL0     H31184   6.576   6.996  11.803 -0.4522  1.2276 -0.3390
  972MOL0     H31185   6.332   7.023  11.799 -0.2570  0.3231 -0.1616
  972MOL0     H31186   6.146   7.184  11.672  1.0488  0.6661 -0.6720
  972MOL0     H31187   6.179   7.195  11.508  1.1010 -0.2281  0.4547
  972MOL0     H31188   5.945   7.062  11.631 -0.5530 -3.3745 -1.3791
  972MOL0     H31189   5.932   7.211  11.537 -1.2705 -1.3257 -1.0509
  972MOL0     H31190   6.024   6.941  11.395  1.5446  1.4812 -1.1518
  972MOL0     H31191   5.984   7.098  11.327  3.6815 -3.5817 -1.8567
  972MOL0     H31192   5.744   7.059  11.437  2.1199  3.6316 -1.7159
  972MOL0     H31193   5.793   6.988  11.283  0.6999  1.7826  0.1994
  972MOL0     H31194   5.778   6.845  11.550  0.0179  2.8925 -0.0382
  972MOL0     H31195   5.874   6.788  11.406 -2.3639 -1.9025 -1.7422
  972MOL0     H31196   5.668   6.758  11.273  1.6446  2.5408  0.1512
  972MOL0     H31197   5.652   6.666  11.413 -1.5498 -0.8056 -0.0413
  972MOL0     H31198   5.552   6.964  11.382 -0.0433 -0.7327 -3.6040
  972MOL0     H31199   5.508   6.872  11.520 -3.6583  1.9657 -0.3656
  972MOL0     H31200   5.414   6.789  11.246 -1.0128  1.6062 -0.4079
  972MOL0     H31201   5.312   6.846  11.373 -0.1802 -0.3748 -2.1204
  972MOL0     H31202   6.329   6.989  11.368 -2.5890  0.0005  1.7697
  972MOL0     H31203   6.579   6.943  11.367  1.0551 -0.0121  1.0409
  972MOL0     H31204   6.938   6.955  11.495 -2.7261 -0.8963  2.0333
  972MOL0     H31205   7.165   6.924  11.438  1.8806  2.2000  3.2563
  972MOL0     H31206   9.322   7.168  11.257 -1.3870 -0.8685  0.2543
  972MOL0     H31207   9.564   7.069  11.329  2.4226 -1.8713  0.0074
  972MOL0     H31208   9.822   6.852  11.486  1.9107  1.7137 -3.6178
  972MOL0     H31209  10.044   6.817  11.573 -2.2254  2.2389 -0.6896
  972MOL0     H31210  10.357   6.480  11.567 -1.0951  1.5337  1.6241
  972MOL0     H31211  10.217   6.390  11.523  1.5316 -0.0302  1.5328
  972MOL0     H31212  10.222   6.531  11.292  2.7363  2.1460 -1.1954
  972MOL0     H31213  10.348   6.416  11.315  1.2686  0.8500 -2.6242
  972MOL0     H31214  10.440   6.654  11.451  0.9626 -1.6891  1.0735
  972MOL0     H31215  10.343   6.697  11.314 -0.3838 -1.0396 -0.0445
  972MOL0     H31216  10.629   6.577  11.330 -0.4029 -0.0248 -0.2669
  972MOL0     H31217  10.567   6.692  11.224  0.0552 -0.6510 -2.1301
  972MOL0     H31218  10.499   6.356  10.982  1.4233  0.4486 -0.5600
  972MOL0     H31219  10.026   6.401  11.445  4.0141  1.1186  3.6043
  972MOL0     H31220   9.783   6.436  11.385  1.0344 -2.9644  0.5610
  973MOL0     O31221   9.521   3.286   4.537  0.5451 -0.2576  0.5020
  973MOL0     C31222   9.562   3.171   4.502  0.0545  0.5509 -0.3254
  973MOL0     O31223   9.503   3.098   4.403 -0.7173  0.0985  0.8037
  973MOL0     C31224   9.390   3.143   4.341  0.1271 -1.2721 -0.3659
  973MOL0     C31225   9.394   3.159   4.199 -0.6865  0.7708  0.4035
  973MOL0     C31226   9.284   3.216   4.121 -0.3608 -0.5233 -0.4665
  973MOL0     C31227   9.160   3.221   4.180 -0.6361 -0.7503 -0.8503
  973MOL0     O31228   9.051   3.251   4.093 -0.1067  0.2036  0.3071
  973MOL0     C31229   8.929   3.184   4.110 -0.4317 -0.3540 -0.4375
  973MOL0     C31230   8.835   3.300   4.133  0.2416  0.1780  0.4814
  973MOL0     C31231   8.693   3.245   4.129  0.0918  0.1909 -0.1572
  973MOL0     C31232   8.585   3.352   4.158 -0.3770  0.3367 -0.1977
  973MOL0     C31233   8.473   3.285   4.233  0.3185  0.6090  0.6979
  973MOL0     C31234   8.345   3.369   4.239 -1.3495 -0.3388  0.2263
  973MOL0     C31235   8.232   3.302   4.316 -0.5868  0.3640  0.1724
  973MOL0     C31236   8.112   3.381   4.276 -0.8366 -0.7862  0.2583
  973MOL0     N31237   7.990   3.356   4.355 -0.1334  0.3196 -0.3160
  973MOL0     C31238   7.859   3.380   4.312  0.1590  0.1893  0.4407
  973MOL0     C31239   7.785   3.336   4.418  0.9665 -0.0507  0.0305
  973MOL0     C31240   7.638   3.333   4.410  0.2783 -0.2736 -0.4752
  973MOL0     C31241   7.560   3.448   4.332 -0.8258  0.0820  0.2142
  973MOL0     C31242   7.414   3.458   4.380 -0.4027 -0.5355  0.5634
  973MOL0     C31243   7.314   3.348   4.329 -0.1924  0.4063 -1.0779
  973MOL0     O31244   7.319   3.232   4.424  0.0021 -0.2964 -0.0538
  973MOL0     C31245   7.222   3.133   4.411 -0.1547  0.2321 -0.1878
  973MOL0     C31246   7.123   3.129   4.316 -0.0212  0.5769 -0.3317
  973MOL0     C31247   7.025   3.028   4.307 -0.2062  0.0167 -0.1065
  973MOL0     C31248   6.913   3.036   4.211  0.7998  0.6752 -0.2554
  973MOL0     C31249   7.041   2.918   4.399  0.2390 -0.3325  0.3949
  973MOL0     C31250   6.951   2.800   4.423  0.4950  0.5024  0.7735
  973MOL0     O31251   6.949   2.736   4.542  0.5049  0.7178  0.5413
  973MOL0     C31252   6.832   2.672   4.576 -0.1380 -0.4350  0.3970
  973MOL0     C31253   6.767   2.721   4.686  0.0575 -0.8175 -0.3835
  973MOL0     C31254   6.651   2.662   4.736 -0.6791  0.0914 -0.9856
  973MOL0     C31255   6.591   2.559   4.666 -0.2204 -0.4641  0.6102
  973MOL0     O31256   6.472   2.521   4.725 -0.1264  0.4123 -0.1478
  973MOL0     C31257   6.396   2.424   4.655 -0.2421 -1.0179 -0.0298
  973MOL0     C31258   6.268   2.388   4.721  1.1903 -0.6973 -0.6039
  973MOL0     C31259   6.283   2.335   4.865  0.3666 -0.8614  0.3320
  973MOL0     C31260   6.137   2.329   4.923  0.6747  0.1222 -0.5893
  973MOL0     C31261   6.135   2.246   5.058 -0.0516 -0.1350 -0.7255
  973MOL0     C31262   6.015   2.293   5.148  0.4950  0.1339 -0.7302
  973MOL0     C31263   5.992   2.184   5.254 -0.4821 -0.6147 -0.6765
  973MOL0     C31264   5.928   2.049   5.213 -0.3767 -0.5246  0.4803
  973MOL0    Cl31265   5.760   2.069   5.165 -0.0141  0.0553  0.3792
  973MOL0     C31266   6.645   2.513   4.551  0.0994 -0.5257 -0.2126
  973MOL0     C31267   6.766   2.567   4.501 -0.1656 -0.4224 -0.3558
  973MOL0     O31268   6.891   2.765   4.324  0.1589  0.4218  0.1764
  973MOL0     C31269   7.149   2.922   4.490 -0.2250 -0.6248 -0.3515
  973MOL0     C31270   7.235   3.032   4.496 -0.1889  0.6936  0.7014
  973MOL0     N31271   7.865   3.290   4.518 -1.0853 -0.5429 -0.0419
  973MOL0     N31272   7.988   3.299   4.480 -0.5173  0.5446  0.3449
  973MOL0     C31273   9.149   3.194   4.323 -0.3171 -0.1138 -0.3568
  973MOL0     C31274   9.262   3.163   4.402  0.1270 -0.3486  0.3794
  973MOL0     C31275   9.689   3.128   4.563 -0.2396 -0.2839  0.0212
  973MOL0     C31276   9.753   3.205   4.669  0.7436 -0.1938  0.1099
  973MOL0     C31277   9.872   3.156   4.727  0.4614 -0.0581  0.7680
  973MOL0     C31278   9.943   3.043   4.679  0.1659  0.1808  0.4208
  973MOL0     O31279  10.066   2.996   4.708 -0.3418  0.1627 -0.0204
  973MOL0     C31280  10.140   3.044   4.823  0.7809  0.1843  0.6803
  973MOL0     C31281  10.246   2.941   4.865  0.3168 -1.0343 -0.5581
  973MOL0     C31282  10.184   2.826   4.952  0.0973 -0.6901 -0.6932
  973MOL0     C31283  10.177   2.853   5.105 -0.1158 -0.1396  0.5888
  973MOL0     C31284  10.130   2.730   5.172  0.6693  0.1274 -0.3737
  973MOL0     C31285  10.075   2.633   5.231  0.0412 -0.7316 -0.4613
  973MOL0     C31286   9.882   2.978   4.564  0.9337 -0.1754 -0.3020
  973MOL0     C31287   9.759   3.017   4.510 -0.2730 -0.7459 -0.6760
  973MOL0     H31288   9.482   3.136   4.141 -0.8676  0.5943  0.1978
  973MOL0     H31289   9.279   3.226   4.014 -6.5313 -0.3816 -0.5433
  973MOL0     H31290   8.902   3.127   4.020  0.9618 -0.5346 -0.7728
  973MOL0     H31291   8.932   3.116   4.196 -0.0922  0.6374  0.3522
  973MOL0     H31292   8.855   3.343   4.231 -2.1318 -0.7368  1.4321
  973MOL0     H31293   8.845   3.371   4.051 -2.2435 -1.1779 -1.1054
  973MOL0     H31294   8.662   3.200   4.034 -2.3507  1.1506  0.1031
  973MOL0     H31295   8.688   3.172   4.210 -2.0725  0.0486 -0.3457
  973MOL0     H31296   8.629   3.422   4.230  2.1574 -0.1079 -1.2279
  973MOL0     H31297   8.546   3.392   4.064 -1.3732  0.1550  0.1233
  973MOL0     H31298   8.449   3.196   4.176  0.5735 -0.5982  2.3912
  973MOL0     H31299   8.503   3.261   4.336 -0.7368 -0.4533  0.7824
  973MOL0     H31300   8.373   3.453   4.304  1.0914 -0.7734 -0.1486
  973MOL0     H31301   8.312   3.405   4.141 -1.1977  1.1346  0.6930
  973MOL0     H31302   8.208   3.201   4.279  0.3451 -0.3805  1.5054
  973MOL0     H31303   8.240   3.299   4.425  0.1634 -2.4096  0.1322
  973MOL0     H31304   8.090   3.363   4.171  0.5218  2.6093 -0.7483
  973MOL0     H31305   8.131   3.488   4.290 -2.8387 -0.2714 -0.7080
  973MOL0     H31306   7.823   3.430   4.223 -0.0290  1.9719  1.4544
  973MOL0     H31307   7.593   3.243   4.369 -5.1806  1.8325  0.1169
  973MOL0     H31308   7.614   3.352   4.515  2.2038 -1.3377  0.2026
  973MOL0     H31309   7.570   3.437   4.224  4.3135  1.7776  0.2536
  973MOL0     H31310   7.613   3.539   4.364 -1.9816  1.3353 -1.2595
  973MOL0     H31311   7.389   3.557   4.343  1.3576 -0.2790 -0.0743
  973MOL0     H31312   7.418   3.445   4.489 -0.9786 -3.5705  0.3214
  973MOL0     H31313   7.339   3.317   4.227 -1.3928 -3.7541 -0.2982
  973MOL0     H31314   7.212   3.387   4.336 -0.5442 -0.6869  0.5272
  973MOL0     H31315   7.116   3.214   4.249  2.6514  1.0700 -0.1053
  973MOL0     H31316   6.919   2.976   4.119 -0.7499  0.9627 -0.5746
  973MOL0     H31317   6.817   3.004   4.252  0.1683  1.1999 -1.2710
  973MOL0     H31318   6.893   3.140   4.184 -1.3670  0.7378  1.3077
  973MOL0     H31319   6.805   2.807   4.740 -0.6852 -1.8358  1.8787
  973MOL0     H31320   6.597   2.707   4.818  0.9444  2.0274 -0.8951
  973MOL0     H31321   6.370   2.451   4.553  2.3224  0.9612 -0.2477
  973MOL0     H31322   6.447   2.327   4.650  1.5745 -0.0953 -0.3824
  973MOL0     H31323   6.195   2.470   4.718  1.9408  0.3249  3.2449
  973MOL0     H31324   6.233   2.297   4.672 -0.9922 -0.6970  0.8111
  973MOL0     H31325   6.334   2.416   4.919 -1.4794 -0.3077  1.3346
  973MOL0     H31326   6.333   2.238   4.869 -0.3029 -1.1656  2.5306
  973MOL0     H31327   6.098   2.428   4.947 -2.8081 -2.0272  4.3712
  973MOL0     H31328   6.080   2.277   4.845  1.7746 -1.2167 -0.5299
  973MOL0     H31329   6.225   2.277   5.111  0.3534  1.3359 -2.1699
  973MOL0     H31330   6.129   2.137   5.048 -0.7923 -0.0043 -1.8662
  973MOL0     H31331   6.047   2.382   5.204  2.0421 -2.2107  2.4141
  973MOL0     H31332   5.919   2.315   5.099  0.0216  2.5662  1.0992
  973MOL0     H31333   5.926   2.218   5.335  0.8266 -0.7643  0.4991
  973MOL0     H31334   6.091   2.172   5.299 -1.5644 -0.3983  1.9798
  973MOL0     H31335   5.936   1.979   5.297  1.9220  0.4435  1.1219
  973MOL0     H31336   5.977   1.992   5.134 -0.5223  2.5426 -2.0365
  973MOL0     H31337   6.604   2.432   4.491  2.2745 -1.2086 -0.8615
  973MOL0     H31338   6.811   2.537   4.407 -1.3884 -2.4629 -0.3328
  973MOL0     H31339   7.164   2.843   4.563 -0.5543  0.1517  0.5650
  973MOL0     H31340   7.313   3.043   4.571  0.5872  0.7052 -0.0879
  973MOL0     H31341   9.056   3.195   4.379  0.1386 -0.8821  0.4256
  973MOL0     H31342   9.266   3.148   4.510  2.3426  3.4703  1.0145
  973MOL0     H31343   9.700   3.296   4.696  0.2167  0.1173 -1.8285
  973MOL0     H31344   9.918   3.218   4.803 -0.0277 -0.6070  1.5167
  973MOL0     H31345  10.185   3.141   4.804  0.8463  0.0980  0.3839
  973MOL0     H31346  10.072   3.054   4.908 -0.8938 -3.0426 -0.0974
  973MOL0     H31347  10.332   2.986   4.916 -0.2042  2.0123 -2.1081
  973MOL0     H31348  10.282   2.907   4.768  1.5932  1.0348 -0.8754
  973MOL0     H31349  10.265   2.754   4.932  2.1954  2.0573 -2.9162
  973MOL0     H31350  10.090   2.789   4.909 -0.0260  1.3498 -2.3188
  973MOL0     H31351  10.110   2.939   5.114  0.0648  0.4929 -2.6036
  973MOL0     H31352  10.278   2.882   5.134  0.2156  1.5265 -1.9490
  973MOL0     H31353  10.030   2.552   5.285 -1.2296  1.4345  1.9248
  973MOL0     H31354   9.938   2.896   4.522  1.7158 -0.0199  0.4117
  973MOL0     H31355   9.713   2.960   4.430 -2.6195  1.2553 -0.8908
  974MOL0     O31356   7.435   1.394  10.143  0.2345 -0.0784  0.6587
  974MOL0     C31357   7.538   1.381  10.076 -0.5256 -0.1320  0.1265
  974MOL0     O31358   7.562   1.425   9.945 -0.1927  0.1035  0.4687
  974MOL0     C31359   7.449   1.488   9.894 -0.4837 -0.5941 -0.2175
  974MOL0     C31360   7.401   1.445   9.769 -0.3164 -0.3818  0.2499
  974MOL0     C31361   7.285   1.502   9.709  0.2313 -0.0377 -0.3780
  974MOL0     C31362   7.209   1.601   9.785 -0.1902  0.6066  0.5003
  974MOL0     O31363   7.093   1.648   9.732 -0.0353  0.6945 -0.6083
  974MOL0     C31364   6.979   1.599   9.802  0.0451 -0.3749 -0.4561
  974MOL0     C31365   6.913   1.687   9.911  0.5659  0.2839  0.3246
  974MOL0     C31366   6.880   1.832   9.867 -0.2750  0.7196 -0.0877
  974MOL0     C31367   6.815   1.927   9.968  0.7345  0.2683  1.0017
  974MOL0     C31368   6.843   2.079   9.943  0.1577  0.1649 -0.3839
  974MOL0     C31369   6.806   2.125   9.812  0.5697  0.2070  1.1262
  974MOL0     C31370   6.808   2.282   9.810  0.1082  0.0842  0.3589
  974MOL0     C31371   6.789   2.338   9.667 -0.1184 -1.1552  0.6216
  974MOL0     N31372   6.871   2.293   9.555  0.0908  0.3344  0.5149
  974MOL0     C31373   7.011   2.283   9.559  0.1130 -0.1971  0.0056
  974MOL0     C31374   7.037   2.243   9.432  0.6694 -0.3698  1.0016
  974MOL0     C31375   7.161   2.185   9.375  0.1589  0.6110 -0.0597
  974MOL0     C31376   7.224   2.256   9.254  0.0773 -0.2321  0.1326
  974MOL0     C31377   7.268   2.153   9.139  0.7083  0.1727 -0.0356
  974MOL0     C31378   7.148   2.070   9.077  0.8428 -0.4527 -0.2447
  974MOL0     O31379   7.023   2.142   9.082 -0.2735  0.2443  0.4921
  974MOL0     C31380   6.911   2.081   9.032 -0.1977  0.0928  0.3505
  974MOL0     C31381   6.901   1.977   8.940  0.4789  0.6633  0.6515
  974MOL0     C31382   6.781   1.941   8.873  0.1887 -0.0498  0.7408
  974MOL0     C31383   6.797   1.840   8.758  0.2063  0.6494  0.2259
  974MOL0     C31384   6.667   2.022   8.898 -0.1853  0.0400  0.4932
  974MOL0     C31385   6.539   2.008   8.822 -0.1631 -0.3073  0.2456
  974MOL0     O31386   6.472   2.126   8.801 -0.2725 -0.5380  0.0291
  974MOL0     C31387   6.372   2.134   8.705  0.5611  0.1988 -0.0281
  974MOL0     C31388   6.374   2.207   8.587 -1.2879 -0.1424 -0.4454
  974MOL0     C31389   6.269   2.213   8.498 -0.0286  0.4544 -0.4020
  974MOL0     C31390   6.152   2.136   8.517  0.3708  0.8645  0.4916
  974MOL0     O31391   6.054   2.158   8.425 -0.5136  0.6333 -0.6469
  974MOL0     C31392   5.929   2.098   8.453 -0.1677 -0.1341  0.0247
  974MOL0     C31393   5.833   2.177   8.375 -0.3196 -0.4626 -0.1562
  974MOL0     C31394   5.704   2.097   8.349 -0.0455  0.7311 -0.2073
  974MOL0     C31395   5.588   2.175   8.278  0.0711 -0.1799 -0.7886
  974MOL0     C31396   5.510   2.097   8.167  0.0994 -0.9576 -0.0676
  974MOL0     C31397   5.592   2.089   8.044  0.0611  0.1166  0.3581
  974MOL0     C31398   5.580   2.211   7.953  0.0351 -0.0813 -0.7287
  974MOL0     C31399   5.652   2.168   7.826  0.6640 -0.1753 -0.4422
  974MOL0    Cl31400   5.618   2.297   7.700  0.5319  0.1703 -0.2721
  974MOL0     C31401   6.150   2.053   8.629  0.7407 -0.1685  0.0888
  974MOL0     C31402   6.254   2.054   8.723 -0.4236  0.1341  0.0913
  974MOL0     O31403   6.490   1.899   8.790 -0.5505  0.0070 -0.0172
  974MOL0     C31404   6.679   2.127   8.989  0.1463 -0.3559 -0.1094
  974MOL0     C31405   6.797   2.153   9.053 -0.5260  0.3523  0.6896
  974MOL0     N31406   6.922   2.225   9.368 -0.8799  0.2019  1.1117
  974MOL0     N31407   6.819   2.247   9.440 -0.5207 -0.0466 -0.3877
  974MOL0     C31408   7.255   1.643   9.912 -1.1190 -0.2298 -0.2693
  974MOL0     C31409   7.383   1.593   9.965  0.3788 -0.1161 -0.0295
  974MOL0     C31410   7.649   1.301  10.139 -0.8297 -0.0384  0.2365
  974MOL0     C31411   7.649   1.268  10.275  0.4770  0.3891  0.5467
  974MOL0     C31412   7.754   1.194  10.329 -0.0196 -0.4929  0.5260
  974MOL0     C31413   7.864   1.156  10.258 -0.3185  0.5571  0.6709
  974MOL0     O31414   7.961   1.085  10.319 -0.8444 -0.1185 -0.7054
  974MOL0     C31415   8.082   1.063  10.251  0.1323  0.1538 -0.0958
  974MOL0     C31416   8.169   0.967  10.325 -0.8754  0.2050 -0.2638
  974MOL0     C31417   8.297   0.930  10.253  0.6734 -1.1635 -0.1986
  974MOL0     C31418   8.386   0.829  10.323  0.2819  0.1454  0.1178
  974MOL0     C31419   8.515   0.831  10.260 -0.3887 -0.3073 -0.8137
  974MOL0     C31420   8.626   0.854  10.206  0.7144 -0.0812 -0.1633
  974MOL0     C31421   7.858   1.174  10.116 -0.1818  0.0826 -0.1398
  974MOL0     C31422   7.750   1.240  10.059  1.0817  0.0726  0.7888
  974MOL0     H31423   7.446   1.361   9.716  0.3646 -1.4938  2.4813
  974MOL0     H31424   7.231   1.475   9.620 -1.4505  1.1901  0.2145
  974MOL0     H31425   6.897   1.591   9.730 -1.6845  3.7239  0.7619
  974MOL0     H31426   6.991   1.505   9.856 -3.3209 -1.4405 -1.3111
  974MOL0     H31427   6.823   1.639   9.951  2.0080 -0.0954  3.4661
  974MOL0     H31428   6.977   1.688  10.000 -1.3244 -3.0108  1.9190
  974MOL0     H31429   6.980   1.873   9.852  0.7631 -0.5683  2.6798
  974MOL0     H31430   6.830   1.836   9.770 -0.9143  4.9905  0.2097
  974MOL0     H31431   6.706   1.914   9.970  0.3858  2.6801  3.3638
  974MOL0     H31432   6.859   1.899  10.064  0.3825 -3.1091  0.3110
  974MOL0     H31433   6.786   2.137  10.016  1.9711  0.8743  0.5323
  974MOL0     H31434   6.949   2.107   9.955  1.0244 -2.1280 -1.9836
  974MOL0     H31435   6.881   2.091   9.740 -0.3465 -0.4437  0.4584
  974MOL0     H31436   6.703   2.097   9.790  0.8499 -1.2834  1.5939
  974MOL0     H31437   6.739   2.338   9.873  0.4555  2.4913 -1.2491
  974MOL0     H31438   6.907   2.310   9.848 -0.5606  0.2189  2.0411
  974MOL0     H31439   6.810   2.444   9.684  1.1804 -1.3429  0.3163
  974MOL0     H31440   6.686   2.323   9.632 -0.3372 -0.0953  0.7919
  974MOL0     H31441   7.080   2.279   9.643  1.4678  1.0031 -1.0190
  974MOL0     H31442   7.239   2.169   9.450  0.9167  1.1354 -0.7157
  974MOL0     H31443   7.134   2.083   9.347  0.7139  0.5658 -0.4653
  974MOL0     H31444   7.315   2.311   9.282  0.1192  0.0962 -0.5985
  974MOL0     H31445   7.150   2.326   9.214  1.6375  2.1608  1.1992
  974MOL0     H31446   7.344   2.083   9.175 -0.6785 -1.0936  0.5609
  974MOL0     H31447   7.324   2.213   9.067  0.8371 -0.6654 -0.6574
  974MOL0     H31448   7.148   1.971   9.125  3.2544 -0.4814 -0.1615
  974MOL0     H31449   7.167   2.047   8.971 -2.0265  1.3178 -1.2524
  974MOL0     H31450   6.991   1.918   8.926 -1.1953 -2.3863  1.6606
  974MOL0     H31451   6.890   1.783   8.760 -0.4978 -0.7014 -2.2711
  974MOL0     H31452   6.709   1.775   8.757  0.7063 -0.0350 -0.1075
  974MOL0     H31453   6.795   1.885   8.659  1.7956 -0.1878 -0.2198
  974MOL0     H31454   6.462   2.268   8.570 -1.8936  0.3773 -1.8084
  974MOL0     H31455   6.271   2.276   8.409  2.2466 -0.7078 -1.2627
  974MOL0     H31456   5.931   1.997   8.410 -0.9564 -0.1800  0.0909
  974MOL0     H31457   5.899   2.096   8.558 -1.9788 -0.7819 -0.4825
  974MOL0     H31458   5.801   2.260   8.439 -1.1176 -1.0940  0.2722
  974MOL0     H31459   5.878   2.208   8.280 -0.4771  0.1365 -0.0393
  974MOL0     H31460   5.669   2.065   8.448 -0.1143 -0.3496 -0.5659
  974MOL0     H31461   5.722   2.006   8.290 -0.9250  1.0757 -1.0275
  974MOL0     H31462   5.521   2.201   8.360  1.9952  3.8733 -0.2763
  974MOL0     H31463   5.621   2.269   8.232  0.4294 -0.3837 -0.9541
  974MOL0     H31464   5.418   2.153   8.151 -0.4959 -1.6267  0.8612
  974MOL0     H31465   5.479   1.994   8.189 -2.1712 -0.3111 -0.0160
  974MOL0     H31466   5.698   2.074   8.069  0.5495  1.0072 -1.0861
  974MOL0     H31467   5.554   1.999   7.995  0.1365 -0.4386  1.2859
  974MOL0     H31468   5.643   2.293   7.987  0.8997 -0.4262 -1.4494
  974MOL0     H31469   5.474   2.235   7.940 -0.0582  0.2084  0.4644
  974MOL0     H31470   5.613   2.069   7.801 -2.0980  0.1352  2.1087
  974MOL0     H31471   5.760   2.155   7.834  0.4494 -2.3421 -0.6314
  974MOL0     H31472   6.061   1.992   8.645  2.3819 -2.8963 -0.4700
  974MOL0     H31473   6.242   1.992   8.812 -1.3263 -2.7847 -1.9293
  974MOL0     H31474   6.596   2.191   9.018  1.5846  1.2938  0.5571
  974MOL0     H31475   6.814   2.243   9.112  1.6167  1.9180 -2.0267
  974MOL0     H31476   7.209   1.727   9.963  1.4217  1.1822 -0.0909
  974MOL0     H31477   7.419   1.627  10.062  1.1269  0.1424 -0.3855
  974MOL0     H31478   7.562   1.297  10.334 -1.9108  0.0480 -2.5164
  974MOL0     H31479   7.749   1.158  10.431  2.9177  1.5525  1.5091
  974MOL0     H31480   8.063   1.021  10.152  0.2347 -1.4906  0.5499
  974MOL0     H31481   8.128   1.162  10.243 -2.9237  1.7412  0.5563
  974MOL0     H31482   8.110   0.877  10.346  0.8878 -0.8828  0.2481
  974MOL0     H31483   8.202   1.002  10.424  1.7438  2.2824 -1.7408
  974MOL0     H31484   8.360   1.019  10.243 -0.2099 -0.7155 -2.3267
  974MOL0     H31485   8.269   0.893  10.153 -0.3794  2.3353 -1.3447
  974MOL0     H31486   8.336   0.732  10.323 -0.3591  0.4546  1.6302
  974MOL0     H31487   8.395   0.851  10.430 -1.0834  1.0649  0.0765
  974MOL0     H31488   8.727   0.873  10.176 -0.1950  0.8344 -2.9968
  974MOL0     H31489   7.927   1.142  10.039  0.2375 -0.5281  0.4847
  974MOL0     H31490   7.740   1.254   9.952  2.0687 -1.2239  0.5111
  975MOL0     O31491   8.445   3.261   4.892  0.2447 -0.3994 -0.6232
  975MOL0     C31492   8.474   3.376   4.922 -0.5057  0.0539  0.6079
  975MOL0     O31493   8.386   3.469   4.957  0.7343 -0.1141 -0.6357
  975MOL0     C31494   8.249   3.445   4.944 -0.1801  0.0237 -0.6154
  975MOL0     C31495   8.186   3.454   5.066  0.1603 -0.3139 -0.4719
  975MOL0     C31496   8.043   3.455   5.063 -0.3145  0.0226 -1.2033
  975MOL0     C31497   7.977   3.433   4.940  1.2741 -0.1797  0.5136
  975MOL0     O31498   7.838   3.436   4.913  0.1409 -0.2262 -0.9685
  975MOL0     C31499   7.745   3.441   5.022  0.5423 -0.2899  0.4265
  975MOL0     C31500   7.605   3.482   4.972 -0.1258  0.1011  0.8680
  975MOL0     C31501   7.505   3.527   5.083 -0.8094 -1.1618  0.5804
  975MOL0     C31502   7.442   3.407   5.158 -0.4694  0.4123 -0.2304
  975MOL0     C31503   7.340   3.474   5.249  0.5933 -0.1115 -0.1645
  975MOL0     C31504   7.229   3.372   5.295 -0.6849  0.1107  0.1646
  975MOL0     C31505   7.121   3.429   5.379  0.3325 -0.0901  1.0176
  975MOL0     C31506   7.019   3.511   5.296 -0.3236 -0.8404 -0.1984
  975MOL0     N31507   6.942   3.438   5.201  0.5776 -0.2683  0.1323
  975MOL0     C31508   6.841   3.361   5.247 -0.1673  0.4367  0.3160
  975MOL0     C31509   6.752   3.356   5.143 -0.5804  0.5172  0.3104
  975MOL0     C31510   6.619   3.295   5.147 -0.4425 -0.5763  0.3005
  975MOL0     C31511   6.517   3.408   5.148 -0.5926  0.2800  0.1821
  975MOL0     C31512   6.374   3.348   5.132 -0.2635 -0.4752  0.0005
  975MOL0     C31513   6.273   3.456   5.172  0.0934  0.0327  0.0117
  975MOL0     O31514   6.150   3.391   5.147 -0.2630  1.2115  0.2935
  975MOL0     C31515   6.032   3.438   5.202  0.7744 -0.8891  0.1457
  975MOL0     C31516   6.028   3.554   5.274  0.0243 -0.9675 -1.1894
  975MOL0     C31517   5.917   3.594   5.345  0.0948  0.2161  1.0665
  975MOL0     C31518   5.926   3.710   5.434  0.5896 -0.4314 -0.3659
  975MOL0     C31519   5.801   3.515   5.332 -0.8501 -0.0468  0.6096
  975MOL0     C31520   5.664   3.558   5.382 -0.6377 -0.4354 -0.5299
  975MOL0     O31521   5.572   3.459   5.409 -0.2426  0.2705 -0.4472
  975MOL0     C31522   5.465   3.488   5.489  0.4265  0.9734  0.8536
  975MOL0     C31523   5.422   3.401   5.592  0.4875 -0.2255 -0.7297
  975MOL0     C31524   5.304   3.423   5.666 -0.7203  0.2899 -0.2401
  975MOL0     C31525   5.214   3.526   5.639  0.0696  0.1608 -0.2903
  975MOL0     O31526   5.102   3.539   5.710  0.7701  0.2494 -0.2619
  975MOL0     C31527   5.027   3.653   5.704 -0.1555 -0.1039 -0.3221
  975MOL0     C31528   4.907   3.668   5.799  0.4763  1.0484 -0.2039
  975MOL0     C31529   4.812   3.549   5.793 -0.6920 -0.5951 -0.2942
  975MOL0     C31530   4.685   3.568   5.868 -0.2048 -0.4289 -0.9405
  975MOL0     C31531   4.622   3.427   5.893 -0.5848 -0.1598 -1.0557
  975MOL0     C31532   4.477   3.441   5.929  0.6969 -0.2220 -0.7827
  975MOL0     C31533   4.390   3.474   5.805  0.0731  0.1608 -0.3747
  975MOL0     C31534   4.370   3.346   5.717  0.0976 -0.1181 -0.4702
  975MOL0    Cl31535   4.218   3.378   5.628 -0.1770  0.0321  0.4280
  975MOL0     C31536   5.254   3.614   5.535 -0.2378  0.3174 -0.1491
  975MOL0     C31537   5.368   3.589   5.455 -0.0783 -0.1294  0.0321
  975MOL0     O31538   5.647   3.679   5.395  0.0497  0.2537  0.1437
  975MOL0     C31539   5.803   3.401   5.248  0.7377 -1.2692  1.0249
  975MOL0     C31540   5.916   3.367   5.179 -0.1535 -0.2243  0.7291
  975MOL0     N31541   6.810   3.410   5.030 -0.1207 -0.2942  0.1315
  975MOL0     N31542   6.917   3.474   5.071 -0.0960  0.3143 -0.6237
  975MOL0     C31543   8.052   3.418   4.825  0.2300 -0.4668  0.5522
  975MOL0     C31544   8.186   3.429   4.823 -0.1733  0.6894  0.4309
  975MOL0     C31545   8.614   3.407   4.935 -0.2483 -0.1808  0.6317
  975MOL0     C31546   8.663   3.544   4.951  0.9400  0.0389  0.9905
  975MOL0     C31547   8.796   3.579   4.968  0.1067  0.2819 -0.4226
  975MOL0     C31548   8.892   3.481   4.983 -0.1292  0.6285 -0.7906
  975MOL0     O31549   9.023   3.511   4.989  0.3937  0.3465  0.4821
  975MOL0     C31550   9.068   3.598   4.887 -0.9243 -0.5668 -0.4099
  975MOL0     C31551   9.224   3.620   4.913 -0.7106  0.0670  1.0620
  975MOL0     C31552   9.308   3.517   4.843  0.4432  1.0439 -0.2840
  975MOL0     C31553   9.461   3.530   4.873  0.1815 -0.2536 -0.5287
  975MOL0     C31554   9.523   3.665   4.861  0.2541  1.2454 -0.5989
  975MOL0     C31555   9.570   3.775   4.850  0.0124 -0.2072 -0.3273
  975MOL0     C31556   8.849   3.346   4.977  0.1245 -0.0902 -0.2962
  975MOL0     C31557   8.712   3.315   4.948  0.0605  0.3499  0.9132
  975MOL0     H31558   8.236   3.475   5.159  1.3008 -0.3457 -1.0587
  975MOL0     H31559   7.983   3.485   5.148  3.2027  0.4388  1.3475
  975MOL0     H31560   7.740   3.339   5.062  0.0992 -0.6391 -0.4850
  975MOL0     H31561   7.771   3.520   5.093 -1.2284 -3.3414  4.9984
  975MOL0     H31562   7.626   3.563   4.902  0.6485 -0.9832 -0.1801
  975MOL0     H31563   7.560   3.402   4.914 -0.5908  0.1779  1.1164
  975MOL0     H31564   7.566   3.592   5.147 -0.2708  0.3939 -1.3964
  975MOL0     H31565   7.429   3.590   5.035  0.3998 -0.3764 -0.3638
  975MOL0     H31566   7.385   3.341   5.092 -1.6231  0.1454  0.9861
  975MOL0     H31567   7.510   3.343   5.215  1.5044  2.0249 -0.6687
  975MOL0     H31568   7.394   3.509   5.337  2.8941  1.4277 -2.0651
  975MOL0     H31569   7.296   3.563   5.203 -0.6991  1.0470  3.0422
  975MOL0     H31570   7.193   3.324   5.203  0.9706 -1.9627  0.5052
  975MOL0     H31571   7.285   3.309   5.365  0.1993 -0.7321 -1.2558
  975MOL0     H31572   7.061   3.351   5.427 -3.1957  1.0880 -1.0891
  975MOL0     H31573   7.163   3.484   5.464  0.7189 -0.3936  1.0268
  975MOL0     H31574   7.055   3.595   5.235 -0.0728 -0.7207  0.1110
  975MOL0     H31575   6.961   3.562   5.373  1.5220  0.3082  0.4981
  975MOL0     H31576   6.835   3.312   5.343  1.0875 -2.5596 -1.0201
  975MOL0     H31577   6.614   3.252   5.046  2.1560  1.1826 -0.7024
  975MOL0     H31578   6.604   3.221   5.226 -0.4280  1.0978  1.9344
  975MOL0     H31579   6.526   3.475   5.062 -3.5368 -2.0292 -2.1438
  975MOL0     H31580   6.526   3.465   5.242 -2.4838 -3.1899  2.6994
  975MOL0     H31581   6.343   3.262   5.192 -2.7905  0.4498  0.1410
  975MOL0     H31582   6.353   3.318   5.029  0.4143 -1.2517  0.0815
  975MOL0     H31583   6.272   3.539   5.100 -1.8492 -0.9151 -1.1280
  975MOL0     H31584   6.294   3.490   5.274 -0.9416  1.2016 -0.1281
  975MOL0     H31585   6.113   3.620   5.287 -1.9169  1.3227  0.8032
  975MOL0     H31586   5.891   3.801   5.385 -0.9653 -0.7099  0.1597
  975MOL0     H31587   5.882   3.692   5.533  0.9044  0.9561  0.0372
  975MOL0     H31588   6.031   3.726   5.459  0.2291  0.1631  0.8424
  975MOL0     H31589   5.490   3.318   5.612 -0.9199 -1.9773 -2.7191
  975MOL0     H31590   5.297   3.349   5.746  1.2380  0.8788  0.5182
  975MOL0     H31591   5.096   3.738   5.713  0.2158 -0.6209  2.7089
  975MOL0     H31592   4.979   3.665   5.607 -2.3160  0.8844  0.7870
  975MOL0     H31593   4.941   3.696   5.899  2.1213  2.7018 -1.1580
  975MOL0     H31594   4.855   3.759   5.767 -0.1095 -0.0231 -2.5256
  975MOL0     H31595   4.872   3.474   5.846  0.9114  1.7914  1.5079
  975MOL0     H31596   4.793   3.521   5.689 -2.5077 -1.9248  0.3584
  975MOL0     H31597   4.708   3.617   5.963 -1.1754 -1.3493 -0.2024
  975MOL0     H31598   4.631   3.628   5.793  3.6930  2.8256 -1.4586
  975MOL0     H31599   4.684   3.382   5.972 -0.7262  2.5744  0.7433
  975MOL0     H31600   4.631   3.370   5.800  1.7268  1.7758 -2.1244
  975MOL0     H31601   4.433   3.347   5.963  0.0762 -0.9629 -3.3921
  975MOL0     H31602   4.474   3.524   6.000  3.9319  0.4781 -1.2904
  975MOL0     H31603   4.425   3.556   5.743 -1.4048  1.9395  1.0265
  975MOL0     H31604   4.288   3.501   5.836 -0.9874 -3.1545 -0.5385
  975MOL0     H31605   4.373   3.248   5.766  1.2035 -2.0034 -3.9115
  975MOL0     H31606   4.451   3.338   5.644  0.3172 -1.7841 -0.0991
  975MOL0     H31607   5.198   3.700   5.500 -0.6971  1.6465  3.3849
  975MOL0     H31608   5.372   3.650   5.365 -0.5263 -0.2777 -0.0944
  975MOL0     H31609   5.714   3.347   5.219  0.2820  0.7107 -1.6874
  975MOL0     H31610   5.912   3.286   5.107  0.6026  0.9240 -0.6650
  975MOL0     H31611   8.011   3.404   4.726 -1.8747 -0.2793  1.3427
  975MOL0     H31612   8.241   3.419   4.730 -0.4605 -1.6395  0.4488
  975MOL0     H31613   8.593   3.627   4.940  1.3767  0.3506  0.5342
  975MOL0     H31614   8.816   3.686   4.966  0.2562  0.5088  3.7731
  975MOL0     H31615   9.041   3.563   4.787  0.7300  1.0222 -1.4716
  975MOL0     H31616   9.014   3.692   4.903  0.3723 -0.0829  1.3732
  975MOL0     H31617   9.253   3.630   5.018  0.0971  0.2134  0.8320
  975MOL0     H31618   9.245   3.719   4.872 -1.5965 -0.6172 -1.1560
  975MOL0     H31619   9.289   3.528   4.736  1.8932 -0.9776 -0.8052
  975MOL0     H31620   9.286   3.414   4.874  1.2827  0.7744 -0.5544
  975MOL0     H31621   9.516   3.477   4.794  1.1825 -0.9638  0.6047
  975MOL0     H31622   9.480   3.483   4.970 -0.6797 -2.2438 -1.2586
  975MOL0     H31623   9.609   3.874   4.839  2.4056 -1.2003 -1.4201
  975MOL0     H31624   8.919   3.267   5.002  1.3411  0.4445 -1.8769
  975MOL0     H31625   8.689   3.210   4.937  1.7762  0.1613 -1.7025
  976MOL0     O31626  11.131   4.860  10.469  0.6650 -0.4510  0.0860
  976MOL0     C31627  11.196   4.765  10.512  0.0077  0.2791 -1.0693
  976MOL0     O31628  11.166   4.702  10.620 -0.1098 -0.2345  0.1825
  976MOL0     C31629  11.058   4.738  10.692 -0.3281 -0.1224 -0.3417
  976MOL0     C31630  10.928   4.746  10.632 -0.3597 -0.0569 -0.9977
  976MOL0     C31631  10.821   4.784  10.714 -0.1650 -0.0942 -0.6314
  976MOL0     C31632  10.831   4.810  10.849 -0.4935 -0.4734 -0.0305
  976MOL0     O31633  10.718   4.843  10.918  0.0196 -0.1517  0.4675
  976MOL0     C31634  10.731   4.938  11.021  0.0971  0.7484 -0.6667
  976MOL0     C31635  10.587   4.960  11.074 -0.5615  0.6714 -0.4586
  976MOL0     C31636  10.486   5.027  10.989  0.0450 -0.3497 -0.4273
  976MOL0     C31637  10.359   5.023  11.073  0.3123  0.4573 -0.5238
  976MOL0     C31638  10.233   5.057  10.996 -0.3369  0.2385 -0.8687
  976MOL0     C31639  10.130   5.095  11.108  0.1331  0.4530 -0.4121
  976MOL0     C31640  10.005   5.145  11.049  0.0418 -0.0108 -0.0280
  976MOL0     C31641   9.931   5.025  10.986  0.3776  0.3923  0.1560
  976MOL0     N31642   9.797   5.061  10.965  0.6034  0.1672 -0.4978
  976MOL0     C31643   9.728   5.141  10.871 -0.9241 -0.0764 -0.0022
  976MOL0     C31644   9.600   5.105  10.874  0.2268 -0.4886 -0.8202
  976MOL0     C31645   9.484   5.160  10.804 -0.0103 -0.0369  0.0651
  976MOL0     C31646   9.479   5.128  10.662  0.3170 -0.0778  0.6330
  976MOL0     C31647   9.412   4.984  10.638 -0.2850 -0.5480  0.0122
  976MOL0     C31648   9.263   4.973  10.674 -0.2945  0.4165 -0.1175
  976MOL0     O31649   9.184   4.927  10.569  0.6986 -0.0525  0.2292
  976MOL0     C31650   9.098   4.820  10.585  0.4676  0.9442  0.5724
  976MOL0     C31651   9.150   4.698  10.538  0.4541 -0.3446 -0.0709
  976MOL0     C31652   9.067   4.587  10.546 -0.2964  0.8815  0.6676
  976MOL0     C31653   9.139   4.457  10.517  0.2740 -0.8561  0.5115
  976MOL0     C31654   8.934   4.588  10.582  0.0707 -0.2325 -0.5208
  976MOL0     C31655   8.843   4.474  10.578  0.1147 -0.1553 -0.8886
  976MOL0     O31656   8.732   4.480  10.659 -0.4974  1.0151 -0.0447
  976MOL0     C31657   8.613   4.434  10.618  0.3788  1.1236  0.4897
  976MOL0     C31658   8.567   4.410  10.486  0.1011 -0.3119  1.4725
  976MOL0     C31659   8.437   4.357  10.464 -0.4604  0.2985  0.1150
  976MOL0     C31660   8.352   4.321  10.571  0.6517  0.1140  0.3581
  976MOL0     O31661   8.224   4.281  10.535 -0.5134 -0.3499  0.0954
  976MOL0     C31662   8.116   4.329  10.621 -0.1166 -0.4113  0.2238
  976MOL0     C31663   7.982   4.340  10.542 -0.2164  0.1463 -0.0844
  976MOL0     C31664   7.859   4.287  10.608 -0.3408  0.0478 -0.3190
  976MOL0     C31665   7.726   4.326  10.548  0.0710 -0.1117  0.0005
  976MOL0     C31666   7.598   4.275  10.623  0.7587 -0.8027  1.1730
  976MOL0     C31667   7.470   4.291  10.548  0.8680  0.0898  0.1553
  976MOL0     C31668   7.455   4.179  10.442  0.5224  0.3298 -0.2711
  976MOL0     C31669   7.308   4.171  10.373 -0.4866 -0.0681 -0.7129
  976MOL0    Cl31670   7.195   4.084  10.483 -0.0734  0.0108  0.0406
  976MOL0     C31671   8.397   4.334  10.698 -0.1098 -0.1637 -0.4136
  976MOL0     C31672   8.523   4.397  10.720  0.4513  0.3248  0.7404
  976MOL0     O31673   8.865   4.389  10.490  0.0237 -0.3191 -0.3964
  976MOL0     C31674   8.881   4.710  10.621 -0.0336  0.5794 -0.0282
  976MOL0     C31675   8.960   4.829  10.626 -0.0774  0.2686 -0.2359
  976MOL0     N31676   9.587   4.997  10.961 -0.3241  0.0994 -0.4153
  976MOL0     N31677   9.703   4.984  11.024  0.5014  0.8334 -0.1509
  976MOL0     C31678  10.953   4.787  10.908  0.3831 -0.0141  0.2175
  976MOL0     C31679  11.070   4.766  10.834 -0.2711 -1.0540 -0.6644
  976MOL0     C31680  11.334   4.736  10.458 -0.0933 -0.2843 -0.2096
  976MOL0     C31681  11.376   4.612  10.470 -0.1673 -0.2125 -0.9365
  976MOL0     C31682  11.505   4.580  10.437 -0.1362  0.8428 -0.0963
  976MOL0     C31683  11.593   4.671  10.381 -0.0507 -0.1666 -0.9107
  976MOL0     O31684  11.728   4.651  10.361 -0.5222  0.4184  0.4191
  976MOL0     C31685  11.784   4.516  10.374  0.3802 -0.4217  0.2174
  976MOL0     C31686  11.935   4.522  10.334  0.0718 -0.4221  0.5074
  976MOL0     C31687  11.944   4.514  10.179  0.0510  0.3930 -0.3494
  976MOL0     C31688  11.952   4.380  10.112  0.7497  0.7795 -0.0108
  976MOL0     C31689  12.043   4.271  10.169  0.1269 -0.1091 -0.5880
  976MOL0     C31690  12.108   4.198  10.236 -1.3954  1.0089 -0.1207
  976MOL0     C31691  11.548   4.804  10.365  0.0951  0.6668 -0.5502
  976MOL0     C31692  11.410   4.839  10.402 -0.6287  0.1037  1.1579
  976MOL0     H31693  10.905   4.729  10.527 -0.5484  1.3236 -1.2014
  976MOL0     H31694  10.726   4.809  10.669 -0.4883 -0.5500 -0.2231
  976MOL0     H31695  10.799   4.908  11.102 -0.1558  0.0358 -0.7082
  976MOL0     H31696  10.770   5.030  10.978  0.0083  1.2472  0.2938
  976MOL0     H31697  10.549   4.859  11.087 -0.2453  0.6582  0.4084
  976MOL0     H31698  10.585   4.993  11.178 -0.4646 -1.6559  0.3334
  976MOL0     H31699  10.524   5.128  10.972  4.9315 -1.7242  0.8689
  976MOL0     H31700  10.483   4.968  10.897  0.0064 -2.0191  0.5984
  976MOL0     H31701  10.358   4.931  11.133  2.0909  0.3663 -0.6036
  976MOL0     H31702  10.370   5.107  11.141  1.4329  0.2202 -0.4030
  976MOL0     H31703  10.243   5.147  10.934 -1.2711  0.3062 -0.9405
  976MOL0     H31704  10.214   4.972  10.930 -0.9909 -0.5147  0.2633
  976MOL0     H31705  10.097   5.016  11.176 -1.4370  2.0934  0.8253
  976MOL0     H31706  10.184   5.172  11.164  2.9103 -1.8484  0.3069
  976MOL0     H31707   9.955   5.181  11.140  1.0200  0.6429  0.2732
  976MOL0     H31708  10.024   5.224  10.976 -1.2544  0.4311  0.0947
  976MOL0     H31709   9.935   4.933  11.045 -0.4493 -0.2617 -0.7529
  976MOL0     H31710   9.982   5.004  10.891  0.8431 -0.0355  0.4999
  976MOL0     H31711   9.764   5.222  10.809 -1.6400 -0.3965 -0.8661
  976MOL0     H31712   9.394   5.116  10.848  0.8050 -1.3781  0.4371
  976MOL0     H31713   9.472   5.268  10.822 -0.0121  0.3894 -2.1639
  976MOL0     H31714   9.582   5.114  10.627  1.0875 -1.8111  3.2511
  976MOL0     H31715   9.425   5.195  10.595  3.2217 -0.9406 -2.8660
  976MOL0     H31716   9.467   4.900  10.682  0.5931 -0.6091 -1.1458
  976MOL0     H31717   9.422   4.957  10.533  1.3929 -2.3391  0.5718
  976MOL0     H31718   9.228   5.075  10.693  1.0928  1.1283 -1.1945
  976MOL0     H31719   9.260   4.908  10.761  3.8321 -0.6535 -0.5600
  976MOL0     H31720   9.247   4.693  10.490 -0.8069 -2.7557 -2.6502
  976MOL0     H31721   9.247   4.464  10.535  0.7295  2.3769 -2.3521
  976MOL0     H31722   9.098   4.381  10.583  0.7055 -1.4471  0.1060
  976MOL0     H31723   9.124   4.422  10.414 -2.2491  2.0491 -0.2863
  976MOL0     H31724   8.624   4.417  10.394 -2.2692 -4.1257 -0.5193
  976MOL0     H31725   8.403   4.334  10.363 -0.1653  1.7658 -0.3389
  976MOL0     H31726   8.102   4.255  10.699 -1.7036  0.1227  0.4834
  976MOL0     H31727   8.135   4.429  10.661 -0.1696 -1.2017  2.3069
  976MOL0     H31728   7.965   4.447  10.528  0.3317  0.2682  0.1428
  976MOL0     H31729   7.979   4.286  10.446 -0.4782  1.0745 -0.6089
  976MOL0     H31730   7.868   4.337  10.705  0.6552  1.1887 -0.9590
  976MOL0     H31731   7.872   4.181  10.627  1.9969  0.8282  3.4050
  976MOL0     H31732   7.722   4.435  10.540  0.1770  0.1443  2.6123
  976MOL0     H31733   7.720   4.283  10.448 -2.7459 -0.6836  0.3165
  976MOL0     H31734   7.578   4.329  10.716  0.3225  2.1490 -0.4836
  976MOL0     H31735   7.604   4.167  10.636 -0.3031 -0.9915  0.2808
  976MOL0     H31736   7.393   4.286  10.625  1.0635  2.7045  0.6025
  976MOL0     H31737   7.446   4.384  10.497  0.4119  1.3294  2.5065
  976MOL0     H31738   7.490   4.083  10.482 -0.2605 -0.6889 -1.9244
  976MOL0     H31739   7.528   4.193  10.362  1.8468  2.6521  1.2474
  976MOL0     H31740   7.319   4.135  10.271 -2.1346 -1.5196 -0.4201
  976MOL0     H31741   7.265   4.272  10.371 -1.8599 -0.6427 -0.8633
  976MOL0     H31742   8.330   4.316  10.781  0.3836  0.4789  0.1304
  976MOL0     H31743   8.544   4.423  10.823  0.8050 -0.9115  1.0079
  976MOL0     H31744   8.773   4.721  10.631 -0.3311 -0.7651 -1.4370
  976MOL0     H31745   8.920   4.927  10.648 -0.5150 -0.0581  0.4421
  976MOL0     H31746  10.957   4.780  11.016 -0.0771  0.6924  0.2877
  976MOL0     H31747  11.166   4.758  10.886  0.3940  0.9169 -1.5184
  976MOL0     H31748  11.313   4.536  10.515 -1.0962  1.7917  1.4020
  976MOL0     H31749  11.546   4.483  10.461 -3.2196 -0.7635 -0.7428
  976MOL0     H31750  11.777   4.477  10.476  0.0103 -2.9128 -0.6925
  976MOL0     H31751  11.727   4.450  10.308  0.3941 -0.6074  0.3924
  976MOL0     H31752  11.999   4.437  10.358  2.6569  1.5248  0.9513
  976MOL0     H31753  11.978   4.614  10.375  0.6426  0.0423 -1.0460
  976MOL0     H31754  12.029   4.579  10.156  0.2678  0.3125  0.2029
  976MOL0     H31755  11.857   4.567  10.140 -0.9987 -0.9904  0.0543
  976MOL0     H31756  11.979   4.388  10.007  1.6624  1.0831  0.2335
  976MOL0     H31757  11.859   4.323  10.108  2.7030 -3.0346  1.9829
  976MOL0     H31758  12.180   4.140  10.290 -1.5094  0.0429 -0.9809
  976MOL0     H31759  11.619   4.879  10.332 -0.7582  2.3905  1.3110
  976MOL0     H31760  11.387   4.944  10.386  0.3656  0.6499  3.0142
  977MOL0     O31761   2.178   1.126   8.448 -0.3857 -0.5789 -0.0729
  977MOL0     C31762   2.209   1.135   8.563  0.1286 -0.0385 -0.4958
  977MOL0     O31763   2.133   1.163   8.669  0.2846 -0.0607 -0.5834
  977MOL0     C31764   2.003   1.165   8.657  0.4890 -0.1236  0.6770
  977MOL0     C31765   1.923   1.067   8.709 -0.1952 -0.1184 -0.2288
  977MOL0     C31766   1.790   1.084   8.719 -0.5509  0.0105  0.3959
  977MOL0     C31767   1.719   1.198   8.674 -0.1958 -0.0683  0.5419
  977MOL0     O31768   1.591   1.210   8.701  0.1263  0.1312 -0.3246
  977MOL0     C31769   1.513   1.311   8.646 -0.5227  0.2999 -0.3246
  977MOL0     C31770   1.369   1.300   8.701 -0.4604  0.1678  0.1557
  977MOL0     C31771   1.342   1.347   8.846  0.0668  1.7040 -0.5554
  977MOL0     C31772   1.440   1.270   8.948  0.1667 -1.3939 -0.0774
  977MOL0     C31773   1.407   1.294   9.089 -0.1072 -0.4518 -0.4303
  977MOL0     C31774   1.543   1.289   9.167 -0.9167  0.5592 -1.2045
  977MOL0     C31775   1.516   1.359   9.299 -0.3713 -0.1551 -0.4202
  977MOL0     C31776   1.638   1.351   9.402 -0.4437  0.2498  0.5154
  977MOL0     N31777   1.589   1.376   9.541  0.1332  0.5726  0.0387
  977MOL0     C31778   1.531   1.273   9.612  1.1617 -0.0460 -0.1344
  977MOL0     C31779   1.507   1.319   9.731  0.1162 -0.2571 -0.2533
  977MOL0     C31780   1.449   1.243   9.845  0.3774  0.5483  0.4726
  977MOL0     C31781   1.380   1.333   9.953  0.2639  0.4512  0.3321
  977MOL0     C31782   1.249   1.395   9.910  1.3891 -0.1686  0.4366
  977MOL0     C31783   1.171   1.451  10.039  0.0035  0.9232  0.6424
  977MOL0     O31784   1.119   1.341  10.108  0.1451  0.4151 -0.2315
  977MOL0     C31785   1.005   1.360  10.192 -0.1396  0.5843  0.3246
  977MOL0     C31786   0.952   1.484  10.228  0.5607 -0.0673 -0.2473
  977MOL0     C31787   0.838   1.496  10.305  0.5038 -0.4408 -0.2908
  977MOL0     C31788   0.774   1.637  10.309  0.6422  0.1972 -0.5486
  977MOL0     C31789   0.772   1.385  10.362  0.4820 -0.0469  0.0468
  977MOL0     C31790   0.644   1.379  10.451 -0.1760  0.4662 -0.0938
  977MOL0     O31791   0.596   1.253  10.468 -0.3574  0.9119 -0.2715
  977MOL0     C31792   0.472   1.246  10.530 -0.3451 -0.4467 -0.3338
  977MOL0     C31793   0.435   1.304  10.660 -0.1726  1.0021  0.4477
  977MOL0     C31794   0.309   1.292  10.710  0.9335 -0.7332  0.5469
  977MOL0     C31795   0.201   1.246  10.636 -0.3078  0.4901 -0.5888
  977MOL0     O31796   0.070   1.230  10.686 -0.3256  0.4311  0.3626
  977MOL0     C31797   0.050   1.233  10.832 -1.1586  0.0543  0.0663
  977MOL0     C31798  -0.081   1.174  10.875  0.6619 -0.0741 -0.7419
  977MOL0     C31799  -0.123   1.038  10.804 -0.2235  0.4517  0.0051
  977MOL0     C31800  -0.252   0.959  10.843  0.3706  0.5297  0.0385
  977MOL0     C31801  -0.276   0.842  10.748 -0.2874  0.4158  0.4071
  977MOL0     C31802  -0.384   0.739  10.768  0.4628 -0.0623  0.1012
  977MOL0     C31803  -0.366   0.652  10.896  0.0899  0.0943  0.3757
  977MOL0     C31804  -0.259   0.555  10.859 -0.1510  0.5635  0.1401
  977MOL0    Cl31805  -0.232   0.478  11.018  0.3937  0.4281  0.0721
  977MOL0     C31806   0.238   1.196  10.508  0.3208  0.4082  0.3176
  977MOL0     C31807   0.359   1.193  10.457 -0.6916  0.1092 -0.0016
  977MOL0     O31808   0.597   1.484  10.493 -0.8480 -0.2507 -0.2398
  977MOL0     C31809   0.844   1.261  10.342  0.2430  0.2575  0.1794
  977MOL0     C31810   0.946   1.255  10.251  0.1646  0.0181  0.4595
  977MOL0     N31811   1.559   1.452   9.734 -0.5353 -0.1710  0.1651
  977MOL0     N31812   1.604   1.486   9.623 -0.0569 -0.5771 -0.3904
  977MOL0     C31813   1.802   1.303   8.620  0.1666 -0.3304 -0.1310
  977MOL0     C31814   1.942   1.289   8.617 -0.4403  0.0005 -0.4798
  977MOL0     C31815   2.356   1.140   8.587  0.5318 -0.3113  0.1863
  977MOL0     C31816   2.405   1.081   8.699  0.3971 -0.3346  0.0423
  977MOL0     C31817   2.544   1.070   8.722 -0.3645  0.1742 -1.2550
  977MOL0     C31818   2.634   1.103   8.623 -0.1172 -0.6665 -0.1019
  977MOL0     O31819   2.776   1.082   8.616 -0.3662 -0.1718 -0.1356
  977MOL0     C31820   2.844   1.013   8.724 -0.2117 -0.2601  0.6414
  977MOL0     C31821   2.994   1.007   8.680 -0.4829 -0.2731  0.1632
  977MOL0     C31822   3.083   0.961   8.793  0.3700 -0.0286 -1.0773
  977MOL0     C31823   3.230   0.953   8.775 -0.0682 -0.3905 -0.1225
  977MOL0     C31824   3.293   1.085   8.796  0.3657  0.0946  0.3221
  977MOL0     C31825   3.337   1.199   8.794 -0.3713  0.1678 -0.7661
  977MOL0     C31826   2.580   1.152   8.500 -0.4623  0.4382 -0.5228
  977MOL0     C31827   2.448   1.167   8.482  0.7490 -0.9565  0.3638
  977MOL0     H31828   1.965   0.974   8.745  0.1909 -0.4292 -1.4378
  977MOL0     H31829   1.722   1.008   8.756 -1.9709  1.4522  0.8192
  977MOL0     H31830   1.548   1.407   8.685 -2.8916  0.3407  2.0528
  977MOL0     H31831   1.517   1.314   8.537  0.5490  3.9186 -0.3165
  977MOL0     H31832   1.313   1.367   8.635  0.9727 -0.1514 -1.4281
  977MOL0     H31833   1.333   1.198   8.688 -0.9769  0.1812  1.3669
  977MOL0     H31834   1.371   1.453   8.853  1.5474  1.5406 -2.9091
  977MOL0     H31835   1.237   1.325   8.867  0.8357 -3.7900 -1.0665
  977MOL0     H31836   1.410   1.167   8.924 -1.4934 -0.2881 -3.2803
  977MOL0     H31837   1.547   1.290   8.932 -0.2025 -0.1009 -1.0979
  977MOL0     H31838   1.367   1.396   9.098  0.3512 -0.2713 -0.4185
  977MOL0     H31839   1.329   1.235   9.139  2.2901 -1.9516  1.8106
  977MOL0     H31840   1.588   1.192   9.190 -2.4509  0.9083  5.3086
  977MOL0     H31841   1.617   1.349   9.113  0.0640 -0.8980 -1.5679
  977MOL0     H31842   1.496   1.466   9.286  1.9577  0.2055 -1.6542
  977MOL0     H31843   1.430   1.306   9.339  0.9948 -5.5154 -3.5270
  977MOL0     H31844   1.709   1.427   9.369 -1.4688  1.3346  0.7545
  977MOL0     H31845   1.685   1.252   9.405 -2.2130 -0.6660 -0.4583
  977MOL0     H31846   1.526   1.173   9.573  0.5008  0.2877 -0.9372
  977MOL0     H31847   1.374   1.172   9.812  1.7195 -0.9909  0.5905
  977MOL0     H31848   1.526   1.179   9.891  0.1305 -1.9592 -2.3038
  977MOL0     H31849   1.444   1.413   9.991 -3.3035  3.1335  1.2576
  977MOL0     H31850   1.357   1.268  10.037  0.1808 -0.3666 -0.3120
  977MOL0     H31851   1.177   1.333   9.857  1.9149  0.8960 -1.6129
  977MOL0     H31852   1.284   1.481   9.852  0.4064 -0.4835 -0.6302
  977MOL0     H31853   1.082   1.500   9.999  0.9106 -1.1095 -4.7914
  977MOL0     H31854   1.240   1.514  10.097  1.6378  1.0830 -1.3240
  977MOL0     H31855   1.007   1.573  10.197 -0.3353  0.1411 -1.3007
  977MOL0     H31856   0.752   1.681  10.406  2.3328  0.9590 -0.4614
  977MOL0     H31857   0.840   1.712  10.262 -0.0682  0.9380 -0.3820
  977MOL0     H31858   0.681   1.639  10.252  0.5516  0.1144 -0.4032
  977MOL0     H31859   0.516   1.334  10.726 -0.4224  2.4950  0.1187
  977MOL0     H31860   0.291   1.330  10.810 -1.6553 -0.9072  0.2144
  977MOL0     H31861   0.131   1.176  10.880 -2.8375 -0.8939  1.9416
  977MOL0     H31862   0.056   1.335  10.871  1.7748  0.3139 -0.8380
  977MOL0     H31863  -0.088   1.171  10.984  3.3077  1.6240 -0.4153
  977MOL0     H31864  -0.161   1.242  10.845 -0.1887 -0.5955  0.2813
  977MOL0     H31865  -0.037   0.971  10.798  2.3152  3.5109 -0.5815
  977MOL0     H31866  -0.152   1.075  10.705 -0.2402  0.9408  0.1916
  977MOL0     H31867  -0.244   0.909  10.939  2.5161 -0.8118 -0.7803
  977MOL0     H31868  -0.337   1.028  10.839 -0.3471 -0.3469 -3.9486
  977MOL0     H31869  -0.181   0.791  10.735  0.9019  2.1070  1.9028
  977MOL0     H31870  -0.278   0.887  10.648  0.2559  1.7230  0.9561
  977MOL0     H31871  -0.479   0.793  10.782  0.4688  0.1366 -0.5786
  977MOL0     H31872  -0.391   0.669  10.684  2.4330  0.2886 -0.4093
  977MOL0     H31873  -0.460   0.609  10.932 -0.0793 -0.1047 -0.2871
  977MOL0     H31874  -0.327   0.720  10.972 -1.4961  1.1889  0.2484
  977MOL0     H31875  -0.166   0.597  10.820 -0.7904  1.5688 -0.3575
  977MOL0     H31876  -0.292   0.482  10.785 -0.8736  2.8333 -1.9092
  977MOL0     H31877   0.152   1.174  10.445 -0.1178 -1.2863  1.4279
  977MOL0     H31878   0.374   1.172  10.351 -2.6306  0.2338 -0.3308
  977MOL0     H31879   0.807   1.167  10.380  1.7949 -0.0119  1.1054
  977MOL0     H31880   0.972   1.151  10.232 -1.7804 -0.0246 -2.5879
  977MOL0     H31881   1.747   1.387   8.578 -0.4476 -0.9391 -0.5830
  977MOL0     H31882   2.010   1.370   8.598 -0.5009  0.8274  2.3253
  977MOL0     H31883   2.335   1.053   8.777  2.6863  2.6488  3.4924
  977MOL0     H31884   2.579   1.026   8.815 -1.0800  1.4777 -0.3527
  977MOL0     H31885   2.842   1.064   8.821 -0.6988  1.7864 -0.3834
  977MOL0     H31886   2.804   0.913   8.741  1.4696 -1.2838 -1.0536
  977MOL0     H31887   3.021   1.112   8.666 -1.9180  0.6004  3.1621
  977MOL0     H31888   3.003   0.945   8.591 -0.2432 -0.1231  0.0817
  977MOL0     H31889   3.057   0.855   8.800  3.1036 -0.8480 -2.0623
  977MOL0     H31890   3.051   1.015   8.883 -1.4275 -3.3116  0.4100
  977MOL0     H31891   3.247   0.913   8.675  2.8571 -1.0138  0.5283
  977MOL0     H31892   3.275   0.883   8.846  1.4138  1.1144  0.4898
  977MOL0     H31893   3.373   1.300   8.796  0.3333 -0.0801 -0.2592
  977MOL0     H31894   2.658   1.174   8.428  0.5997  0.6608  0.6588
  977MOL0     H31895   2.407   1.207   8.390 -0.5620  1.6052  1.9514
  978MOL0     O31896  10.887   1.940  11.079 -0.6589 -0.2970  0.2950
  978MOL0     C31897  10.819   1.962  10.984  0.7620  0.6481  0.0140
  978MOL0     O31898  10.860   1.984  10.861  0.1456  0.0693 -0.2895
  978MOL0     C31899  10.989   1.998  10.834 -0.3337 -0.1843 -0.8887
  978MOL0     C31900  11.046   1.914  10.741  0.2116 -0.0645  1.0936
  978MOL0     C31901  11.180   1.922  10.711  0.2202  0.2221  0.8638
  978MOL0     C31902  11.271   2.012  10.762  0.4820 -0.8577  0.4729
  978MOL0     O31903  11.401   2.013  10.713  0.4771 -0.4038 -0.0524
  978MOL0     C31904  11.485   2.088  10.806 -1.4736 -0.0130 -0.7689
  978MOL0     C31905  11.624   2.097  10.728 -0.0713  0.0449  0.3615
  978MOL0     C31906  11.619   2.165  10.590  0.6371 -1.2642 -0.5220
  978MOL0     C31907  11.740   2.121  10.508 -0.3272  0.1904  0.7223
  978MOL0     C31908  11.764   2.199  10.379 -0.0508  0.4084  0.1321
  978MOL0     C31909  11.875   2.129  10.293  0.4110 -0.1796  0.0928
  978MOL0     C31910  12.012   2.152  10.357  0.4601 -0.3394  0.2867
  978MOL0     C31911  12.129   2.113  10.271  0.5418  0.1443 -0.4658
  978MOL0     N31912  12.248   2.101  10.353 -0.0094  0.4364  0.2232
  978MOL0     C31913  12.279   1.987  10.425  0.5815 -0.7674  0.4031
  978MOL0     C31914  12.399   2.001  10.485  0.3299 -1.4906 -0.1246
  978MOL0     C31915  12.489   1.893  10.549 -0.2389  0.0016  0.9421
  978MOL0     C31916  12.455   1.880  10.707  0.1610 -0.5013  0.4344
  978MOL0     C31917  12.395   1.753  10.754  0.5429  1.2472 -1.2178
  978MOL0     C31918  12.243   1.742  10.730  0.8691 -0.1923  0.3605
  978MOL0     O31919  12.165   1.859  10.777  0.8656 -0.0375  0.5133
  978MOL0     C31920  12.032   1.823  10.805  0.3828  0.1604 -0.4540
  978MOL0     C31921  11.952   1.768  10.700 -0.7788  0.1270  0.0501
  978MOL0     C31922  11.819   1.732  10.733 -0.4380  0.4405  1.3820
  978MOL0     C31923  11.724   1.702  10.616  0.3763 -0.1758 -0.4787
  978MOL0     C31924  11.780   1.727  10.875  0.5063 -1.2074  0.9580
  978MOL0     C31925  11.641   1.689  10.917  1.2079  0.8331  0.0992
  978MOL0     O31926  11.533   1.749  10.859 -0.3896  0.2146 -0.2118
  978MOL0     C31927  11.408   1.689  10.879 -0.1575  0.4282 -0.0814
  978MOL0     C31928  11.327   1.740  10.984 -0.5011  0.2940  0.1768
  978MOL0     C31929  11.196   1.684  10.997  0.4900 -0.3357 -0.6709
  978MOL0     C31930  11.145   1.583  10.919 -0.1561  0.2122  1.1719
  978MOL0     O31931  11.024   1.529  10.924 -0.8394  0.3972  0.1207
  978MOL0     C31932  10.916   1.621  10.916 -0.3326 -0.1108 -0.9551
  978MOL0     C31933  10.799   1.542  10.856  0.1529  0.2932  0.4058
  978MOL0     C31934  10.679   1.603  10.921  0.4060  0.4627  0.6076
  978MOL0     C31935  10.654   1.536  11.054 -0.8933 -0.1895 -0.7558
  978MOL0     C31936  10.537   1.590  11.144  0.1690 -0.0573 -0.2889
  978MOL0     C31937  10.408   1.588  11.079  0.4811 -0.6240 -0.0403
  978MOL0     C31938  10.372   1.443  11.023  0.4738 -0.1091 -0.1188
  978MOL0     C31939  10.213   1.425  10.982 -0.0724  0.2985  0.0299
  978MOL0    Cl31940  10.098   1.498  11.103 -0.4209 -0.3301 -0.0939
  978MOL0     C31941  11.227   1.537  10.821  0.4704  0.5445  1.0300
  978MOL0     C31942  11.358   1.589  10.800  0.6478  0.9823 -0.0046
  978MOL0     O31943  11.637   1.598  10.997 -0.4482  0.7717  0.1892
  978MOL0     C31944  11.866   1.769  10.973 -0.3552  0.6070  0.9287
  978MOL0     C31945  11.992   1.814  10.938  1.2573  0.1432  0.5123
  978MOL0     N31946  12.442   2.124  10.441 -1.6294 -0.2949  0.0867
  978MOL0     N31947  12.360   2.179  10.365  0.6509 -0.8046 -0.3986
  978MOL0     C31948  11.217   2.095  10.863 -0.2004  0.6116 -0.1389
  978MOL0     C31949  11.081   2.085  10.902  0.0755  0.2151  0.0704
  978MOL0     C31950  10.674   1.992  11.016  1.4790  0.1668  0.4330
  978MOL0     C31951  10.635   1.999  11.148 -0.6467  0.5112  0.4648
  978MOL0     C31952  10.509   2.021  11.190  0.3613 -0.4018 -0.7114
  978MOL0     C31953  10.399   2.048  11.109 -0.8598 -1.1115  0.5286
  978MOL0     O31954  10.274   2.067  11.166 -0.5128  0.0096 -0.1637
  978MOL0     C31955  10.169   2.061  11.074  0.0221 -0.4430  0.1383
  978MOL0     C31956  10.137   2.189  10.995 -0.1127 -0.5162  0.3438
  978MOL0     C31957  10.005   2.180  10.930  1.1864 -0.2707 -0.2430
  978MOL0     C31958   9.952   2.307  10.866 -0.1687  0.0554  0.3331
  978MOL0     C31959  10.038   2.364  10.765 -0.7783 -0.9221  0.0546
  978MOL0     C31960  10.115   2.414  10.677  0.4654 -0.2887 -0.3821
  978MOL0     C31961  10.427   2.027  10.972  0.3608  0.1733  0.5290
  978MOL0     C31962  10.566   1.998  10.925 -0.0646  0.4312  0.4658
  978MOL0     H31963  10.986   1.843  10.685  0.3855 -1.1565  2.2305
  978MOL0     H31964  11.213   1.847  10.641  0.5242  1.1378 -0.0028
  978MOL0     H31965  11.459   2.194  10.808 -0.1598  0.3303 -0.0261
  978MOL0     H31966  11.494   2.055  10.910  1.0017  0.0121 -0.9127
  978MOL0     H31967  11.686   2.168  10.783  1.5953 -0.4935 -0.7676
  978MOL0     H31968  11.669   1.997  10.726  1.9568  0.9256 -0.4800
  978MOL0     H31969  11.522   2.152  10.541 -0.6181  1.3683  0.9974
  978MOL0     H31970  11.614   2.275  10.594  2.0925 -1.1810 -0.5211
  978MOL0     H31971  11.821   2.108  10.581 -2.1562  1.2084  3.0830
  978MOL0     H31972  11.720   2.016  10.484 -0.0334  0.2400  0.2474
  978MOL0     H31973  11.675   2.197  10.315 -0.5465  1.4045  0.7654
  978MOL0     H31974  11.787   2.303  10.404 -1.3639  0.5779  0.7082
  978MOL0     H31975  11.863   2.021  10.279 -0.9095  0.0003 -0.3259
  978MOL0     H31976  11.877   2.179  10.195  2.6805 -1.4284 -0.5685
  978MOL0     H31977  12.017   2.260  10.375  0.1146 -0.1816 -0.5316
  978MOL0     H31978  12.013   2.106  10.457 -1.4559  0.6695  0.8128
  978MOL0     H31979  12.161   2.185  10.195  2.6750 -1.5403 -1.2506
  978MOL0     H31980  12.108   2.020  10.218  0.0996 -0.2950  0.4594
  978MOL0     H31981  12.210   1.904  10.421 -0.0891 -0.2182  0.4936
  978MOL0     H31982  12.462   1.805  10.490 -2.6927  2.1818 -1.4122
  978MOL0     H31983  12.597   1.908  10.536 -0.5921  2.4329  0.2783
  978MOL0     H31984  12.387   1.960  10.736  2.7889  1.8060  0.7226
  978MOL0     H31985  12.548   1.898  10.761  1.4397 -1.8774 -1.1833
  978MOL0     H31986  12.409   1.745  10.862  0.7279 -1.3805 -1.3630
  978MOL0     H31987  12.457   1.672  10.713  3.3149  2.8368 -0.3787
  978MOL0     H31988  12.197   1.651  10.770  0.8351 -0.5522 -0.4838
  978MOL0     H31989  12.230   1.723  10.623 -2.0857  1.5610  0.3223
  978MOL0     H31990  11.998   1.769  10.601 -0.0430  0.3671  0.3905
  978MOL0     H31991  11.780   1.673  10.526  0.3124 -0.5102 -0.4112
  978MOL0     H31992  11.650   1.626  10.640 -0.3995  0.9631  0.9221
  978MOL0     H31993  11.667   1.793  10.594  1.1533  0.3773 -0.2798
  978MOL0     H31994  11.353   1.835  11.030 -1.3891 -0.0501  1.4224
  978MOL0     H31995  11.134   1.733  11.071  1.2430  1.0558 -0.9155
  978MOL0     H31996  10.894   1.658  11.017  0.9032 -1.6028 -0.0897
  978MOL0     H31997  10.931   1.708  10.851  0.2189  0.7088  0.2244
  978MOL0     H31998  10.801   1.568  10.750  1.8900  1.7076  0.7352
  978MOL0     H31999  10.816   1.437  10.882  2.3261  0.5277  0.0849
  978MOL0     H32000  10.593   1.583  10.857  0.9146 -0.6883  0.2652
  978MOL0     H32001  10.692   1.712  10.913 -1.7939  0.6912 -0.7086
  978MOL0     H32002  10.647   1.428  11.041  3.2637 -1.2238  3.0458
  978MOL0     H32003  10.742   1.556  11.115 -2.2075  3.0174  0.3189
  978MOL0     H32004  10.558   1.691  11.181 -1.7436  1.0922 -2.0816
  978MOL0     H32005  10.524   1.523  11.229 -3.4956  2.2757  1.2678
  978MOL0     H32006  10.333   1.613  11.154 -3.0640 -1.4266 -2.9815
  978MOL0     H32007  10.394   1.668  11.006 -2.2199 -1.8744 -1.0484
  978MOL0     H32008  10.389   1.377  11.109  2.1221  1.8099  1.1481
  978MOL0     H32009  10.432   1.420  10.936  0.0982  2.1825 -1.0691
  978MOL0     H32010  10.187   1.319  10.976  2.0435 -0.2043 -4.2280
  978MOL0     H32011  10.196   1.465  10.881 -3.3866  1.8225  1.0601
  978MOL0     H32012  11.202   1.448  10.764 -1.1486  1.5300  0.1424
  978MOL0     H32013  11.425   1.532  10.737  0.7893 -0.3511  1.3068
  978MOL0     H32014  11.828   1.752  11.073  0.4775 -1.4353  0.9395
  978MOL0     H32015  12.056   1.857  11.014  1.5474  2.8760 -1.1268
  978MOL0     H32016  11.271   2.180  10.905  0.3127  1.7867 -2.9400
  978MOL0     H32017  11.050   2.159  10.975 -1.2593  2.2953 -2.4110
  978MOL0     H32018  10.711   1.998  11.226  0.5474  0.9777 -0.6674
  978MOL0     H32019  10.478   2.035  11.293 -1.3715 -2.9388 -0.7775
  978MOL0     H32020  10.176   1.967  11.019 -1.3283 -2.5684  3.2847
  978MOL0     H32021  10.084   2.050  11.142 -0.3698  0.2488 -0.2331
  978MOL0     H32022  10.215   2.205  10.919  1.4482 -3.5127  1.1295
  978MOL0     H32023  10.134   2.277  11.060  2.4071  2.0402 -2.6683
  978MOL0     H32024   9.926   2.140  10.993 -0.3870  1.9229 -0.6870
  978MOL0     H32025  10.008   2.108  10.848 -1.0339  0.8985 -1.4503
  978MOL0     H32026   9.933   2.390  10.935 -0.5455  0.9792 -0.8537
  978MOL0     H32027   9.861   2.298  10.807  0.9678  2.2990 -1.9363
  978MOL0     H32028  10.175   2.459  10.600 -0.7133  1.4719 -0.3249
  978MOL0     H32029  10.364   2.038  10.884  0.6704 -0.3716  0.2399
  978MOL0     H32030  10.593   1.999  10.820  0.8956  4.7263  0.5770
  979MOL0     O32031   9.056   9.502   0.881  0.1306 -0.1574  0.5280
  979MOL0     C32032   9.081   9.408   0.799  1.2745 -0.6222 -0.4837
  979MOL0     O32033   8.979   9.334   0.731 -0.2041  0.3310  0.2872
  979MOL0     C32034   8.848   9.337   0.775 -0.1215 -0.4907  0.9798
  979MOL0     C32035   8.742   9.383   0.692  0.6741  0.0749 -0.3672
  979MOL0     C32036   8.611   9.398   0.739  0.0786 -0.1213 -0.1972
  979MOL0     C32037   8.590   9.381   0.879  0.6423 -0.2522  1.1461
  979MOL0     O32038   8.465   9.394   0.929 -0.0307  0.1037  0.0746
  979MOL0     C32039   8.352   9.426   0.855  0.7067  0.3034  0.4421
  979MOL0     C32040   8.233   9.470   0.944  0.3545 -0.3173  0.8367
  979MOL0     C32041   8.104   9.485   0.864 -0.0616 -0.0325 -0.1821
  979MOL0     C32042   8.055   9.355   0.801 -0.1751  0.3689 -0.2674
  979MOL0     C32043   7.921   9.376   0.726  0.3040 -0.1507  0.0655
  979MOL0     C32044   7.887   9.260   0.636  0.6206  1.4678  0.3764
  979MOL0     C32045   7.976   9.255   0.516  0.5165  0.1277  0.8657
  979MOL0     C32046   7.985   9.379   0.422  0.8554  0.0505  0.8912
  979MOL0     N32047   7.851   9.415   0.369  0.2078 -0.5889 -0.4156
  979MOL0     C32048   7.765   9.335   0.296 -0.6139  0.1165 -0.5933
  979MOL0     C32049   7.646   9.398   0.310 -1.0544  0.8260  1.1416
  979MOL0     C32050   7.518   9.364   0.243 -0.0104  0.0964 -0.8581
  979MOL0     C32051   7.401   9.443   0.296  0.6452 -0.6454 -0.8488
  979MOL0     C32052   7.343   9.391   0.427 -0.6679  0.6477  1.0568
  979MOL0     C32053   7.238   9.484   0.486  0.3557 -0.2002 -0.0421
  979MOL0     O32054   7.167   9.544   0.379  0.6392 -0.0569  0.1372
  979MOL0     C32055   7.040   9.502   0.356 -0.2157 -1.1496  0.1617
  979MOL0     C32056   6.934   9.522   0.450 -0.2218 -0.4062  0.6044
  979MOL0     C32057   6.808   9.481   0.417  0.5915 -0.3645 -0.2079
  979MOL0     C32058   6.698   9.487   0.527 -0.4141 -0.1034  0.2789
  979MOL0     C32059   6.781   9.428   0.290  0.6647  0.0555  0.4907
  979MOL0     C32060   6.640   9.382   0.253 -0.0775  0.6478 -0.9729
  979MOL0     O32061   6.569   9.304   0.335 -1.0606 -0.5308 -0.0431
  979MOL0     C32062   6.433   9.303   0.354 -0.4170 -0.7990  0.2334
  979MOL0     C32063   6.388   9.199   0.435 -0.2139  0.6071  0.7899
  979MOL0     C32064   6.243   9.181   0.447 -1.1323  0.8247  0.0067
  979MOL0     C32065   6.155   9.267   0.390  0.4683 -0.3642 -0.4725
  979MOL0     O32066   6.017   9.246   0.396 -0.3737 -0.2579 -0.1550
  979MOL0     C32067   5.979   9.185   0.522  0.6809 -0.0554 -0.5039
  979MOL0     C32068   5.838   9.230   0.562 -0.6662  0.0562 -0.0428
  979MOL0     C32069   5.782   9.123   0.649  0.0109  0.4430  0.2550
  979MOL0     C32070   5.823   9.101   0.792  0.7923 -0.0042 -0.2091
  979MOL0     C32071   5.821   9.217   0.887 -0.5520 -0.4396  0.0022
  979MOL0     C32072   5.804   9.176   1.038 -0.7156 -0.7482  1.4032
  979MOL0     C32073   5.664   9.122   1.068 -1.1471 -0.2452  0.5266
  979MOL0     C32074   5.625   9.151   1.213  0.4048  0.5585  0.3742
  979MOL0    Cl32075   5.743   9.087   1.336  0.1447  0.3362  0.0798
  979MOL0     C32076   6.198   9.377   0.313 -0.1973  0.1810  0.0003
  979MOL0     C32077   6.334   9.399   0.293 -0.9396  0.4615  0.2914
  979MOL0     O32078   6.606   9.419   0.142 -0.6786 -1.0379 -0.9121
  979MOL0     C32079   6.877   9.445   0.191 -0.0920  0.4455  0.7129
  979MOL0     C32080   7.013   9.470   0.227  0.5870 -0.5202 -0.3426
  979MOL0     N32081   7.662   9.503   0.394 -0.2301 -0.3330  0.4207
  979MOL0     N32082   7.781   9.514   0.430 -0.5732  0.4276  0.3899
  979MOL0     C32083   8.693   9.323   0.953 -0.1710 -0.3660  1.1885
  979MOL0     C32084   8.819   9.301   0.904  0.8799 -0.0644 -1.1176
  979MOL0     C32085   9.217   9.381   0.758 -0.2782 -0.3921  0.1230
  979MOL0     C32086   9.249   9.267   0.678 -0.2361 -0.2520 -1.0290
  979MOL0     C32087   9.384   9.239   0.640  0.4237 -0.1572  0.1931
  979MOL0     C32088   9.485   9.326   0.679  0.1654 -0.0687  0.3773
  979MOL0     O32089   9.614   9.285   0.665  0.7576 -0.3179 -0.0198
  979MOL0     C32090   9.712   9.381   0.638 -0.7020 -0.9235 -0.4527
  979MOL0     C32091   9.846   9.317   0.607  0.7485  0.0628  0.1190
  979MOL0     C32092   9.917   9.290   0.744  0.1587 -0.7341 -1.0657
  979MOL0     C32093  10.029   9.190   0.733 -0.6741  0.8058  0.6059
  979MOL0     C32094  10.154   9.253   0.690 -0.8474  0.0277 -0.8289
  979MOL0     C32095  10.249   9.306   0.639 -0.8518  0.4765 -0.3435
  979MOL0     C32096   9.453   9.445   0.748 -0.0100 -0.2042  0.0282
  979MOL0     C32097   9.321   9.468   0.793  0.4585  0.5716  0.3242
  979MOL0     H32098   8.759   9.417   0.590  0.8977 -1.0919 -0.7342
  979MOL0     H32099   8.538   9.436   0.668  2.6752  0.3096 -2.8514
  979MOL0     H32100   8.373   9.512   0.790 -0.3362 -0.1543 -0.5349
  979MOL0     H32101   8.325   9.333   0.804 -1.1633  2.4534 -2.9040
  979MOL0     H32102   8.219   9.402   1.029  2.2719 -1.8900 -0.0358
  979MOL0     H32103   8.258   9.564   0.995  0.0114 -0.9388  2.2073
  979MOL0     H32104   8.024   9.540   0.916 -0.1896  0.9170 -1.3372
  979MOL0     H32105   8.134   9.558   0.788  0.1932 -1.4519 -1.4852
  979MOL0     H32106   8.130   9.301   0.743  1.2322  0.6192  1.2438
  979MOL0     H32107   8.036   9.291   0.888 -0.6180  0.2113 -0.4753
  979MOL0     H32108   7.854   9.372   0.812 -2.6721  1.3113 -2.0314
  979MOL0     H32109   7.918   9.473   0.675 -1.5112 -0.9045 -1.3734
  979MOL0     H32110   7.892   9.158   0.675  0.2383  1.5570  0.6680
  979MOL0     H32111   7.786   9.275   0.598 -0.1181 -2.9732  0.0406
  979MOL0     H32112   8.082   9.235   0.535  0.8673 -1.6485 -2.2357
  979MOL0     H32113   7.929   9.172   0.463 -1.3468  0.0214  2.5821
  979MOL0     H32114   8.045   9.350   0.335 -0.8892  2.0968 -1.1067
  979MOL0     H32115   8.037   9.452   0.485 -0.4136 -0.3124  2.4486
  979MOL0     H32116   7.789   9.243   0.243  4.0878 -0.6814  2.3607
  979MOL0     H32117   7.536   9.378   0.136  0.3461 -1.6028 -1.0511
  979MOL0     H32118   7.488   9.259   0.242 -2.0320  0.5893 -3.3673
  979MOL0     H32119   7.325   9.421   0.220 -1.1376  1.5736  0.1749
  979MOL0     H32120   7.421   9.550   0.307 -0.8366 -0.4766  0.5899
  979MOL0     H32121   7.414   9.383   0.510 -0.0944 -1.7155  0.4085
  979MOL0     H32122   7.302   9.292   0.407 -1.4248  0.9585  1.0419
  979MOL0     H32123   7.298   9.563   0.533  2.7031 -2.2635  0.6351
  979MOL0     H32124   7.161   9.446   0.554 -1.0223  1.8748 -0.3307
  979MOL0     H32125   6.957   9.556   0.551 -2.0221  3.4714 -0.1172
  979MOL0     H32126   6.723   9.563   0.602 -1.3915  0.3967  0.1186
  979MOL0     H32127   6.602   9.516   0.484  0.9904  1.2629 -2.1297
  979MOL0     H32128   6.684   9.388   0.572 -0.1708 -0.7206 -0.9603
  979MOL0     H32129   6.464   9.130   0.469 -0.1605  0.4625  0.3857
  979MOL0     H32130   6.200   9.099   0.502  0.0215 -0.1078 -0.4300
  979MOL0     H32131   5.967   9.077   0.509 -1.4958 -0.0856  1.0928
  979MOL0     H32132   6.043   9.213   0.607 -0.5927 -3.5377  1.8310
  979MOL0     H32133   5.829   9.331   0.604 -0.3497  0.1549 -0.2128
  979MOL0     H32134   5.789   9.234   0.464  0.8795  2.5842 -0.8017
  979MOL0     H32135   5.777   9.027   0.597  0.4827  1.0708 -0.9733
  979MOL0     H32136   5.682   9.167   0.649 -0.4653 -0.6031 -0.0064
  979MOL0     H32137   5.751   9.026   0.826  1.8868 -0.9059  0.1668
  979MOL0     H32138   5.920   9.051   0.790  0.0655 -1.4669  0.0931
  979MOL0     H32139   5.752   9.287   0.841  0.0287  0.7406  0.8641
  979MOL0     H32140   5.915   9.272   0.880 -0.7830  0.0192  0.4583
  979MOL0     H32141   5.884   9.103   1.053  1.1910  0.2037 -2.5350
  979MOL0     H32142   5.820   9.269   1.094  1.2459  1.9791 -3.0859
  979MOL0     H32143   5.667   9.016   1.042 -0.2576  0.0140 -0.5126
  979MOL0     H32144   5.586   9.173   1.011 -3.4891 -5.0546 -1.1469
  979MOL0     H32145   5.526   9.110   1.233  1.5079 -1.7311  1.5828
  979MOL0     H32146   5.620   9.259   1.229 -0.0754  0.7457 -0.9672
  979MOL0     H32147   6.126   9.436   0.257 -0.5427 -2.6123 -2.8067
  979MOL0     H32148   6.372   9.489   0.246  2.8479 -0.4084  1.3216
  979MOL0     H32149   6.863   9.428   0.085  0.2820  1.3803  0.5054
  979MOL0     H32150   7.095   9.484   0.157 -1.0809  2.1811 -1.9396
  979MOL0     H32151   8.655   9.299   1.052 -0.0497  1.7714  1.7893
  979MOL0     H32152   8.896   9.256   0.966 -1.6130 -0.7948  1.6961
  979MOL0     H32153   9.173   9.192   0.659 -1.3546  0.4499  0.4701
  979MOL0     H32154   9.416   9.156   0.579 -0.7776  0.1765 -0.9242
  979MOL0     H32155   9.682   9.452   0.561 -1.6548 -2.0097 -1.1203
  979MOL0     H32156   9.728   9.442   0.727  0.9646 -1.8021 -0.1099
  979MOL0     H32157   9.906   9.375   0.536 -1.4545  1.5961 -0.6114
  979MOL0     H32158   9.821   9.220   0.563  0.0931 -0.3814  1.4262
  979MOL0     H32159   9.853   9.245   0.820  2.0223 -0.3625  0.8361
  979MOL0     H32160   9.945   9.380   0.800 -0.2460 -1.6824  0.7565
  979MOL0     H32161   9.995   9.116   0.659 -0.4807 -2.5411  3.5923
  979MOL0     H32162  10.052   9.143   0.829 -0.2144  1.3852  0.7850
  979MOL0     H32163  10.341   9.348   0.603  0.6515 -2.4837 -0.2405
  979MOL0     H32164   9.529   9.515   0.778  0.3108  0.6332 -2.5068
  979MOL0     H32165   9.309   9.555   0.857 -3.0293 -0.5934  1.4617
  980MOL0     O32166   7.078   5.438   1.589  0.6651 -0.2375  0.2821
  980MOL0     C32167   7.141   5.529   1.636  0.1916 -0.0947  0.0003
  980MOL0     O32168   7.103   5.616   1.737 -0.0077 -0.6820  0.4943
  980MOL0     C32169   6.993   5.593   1.818 -0.2851  1.2906 -0.6344
  980MOL0     C32170   6.934   5.464   1.833  0.1669 -0.3572  0.7952
  980MOL0     C32171   6.820   5.446   1.912 -0.2661  0.5835 -0.9104
  980MOL0     C32172   6.751   5.552   1.974 -0.1766 -0.1669 -0.2284
  980MOL0     O32173   6.656   5.534   2.059 -0.4891 -0.5036  0.9260
  980MOL0     C32174   6.536   5.465   2.005 -0.5614 -0.6199 -0.1954
  980MOL0     C32175   6.419   5.504   2.089 -0.0592 -0.6893 -0.3074
  980MOL0     C32176   6.390   5.418   2.204  1.1641  0.0871  0.5337
  980MOL0     C32177   6.307   5.485   2.315  0.1619 -0.0803  0.8412
  980MOL0     C32178   6.283   5.371   2.419  0.6095  0.2142  0.2063
  980MOL0     C32179   6.177   5.417   2.517 -0.3575  0.0431 -0.2937
  980MOL0     C32180   6.041   5.428   2.445  0.4846  0.1326  0.0157
  980MOL0     C32181   5.926   5.469   2.544 -0.3906 -0.8450 -0.4739
  980MOL0     N32182   5.967   5.599   2.607  0.4160  0.1402 -0.1627
  980MOL0     C32183   6.017   5.618   2.736 -0.1264  0.0516 -0.3019
  980MOL0     C32184   6.038   5.751   2.751  1.1807 -0.5171  0.3229
  980MOL0     C32185   6.084   5.810   2.884  0.3506  0.3804  0.0175
  980MOL0     C32186   5.977   5.800   2.996 -0.0285 -0.5915 -0.1866
  980MOL0     C32187   5.835   5.848   2.955  0.7716 -1.2540 -0.3598
  980MOL0     C32188   5.837   6.001   2.924  0.7742 -0.6482  0.7319
  980MOL0     O32189   5.708   6.058   2.917 -0.7792  0.5441 -0.1211
  980MOL0     C32190   5.619   6.014   2.819 -0.0311  0.2197 -0.0909
  980MOL0     C32191   5.486   6.055   2.825  0.0648 -0.1381 -0.4513
  980MOL0     C32192   5.391   6.021   2.727 -0.8733 -0.2193  0.6867
  980MOL0     C32193   5.252   6.080   2.737 -0.8886 -0.7700  0.0287
  980MOL0     C32194   5.435   5.926   2.625  0.0002 -0.5205  0.1670
  980MOL0     C32195   5.342   5.873   2.522 -0.8536 -0.0055 -0.8520
  980MOL0     O32196   5.212   5.863   2.551 -0.0919  1.1786  0.5754
  980MOL0     C32197   5.128   5.863   2.435  0.2410 -0.3110  0.1593
  980MOL0     C32198   4.997   5.818   2.474 -0.6402 -0.7239 -0.1003
  980MOL0     C32199   4.887   5.820   2.382  0.2710 -0.1506  0.7353
  980MOL0     C32200   4.914   5.871   2.253 -0.3247 -0.2208  0.0928
  980MOL0     O32201   4.812   5.889   2.165 -0.4381  0.1025  0.3142
  980MOL0     C32202   4.712   5.786   2.149 -0.0072 -0.7425 -0.1909
  980MOL0     C32203   4.579   5.855   2.092 -0.6447  0.0962 -1.1859
  980MOL0     C32204   4.495   5.731   2.061  0.4210 -0.4144 -0.5629
  980MOL0     C32205   4.362   5.758   1.993 -0.5893 -0.9108 -0.1731
  980MOL0     C32206   4.305   5.630   1.921 -0.2653  0.2673 -0.3037
  980MOL0     C32207   4.157   5.630   1.885 -0.6712  0.4813  0.7335
  980MOL0     C32208   4.061   5.675   1.988  0.5119  0.0549 -0.4553
  980MOL0     C32209   3.917   5.706   1.924  0.2562  0.4810  0.1818
  980MOL0    Cl32210   3.924   5.795   1.767 -0.4682  0.6456 -0.0800
  980MOL0     C32211   5.040   5.923   2.221 -0.5784  0.0602  0.2089
  980MOL0     C32212   5.146   5.910   2.305  0.0367 -0.3422  0.0797
  980MOL0     O32213   5.393   5.821   2.422  0.4803  0.1085 -1.0015
  980MOL0     C32214   5.567   5.891   2.618 -0.2928  0.2896 -0.1629
  980MOL0     C32215   5.658   5.927   2.717 -0.1486 -0.3136 -1.0974
  980MOL0     N32216   6.009   5.818   2.631  0.2580 -1.0612  0.4283
  980MOL0     N32217   5.966   5.719   2.551  0.1555 -0.3371 -0.6733
  980MOL0     C32218   6.812   5.679   1.956  0.2769 -0.2022  0.1565
  980MOL0     C32219   6.936   5.695   1.887  0.1228 -0.1905 -0.0517
  980MOL0     C32220   7.283   5.540   1.603 -0.3598  0.7119 -0.0700
  980MOL0     C32221   7.350   5.657   1.626 -0.0368  0.1343  0.5505
  980MOL0     C32222   7.482   5.668   1.582 -0.1894 -0.5881 -0.0282
  980MOL0     C32223   7.549   5.566   1.516  0.4863 -0.7825  0.6290
  980MOL0     O32224   7.681   5.596   1.477  0.2946  0.2264 -0.0553
  980MOL0     C32225   7.747   5.490   1.406  0.9663 -0.1700 -0.6217
  980MOL0     C32226   7.894   5.532   1.370 -0.5693  0.1241  0.4408
  980MOL0     C32227   7.913   5.673   1.306 -0.1232  0.6415 -0.7800
  980MOL0     C32228   8.059   5.737   1.299  0.2366  0.7459 -0.1483
  980MOL0     C32229   8.126   5.728   1.437  0.3095 -0.2269  0.0380
  980MOL0     C32230   8.156   5.731   1.557 -0.3205  0.3940  0.0475
  980MOL0     C32231   7.476   5.449   1.493 -0.3675  0.1770 -0.2489
  980MOL0     C32232   7.341   5.434   1.533  0.5904  0.3130 -0.0699
  980MOL0     H32233   6.987   5.376   1.797  1.0154  0.6031 -0.4014
  980MOL0     H32234   6.786   5.344   1.920 -0.5300  0.8110  2.5814
  980MOL0     H32235   6.532   5.484   1.898  1.8030 -0.2426 -0.2757
  980MOL0     H32236   6.546   5.357   2.019 -2.7627 -0.7204  1.0012
  980MOL0     H32237   6.439   5.605   2.126 -0.5187  0.1284 -2.1806
  980MOL0     H32238   6.333   5.512   2.022  0.1294 -0.7397 -0.5547
  980MOL0     H32239   6.343   5.326   2.168  0.4282  1.2359 -1.6190
  980MOL0     H32240   6.481   5.394   2.259  1.8678 -0.3508 -0.7840
  980MOL0     H32241   6.356   5.573   2.356 -4.5092  1.9284  2.8072
  980MOL0     H32242   6.220   5.531   2.268  1.7845  2.3304  0.0432
  980MOL0     H32243   6.251   5.283   2.364  0.5254  0.2774  0.1544
  980MOL0     H32244   6.376   5.344   2.472  1.1221 -2.4120 -1.8306
  980MOL0     H32245   6.166   5.341   2.594 -0.0233 -0.5159 -0.7876
  980MOL0     H32246   6.201   5.514   2.561 -0.9485  0.1942 -0.2963
  980MOL0     H32247   6.043   5.507   2.369  1.2966  0.5562  0.4624
  980MOL0     H32248   6.015   5.338   2.389 -0.9180  1.3951 -1.4730
  980MOL0     H32249   5.913   5.394   2.623  0.6651  0.3501  0.8928
  980MOL0     H32250   5.831   5.480   2.492 -1.9503  1.3682  2.5773
  980MOL0     H32251   6.042   5.549   2.815 -0.0168 -0.0747 -0.4465
  980MOL0     H32252   6.178   5.771   2.924 -0.5935  1.5691  3.8932
  980MOL0     H32253   6.103   5.918   2.884  0.3136  0.3928  0.7271
  980MOL0     H32254   6.011   5.864   3.078  1.1592  1.3518 -2.0943
  980MOL0     H32255   5.962   5.696   3.028 -0.8643 -2.0462 -4.6098
  980MOL0     H32256   5.772   5.832   3.043 -3.0699  2.1777 -2.1720
  980MOL0     H32257   5.795   5.782   2.878  1.0709 -1.3408 -0.4440
  980MOL0     H32258   5.902   6.012   2.837  0.0742 -2.5977 -0.1101
  980MOL0     H32259   5.883   6.044   3.014  0.2235  1.2162  0.1526
  980MOL0     H32260   5.460   6.126   2.903 -2.1256 -0.4034 -0.8882
  980MOL0     H32261   5.218   6.099   2.634  1.9822 -0.6324 -0.9865
  980MOL0     H32262   5.187   6.010   2.789 -1.8638  1.3294  1.8029
  980MOL0     H32263   5.252   6.172   2.796  0.1457 -1.4906  1.1927
  980MOL0     H32264   4.988   5.789   2.578  5.8348 -1.5763  0.6407
  980MOL0     H32265   4.788   5.790   2.416  0.5915 -3.2699 -0.7320
  980MOL0     H32266   4.758   5.723   2.073 -1.4205 -1.4420 -0.4943
  980MOL0     H32267   4.692   5.746   2.250 -2.1674  2.6137  0.8798
  980MOL0     H32268   4.534   5.928   2.160 -0.6745 -1.1844  0.2351
  980MOL0     H32269   4.609   5.910   2.003  0.8142  0.3693 -0.5576
  980MOL0     H32270   4.464   5.677   2.151  2.1937 -0.8788 -0.1926
  980MOL0     H32271   4.545   5.668   1.986 -0.6938 -0.4140 -1.3425
  980MOL0     H32272   4.288   5.799   2.062 -1.0767 -0.8865 -0.7105
  980MOL0     H32273   4.380   5.833   1.915  1.1394 -1.1062 -0.0101
  980MOL0     H32274   4.307   5.552   1.998  0.1493  1.8650  1.3883
  980MOL0     H32275   4.351   5.591   1.830 -1.7499 -1.5424 -0.3335
  980MOL0     H32276   4.151   5.689   1.793  0.8434 -0.0761  0.2568
  980MOL0     H32277   4.122   5.529   1.862  1.0927 -0.0631  0.3319
  980MOL0     H32278   4.092   5.775   2.018 -1.0366  0.3948  0.0937
  980MOL0     H32279   4.058   5.607   2.073 -1.2300 -1.0408 -1.3188
  980MOL0     H32280   3.866   5.770   1.996 -0.2134 -1.1666  1.3787
  980MOL0     H32281   3.860   5.614   1.904 -0.8411  1.7534 -3.3159
  980MOL0     H32282   5.061   5.960   2.121 -0.1704  2.2157  1.0334
  980MOL0     H32283   5.239   5.946   2.264 -0.8929  0.4014 -1.4568
  980MOL0     H32284   5.599   5.831   2.533  0.7750  0.3749  0.1705
  980MOL0     H32285   5.758   5.890   2.696 -0.0969 -0.9811  0.2344
  980MOL0     H32286   6.767   5.763   2.009 -0.1848 -0.8510  0.8146
  980MOL0     H32287   6.975   5.796   1.884 -3.6597  1.4033 -0.6194
  980MOL0     H32288   7.295   5.729   1.687 -0.0925  1.4742 -1.0142
  980MOL0     H32289   7.538   5.759   1.601 -2.4076  0.9610 -0.6132
  980MOL0     H32290   7.746   5.397   1.464  0.6579 -1.1941 -2.2175
  980MOL0     H32291   7.689   5.466   1.316  0.1982 -1.1874  0.1188
  980MOL0     H32292   7.951   5.457   1.315 -0.4205 -1.2452  2.3361
  980MOL0     H32293   7.948   5.542   1.465  0.7840  2.1067 -0.4770
  980MOL0     H32294   7.843   5.748   1.346 -2.3615 -1.3918 -0.6709
  980MOL0     H32295   7.887   5.660   1.201 -1.7523  0.1232 -0.3427
  980MOL0     H32296   8.052   5.838   1.256  2.9377 -0.0885 -2.8921
  980MOL0     H32297   8.116   5.666   1.239 -2.4421 -2.3197  0.6604
  980MOL0     H32298   8.197   5.729   1.656  0.5623  1.5202 -0.2766
  980MOL0     H32299   7.514   5.368   1.431 -1.7729  0.8200 -2.0310
  980MOL0     H32300   7.278   5.347   1.521 -1.2227  1.5706 -0.1108
  981MOL0     O32301   8.050   8.743   5.734 -0.3337  0.9292  0.3747
  981MOL0     C32302   8.124   8.703   5.638 -0.4974  0.3533  0.1262
  981MOL0     O32303   8.074   8.660   5.521 -0.0117 -0.0112  0.6837
  981MOL0     C32304   7.938   8.663   5.500  0.1105 -0.3891  0.3880
  981MOL0     C32305   7.871   8.553   5.441 -0.2449 -0.6664  0.2824
  981MOL0     C32306   7.742   8.574   5.392  0.5920 -0.4148 -1.2783
  981MOL0     C32307   7.668   8.687   5.406 -0.1133  0.5095 -1.5997
  981MOL0     O32308   7.541   8.698   5.353  0.6286  0.8111 -0.3218
  981MOL0     C32309   7.448   8.757   5.444  0.4623 -0.8478 -0.1433
  981MOL0     C32310   7.296   8.737   5.412 -0.3684 -0.8618  0.1896
  981MOL0     C32311   7.259   8.779   5.266  0.3184 -0.1504 -0.5384
  981MOL0     C32312   7.119   8.735   5.253  0.5242 -1.1808 -0.4794
  981MOL0     C32313   7.063   8.787   5.119  0.2129  1.2312  0.2224
  981MOL0     C32314   6.927   8.712   5.082 -0.5823  0.2979  0.0689
  981MOL0     C32315   6.810   8.718   5.185  0.5436 -0.2747  0.4824
  981MOL0     C32316   6.744   8.859   5.174  0.4351 -0.0759 -0.4845
  981MOL0     N32317   6.602   8.864   5.228  0.7350 -0.4112  0.6467
  981MOL0     C32318   6.489   8.868   5.151 -0.4041 -0.3502 -0.0375
  981MOL0     C32319   6.394   8.910   5.234  0.5074 -1.1363  0.0191
  981MOL0     C32320   6.251   8.949   5.197 -0.5850 -0.4563 -0.3583
  981MOL0     C32321   6.160   8.985   5.316  0.3599  0.1097  0.6808
  981MOL0     C32322   6.032   9.055   5.259 -0.0267 -0.2033  0.0977
  981MOL0     C32323   5.927   8.952   5.213 -0.8006  0.4082  0.6774
  981MOL0     O32324   5.891   8.849   5.314 -0.2621 -0.8741  0.3133
  981MOL0     C32325   5.794   8.874   5.409  0.0841 -0.1974  0.7392
  981MOL0     C32326   5.801   8.786   5.519  0.3603  0.2501  0.3247
  981MOL0     C32327   5.714   8.786   5.630 -0.1106 -0.2167  0.7735
  981MOL0     C32328   5.752   8.689   5.742 -0.3394 -0.2170 -0.7645
  981MOL0     C32329   5.617   8.890   5.640 -0.5710  1.3486  0.2266
  981MOL0     C32330   5.524   8.907   5.757  0.6378  0.4905  0.0706
  981MOL0     O32331   5.442   9.024   5.743  0.1014  0.1762 -0.1289
  981MOL0     C32332   5.366   9.072   5.842 -0.3712 -0.3991 -0.6280
  981MOL0     C32333   5.234   9.053   5.852 -0.1372 -0.3482  1.1972
  981MOL0     C32334   5.160   9.082   5.958 -0.5336  0.4221  0.1666
  981MOL0     C32335   5.217   9.120   6.082 -0.3979  0.6135  0.4518
  981MOL0     O32336   5.162   9.121   6.208 -0.2232  0.3175  0.4531
  981MOL0     C32337   5.018   9.083   6.202  0.6182 -0.0729 -0.6354
  981MOL0     C32338   4.971   9.087   6.356  0.1980 -0.2824  0.2282
  981MOL0     C32339   5.019   9.214   6.442 -0.3673  0.6323 -0.6804
  981MOL0     C32340   4.991   9.352   6.370 -0.7166 -0.9535  0.2598
  981MOL0     C32341   5.036   9.453   6.468  0.1237 -0.0165 -0.5784
  981MOL0     C32342   5.019   9.598   6.417  0.1802  0.0009 -0.6446
  981MOL0     C32343   5.065   9.707   6.513 -0.7739  0.2303  0.6601
  981MOL0     C32344   5.220   9.732   6.523  0.2364 -0.3636 -0.2990
  981MOL0    Cl32345   5.236   9.893   6.591  0.1126 -0.5514 -0.7375
  981MOL0     C32346   5.358   9.140   6.074 -1.3063 -0.3670 -0.8852
  981MOL0     C32347   5.427   9.125   5.954 -0.0418  0.3856  0.2546
  981MOL0     O32348   5.528   8.840   5.857  0.0016 -0.3420 -0.0829
  981MOL0     C32349   5.601   8.969   5.522  0.6495 -0.3287  0.6089
  981MOL0     C32350   5.692   8.965   5.411 -0.8540 -0.3828 -0.7166
  981MOL0     N32351   6.443   8.915   5.357  0.7386  0.2622 -0.1838
  981MOL0     N32352   6.570   8.897   5.359  0.9094  0.1311 -0.1227
  981MOL0     C32353   7.734   8.789   5.473  0.5801 -0.7980 -0.5484
  981MOL0     C32354   7.865   8.781   5.514  0.6243  0.2328  0.3653
  981MOL0     C32355   8.264   8.693   5.652  1.0008 -0.1139 -0.4783
  981MOL0     C32356   8.330   8.578   5.618 -0.1515  0.3228  0.5732
  981MOL0     C32357   8.458   8.549   5.656 -0.6712  0.0683  0.5228
  981MOL0     C32358   8.533   8.645   5.718  0.9592 -0.2411  0.7561
  981MOL0     O32359   8.662   8.632   5.771  0.8083  0.5590  0.4070
  981MOL0     C32360   8.744   8.513   5.757  0.6467  0.1111  0.5535
  981MOL0     C32361   8.887   8.547   5.807 -0.5778 -0.2236  0.0067
  981MOL0     C32362   8.972   8.414   5.809 -0.3550 -0.0245  0.6695
  981MOL0     C32363   9.109   8.422   5.878 -1.0794  0.5513 -0.5406
  981MOL0     C32364   9.193   8.542   5.848 -0.4967  1.0233 -0.2486
  981MOL0     C32365   9.268   8.630   5.825  0.3984  0.2463 -0.4348
  981MOL0     C32366   8.465   8.759   5.763  0.4041  0.0404  0.2373
  981MOL0     C32367   8.335   8.792   5.727 -0.6223 -0.0823 -0.3488
  981MOL0     H32368   7.934   8.466   5.422 -0.7265 -1.4112  1.8947
  981MOL0     H32369   7.686   8.498   5.337 -2.2205  0.9216 -0.4752
  981MOL0     H32370   7.454   8.708   5.542  1.9989  1.8755  1.2424
  981MOL0     H32371   7.461   8.864   5.461  1.2690 -1.4131  3.6836
  981MOL0     H32372   7.283   8.629   5.424 -3.0961 -1.1558 -3.5476
  981MOL0     H32373   7.225   8.784   5.480 -0.5917 -1.2023  0.1985
  981MOL0     H32374   7.272   8.884   5.237 -0.1642  0.4571  1.3468
  981MOL0     H32375   7.328   8.726   5.199  0.8847  1.6217 -1.4295
  981MOL0     H32376   7.117   8.626   5.265  0.6199 -0.9876  1.6846
  981MOL0     H32377   7.062   8.778   5.336 -0.5529 -3.5528  0.1110
  981MOL0     H32378   7.044   8.894   5.131 -0.1222  1.1225  0.7031
  981MOL0     H32379   7.135   8.760   5.041 -1.0874 -3.7485  0.3980
  981MOL0     H32380   6.903   8.745   4.980  1.6255 -2.1190 -1.3658
  981MOL0     H32381   6.962   8.611   5.059  1.6432  0.9049  0.4628
  981MOL0     H32382   6.740   8.646   5.141 -0.4835  2.1785 -2.2562
  981MOL0     H32383   6.824   8.688   5.289 -1.5212  1.5775  1.3828
  981MOL0     H32384   6.731   8.898   5.073  0.8069  1.6365  0.0858
  981MOL0     H32385   6.810   8.921   5.236  1.1719 -2.1453  0.9130
  981MOL0     H32386   6.480   8.883   5.043 -1.2467  2.1324  0.3121
  981MOL0     H32387   6.270   9.031   5.126  0.2865 -1.3116 -1.1372
  981MOL0     H32388   6.199   8.868   5.146 -2.4888 -1.1342  2.4493
  981MOL0     H32389   6.209   9.060   5.377  3.4109 -0.8261 -0.4482
  981MOL0     H32390   6.133   8.897   5.375 -0.7413  1.2576  1.9457
  981MOL0     H32391   6.057   9.131   5.185  2.5897 -0.7187  0.3476
  981MOL0     H32392   5.995   9.106   5.348  0.2116  1.9633 -0.9914
  981MOL0     H32393   5.975   8.899   5.130  0.2855  2.9609 -0.4330
  981MOL0     H32394   5.832   8.997   5.185 -0.0498  0.3846 -2.2553
  981MOL0     H32395   5.881   8.712   5.519 -1.0237 -1.3064 -0.2177
  981MOL0     H32396   5.826   8.620   5.701 -1.2198 -2.3561  1.0563
  981MOL0     H32397   5.796   8.747   5.824  1.3602 -1.0007 -1.0688
  981MOL0     H32398   5.667   8.631   5.778  0.4199  0.8540  3.3520
  981MOL0     H32399   5.192   9.006   5.764 -1.1134  2.4199  0.0522
  981MOL0     H32400   5.059   9.044   5.945  1.1235 -5.5927  1.6946
  981MOL0     H32401   4.968   9.167   6.153  0.6927 -0.0485 -0.6705
  981MOL0     H32402   4.992   8.983   6.166  3.0661 -1.9418  2.2548
  981MOL0     H32403   4.863   9.088   6.374  0.2187  2.0616  0.5951
  981MOL0     H32404   5.011   8.999   6.406  0.6065  0.2721  0.9052
  981MOL0     H32405   5.126   9.207   6.461 -0.6521 -0.5625  0.6427
  981MOL0     H32406   4.972   9.200   6.540  0.2257 -2.4702 -0.7199
  981MOL0     H32407   5.041   9.363   6.273  0.8839 -0.8584  1.0637
  981MOL0     H32408   4.884   9.367   6.354 -0.4990  0.7195  0.1384
  981MOL0     H32409   5.144   9.438   6.476  0.6614  1.5489 -3.2862
  981MOL0     H32410   4.979   9.442   6.561  0.2713  1.0107 -0.3513
  981MOL0     H32411   5.072   9.600   6.321  0.6411  0.8825 -0.3822
  981MOL0     H32412   4.913   9.620   6.402 -0.3067 -2.0592 -0.5048
  981MOL0     H32413   5.046   9.677   6.616 -1.1071  3.4903  1.6634
  981MOL0     H32414   5.005   9.793   6.483 -0.1865  1.0767  1.8294
  981MOL0     H32415   5.269   9.742   6.425 -0.4465 -1.2747 -0.7488
  981MOL0     H32416   5.268   9.654   6.581 -0.4049  0.8540  2.0010
  981MOL0     H32417   5.419   9.157   6.162  0.1431 -1.4178 -1.6316
  981MOL0     H32418   5.533   9.142   5.966  0.0662 -0.4650  0.5345
  981MOL0     H32419   5.521   9.043   5.523 -0.7379 -1.7598  1.4935
  981MOL0     H32420   5.663   9.033   5.331 -1.1455  1.1102  0.6095
  981MOL0     H32421   7.681   8.882   5.492  0.8431 -1.0239  1.4782
  981MOL0     H32422   7.898   8.876   5.555 -0.4812 -0.0061  1.8901
  981MOL0     H32423   8.296   8.493   5.560 -0.5518  1.0103 -0.2193
  981MOL0     H32424   8.512   8.461   5.623 -2.1380 -0.9605  0.7773
  981MOL0     H32425   8.692   8.425   5.797 -2.1205  1.3451 -0.1104
  981MOL0     H32426   8.743   8.502   5.648  1.2572  1.0303  0.4439
  981MOL0     H32427   8.877   8.582   5.911  0.3441 -2.7064  1.0199
  981MOL0     H32428   8.922   8.621   5.735  1.6847  0.9540  2.1389
  981MOL0     H32429   8.978   8.383   5.705  1.4332 -0.2667  0.8237
  981MOL0     H32430   8.909   8.333   5.847  0.2981 -1.1138 -0.5025
  981MOL0     H32431   9.168   8.330   5.866 -3.2261 -0.8820 -0.7962
  981MOL0     H32432   9.084   8.419   5.984  5.0238 -0.1491  1.2387
  981MOL0     H32433   9.338   8.706   5.798  1.7591 -2.0455 -4.2218
  981MOL0     H32434   8.506   8.830   5.835 -0.3837  2.0189 -1.1821
  981MOL0     H32435   8.296   8.892   5.748  0.7724  0.6845 -1.2317
  982MOL0     O32436   7.518   4.655   7.842  0.3630  0.7050  0.0593
  982MOL0     C32437   7.438   4.610   7.759 -0.2736  0.6182  0.4085
  982MOL0     O32438   7.298   4.628   7.750  0.4224 -0.6382  1.1834
  982MOL0     C32439   7.218   4.691   7.848 -0.2198 -0.0329 -0.2008
  982MOL0     C32440   7.261   4.814   7.910 -0.4458  1.1646 -0.4634
  982MOL0     C32441   7.189   4.868   8.014  0.1408  0.8978  0.4861
  982MOL0     C32442   7.073   4.799   8.040  0.3020  0.1963 -0.3425
  982MOL0     O32443   6.998   4.819   8.149 -0.4433  0.3790  0.0328
  982MOL0     C32444   6.995   4.950   8.201 -0.4336 -0.0996 -0.0967
  982MOL0     C32445   6.872   4.963   8.290  0.7519  0.0683  0.1297
  982MOL0     C32446   6.736   4.991   8.210 -0.5948 -0.3850 -0.1823
  982MOL0     C32447   6.666   4.859   8.176 -0.0704 -0.8677 -1.5970
  982MOL0     C32448   6.539   4.864   8.101  0.3554  0.3535  1.3284
  982MOL0     C32449   6.471   4.731   8.101  0.4253 -0.0341 -0.4375
  982MOL0     C32450   6.348   4.729   7.993 -0.9219 -0.3047  0.4449
  982MOL0     C32451   6.288   4.590   7.964  0.8379 -0.3779 -0.0807
  982MOL0     N32452   6.391   4.493   7.911  0.1464  0.7688 -0.1842
  982MOL0     C32453   6.450   4.393   7.979 -0.1702  0.4312 -0.3813
  982MOL0     C32454   6.505   4.312   7.891  0.7691 -0.7317 -0.7589
  982MOL0     C32455   6.596   4.194   7.934 -0.2026 -0.1467 -1.2582
  982MOL0     C32456   6.743   4.233   7.935  0.4226 -0.4227  0.2922
  982MOL0     C32457   6.812   4.296   7.810  0.2711  0.3517 -0.0324
  982MOL0     C32458   6.954   4.262   7.801 -0.4108  0.4524  0.2211
  982MOL0     O32459   7.019   4.310   7.922 -0.3807  0.1269 -0.4640
  982MOL0     C32460   7.158   4.301   7.934 -0.4810  0.1667  0.0319
  982MOL0     C32461   7.243   4.244   7.837  0.1037  0.1259 -0.3003
  982MOL0     C32462   7.379   4.255   7.858 -0.5146 -0.3839 -0.4207
  982MOL0     C32463   7.470   4.188   7.757  0.1691  0.1167  0.3528
  982MOL0     C32464   7.437   4.331   7.962  0.5444 -0.0649 -0.1569
  982MOL0     C32465   7.586   4.356   7.991 -0.2122  0.5099 -0.3340
  982MOL0     O32466   7.627   4.453   8.073  0.4437  0.5896  0.1813
  982MOL0     C32467   7.764   4.478   8.065 -0.4105  0.3065 -0.5408
  982MOL0     C32468   7.856   4.391   8.139  0.1676  0.8032 -0.3088
  982MOL0     C32469   7.996   4.419   8.148  0.3812  0.3054 -0.4120
  982MOL0     C32470   8.050   4.526   8.076  0.5964 -0.6149 -0.1104
  982MOL0     O32471   8.181   4.555   8.053 -0.0847 -0.4468 -0.4968
  982MOL0     C32472   8.278   4.471   8.124  0.5950  0.2673 -0.6718
  982MOL0     C32473   8.426   4.505   8.112 -0.7009  0.1024  0.2857
  982MOL0     C32474   8.487   4.482   7.975  0.0181  0.2343 -1.4279
  982MOL0     C32475   8.642   4.505   7.985  0.7474  0.2888 -0.7302
  982MOL0     C32476   8.700   4.643   7.989  0.5401 -0.6132 -1.0016
  982MOL0     C32477   8.695   4.725   8.124  0.0094 -0.9937  0.3223
  982MOL0     C32478   8.793   4.846   8.145 -0.2019  0.8515  0.4738
  982MOL0     C32479   8.737   4.970   8.075  0.2930  0.4452 -0.1925
  982MOL0    Cl32480   8.870   5.081   8.041 -0.3233  0.3530 -0.1585
  982MOL0     C32481   7.964   4.602   8.003 -0.1634  0.8401  0.7329
  982MOL0     C32482   7.827   4.577   7.988  0.3177  0.6724 -0.3509
  982MOL0     O32483   7.663   4.276   7.932  0.2006 -0.2512 -0.0474
  982MOL0     C32484   7.346   4.389   8.052  0.5170  0.2693 -0.5407
  982MOL0     C32485   7.207   4.373   8.040  0.0803  0.1216  0.9882
  982MOL0     N32486   6.484   4.370   7.769  0.0027 -0.8118 -0.1687
  982MOL0     N32487   6.408   4.470   7.774 -0.2574  0.1350  0.3335
  982MOL0     C32488   7.017   4.691   7.966  1.3252 -0.6235  0.4518
  982MOL0     C32489   7.095   4.640   7.867  0.6482 -0.3540 -0.1526
  982MOL0     C32490   7.499   4.535   7.643 -0.0223 -0.6429  0.0046
  982MOL0     C32491   7.424   4.465   7.544  0.1531  0.0862  0.8093
  982MOL0     C32492   7.476   4.395   7.435  0.6700  0.0671 -1.2537
  982MOL0     C32493   7.613   4.370   7.421  0.3291  0.5821  0.8195
  982MOL0     O32494   7.673   4.308   7.312 -0.1082  0.1156  0.0025
  982MOL0     C32495   7.776   4.210   7.316 -0.2003 -0.0939  0.1799
  982MOL0     C32496   7.854   4.174   7.185 -0.3305 -0.1278 -0.3706
  982MOL0     C32497   7.809   4.042   7.122 -0.2682 -0.0598 -0.1489
  982MOL0     C32498   7.693   4.078   7.036  0.3446  0.8517  0.7862
  982MOL0     C32499   7.750   4.144   6.916 -1.6243 -0.1397  0.6899
  982MOL0     C32500   7.786   4.228   6.839  0.5195  0.5099 -0.0299
  982MOL0     C32501   7.698   4.433   7.521 -0.5247 -0.6504 -0.5287
  982MOL0     C32502   7.644   4.512   7.632  0.3953  0.1877 -0.2308
  982MOL0     H32503   7.359   4.859   7.900  1.2098 -1.6367  1.4166
  982MOL0     H32504   7.231   4.955   8.062  2.1921  0.9538 -1.3095
  982MOL0     H32505   7.074   4.965   8.275  1.4946 -0.7109 -1.9287
  982MOL0     H32506   7.001   5.032   8.129  3.1479 -1.0755 -1.1186
  982MOL0     H32507   6.858   4.869   8.344  0.2595 -0.4534 -0.8698
  982MOL0     H32508   6.895   5.041   8.363  2.2697 -1.0672  0.9162
  982MOL0     H32509   6.682   5.043   8.290 -0.2259 -0.0975 -0.1137
  982MOL0     H32510   6.742   5.053   8.120  1.0455 -0.2731 -0.0353
  982MOL0     H32511   6.739   4.810   8.111  0.9353 -1.9917  0.2645
  982MOL0     H32512   6.659   4.804   8.271  0.1749  3.5807  1.3141
  982MOL0     H32513   6.462   4.932   8.139  0.2562 -0.7402  3.2069
  982MOL0     H32514   6.565   4.887   7.997 -3.1152 -0.0891  0.2238
  982MOL0     H32515   6.534   4.646   8.075 -0.5442 -0.6104 -0.9341
  982MOL0     H32516   6.434   4.714   8.203  0.5906 -4.0653 -0.9052
  982MOL0     H32517   6.273   4.793   8.040 -0.6894 -0.5197  1.1347
  982MOL0     H32518   6.376   4.757   7.891 -2.2326 -2.3419 -0.5338
  982MOL0     H32519   6.199   4.594   7.900  1.0616  1.4752 -0.3319
  982MOL0     H32520   6.254   4.556   8.062  0.5484 -3.0459 -1.0012
  982MOL0     H32521   6.456   4.390   8.087  0.4634  0.2863 -0.4146
  982MOL0     H32522   6.576   4.163   8.037  1.4454  0.1028 -0.8302
  982MOL0     H32523   6.576   4.104   7.875  2.0481 -3.5975  2.6966
  982MOL0     H32524   6.801   4.146   7.966 -0.2429 -1.0486 -0.1958
  982MOL0     H32525   6.751   4.302   8.020 -0.8384 -0.8851  0.8021
  982MOL0     H32526   6.794   4.403   7.822 -0.0763  0.0342  3.2901
  982MOL0     H32527   6.767   4.256   7.719  2.4855 -2.3507 -0.0745
  982MOL0     H32528   6.994   4.311   7.711 -2.4194  3.1765  0.6777
  982MOL0     H32529   6.955   4.154   7.783 -1.8783  0.1911  1.4814
  982MOL0     H32530   7.201   4.196   7.750 -2.2379  1.4289  0.0289
  982MOL0     H32531   7.414   4.162   7.667 -0.8544  0.6271  0.8172
  982MOL0     H32532   7.538   4.262   7.714 -0.2885 -0.6559 -1.8393
  982MOL0     H32533   7.508   4.096   7.802 -2.3658 -1.2195 -0.0496
  982MOL0     H32534   7.811   4.309   8.194  1.6736  1.2141  1.6388
  982MOL0     H32535   8.048   4.362   8.225 -1.2653  1.3943  1.5864
  982MOL0     H32536   8.266   4.481   8.232  0.8071 -1.5824 -0.4330
  982MOL0     H32537   8.259   4.364   8.110  0.3525 -0.0979  1.8803
  982MOL0     H32538   8.439   4.611   8.138 -1.5580  0.3006 -0.0581
  982MOL0     H32539   8.489   4.440   8.174 -0.8222 -0.6829 -0.3970
  982MOL0     H32540   8.436   4.550   7.906  0.7240  0.9791 -1.2270
  982MOL0     H32541   8.454   4.381   7.948 -0.5666 -1.1476  3.5299
  982MOL0     H32542   8.682   4.442   8.065  1.3134 -0.1903 -1.3725
  982MOL0     H32543   8.676   4.472   7.886  0.3450  1.7322 -1.3773
  982MOL0     H32544   8.662   4.708   7.909  3.0459 -2.3528 -3.8333
  982MOL0     H32545   8.805   4.630   7.964  0.9245  1.7692 -0.8884
  982MOL0     H32546   8.598   4.767   8.151  0.4548 -0.1177  0.5852
  982MOL0     H32547   8.726   4.654   8.201  2.3229 -2.3063 -1.6691
  982MOL0     H32548   8.892   4.819   8.107  0.3915  2.3866  0.8482
  982MOL0     H32549   8.829   4.862   8.247 -0.6088 -0.7310  0.8851
  982MOL0     H32550   8.661   5.007   8.144  0.1391 -0.0251 -0.1040
  982MOL0     H32551   8.687   4.935   7.984  1.9197 -4.0999  0.4105
  982MOL0     H32552   8.013   4.681   7.948  1.1232  0.4494  1.2885
  982MOL0     H32553   7.758   4.629   7.922 -3.0969  0.2434  2.5839
  982MOL0     H32554   7.376   4.462   8.127 -1.9991  2.3192 -1.3769
  982MOL0     H32555   7.134   4.419   8.106 -1.5228  1.0160 -1.2895
  982MOL0     H32556   6.920   4.647   7.988  0.6124  0.0973 -1.1225
  982MOL0     H32557   7.070   4.554   7.806  2.7818 -1.9182  1.0071
  982MOL0     H32558   7.318   4.487   7.540  0.5689  2.0578 -1.2651
  982MOL0     H32559   7.410   4.353   7.360  0.8540  0.7762 -1.8305
  982MOL0     H32560   7.848   4.245   7.391  0.6669 -1.7983  0.2102
  982MOL0     H32561   7.735   4.118   7.359 -2.6355  0.9104  0.0982
  982MOL0     H32562   7.958   4.156   7.215 -0.2654  2.2305  1.0992
  982MOL0     H32563   7.875   4.259   7.119  3.9225  0.5494  1.4828
  982MOL0     H32564   7.786   3.980   7.209  1.3745  1.8607  1.7686
  982MOL0     H32565   7.889   3.998   7.061 -2.7301 -0.1531 -3.5612
  982MOL0     H32566   7.602   4.130   7.068 -0.9761 -0.0741 -1.2507
  982MOL0     H32567   7.651   3.978   7.018  3.3531 -0.4571  0.4238
  982MOL0     H32568   7.815   4.311   6.778  1.1074  0.3365  0.0034
  982MOL0     H32569   7.806   4.429   7.515 -0.4545  1.2087 -1.2260
  982MOL0     H32570   7.714   4.538   7.711  0.2444 -2.7739  1.0404
  983MOL0     O32571   2.277   8.252   5.073  0.2296  0.0147 -0.1752
  983MOL0     C32572   2.192   8.259   5.165 -0.9478  0.3199 -0.3398
  983MOL0     O32573   2.217   8.309   5.287 -0.5024  0.1343 -0.0789
  983MOL0     C32574   2.324   8.390   5.315 -0.0360 -0.5846  0.3556
  983MOL0     C32575   2.357   8.504   5.246  0.4916 -0.4031  0.3575
  983MOL0     C32576   2.465   8.590   5.284  0.3709  1.2526  0.2628
  983MOL0     C32577   2.533   8.566   5.404  0.8233 -0.1654  0.0717
  983MOL0     O32578   2.642   8.642   5.441  0.5755 -0.0762 -0.3800
  983MOL0     C32579   2.699   8.736   5.346  0.8867 -0.1621  0.1719
  983MOL0     C32580   2.792   8.661   5.245  0.7143 -0.6763 -0.5740
  983MOL0     C32581   2.902   8.584   5.299 -0.4243  0.8385  0.5760
  983MOL0     C32582   2.869   8.435   5.285  0.1074 -0.2139 -0.2143
  983MOL0     C32583   2.962   8.339   5.362  0.3750  0.4761 -0.0335
  983MOL0     C32584   2.943   8.356   5.507 -0.5376 -0.3149  0.0510
  983MOL0     C32585   2.990   8.243   5.593 -0.2938  0.6846 -0.5179
  983MOL0     C32586   2.868   8.148   5.623 -0.2240  1.0147 -0.8047
  983MOL0     N32587   2.915   8.015   5.674 -0.4658  0.2928  0.3428
  983MOL0     C32588   2.975   7.920   5.594  0.3733 -0.2144  0.2349
  983MOL0     C32589   2.996   7.815   5.680  0.1921 -0.3132 -0.7592
  983MOL0     C32590   3.057   7.684   5.637  0.0877 -0.8851 -0.0416
  983MOL0     C32591   3.184   7.677   5.554  0.0095  1.0149  0.2622
  983MOL0     C32592   3.307   7.760   5.612  0.2410 -0.1046  0.0762
  983MOL0     C32593   3.358   7.693   5.737 -0.8633  0.1816 -0.2996
  983MOL0     O32594   3.417   7.568   5.690 -0.0892 -0.2017 -0.3041
  983MOL0     C32595   3.550   7.559   5.666 -0.6019 -0.2372 -0.4083
  983MOL0     C32596   3.610   7.458   5.591 -0.0525 -0.3420  0.5285
  983MOL0     C32597   3.742   7.428   5.596  0.8772 -0.5447  0.5350
  983MOL0     C32598   3.777   7.298   5.517 -0.6226  0.2156  0.6778
  983MOL0     C32599   3.833   7.508   5.665 -0.5893 -0.9019 -0.3677
  983MOL0     C32600   3.977   7.479   5.670  0.0907 -0.4661 -0.1332
  983MOL0     O32601   4.039   7.538   5.776  0.8540 -0.1087 -0.6429
  983MOL0     C32602   4.172   7.543   5.769  0.3402 -0.9725  0.3234
  983MOL0     C32603   4.241   7.649   5.695  0.2420 -0.5714  0.0863
  983MOL0     C32604   4.384   7.644   5.685  0.3580  0.2988  0.4260
  983MOL0     C32605   4.461   7.543   5.736  0.2602  0.7189  0.6250
  983MOL0     O32606   4.598   7.543   5.713 -0.1812 -0.2015  0.4416
  983MOL0     C32607   4.679   7.583   5.819 -0.7877 -0.3248 -0.1597
  983MOL0     C32608   4.830   7.595   5.764  0.3443 -0.4095  0.5769
  983MOL0     C32609   4.926   7.624   5.880  0.4880  0.3722 -0.5663
  983MOL0     C32610   5.070   7.628   5.825 -0.4464  0.8267  0.7651
  983MOL0     C32611   5.179   7.607   5.930 -0.3312  0.0426  0.8787
  983MOL0     C32612   5.175   7.717   6.030  0.4846 -0.1125 -0.1048
  983MOL0     C32613   5.292   7.707   6.121  0.0467 -0.0409  0.3817
  983MOL0     C32614   5.376   7.842   6.124 -0.1960 -0.0395 -0.3419
  983MOL0    Cl32615   5.524   7.826   6.213  0.2508  0.3806 -0.1496
  983MOL0     C32616   4.399   7.446   5.806 -0.1886  0.0151  0.7108
  983MOL0     C32617   4.255   7.444   5.826  0.2701 -0.3416  0.6508
  983MOL0     O32618   4.030   7.427   5.574  0.8234  0.6073  0.0793
  983MOL0     C32619   3.776   7.627   5.727 -0.5182 -0.9050 -1.0219
  983MOL0     C32620   3.640   7.653   5.716  0.0380  0.5847 -0.9895
  983MOL0     N32621   2.932   7.837   5.801 -0.0863 -0.3468  0.5171
  983MOL0     N32622   2.896   7.954   5.797 -0.2093 -0.2935  0.4005
  983MOL0     C32623   2.484   8.464   5.482 -0.7772  0.2410  0.3577
  983MOL0     C32624   2.384   8.378   5.440  0.3967  0.4250  0.2447
  983MOL0     C32625   2.061   8.187   5.137 -1.0572 -0.1815  0.7404
  983MOL0     C32626   1.955   8.211   5.224 -0.2684 -1.0311 -0.1088
  983MOL0     C32627   1.837   8.135   5.208 -0.5978 -0.5335 -0.5014
  983MOL0     C32628   1.824   8.025   5.128  0.2901  0.3954  0.0803
  983MOL0     O32629   1.719   7.935   5.115 -0.9115 -0.3624 -0.6780
  983MOL0     C32630   1.615   7.940   5.209  0.4043  0.2311  1.1726
  983MOL0     C32631   1.653   7.833   5.318  0.7171 -0.0475  0.4838
  983MOL0     C32632   1.528   7.780   5.394 -0.1223 -0.2751 -0.2806
  983MOL0     C32633   1.577   7.677   5.493  0.4954  0.1536 -0.7449
  983MOL0     C32634   1.624   7.545   5.454  0.2379  1.0106 -0.3491
  983MOL0     C32635   1.672   7.440   5.420  0.8109 -0.3915  0.2264
  983MOL0     C32636   1.931   8.002   5.042 -0.2964 -0.3893 -0.5444
  983MOL0     C32637   2.048   8.083   5.048 -0.3525 -0.1834  0.8913
  983MOL0     H32638   2.305   8.533   5.155  1.0390  0.2564  0.2423
  983MOL0     H32639   2.475   8.676   5.219  0.1147 -0.7226 -2.5458
  983MOL0     H32640   2.622   8.789   5.289  0.2174 -1.3659 -0.0818
  983MOL0     H32641   2.757   8.815   5.394  1.4610  0.4881 -1.5248
  983MOL0     H32642   2.726   8.589   5.197  2.1255 -4.1499  2.2849
  983MOL0     H32643   2.829   8.726   5.165 -1.7152  0.7409 -0.6437
  983MOL0     H32644   2.989   8.603   5.236 -0.2870 -2.9780 -0.6101
  983MOL0     H32645   2.925   8.611   5.403 -1.6264 -0.6011  1.2478
  983MOL0     H32646   2.767   8.426   5.324  0.6512 -1.1206  1.0791
  983MOL0     H32647   2.866   8.395   5.183 -1.7723 -1.0246  0.1095
  983MOL0     H32648   2.927   8.238   5.343 -0.1211  0.5580  0.4330
  983MOL0     H32649   3.064   8.359   5.327  0.2242  0.1815 -0.6532
  983MOL0     H32650   3.004   8.443   5.535  0.4541 -1.2941  1.0493
  983MOL0     H32651   2.841   8.386   5.535 -0.0487  1.0571  0.4557
  983MOL0     H32652   3.070   8.190   5.540  1.1688 -1.4655  3.4705
  983MOL0     H32653   3.038   8.288   5.680  0.1000 -1.0436  0.1945
  983MOL0     H32654   2.811   8.133   5.530 -0.5778  2.7349 -0.9072
  983MOL0     H32655   2.796   8.195   5.690  0.5966 -1.6388  2.1597
  983MOL0     H32656   2.993   7.934   5.488  1.0780 -0.6599  0.2914
  983MOL0     H32657   3.076   7.630   5.730  0.2984  0.6970  0.8697
  983MOL0     H32658   2.979   7.632   5.580 -0.1566 -0.5123 -0.0519
  983MOL0     H32659   3.163   7.708   5.451 -0.8276  1.0810  0.4509
  983MOL0     H32660   3.193   7.568   5.561 -0.1168  0.8131 -1.8614
  983MOL0     H32661   3.289   7.865   5.633  2.4905  0.6552 -1.3989
  983MOL0     H32662   3.385   7.755   5.536 -0.6492 -4.9380 -0.8664
  983MOL0     H32663   3.289   7.662   5.816 -1.6578 -2.6974 -2.0021
  983MOL0     H32664   3.424   7.765   5.785  1.3592 -1.2798 -1.0321
  983MOL0     H32665   3.546   7.399   5.526  2.4680 -1.4665 -1.0843
  983MOL0     H32666   3.686   7.252   5.479 -1.6551  2.8538 -0.2559
  983MOL0     H32667   3.837   7.322   5.429 -0.1755 -1.6716  0.4212
  983MOL0     H32668   3.828   7.222   5.577  2.8954  0.3166 -1.8698
  983MOL0     H32669   4.180   7.727   5.648  1.1241 -1.0968 -2.0514
  983MOL0     H32670   4.421   7.730   5.631  1.4291 -0.6392 -0.3927
  983MOL0     H32671   4.647   7.680   5.857 -0.5491 -1.1640  2.3383
  983MOL0     H32672   4.678   7.506   5.897  2.5808  0.1066  0.4631
  983MOL0     H32673   4.857   7.500   5.717  2.0777  0.8791 -1.1776
  983MOL0     H32674   4.835   7.667   5.682  2.7224 -1.2564 -0.0933
  983MOL0     H32675   4.925   7.557   5.966 -1.7406  1.3027  0.1890
  983MOL0     H32676   4.908   7.725   5.918  1.3230  0.9414 -1.6279
  983MOL0     H32677   5.086   7.543   5.758  0.7378 -0.9800  3.1540
  983MOL0     H32678   5.088   7.720   5.769 -2.7749  1.7141  1.3674
  983MOL0     H32679   5.277   7.602   5.882 -0.4159  0.4232  0.6539
  983MOL0     H32680   5.162   7.506   5.967 -1.3380 -1.6222 -3.4955
  983MOL0     H32681   5.180   7.815   5.981 -1.3634  0.3408  0.5382
  983MOL0     H32682   5.083   7.708   6.087 -0.2782 -2.5669 -1.5741
  983MOL0     H32683   5.364   7.635   6.082  0.0268 -0.7327  1.5695
  983MOL0     H32684   5.257   7.673   6.219  2.2423  0.8974  1.5616
  983MOL0     H32685   5.309   7.918   6.167 -0.1550 -0.2236  0.0534
  983MOL0     H32686   5.398   7.870   6.021 -2.4631 -2.4816 -1.5900
  983MOL0     H32687   4.457   7.361   5.840 -0.1334  0.0291  0.6494
  983MOL0     H32688   4.212   7.359   5.877  2.2561 -0.4111  2.3362
  983MOL0     H32689   3.833   7.700   5.784 -3.1381  1.5865 -1.3243
  983MOL0     H32690   3.614   7.748   5.762  0.7446  0.8651 -1.1596
  983MOL0     H32691   2.539   8.449   5.575  0.5557 -1.6846 -0.6762
  983MOL0     H32692   2.364   8.302   5.515 -0.6623  1.2026  0.7686
  983MOL0     H32693   1.959   8.298   5.289  1.3824 -2.7402  2.2365
  983MOL0     H32694   1.754   8.158   5.275 -0.1457 -1.0601  0.2508
  983MOL0     H32695   1.596   8.038   5.252 -1.9499 -0.9395  3.0297
  983MOL0     H32696   1.524   7.913   5.154 -0.3517 -0.7259  2.8353
  983MOL0     H32697   1.729   7.869   5.388  1.4188 -2.4130  1.0496
  983MOL0     H32698   1.705   7.756   5.261 -0.5771 -0.4375 -0.1930
  983MOL0     H32699   1.465   7.735   5.317  1.7723 -0.2592 -1.9336
  983MOL0     H32700   1.485   7.867   5.444 -0.2671 -1.4800  1.8073
  983MOL0     H32701   1.487   7.666   5.555 -0.8805 -0.2185 -2.7171
  983MOL0     H32702   1.660   7.710   5.555  0.5928 -0.6245 -0.4462
  983MOL0     H32703   1.721   7.355   5.376 -0.9865 -0.0202 -2.7729
  983MOL0     H32704   1.925   7.910   4.986 -1.0644  0.1451 -1.3727
  983MOL0     H32705   2.133   8.058   4.985  1.7688  0.3798  3.3563
  984MOL0     O32706   0.229   4.288   1.471 -0.0243  0.1374  0.2591
  984MOL0     C32707   0.254   4.408   1.489  0.0929  0.3312 -0.3262
  984MOL0     O32708   0.162   4.500   1.538 -0.8141 -0.1387 -0.1423
  984MOL0     C32709   0.031   4.447   1.559  0.3323 -0.7092 -0.1100
  984MOL0     C32710  -0.065   4.411   1.466  0.0180  0.3073 -0.5203
  984MOL0     C32711  -0.194   4.387   1.513  0.5649 -0.2884  0.1026
  984MOL0     C32712  -0.224   4.381   1.646  0.3527 -0.2056  0.5442
  984MOL0     O32713  -0.359   4.349   1.678 -0.0136 -0.4111 -0.3566
  984MOL0     C32714  -0.394   4.360   1.813  0.2112  0.4303  0.5715
  984MOL0     C32715  -0.541   4.316   1.836 -0.1779  0.2768 -0.2488
  984MOL0     C32716  -0.567   4.317   1.992 -0.1598  0.4992 -0.3335
  984MOL0     C32717  -0.709   4.276   2.023  0.1589 -0.1106 -0.5289
  984MOL0     C32718  -0.743   4.259   2.178  0.1299  0.0351  0.1228
  984MOL0     C32719  -0.891   4.233   2.209  0.5479 -0.3989 -0.0414
  984MOL0     C32720  -0.931   4.084   2.188 -0.2510  0.2321 -0.3104
  984MOL0     C32721  -1.076   4.040   2.231 -0.0337 -0.0703  0.6383
  984MOL0     N32722  -1.187   4.116   2.168  0.5798  0.5267 -0.3898
  984MOL0     C32723  -1.239   4.226   2.227  0.5791  0.6333  0.6086
  984MOL0     C32724  -1.350   4.257   2.146 -0.3262 -0.1912  0.6575
  984MOL0     C32725  -1.448   4.377   2.156 -0.2740 -0.1664 -0.3730
  984MOL0     C32726  -1.585   4.348   2.217 -1.0327 -0.1244  0.0740
  984MOL0     C32727  -1.591   4.253   2.346 -1.0825 -0.2734  0.1829
  984MOL0     C32728  -1.730   4.206   2.378  0.8939  0.1330  0.7126
  984MOL0     O32729  -1.731   4.123   2.498 -0.1607 -0.3404  0.7748
  984MOL0     C32730  -1.731   4.203   2.613  0.7752  1.0701  0.9380
  984MOL0     C32731  -1.852   4.232   2.670  0.1684 -1.4456 -0.3026
  984MOL0     C32732  -1.863   4.292   2.796  0.0385  0.7239  0.9404
  984MOL0     C32733  -2.000   4.308   2.843 -0.7314 -0.6040 -0.9491
  984MOL0     C32734  -1.753   4.325   2.868  0.1499 -0.3608  0.4045
  984MOL0     C32735  -1.753   4.396   2.992 -0.0883 -0.8525 -0.2777
  984MOL0     O32736  -1.630   4.416   3.053  0.5482  0.4479  0.1489
  984MOL0     C32737  -1.626   4.493   3.167  1.1503  0.1350 -0.0206
  984MOL0     C32738  -1.632   4.439   3.296  0.4265 -0.9266  0.0379
  984MOL0     C32739  -1.621   4.523   3.409 -0.2434  0.3175  0.0064
  984MOL0     C32740  -1.609   4.655   3.394 -0.4781 -0.1730 -0.8245
  984MOL0     O32741  -1.597   4.745   3.504 -0.1019 -0.9689 -0.2862
  984MOL0     C32742  -1.527   4.711   3.629  0.2137 -0.3095 -0.3289
  984MOL0     C32743  -1.376   4.705   3.606 -0.3051 -0.8293 -0.5531
  984MOL0     C32744  -1.310   4.843   3.613 -0.3777  0.5858 -0.6300
  984MOL0     C32745  -1.280   4.886   3.756  0.9868  0.1780  0.2386
  984MOL0     C32746  -1.182   4.993   3.756  0.2359 -0.1006  0.0087
  984MOL0     C32747  -1.131   5.032   3.904  0.7442  0.8507 -0.0907
  984MOL0     C32748  -1.009   5.130   3.909  0.9636 -0.8737 -0.8704
  984MOL0     C32749  -0.955   5.142   4.055 -0.4164 -0.0810 -0.0083
  984MOL0    Cl32750  -0.857   5.298   4.051  0.4338  0.3388  0.4348
  984MOL0     C32751  -1.608   4.708   3.268  0.8893  0.2857 -0.4532
  984MOL0     C32752  -1.617   4.632   3.157  0.4355 -0.4544 -0.0517
  984MOL0     O32753  -1.857   4.458   3.027  0.2222  0.7216 -0.6833
  984MOL0     C32754  -1.633   4.284   2.806  0.3275 -0.1324 -1.1395
  984MOL0     C32755  -1.622   4.221   2.684  0.8095  0.4493  0.8258
  984MOL0     N32756  -1.357   4.158   2.045  0.6604 -0.4044 -0.0608
  984MOL0     N32757  -1.255   4.086   2.054 -0.3450  0.7427  0.1773
  984MOL0     C32758  -0.131   4.417   1.743  0.4156  0.1387  0.2968
  984MOL0     C32759  -0.004   4.446   1.693  0.3544  0.1197  0.2518
  984MOL0     C32760   0.390   4.453   1.436  1.5432 -0.4328  0.0384
  984MOL0     C32761   0.417   4.595   1.415 -0.0152  0.0600 -0.3194
  984MOL0     C32762   0.549   4.623   1.378  0.9127 -0.4753  0.0373
  984MOL0     C32763   0.651   4.526   1.368  0.0201  0.5931 -0.4167
  984MOL0     O32764   0.778   4.574   1.343 -0.1107 -0.1094  0.2825
  984MOL0     C32765   0.883   4.515   1.418  0.4411  0.3358  0.3431
  984MOL0     C32766   1.015   4.578   1.410 -0.0523 -0.2025  0.5239
  984MOL0     C32767   1.017   4.729   1.418  0.1640 -0.1567  0.4565
  984MOL0     C32768   1.139   4.794   1.355 -1.1010  0.0170  0.2302
  984MOL0     C32769   1.248   4.784   1.454  0.4345 -0.8193  0.4164
  984MOL0     C32770   1.336   4.783   1.544 -0.0974  0.1387 -0.4206
  984MOL0     C32771   0.624   4.394   1.398 -0.2667 -0.3179  0.0812
  984MOL0     C32772   0.490   4.366   1.412  0.0260  0.5004  0.2620
  984MOL0     H32773  -0.043   4.404   1.360 -0.1094  1.6479 -0.6544
  984MOL0     H32774  -0.273   4.362   1.443  0.8714 -2.2995  0.4297
  984MOL0     H32775  -0.341   4.304   1.891 -0.1902  0.5663  0.9451
  984MOL0     H32776  -0.378   4.466   1.834  2.8402  0.4078 -0.8808
  984MOL0     H32777  -0.613   4.381   1.786 -2.0072 -2.8091 -1.9584
  984MOL0     H32778  -0.567   4.217   1.798 -1.2175  0.7990 -0.9390
  984MOL0     H32779  -0.497   4.248   2.042 -0.3494  1.0346  0.6936
  984MOL0     H32780  -0.549   4.416   2.034 -0.9045  0.1427  0.8596
  984MOL0     H32781  -0.776   4.360   2.003  0.7897  1.1007  2.0404
  984MOL0     H32782  -0.746   4.196   1.959 -2.1829  1.5139 -1.3264
  984MOL0     H32783  -0.687   4.177   2.224  1.1543  1.8171  2.2268
  984MOL0     H32784  -0.715   4.343   2.243  0.3131  0.7561 -0.8701
  984MOL0     H32785  -0.911   4.268   2.311  0.2683  0.6798 -0.4498
  984MOL0     H32786  -0.948   4.290   2.135 -2.4347  0.1286  2.4542
  984MOL0     H32787  -0.912   4.057   2.084  3.7281  1.6910 -0.1188
  984MOL0     H32788  -0.868   4.016   2.246 -0.2737  0.8151  0.4087
  984MOL0     H32789  -1.082   4.060   2.339  0.8415 -0.1825  0.7139
  984MOL0     H32790  -1.095   3.933   2.223 -1.0023  0.1157  0.2721
  984MOL0     H32791  -1.203   4.287   2.309 -0.1563 -0.5410  1.8576
  984MOL0     H32792  -1.405   4.458   2.214  3.2971 -1.1018 -1.4634
  984MOL0     H32793  -1.463   4.401   2.050 -1.0189 -2.2149 -0.7904
  984MOL0     H32794  -1.634   4.294   2.136 -0.1600  0.2016 -0.6846
  984MOL0     H32795  -1.637   4.443   2.237 -1.3703 -0.7496  2.5177
  984MOL0     H32796  -1.564   4.312   2.434  0.2492 -0.9596  0.2492
  984MOL0     H32797  -1.532   4.162   2.331  0.9557  0.7248  1.6965
  984MOL0     H32798  -1.763   4.152   2.289 -0.1820  0.1121  1.1201
  984MOL0     H32799  -1.800   4.290   2.384  1.9055  0.9238  1.9324
  984MOL0     H32800  -1.938   4.188   2.621 -0.1226 -1.2766  0.0573
  984MOL0     H32801  -2.080   4.254   2.791 -2.4892 -1.3387  2.3069
  984MOL0     H32802  -2.004   4.281   2.948 -1.6022  1.2844 -0.4440
  984MOL0     H32803  -2.030   4.413   2.832 -1.2285 -0.8014 -1.5516
  984MOL0     H32804  -1.627   4.331   3.297 -0.4330 -0.9832 -0.3994
  984MOL0     H32805  -1.624   4.476   3.506  2.3998  0.3139  0.1457
  984MOL0     H32806  -1.551   4.776   3.713  3.3033 -1.7840  1.8830
  984MOL0     H32807  -1.561   4.614   3.665 -0.7743  0.5291  1.0807
  984MOL0     H32808  -1.345   4.641   3.689  0.3168  1.2909  0.9273
  984MOL0     H32809  -1.357   4.651   3.512  4.2560 -0.2503 -0.1695
  984MOL0     H32810  -1.383   4.911   3.568 -2.3764 -1.6233 -0.9168
  984MOL0     H32811  -1.218   4.844   3.553  1.7972  0.0626  2.4598
  984MOL0     H32812  -1.366   4.925   3.810  0.2565 -0.1005 -0.6879
  984MOL0     H32813  -1.230   4.802   3.804  3.8102  0.3088 -2.1850
  984MOL0     H32814  -1.218   5.087   3.712  1.4910  1.3312  1.8924
  984MOL0     H32815  -1.088   4.973   3.704  1.1293  3.0237  0.1772
  984MOL0     H32816  -1.210   5.078   3.965  0.8538 -0.1056  0.8125
  984MOL0     H32817  -1.113   4.937   3.955  0.3970  1.0086  0.3450
  984MOL0     H32818  -1.049   5.225   3.873 -0.1568 -1.0965 -0.2719
  984MOL0     H32819  -0.939   5.101   3.831  1.5569 -0.4687 -0.5022
  984MOL0     H32820  -0.893   5.054   4.073 -2.4096 -1.1577  2.0731
  984MOL0     H32821  -1.032   5.154   4.132 -0.8353  2.9489 -0.7704
  984MOL0     H32822  -1.594   4.815   3.259  1.7682  0.0923 -1.6740
  984MOL0     H32823  -1.603   4.676   3.059 -1.0781 -0.4265 -0.2699
  984MOL0     H32824  -1.536   4.298   2.853  0.8345 -1.8956 -1.5899
  984MOL0     H32825  -1.533   4.188   2.631  0.8334  0.0870  1.0925
  984MOL0     H32826  -0.145   4.434   1.849  0.6820  2.7193 -0.0368
  984MOL0     H32827   0.075   4.452   1.767  0.8355  0.8366 -0.3124
  984MOL0     H32828   0.342   4.673   1.426 -2.3433 -2.0727 -0.0542
  984MOL0     H32829   0.567   4.725   1.345  1.6988 -0.5998  0.0588
  984MOL0     H32830   0.850   4.516   1.523  0.4366  0.5745  0.3389
  984MOL0     H32831   0.902   4.412   1.387 -0.1295  0.6700 -1.1676
  984MOL0     H32832   1.062   4.554   1.314  0.6743 -1.4445  1.1593
  984MOL0     H32833   1.082   4.526   1.479  0.2183 -0.0176  0.4016
  984MOL0     H32834   1.002   4.749   1.525 -0.0005  0.1366  0.3813
  984MOL0     H32835   0.932   4.758   1.355 -0.2170 -0.3331  0.8888
  984MOL0     H32836   1.142   4.902   1.335  3.0416  0.2585  1.2051
  984MOL0     H32837   1.168   4.739   1.265 -1.9105 -0.0583  0.0088
  984MOL0     H32838   1.412   4.786   1.619  1.8063 -1.3099 -2.2042
  984MOL0     H32839   0.707   4.325   1.380  1.3403  1.9397 -1.8340
  984MOL0     H32840   0.468   4.260   1.406 -0.1931  0.4252  1.8827
  985MOL0     O32841   3.144   2.021   7.463  0.8202  0.5318 -0.1619
  985MOL0     C32842   3.038   2.063   7.511  0.0615 -0.4697  0.9128
  985MOL0     O32843   2.912   2.050   7.459  0.2698  0.0092 -0.1860
  985MOL0     C32844   2.883   1.972   7.343 -0.2945  0.3652 -0.4098
  985MOL0     C32845   2.747   1.975   7.300  0.4480  0.3637 -0.0656
  985MOL0     C32846   2.708   1.892   7.195 -0.0988 -0.5021 -0.2872
  985MOL0     C32847   2.796   1.811   7.126 -0.0780  0.6490  1.2056
  985MOL0     O32848   2.767   1.724   7.023  0.2046 -0.1126 -0.7082
  985MOL0     C32849   2.629   1.711   6.988 -0.3131 -0.1145  1.0030
  985MOL0     C32850   2.610   1.622   6.864 -0.3012 -0.6881  0.5851
  985MOL0     C32851   2.501   1.680   6.769 -0.8920 -0.0959  0.1490
  985MOL0     C32852   2.365   1.678   6.829  1.0569 -0.1896  1.1552
  985MOL0     C32853   2.250   1.697   6.718  0.8773  0.6311 -0.4510
  985MOL0     C32854   2.121   1.732   6.787 -0.4316 -0.2771  0.6382
  985MOL0     C32855   2.008   1.763   6.683  0.3064  0.2573 -0.3969
  985MOL0     C32856   1.862   1.752   6.725  0.5790  0.5253  0.5973
  985MOL0     N32857   1.779   1.817   6.622 -0.0480  0.1063  0.2174
  985MOL0     C32858   1.680   1.906   6.662 -0.5378 -0.4887  0.8595
  985MOL0     C32859   1.618   1.934   6.558 -0.2817 -0.7090 -0.3189
  985MOL0     C32860   1.529   2.054   6.542  0.5187  1.0790 -0.4659
  985MOL0     C32861   1.388   2.023   6.518  0.4442 -0.0475  0.3426
  985MOL0     C32862   1.313   2.155   6.519  0.2399 -0.0596 -0.6907
  985MOL0     C32863   1.153   2.136   6.536 -1.0203  0.9697 -0.0214
  985MOL0     O32864   1.097   2.267   6.530 -0.0118  0.8738  0.0683
  985MOL0     C32865   0.959   2.276   6.511 -0.5858 -0.5992 -0.2066
  985MOL0     C32866   0.920   2.403   6.469 -0.2961  0.1081  0.0985
  985MOL0     C32867   0.778   2.429   6.460  0.2682 -0.5364 -0.3168
  985MOL0     C32868   0.732   2.572   6.429 -0.5617 -0.0932  0.1286
  985MOL0     C32869   0.687   2.331   6.500  0.5056  0.3124  0.1584
  985MOL0     C32870   0.536   2.339   6.472  0.5156 -0.1478 -0.2404
  985MOL0     O32871   0.462   2.262   6.559 -0.5681  0.1727  0.4573
  985MOL0     C32872   0.331   2.229   6.546  0.4863  0.6449 -0.2691
  985MOL0     C32873   0.284   2.180   6.424  0.1876  0.5219 -0.3637
  985MOL0     C32874   0.146   2.143   6.416 -0.4653  0.1948 -0.1967
  985MOL0     C32875   0.063   2.144   6.525 -0.0944  0.3022 -0.1350
  985MOL0     O32876  -0.066   2.114   6.503  0.5264  0.5247  1.0019
  985MOL0     C32877  -0.140   2.056   6.613  0.8190  0.7036  1.1750
  985MOL0     C32878  -0.258   1.967   6.569 -0.0455 -0.2930 -0.2587
  985MOL0     C32879  -0.199   1.822   6.555 -0.2270 -0.2008 -0.4083
  985MOL0     C32880  -0.299   1.721   6.521 -0.4973 -0.8314 -0.7233
  985MOL0     C32881  -0.391   1.689   6.638  0.4140  0.2899  0.0692
  985MOL0     C32882  -0.467   1.561   6.605 -0.0217  0.2207 -0.5829
  985MOL0     C32883  -0.546   1.520   6.728 -0.7817 -0.0208 -0.3978
  985MOL0     C32884  -0.658   1.424   6.711 -0.4402  0.1498 -1.1123
  985MOL0    Cl32885  -0.598   1.263   6.642 -0.1190 -0.2597  0.3304
  985MOL0     C32886   0.113   2.177   6.647  0.9218  0.0270  0.1103
  985MOL0     C32887   0.247   2.227   6.661 -1.1513 -0.3297  0.4132
  985MOL0     O32888   0.491   2.416   6.386  1.1371  0.5900 -0.8234
  985MOL0     C32889   0.731   2.203   6.539  0.2014 -0.5872  0.4221
  985MOL0     C32890   0.867   2.179   6.549 -0.3199 -0.4339 -0.5042
  985MOL0     N32891   1.654   1.850   6.450  0.4840  0.5037  0.1062
  985MOL0     N32892   1.744   1.768   6.499  0.1909 -0.6796 -0.1374
  985MOL0     C32893   2.928   1.822   7.160  0.7199  0.2716 -0.5226
  985MOL0     C32894   2.972   1.890   7.272  0.6341  0.4156 -0.2884
  985MOL0     C32895   3.047   2.150   7.628 -0.0537  0.2487  0.4591
  985MOL0     C32896   3.143   2.122   7.719  0.3588  0.4640 -0.2218
  985MOL0     C32897   3.131   2.192   7.844  1.0492 -0.6248 -0.3895
  985MOL0     C32898   3.038   2.302   7.854  1.5619 -0.4779 -0.3965
  985MOL0     O32899   3.016   2.385   7.969 -0.0458 -0.0562 -0.1266
  985MOL0     C32900   2.977   2.320   8.095  0.2297 -0.5913 -0.7942
  985MOL0     C32901   3.094   2.292   8.177  0.4293 -0.3265  0.6628
  985MOL0     C32902   3.057   2.228   8.307 -0.2061 -0.2407 -0.0908
  985MOL0     C32903   3.175   2.223   8.410  0.8145 -0.2565 -0.4189
  985MOL0     C32904   3.230   2.347   8.456  0.1830 -0.2192 -0.5328
  985MOL0     C32905   3.284   2.454   8.484  0.6457  0.3113 -0.1154
  985MOL0     C32906   2.947   2.335   7.746  0.1690  0.3307 -0.1156
  985MOL0     C32907   2.957   2.254   7.634 -0.3977 -0.5748 -0.0085
  985MOL0     H32908   2.672   2.031   7.355 -4.3312 -0.3305 -5.0812
  985MOL0     H32909   2.602   1.890   7.173 -0.3543 -1.3119  0.9251
  985MOL0     H32910   2.570   1.675   7.073 -0.8132  0.1152  0.7587
  985MOL0     H32911   2.586   1.805   6.950 -0.8790 -0.4276  0.8635
  985MOL0     H32912   2.705   1.625   6.811  0.2374  4.3254  1.3227
  985MOL0     H32913   2.589   1.524   6.909  2.0411  0.5940  5.0411
  985MOL0     H32914   2.526   1.781   6.734 -0.2670  0.0817  1.0606
  985MOL0     H32915   2.499   1.620   6.678  3.8379  0.3749 -0.5472
  985MOL0     H32916   2.362   1.578   6.874 -0.3134 -1.2703 -1.1789
  985MOL0     H32917   2.365   1.758   6.905  1.1506  1.3519 -0.4012
  985MOL0     H32918   2.285   1.766   6.641  1.1561  1.1002  0.0843
  985MOL0     H32919   2.242   1.605   6.660 -1.6417  1.0442 -0.8566
  985MOL0     H32920   2.079   1.657   6.856 -2.7806  1.0376  0.7245
  985MOL0     H32921   2.128   1.822   6.849 -1.8369  2.0329 -2.3138
  985MOL0     H32922   2.021   1.866   6.648  1.1818  1.0278  2.0206
  985MOL0     H32923   2.030   1.695   6.599 -1.1681  0.7102 -1.1787
  985MOL0     H32924   1.866   1.780   6.831 -0.7740  0.0000  0.8030
  985MOL0     H32925   1.846   1.645   6.713  0.1754  0.5854  0.5945
  985MOL0     H32926   1.679   1.951   6.761  1.4909  3.6334 -0.7605
  985MOL0     H32927   1.530   2.112   6.635  0.0284 -0.1966  0.3575
  985MOL0     H32928   1.569   2.122   6.466  0.4963 -0.9727 -2.4261
  985MOL0     H32929   1.351   1.946   6.585 -3.1160  1.0084 -0.2040
  985MOL0     H32930   1.379   1.973   6.421 -0.8740 -0.6180  0.7432
  985MOL0     H32931   1.328   2.205   6.423  0.2534 -0.6247 -0.9845
  985MOL0     H32932   1.338   2.217   6.606 -2.5528  0.2681 -0.0063
  985MOL0     H32933   1.122   2.080   6.624 -1.9457  0.3692 -0.7176
  985MOL0     H32934   1.117   2.076   6.453 -2.5044  0.7230  0.7798
  985MOL0     H32935   0.996   2.477   6.445  0.5341 -0.8178 -0.2054
  985MOL0     H32936   0.678   2.565   6.334  0.9746  1.7500 -0.9634
  985MOL0     H32937   0.686   2.623   6.514  0.5472  0.8087  0.2149
  985MOL0     H32938   0.820   2.633   6.408 -1.5288  1.0712 -0.6603
  985MOL0     H32939   0.353   2.172   6.341 -0.5019  0.8347 -0.9735
  985MOL0     H32940   0.111   2.101   6.322 -0.1837  0.2427 -0.3236
  985MOL0     H32941  -0.076   1.997   6.679  0.3799  0.0966  1.0573
  985MOL0     H32942  -0.185   2.141   6.665 -0.0391  1.4322 -0.6396
  985MOL0     H32943  -0.347   1.961   6.632 -1.8417  0.6697 -2.5384
  985MOL0     H32944  -0.304   2.004   6.477  0.1049  1.6511  0.3976
  985MOL0     H32945  -0.139   1.794   6.643 -0.9199 -0.3490  0.0276
  985MOL0     H32946  -0.130   1.834   6.471 -0.0200  3.1416  0.1173
  985MOL0     H32947  -0.358   1.762   6.439  2.0037  2.5125 -1.0829
  985MOL0     H32948  -0.244   1.629   6.499 -0.7673 -1.3400  0.6059
  985MOL0     H32949  -0.458   1.773   6.656  0.2193  0.2130 -0.2813
  985MOL0     H32950  -0.330   1.679   6.728  3.3034  2.1672 -1.5191
  985MOL0     H32951  -0.537   1.583   6.524  1.2038  2.1063 -1.1992
  985MOL0     H32952  -0.418   1.475   6.559 -4.2865 -2.0953 -1.2539
  985MOL0     H32953  -0.598   1.602   6.779 -1.0738 -0.0218 -0.6890
  985MOL0     H32954  -0.483   1.467   6.800 -0.6583  0.8314  0.1404
  985MOL0     H32955  -0.736   1.471   6.651 -1.6882  3.5887  2.6801
  985MOL0     H32956  -0.705   1.405   6.808  1.5436  1.5051  0.2031
  985MOL0     H32957   0.050   2.181   6.735 -1.0530 -2.1085 -1.0891
  985MOL0     H32958   0.306   2.264   6.744  2.8568 -0.1152 -2.2697
  985MOL0     H32959   0.662   2.125   6.568  1.2276 -1.9436 -0.6130
  985MOL0     H32960   0.897   2.081   6.586  0.2097  0.5671  1.8932
  985MOL0     H32961   2.999   1.766   7.101  2.0634  0.4572  0.8629
  985MOL0     H32962   3.077   1.878   7.299  0.3734  1.4398  1.3988
  985MOL0     H32963   3.212   2.039   7.720  0.9248  0.9329  0.7244
  985MOL0     H32964   3.194   2.176   7.932  0.4152  3.0435  0.9206
  985MOL0     H32965   2.901   2.383   8.144 -0.8971 -1.2636 -1.6299
  985MOL0     H32966   2.926   2.226   8.073  1.2962 -1.0494 -1.3429
  985MOL0     H32967   3.145   2.386   8.203 -1.5557  0.7670  0.7663
  985MOL0     H32968   3.162   2.227   8.121  0.7689 -1.3043  2.1723
  985MOL0     H32969   3.005   2.133   8.290  0.8382 -1.2053  1.7516
  985MOL0     H32970   2.976   2.286   8.350  0.9079  0.8728  0.5758
  985MOL0     H32971   3.261   2.164   8.376  2.5215  0.5874  2.1851
  985MOL0     H32972   3.130   2.161   8.487 -0.4538 -1.0900 -1.7692
  985MOL0     H32973   3.323   2.548   8.517 -1.6550  1.7479 -1.2797
  985MOL0     H32974   2.878   2.419   7.748  1.8782  1.8163  2.3651
  985MOL0     H32975   2.871   2.268   7.569 -0.8243 -1.9699  0.2308
  986MOL0     O32976   5.341   7.803   5.677  0.4830 -0.5234 -0.5484
  986MOL0     C32977   5.394   7.914   5.658  0.1818 -0.6573  0.8025
  986MOL0     O32978   5.356   8.003   5.552  0.3536  0.2479  0.5406
  986MOL0     C32979   5.247   7.964   5.483  0.0993  0.3891 -0.5236
  986MOL0     C32980   5.139   8.050   5.465 -0.4884 -0.5118  0.1206
  986MOL0     C32981   5.029   8.018   5.387 -0.3185 -0.0179 -0.5945
  986MOL0     C32982   5.033   7.892   5.318  0.0899  0.1364  0.1083
  986MOL0     O32983   4.936   7.832   5.242 -0.5577  0.1127  0.3854
  986MOL0     C32984   4.820   7.911   5.213 -0.0578 -0.1015 -0.4842
  986MOL0     C32985   4.745   7.828   5.105 -1.0825 -0.6676 -0.4977
  986MOL0     C32986   4.665   7.714   5.173 -0.0196 -0.1201  0.3419
  986MOL0     C32987   4.573   7.639   5.072  0.0095  0.6282  0.2398
  986MOL0     C32988   4.528   7.504   5.121  0.5091  0.0046 -0.2096
  986MOL0     C32989   4.485   7.487   5.263 -0.7387  0.2702 -0.7653
  986MOL0     C32990   4.414   7.356   5.292  0.1505 -0.0639  0.4067
  986MOL0     C32991   4.331   7.332   5.424  0.7419  0.2099  0.3548
  986MOL0     N32992   4.295   7.193   5.436  0.5793  0.5640 -0.1045
  986MOL0     C32993   4.234   7.139   5.539 -0.1895  0.1059  0.0765
  986MOL0     C32994   4.247   7.006   5.521 -0.2960  0.1911 -0.4991
  986MOL0     C32995   4.191   6.904   5.622 -0.1006 -0.4109  0.6383
  986MOL0     C32996   4.060   6.840   5.572 -0.5435  0.8436 -0.4364
  986MOL0     C32997   3.998   6.756   5.679  0.5488 -0.0400 -0.4334
  986MOL0     C32998   3.856   6.717   5.649  0.3409 -0.4729  1.0617
  986MOL0     O32999   3.777   6.832   5.613  0.5138 -0.0191  0.0292
  986MOL0     C33000   3.708   6.906   5.709  0.3928  0.3291  0.0332
  986MOL0     C33001   3.711   6.881   5.846  0.0420 -0.1168  0.4232
  986MOL0     C33002   3.651   6.968   5.934 -0.0124 -0.1417 -0.3402
  986MOL0     C33003   3.667   6.942   6.084  0.1516  0.3411 -0.0292
  986MOL0     C33004   3.585   7.086   5.886 -0.6627  0.3799 -0.5068
  986MOL0     C33005   3.531   7.194   5.960  0.0789  0.1057 -0.5077
  986MOL0     O33006   3.439   7.273   5.901 -0.6652  0.5344  0.4168
  986MOL0     C33007   3.370   7.357   5.983 -0.9898 -0.8802  0.9127
  986MOL0     C33008   3.422   7.488   6.009 -0.0654  0.1274  0.8606
  986MOL0     C33009   3.343   7.580   6.081  1.0384  0.9797 -0.1906
  986MOL0     C33010   3.213   7.531   6.131  0.1620 -0.2509 -0.5442
  986MOL0     O33011   3.136   7.627   6.198  0.0264  0.2493  0.4555
  986MOL0     C33012   3.019   7.669   6.122  0.7904  0.4754 -0.1806
  986MOL0     C33013   2.970   7.812   6.152 -0.7476 -0.1603  0.1738
  986MOL0     C33014   3.017   7.864   6.291 -0.6530  0.4254 -0.1957
  986MOL0     C33015   2.963   8.000   6.332  0.2973  0.3082 -0.7409
  986MOL0     C33016   3.011   8.059   6.466 -0.0092 -0.6210 -0.3221
  986MOL0     C33017   2.935   8.185   6.502  0.6292  0.0724  0.1805
  986MOL0     C33018   2.971   8.224   6.646  0.6985  0.2767 -0.6732
  986MOL0     C33019   2.880   8.325   6.719 -0.5780  0.7102  0.4226
  986MOL0    Cl33020   2.721   8.256   6.731  0.3468  0.7322  0.1594
  986MOL0     C33021   3.167   7.410   6.095 -0.2020 -0.4084 -0.2197
  986MOL0     C33022   3.242   7.319   6.026 -0.4128  0.3214 -1.1018
  986MOL0     O33023   3.579   7.215   6.074 -0.0729 -0.3130  0.5140
  986MOL0     C33024   3.577   7.101   5.744  0.5747 -0.0660 -0.2853
  986MOL0     C33025   3.637   7.013   5.658 -0.7896 -0.2253  0.4829
  986MOL0     N33026   4.330   6.977   5.420  0.3374 -0.5126  0.7557
  986MOL0     N33027   4.360   7.091   5.363 -0.3259  0.0589 -0.1036
  986MOL0     C33028   5.144   7.805   5.333  0.0863 -0.3102  0.5816
  986MOL0     C33029   5.247   7.844   5.412 -0.0925  0.6092  0.5342
  986MOL0     C33030   5.501   7.954   5.743 -1.5377 -0.4673  0.7462
  986MOL0     C33031   5.506   8.091   5.780  0.1509 -0.3900  0.2090
  986MOL0     C33032   5.610   8.129   5.857 -0.8883 -0.1505  0.2203
  986MOL0     C33033   5.718   8.045   5.896  0.4648 -0.3124 -0.3310
  986MOL0     O33034   5.799   8.103   5.979  0.7102 -0.0242 -0.6436
  986MOL0     C33035   5.910   8.033   6.025 -0.6011  0.4371 -0.8001
  986MOL0     C33036   6.027   8.061   5.920  0.1877 -0.0950  0.1054
  986MOL0     C33037   6.146   7.959   5.929  0.1787  0.5673  0.4876
  986MOL0     C33038   6.285   8.008   5.867 -0.6440  0.2553 -0.7386
  986MOL0     C33039   6.276   8.057   5.731 -0.0269  0.7358  0.1674
  986MOL0     C33040   6.250   8.093   5.617 -0.4330  0.0061 -0.5317
  986MOL0     C33041   5.714   7.910   5.853 -0.8432  0.4083 -0.3636
  986MOL0     C33042   5.605   7.859   5.779  0.0036 -0.3639  0.0628
  986MOL0     H33043   5.143   8.145   5.519  0.7785 -0.0096 -0.8041
  986MOL0     H33044   4.947   8.087   5.374  1.2594  1.6270 -2.5946
  986MOL0     H33045   4.759   7.911   5.303  1.8742 -1.0668  0.8975
  986MOL0     H33046   4.842   8.011   5.174 -1.8723 -0.1070 -1.6525
  986MOL0     H33047   4.680   7.903   5.059 -0.3070  1.6795  1.9674
  986MOL0     H33048   4.810   7.781   5.031 -0.5054 -0.1085 -0.3551
  986MOL0     H33049   4.747   7.652   5.209 -0.7110 -0.4677  1.3566
  986MOL0     H33050   4.613   7.761   5.257  0.3953  1.8708 -0.4514
  986MOL0     H33051   4.478   7.693   5.065 -1.8802 -2.3047  1.5945
  986MOL0     H33052   4.616   7.621   4.973  0.9881 -2.7805  1.1536
  986MOL0     H33053   4.445   7.475   5.055  0.0537 -0.1279  0.4143
  986MOL0     H33054   4.608   7.432   5.106 -0.3595 -0.7269 -1.5358
  986MOL0     H33055   4.579   7.500   5.318 -0.2337 -0.8134 -1.3610
  986MOL0     H33056   4.423   7.575   5.281  1.1105  1.5546 -0.3346
  986MOL0     H33057   4.341   7.351   5.211 -0.3533  0.2585  0.8422
  986MOL0     H33058   4.485   7.273   5.282 -2.2182 -2.3159  1.2038
  986MOL0     H33059   4.242   7.395   5.417  0.8926  0.3520 -0.3295
  986MOL0     H33060   4.389   7.364   5.511  2.5008 -1.0550 -0.2843
  986MOL0     H33061   4.194   7.193   5.624 -0.2753  1.2938 -0.7040
  986MOL0     H33062   4.267   6.829   5.646  0.2809  0.2619  1.5913
  986MOL0     H33063   4.168   6.964   5.710 -4.3986  0.1210 -0.6483
  986MOL0     H33064   4.086   6.786   5.481  0.2013 -1.3219  0.9816
  986MOL0     H33065   3.996   6.917   5.529  0.0181  1.7367  0.2745
  986MOL0     H33066   4.002   6.810   5.775  4.2306 -1.2194  0.2339
  986MOL0     H33067   4.060   6.669   5.703  0.8488  1.2359  4.6900
  986MOL0     H33068   3.810   6.666   5.734 -2.8395 -1.0110 -0.8029
  986MOL0     H33069   3.856   6.636   5.576  4.0138 -1.6310  2.1433
  986MOL0     H33070   3.775   6.802   5.883  1.8456  1.1771  0.2129
  986MOL0     H33071   3.589   6.984   6.148  1.4243  2.1767  0.3938
  986MOL0     H33072   3.667   6.836   6.110 -0.1420  0.9353  2.7156
  986MOL0     H33073   3.761   6.990   6.113  1.5139  0.5656 -4.1432
  986MOL0     H33074   3.526   7.505   5.982  0.1433 -0.8786  0.9994
  986MOL0     H33075   3.381   7.679   6.104 -0.8732  2.2341 -2.0361
  986MOL0     H33076   3.038   7.658   6.015 -1.6442 -1.5707 -0.4906
  986MOL0     H33077   2.938   7.597   6.139  1.7052 -0.5100  0.0982
  986MOL0     H33078   3.013   7.872   6.072  0.2712  1.3680  1.8018
  986MOL0     H33079   2.860   7.816   6.144 -0.8660 -2.8592 -0.6241
  986MOL0     H33080   3.125   7.871   6.274 -0.6522 -0.1361 -0.4486
  986MOL0     H33081   3.007   7.794   6.374  3.7233  0.6219  0.7480
  986MOL0     H33082   3.002   8.070   6.259  1.9723  0.1877  0.0027
  986MOL0     H33083   2.853   8.004   6.335  0.2261 -1.3252  0.2585
  986MOL0     H33084   3.118   8.081   6.463 -0.3667  1.5078  0.6884
  986MOL0     H33085   2.996   7.983   6.544  0.3452 -1.2653 -0.8690
  986MOL0     H33086   2.972   8.264   6.436  0.6353  0.8184  1.0592
  986MOL0     H33087   2.827   8.176   6.486 -0.0154  1.6443  2.8612
  986MOL0     H33088   3.072   8.266   6.643  0.2355  1.6718  1.2731
  986MOL0     H33089   2.975   8.138   6.713  0.3028  0.8723  0.1298
  986MOL0     H33090   2.878   8.416   6.658 -0.0228  0.2062 -0.3635
  986MOL0     H33091   2.912   8.351   6.820  1.5880  0.8869 -0.2547
  986MOL0     H33092   3.073   7.379   6.140 -1.0686 -0.4443 -1.9655
  986MOL0     H33093   3.209   7.217   6.011  2.4384 -0.4811 -2.7273
  986MOL0     H33094   3.543   7.192   5.695 -0.4589 -1.8264 -3.0413
  986MOL0     H33095   3.622   7.029   5.552  1.1881 -0.5688  0.1210
  986MOL0     H33096   5.142   7.709   5.282  4.7781  0.6132 -1.9076
  986MOL0     H33097   5.322   7.766   5.424  0.0171  0.4973 -0.7658
  986MOL0     H33098   5.418   8.152   5.762  0.0200 -0.2946  1.0965
  986MOL0     H33099   5.614   8.231   5.891 -1.6971 -0.0842  0.1198
  986MOL0     H33100   5.946   8.075   6.120  0.4680  0.2432 -1.1060
  986MOL0     H33101   5.899   7.925   6.032 -1.6918  0.5710 -0.1577
  986MOL0     H33102   6.065   8.156   5.960 -0.3777 -0.5124  1.7124
  986MOL0     H33103   5.991   8.069   5.817  1.3081  1.1477 -0.2210
  986MOL0     H33104   6.128   7.864   5.878  0.1644  0.9382 -0.2165
  986MOL0     H33105   6.145   7.939   6.036 -1.5607  4.2369  1.3162
  986MOL0     H33106   6.362   7.931   5.873  1.6400  2.3621 -1.1506
  986MOL0     H33107   6.315   8.098   5.923  1.8375  0.9339 -2.9659
  986MOL0     H33108   6.231   8.130   5.518 -0.4152 -0.7115 -0.8108
  986MOL0     H33109   5.787   7.836   5.886 -1.5874  0.8241  2.4891
  986MOL0     H33110   5.583   7.753   5.770 -0.1704 -0.4719  1.5338
  987MOL0     O33111   7.031   2.174   2.080  0.1769 -0.1728 -0.2042
  987MOL0     C33112   7.072   2.218   1.965  0.2453 -0.4684 -0.6938
  987MOL0     O33113   6.980   2.252   1.865 -0.4918 -0.7355  0.1758
  987MOL0     C33114   6.848   2.261   1.897  0.7370  0.1166  0.4986
  987MOL0     C33115   6.759   2.189   1.816  0.0513  0.0519 -0.3045
  987MOL0     C33116   6.623   2.183   1.845  0.2470 -0.4033  0.9445
  987MOL0     C33117   6.566   2.266   1.936  0.0175 -0.8098 -0.5270
  987MOL0     O33118   6.426   2.257   1.958  0.5376 -0.2390  0.4812
  987MOL0     C33119   6.365   2.370   2.033 -0.4785  0.0326  0.2626
  987MOL0     C33120   6.217   2.354   2.032 -0.2490 -1.3184  0.7920
  987MOL0     C33121   6.179   2.226   2.108  0.1354 -0.4605 -0.3326
  987MOL0     C33122   6.112   2.120   2.026  1.4036 -0.0133 -0.7041
  987MOL0     C33123   6.051   2.010   2.117  0.4510 -0.0526  0.1623
  987MOL0     C33124   5.981   1.903   2.041 -0.1997  0.3460  0.0515
  987MOL0     C33125   6.070   1.852   1.921 -0.5962 -0.6402  0.0342
  987MOL0     C33126   6.010   1.720   1.862 -0.0260  0.1430  0.7753
  987MOL0     N33127   5.901   1.752   1.767  0.5015 -0.2088  0.6488
  987MOL0     C33128   5.773   1.803   1.795  0.5944  0.2134  0.0753
  987MOL0     C33129   5.704   1.805   1.674 -0.0359 -0.3052  0.3351
  987MOL0     C33130   5.566   1.835   1.631  0.1517 -0.6379 -0.1142
  987MOL0     C33131   5.491   1.932   1.722  0.9714  1.4445  0.2075
  987MOL0     C33132   5.347   1.916   1.679  0.0982 -0.3017  0.7187
  987MOL0     C33133   5.261   1.806   1.737 -0.1925  0.0416  0.8133
  987MOL0     O33134   5.133   1.797   1.674  0.6663  0.0200  0.2670
  987MOL0     C33135   5.038   1.706   1.733 -0.5038 -0.0651 -0.9638
  987MOL0     C33136   5.062   1.625   1.848 -0.4025  0.3435  0.4539
  987MOL0     C33137   4.955   1.553   1.906 -0.9852  0.5715  0.3639
  987MOL0     C33138   4.998   1.473   2.032  0.0434  0.1142  0.1419
  987MOL0     C33139   4.827   1.549   1.857  0.0852 -0.3147 -0.7517
  987MOL0     C33140   4.710   1.475   1.925 -0.4974  0.2685 -0.1863
  987MOL0     O33141   4.590   1.482   1.853 -0.8622 -0.5693 -0.3859
  987MOL0     C33142   4.477   1.447   1.926  0.0586  0.4702 -0.5957
  987MOL0     C33143   4.400   1.332   1.914 -0.1691  0.5491 -0.4363
  987MOL0     C33144   4.274   1.310   1.985 -0.6199  0.5118  1.6214
  987MOL0     C33145   4.243   1.409   2.072  0.6635  0.0963 -0.1707
  987MOL0     O33146   4.125   1.400   2.140  0.3381 -0.9648  0.6771
  987MOL0     C33147   4.013   1.425   2.048  0.3382 -0.5316  0.2295
  987MOL0     C33148   3.876   1.422   2.109  0.1550 -0.3189 -0.9635
  987MOL0     C33149   3.855   1.520   2.230 -0.5870 -0.6848  0.4331
  987MOL0     C33150   3.906   1.485   2.366  0.5688  0.2216  0.1544
  987MOL0     C33151   3.920   1.608   2.463 -0.4949 -0.1745  0.3612
  987MOL0     C33152   3.971   1.551   2.601 -0.3855 -0.0059  0.4950
  987MOL0     C33153   4.101   1.476   2.598 -0.1244 -1.0546  0.2151
  987MOL0     C33154   4.144   1.441   2.738 -0.8060  0.5061 -0.5923
  987MOL0    Cl33155   4.046   1.325   2.825  0.1198  0.1584 -0.1153
  987MOL0     C33156   4.321   1.524   2.095 -0.5981 -0.6479  0.2584
  987MOL0     C33157   4.431   1.550   2.012 -0.1332  0.0715  0.4587
  987MOL0     O33158   4.723   1.431   2.043  0.0966 -0.2311  0.7212
  987MOL0     C33159   4.804   1.633   1.748  0.3550  0.0393  0.8910
  987MOL0     C33160   4.905   1.714   1.693  0.3526 -0.0767 -0.4346
  987MOL0     N33161   5.797   1.763   1.581 -0.6512 -0.6448  0.0553
  987MOL0     N33162   5.903   1.735   1.630  0.2470 -0.5064  0.5074
  987MOL0     C33163   6.651   2.349   2.010 -0.6456  0.5673  0.1383
  987MOL0     C33164   6.793   2.352   1.990  0.6958  0.1032  0.3890
  987MOL0     C33165   7.215   2.230   1.944  1.3436  1.1101  0.1002
  987MOL0     C33166   7.305   2.143   2.010  0.3887  0.2859  1.6868
  987MOL0     C33167   7.440   2.139   1.985 -0.1045 -0.6965 -0.3504
  987MOL0     C33168   7.498   2.239   1.897  0.5155 -0.6129 -0.5242
  987MOL0     O33169   7.629   2.231   1.875 -0.6170 -0.7436  0.3662
  987MOL0     C33170   7.686   2.361   1.840 -0.6573  0.0599 -0.2748
  987MOL0     C33171   7.842   2.339   1.796 -0.4400  0.6343  0.8855
  987MOL0     C33172   7.865   2.271   1.656 -0.6208  0.3634 -0.0492
  987MOL0     C33173   8.014   2.279   1.615  0.8241  0.1138  0.0735
  987MOL0     C33174   8.098   2.225   1.729  0.3944 -0.4084  0.5435
  987MOL0     C33175   8.175   2.188   1.816  0.6538  0.4147 -1.0735
  987MOL0     C33176   7.405   2.320   1.825  0.3327  0.3228 -0.3973
  987MOL0     C33177   7.270   2.322   1.851  0.0672 -0.1604 -0.6827
  987MOL0     H33178   6.798   2.137   1.729  1.1138  0.9680 -0.3927
  987MOL0     H33179   6.559   2.129   1.775 -0.7887  4.4609 -2.3512
  987MOL0     H33180   6.400   2.373   2.136 -3.3578  1.2554  1.3208
  987MOL0     H33181   6.376   2.468   1.986 -0.7950  0.3342  0.8028
  987MOL0     H33182   6.173   2.436   2.089  0.4318  0.4409 -1.1042
  987MOL0     H33183   6.171   2.353   1.933  0.9727 -1.4750  0.2029
  987MOL0     H33184   6.263   2.181   2.162 -0.3668 -0.8905  0.1003
  987MOL0     H33185   6.113   2.255   2.190  0.0620  1.3254 -0.9891
  987MOL0     H33186   6.027   2.158   1.969  0.8287  1.8189  1.2734
  987MOL0     H33187   6.183   2.091   1.948  1.5550 -1.1216 -0.1795
  987MOL0     H33188   6.135   1.958   2.163 -0.0939 -3.5261 -2.3822
  987MOL0     H33189   5.983   2.041   2.198 -0.0561  2.2454 -1.0638
  987MOL0     H33190   5.963   1.816   2.105  0.0586  0.5339  0.3869
  987MOL0     H33191   5.885   1.940   2.005 -1.3289 -1.0821  1.4458
  987MOL0     H33192   6.070   1.935   1.850  0.6151  1.8639  2.7698
  987MOL0     H33193   6.168   1.816   1.952 -0.7855 -4.9355 -3.3067
  987MOL0     H33194   5.975   1.647   1.936 -1.8094  0.8960  0.7220
  987MOL0     H33195   6.087   1.671   1.802  0.3374 -0.6399  1.8387
  987MOL0     H33196   5.722   1.820   1.889 -1.5788  0.1531 -1.0223
  987MOL0     H33197   5.560   1.878   1.530 -0.7008  2.4625  1.1477
  987MOL0     H33198   5.511   1.740   1.624 -0.3285 -0.4625  1.0158
  987MOL0     H33199   5.525   2.033   1.699  0.3364  1.7517  0.5978
  987MOL0     H33200   5.507   1.911   1.828  0.8696 -3.2425 -0.4804
  987MOL0     H33201   5.338   1.903   1.571 -1.3608 -1.6022  0.9562
  987MOL0     H33202   5.300   2.013   1.694 -0.8278 -0.7087  0.5099
  987MOL0     H33203   5.254   1.829   1.844 -0.0106 -1.3518  1.1451
  987MOL0     H33204   5.307   1.708   1.721  0.7605  0.4412  0.9954
  987MOL0     H33205   5.162   1.607   1.889 -2.0581 -0.7673  4.5118
  987MOL0     H33206   5.103   1.492   2.052 -0.4017  1.5394  1.2838
  987MOL0     H33207   4.948   1.504   2.125  3.1935 -0.1601  2.0675
  987MOL0     H33208   4.990   1.364   2.025 -1.1564  0.1601  0.5407
  987MOL0     H33209   4.437   1.252   1.851 -1.0377 -1.3057  1.2818
  987MOL0     H33210   4.212   1.222   1.968  2.7644 -1.7936  0.0437
  987MOL0     H33211   4.023   1.531   2.022  0.4603 -0.5650  0.1376
  987MOL0     H33212   4.013   1.358   1.961 -1.6116  2.2382 -2.1241
  987MOL0     H33213   3.793   1.443   2.041  1.0755  0.3512 -1.9147
  987MOL0     H33214   3.864   1.319   2.144 -1.5205  0.1914  0.1176
  987MOL0     H33215   3.750   1.545   2.247 -0.0948  1.0205  1.1873
  987MOL0     H33216   3.900   1.613   2.195 -1.2886 -1.0951 -1.6681
  987MOL0     H33217   3.840   1.413   2.415 -0.8482  0.9071 -0.7067
  987MOL0     H33218   4.004   1.439   2.349  1.8260  3.5184 -2.7478
  987MOL0     H33219   3.824   1.658   2.472 -0.6981  0.0708 -2.2550
  987MOL0     H33220   3.988   1.684   2.424  1.0827 -1.1430  1.1252
  987MOL0     H33221   3.980   1.639   2.665 -1.1320 -0.7386  1.6453
  987MOL0     H33222   3.899   1.479   2.643 -2.2081  1.0899 -0.5835
  987MOL0     H33223   4.173   1.528   2.534 -0.6408  1.3058  1.4825
  987MOL0     H33224   4.076   1.379   2.554 -2.2381 -1.9776  3.1924
  987MOL0     H33225   4.127   1.536   2.790 -3.6996 -0.3359  0.2264
  987MOL0     H33226   4.241   1.391   2.743 -2.3844 -2.6967  0.9111
  987MOL0     H33227   4.296   1.595   2.173 -0.2060 -1.4408  1.1268
  987MOL0     H33228   4.475   1.648   2.024  1.0621 -0.3979  0.0677
  987MOL0     H33229   4.702   1.634   1.712 -0.1704  0.4975  2.3478
  987MOL0     H33230   4.903   1.788   1.613  2.3227  1.1353  0.5537
  987MOL0     H33231   6.622   2.410   2.094  2.9416  0.2730  1.7947
  987MOL0     H33232   6.865   2.403   2.053  0.3983  0.7373  0.2262
  987MOL0     H33233   7.268   2.069   2.080  0.0667 -0.4348  0.7750
  987MOL0     H33234   7.506   2.074   2.042 -1.5667  0.1178  2.4420
  987MOL0     H33235   7.638   2.417   1.759  0.7289  0.1383 -1.0617
  987MOL0     H33236   7.687   2.419   1.933 -1.6874 -0.8309  0.3052
  987MOL0     H33237   7.889   2.293   1.884  0.0638 -0.1515  0.2284
  987MOL0     H33238   7.889   2.437   1.783 -2.1968  1.3082 -0.8294
  987MOL0     H33239   7.795   2.313   1.583  0.9877  0.7751 -1.3987
  987MOL0     H33240   7.846   2.164   1.670  0.8972 -0.1428 -1.5371
  987MOL0     H33241   8.036   2.385   1.604 -1.7216  0.6625 -0.4407
  987MOL0     H33242   8.037   2.226   1.522  1.1715 -0.0570  0.2532
  987MOL0     H33243   8.230   2.171   1.907  1.6930 -2.1511 -2.0837
  987MOL0     H33244   7.435   2.389   1.747 -0.3847 -0.3097 -1.2635
  987MOL0     H33245   7.215   2.403   1.804  4.3639  2.7694 -1.3442
  988MOL0     O33246  10.752   4.896   4.099 -0.2260  0.8135  0.1788
  988MOL0     C33247  10.713   4.832   4.195 -0.3830  0.4812  1.6050
  988MOL0     O33248  10.736   4.701   4.219  0.1124 -0.5070 -0.6212
  988MOL0     C33249  10.800   4.626   4.121  0.4038 -0.3038 -0.8819
  988MOL0     C33250  10.783   4.643   3.986 -0.8542  0.5229  0.0914
  988MOL0     C33251  10.853   4.564   3.889 -0.6522 -0.6638 -0.2600
  988MOL0     C33252  10.945   4.470   3.934  0.2122  0.6180 -0.4251
  988MOL0     O33253  11.020   4.391   3.851 -0.2594 -0.4120  0.8809
  988MOL0     C33254  11.007   4.391   3.707 -0.5234  0.7864  0.9811
  988MOL0     C33255  11.082   4.263   3.663 -0.1539  0.5932 -0.1763
  988MOL0     C33256  11.031   4.141   3.741  0.2769 -0.5486  0.1979
  988MOL0     C33257  11.084   4.009   3.682 -0.0922 -0.2759  0.0789
  988MOL0     C33258  11.057   3.878   3.768  0.3604  0.0998  0.5748
  988MOL0     C33259  10.903   3.848   3.793 -0.5946  0.1505 -0.0330
  988MOL0     C33260  10.894   3.699   3.833 -0.0467  0.5959 -1.2338
  988MOL0     C33261  10.966   3.665   3.958  0.1192  0.3467 -0.4298
  988MOL0     N33262  10.909   3.732   4.085 -0.1668  0.4032  0.2122
  988MOL0     C33263  10.932   3.861   4.118 -0.0152 -0.8914  0.1743
  988MOL0     C33264  10.885   3.874   4.243 -0.0532 -0.0594  0.6804
  988MOL0     C33265  10.880   4.002   4.337 -0.4723  0.4536  0.9966
  988MOL0     C33266  10.740   4.030   4.378  0.6026 -0.5324 -0.3461
  988MOL0     C33267  10.730   4.167   4.448 -0.0772  0.3015 -0.5658
  988MOL0     C33268  10.747   4.298   4.362 -0.3264 -0.4297  0.1980
  988MOL0     O33269  10.626   4.326   4.288 -0.0270 -0.0965 -0.7213
  988MOL0     C33270  10.536   4.420   4.340  0.6482  0.1590  0.4817
  988MOL0     C33271  10.523   4.453   4.472  0.2121 -0.2538  0.3850
  988MOL0     C33272  10.426   4.537   4.521  0.2627  0.5442  0.1295
  988MOL0     C33273  10.415   4.553   4.660 -0.1661  0.5334 -0.3146
  988MOL0     C33274  10.338   4.600   4.424  0.2013 -0.8142 -0.3970
  988MOL0     C33275  10.233   4.697   4.456  0.1515 -1.0267  0.2153
  988MOL0     O33276  10.161   4.751   4.351 -0.9804 -0.2580 -0.2660
  988MOL0     C33277  10.075   4.855   4.381  0.2181  0.8204 -0.5762
  988MOL0     C33278  10.111   4.992   4.384 -0.4339  0.3087 -0.3283
  988MOL0     C33279  10.021   5.101   4.410 -0.2153 -0.5003  0.3486
  988MOL0     C33280   9.887   5.061   4.436 -0.9210 -0.5016 -0.7047
  988MOL0     O33281   9.792   5.148   4.484 -0.1505 -0.1769  0.4312
  988MOL0     C33282   9.797   5.294   4.458 -0.4015 -0.2985 -0.5113
  988MOL0     C33283   9.779   5.328   4.306  0.1336  0.0262 -0.0339
  988MOL0     C33284   9.774   5.476   4.281 -0.3653 -0.6861 -0.0495
  988MOL0     C33285   9.724   5.520   4.145 -0.1840 -0.3331  0.0788
  988MOL0     C33286   9.772   5.659   4.095 -1.2140 -0.1025  0.2178
  988MOL0     C33287   9.685   5.775   4.132  0.1935  0.7805 -0.4785
  988MOL0     C33288   9.749   5.898   4.073 -0.2593 -0.8808 -0.2006
  988MOL0     C33289   9.682   6.028   4.103  0.3969 -0.6158 -0.1469
  988MOL0    Cl33290   9.656   6.074   4.264  0.1917 -0.2621 -0.6784
  988MOL0     C33291   9.847   4.925   4.434  0.1476 -0.0996 -0.3449
  988MOL0     C33292   9.938   4.823   4.402  0.0260  0.1689  0.6219
  988MOL0     O33293  10.221   4.730   4.575 -0.0095  0.3919  0.1201
  988MOL0     C33294  10.357   4.570   4.292 -0.1111 -0.3964  0.2687
  988MOL0     C33295  10.456   4.486   4.244 -0.1917  0.1142 -0.1137
  988MOL0     N33296  10.852   3.745   4.286 -0.0393  0.0929 -0.2459
  988MOL0     N33297  10.883   3.661   4.194  0.2906 -0.1747 -0.3133
  988MOL0     C33298  10.959   4.454   4.077  0.2326 -0.0250 -0.4756
  988MOL0     C33299  10.887   4.526   4.168 -0.8063  0.3837 -0.1751
  988MOL0     C33300  10.649   4.905   4.293  1.0765 -0.4716 -0.2502
  988MOL0     C33301  10.583   4.844   4.406  0.4750 -0.3345 -0.2536
  988MOL0     C33302  10.515   4.924   4.505 -0.5636 -0.0467 -0.2932
  988MOL0     C33303  10.520   5.068   4.484  0.6989  0.3498 -0.1288
  988MOL0     O33304  10.460   5.148   4.577 -0.2674 -0.3157 -0.2825
  988MOL0     C33305  10.344   5.110   4.656 -0.2669 -0.2343 -0.1118
  988MOL0     C33306  10.275   5.242   4.689 -0.1651  0.8737 -0.2348
  988MOL0     C33307  10.146   5.196   4.751 -0.2137 -0.1824 -1.0511
  988MOL0     C33308  10.069   5.326   4.784  0.8516  0.2898  0.5382
  988MOL0     C33309   9.923   5.320   4.774  0.1869  0.4010 -0.3671
  988MOL0     C33310   9.803   5.310   4.787  0.4227  0.0072  0.3562
  988MOL0     C33311  10.588   5.122   4.382 -0.8249 -0.2541  0.2020
  988MOL0     C33312  10.651   5.046   4.292  0.4395  0.2765  0.3749
  988MOL0     H33313  10.710   4.718   3.957  0.0993  1.7156  0.6753
  988MOL0     H33314  10.838   4.565   3.781  2.5723 -1.0370 -0.8211
  988MOL0     H33315  10.908   4.380   3.661  0.0485  2.3733 -0.7367
  988MOL0     H33316  11.053   4.483   3.669  1.8974  0.3439  2.6176
  988MOL0     H33317  11.051   4.239   3.561 -2.2948 -0.9342  0.7349
  988MOL0     H33318  11.191   4.268   3.667 -0.0134 -1.6289  0.0191
  988MOL0     H33319  11.052   4.147   3.848 -2.9107  0.9326  0.8863
  988MOL0     H33320  10.921   4.136   3.743  0.2214 -1.7453 -2.1980
  988MOL0     H33321  11.028   4.003   3.588 -0.7368  2.2062  0.2275
  988MOL0     H33322  11.191   4.017   3.659 -0.3601  0.9091 -0.8800
  988MOL0     H33323  11.108   3.788   3.733 -1.2150 -1.1271  1.3080
  988MOL0     H33324  11.100   3.895   3.867 -0.7320  1.8594  0.7854
  988MOL0     H33325  10.872   3.927   3.862  0.3260  1.6252 -1.2554
  988MOL0     H33326  10.842   3.860   3.703 -2.3298  1.1913  1.2042
  988MOL0     H33327  10.789   3.673   3.851  0.7048 -1.8832  0.0380
  988MOL0     H33328  10.937   3.643   3.750  1.3477 -1.4023  0.7267
  988MOL0     H33329  11.074   3.686   3.954  0.5076 -0.8983  2.0510
  988MOL0     H33330  10.962   3.558   3.977 -0.0185  0.8507  3.0101
  988MOL0     H33331  10.974   3.941   4.058  0.8116 -2.3106 -1.2079
  988MOL0     H33332  10.941   3.982   4.426 -0.7022 -1.2415  0.7994
  988MOL0     H33333  10.930   4.089   4.293 -2.1529  3.3457  4.2221
  988MOL0     H33334  10.712   3.954   4.451 -3.3621  1.8796  0.9854
  988MOL0     H33335  10.671   4.015   4.295 -1.4508 -0.5482  1.2913
  988MOL0     H33336  10.809   4.162   4.523 -2.2592 -0.5023  1.8136
  988MOL0     H33337  10.635   4.165   4.502  0.3734  2.6653  0.4526
  988MOL0     H33338  10.831   4.297   4.292 -0.0025 -0.7196  0.5826
  988MOL0     H33339  10.782   4.380   4.426 -1.5378  0.3662 -0.1279
  988MOL0     H33340  10.573   4.393   4.547 -0.2032 -2.1378 -0.7808
  988MOL0     H33341  10.476   4.480   4.714  0.6799  1.9632  0.7290
  988MOL0     H33342  10.442   4.650   4.701  2.6306 -1.1227  2.1581
  988MOL0     H33343  10.313   4.531   4.693 -0.6038  2.2664 -0.4266
  988MOL0     H33344  10.214   5.008   4.354  0.5283 -2.5739  1.0420
  988MOL0     H33345  10.054   5.203   4.421 -0.9693 -0.3321  1.1413
  988MOL0     H33346   9.712   5.338   4.511 -0.4406 -1.9145  0.8591
  988MOL0     H33347   9.891   5.336   4.495 -1.3701  0.9542  0.6151
  988MOL0     H33348   9.865   5.276   4.263  1.2154 -0.4467  2.5071
  988MOL0     H33349   9.684   5.283   4.276 -1.4493  2.2577  1.3731
  988MOL0     H33350   9.880   5.503   4.285 -0.7219  0.9439 -0.7082
  988MOL0     H33351   9.709   5.532   4.349 -1.7891  1.7766 -3.1767
  988MOL0     H33352   9.771   5.444   4.082  1.9236 -0.4151  1.6326
  988MOL0     H33353   9.616   5.510   4.134 -0.4449 -1.4555  2.7483
  988MOL0     H33354   9.782   5.658   3.987  0.5957  0.8478  0.3477
  988MOL0     H33355   9.875   5.679   4.125 -0.9794 -1.0313  0.0539
  988MOL0     H33356   9.584   5.752   4.097  0.5706 -0.1649 -1.0027
  988MOL0     H33357   9.679   5.793   4.240 -1.0672  1.3246 -0.6260
  988MOL0     H33358   9.742   5.893   3.964 -2.3101 -1.1230 -0.1017
  988MOL0     H33359   9.855   5.904   4.097 -0.0161  0.5443 -1.4797
  988MOL0     H33360   9.592   6.034   4.041 -0.4061 -1.7547  0.8686
  988MOL0     H33361   9.744   6.105   4.055  2.6182  0.5223  4.0588
  988MOL0     H33362   9.746   4.893   4.456  0.3120 -3.7938 -3.7343
  988MOL0     H33363   9.895   4.724   4.411  0.8260 -0.1933  0.5115
  988MOL0     H33364  10.293   4.621   4.220  0.3564  1.3573  1.0503
  988MOL0     H33365  10.458   4.463   4.138  1.8734  1.0645 -0.3160
  988MOL0     H33366  11.036   4.384   4.108  0.7127  0.4357 -0.6239
  988MOL0     H33367  10.907   4.510   4.273 -6.2844  4.1620  1.9725
  988MOL0     H33368  10.588   4.737   4.425 -2.7167 -0.9256 -2.0244
  988MOL0     H33369  10.470   4.871   4.587 -0.1418  0.9995  0.6367
  988MOL0     H33370  10.284   5.045   4.592 -0.3178  1.4612 -1.8625
  988MOL0     H33371  10.379   5.047   4.739  4.0303  0.6306 -1.0422
  988MOL0     H33372  10.256   5.309   4.605 -0.6738  0.3883 -0.5112
  988MOL0     H33373  10.330   5.306   4.759 -0.6898 -0.7109  1.7291
  988MOL0     H33374  10.162   5.133   4.839 -0.4080 -0.0982 -0.9525
  988MOL0     H33375  10.086   5.133   4.685 -1.6131 -1.0208  0.9397
  988MOL0     H33376  10.091   5.399   4.706 -0.4530 -1.7186 -1.8272
  988MOL0     H33377  10.103   5.371   4.878  0.0084  1.7220  0.1851
  988MOL0     H33378   9.699   5.310   4.810  0.5498  2.8474  1.2542
  988MOL0     H33379  10.607   5.229   4.375  1.7075 -0.6745 -0.1233
  988MOL0     H33380  10.693   5.106   4.212  1.1629  0.3678  0.8163
  989MOL0     O33381  10.138   7.202  10.644  0.2089 -1.3801 -0.2503
  989MOL0     C33382  10.191   7.098  10.610  0.5873 -0.1407 -1.8601
  989MOL0     O33383  10.130   6.974  10.566  0.2219  0.0266  0.1008
  989MOL0     C33384  10.006   6.996  10.510  0.5557 -0.8056 -0.5525
  989MOL0     C33385   9.988   6.990  10.377 -0.6315 -0.6145 -0.1431
  989MOL0     C33386   9.861   7.014  10.327  0.1406  0.7553  1.3471
  989MOL0     C33387   9.747   7.041  10.403  0.7472 -0.4119  0.1116
  989MOL0     O33388   9.630   7.074  10.347  0.2643 -0.0998  0.2839
  989MOL0     C33389   9.592   7.002  10.227 -0.5916 -0.2653  0.3569
  989MOL0     C33390   9.444   6.986  10.220  0.5650 -0.1048  0.6165
  989MOL0     C33391   9.405   6.971  10.064 -0.0726  0.0558 -0.1782
  989MOL0     C33392   9.252   6.977  10.047  0.3983 -0.2514  0.1178
  989MOL0     C33393   9.204   6.963   9.903  0.2317  0.4035  0.4041
  989MOL0     C33394   9.255   6.832   9.833 -0.0185  0.5829  0.3598
  989MOL0     C33395   9.216   6.825   9.687  0.7377  0.3438  1.2469
  989MOL0     C33396   9.228   6.686   9.620  0.8127  0.8288  0.0201
  989MOL0     N33397   9.192   6.686   9.483  0.8540  0.7521 -0.0076
  989MOL0     C33398   9.057   6.670   9.442  0.3519 -0.4858 -0.1549
  989MOL0     C33399   9.068   6.695   9.314  0.1539 -0.3549 -0.8780
  989MOL0     C33400   8.949   6.688   9.209 -0.0876  0.4125 -0.2466
  989MOL0     C33401   8.884   6.556   9.204  0.1046 -0.4876  0.3323
  989MOL0     C33402   8.852   6.523   9.057  0.3970  0.2140 -0.2128
  989MOL0     C33403   8.764   6.404   9.040 -0.7994  0.1284  0.3528
  989MOL0     O33404   8.635   6.418   9.104 -0.2375  0.2445  0.5811
  989MOL0     C33405   8.549   6.310   9.074  0.2172  0.5549  0.4975
  989MOL0     C33406   8.580   6.187   9.027  0.0081  0.2489  0.6409
  989MOL0     C33407   8.477   6.098   8.981 -0.0436 -0.0137  0.1526
  989MOL0     C33408   8.528   5.972   8.921 -0.0796 -0.5967  0.2255
  989MOL0     C33409   8.338   6.131   9.006  0.4301  0.6127 -0.7464
  989MOL0     C33410   8.229   6.048   8.955  1.2613  0.1631  0.0403
  989MOL0     O33411   8.105   6.062   9.023 -0.8656 -0.4104  0.0254
  989MOL0     C33412   7.982   6.022   8.969  0.1517  0.0369  0.6194
  989MOL0     C33413   7.941   6.051   8.841  0.2606  0.3454 -0.3993
  989MOL0     C33414   7.834   5.984   8.785  0.1134 -0.6303 -0.9926
  989MOL0     C33415   7.756   5.880   8.860 -0.2271 -0.9038  0.9534
  989MOL0     O33416   7.657   5.802   8.806 -0.6281 -0.0856  0.6185
  989MOL0     C33417   7.634   5.817   8.664  0.0213 -0.4351  0.3443
  989MOL0     C33418   7.515   5.711   8.637  0.2219 -0.5037  0.1449
  989MOL0     C33419   7.391   5.725   8.735 -0.0486  0.1645 -0.2234
  989MOL0     C33420   7.274   5.635   8.696  0.4072 -0.2603 -0.3390
  989MOL0     C33421   7.164   5.664   8.791 -0.3140 -0.5962  0.4815
  989MOL0     C33422   7.056   5.569   8.741 -0.6229 -0.0537  0.5054
  989MOL0     C33423   6.926   5.588   8.817 -0.5273  0.1361  0.0299
  989MOL0     C33424   6.817   5.486   8.794  0.0889 -0.0916  0.1400
  989MOL0    Cl33425   6.854   5.316   8.846 -0.4848 -0.2310  0.2539
  989MOL0     C33426   7.798   5.851   8.986  0.0322 -1.0385 -0.4851
  989MOL0     C33427   7.906   5.926   9.034 -0.2321  0.5968 -0.6311
  989MOL0     O33428   8.254   5.960   8.877  0.2445  0.4216  0.5870
  989MOL0     C33429   8.307   6.259   9.054 -0.9819  1.0838 -0.6289
  989MOL0     C33430   8.415   6.344   9.091  0.6712  0.7435 -0.2313
  989MOL0     N33431   9.198   6.714   9.285  0.5598 -0.2159  0.2408
  989MOL0     N33432   9.279   6.695   9.386  0.1079 -0.1030 -0.3930
  989MOL0     C33433   9.760   7.029  10.537  0.9640 -0.3272  0.3168
  989MOL0     C33434   9.887   7.009  10.589  0.5159 -0.1977 -0.2978
  989MOL0     C33435  10.336   7.092  10.624  0.4552  0.6665  0.2363
  989MOL0     C33436  10.409   7.208  10.650  0.1035  0.3854  0.2740
  989MOL0     C33437  10.543   7.205  10.670  0.2334  0.7683  0.8285
  989MOL0     C33438  10.618   7.094  10.631 -0.0440  0.7957 -0.4066
  989MOL0     O33439  10.756   7.096  10.616 -0.3525 -0.5792 -0.4808
  989MOL0     C33440  10.825   7.086  10.742 -0.0709  0.2178 -0.3477
  989MOL0     C33441  10.898   6.950  10.749 -0.4580  0.1029 -0.7553
  989MOL0     C33442  10.999   6.952  10.869  0.9043  0.1463  0.4028
  989MOL0     C33443  11.042   6.809  10.907  0.4803  0.3240 -0.3836
  989MOL0     C33444  10.939   6.734  10.986 -0.2901 -0.8365  0.4935
  989MOL0     C33445  10.871   6.671  11.059 -0.6307  0.6809 -0.0120
  989MOL0     C33446  10.545   6.970  10.610  0.9457 -0.4975 -0.2704
  989MOL0     C33447  10.405   6.969  10.611  0.0395 -0.7102  0.3333
  989MOL0     H33448  10.072   6.990  10.308  0.2905  0.1787  0.9438
  989MOL0     H33449   9.865   7.008  10.219 -0.4058  1.4093  1.2819
  989MOL0     H33450   9.633   7.055  10.141 -0.2335  2.0006  1.8683
  989MOL0     H33451   9.637   6.903  10.213 -1.3310 -0.2197 -3.4685
  989MOL0     H33452   9.416   6.895  10.274  0.0632  0.5939  1.5689
  989MOL0     H33453   9.398   7.071  10.273  1.0433 -1.1075  2.7822
  989MOL0     H33454   9.454   7.051  10.008 -2.1692  1.2509 -0.4095
  989MOL0     H33455   9.427   6.871  10.026 -2.0733 -0.7375  0.6211
  989MOL0     H33456   9.211   6.888  10.095  1.4758 -1.1339 -0.5586
  989MOL0     H33457   9.216   7.060  10.109  0.4775 -2.7843  3.9412
  989MOL0     H33458   9.095   6.957   9.909  0.0555  2.4959  0.1690
  989MOL0     H33459   9.224   7.055   9.847 -2.8207  0.7231 -0.3603
  989MOL0     H33460   9.364   6.834   9.838  0.0676 -0.4417 -0.8635
  989MOL0     H33461   9.224   6.745   9.891 -1.0626  0.4561 -0.3531
  989MOL0     H33462   9.115   6.866   9.682  0.2458 -0.9930 -0.3125
  989MOL0     H33463   9.271   6.889   9.617 -2.6393 -0.9620 -3.0299
  989MOL0     H33464   9.162   6.614   9.669  2.0155 -0.6712 -0.4964
  989MOL0     H33465   9.331   6.650   9.621  0.1203 -1.3777 -1.1906
  989MOL0     H33466   8.970   6.654   9.504 -0.4592  0.4719 -1.0171
  989MOL0     H33467   8.871   6.760   9.234  0.7266  1.2682 -0.0915
  989MOL0     H33468   8.996   6.717   9.115 -0.9153 -0.4204 -0.9421
  989MOL0     H33469   8.789   6.557   9.257 -0.8349  1.0695 -1.2732
  989MOL0     H33470   8.952   6.479   9.245 -0.0604 -0.3909  0.7968
  989MOL0     H33471   8.947   6.507   9.004  1.1410  3.2021  0.0280
  989MOL0     H33472   8.800   6.607   9.010 -3.1051 -1.8664 -0.3720
  989MOL0     H33473   8.815   6.317   9.083 -0.4813 -0.1416 -0.5386
  989MOL0     H33474   8.760   6.383   8.932  2.3534  1.2028 -0.0925
  989MOL0     H33475   8.680   6.147   9.012 -0.0339  0.2561  0.3481
  989MOL0     H33476   8.633   5.945   8.938  1.6786  4.9744  0.2942
  989MOL0     H33477   8.469   5.884   8.947 -2.7997  0.9748 -0.3203
  989MOL0     H33478   8.527   5.981   8.812 -1.0245  1.4569  0.3482
  989MOL0     H33479   7.993   6.126   8.783 -0.8609  0.5800 -1.1295
  989MOL0     H33480   7.797   6.014   8.688  0.8608  1.0023 -0.8065
  989MOL0     H33481   7.586   5.915   8.664 -0.1162 -0.5021  0.4625
  989MOL0     H33482   7.719   5.807   8.595 -1.9097  1.2148 -2.4582
  989MOL0     H33483   7.485   5.722   8.533  3.2082 -0.4597 -0.8137
  989MOL0     H33484   7.564   5.613   8.640  2.9918  0.7862  1.2513
  989MOL0     H33485   7.367   5.831   8.734  3.0248  1.0130 -2.4462
  989MOL0     H33486   7.424   5.689   8.833  2.3073 -0.3560 -1.1398
  989MOL0     H33487   7.239   5.646   8.593  0.0519 -2.4810 -0.5109
  989MOL0     H33488   7.293   5.527   8.703 -0.7481 -0.4491  0.1065
  989MOL0     H33489   7.136   5.769   8.787  1.9296  0.0518 -3.0692
  989MOL0     H33490   7.201   5.639   8.892 -0.5500 -1.0112  0.4674
  989MOL0     H33491   7.015   5.583   8.640  1.5728  0.0777 -0.4236
  989MOL0     H33492   7.094   5.467   8.748  4.7180  1.4132 -1.7672
  989MOL0     H33493   6.881   5.685   8.795 -0.6079  0.1860  0.4100
  989MOL0     H33494   6.951   5.578   8.923  0.1748 -2.8872 -0.2987
  989MOL0     H33495   6.791   5.477   8.688 -0.4152 -0.7149  0.3066
  989MOL0     H33496   6.722   5.513   8.842  0.1242 -1.9202  1.3082
  989MOL0     H33497   7.741   5.780   9.045 -1.8715  1.2081  0.5503
  989MOL0     H33498   7.937   5.879   9.128  0.9825 -1.2773 -1.8891
  989MOL0     H33499   8.205   6.279   9.085 -1.6661 -3.5912  0.9299
  989MOL0     H33500   8.410   6.445   9.130  2.3893  1.0622 -0.7333
  989MOL0     H33501   9.670   7.040  10.597  0.4093  0.0076 -0.5723
  989MOL0     H33502   9.905   7.014  10.696  3.2921 -0.1894 -0.6724
  989MOL0     H33503  10.362   7.302  10.677 -2.1659 -0.8069  0.7288
  989MOL0     H33504  10.607   7.288  10.698 -1.1915  1.8927  0.9087
  989MOL0     H33505  10.895   7.171  10.751 -0.2003  0.4218 -1.1695
  989MOL0     H33506  10.756   7.082  10.827 -2.8948 -0.6097 -2.5386
  989MOL0     H33507  10.965   6.929  10.666  2.1050 -3.9940  1.9649
  989MOL0     H33508  10.829   6.866  10.761 -0.4926  0.0053 -1.5800
  989MOL0     H33509  10.954   7.014  10.947 -2.6025 -0.0069 -1.3309
  989MOL0     H33510  11.087   7.000  10.824 -1.4222  2.4872 -2.0126
  989MOL0     H33511  11.118   6.819  10.985 -0.4068  1.2831  0.3801
  989MOL0     H33512  11.088   6.755  10.823 -1.4216 -2.6739  0.3212
  989MOL0     H33513  10.808   6.618  11.128 -1.8338 -0.3267 -1.7713
  989MOL0     H33514  10.611   6.889  10.580  1.3297  0.4126 -1.9919
  989MOL0     H33515  10.358   6.874  10.587  1.4577 -1.6124  0.9917
  990MOL0     O33516   5.053   5.869  11.251  0.1455  0.5424 -0.0365
  990MOL0     C33517   5.117   5.975  11.233 -1.4621  0.4022 -0.9966
  990MOL0     O33518   5.073   6.081  11.168  0.3567 -0.2954 -0.3203
  990MOL0     C33519   4.947   6.071  11.118  0.4674 -0.6010 -1.4449
  990MOL0     C33520   4.868   6.189  11.127 -0.9971 -0.6287  0.9114
  990MOL0     C33521   4.739   6.196  11.074  0.7768 -0.7829 -0.3011
  990MOL0     C33522   4.690   6.099  10.991  0.4513  0.3578  0.2917
  990MOL0     O33523   4.563   6.106  10.939 -0.5095 -0.2358  0.4242
  990MOL0     C33524   4.457   6.183  11.000  0.8365 -0.1731  0.3763
  990MOL0     C33525   4.391   6.112  11.115 -0.8166 -0.9256  0.0972
  990MOL0     C33526   4.233   6.130  11.111  0.3917  0.0108 -0.7241
  990MOL0     C33527   4.158   6.042  11.211 -0.0869 -0.5419  0.9269
  990MOL0     C33528   4.013   6.068  11.222 -0.1197  0.1816 -0.1225
  990MOL0     C33529   3.934   5.960  11.288  0.5792  0.4040  0.0539
  990MOL0     C33530   3.790   5.993  11.324 -0.6602  0.0386 -0.7482
  990MOL0     C33531   3.705   5.885  11.385  0.2376 -0.1185 -0.1132
  990MOL0     N33532   3.569   5.934  11.401  0.7570  0.3372 -0.5903
  990MOL0     C33533   3.528   6.015  11.505 -0.7833  0.3798  0.6701
  990MOL0     C33534   3.398   6.043  11.480 -0.2065  0.2425  0.0050
  990MOL0     C33535   3.315   6.142  11.565 -0.3192  0.6485  0.4115
  990MOL0     C33536   3.248   6.238  11.468 -0.5940 -0.4617 -0.0565
  990MOL0     C33537   3.168   6.349  11.539  0.1268 -0.1312  0.7477
  990MOL0     C33538   3.030   6.302  11.590  0.3369 -0.4193  0.1901
  990MOL0     O33539   2.939   6.267  11.484  0.2930 -0.2507  0.5010
  990MOL0     C33540   2.867   6.366  11.421 -0.2039 -0.0248 -0.8788
  990MOL0     C33541   2.876   6.373  11.280  0.0614 -0.4348 -0.5049
  990MOL0     C33542   2.802   6.462  11.206 -0.7133 -0.2648  0.8176
  990MOL0     C33543   2.825   6.462  11.056  0.3015 -0.2653  0.9194
  990MOL0     C33544   2.709   6.546  11.275  0.4551  0.9948 -0.0133
  990MOL0     C33545   2.620   6.650  11.208 -0.2876  0.6033 -0.1633
  990MOL0     O33546   2.494   6.655  11.265 -0.6172 -0.0311  0.0212
  990MOL0     C33547   2.400   6.730  11.206  0.5063 -0.3431 -0.1041
  990MOL0     C33548   2.318   6.678  11.099  0.1918  1.4828  0.1836
  990MOL0     C33549   2.210   6.754  11.048  0.6126 -1.2727  0.6830
  990MOL0     C33550   2.175   6.873  11.113  0.4599  1.5028 -0.1112
  990MOL0     O33551   2.060   6.941  11.082 -0.3449 -0.5709  0.5663
  990MOL0     C33552   2.058   7.091  11.079 -0.1344  0.0644 -0.2192
  990MOL0     C33553   1.924   7.127  11.014  0.5017  0.0672 -0.0343
  990MOL0     C33554   1.795   7.058  11.081 -0.6950 -0.1005 -0.2657
  990MOL0     C33555   1.653   7.091  11.020  0.3755  1.4668 -0.3176
  990MOL0     C33556   1.558   7.019  11.121  0.0987  0.2529  0.1455
  990MOL0     C33557   1.414   7.059  11.100  0.8764 -0.7152  0.5460
  990MOL0     C33558   1.349   7.028  10.966 -0.0639  0.0594 -0.5464
  990MOL0     C33559   1.306   6.876  10.973  0.4657 -0.5647 -0.2251
  990MOL0    Cl33560   1.190   6.834  10.850  0.0560 -0.0505 -0.0644
  990MOL0     C33561   2.256   6.917  11.223 -0.2926 -0.3806  0.4013
  990MOL0     C33562   2.370   6.851  11.259 -0.5102  0.5512 -0.3856
  990MOL0     O33563   2.663   6.716  11.111 -0.1728  0.8108 -1.0998
  990MOL0     C33564   2.698   6.526  11.404  0.0657 -0.5004  0.6464
  990MOL0     C33565   2.771   6.443  11.484 -0.8493 -0.8484 -0.1365
  990MOL0     N33566   3.361   5.959  11.366  0.4945  0.7531  0.1319
  990MOL0     N33567   3.470   5.895  11.326 -0.5275  0.7049  0.3894
  990MOL0     C33568   4.775   5.991  10.963 -0.4550 -0.0310 -0.0541
  990MOL0     C33569   4.897   5.975  11.027 -0.0972  0.5692 -0.3792
  990MOL0     C33570   5.246   5.991  11.303 -0.1839 -0.6703 -0.7791
  990MOL0     C33571   5.301   6.118  11.323  0.4617 -0.3439  0.4339
  990MOL0     C33572   5.417   6.133  11.408 -0.4456 -0.0724  0.0878
  990MOL0     C33573   5.497   6.019  11.447  0.2264 -0.5686  0.2748
  990MOL0     O33574   5.599   6.047  11.537  0.9172 -0.0266  0.0301
  990MOL0     C33575   5.655   5.931  11.615  0.4242 -0.6094  0.2205
  990MOL0     C33576   5.776   5.973  11.698 -0.5546  0.4810 -0.1693
  990MOL0     C33577   5.897   5.989  11.606 -1.2886 -0.3257  0.9183
  990MOL0     C33578   5.982   5.866  11.603  0.1939 -0.3333 -0.8261
  990MOL0     C33579   6.090   5.877  11.510  0.1278  0.0560  0.1494
  990MOL0     C33580   6.187   5.864  11.431  1.4478  0.2502 -0.9057
  990MOL0     C33581   5.447   5.892  11.411 -0.2253  0.3261 -0.1256
  990MOL0     C33582   5.318   5.883  11.359 -0.0745  1.7886  0.5271
  990MOL0     H33583   4.901   6.261  11.201  0.2591 -0.7293  0.4708
  990MOL0     H33584   4.676   6.283  11.085 -0.6243 -1.5228 -1.9861
  990MOL0     H33585   4.486   6.288  11.014  1.4567  0.5639 -4.7144
  990MOL0     H33586   4.391   6.201  10.915  0.5115 -1.6375  0.2904
  990MOL0     H33587   4.410   6.006  11.099 -1.0062 -0.9776  0.2054
  990MOL0     H33588   4.432   6.130  11.214 -0.3442 -0.3244 -0.2029
  990MOL0     H33589   4.206   6.234  11.131 -1.0143 -0.4916  0.1611
  990MOL0     H33590   4.200   6.109  11.008 -1.6227  0.0840 -0.1307
  990MOL0     H33591   4.160   5.936  11.181 -3.8972 -1.6251  3.7205
  990MOL0     H33592   4.205   6.051  11.309 -2.3002 -0.8878  2.0741
  990MOL0     H33593   3.994   6.157  11.283 -1.0336 -0.2595  0.2518
  990MOL0     H33594   3.963   6.094  11.128 -0.1132 -3.6409 -1.3494
  990MOL0     H33595   3.927   5.876  11.218  2.3694  0.8708 -0.7683
  990MOL0     H33596   3.991   5.931  11.376 -0.5971 -1.8277  0.1304
  990MOL0     H33597   3.787   6.060  11.410 -0.0873  2.0688 -2.2466
  990MOL0     H33598   3.741   6.043  11.241  1.8426  3.7257 -0.2383
  990MOL0     H33599   3.739   5.871  11.488 -0.7944  3.5221  0.8637
  990MOL0     H33600   3.707   5.797  11.320 -0.2507 -1.5904  1.7693
  990MOL0     H33601   3.595   6.068  11.571 -0.0354 -0.6579  0.7792
  990MOL0     H33602   3.248   6.085  11.631  2.8184 -2.2536  1.4053
  990MOL0     H33603   3.375   6.207  11.630 -0.0574  3.6918 -2.6051
  990MOL0     H33604   3.175   6.194  11.399 -1.7336 -1.9679  1.9680
  990MOL0     H33605   3.327   6.287  11.411 -2.2273 -0.5997 -2.6378
  990MOL0     H33606   3.149   6.421  11.459 -0.6807 -1.1291  0.0167
  990MOL0     H33607   3.236   6.407  11.603  1.3810  1.7124 -2.0330
  990MOL0     H33608   2.987   6.366  11.668  2.7593 -1.3291  2.4592
  990MOL0     H33609   3.038   6.211  11.649  0.8581  0.4339  1.4900
  990MOL0     H33610   2.939   6.293  11.243  2.0587  0.8688 -0.0963
  990MOL0     H33611   2.876   6.374  11.018 -2.9268 -0.9862 -2.2711
  990MOL0     H33612   2.725   6.455  11.013 -1.2780  2.3134  3.7443
  990MOL0     H33613   2.866   6.561  11.034 -1.4613  0.4517  0.6559
  990MOL0     H33614   2.344   6.579  11.062  2.2439  1.2293  2.0414
  990MOL0     H33615   2.149   6.723  10.963  3.3839 -0.5587 -1.7502
  990MOL0     H33616   2.059   7.136  11.179 -1.7284 -1.7266  0.6708
  990MOL0     H33617   2.148   7.129  11.030  1.3933  0.6111  2.7642
  990MOL0     H33618   1.924   7.236  11.020  0.4171  0.1225 -0.8176
  990MOL0     H33619   1.932   7.091  10.911 -4.2859 -1.7071 -0.0302
  990MOL0     H33620   1.796   7.084  11.188 -3.1350 -1.7779  0.2237
  990MOL0     H33621   1.805   6.949  11.075  0.6867 -0.0841  0.8899
  990MOL0     H33622   1.627   7.197  11.015 -1.4081  1.1048  0.4578
  990MOL0     H33623   1.639   7.042  10.922 -4.8263  1.9159 -0.0937
  990MOL0     H33624   1.587   7.060  11.219  1.6139  0.4894 -0.3711
  990MOL0     H33625   1.566   6.910  11.118  3.6980  0.3758  0.5809
  990MOL0     H33626   1.345   7.030  11.179 -2.6102  1.0982 -1.5609
  990MOL0     H33627   1.414   7.169  11.103  0.6453 -0.7181  3.3848
  990MOL0     H33628   1.411   7.063  10.883 -0.9888  0.5751 -1.0403
  990MOL0     H33629   1.261   7.092  10.956  0.6683  1.4836  1.3978
  990MOL0     H33630   1.269   6.850  11.072 -1.6000 -0.4463 -0.9150
  990MOL0     H33631   1.388   6.806  10.956 -0.4777 -1.3645 -1.7113
  990MOL0     H33632   2.219   7.005  11.273  0.5468  0.3140 -0.1625
  990MOL0     H33633   2.423   6.877  11.350 -0.3710 -1.8657  0.2997
  990MOL0     H33634   2.643   6.597  11.465  0.5137 -2.1321  3.1073
  990MOL0     H33635   2.759   6.443  11.592 -0.9273  2.6665 -0.0552
  990MOL0     H33636   4.726   5.929  10.889 -3.6837  1.4191  0.6928
  990MOL0     H33637   4.952   5.882  11.017 -3.5656 -1.6814 -0.3600
  990MOL0     H33638   5.241   6.203  11.292 -1.0435 -1.0217  1.3315
  990MOL0     H33639   5.444   6.232  11.443 -0.4830 -0.5940  1.6822
  990MOL0     H33640   5.585   5.891  11.688  0.3403 -1.5301 -0.3420
  990MOL0     H33641   5.682   5.848  11.548  1.2568  0.7368 -1.1717
  990MOL0     H33642   5.796   5.887  11.763 -0.1472 -0.1070 -1.0479
  990MOL0     H33643   5.767   6.071  11.746  1.3835  1.3325 -1.4126
  990MOL0     H33644   5.950   6.069  11.658 -0.2636 -0.8054  0.6471
  990MOL0     H33645   5.873   6.037  11.511  1.6810 -0.7483 -0.1736
  990MOL0     H33646   5.907   5.788  11.582 -0.4524 -1.2101  3.7278
  990MOL0     H33647   6.032   5.844  11.698 -1.3505  0.6011  0.2621
  990MOL0     H33648   6.269   5.855  11.361  2.0010 -0.0281 -0.2303
  990MOL0     H33649   5.496   5.801  11.443 -1.2883  0.1399  1.0342
  990MOL0     H33650   5.279   5.782  11.347  2.0523  1.0509 -0.6440
  991MOL0     O33651   8.066   4.319   6.638  0.1894  0.3652  0.2388
  991MOL0     C33652   8.086   4.205   6.673  0.0344  0.4635 -0.0401
  991MOL0     O33653   8.076   4.084   6.598 -0.5871 -0.0289  0.1323
  991MOL0     C33654   8.034   4.102   6.465  0.0927 -0.1480  0.1418
  991MOL0     C33655   7.898   4.093   6.437  0.4475  0.6048 -0.0213
  991MOL0     C33656   7.851   4.077   6.305 -0.1968 -0.3612 -0.2900
  991MOL0     C33657   7.944   4.072   6.199  0.4628 -0.1848 -0.3973
  991MOL0     O33658   7.887   4.070   6.068  0.7423  0.3439  0.7691
  991MOL0     C33659   7.978   4.043   5.956  0.7762  0.4151 -0.2942
  991MOL0     C33660   8.015   4.165   5.874 -0.4437 -0.6052 -0.4469
  991MOL0     C33661   8.133   4.123   5.780 -0.7678 -0.5950 -0.4421
  991MOL0     C33662   8.180   4.250   5.709 -0.7379 -0.4751 -0.3293
  991MOL0     C33663   8.257   4.198   5.588 -0.2382 -0.0872 -0.3700
  991MOL0     C33664   8.172   4.164   5.468  0.2239  0.7255  0.1682
  991MOL0     C33665   8.249   4.175   5.341 -0.0664 -0.0791  0.0704
  991MOL0     C33666   8.179   4.123   5.216 -0.8525  0.4521 -0.3615
  991MOL0     N33667   8.104   4.229   5.152  0.4154  0.2716  0.4444
  991MOL0     C33668   8.155   4.292   5.030  0.4256 -0.6154 -0.0605
  991MOL0     C33669   8.065   4.394   5.014 -0.0443  0.0267 -0.3672
  991MOL0     C33670   8.081   4.504   4.910 -0.4719 -0.8084  0.1131
  991MOL0     C33671   8.012   4.468   4.783 -0.9849 -0.5182 -0.2727
  991MOL0     C33672   7.855   4.457   4.786  0.3966 -0.0335 -0.6697
  991MOL0     C33673   7.829   4.311   4.818  0.5233 -0.1897  0.2960
  991MOL0     O33674   7.709   4.292   4.740 -0.4589 -0.9741  0.0101
  991MOL0     C33675   7.587   4.337   4.788  0.2990  0.4292 -0.0960
  991MOL0     C33676   7.465   4.326   4.713 -0.6908  0.0811 -0.4095
  991MOL0     C33677   7.343   4.377   4.750  1.1355  0.1119 -0.0093
  991MOL0     C33678   7.231   4.362   4.656  0.5969 -0.4637 -0.3577
  991MOL0     C33679   7.334   4.435   4.881 -0.4550  0.2564  0.1751
  991MOL0     C33680   7.209   4.478   4.941  0.6434 -0.8337  1.0123
  991MOL0     O33681   7.193   4.432   5.070  0.1108 -0.0079  0.4936
  991MOL0     C33682   7.088   4.480   5.140  1.3535 -0.1745 -0.6623
  991MOL0     C33683   7.075   4.612   5.194  0.2264  0.2328  0.1433
  991MOL0     C33684   6.959   4.642   5.269 -1.1934 -0.4071  1.3361
  991MOL0     C33685   6.856   4.554   5.303 -0.0034 -0.2628 -0.0373
  991MOL0     O33686   6.761   4.606   5.381  0.3769  0.5439  0.1824
  991MOL0     C33687   6.640   4.528   5.394 -0.5486 -0.1980  0.3821
  991MOL0     C33688   6.559   4.620   5.488  0.4221 -0.6525 -0.1941
  991MOL0     C33689   6.415   4.584   5.485  0.3507 -0.2605  0.3011
  991MOL0     C33690   6.308   4.688   5.542 -0.0626 -1.3530  0.0660
  991MOL0     C33691   6.176   4.619   5.583 -0.0245 -0.5486  0.9653
  991MOL0     C33692   6.072   4.722   5.633  0.3770  0.2368 -0.9009
  991MOL0     C33693   6.113   4.753   5.782  0.3656  0.2851  0.1571
  991MOL0     C33694   6.007   4.832   5.861  0.0157 -0.7242  0.4216
  991MOL0    Cl33695   5.858   4.736   5.864 -0.2520 -0.0459  0.0031
  991MOL0     C33696   6.871   4.424   5.255 -0.6425  0.0219 -0.6294
  991MOL0     C33697   6.987   4.385   5.183 -0.3500 -0.4856  0.3955
  991MOL0     O33698   7.124   4.540   4.878  0.3448 -0.2164  0.0793
  991MOL0     C33699   7.447   4.431   4.967 -0.1762 -0.3155  0.5948
  991MOL0     C33700   7.570   4.390   4.922 -0.3149  0.3426 -0.0016
  991MOL0     N33701   7.969   4.390   5.114 -0.3945 -0.0692  0.0765
  991MOL0     N33702   7.994   4.287   5.194 -0.3317  0.0163 -0.5721
  991MOL0     C33703   8.086   4.081   6.226  0.1905  0.9843  0.4975
  991MOL0     C33704   8.127   4.089   6.360 -0.6919  0.3528 -0.2130
  991MOL0     C33705   8.113   4.191   6.817 -0.4546  0.8177  0.4068
  991MOL0     C33706   8.182   4.291   6.883  0.8303  0.3955 -0.7067
  991MOL0     C33707   8.225   4.263   7.005 -0.3409  0.4115 -0.2917
  991MOL0     C33708   8.202   4.144   7.080  0.5334  0.6232 -0.2908
  991MOL0     O33709   8.234   4.121   7.211  0.1323 -0.0453  0.0650
  991MOL0     C33710   8.317   4.217   7.274 -0.1417 -0.8473  0.0628
  991MOL0     C33711   8.458   4.219   7.216 -0.5936  1.1246  0.8460
  991MOL0     C33712   8.530   4.087   7.221 -0.3196 -0.0193 -0.3144
  991MOL0     C33713   8.611   4.085   7.355  0.1518  0.0580 -0.3068
  991MOL0     C33714   8.697   3.972   7.352  0.6229  0.3650  0.3432
  991MOL0     C33715   8.789   3.895   7.327 -0.1056  0.2739 -0.4540
  991MOL0     C33716   8.134   4.044   7.012  0.0050  0.0739  0.2883
  991MOL0     C33717   8.082   4.072   6.887  0.0357 -0.0492 -0.3381
  991MOL0     H33718   7.826   4.112   6.515 -2.9733 -0.2129 -2.7641
  991MOL0     H33719   7.747   4.056   6.284 -0.1374  0.0899 -1.0554
  991MOL0     H33720   8.068   3.990   5.985  0.0247 -1.0204 -0.5147
  991MOL0     H33721   7.936   3.961   5.898 -0.9273 -0.3525  1.8560
  991MOL0     H33722   7.932   4.195   5.809 -0.7888 -4.3900 -1.9883
  991MOL0     H33723   8.048   4.245   5.941  1.2470 -1.7700  0.1639
  991MOL0     H33724   8.213   4.083   5.843  0.0929  3.3295  1.2965
  991MOL0     H33725   8.091   4.043   5.718 -0.8545  1.2756 -2.9611
  991MOL0     H33726   8.083   4.296   5.688 -1.5388 -0.8236  2.2793
  991MOL0     H33727   8.249   4.304   5.774  2.0451 -1.6557 -2.1083
  991MOL0     H33728   8.336   4.272   5.571 -1.0911  1.4258  1.7721
  991MOL0     H33729   8.320   4.112   5.613 -1.6476 -0.6359  1.5415
  991MOL0     H33730   8.126   4.065   5.476  0.3341  0.5088 -1.4808
  991MOL0     H33731   8.092   4.239   5.464 -0.4954 -0.0756 -0.9865
  991MOL0     H33732   8.284   4.278   5.327 -1.5037  0.3592 -0.4792
  991MOL0     H33733   8.346   4.126   5.355  0.3073 -0.7865 -3.9605
  991MOL0     H33734   8.132   4.030   5.248 -0.9299  0.7486  0.4334
  991MOL0     H33735   8.249   4.081   5.143  0.7299  0.6169  0.9861
  991MOL0     H33736   8.250   4.267   4.986  1.3285  0.0255  1.4459
  991MOL0     H33737   8.045   4.597   4.956  1.6509 -0.9872  2.3355
  991MOL0     H33738   8.188   4.521   4.900 -0.7464  0.7525 -0.4257
  991MOL0     H33739   8.064   4.382   4.739 -0.1604 -0.0608 -0.2218
  991MOL0     H33740   8.030   4.556   4.720 -0.2890 -1.2915 -1.2018
  991MOL0     H33741   7.829   4.490   4.685 -2.4705  0.1457  0.0544
  991MOL0     H33742   7.804   4.527   4.853 -0.8124 -0.3723 -1.2056
  991MOL0     H33743   7.816   4.290   4.924  0.5243 -2.2599 -0.0664
  991MOL0     H33744   7.897   4.238   4.773  2.6204  0.8495  1.6187
  991MOL0     H33745   7.482   4.267   4.623 -1.0350 -0.9523  0.1890
  991MOL0     H33746   7.220   4.259   4.621  1.5268 -1.2286  1.4948
  991MOL0     H33747   7.135   4.402   4.689 -0.5011  1.4147 -4.9778
  991MOL0     H33748   7.274   4.414   4.570  2.1113  0.6306  1.0098
  991MOL0     H33749   7.147   4.689   5.169 -0.7387  0.3456 -2.6354
  991MOL0     H33750   6.970   4.746   5.301 -0.4230  0.2461 -0.8930
  991MOL0     H33751   6.586   4.517   5.299 -3.2834 -1.3466  1.9673
  991MOL0     H33752   6.664   4.426   5.427 -0.4119  0.6863  3.2469
  991MOL0     H33753   6.591   4.593   5.589  1.9934 -2.3797 -1.0964
  991MOL0     H33754   6.560   4.726   5.460  3.0297 -0.0051  1.9459
  991MOL0     H33755   6.405   4.492   5.544  1.2270 -0.6159 -0.0945
  991MOL0     H33756   6.391   4.565   5.380 -1.5463  2.8813  0.0337
  991MOL0     H33757   6.353   4.717   5.637 -1.1033  0.0988  0.1480
  991MOL0     H33758   6.299   4.765   5.464 -1.1199 -0.6682  0.8266
  991MOL0     H33759   6.191   4.543   5.660 -2.1506 -0.8273  1.1682
  991MOL0     H33760   6.139   4.564   5.496 -1.4629 -0.0964  1.2685
  991MOL0     H33761   6.087   4.820   5.587 -0.6749 -0.5454 -3.0363
  991MOL0     H33762   5.966   4.697   5.621  0.0855  0.0129  1.6470
  991MOL0     H33763   6.209   4.804   5.793  2.6509 -3.7675  1.3005
  991MOL0     H33764   6.139   4.662   5.837 -1.9940 -2.0816 -2.3452
  991MOL0     H33765   5.993   4.923   5.801 -1.3572 -2.4980 -2.1681
  991MOL0     H33766   6.050   4.851   5.959  2.9147 -1.8541 -0.5252
  991MOL0     H33767   6.801   4.346   5.282  0.6477 -1.8291 -2.2976
  991MOL0     H33768   6.992   4.280   5.155  0.7217 -0.3523  0.0610
  991MOL0     H33769   7.437   4.469   5.068  0.8251  1.2820  0.1346
  991MOL0     H33770   7.655   4.385   4.988 -1.2162  0.2683  1.1985
  991MOL0     H33771   8.166   4.082   6.153  2.5599  1.4782  2.9513
  991MOL0     H33772   8.232   4.092   6.387 -0.7539  1.9691 -0.0108
  991MOL0     H33773   8.199   4.388   6.837 -0.6769  3.4835  4.4925
  991MOL0     H33774   8.252   4.353   7.059  1.9510  1.6329 -3.1694
  991MOL0     H33775   8.269   4.315   7.269  2.4264  0.5714  1.0131
  991MOL0     H33776   8.315   4.195   7.381  1.5741  1.7489  0.7264
  991MOL0     H33777   8.522   4.291   7.268  1.8134 -0.1242 -0.2525
  991MOL0     H33778   8.453   4.254   7.113 -1.7089 -1.8130 -0.1972
  991MOL0     H33779   8.606   4.096   7.142 -0.9261 -3.1726 -1.3756
  991MOL0     H33780   8.462   4.002   7.209 -0.1074 -0.0790 -1.1574
  991MOL0     H33781   8.540   4.093   7.438 -0.4151  1.2070 -0.8780
  991MOL0     H33782   8.683   4.167   7.354 -0.2455  0.4158  0.2403
  991MOL0     H33783   8.880   3.842   7.306  0.5738  0.8386  0.9810
  991MOL0     H33784   8.118   3.944   7.050 -1.1675 -0.1188 -0.6331
  991MOL0     H33785   8.044   3.985   6.834 -0.2237 -2.0892  2.8809
  992MOL0     O33786   1.804   6.674   2.682 -0.8291 -0.2977  0.0327
  992MOL0     C33787   1.776   6.720   2.791 -0.8837  0.0901 -0.4026
  992MOL0     O33788   1.650   6.753   2.836  0.4785 -0.0969  0.3897
  992MOL0     C33789   1.542   6.724   2.754  0.9622  0.4824  0.3715
  992MOL0     C33790   1.429   6.804   2.775 -0.5066 -0.1239 -1.1454
  992MOL0     C33791   1.310   6.778   2.700 -0.5463 -0.3894 -0.4177
  992MOL0     C33792   1.300   6.677   2.600 -0.3776  0.3206 -0.2160
  992MOL0     O33793   1.182   6.661   2.536  0.3286 -1.1961 -0.6101
  992MOL0     C33794   1.071   6.620   2.620 -0.0367 -0.4872 -0.6865
  992MOL0     C33795   0.947   6.641   2.541 -0.1060 -0.4742 -0.4568
  992MOL0     C33796   0.815   6.579   2.594  0.6835  0.4607 -0.2393
  992MOL0     C33797   0.788   6.427   2.572  0.5909  0.3741  0.0251
  992MOL0     C33798   0.672   6.383   2.668 -0.9622 -0.4587 -0.3426
  992MOL0     C33799   0.584   6.268   2.615  0.2128  0.0086 -0.0130
  992MOL0     C33800   0.522   6.189   2.736 -1.1580  0.0206 -0.6886
  992MOL0     C33801   0.420   6.249   2.827 -0.1638  0.2138 -0.5916
  992MOL0     N33802   0.327   6.342   2.765  0.2264  0.1814  0.2756
  992MOL0     C33803   0.234   6.302   2.678 -0.0293  0.0567  0.2103
  992MOL0     C33804   0.179   6.426   2.638 -0.0654 -0.2250 -0.6036
  992MOL0     C33805   0.069   6.432   2.540  0.1763 -0.8380 -0.9583
  992MOL0     C33806  -0.061   6.469   2.623 -0.0824 -0.9584 -0.2801
  992MOL0     C33807  -0.108   6.351   2.703 -0.0834 -0.3026  0.0662
  992MOL0     C33808  -0.216   6.380   2.811  1.0705 -0.1316  0.3889
  992MOL0     O33809  -0.246   6.275   2.899  0.2520 -0.4437  0.4981
  992MOL0     C33810  -0.343   6.297   3.001 -0.9452  0.6203  0.1379
  992MOL0     C33811  -0.345   6.195   3.098  0.8273 -1.1634 -0.3736
  992MOL0     C33812  -0.449   6.192   3.196 -0.4415 -1.1248 -0.5679
  992MOL0     C33813  -0.449   6.070   3.275 -0.7830 -0.2621  0.6002
  992MOL0     C33814  -0.549   6.289   3.202  0.1435 -0.1427  0.0676
  992MOL0     C33815  -0.667   6.280   3.290  0.4107  0.4641  0.6282
  992MOL0     O33816  -0.665   6.194   3.396 -0.2987  0.0977  0.6121
  992MOL0     C33817  -0.780   6.164   3.469 -0.2196  0.7033 -0.1716
  992MOL0     C33818  -0.829   6.036   3.450  0.9143  0.3499 -0.3868
  992MOL0     C33819  -0.942   5.998   3.522 -0.6283  0.2026 -0.8810
  992MOL0     C33820  -1.004   6.086   3.618  0.0053  0.0258 -0.7007
  992MOL0     O33821  -1.096   6.051   3.709  0.4134 -1.1578 -0.3679
  992MOL0     C33822  -1.196   5.958   3.659 -0.6783 -0.4583  0.3340
  992MOL0     C33823  -1.312   5.943   3.757  0.5120 -0.2354 -0.1425
  992MOL0     C33824  -1.267   5.902   3.899  0.0115 -0.8887  0.3959
  992MOL0     C33825  -1.285   6.024   3.999  0.8739  0.7983  0.1665
  992MOL0     C33826  -1.201   6.156   3.968  0.6222  1.3206  0.1176
  992MOL0     C33827  -1.197   6.233   4.096  0.6172 -0.2524 -0.0256
  992MOL0     C33828  -1.174   6.383   4.075 -0.0044  1.1588  0.2806
  992MOL0     C33829  -1.041   6.422   4.013 -0.0133  0.4232  0.4990
  992MOL0    Cl33830  -0.912   6.335   4.103  0.1597  0.3846 -0.1045
  992MOL0     C33831  -0.958   6.216   3.620 -0.4701 -0.5663 -0.1062
  992MOL0     C33832  -0.843   6.265   3.546  0.2127  0.2688 -0.0060
  992MOL0     O33833  -0.746   6.375   3.273  0.3771  0.5775  0.1316
  992MOL0     C33834  -0.537   6.394   3.105  0.2863  0.6141 -0.4913
  992MOL0     C33835  -0.445   6.395   3.004  0.0419  0.2296 -0.4703
  992MOL0     N33836   0.238   6.528   2.704  0.4079  0.5527  1.4186
  992MOL0     N33837   0.339   6.481   2.772 -0.2861 -0.2689 -0.4560
  992MOL0     C33838   1.409   6.593   2.588 -0.2620  0.0768  0.2422
  992MOL0     C33839   1.523   6.619   2.662 -0.1242 -0.2683 -0.1751
  992MOL0     C33840   1.887   6.733   2.886  0.6742 -0.2795 -0.0985
  992MOL0     C33841   2.022   6.703   2.861  0.4724  0.0789  0.2938
  992MOL0     C33842   2.121   6.721   2.954  0.3537 -0.1009 -0.9538
  992MOL0     C33843   2.102   6.772   3.084  0.4076  0.2919 -0.0523
  992MOL0     O33844   2.208   6.787   3.170 -0.3348 -0.4584 -0.7550
  992MOL0     C33845   2.174   6.758   3.304 -0.6246 -0.6492  0.0416
  992MOL0     C33846   2.290   6.695   3.389 -0.4571  0.8107  0.2026
  992MOL0     C33847   2.395   6.780   3.456 -0.7571  0.3589 -0.0600
  992MOL0     C33848   2.463   6.697   3.565  0.2845  0.5763  0.8267
  992MOL0     C33849   2.580   6.754   3.605  0.5509 -1.2521  0.4048
  992MOL0     C33850   2.673   6.817   3.650 -0.6142 -0.7133  0.6742
  992MOL0     C33851   1.962   6.792   3.115  0.2132 -1.2526 -0.1477
  992MOL0     C33852   1.859   6.766   3.020 -0.3593  0.1195 -0.8421
  992MOL0     H33853   1.433   6.891   2.839 -2.3131  0.2188 -1.4256
  992MOL0     H33854   1.231   6.850   2.717  0.0437 -0.3835  3.1579
  992MOL0     H33855   1.091   6.522   2.664 -1.1022 -0.4448 -0.0667
  992MOL0     H33856   1.070   6.696   2.700  0.6731 -1.5486  0.3601
  992MOL0     H33857   0.924   6.748   2.543 -1.3449 -0.5042  5.1726
  992MOL0     H33858   0.967   6.610   2.438  2.7030 -1.8353  0.3894
  992MOL0     H33859   0.802   6.611   2.698  1.9304  1.3345 -0.3275
  992MOL0     H33860   0.738   6.631   2.538 -0.2597 -0.6946 -0.0470
  992MOL0     H33861   0.753   6.415   2.469  0.1073  0.6126  0.1615
  992MOL0     H33862   0.866   6.351   2.583 -0.2476 -0.8713 -2.1381
  992MOL0     H33863   0.719   6.352   2.761 -1.0785 -0.2115 -0.2008
  992MOL0     H33864   0.607   6.471   2.680 -0.1380  0.2950 -1.1985
  992MOL0     H33865   0.506   6.300   2.547  0.7590  0.4971 -0.4187
  992MOL0     H33866   0.644   6.203   2.551 -1.5303  1.6127 -3.5523
  992MOL0     H33867   0.472   6.099   2.697  1.6428 -1.2450 -1.6321
  992MOL0     H33868   0.610   6.160   2.795 -1.5900  0.0452 -0.0239
  992MOL0     H33869   0.483   6.297   2.902  3.7307 -1.5668 -2.4679
  992MOL0     H33870   0.364   6.173   2.882  2.1032 -0.4845  0.8944
  992MOL0     H33871   0.215   6.203   2.637  2.4395 -0.6334  0.5252
  992MOL0     H33872   0.085   6.519   2.475  0.3781 -0.2119 -0.0813
  992MOL0     H33873   0.053   6.336   2.491 -1.1115 -3.0099  3.2359
  992MOL0     H33874  -0.138   6.506   2.555 -0.3006  0.8727  0.8975
  992MOL0     H33875  -0.043   6.555   2.689 -0.0282 -0.1150 -1.3637
  992MOL0     H33876  -0.023   6.309   2.758 -0.0889  2.1012  2.0748
  992MOL0     H33877  -0.152   6.272   2.641 -2.4841 -0.7374  2.2095
  992MOL0     H33878  -0.306   6.400   2.751 -0.0689 -0.7343  1.8436
  992MOL0     H33879  -0.189   6.471   2.865  2.8628 -0.4321  0.0578
  992MOL0     H33880  -0.272   6.114   3.093  1.9389 -0.4500  2.2236
  992MOL0     H33881  -0.549   6.026   3.286 -2.5364  2.9731 -1.0548
  992MOL0     H33882  -0.400   5.993   3.214 -1.3825 -0.2625  0.1055
  992MOL0     H33883  -0.401   6.078   3.373  0.5219  0.8905 -0.1001
  992MOL0     H33884  -0.774   5.972   3.381  2.7695  0.3720  0.9768
  992MOL0     H33885  -0.959   5.891   3.515 -0.8184  0.2206 -0.7038
  992MOL0     H33886  -1.227   5.987   3.558 -1.0977 -0.8025  0.3636
  992MOL0     H33887  -1.155   5.858   3.640 -2.5766 -0.9640 -1.4842
  992MOL0     H33888  -1.370   6.035   3.762 -0.8535 -1.0581 -0.4143
  992MOL0     H33889  -1.371   5.867   3.706  1.1462  1.1706 -3.2210
  992MOL0     H33890  -1.163   5.869   3.902 -0.7986 -3.6293  0.5907
  992MOL0     H33891  -1.324   5.814   3.932  0.8673 -2.0211 -1.0250
  992MOL0     H33892  -1.393   6.044   4.007  0.5768 -0.8465  0.6955
  992MOL0     H33893  -1.263   5.985   4.099  1.9691  1.6850  0.2862
  992MOL0     H33894  -1.221   6.211   3.876  2.0772  0.7925 -0.5434
  992MOL0     H33895  -1.095   6.129   3.961  0.1395 -1.1111  1.0681
  992MOL0     H33896  -1.295   6.218   4.144  1.0726 -1.1322  0.6554
  992MOL0     H33897  -1.130   6.195   4.173  1.4603  0.4400 -0.4076
  992MOL0     H33898  -1.169   6.443   4.167 -1.1229  0.7854  0.6002
  992MOL0     H33899  -1.253   6.420   4.009  1.5215  0.1866 -2.2358
  992MOL0     H33900  -1.016   6.529   4.016  2.1895 -0.0471  2.6959
  992MOL0     H33901  -1.042   6.396   3.906 -1.4062  1.0793  0.3439
  992MOL0     H33902  -0.990   6.300   3.680 -0.3909 -0.5820 -0.0412
  992MOL0     H33903  -0.807   6.367   3.555  0.9241 -0.0499  0.8868
  992MOL0     H33904  -0.607   6.476   3.115 -1.2109 -0.7299  0.6193
  992MOL0     H33905  -0.442   6.471   2.927  2.7223  2.4964  1.6544
  992MOL0     H33906   1.401   6.509   2.519  1.7584 -0.0948  0.1715
  992MOL0     H33907   1.614   6.563   2.643  2.4295  2.8679  1.8933
  992MOL0     H33908   2.039   6.676   2.757  1.2264  2.5630 -0.3042
  992MOL0     H33909   2.217   6.694   2.913  2.0386  2.2271  1.1753
  992MOL0     H33910   2.131   6.838   3.364 -0.9655 -1.3198  0.7173
  992MOL0     H33911   2.100   6.677   3.295 -0.4164 -0.7956 -0.3559
  992MOL0     H33912   2.345   6.623   3.328  1.6720  2.9480 -0.5723
  992MOL0     H33913   2.238   6.631   3.461 -1.0736 -2.1958 -2.6926
  992MOL0     H33914   2.360   6.871   3.505  1.1336  1.0024  0.1508
  992MOL0     H33915   2.469   6.815   3.383  1.0365 -2.2767  0.3437
  992MOL0     H33916   2.499   6.605   3.517  0.5932  1.3123 -0.3871
  992MOL0     H33917   2.407   6.666   3.654  0.6580 -2.1590  0.1967
  992MOL0     H33918   2.752   6.887   3.670  0.3190 -0.7931 -2.3148
  992MOL0     H33919   1.950   6.833   3.214  2.5548 -1.9027  0.4699
  992MOL0     H33920   1.761   6.800   3.053  1.1351  3.5871  0.5634
  993MOL0     O33921   2.368   7.481   0.905  0.1829 -0.0397  0.0429
  993MOL0     C33922   2.336   7.548   1.000  0.7005  0.6182 -0.1891
  993MOL0     O33923   2.414   7.598   1.099  0.5009  0.1858 -0.0185
  993MOL0     C33924   2.548   7.608   1.091  0.5498  0.6504  0.5675
  993MOL0     C33925   2.604   7.657   1.208  0.3545 -0.4363 -0.3765
  993MOL0     C33926   2.745   7.668   1.214 -0.3130 -0.2278  0.1517
  993MOL0     C33927   2.832   7.631   1.105  0.1238 -0.4808 -0.6499
  993MOL0     O33928   2.963   7.636   1.126  0.0238  0.3582 -0.5666
  993MOL0     C33929   3.054   7.563   1.042 -0.2296  0.8064 -0.2375
  993MOL0     C33930   3.198   7.571   1.093  1.0894 -0.4723  0.2621
  993MOL0     C33931   3.234   7.491   1.219 -0.2016 -0.3001  0.3264
  993MOL0     C33932   3.212   7.562   1.358  0.4053 -0.7781  0.5125
  993MOL0     C33933   3.270   7.485   1.478 -0.0215 -0.8776  0.5574
  993MOL0     C33934   3.257   7.571   1.605  0.5779  0.5811  1.0397
  993MOL0     C33935   3.325   7.499   1.719  0.7419  0.4109  0.0144
  993MOL0     C33936   3.356   7.588   1.831 -0.4898 -0.4530 -0.7051
  993MOL0     N33937   3.239   7.667   1.887  0.2539  0.5787  0.5022
  993MOL0     C33938   3.218   7.804   1.881  0.4379  0.6109 -0.0785
  993MOL0     C33939   3.111   7.825   1.966 -0.0294 -0.2363  0.4175
  993MOL0     C33940   3.044   7.957   1.993 -0.0854 -0.1272  0.3425
  993MOL0     C33941   2.988   8.044   1.879  0.1682  0.1270 -0.5015
  993MOL0     C33942   2.904   8.158   1.937  0.1493 -0.1627 -0.1099
  993MOL0     C33943   2.763   8.139   1.979  0.9291 -0.1663 -0.1610
  993MOL0     O33944   2.691   8.110   1.858 -0.3109  0.9357  0.7184
  993MOL0     C33945   2.599   8.007   1.860 -0.3941 -0.0400 -0.8454
  993MOL0     C33946   2.564   7.921   1.964  0.3965  1.1458 -0.3009
  993MOL0     C33947   2.464   7.821   1.963 -0.6277 -0.1655 -0.3837
  993MOL0     C33948   2.454   7.735   2.089  0.4575  0.9598 -0.7359
  993MOL0     C33949   2.376   7.823   1.852  0.2820  0.8595  0.2547
  993MOL0     C33950   2.254   7.731   1.842 -0.6255  0.0525 -0.0115
  993MOL0     O33951   2.169   7.762   1.740 -0.0843  0.3219  0.3267
  993MOL0     C33952   2.033   7.720   1.745 -0.1634 -0.2502  0.0790
  993MOL0     C33953   1.980   7.700   1.616 -0.1221  0.4206  0.3379
  993MOL0     C33954   1.848   7.667   1.596 -1.0064  0.0100 -0.0141
  993MOL0     C33955   1.767   7.659   1.706 -0.3098 -0.6727  0.1686
  993MOL0     O33956   1.636   7.647   1.661  0.6803 -0.1474 -0.0843
  993MOL0     C33957   1.521   7.675   1.750  0.1870  0.0814  1.2184
  993MOL0     C33958   1.384   7.631   1.689 -1.2296  0.8495  0.6392
  993MOL0     C33959   1.358   7.717   1.566  0.4445  0.0750  0.6950
  993MOL0     C33960   1.218   7.693   1.520 -0.0186  0.4359 -0.4698
  993MOL0     C33961   1.180   7.813   1.422 -0.8620 -0.0660 -0.1625
  993MOL0     C33962   1.116   7.931   1.497  0.9606 -0.0052 -0.3766
  993MOL0     C33963   0.971   7.961   1.449  0.1720  0.6724 -1.2163
  993MOL0     C33964   0.868   7.855   1.500  0.1118  0.3093  0.0891
  993MOL0    Cl33965   0.832   7.886   1.679 -0.0947  0.1404  0.1136
  993MOL0     C33966   1.815   7.676   1.838 -0.0564  0.2441  0.1918
  993MOL0     C33967   1.949   7.709   1.859  0.1825  0.3696  0.3631
  993MOL0     O33968   2.234   7.642   1.924 -0.1072 -0.2493 -0.1265
  993MOL0     C33969   2.404   7.914   1.750 -1.0977 -0.1716  0.1571
  993MOL0     C33970   2.516   7.996   1.749 -0.5208 -0.3596  0.3470
  993MOL0     N33971   3.077   7.703   2.022 -0.3402 -0.1795  0.2554
  993MOL0     N33972   3.149   7.609   1.971  0.2962 -0.0912 -0.8552
  993MOL0     C33973   2.770   7.586   0.989  0.1689 -0.0855  0.7534
  993MOL0     C33974   2.636   7.580   0.978  0.1745  0.1570 -0.8231
  993MOL0     C33975   2.193   7.577   1.027  0.8380  1.1733 -0.9653
  993MOL0     C33976   2.099   7.510   0.948 -0.3113 -0.3119  0.2171
  993MOL0     C33977   1.961   7.523   0.977 -0.8557  0.0632 -0.1183
  993MOL0     C33978   1.918   7.614   1.075  0.7964  0.3373 -0.1402
  993MOL0     O33979   1.780   7.608   1.098 -0.7370  0.6217  0.4364
  993MOL0     C33980   1.722   7.711   1.176 -1.0294 -0.0268 -0.5615
  993MOL0     C33981   1.574   7.680   1.146  0.2405 -0.0634  0.7992
  993MOL0     C33982   1.528   7.716   0.998  0.6276  1.4527  1.0443
  993MOL0     C33983   1.537   7.594   0.912  0.7323 -0.5800 -0.1191
  993MOL0     C33984   1.483   7.630   0.781 -0.7872  0.1176  0.8484
  993MOL0     C33985   1.444   7.646   0.664  0.8833  0.0603 -0.0177
  993MOL0     C33986   2.010   7.690   1.152 -0.3970 -0.3922 -0.5440
  993MOL0     C33987   2.143   7.673   1.121 -0.3426 -1.1777 -0.3232
  993MOL0     H33988   2.546   7.685   1.295  2.7613  3.2473  0.2531
  993MOL0     H33989   2.783   7.704   1.309  1.2551  2.6706 -1.4577
  993MOL0     H33990   3.025   7.457   1.048 -1.9469  1.2791  0.4139
  993MOL0     H33991   3.042   7.584   0.936  0.3349 -2.0638 -0.9728
  993MOL0     H33992   3.251   7.533   1.005  0.4756  0.5338 -0.5669
  993MOL0     H33993   3.236   7.673   1.100 -0.2895  0.0211  0.9387
  993MOL0     H33994   3.188   7.391   1.221  0.4341 -0.7079 -2.4204
  993MOL0     H33995   3.342   7.480   1.206  0.0541  1.1652  1.0131
  993MOL0     H33996   3.268   7.656   1.360 -1.1842  0.2961 -1.5396
  993MOL0     H33997   3.105   7.578   1.375  0.5996  2.0426 -0.3799
  993MOL0     H33998   3.221   7.387   1.479 -1.5343 -0.1651  2.5677
  993MOL0     H33999   3.375   7.473   1.449 -0.4424  1.6685 -2.5525
  993MOL0     H34000   3.292   7.671   1.578 -0.6451  0.5224 -1.0194
  993MOL0     H34001   3.153   7.595   1.629  0.0396  3.1617 -2.9138
  993MOL0     H34002   3.270   7.414   1.761  0.0756  0.9352  0.2038
  993MOL0     H34003   3.422   7.462   1.685  1.1359  1.1763  0.2839
  993MOL0     H34004   3.426   7.662   1.793  0.4049 -0.6583  0.4738
  993MOL0     H34005   3.391   7.525   1.914 -1.1649  1.0261  0.7715
  993MOL0     H34006   3.273   7.878   1.823 -1.9857  1.0460 -2.0074
  993MOL0     H34007   2.961   7.932   2.060 -1.7098  4.0034  0.1815
  993MOL0     H34008   3.114   8.019   2.049  1.7871 -2.8042  1.1559
  993MOL0     H34009   2.943   7.991   1.795  0.9738  0.6335 -1.2763
  993MOL0     H34010   3.074   8.092   1.830  0.4878 -1.1483 -1.2080
  993MOL0     H34011   2.905   8.224   1.850  0.2716 -0.4559 -0.3352
  993MOL0     H34012   2.959   8.205   2.019 -1.0251  0.4368  0.3477
  993MOL0     H34013   2.732   8.235   2.020 -0.9609 -0.4550 -0.8493
  993MOL0     H34014   2.747   8.067   2.059 -0.6939  0.4498  0.0929
  993MOL0     H34015   2.610   7.922   2.062 -2.6767  1.2243  1.2545
  993MOL0     H34016   2.437   7.636   2.047  1.2743  1.1733 -1.5945
  993MOL0     H34017   2.546   7.725   2.147 -0.6521 -1.6361  0.7603
  993MOL0     H34018   2.373   7.763   2.157  1.2369  1.3799  0.0507
  993MOL0     H34019   2.056   7.716   1.540  2.7053  0.5080  2.9789
  993MOL0     H34020   1.805   7.655   1.497 -3.2596 -1.2298  1.0435
  993MOL0     H34021   1.524   7.619   1.844 -3.3049 -0.2192  1.2683
  993MOL0     H34022   1.515   7.782   1.775 -1.9840  0.2862  0.0043
  993MOL0     H34023   1.380   7.525   1.661 -4.2913  0.5698  1.7144
  993MOL0     H34024   1.307   7.646   1.766  1.5908  2.5449  3.3494
  993MOL0     H34025   1.416   7.661   1.492 -1.4225 -0.6322 -0.3008
  993MOL0     H34026   1.375   7.823   1.586 -0.6795 -0.1609  3.3376
  993MOL0     H34027   1.217   7.597   1.467  0.2317 -0.0486  0.3976
  993MOL0     H34028   1.151   7.682   1.606  0.4241 -1.1481 -0.2845
  993MOL0     H34029   1.108   7.778   1.348  1.7761 -0.3449 -2.7985
  993MOL0     H34030   1.267   7.854   1.368 -0.8814  0.3893  0.1426
  993MOL0     H34031   1.120   7.896   1.601 -0.5626  1.8616  0.3569
  993MOL0     H34032   1.177   8.022   1.489 -1.0449  1.3692 -0.6743
  993MOL0     H34033   0.968   7.970   1.340 -1.5813 -2.1146 -1.4829
  993MOL0     H34034   0.939   8.062   1.477 -0.2278  0.8439 -2.2313
  993MOL0     H34035   0.908   7.755   1.484  0.9778  0.6223  0.2581
  993MOL0     H34036   0.772   7.864   1.447 -1.1707  0.2382  2.2725
  993MOL0     H34037   1.744   7.690   1.919 -0.2774  1.2636 -0.1641
  993MOL0     H34038   1.995   7.728   1.955  0.8578  0.2672  0.0665
  993MOL0     H34039   2.347   7.926   1.658  1.8152  1.5832 -1.5622
  993MOL0     H34040   2.522   8.057   1.660  1.9315 -3.0272 -1.5014
  993MOL0     H34041   2.836   7.551   0.910 -0.2209  0.2815  0.2690
  993MOL0     H34042   2.585   7.562   0.884  2.4199  0.4666 -2.1640
  993MOL0     H34043   2.125   7.438   0.872 -0.5819  2.8250 -3.1217
  993MOL0     H34044   1.884   7.468   0.925 -0.2781  0.6088 -1.6033
  993MOL0     H34045   1.739   7.704   1.284  1.5176 -2.3246 -1.0104
  993MOL0     H34046   1.757   7.810   1.146  1.7521 -0.1587  1.8140
  993MOL0     H34047   1.504   7.737   1.207 -0.0747  2.0334 -1.3942
  993MOL0     H34048   1.557   7.573   1.163  1.0726 -0.2491  0.5451
  993MOL0     H34049   1.585   7.801   0.960  4.0801  0.2943  3.2169
  993MOL0     H34050   1.421   7.737   0.997  0.4226  1.1513 -3.6707
  993MOL0     H34051   1.480   7.510   0.953  3.4015 -1.7735  1.3648
  993MOL0     H34052   1.642   7.565   0.911  0.8071 -0.3365  0.3049
  993MOL0     H34053   1.422   7.666   0.561 -0.1995  1.9792  0.5425
  993MOL0     H34054   1.967   7.751   1.231 -1.1855  1.1835 -2.0983
  993MOL0     H34055   2.211   7.730   1.184  2.6787 -0.2348 -4.0536
  994MOL0     O34056   0.859   3.891   1.584  0.7784  0.2977 -0.0220
  994MOL0     C34057   0.907   3.955   1.673 -0.0303 -0.5111 -0.4749
  994MOL0     O34058   0.871   3.936   1.800  0.2353  0.6980  0.9826
  994MOL0     C34059   0.782   3.843   1.834 -0.2411 -0.0558  0.0003
  994MOL0     C34060   0.840   3.721   1.872  0.8667 -0.7366  0.2424
  994MOL0     C34061   0.762   3.608   1.898  0.3490 -0.3504 -0.3256
  994MOL0     C34062   0.622   3.637   1.909  1.0159 -0.0642 -1.2171
  994MOL0     O34063   0.545   3.538   1.964 -0.1555  1.1691  0.2909
  994MOL0     C34064   0.495   3.555   2.094 -0.0061 -0.2768  0.0143
  994MOL0     C34065   0.348   3.577   2.090  0.5109  0.5832  0.4591
  994MOL0     C34066   0.282   3.600   2.224  0.2707 -0.6644  0.0672
  994MOL0     C34067   0.131   3.624   2.227 -0.0176 -0.1268  0.6566
  994MOL0     C34068   0.075   3.676   2.359  0.4667  0.1565 -0.4907
  994MOL0     C34069  -0.074   3.667   2.368  0.9322 -0.9983  0.1657
  994MOL0     C34070  -0.127   3.745   2.489 -0.6913  1.2267  0.0414
  994MOL0     C34071  -0.266   3.702   2.547  0.0275 -0.6022 -0.1681
  994MOL0     N34072  -0.359   3.715   2.431 -0.4957  0.1909 -0.8765
  994MOL0     C34073  -0.446   3.818   2.412 -0.1213 -0.7688 -0.4051
  994MOL0     C34074  -0.517   3.778   2.304 -0.4689  0.0279  0.2385
  994MOL0     C34075  -0.603   3.870   2.224  0.8947 -0.2303  0.4811
  994MOL0     C34076  -0.512   3.970   2.150  0.1670 -0.4224  0.0644
  994MOL0     C34077  -0.391   3.906   2.080 -0.7331  0.4682  0.0352
  994MOL0     C34078  -0.322   4.006   1.984  0.2074  0.1055  0.7452
  994MOL0     O34079  -0.232   4.093   2.053 -0.0136 -0.1237  0.0745
  994MOL0     C34080  -0.104   4.084   2.010  0.0041 -0.1004 -0.1661
  994MOL0     C34081  -0.009   4.022   2.095 -0.7025  0.2351 -0.5293
  994MOL0     C34082   0.128   4.032   2.067 -1.0500  0.0444 -0.5220
  994MOL0     C34083   0.230   3.973   2.167 -0.3421  0.3223 -0.0770
  994MOL0     C34084   0.169   4.093   1.951 -0.3824  0.0088  0.1703
  994MOL0     C34085   0.312   4.127   1.925  0.0967  0.6669  0.8419
  994MOL0     O34086   0.336   4.246   1.852  0.3396 -0.0364  0.2704
  994MOL0     C34087   0.470   4.276   1.844  0.3078 -0.4115  0.4388
  994MOL0     C34088   0.547   4.236   1.724 -0.6184 -0.1476 -1.0367
  994MOL0     C34089   0.687   4.260   1.732 -0.0079 -0.4183  1.3892
  994MOL0     C34090   0.742   4.333   1.835 -0.4035  0.0902 -0.5407
  994MOL0     O34091   0.857   4.409   1.808  0.0747  0.0145  0.2995
  994MOL0     C34092   0.906   4.510   1.898 -1.0337  0.3397  0.8301
  994MOL0     C34093   1.000   4.610   1.821  0.0411 -0.7702 -0.6027
  994MOL0     C34094   1.146   4.556   1.797  0.0503 -0.7685  1.3093
  994MOL0     C34095   1.245   4.587   1.907  0.5669 -0.4162 -0.6970
  994MOL0     C34096   1.377   4.529   1.863  0.1479 -0.1336 -0.1202
  994MOL0     C34097   1.490   4.578   1.953 -0.5241  0.4092  0.1675
  994MOL0     C34098   1.610   4.479   1.972  0.7490 -0.8758  0.2205
  994MOL0     C34099   1.741   4.534   2.029  0.1518  0.0616 -0.9696
  994MOL0    Cl34100   1.708   4.576   2.203 -0.0891  0.2872 -0.1129
  994MOL0     C34101   0.664   4.359   1.952  0.2165 -0.2164  0.0483
  994MOL0     C34102   0.533   4.342   1.949  1.1732 -0.3724  0.4048
  994MOL0     O34103   0.399   4.045   1.962  0.7445 -0.5913 -0.4539
  994MOL0     C34104   0.073   4.135   1.853 -0.3477  0.6668 -0.1625
  994MOL0     C34105  -0.065   4.130   1.886  0.4161 -0.2227  0.0570
  994MOL0     N34106  -0.481   3.649   2.268  0.0647 -0.7957 -0.2393
  994MOL0     N34107  -0.386   3.615   2.342  1.6994 -0.0470 -0.5579
  994MOL0     C34108   0.564   3.751   1.858  0.0028  0.0850  0.3762
  994MOL0     C34109   0.649   3.859   1.821  0.4390 -0.5310  0.7203
  994MOL0     C34110   1.004   4.051   1.635  0.0840  0.5756  0.7685
  994MOL0     C34111   1.046   4.057   1.498 -0.0371  0.8125 -0.2308
  994MOL0     C34112   1.144   4.150   1.460  0.2016  0.4311  0.3669
  994MOL0     C34113   1.220   4.219   1.555  0.5645 -0.2573  0.9823
  994MOL0     O34114   1.332   4.297   1.535 -0.6478 -0.1312  0.1722
  994MOL0     C34115   1.382   4.312   1.403  0.8021  0.2883 -0.1233
  994MOL0     C34116   1.485   4.428   1.402  0.0271 -0.5112 -0.4051
  994MOL0     C34117   1.611   4.377   1.457 -1.0060  0.2791  0.0487
  994MOL0     C34118   1.706   4.307   1.364 -0.1960 -0.7440 -0.2216
  994MOL0     C34119   1.842   4.280   1.419  0.3068 -0.6914  0.3465
  994MOL0     C34120   1.963   4.262   1.437  0.3084 -0.5349 -0.4477
  994MOL0     C34121   1.184   4.213   1.690  0.0416  0.3804 -0.3985
  994MOL0     C34122   1.080   4.127   1.724  1.2637  0.1425  0.4215
  994MOL0     H34123   0.948   3.718   1.884  1.0732  0.7052 -0.9695
  994MOL0     H34124   0.811   3.526   1.949  3.0837  0.5566 -1.3115
  994MOL0     H34125   0.518   3.468   2.155 -3.8808 -1.1374  0.5550
  994MOL0     H34126   0.534   3.648   2.137  2.2302 -0.5701 -1.2142
  994MOL0     H34127   0.329   3.658   2.019  2.8144  1.9094  1.2531
  994MOL0     H34128   0.302   3.486   2.052 -3.1480  1.2579  2.7222
  994MOL0     H34129   0.311   3.511   2.281  0.3456 -0.3523  0.5238
  994MOL0     H34130   0.330   3.685   2.274 -0.3084 -1.2263  1.6494
  994MOL0     H34131   0.104   3.700   2.152  1.5128 -0.5708 -0.3860
  994MOL0     H34132   0.084   3.536   2.183 -0.8881  1.8728 -2.8078
  994MOL0     H34133   0.117   3.624   2.446  0.7613 -0.8314 -1.2062
  994MOL0     H34134   0.102   3.780   2.380  0.9401 -0.1365  0.4089
  994MOL0     H34135  -0.135   3.709   2.287 -0.5876 -2.5850  0.4183
  994MOL0     H34136  -0.112   3.564   2.361 -0.0349 -0.7391  1.2769
  994MOL0     H34137  -0.062   3.718   2.573 -0.5447 -5.0690 -1.6030
  994MOL0     H34138  -0.118   3.851   2.462 -1.1155  1.1966 -0.2216
  994MOL0     H34139  -0.292   3.770   2.629  0.1905  0.0270 -0.6358
  994MOL0     H34140  -0.256   3.600   2.586  1.1831 -0.7417 -0.7694
  994MOL0     H34141  -0.454   3.909   2.471  2.2027  0.6832 -2.1220
  994MOL0     H34142  -0.658   3.804   2.156  1.1906 -1.0567  1.0289
  994MOL0     H34143  -0.670   3.937   2.278 -0.2104  0.6593 -1.8413
  994MOL0     H34144  -0.484   4.052   2.217 -1.7041 -0.9951  1.6212
  994MOL0     H34145  -0.573   4.012   2.070 -0.6240 -1.2345  0.2315
  994MOL0     H34146  -0.419   3.819   2.019  2.1737  0.1434 -1.0110
  994MOL0     H34147  -0.314   3.863   2.144  0.5323 -1.7531 -2.7152
  994MOL0     H34148  -0.400   4.070   1.942 -1.6730 -1.3179  1.9122
  994MOL0     H34149  -0.283   3.954   1.896  2.2683  1.9990  0.4488
  994MOL0     H34150  -0.052   3.980   2.185 -1.9536 -0.7616 -1.5449
  994MOL0     H34151   0.294   4.056   2.199 -2.0227  1.5858  0.1599
  994MOL0     H34152   0.178   3.939   2.257  0.9372 -1.6682 -0.0319
  994MOL0     H34153   0.284   3.886   2.131 -0.8064 -1.2517  2.7072
  994MOL0     H34154   0.509   4.179   1.639  0.2932 -1.7918 -0.3891
  994MOL0     H34155   0.747   4.235   1.645 -0.4095  0.1258  0.9409
  994MOL0     H34156   0.826   4.566   1.946 -0.7600  0.5872  1.0030
  994MOL0     H34157   0.963   4.450   1.969 -2.4903 -4.7934 -1.8554
  994MOL0     H34158   0.957   4.656   1.731  2.4065  1.5888 -0.6356
  994MOL0     H34159   1.016   4.693   1.890 -1.1415 -1.9099  1.1270
  994MOL0     H34160   1.176   4.611   1.707 -2.4275  1.4722  1.7104
  994MOL0     H34161   1.140   4.452   1.766 -0.4188  0.0200 -1.5137
  994MOL0     H34162   1.249   4.696   1.917 -3.3560 -0.0951 -1.0809
  994MOL0     H34163   1.212   4.531   1.994 -0.0376  0.5390 -0.2893
  994MOL0     H34164   1.403   4.560   1.761 -1.1208 -0.7908 -0.6622
  994MOL0     H34165   1.378   4.421   1.878 -0.7777 -0.0591  0.6025
  994MOL0     H34166   1.524   4.680   1.932  1.9237 -0.0007  1.8254
  994MOL0     H34167   1.446   4.580   2.053 -0.4429 -3.3332  0.3898
  994MOL0     H34168   1.641   4.453   1.870 -0.6331 -1.3615 -0.0985
  994MOL0     H34169   1.588   4.391   2.033  3.2698 -0.9373  1.1539
  994MOL0     H34170   1.785   4.624   1.985  1.9720 -0.2424  0.1395
  994MOL0     H34171   1.818   4.458   2.014 -0.2138 -0.1313 -1.9695
  994MOL0     H34172   0.706   4.417   2.033 -0.3502  2.1525 -1.2276
  994MOL0     H34173   0.467   4.370   2.030  0.5892  0.6610 -0.4093
  994MOL0     H34174   0.106   4.183   1.762  1.3386  1.9910  1.0695
  994MOL0     H34175  -0.135   4.170   1.814  0.4579 -0.9289 -0.3875
  994MOL0     H34176   0.456   3.762   1.856 -0.2312 -1.9911 -0.8782
  994MOL0     H34177   0.608   3.956   1.796  0.6895  0.8711  4.9662
  994MOL0     H34178   1.003   3.984   1.430 -0.2780 -1.2396  1.9862
  994MOL0     H34179   1.160   4.155   1.353 -1.4917  0.7112  0.0909
  994MOL0     H34180   1.426   4.222   1.359  3.1769  1.5115 -0.3779
  994MOL0     H34181   1.295   4.343   1.345 -0.1913  0.4379  1.3781
  994MOL0     H34182   1.443   4.513   1.457 -1.9352 -1.1283 -0.8427
  994MOL0     H34183   1.508   4.471   1.305  0.5017  0.0914 -0.0282
  994MOL0     H34184   1.596   4.313   1.544  1.9615 -0.1574  0.3357
  994MOL0     H34185   1.670   4.464   1.488 -1.0158 -0.3610  2.0087
  994MOL0     H34186   1.715   4.372   1.277 -1.0272 -2.7649 -1.8821
  994MOL0     H34187   1.661   4.212   1.337  1.6545 -2.1389  1.2814
  994MOL0     H34188   2.068   4.246   1.455  0.3842  0.0607 -0.3438
  994MOL0     H34189   1.244   4.270   1.761  0.3557 -1.8594  1.2426
  994MOL0     H34190   1.048   4.123   1.827 -2.0551  3.5531 -0.2897
  995MOL0     O34191   5.255   1.735   4.258  0.4447  0.2255 -1.3312
  995MOL0     C34192   5.286   1.627   4.213  1.0082 -0.5977 -0.8055
  995MOL0     O34193   5.201   1.531   4.169  0.7809  0.0737 -0.4390
  995MOL0     C34194   5.063   1.539   4.180  0.0908 -0.0342  0.3698
  995MOL0     C34195   4.981   1.661   4.173  0.8550 -0.4886  0.2283
  995MOL0     C34196   4.839   1.663   4.178  0.3900 -0.0027  0.2465
  995MOL0     C34197   4.770   1.542   4.188  0.1832 -0.3634  0.2416
  995MOL0     O34198   4.636   1.533   4.188  0.5052  0.0899  0.4552
  995MOL0     C34199   4.549   1.653   4.198  0.1143  0.9290  0.1926
  995MOL0     C34200   4.410   1.613   4.246  0.1404 -0.7914 -0.1709
  995MOL0     C34201   4.317   1.742   4.236  0.7072 -0.5675 -0.1949
  995MOL0     C34202   4.169   1.695   4.219 -0.2017 -0.4795 -0.2506
  995MOL0     C34203   4.070   1.804   4.268  0.7410  0.3071 -0.8292
  995MOL0     C34204   3.927   1.769   4.236 -0.2737 -0.3045  0.0257
  995MOL0     C34205   3.820   1.845   4.315 -0.4944 -0.4479 -0.3151
  995MOL0     C34206   3.687   1.806   4.268  0.3374 -0.3770 -0.1980
  995MOL0     N34207   3.588   1.887   4.334  0.1765 -0.1172 -0.0492
  995MOL0     C34208   3.583   1.932   4.469 -0.0033  0.4834 -0.0255
  995MOL0     C34209   3.481   2.008   4.475  1.1110 -0.4449 -0.6237
  995MOL0     C34210   3.432   2.089   4.598  0.7484 -0.5405 -0.0762
  995MOL0     C34211   3.362   1.995   4.699 -1.0773  0.0387 -0.0389
  995MOL0     C34212   3.302   2.080   4.811 -0.2276 -0.2916  0.6998
  995MOL0     C34213   3.166   2.138   4.763  0.4797 -0.3638  0.1910
  995MOL0     O34214   3.107   2.219   4.863 -0.4680 -1.2156  0.0711
  995MOL0     C34215   3.012   2.173   4.947  0.2351 -0.1289  0.3853
  995MOL0     C34216   2.940   2.260   5.021 -0.7675 -0.6440  0.5448
  995MOL0     C34217   2.831   2.228   5.111 -0.5048 -0.1405  0.6126
  995MOL0     C34218   2.765   2.332   5.201  0.2581  0.8393 -0.4977
  995MOL0     C34219   2.794   2.091   5.110 -0.0523 -0.2334  0.2218
  995MOL0     C34220   2.677   2.036   5.187  0.0290  0.0401 -0.0165
  995MOL0     O34221   2.578   1.993   5.098  0.1746  0.0314  0.0887
  995MOL0     C34222   2.460   1.940   5.151 -0.3463 -0.5235 -0.0358
  995MOL0     C34223   2.457   1.814   5.207  0.1787 -0.3187 -0.5519
  995MOL0     C34224   2.336   1.760   5.260 -0.4797 -0.3437  1.2232
  995MOL0     C34225   2.225   1.830   5.252  0.7036  0.2356  0.6954
  995MOL0     O34226   2.100   1.794   5.296 -0.1255 -0.0151  0.8095
  995MOL0     C34227   2.084   1.655   5.336 -0.3487  0.9008 -0.4284
  995MOL0     C34228   1.970   1.634   5.447 -0.4906  0.1146  1.3965
  995MOL0     C34229   1.838   1.685   5.379  0.4548  0.5625  1.0359
  995MOL0     C34230   1.715   1.652   5.465  0.8506  0.1946  0.1440
  995MOL0     C34231   1.591   1.663   5.377 -0.5172  0.0497 -0.1023
  995MOL0     C34232   1.467   1.646   5.459  0.5551  0.0595  0.2952
  995MOL0     C34233   1.357   1.589   5.357 -0.0256 -0.3966 -0.1221
  995MOL0     C34234   1.229   1.562   5.443  0.5924  1.1481 -0.6039
  995MOL0    Cl34235   1.094   1.487   5.351 -0.1211  0.4684 -0.0949
  995MOL0     C34236   2.228   1.953   5.190  0.1784  0.3974  0.3466
  995MOL0     C34237   2.342   2.005   5.126  0.3986 -0.0287 -0.1544
  995MOL0     O34238   2.672   2.022   5.306  0.7904 -0.0698  0.0578
  995MOL0     C34239   2.873   1.999   5.036  0.5781  0.5960  0.2497
  995MOL0     C34240   2.982   2.033   4.954  0.4805  1.5430 -0.6667
  995MOL0     N34241   3.424   2.021   4.353  0.1432  0.2750  0.2211
  995MOL0     N34242   3.482   1.940   4.268  0.2079  0.2491 -0.4564
  995MOL0     C34243   4.840   1.424   4.194 -1.0729  0.2114 -0.2504
  995MOL0     C34244   4.984   1.421   4.184 -0.2685 -1.3578  0.2313
  995MOL0     C34245   5.427   1.585   4.220  0.5510 -0.0334 -0.3497
  995MOL0     C34246   5.530   1.671   4.240 -0.0699 -1.1931 -0.4407
  995MOL0     C34247   5.664   1.627   4.243 -0.4983 -0.5143 -0.2807
  995MOL0     C34248   5.695   1.496   4.217 -0.4038  0.6179  0.0773
  995MOL0     O34249   5.834   1.463   4.223  0.7220 -0.7251 -0.3001
  995MOL0     C34250   5.862   1.330   4.245  0.0401  0.1343 -0.7081
  995MOL0     C34251   6.007   1.304   4.300 -0.5552 -0.7543  0.4234
  995MOL0     C34252   6.122   1.317   4.195  0.3096 -0.0133 -0.3649
  995MOL0     C34253   6.185   1.461   4.193 -1.2404 -0.2199 -0.3707
  995MOL0     C34254   6.273   1.477   4.323  0.2424  0.2874  0.2021
  995MOL0     C34255   6.340   1.513   4.419  0.2306 -0.4212  0.3734
  995MOL0     C34256   5.592   1.411   4.197  0.2937  1.1380  0.1905
  995MOL0     C34257   5.463   1.448   4.206  0.0813 -0.3370  0.1089
  995MOL0     H34258   5.024   1.760   4.166  1.8488 -0.7723  1.7328
  995MOL0     H34259   4.783   1.756   4.173 -1.9507 -1.3767 -1.7996
  995MOL0     H34260   4.600   1.717   4.271 -1.0340  0.2518  1.6349
  995MOL0     H34261   4.548   1.700   4.099 -0.6115 -0.3057 -0.4096
  995MOL0     H34262   4.373   1.536   4.177 -0.8716  1.8943 -2.8954
  995MOL0     H34263   4.416   1.574   4.347  1.5677  1.4204  0.6759
  995MOL0     H34264   4.331   1.806   4.323 -0.5942 -1.1462  0.4751
  995MOL0     H34265   4.333   1.793   4.140 -1.2585 -3.1666 -2.0309
  995MOL0     H34266   4.148   1.672   4.115 -2.0066  0.1436 -0.0640
  995MOL0     H34267   4.162   1.604   4.280  0.7919  0.3166  1.1187
  995MOL0     H34268   4.071   1.826   4.375 -1.5192 -1.0253 -0.4799
  995MOL0     H34269   4.091   1.901   4.222 -1.7599  0.3979 -1.9607
  995MOL0     H34270   3.911   1.783   4.129  1.6382 -0.3480 -0.2995
  995MOL0     H34271   3.913   1.662   4.254 -1.1940 -0.4768 -1.4891
  995MOL0     H34272   3.820   1.819   4.421  0.0231  1.0936  0.0893
  995MOL0     H34273   3.841   1.952   4.309  3.1588 -0.6780  3.5576
  995MOL0     H34274   3.653   1.703   4.285 -1.4960 -0.8051 -4.9111
  995MOL0     H34275   3.678   1.811   4.159 -0.0955 -2.0725 -0.2684
  995MOL0     H34276   3.652   1.909   4.550  1.8040  1.4055 -1.2249
  995MOL0     H34277   3.519   2.136   4.645 -2.5168  1.4154  4.9087
  995MOL0     H34278   3.366   2.172   4.569  0.8987 -0.4511 -0.1590
  995MOL0     H34279   3.428   1.916   4.735  0.5747  0.2447 -2.3435
  995MOL0     H34280   3.282   1.953   4.637  0.8466  0.5095 -3.0889
  995MOL0     H34281   3.380   2.150   4.844 -0.1943  1.7609 -3.2069
  995MOL0     H34282   3.273   2.020   4.898  0.4155  0.1081  1.2053
  995MOL0     H34283   3.103   2.055   4.729  0.9150 -1.7789  2.5944
  995MOL0     H34284   3.187   2.200   4.676 -0.1709  0.0672  0.3315
  995MOL0     H34285   2.965   2.365   5.012  2.2304 -1.3161  0.1546
  995MOL0     H34286   2.667   2.360   5.162 -0.0024 -0.5669 -0.9042
  995MOL0     H34287   2.747   2.299   5.304 -0.8936  1.4106 -0.4992
  995MOL0     H34288   2.818   2.427   5.212 -1.9401  1.9137  2.0240
  995MOL0     H34289   2.552   1.761   5.211  1.4487  1.8476  1.3085
  995MOL0     H34290   2.340   1.654   5.282 -1.2514 -0.5734  0.3083
  995MOL0     H34291   2.057   1.597   5.247 -0.1982  0.2456 -0.0577
  995MOL0     H34292   2.174   1.611   5.380 -1.3324  0.9774  1.7894
  995MOL0     H34293   1.960   1.525   5.451  0.6162 -0.0675  0.0145
  995MOL0     H34294   1.996   1.678   5.544 -0.4800 -4.0411  3.5171
  995MOL0     H34295   1.819   1.643   5.279 -1.1436 -0.1998  1.6269
  995MOL0     H34296   1.848   1.791   5.353 -1.4389 -0.0243 -2.9707
  995MOL0     H34297   1.719   1.550   5.506 -0.6773  0.1892  0.3304
  995MOL0     H34298   1.718   1.725   5.546 -1.6292  1.5850 -0.9115
  995MOL0     H34299   1.595   1.588   5.297  2.2253  0.9671 -0.9439
  995MOL0     H34300   1.591   1.757   5.322 -2.3414 -1.1620 -2.3746
  995MOL0     H34301   1.486   1.571   5.537  1.0493 -3.4975 -2.9332
  995MOL0     H34302   1.445   1.745   5.500  1.0202  1.9347 -3.5366
  995MOL0     H34303   1.391   1.495   5.314  0.8548  0.7061 -1.9115
  995MOL0     H34304   1.343   1.660   5.275  1.6667 -0.4826 -0.5203
  995MOL0     H34305   1.196   1.656   5.488 -2.2515  0.9603 -2.0495
  995MOL0     H34306   1.246   1.496   5.529 -2.7083 -0.2655 -0.8700
  995MOL0     H34307   2.135   2.009   5.183  0.3743  0.5233 -2.3042
  995MOL0     H34308   2.329   2.105   5.085 -3.9811  0.1296  1.0529
  995MOL0     H34309   2.847   1.898   5.066 -2.4742  0.2315 -2.9110
  995MOL0     H34310   3.038   1.960   4.896 -0.4366 -0.6683  1.0964
  995MOL0     H34311   4.797   1.328   4.218  1.6688 -0.4366  2.7356
  995MOL0     H34312   5.037   1.326   4.185 -1.1088 -2.3264 -6.0937
  995MOL0     H34313   5.503   1.775   4.255  0.2886 -1.0158 -0.9831
  995MOL0     H34314   5.754   1.688   4.251 -0.9211  0.3035 -1.5138
  995MOL0     H34315   5.787   1.287   4.312  1.6862 -1.6737  0.0735
  995MOL0     H34316   5.863   1.278   4.149  2.4671 -2.8297  0.7428
  995MOL0     H34317   6.013   1.207   4.351  2.0631 -1.0756 -0.3378
  995MOL0     H34318   6.025   1.381   4.375 -4.6057  1.8532 -0.9901
  995MOL0     H34319   6.073   1.303   4.098 -0.0019  0.7381 -0.3239
  995MOL0     H34320   6.202   1.243   4.200  0.7675  0.0622 -3.8963
  995MOL0     H34321   6.103   1.533   4.187 -3.2298 -2.4113 -0.8876
  995MOL0     H34322   6.244   1.466   4.101 -1.4539  0.8866 -0.4628
  995MOL0     H34323   6.403   1.557   4.493  2.7298 -1.8876 -0.7596
  995MOL0     H34324   5.601   1.305   4.176  1.7977  1.4084 -0.6937
  995MOL0     H34325   5.391   1.371   4.177  0.1468  0.5807 -2.8480
  996MOL0     O34326   2.955  10.109   6.200 -0.2945 -0.2048 -0.4681
  996MOL0     C34327   3.023  10.215   6.182 -0.5625 -0.4705  0.0722
  996MOL0     O34328   3.016  10.298   6.064 -0.1814 -0.5590 -0.5725
  996MOL0     C34329   2.916  10.262   5.976 -0.2152  0.7740  0.2932
  996MOL0     C34330   2.942  10.190   5.860 -0.5001 -0.4157 -0.2976
  996MOL0     C34331   2.841  10.147   5.773 -0.7774  0.2979  0.2203
  996MOL0     C34332   2.713  10.193   5.785 -0.2941 -0.7815 -0.4511
  996MOL0     O34333   2.622  10.165   5.689 -0.2065  0.1043  0.2811
  996MOL0     C34334   2.494  10.112   5.727  0.3551 -0.5134 -0.6468
  996MOL0     C34335   2.487   9.991   5.818 -0.4660  0.2093 -0.2416
  996MOL0     C34336   2.346   9.958   5.851  0.1242  0.2057 -0.2830
  996MOL0     C34337   2.333   9.815   5.895  0.4005  0.8381  0.0859
  996MOL0     C34338   2.195   9.799   5.965 -0.1532 -0.3793  0.2323
  996MOL0     C34339   2.195   9.661   6.029  0.1894  0.9481  1.1306
  996MOL0     C34340   2.065   9.620   6.101 -0.1223  0.0940 -0.4679
  996MOL0     C34341   2.064   9.691   6.236  0.0067  0.0691 -0.4042
  996MOL0     N34342   1.991   9.603   6.330  0.0801  0.0055 -0.2412
  996MOL0     C34343   1.859   9.605   6.365  1.0612 -0.2843  0.0071
  996MOL0     C34344   1.834   9.489   6.445 -0.1185  0.2805  0.2265
  996MOL0     C34345   1.705   9.437   6.503 -0.4755  0.4995 -0.0257
  996MOL0     C34346   1.591   9.504   6.429 -0.6533  0.9069  0.2497
  996MOL0     C34347   1.451   9.460   6.464  0.3645 -0.1559 -0.1952
  996MOL0     C34348   1.398   9.552   6.567 -0.3352 -0.8189 -0.0453
  996MOL0     O34349   1.281   9.491   6.614  0.1586 -0.9360  0.1135
  996MOL0     C34350   1.187   9.568   6.664  0.0719  0.1846  0.2999
  996MOL0     C34351   1.154   9.556   6.801 -1.2604  0.1907  0.5729
  996MOL0     C34352   1.068   9.646   6.853  0.3811 -0.2828  0.3714
  996MOL0     C34353   1.042   9.629   7.001 -0.2016 -0.8998  0.6650
  996MOL0     C34354   1.002   9.746   6.770  0.3373  0.1500  0.2537
  996MOL0     C34355   0.901   9.836   6.810  0.3641  0.5392 -0.1712
  996MOL0     O34356   0.814   9.790   6.909 -0.7571 -0.4203  0.8220
  996MOL0     C34357   0.683   9.839   6.922 -0.1042  0.4693 -0.3131
  996MOL0     C34358   0.612   9.895   6.813  0.7265  0.2898 -0.3394
  996MOL0     C34359   0.485   9.955   6.839 -0.1939 -0.1139  0.3321
  996MOL0     C34360   0.429   9.954   6.965  0.2425  0.0980 -0.4447
  996MOL0     O34361   0.308   9.999   7.005  0.1802 -0.0214  0.4421
  996MOL0     C34362   0.227  10.084   6.912  0.2459 -0.5054 -0.7033
  996MOL0     C34363   0.085  10.097   6.961  0.1559  1.0528 -0.1912
  996MOL0     C34364   0.001  10.192   6.885  0.7215 -0.5501  0.3128
  996MOL0     C34365  -0.149  10.201   6.947 -0.7454  0.3669 -0.0746
  996MOL0     C34366  -0.236  10.289   6.860 -0.0744  0.3379  0.1988
  996MOL0     C34367  -0.385  10.288   6.900  0.5065 -0.9465  0.2298
  996MOL0     C34368  -0.406  10.338   7.042 -0.2787 -0.2420 -0.4100
  996MOL0     C34369  -0.416  10.491   7.051 -0.0594  1.2890  0.3158
  996MOL0    Cl34370  -0.421  10.518   7.223 -0.2644 -0.1631  0.0276
  996MOL0     C34371   0.504   9.889   7.069 -0.1876 -0.6013 -0.2085
  996MOL0     C34372   0.629   9.837   7.046 -0.1235  0.5403 -0.3029
  996MOL0     O34373   0.907   9.949   6.767 -0.2640  0.6561  0.2429
  996MOL0     C34374   1.041   9.758   6.638 -0.0981  0.4044 -0.2345
  996MOL0     C34375   1.128   9.665   6.584 -0.4591 -1.0482 -0.5859
  996MOL0     N34376   1.962   9.432   6.461  0.6386 -0.0614  0.1730
  996MOL0     N34377   2.052   9.499   6.407  0.5731 -0.6155  0.2223
  996MOL0     C34378   2.680  10.270   5.897  0.1564  0.1206 -0.7854
  996MOL0     C34379   2.782  10.301   6.001 -0.0654 -0.1910  1.1295
  996MOL0     C34380   3.138  10.246   6.275  0.1232  0.4896  1.1525
  996MOL0     C34381   3.144  10.173   6.401  0.2480  0.7621  0.6677
  996MOL0     C34382   3.258  10.188   6.482  0.8151 -0.0775  0.3918
  996MOL0     C34383   3.361  10.267   6.445  0.2610  0.2057  0.2895
  996MOL0     O34384   3.473  10.267   6.525  0.6050 -0.2182  0.3677
  996MOL0     C34385   3.582  10.365   6.494 -0.6081 -0.2129 -0.5245
  996MOL0     C34386   3.676  10.377   6.614 -0.0781  0.1513 -0.4474
  996MOL0     C34387   3.798  10.466   6.578 -0.0542  0.4634  0.0638
  996MOL0     C34388   3.912  10.445   6.679 -0.6249  0.2341  0.1147
  996MOL0     C34389   4.014  10.552   6.675  0.7046  0.0405 -0.5628
  996MOL0     C34390   4.099  10.639   6.677  0.5057 -0.0941  1.1796
  996MOL0     C34391   3.356  10.339   6.326  0.1650  0.8034  0.7165
  996MOL0     C34392   3.246  10.332   6.239 -0.1531  0.7485 -0.3428
  996MOL0     H34393   3.045  10.165   5.837 -0.4889  0.8653 -1.7589
  996MOL0     H34394   2.878  10.086   5.691 -0.0457 -1.2937  1.6688
  996MOL0     H34395   2.432  10.195   5.764  0.7674  1.2062 -3.5223
  996MOL0     H34396   2.447  10.083   5.633 -0.8477  0.4135 -0.3738
  996MOL0     H34397   2.530   9.900   5.776 -1.3037 -0.5997  0.6211
  996MOL0     H34398   2.538  10.024   5.909 -0.3180  2.4117 -1.0461
  996MOL0     H34399   2.308  10.032   5.923 -0.0136  0.4358 -0.5922
  996MOL0     H34400   2.293   9.967   5.756  1.6484  2.2164 -1.0119
  996MOL0     H34401   2.341   9.744   5.813 -0.0184 -0.7205  1.3558
  996MOL0     H34402   2.415   9.803   5.966  2.1271  2.0417 -1.6245
  996MOL0     H34403   2.185   9.865   6.053  1.8132 -0.9873  0.9638
  996MOL0     H34404   2.116   9.816   5.891  0.5801 -1.4829 -0.8211
  996MOL0     H34405   2.212   9.593   5.946 -1.1852  1.3823  0.4632
  996MOL0     H34406   2.274   9.647   6.103  0.7667 -0.4728  0.2789
  996MOL0     H34407   1.964   9.640   6.064 -1.4687  0.1366  2.8771
  996MOL0     H34408   2.083   9.512   6.111  1.1268  0.2105 -1.2446
  996MOL0     H34409   2.022   9.793   6.235 -0.4119 -0.0497  1.3780
  996MOL0     H34410   2.161   9.706   6.285 -1.9577  0.9599  3.6498
  996MOL0     H34411   1.785   9.678   6.334 -0.1395 -2.4632 -2.8560
  996MOL0     H34412   1.706   9.328   6.507 -1.5872  0.4668 -0.2073
  996MOL0     H34413   1.701   9.475   6.606  1.0413 -1.3651  0.7900
  996MOL0     H34414   1.611   9.472   6.326  1.2214 -0.5714  1.0322
  996MOL0     H34415   1.591   9.613   6.429 -1.7602  0.9308 -0.8463
  996MOL0     H34416   1.453   9.364   6.516  0.8524 -1.6309 -2.7413
  996MOL0     H34417   1.381   9.445   6.381  0.0501  0.1042  0.0174
  996MOL0     H34418   1.388   9.652   6.524  0.9796 -0.2855  0.8088
  996MOL0     H34419   1.470   9.560   6.650  0.1861  0.6962 -0.6094
  996MOL0     H34420   1.215   9.488   6.859  3.7109  2.7075 -1.0931
  996MOL0     H34421   0.934   9.614   7.011 -0.3632 -1.8594 -1.8777
  996MOL0     H34422   1.101   9.547   7.043 -0.4141 -2.1064 -1.2661
  996MOL0     H34423   1.077   9.717   7.055  1.0031 -1.0379  0.1311
  996MOL0     H34424   0.659   9.901   6.716 -0.2303  2.7794 -0.7267
  996MOL0     H34425   0.434   9.997   6.753  1.3316  0.6681 -0.2225
  996MOL0     H34426   0.270  10.180   6.882 -0.2698 -1.0578 -3.5119
  996MOL0     H34427   0.227  10.046   6.809  2.4966 -0.1390 -0.8908
  996MOL0     H34428   0.030  10.004   6.947 -1.5210  1.7457  1.4178
  996MOL0     H34429   0.088  10.119   7.068  0.7986  1.5928 -0.3113
  996MOL0     H34430  -0.003  10.168   6.778  0.7780 -0.4536  0.2891
  996MOL0     H34431   0.053  10.288   6.885  1.6764 -1.0197 -1.7368
  996MOL0     H34432  -0.188  10.099   6.952 -1.0658  0.5431  1.7469
  996MOL0     H34433  -0.151  10.241   7.049 -3.3167  0.0265  0.0681
  996MOL0     H34434  -0.226  10.269   6.754  1.9477 -0.3172  0.4712
  996MOL0     H34435  -0.196  10.388   6.886  1.4958 -0.7423  2.1494
  996MOL0     H34436  -0.451  10.355   6.845  0.0299  0.8803  2.8279
  996MOL0     H34437  -0.422  10.186   6.888 -0.5515 -0.3530 -2.1248
  996MOL0     H34438  -0.333  10.299   7.113 -0.2998  2.1081  1.0048
  996MOL0     H34439  -0.508  10.316   7.075 -1.0629  1.7768 -1.3455
  996MOL0     H34440  -0.506  10.526   6.999 -0.1485  2.0685  0.9814
  996MOL0     H34441  -0.330  10.545   7.012  0.6184 -0.0745 -0.1205
  996MOL0     H34442   0.470   9.891   7.172  0.8183 -3.5502  0.2874
  996MOL0     H34443   0.707   9.804   7.115 -2.0630  1.0491  2.3120
  996MOL0     H34444   1.004   9.835   6.571 -1.8076 -0.8261 -0.7625
  996MOL0     H34445   1.166   9.691   6.486 -0.0203 -0.3218 -0.2330
  996MOL0     H34446   2.578  10.302   5.914  1.4888  2.3955  5.6880
  996MOL0     H34447   2.754  10.364   6.085 -2.0936 -0.2872  0.5774
  996MOL0     H34448   3.056  10.112   6.421  1.1110 -1.4389 -1.6470
  996MOL0     H34449   3.266  10.140   6.579  0.3107 -2.0052 -0.4749
  996MOL0     H34450   3.646  10.328   6.414  1.6837  1.4483  0.4261
  996MOL0     H34451   3.537  10.458   6.460  0.8801  0.0223 -1.9853
  996MOL0     H34452   3.717  10.280   6.644  3.0286  2.1647  2.6094
  996MOL0     H34453   3.634  10.423   6.704  1.2213 -0.3871  0.4587
  996MOL0     H34454   3.776  10.573   6.590  1.5827  0.7414  0.8576
  996MOL0     H34455   3.845  10.454   6.480  1.2594  1.8684  0.4767
  996MOL0     H34456   3.964  10.349   6.670  1.6521  1.5400 -1.9271
  996MOL0     H34457   3.878  10.448   6.783  0.9209  1.2846  0.6168
  996MOL0     H34458   4.171  10.718   6.673 -2.0166  2.3267 -0.8383
  996MOL0     H34459   3.441  10.403   6.302  0.3697  0.2290 -0.1450
  996MOL0     H34460   3.219  10.396   6.155 -2.2880  0.5191  0.1152
  997MOL0     O34461   4.952  11.329   7.853 -0.2062 -0.2324  0.2063
  997MOL0     C34462   4.926  11.407   7.946 -0.6869  0.7009 -0.4068
  997MOL0     O34463   4.809  11.469   7.974 -0.1233  0.5274  0.8487
  997MOL0     C34464   4.699  11.416   7.910  0.1475 -0.3990 -0.7160
  997MOL0     C34465   4.677  11.279   7.903  0.9236 -0.1041  0.7420
  997MOL0     C34466   4.563  11.228   7.829  0.6777 -0.2045 -0.2071
  997MOL0     C34467   4.465  11.317   7.783  1.4790  0.1336  0.1866
  997MOL0     O34468   4.342  11.275   7.728  0.8741 -0.7624 -0.9117
  997MOL0     C34469   4.351  11.168   7.632  0.4569  0.5272  0.1311
  997MOL0     C34470   4.248  11.179   7.520  0.1666 -0.2823  0.9180
  997MOL0     C34471   4.112  11.160   7.574  0.1119 -0.4454  0.0199
  997MOL0     C34472   4.008  11.178   7.458  0.3918  0.1412  1.1843
  997MOL0     C34473   3.859  11.170   7.507 -0.2507 -0.1477  0.0953
  997MOL0     C34474   3.752  11.127   7.402 -0.2456  0.1555  0.5139
  997MOL0     C34475   3.607  11.139   7.444  0.5504 -0.6786 -0.1049
  997MOL0     C34476   3.498  11.088   7.348 -0.2267  0.5329 -0.1273
  997MOL0     N34477   3.360  11.127   7.391  0.6284  1.3641  0.1773
  997MOL0     C34478   3.252  11.048   7.355  0.0015  0.2163  0.8234
  997MOL0     C34479   3.148  11.119   7.407  0.0775 -0.9439 -0.3617
  997MOL0     C34480   3.008  11.067   7.403  0.4134  0.9154  0.0697
  997MOL0     C34481   2.928  11.135   7.290  0.1961  0.2205 -0.3822
  997MOL0     C34482   2.782  11.080   7.274 -1.1422  0.2314 -0.6147
  997MOL0     C34483   2.806  10.959   7.179 -0.2978  0.0689 -0.0285
  997MOL0     O34484   2.715  10.859   7.216 -0.2425  0.1243  0.2343
  997MOL0     C34485   2.589  10.870   7.166  0.1077  0.1876 -0.4635
  997MOL0     C34486   2.516  10.753   7.165  0.2844 -0.3776 -0.8084
  997MOL0     C34487   2.376  10.743   7.131 -0.0493 -1.0025  0.3051
  997MOL0     C34488   2.322  10.605   7.137  0.1294  0.0414  1.2568
  997MOL0     C34489   2.308  10.862   7.094  0.1033  0.1363  0.0459
  997MOL0     C34490   2.168  10.877   7.054 -0.4228  0.5951 -0.4523
  997MOL0     O34491   2.142  10.970   6.969 -0.1220  0.2012  0.3207
  997MOL0     C34492   2.016  10.970   6.912  0.1254 -0.1444  0.2417
  997MOL0     C34493   1.998  10.928   6.775 -0.4331 -0.0250 -0.3818
  997MOL0     C34494   1.873  10.943   6.723 -0.1890 -0.8486 -0.2799
  997MOL0     C34495   1.763  11.015   6.791 -0.0313  0.5637 -0.0773
  997MOL0     O34496   1.656  11.060   6.717 -0.5138 -0.0841 -0.2189
  997MOL0     C34497   1.525  11.075   6.779 -0.5419  0.4583  0.1453
  997MOL0     C34498   1.433  10.970   6.722  0.4110 -0.5061 -0.8690
  997MOL0     C34499   1.451  10.849   6.805  0.7502  0.4651 -0.0493
  997MOL0     C34500   1.352  10.739   6.742 -0.7259  0.6507 -0.6572
  997MOL0     C34501   1.209  10.726   6.795 -0.0107 -0.3083 -0.7505
  997MOL0     C34502   1.199  10.680   6.942 -0.3143  0.1392  0.0389
  997MOL0     C34503   1.065  10.701   7.010 -0.3477 -0.0023  0.0684
  997MOL0     C34504   0.963  10.600   6.961  0.1099  0.1014 -0.2653
  997MOL0    Cl34505   1.018  10.445   7.025 -0.1958  0.1767  0.4653
  997MOL0     C34506   1.785  11.047   6.922 -0.0344 -0.0969 -0.1841
  997MOL0     C34507   1.909  11.024   6.983 -0.5678  0.1032 -0.3159
  997MOL0     O34508   2.099  10.776   7.078 -0.1858 -0.2862 -0.2034
  997MOL0     C34509   2.383  10.980   7.083 -0.3550  0.1712  0.1106
  997MOL0     C34510   2.515  10.981   7.121 -0.9509 -0.2281 -0.1033
  997MOL0     N34511   3.193  11.239   7.465 -0.3144 -0.3830  0.9429
  997MOL0     N34512   3.325  11.231   7.464 -0.5288  0.6051 -0.7466
  997MOL0     C34513   4.482  11.449   7.815  0.3662  0.2532 -0.2564
  997MOL0     C34514   4.601  11.501   7.871 -0.2138 -0.0845 -0.1281
  997MOL0     C34515   5.048  11.463   8.016  0.1273  0.5596  0.4288
  997MOL0     C34516   5.040  11.535   8.142 -0.0009  0.0301 -0.5972
  997MOL0     C34517   5.155  11.586   8.200  0.4584  0.3948  0.2320
  997MOL0     C34518   5.276  11.560   8.147  0.6332 -0.2421 -0.0921
  997MOL0     O34519   5.383  11.604   8.222 -0.4539 -0.6194  0.5591
  997MOL0     C34520   5.387  11.745   8.230 -0.8458 -0.3470 -0.6722
  997MOL0     C34521   5.515  11.787   8.304 -0.2422 -0.1214 -0.0086
  997MOL0     C34522   5.635  11.741   8.217  0.6803  0.4411  0.0578
  997MOL0     C34523   5.766  11.776   8.290 -0.0850  0.2225 -0.8456
  997MOL0     C34524   5.867  11.743   8.190  0.2523 -0.6345  0.5420
  997MOL0     C34525   5.958  11.718   8.114  0.0760  0.5711 -0.6621
  997MOL0     C34526   5.286  11.504   8.022 -0.0487  1.1948 -0.4176
  997MOL0     C34527   5.175  11.458   7.950 -0.4886  0.0553  0.1828
  997MOL0     H34528   4.747  11.209   7.947 -0.7531 -1.2973  1.5681
  997MOL0     H34529   4.542  11.122   7.818  3.4355 -0.6356 -2.3744
  997MOL0     H34530   4.445  11.181   7.579 -1.1720  0.1132 -3.0782
  997MOL0     H34531   4.346  11.070   7.680 -1.4561 -0.9585 -2.7890
  997MOL0     H34532   4.262  11.272   7.466  1.6768 -0.0448  1.6834
  997MOL0     H34533   4.243  11.094   7.451 -2.8398  0.5154 -0.0079
  997MOL0     H34534   4.100  11.065   7.628  0.9824 -0.8860 -0.5349
  997MOL0     H34535   4.105  11.241   7.647  2.3304  0.0481 -0.2683
  997MOL0     H34536   4.027  11.275   7.413 -0.5317  0.6738  1.9051
  997MOL0     H34537   4.025  11.105   7.379 -5.6031 -0.3294 -0.1465
  997MOL0     H34538   3.851  11.087   7.577 -1.4509 -0.9714 -0.9724
  997MOL0     H34539   3.831  11.267   7.548  0.6550  0.4985 -0.7681
  997MOL0     H34540   3.770  11.195   7.318  0.9190  0.4380  0.9745
  997MOL0     H34541   3.775  11.024   7.371 -1.4542 -0.0406  0.2375
  997MOL0     H34542   3.595  11.101   7.546  1.0687  0.3537  0.3548
  997MOL0     H34543   3.602  11.248   7.452  4.4247 -0.4283  0.7101
  997MOL0     H34544   3.509  10.979   7.342  1.2561  0.6397  0.2536
  997MOL0     H34545   3.523  11.113   7.245  2.9242 -1.2722  0.0681
  997MOL0     H34546   3.232  10.953   7.307  0.3908  0.6085 -0.1356
  997MOL0     H34547   3.007  10.958   7.394 -4.8700  0.5123  2.3515
  997MOL0     H34548   2.959  11.088   7.498 -3.0775 -0.4171 -1.2696
  997MOL0     H34549   2.969  11.132   7.188 -2.1809  0.5050 -1.4154
  997MOL0     H34550   2.916  11.241   7.315 -2.9734 -0.1374  0.0173
  997MOL0     H34551   2.717  11.163   7.245 -2.1979 -0.5736 -0.6108
  997MOL0     H34552   2.760  11.037   7.372  1.5826 -1.1829 -0.5060
  997MOL0     H34553   2.908  10.919   7.183 -0.1170  0.4861 -0.4652
  997MOL0     H34554   2.796  10.991   7.075  0.8727  0.8150  0.0707
  997MOL0     H34555   2.560  10.660   7.199 -3.7914 -1.4599  2.4048
  997MOL0     H34556   2.239  10.597   7.207  0.8629  0.3504  2.1930
  997MOL0     H34557   2.309  10.568   7.035 -1.8723  1.3947  0.9703
  997MOL0     H34558   2.402  10.550   7.188  0.6162  0.5440  1.0530
  997MOL0     H34559   2.079  10.881   6.719 -0.1918  1.2594 -1.1557
  997MOL0     H34560   1.855  10.916   6.620 -2.3438  0.1795 -0.2396
  997MOL0     H34561   1.534  11.069   6.888 -2.3281 -0.6223  0.2576
  997MOL0     H34562   1.496  11.178   6.758 -0.5443 -0.0008 -2.4583
  997MOL0     H34563   1.329  10.999   6.734 -0.5483 -3.1650 -2.0057
  997MOL0     H34564   1.450  10.953   6.615 -0.2929 -1.5319 -0.8346
  997MOL0     H34565   1.423  10.865   6.910 -2.6508 -2.6934 -0.2613
  997MOL0     H34566   1.552  10.807   6.803  0.6102 -0.0082  1.2482
  997MOL0     H34567   1.352  10.745   6.633  0.2654  0.5734 -0.6704
  997MOL0     H34568   1.407  10.644   6.752 -0.4333  0.8667 -0.1820
  997MOL0     H34569   1.152  10.651   6.738 -1.6854  0.3855 -0.0503
  997MOL0     H34570   1.155  10.820   6.784 -1.3379 -0.6290  2.0948
  997MOL0     H34571   1.226  10.574   6.950 -3.3334 -1.0457 -3.1770
  997MOL0     H34572   1.264  10.733   7.012 -1.2838 -0.9605  1.8515
  997MOL0     H34573   1.044  10.805   6.983  0.2109  0.2049  0.4149
  997MOL0     H34574   1.086  10.707   7.117  1.7254 -1.1673 -0.2086
  997MOL0     H34575   0.950  10.599   6.853 -2.1194  0.6175 -0.0603
  997MOL0     H34576   0.867  10.637   7.000  0.9765  2.2096 -0.0235
  997MOL0     H34577   1.712  11.088   6.991 -0.9436 -1.9686  0.0351
  997MOL0     H34578   1.929  11.060   7.083  0.6003 -2.0237  0.2716
  997MOL0     H34579   2.335  11.071   7.048  0.7819 -0.0037 -2.1079
  997MOL0     H34580   2.575  11.071   7.117  1.0953 -1.4519  1.3247
  997MOL0     H34581   4.397  11.512   7.788  0.0578 -0.2390 -0.4555
  997MOL0     H34582   4.623  11.601   7.904  2.6837 -0.6586 -0.1093
  997MOL0     H34583   4.944  11.555   8.188  1.0085  2.4643  0.6158
  997MOL0     H34584   5.143  11.637   8.295 -0.6247  0.2054  0.2116
  997MOL0     H34585   5.385  11.787   8.128 -1.7708 -1.2120 -1.0203
  997MOL0     H34586   5.295  11.784   8.274 -0.2121  0.3820  0.0358
  997MOL0     H34587   5.512  11.742   8.403 -2.0768  4.9908  2.6651
  997MOL0     H34588   5.512  11.895   8.321  0.0629  0.1307 -1.4115
  997MOL0     H34589   5.635  11.792   8.120  1.2076  2.5323  1.0775
  997MOL0     H34590   5.636  11.636   8.190 -3.3432  0.3400 -0.2652
  997MOL0     H34591   5.786  11.716   8.380 -1.1269  1.1216  0.0059
  997MOL0     H34592   5.777  11.878   8.327 -1.1543  0.1952 -0.4297
  997MOL0     H34593   6.054  11.715   8.066  0.6870 -4.1352  0.3900
  997MOL0     H34594   5.384  11.491   7.978 -0.2639 -1.0808 -0.3614
  997MOL0     H34595   5.181  11.405   7.855 -2.7732 -0.6112  0.3672
  998MOL0     O34596   2.476   2.670   1.560 -0.0882 -0.3188 -1.2564
  998MOL0     C34597   2.400   2.589   1.511 -0.0197  0.1865  0.1537
  998MOL0     O34598   2.272   2.555   1.551 -0.3206 -1.5243 -0.2443
  998MOL0     C34599   2.212   2.597   1.666 -0.2637  0.7034 -0.5267
  998MOL0     C34600   2.279   2.626   1.783  0.5907  0.0790  0.4090
  998MOL0     C34601   2.205   2.665   1.895 -0.5487 -0.6338  0.1158
  998MOL0     C34602   2.068   2.665   1.893 -1.3231  0.0577  0.1693
  998MOL0     O34603   1.998   2.710   1.996  0.8619  0.5409 -0.6342
  998MOL0     C34604   1.864   2.758   1.973  0.5857 -1.2136  0.2166
  998MOL0     C34605   1.757   2.665   2.022 -0.1172  0.3591 -0.1169
  998MOL0     C34606   1.611   2.720   2.041 -0.0558 -0.4099  0.3393
  998MOL0     C34607   1.508   2.608   2.037 -0.5776  0.0491  0.2598
  998MOL0     C34608   1.358   2.651   2.049 -0.0390  0.2492 -0.3935
  998MOL0     C34609   1.283   2.513   2.038 -0.1641 -1.2305 -0.0504
  998MOL0     C34610   1.123   2.530   2.041  0.7314  0.2927  0.1706
  998MOL0     C34611   1.048   2.399   2.017 -0.3299  0.0432  0.8640
  998MOL0     N34612   0.909   2.395   2.077 -0.9444 -0.3488  0.6056
  998MOL0     C34613   0.868   2.321   2.190  0.6038  0.6279  0.7889
  998MOL0     C34614   0.735   2.339   2.201  0.8950  0.4067  0.8993
  998MOL0     C34615   0.635   2.283   2.305  0.6891 -0.1063  0.0664
  998MOL0     C34616   0.588   2.401   2.400  0.5038 -1.0181  0.5808
  998MOL0     C34617   0.541   2.346   2.533 -0.3296 -0.8879 -0.3750
  998MOL0     C34618   0.416   2.255   2.527  0.4876 -1.1345  0.6661
  998MOL0     O34619   0.375   2.207   2.657  0.0397 -0.0740  0.1567
  998MOL0     C34620   0.280   2.277   2.734 -0.5750  0.6408  0.0041
  998MOL0     C34621   0.233   2.223   2.853  0.0943  0.3533  0.2550
  998MOL0     C34622   0.146   2.293   2.941 -0.5613 -0.2591 -0.0740
  998MOL0     C34623   0.133   2.216   3.069  0.2268 -0.1465 -0.4684
  998MOL0     C34624   0.094   2.423   2.901 -0.5262  0.3904 -0.1455
  998MOL0     C34625  -0.009   2.494   2.969  0.1685 -0.1849  0.1480
  998MOL0     O34626  -0.053   2.624   2.931  0.6121 -0.5969 -0.1236
  998MOL0     C34627  -0.187   2.635   2.944 -0.0068  0.1484 -0.1468
  998MOL0     C34628  -0.238   2.729   3.043  0.4424 -0.5595  0.3135
  998MOL0     C34629  -0.377   2.754   3.047 -0.4573  0.2424  0.9337
  998MOL0     C34630  -0.467   2.687   2.970  0.4226 -0.1100  0.8431
  998MOL0     O34631  -0.599   2.743   2.966 -0.1568  0.1480 -0.0242
  998MOL0     C34632  -0.703   2.657   2.924 -0.7545  0.4199  1.0477
  998MOL0     C34633  -0.825   2.751   2.925 -1.0606  0.1976 -0.1569
  998MOL0     C34634  -0.958   2.681   2.963  0.0710  0.3566  0.0246
  998MOL0     C34635  -1.090   2.752   2.933 -0.2760  0.0773  0.3735
  998MOL0     C34636  -1.185   2.756   3.054 -0.1885  0.0678  0.2406
  998MOL0     C34637  -1.155   2.847   3.167  0.2157  0.3773  0.1285
  998MOL0     C34638  -1.253   2.829   3.277  1.1724 -0.8042  0.8751
  998MOL0     C34639  -1.181   2.819   3.407  0.2847 -0.1912  0.3065
  998MOL0    Cl34640  -1.097   2.661   3.420 -0.2197  0.4158  0.0430
  998MOL0     C34641  -0.421   2.593   2.874 -0.0425 -0.5543 -0.0538
  998MOL0     C34642  -0.278   2.568   2.863  0.2879  0.4661  0.7807
  998MOL0     O34643  -0.069   2.423   3.043 -0.2270 -0.0256 -0.6267
  998MOL0     C34644   0.144   2.472   2.786  0.5310  0.0862 -0.3304
  998MOL0     C34645   0.237   2.408   2.705  0.3135  0.0228 -0.3022
  998MOL0     N34646   0.694   2.414   2.093  0.9723 -0.0161 -0.4389
  998MOL0     N34647   0.798   2.452   2.022 -0.2293  0.8058  0.5596
  998MOL0     C34648   2.005   2.625   1.774 -0.0028 -1.1789  0.5851
  998MOL0     C34649   2.082   2.608   1.662  0.2078 -0.0134 -0.4841
  998MOL0     C34650   2.438   2.516   1.384 -0.9828 -0.7589  0.5409
  998MOL0     C34651   2.345   2.455   1.303  1.0309 -0.0275 -0.2527
  998MOL0     C34652   2.392   2.391   1.187  0.3153  0.3572 -0.2821
  998MOL0     C34653   2.526   2.404   1.147 -0.0985  0.8675  0.0144
  998MOL0     O34654   2.571   2.370   1.022 -0.4780  0.0737  0.4766
  998MOL0     C34655   2.499   2.271   0.946  1.0812 -0.3171 -0.2497
  998MOL0     C34656   2.391   2.336   0.859  0.0038 -0.0115 -0.0442
  998MOL0     C34657   2.453   2.438   0.761 -0.3574  0.2623  1.0271
  998MOL0     C34658   2.554   2.382   0.654  0.1371 -0.7004  0.8161
  998MOL0     C34659   2.502   2.279   0.577 -0.1570  0.2165  0.4293
  998MOL0     C34660   2.449   2.181   0.528 -0.5697  0.2521 -0.6013
  998MOL0     C34661   2.618   2.462   1.229  1.0798 -0.3478 -0.0528
  998MOL0     C34662   2.573   2.519   1.348  0.1983  0.2873  0.0949
  998MOL0     H34663   2.386   2.607   1.787  0.6536  0.2397 -0.2924
  998MOL0     H34664   2.247   2.685   1.993  0.2851  0.5091 -0.4525
  998MOL0     H34665   1.846   2.845   2.037 -0.5935  0.5854 -2.3937
  998MOL0     H34666   1.852   2.795   1.870  0.4144  0.8798  0.9458
  998MOL0     H34667   1.760   2.585   1.948 -0.3808  2.3389 -2.3862
  998MOL0     H34668   1.794   2.622   2.115  1.8940  0.1791 -0.9495
  998MOL0     H34669   1.596   2.773   2.136 -2.5282  0.6700 -0.5759
  998MOL0     H34670   1.601   2.793   1.961 -1.7538  0.9691  1.7347
  998MOL0     H34671   1.526   2.555   1.943 -1.4933  1.8199 -0.9708
  998MOL0     H34672   1.526   2.537   2.118  2.3079 -1.6489 -1.6703
  998MOL0     H34673   1.336   2.709   2.139  2.0378  0.4598  0.0363
  998MOL0     H34674   1.334   2.705   1.957 -0.6170 -4.2802 -3.1911
  998MOL0     H34675   1.307   2.466   1.942 -2.6605 -0.2195 -1.2634
  998MOL0     H34676   1.314   2.440   2.114  3.2424 -0.0423 -0.1806
  998MOL0     H34677   1.099   2.558   2.144 -0.5514  2.4132 -0.6500
  998MOL0     H34678   1.081   2.600   1.969 -1.2264 -3.6637 -2.9489
  998MOL0     H34679   1.101   2.314   2.061  0.4470 -0.2926 -0.6457
  998MOL0     H34680   1.045   2.389   1.908 -3.6222  0.9742  0.7694
  998MOL0     H34681   0.934   2.269   2.259  1.0786 -0.7823 -0.6740
  998MOL0     H34682   0.547   2.240   2.258 -3.0674  3.0330  3.5024
  998MOL0     H34683   0.674   2.214   2.380 -0.5543  2.5310  3.3646
  998MOL0     H34684   0.500   2.457   2.366 -0.1119 -0.6245  2.7119
  998MOL0     H34685   0.674   2.468   2.404  0.7721 -1.3698  0.7015
  998MOL0     H34686   0.514   2.432   2.595 -3.7479 -1.3765 -0.9786
  998MOL0     H34687   0.618   2.290   2.587 -1.8647  0.3154  3.4209
  998MOL0     H34688   0.439   2.164   2.472 -0.4597 -2.8986  2.9988
  998MOL0     H34689   0.336   2.305   2.471  2.1202  1.2178  0.3011
  998MOL0     H34690   0.252   2.117   2.867 -1.0370 -0.0707 -1.1156
  998MOL0     H34691   0.191   2.272   3.143  0.4095 -0.8109 -0.1014
  998MOL0     H34692   0.028   2.218   3.100  0.3861 -0.5225  0.0943
  998MOL0     H34693   0.156   2.109   3.058 -2.7023 -1.3135  2.8519
  998MOL0     H34694  -0.164   2.773   3.108 -0.6847 -1.2607  2.1395
  998MOL0     H34695  -0.417   2.810   3.130 -2.5286 -1.5014  1.2097
  998MOL0     H34696  -0.693   2.614   2.824  2.1806  1.4292  0.7953
  998MOL0     H34697  -0.710   2.578   3.000  3.0243  0.2453  1.4143
  998MOL0     H34698  -0.809   2.836   2.991  0.8661 -1.0209  1.0638
  998MOL0     H34699  -0.840   2.788   2.823  3.6725 -2.0507 -2.0085
  998MOL0     H34700  -0.957   2.656   3.070 -3.5132  0.9953  0.3476
  998MOL0     H34701  -0.960   2.583   2.914 -0.9367 -0.9362  2.4544
  998MOL0     H34702  -1.088   2.859   2.911 -0.9198  0.0321  0.0767
  998MOL0     H34703  -1.139   2.697   2.853  1.6284 -3.7295  1.6016
  998MOL0     H34704  -1.202   2.654   3.090  2.3605  0.1252  1.7739
  998MOL0     H34705  -1.279   2.791   3.009  0.3092 -0.6455 -1.4291
  998MOL0     H34706  -1.056   2.812   3.197  0.5256  0.1676 -1.0889
  998MOL0     H34707  -1.138   2.948   3.127 -1.8228  0.8055  0.2248
  998MOL0     H34708  -1.317   2.742   3.262 -0.4951  0.5022  0.1366
  998MOL0     H34709  -1.318   2.917   3.277 -2.3623 -3.1867  1.7827
  998MOL0     H34710  -1.264   2.820   3.478 -0.7819  0.3758 -0.9005
  998MOL0     H34711  -1.105   2.896   3.422 -0.6373  0.0853  5.1599
  998MOL0     H34712  -0.490   2.540   2.810  1.6477 -1.6029 -1.0699
  998MOL0     H34713  -0.236   2.499   2.791 -1.1649  0.8892 -0.5130
  998MOL0     H34714   0.098   2.563   2.749 -1.0375 -0.3317  0.4977
  998MOL0     H34715   0.272   2.456   2.613  1.3634 -1.7905 -0.9030
  998MOL0     H34716   1.897   2.614   1.773 -0.3702  1.5483  1.1153
  998MOL0     H34717   2.036   2.582   1.568  1.4933  0.0393 -1.1520
  998MOL0     H34718   2.242   2.456   1.336  1.5313  1.5588  1.4687
  998MOL0     H34719   2.317   2.352   1.118  0.1581  1.4282 -0.7321
  998MOL0     H34720   2.573   2.221   0.882  1.4978  0.1979 -0.1737
  998MOL0     H34721   2.448   2.191   1.001 -1.7610  0.2593 -1.8373
  998MOL0     H34722   2.330   2.403   0.921 -0.1630 -1.7629  1.7857
  998MOL0     H34723   2.332   2.259   0.808  3.1318 -1.7196 -1.3282
  998MOL0     H34724   2.510   2.512   0.817  2.2440 -0.0987 -0.9762
  998MOL0     H34725   2.368   2.484   0.710  0.2563 -0.1048 -0.3772
  998MOL0     H34726   2.642   2.353   0.711  0.9483 -0.3822 -0.2502
  998MOL0     H34727   2.575   2.470   0.592  1.0997 -0.3950  1.5576
  998MOL0     H34728   2.402   2.092   0.491  0.2632 -0.3538 -0.2423
  998MOL0     H34729   2.722   2.485   1.208  0.6425  2.7304  0.6008
  998MOL0     H34730   2.641   2.577   1.410 -0.7320  1.6739 -0.1508
  999MOL0     O34731   4.969   3.734   5.088  0.2448  0.3166 -0.3236
  999MOL0     C34732   5.054   3.766   5.168 -0.3367 -0.5223 -0.4403
  999MOL0     O34733   5.040   3.796   5.305 -0.3813  0.3341  0.4188
  999MOL0     C34734   4.910   3.811   5.349 -0.6639 -0.6449  1.1911
  999MOL0     C34735   4.805   3.729   5.331  0.5188 -0.1840  0.3636
  999MOL0     C34736   4.683   3.747   5.404 -0.4136 -0.4371  0.6920
  999MOL0     C34737   4.671   3.856   5.493 -0.0742  0.1822  0.3331
  999MOL0     O34738   4.566   3.889   5.578  0.3834  0.3363  0.2395
  999MOL0     C34739   4.437   3.831   5.549  0.1278  0.8587  0.0604
  999MOL0     C34740   4.334   3.900   5.635  0.3022  0.4012 -0.2972
  999MOL0     C34741   4.195   3.857   5.612 -0.2625  0.3404  0.1758
  999MOL0     C34742   4.099   3.894   5.727  0.6663  0.3252  0.5024
  999MOL0     C34743   3.961   3.857   5.674  0.8429 -0.3544  0.5907
  999MOL0     C34744   3.856   3.849   5.795  0.6889 -0.0302 -0.2062
  999MOL0     C34745   3.738   3.945   5.774 -0.4294  0.6941  0.3370
  999MOL0     C34746   3.642   3.891   5.660  0.7323 -0.1432  0.0128
  999MOL0     N34747   3.514   3.969   5.660  0.6397 -0.1853  0.1058
  999MOL0     C34748   3.507   4.104   5.655 -0.0229 -0.7572  1.0774
  999MOL0     C34749   3.375   4.134   5.655 -0.5717 -0.9844 -0.5654
  999MOL0     C34750   3.323   4.279   5.650 -0.0794 -0.0787 -0.1871
  999MOL0     C34751   3.168   4.286   5.631  0.4734 -0.4425  0.1231
  999MOL0     C34752   3.110   4.325   5.497  0.5773  0.0033  0.5663
  999MOL0     C34753   2.960   4.353   5.491  0.5847  0.4013 -0.9590
  999MOL0     O34754   2.923   4.413   5.366 -0.0408  0.2404  0.6773
  999MOL0     C34755   2.791   4.432   5.339  0.0579  1.3848 -0.2619
  999MOL0     C34756   2.756   4.462   5.209  0.0966  0.7976  0.1852
  999MOL0     C34757   2.626   4.496   5.167  0.5201  0.4462  0.7516
  999MOL0     C34758   2.596   4.519   5.023  0.1173 -0.0756 -0.5589
  999MOL0     C34759   2.518   4.497   5.262  0.2557  0.2461 -0.6271
  999MOL0     C34760   2.379   4.545   5.250  0.8033  0.4212 -0.2049
  999MOL0     O34761   2.311   4.505   5.137 -0.0909 -0.2721 -0.2668
  999MOL0     C34762   2.175   4.498   5.122  0.2865 -0.3297 -0.9661
  999MOL0     C34763   2.101   4.577   5.027  0.2348  0.7789 -0.3198
  999MOL0     C34764   1.970   4.540   5.007 -0.0158 -0.6244 -0.3844
  999MOL0     C34765   1.904   4.454   5.095  0.0609 -0.5330  0.0970
  999MOL0     O34766   1.774   4.415   5.086 -0.2145 -0.2805  0.8360
  999MOL0     C34767   1.670   4.506   5.065 -1.1462  0.4977  0.2090
  999MOL0     C34768   1.555   4.465   5.164  1.1359  0.3718  0.9926
  999MOL0     C34769   1.424   4.549   5.159  0.6393 -0.1900  0.3631
  999MOL0     C34770   1.459   4.699   5.188 -0.0316 -0.2101  0.1254
  999MOL0     C34771   1.345   4.792   5.196 -0.0284 -0.1545 -1.3478
  999MOL0     C34772   1.397   4.929   5.249  0.2796  0.1690  0.1405
  999MOL0     C34773   1.273   5.006   5.301  0.0583 -0.0348  0.2789
  999MOL0     C34774   1.318   5.087   5.420 -0.0598 -0.6494  0.2686
  999MOL0    Cl34775   1.372   5.004   5.564 -0.0606  0.6187 -0.3799
  999MOL0     C34776   1.972   4.376   5.190  0.3863 -0.1824 -0.2739
  999MOL0     C34777   2.113   4.394   5.185 -0.0513 -0.6842 -0.0071
  999MOL0     O34778   2.328   4.602   5.345 -0.1363  0.1534 -0.4372
  999MOL0     C34779   2.554   4.443   5.387 -0.2250  0.7472  0.2242
  999MOL0     C34780   2.686   4.421   5.429  0.7378 -0.0488 -0.7830
  999MOL0     N34781   3.302   4.022   5.664 -0.4638  0.1388  0.0369
  999MOL0     N34782   3.382   3.925   5.673 -0.7984 -0.2918  0.6675
  999MOL0     C34783   4.772   3.946   5.494 -0.4971 -0.6278  0.7644
  999MOL0     C34784   4.895   3.921   5.426  0.8387  0.7630 -0.0666
  999MOL0     C34785   5.180   3.796   5.108  0.9661  0.9087 -0.0547
  999MOL0     C34786   5.213   3.779   4.970  0.1579 -0.3307 -0.1594
  999MOL0     C34787   5.339   3.789   4.925  0.3658 -0.8813  0.2101
  999MOL0     C34788   5.449   3.842   4.999  0.6648  0.1991  0.2196
  999MOL0     O34789   5.573   3.858   4.939 -0.1602 -0.3334 -0.3534
  999MOL0     C34790   5.689   3.844   5.025 -0.2520  0.0413  0.5787
  999MOL0     C34791   5.816   3.897   4.958 -0.6317 -0.2194 -0.4969
  999MOL0     C34792   5.940   3.866   5.043 -0.4570 -0.9964  0.1341
  999MOL0     C34793   6.057   3.916   4.953  0.6594  0.6811  0.4351
  999MOL0     C34794   6.192   3.886   5.005  0.7586  0.2641  0.7127
  999MOL0     C34795   6.301   3.850   5.046  0.5595 -0.3632  0.4853
  999MOL0     C34796   5.428   3.856   5.138 -0.5464 -0.2196 -0.0045
  999MOL0     C34797   5.294   3.837   5.182  0.5115 -0.6706 -0.1514
  999MOL0     H34798   4.806   3.644   5.264  1.6003  0.2708 -0.2182
  999MOL0     H34799   4.604   3.674   5.390  0.3121 -1.1622  0.2750
  999MOL0     H34800   4.412   3.839   5.443  1.8334  4.0364 -0.2193
  999MOL0     H34801   4.434   3.726   5.579 -3.6483  0.8768  0.2411
  999MOL0     H34802   4.351   3.863   5.736 -3.0949 -2.7720 -0.6705
  999MOL0     H34803   4.350   4.008   5.645  1.3432  0.0127  5.5583
  999MOL0     H34804   4.165   3.901   5.517  0.7661 -0.2851 -0.4494
  999MOL0     H34805   4.189   3.748   5.604  1.5971  0.1625  0.6554
  999MOL0     H34806   4.123   3.844   5.822 -1.1604  2.6429  2.3200
  999MOL0     H34807   4.091   4.000   5.754  3.3408  1.2557 -1.8866
  999MOL0     H34808   3.926   3.922   5.594  0.2979  0.0971  1.1867
  999MOL0     H34809   3.957   3.758   5.626 -0.1412 -0.2907  0.5186
  999MOL0     H34810   3.821   3.747   5.813 -0.1502 -0.2651 -2.7211
  999MOL0     H34811   3.914   3.873   5.884 -1.6565  2.1040  0.8807
  999MOL0     H34812   3.682   3.949   5.868 -0.4153 -2.0795  0.5610
  999MOL0     H34813   3.786   4.036   5.737 -0.0372 -1.0493 -4.0590
  999MOL0     H34814   3.609   3.788   5.673  1.6774 -0.5114 -0.4416
  999MOL0     H34815   3.682   3.899   5.559 -1.1867  1.3947 -0.6970
  999MOL0     H34816   3.593   4.170   5.647  1.1599 -2.4530 -2.3378
  999MOL0     H34817   3.346   4.334   5.741 -0.2727 -2.4456  1.4067
  999MOL0     H34818   3.370   4.337   5.571  0.1351 -1.2646 -0.9615
  999MOL0     H34819   3.138   4.363   5.703 -2.6998 -3.2403  2.0965
  999MOL0     H34820   3.121   4.193   5.662 -2.1368  0.6058 -0.4215
  999MOL0     H34821   3.130   4.246   5.424  1.3596  1.1307 -0.4772
  999MOL0     H34822   3.164   4.416   5.468  0.8474 -0.1087  0.7104
  999MOL0     H34823   2.952   4.433   5.565  2.6324  1.9678 -2.3073
  999MOL0     H34824   2.896   4.272   5.527  2.1033 -0.5833 -0.3836
  999MOL0     H34825   2.839   4.474   5.140 -1.8422  0.4368 -2.3934
  999MOL0     H34826   2.492   4.538   4.995  0.0951  0.3393 -0.1948
  999MOL0     H34827   2.655   4.607   4.997 -0.3177  0.4428  0.1708
  999MOL0     H34828   2.631   4.434   4.964  2.3640 -0.6591  1.4642
  999MOL0     H34829   2.141   4.657   4.965  2.8167 -0.4279 -0.3302
  999MOL0     H34830   1.914   4.592   4.930  3.1908  2.2008 -1.0276
  999MOL0     H34831   1.697   4.609   5.087 -2.6901  0.9604  0.0778
  999MOL0     H34832   1.643   4.493   4.960  0.6170 -1.8821 -0.0291
  999MOL0     H34833   1.528   4.362   5.140  1.2199  0.7364 -0.7666
  999MOL0     H34834   1.582   4.468   5.270 -1.0468 -1.8829  1.7184
  999MOL0     H34835   1.346   4.514   5.226 -0.5883 -0.6776 -1.2518
  999MOL0     H34836   1.387   4.543   5.056 -1.0615 -1.7990  1.0104
  999MOL0     H34837   1.503   4.699   5.288 -2.4720 -0.7721  1.2812
  999MOL0     H34838   1.530   4.734   5.113  2.6167  1.9837  3.3737
  999MOL0     H34839   1.266   4.746   5.255  1.7359  0.6847  1.9543
  999MOL0     H34840   1.306   4.805   5.095  0.7230 -0.5579 -1.7004
  999MOL0     H34841   1.483   4.926   5.316  2.8307  0.2237 -2.8949
  999MOL0     H34842   1.442   4.981   5.164  4.1350 -0.2759  1.7388
  999MOL0     H34843   1.193   4.939   5.335  0.1302 -0.1639  0.1950
  999MOL0     H34844   1.230   5.078   5.231  2.2565  0.8993 -0.1756
  999MOL0     H34845   1.230   5.145   5.450  2.4426  3.6375  0.1212
  999MOL0     H34846   1.392   5.156   5.380  1.4804 -2.7226 -0.6558
  999MOL0     H34847   1.913   4.310   5.252  0.3429 -0.5908 -0.7443
  999MOL0     H34848   2.174   4.316   5.231  0.1837 -2.2044 -2.7037
  999MOL0     H34849   2.476   4.418   5.458  0.9443 -0.4337  1.1382
  999MOL0     H34850   2.699   4.399   5.535 -2.4522 -0.1069 -0.3023
  999MOL0     H34851   4.759   4.044   5.539 -2.2747  0.3638 -1.6575
  999MOL0     H34852   4.989   3.972   5.446  0.9947  0.1768  0.7350
  999MOL0     H34853   5.143   3.742   4.895 -1.3288  1.2918  0.3378
  999MOL0     H34854   5.367   3.758   4.825  2.1861 -1.4721  0.8545
  999MOL0     H34855   5.680   3.894   5.122  0.0164  2.0426 -0.3662
  999MOL0     H34856   5.699   3.738   5.046 -1.7988 -0.5795 -1.4645
  999MOL0     H34857   5.813   3.999   4.920  3.7895 -1.1476 -4.2682
  999MOL0     H34858   5.832   3.842   4.864 -0.8950  4.5570 -3.7201
  999MOL0     H34859   5.949   3.761   5.073  3.4217 -0.2220  2.4215
  999MOL0     H34860   5.938   3.921   5.138 -1.9058  0.0033 -0.4340
  999MOL0     H34861   6.052   4.020   4.919  3.2149  1.1490  1.2640
  999MOL0     H34862   6.049   3.856   4.861  0.2475 -0.3655  1.1433
  999MOL0     H34863   6.398   3.817   5.077  0.8887  1.1076  1.1037
  999MOL0     H34864   5.493   3.885   5.219 -0.8177 -1.0357  0.5173
  999MOL0     H34865   5.271   3.867   5.283 -3.9393 -0.6193 -0.9662
 1000MOL0     O34866   7.399   0.115   0.474  0.0801 -0.1823 -0.2904
 1000MOL0     C34867   7.480   0.044   0.534 -0.3424 -0.0990 -0.4252
 1000MOL0     O34868   7.454  -0.061   0.610  0.1165  0.1022 -0.1589
 1000MOL0     C34869   7.321  -0.083   0.631 -0.3308 -0.0643  0.0529
 1000MOL0     C34870   7.255   0.001   0.713  1.5671 -0.4916  0.1364
 1000MOL0     C34871   7.131  -0.031   0.754 -0.1566 -0.0301  0.4050
 1000MOL0     C34872   7.063  -0.150   0.709  0.6272 -0.1059 -0.1303
 1000MOL0     O34873   6.934  -0.184   0.744  0.2166 -0.6962 -0.0259
 1000MOL0     C34874   6.844  -0.077   0.767  0.1890 -0.7570  0.2971
 1000MOL0     C34875   6.713  -0.148   0.807 -0.1934 -0.6181 -0.2644
 1000MOL0     C34876   6.595  -0.049   0.805  0.6817 -0.3558  0.4100
 1000MOL0     C34877   6.580   0.016   0.933 -0.0504  0.0769  0.7458
 1000MOL0     C34878   6.445   0.078   0.960  0.0001  0.2100 -0.3043
 1000MOL0     C34879   6.391   0.180   0.863  0.1228 -0.2373 -0.1244
 1000MOL0     C34880   6.242   0.183   0.864  0.3460 -0.0757 -0.5849
 1000MOL0     C34881   6.192   0.232   1.006  0.8885 -0.9379  0.2684
 1000MOL0     N34882   6.049   0.277   0.993  0.3952 -0.8000  0.3751
 1000MOL0     C34883   5.939   0.202   1.011 -0.3784  0.3485  0.2380
 1000MOL0     C34884   5.836   0.272   0.951  0.0721 -0.1898 -0.1615
 1000MOL0     C34885   5.689   0.229   0.946 -0.1638 -0.1808  0.6197
 1000MOL0     C34886   5.643   0.157   0.809  0.9559 -0.0333 -0.1621
 1000MOL0     C34887   5.558   0.246   0.714  0.6851  0.6286 -1.1353
 1000MOL0     C34888   5.412   0.203   0.710 -1.0220  0.5375  0.2432
 1000MOL0     O34889   5.346   0.233   0.840 -0.1688  0.3370  0.0956
 1000MOL0     C34890   5.211   0.213   0.856  0.3872  1.0696 -0.5334
 1000MOL0     C34891   5.129   0.146   0.761 -0.5506  0.3020 -0.1005
 1000MOL0     C34892   4.988   0.159   0.756 -0.5751  0.3707 -0.9782
 1000MOL0     C34893   4.914   0.080   0.645 -0.0266 -0.4634  0.7590
 1000MOL0     C34894   4.930   0.228   0.874 -0.4531  0.0301  0.2241
 1000MOL0     C34895   4.787   0.273   0.884 -0.6054  0.4626 -0.0502
 1000MOL0     O34896   4.738   0.298   1.010 -0.1421  1.2116 -0.5202
 1000MOL0     C34897   4.646   0.399   1.033  0.7793 -0.1395  0.0234
 1000MOL0     C34898   4.611   0.511   0.950  0.1554 -0.5537 -0.0246
 1000MOL0     C34899   4.521   0.607   0.994 -0.2416  0.2019  0.1707
 1000MOL0     C34900   4.473   0.607   1.132  0.0834 -0.4681  0.8598
 1000MOL0     O34901   4.390   0.716   1.167 -0.6167  0.1807  0.5785
 1000MOL0     C34902   4.348   0.720   1.307  0.4370 -0.2422 -0.4557
 1000MOL0     C34903   4.212   0.636   1.324 -0.2950 -1.1025 -0.5681
 1000MOL0     C34904   4.108   0.697   1.239 -0.7069  0.8924 -0.2663
 1000MOL0     C34905   3.960   0.692   1.278 -0.8275  0.9263  0.5489
 1000MOL0     C34906   3.869   0.753   1.173  0.5385 -0.3557  1.1209
 1000MOL0     C34907   3.723   0.719   1.172 -0.2726  0.1098  0.1585
 1000MOL0     C34908   3.670   0.741   1.311 -0.3522 -0.8473 -0.6153
 1000MOL0     C34909   3.523   0.751   1.330 -0.0068 -0.2126  0.1588
 1000MOL0    Cl34910   3.455   0.881   1.227  0.2084 -0.8475 -0.3089
 1000MOL0     C34911   4.507   0.497   1.208 -0.4838 -0.2544 -0.2815
 1000MOL0     C34912   4.579   0.390   1.159  0.1681 -0.2727 -0.3183
 1000MOL0     O34913   4.726   0.297   0.779 -0.2705 -0.1926 -0.5638
 1000MOL0     C34914   5.013   0.291   0.967 -0.1635 -0.9428  0.3121
 1000MOL0     C34915   5.149   0.284   0.960 -1.0156 -1.1903  0.0924
 1000MOL0     N34916   5.887   0.391   0.903 -0.2940  0.2540  0.6914
 1000MOL0     N34917   6.011   0.391   0.930 -0.6782 -0.3544 -0.2787
 1000MOL0     C34918   7.131  -0.236   0.621 -0.0540  0.5048  0.9615
 1000MOL0     C34919   7.265  -0.203   0.586 -0.6681 -0.1403  0.2951
 1000MOL0     C34920   7.625   0.089   0.519  0.9997  0.3178 -0.7891
 1000MOL0     C34921   7.666   0.169   0.408 -0.1943  0.2239 -0.8733
 1000MOL0     C34922   7.803   0.185   0.383 -0.8243  0.1270 -0.4551
 1000MOL0     C34923   7.899   0.156   0.481  0.0448  0.0402  0.3951
 1000MOL0     O34924   8.030   0.202   0.463  0.3446 -0.5222  0.7974
 1000MOL0     C34925   8.122   0.101   0.432  1.3377  0.2527  0.5986
 1000MOL0     C34926   8.157   0.104   0.286 -0.3927 -0.0469  0.2009
 1000MOL0     C34927   8.216   0.245   0.239  0.2899  0.6929  0.2410
 1000MOL0     C34928   8.225   0.256   0.081 -0.0279  0.0525  0.1130
 1000MOL0     C34929   8.329   0.177   0.022 -0.8623  0.8943  0.3917
 1000MOL0     C34930   8.427   0.110  -0.014 -0.1054  0.1278 -0.4156
 1000MOL0     C34931   7.858   0.089   0.591 -1.1998  1.2304  0.7973
 1000MOL0     C34932   7.726   0.048   0.609 -0.2143  0.4378 -0.3160
 1000MOL0     H34933   7.305   0.080   0.769 -2.2021  1.3496  1.2611
 1000MOL0     H34934   7.081   0.040   0.819 -1.2767  0.6430 -1.1254
 1000MOL0     H34935   6.878  -0.009   0.845 -0.1509  0.5283 -0.6412
 1000MOL0     H34936   6.816  -0.005   0.690  1.3351 -0.0892  0.4865
 1000MOL0     H34937   6.698  -0.238   0.747  0.1352 -0.3647 -0.7299
 1000MOL0     H34938   6.719  -0.199   0.904 -4.1845  0.8632  0.9888
 1000MOL0     H34939   6.606   0.023   0.723  2.0657 -2.4411 -1.3503
 1000MOL0     H34940   6.505  -0.102   0.774  1.2294 -0.1822 -1.6419
 1000MOL0     H34941   6.589  -0.055   1.015 -1.0169 -0.2551  0.5678
 1000MOL0     H34942   6.662   0.089   0.939 -0.2577  0.5339 -1.4088
 1000MOL0     H34943   6.380  -0.009   0.970  1.9711 -1.2628  0.5164
 1000MOL0     H34944   6.453   0.133   1.054 -2.5480  2.6674 -1.3735
 1000MOL0     H34945   6.429   0.281   0.885  2.0491 -1.0756  0.5781
 1000MOL0     H34946   6.431   0.152   0.765  0.3711 -0.8561  0.1503
 1000MOL0     H34947   6.210   0.261   0.794  0.9600  1.5658  0.9147
 1000MOL0     H34948   6.185   0.092   0.838 -4.2521  2.1738  0.5166
 1000MOL0     H34949   6.253   0.316   1.041  0.8008  0.0502 -1.8312
 1000MOL0     H34950   6.201   0.147   1.075 -0.4088 -2.3251 -1.1874
 1000MOL0     H34951   5.935   0.106   1.061 -0.8593  0.4973  0.4925
 1000MOL0     H34952   5.677   0.154   1.025 -1.2090 -0.5866  0.0974
 1000MOL0     H34953   5.636   0.323   0.966  0.8252  0.3141  0.9804
 1000MOL0     H34954   5.589   0.067   0.839  0.9623 -0.1971 -0.6442
 1000MOL0     H34955   5.732   0.131   0.751  1.4110  1.5151 -0.2219
 1000MOL0     H34956   5.596   0.220   0.615  0.8598 -4.1631 -0.0587
 1000MOL0     H34957   5.559   0.354   0.734 -1.8506  0.7818 -1.4835
 1000MOL0     H34958   5.417   0.095   0.693 -0.2582  0.9342 -2.5063
 1000MOL0     H34959   5.367   0.247   0.621  0.4557  0.4649 -0.5575
 1000MOL0     H34960   5.184   0.095   0.683 -1.1535  1.1780 -1.1293
 1000MOL0     H34961   4.875  -0.015   0.683  1.8072 -0.4795  2.8013
 1000MOL0     H34962   4.826   0.125   0.598  0.1277 -1.8087 -0.8910
 1000MOL0     H34963   4.985   0.071   0.563 -2.1478 -2.2605 -0.9858
 1000MOL0     H34964   4.653   0.521   0.850 -2.3633 -1.8581 -1.3236
 1000MOL0     H34965   4.502   0.697   0.936  0.2703 -0.6800 -1.4197
 1000MOL0     H34966   4.422   0.675   1.373 -1.2388 -1.3012  0.7864
 1000MOL0     H34967   4.337   0.820   1.350  0.7339 -0.3604 -0.1072
 1000MOL0     H34968   4.227   0.529   1.303  3.7596 -0.6994 -0.5413
 1000MOL0     H34969   4.191   0.641   1.431  1.2047  0.8570 -0.3212
 1000MOL0     H34970   4.116   0.646   1.143  1.8205  0.2161  0.2449
 1000MOL0     H34971   4.135   0.803   1.226  1.8371  0.0107 -3.6752
 1000MOL0     H34972   3.936   0.586   1.293 -1.2306  0.1648 -4.0508
 1000MOL0     H34973   3.954   0.741   1.375 -1.2372 -1.0846  1.5983
 1000MOL0     H34974   3.915   0.744   1.074 -0.9698 -2.2850  0.5354
 1000MOL0     H34975   3.872   0.861   1.194 -1.6500  0.4983 -2.1735
 1000MOL0     H34976   3.648   0.761   1.105 -2.0591 -1.0543  1.3358
 1000MOL0     H34977   3.724   0.611   1.151  0.5243  0.3337 -1.0447
 1000MOL0     H34978   3.720   0.827   1.357  0.8932 -2.2269  0.7382
 1000MOL0     H34979   3.703   0.652   1.366  1.6473  0.0128 -0.3616
 1000MOL0     H34980   3.503   0.767   1.436  2.1321 -0.5371  0.6518
 1000MOL0     H34981   3.476   0.660   1.292 -3.7869  1.0368  1.3210
 1000MOL0     H34982   4.459   0.490   1.305  0.8724 -1.6069  0.3331
 1000MOL0     H34983   4.614   0.314   1.229  0.3697  2.6892  3.1214
 1000MOL0     H34984   4.972   0.359   1.041  1.9025  0.2551  0.4164
 1000MOL0     H34985   5.210   0.348   1.022 -3.2090 -1.2242  2.4594
 1000MOL0     H34986   7.086  -0.320   0.568  0.0905  1.2317 -0.3687
 1000MOL0     H34987   7.334  -0.264   0.528  0.4077  0.3066  1.0776
 1000MOL0     H34988   7.589   0.207   0.342 -2.2497 -1.5843  0.3293
 1000MOL0     H34989   7.829   0.250   0.300  2.4271  2.4402  2.1029
 1000MOL0     H34990   8.210   0.102   0.497  1.5215  3.2266  0.4396
 1000MOL0     H34991   8.073   0.005   0.447  0.1357  0.1878 -2.9395
 1000MOL0     H34992   8.069   0.076   0.228 -2.1470  1.0595  2.1841
 1000MOL0     H34993   8.231   0.029   0.258  0.3927  1.8232 -3.3184
 1000MOL0     H34994   8.317   0.261   0.278  0.8321 -1.1787 -0.2954
 1000MOL0     H34995   8.155   0.329   0.273  1.2071  0.7998  1.7225
 1000MOL0     H34996   8.248   0.358   0.049  0.5709  0.1088  0.6955
 1000MOL0     H34997   8.129   0.226   0.038 -0.0021 -1.1784  0.8691
 1000MOL0     H34998   8.508   0.050  -0.052 -0.2645  0.2939 -1.0306
 1000MOL0     H34999   7.939   0.060   0.658  0.5380 -2.2248 -2.4291
 1000MOL0     H35000   7.706  -0.012   0.697  0.0553 -1.7714 -1.6690
 1001MOL0     O35001   0.735   1.058   1.964 -0.4437 -0.0997 -0.2411
 1001MOL0     C35002   0.752   0.963   2.042  0.7392  0.4751 -0.1139
 1001MOL0     O35003   0.645   0.889   2.100  0.2426 -0.3745 -0.1414
 1001MOL0     C35004   0.522   0.907   2.043  0.2976  0.3678 -0.3745
 1001MOL0     C35005   0.419   0.926   2.136 -0.4894 -0.2156  0.3159
 1001MOL0     C35006   0.292   0.943   2.107  0.2095 -0.1108 -0.3434
 1001MOL0     C35007   0.264   0.942   1.971 -0.0047  0.1057  0.1213
 1001MOL0     O35008   0.140   0.979   1.920 -0.7124  0.5424 -0.0105
 1001MOL0     C35009   0.030   1.004   2.001  0.1580 -0.3084  0.3360
 1001MOL0     C35010  -0.041   0.875   2.053  0.4523 -0.7006 -0.2985
 1001MOL0     C35011  -0.170   0.900   2.133  0.4170  1.0684  0.3241
 1001MOL0     C35012  -0.263   0.780   2.153 -1.0001 -0.7118  0.6055
 1001MOL0     C35013  -0.382   0.816   2.245  1.0597 -0.2126 -0.3785
 1001MOL0     C35014  -0.459   0.685   2.269 -0.1774  0.3917 -0.5413
 1001MOL0     C35015  -0.612   0.713   2.262 -0.0764 -0.1268  0.2135
 1001MOL0     C35016  -0.701   0.601   2.316 -0.2656 -0.6821  0.6891
 1001MOL0     N35017  -0.684   0.473   2.239  0.2967  0.2139 -0.0100
 1001MOL0     C35018  -0.646   0.350   2.296  0.7255 -0.0625 -0.1028
 1001MOL0     C35019  -0.701   0.254   2.213 -0.1165 -0.1357  0.0897
 1001MOL0     C35020  -0.668   0.107   2.208 -0.2914  0.0177 -0.3705
 1001MOL0     C35021  -0.774   0.021   2.271 -0.4065  0.1383  0.2264
 1001MOL0     C35022  -0.800   0.059   2.413  0.1622 -0.2089  0.6505
 1001MOL0     C35023  -0.911  -0.028   2.456  1.0535  0.2319  0.9045
 1001MOL0     O35024  -0.970   0.029   2.574 -0.0615 -0.5592  0.9198
 1001MOL0     C35025  -1.060  -0.055   2.637 -0.1216  0.2689  0.3086
 1001MOL0     C35026  -1.101  -0.023   2.772 -0.0907  0.1753 -0.4515
 1001MOL0     C35027  -1.178  -0.105   2.850 -0.2092 -0.0226  0.1071
 1001MOL0     C35028  -1.176  -0.057   2.993 -0.5477 -0.4166  0.0856
 1001MOL0     C35029  -1.252  -0.204   2.790  0.7326  0.4086 -0.3250
 1001MOL0     C35030  -1.356  -0.278   2.861 -0.4036  0.1258  0.3533
 1001MOL0     O35031  -1.408  -0.378   2.789  0.3513  0.8069  0.4135
 1001MOL0     C35032  -1.527  -0.431   2.836 -0.0844  0.4928 -0.7380
 1001MOL0     C35033  -1.535  -0.513   2.950  0.2137 -0.1791 -0.5888
 1001MOL0     C35034  -1.655  -0.565   2.992 -0.0481  0.2701 -0.8921
 1001MOL0     C35035  -1.769  -0.538   2.911 -0.0752  0.3986  0.1060
 1001MOL0     O35036  -1.889  -0.579   2.962  0.2338  0.4261 -0.1012
 1001MOL0     C35037  -1.976  -0.622   2.865 -0.3377  0.5710  0.3582
 1001MOL0     C35038  -2.105  -0.700   2.925 -0.7284 -0.1289 -0.3153
 1001MOL0     C35039  -2.208  -0.728   2.813 -0.6778 -0.3165 -0.2798
 1001MOL0     C35040  -2.342  -0.786   2.866  0.4444 -0.3892  0.2234
 1001MOL0     C35041  -2.434  -0.813   2.749 -0.1754  0.8985 -0.0367
 1001MOL0     C35042  -2.584  -0.828   2.800 -0.0071 -0.4524  1.0681
 1001MOL0     C35043  -2.607  -0.960   2.884  0.1908 -0.3130 -0.6727
 1001MOL0     C35044  -2.755  -0.995   2.899  0.6385 -0.1537 -0.3471
 1001MOL0    Cl35045  -2.840  -0.885   3.016  0.0785  0.1604  0.2213
 1001MOL0     C35046  -1.758  -0.458   2.792  0.3396 -0.0355 -0.3302
 1001MOL0     C35047  -1.635  -0.403   2.758 -0.4383  0.3884 -0.7873
 1001MOL0     O35048  -1.403  -0.226   2.967  0.5031 -0.0205 -0.0246
 1001MOL0     C35049  -1.218  -0.239   2.655 -0.6514  0.1313  0.0556
 1001MOL0     C35050  -1.120  -0.169   2.590  0.2720  0.0658 -0.2332
 1001MOL0     N35051  -0.760   0.319   2.100 -0.6279  0.0589 -0.4660
 1001MOL0     N35052  -0.752   0.447   2.128 -0.6719  0.0511 -0.0772
 1001MOL0     C35053   0.361   0.925   1.868  0.4994 -0.2145 -0.8533
 1001MOL0     C35054   0.495   0.911   1.909  0.2084 -0.9376  0.5301
 1001MOL0     C35055   0.889   0.934   2.091  0.5141  0.1262 -0.3005
 1001MOL0     C35056   0.910   0.822   2.169  0.0926  0.0734  0.0771
 1001MOL0     C35057   1.034   0.796   2.233  0.7415 -0.2785 -0.1903
 1001MOL0     C35058   1.129   0.894   2.234 -0.8328 -0.5173  0.3046
 1001MOL0     O35059   1.243   0.885   2.301  0.6540 -0.0823  0.1610
 1001MOL0     C35060   1.252   0.790   2.405  0.5551  0.4385  0.0208
 1001MOL0     C35061   1.342   0.672   2.354 -0.4058 -0.7419  0.3647
 1001MOL0     C35062   1.434   0.621   2.463  0.4307  0.1965  0.1938
 1001MOL0     C35063   1.554   0.710   2.489  0.2617 -0.3240 -0.2474
 1001MOL0     C35064   1.657   0.642   2.570 -0.6520 -0.2387  0.0645
 1001MOL0     C35065   1.741   0.577   2.629 -0.2990 -0.1642 -0.0503
 1001MOL0     C35066   1.106   1.007   2.160 -0.8632 -1.2778  0.4228
 1001MOL0     C35067   0.989   1.036   2.093 -0.8144  0.2655  0.8327
 1001MOL0     H35068   0.458   0.942   2.236 -1.2704  1.3550  0.4012
 1001MOL0     H35069   0.214   0.960   2.180 -0.2697 -6.4217  1.1414
 1001MOL0     H35070   0.045   1.073   2.084 -1.0567  0.6498 -0.1915
 1001MOL0     H35071  -0.032   1.059   1.929  1.7700  0.6694 -0.3399
 1001MOL0     H35072  -0.076   0.835   1.957 -2.2073  1.0821 -0.1837
 1001MOL0     H35073   0.027   0.809   2.107  3.0438 -0.4419 -3.0204
 1001MOL0     H35074  -0.140   0.944   2.228 -0.4336  1.4779  0.4118
 1001MOL0     H35075  -0.228   0.977   2.081  0.9952 -0.7333 -3.3188
 1001MOL0     H35076  -0.308   0.748   2.058 -0.0479 -0.8828  0.2061
 1001MOL0     H35077  -0.206   0.700   2.200  1.4184  0.7655  0.3492
 1001MOL0     H35078  -0.363   0.870   2.338 -0.2517 -2.4086  1.2701
 1001MOL0     H35079  -0.445   0.886   2.188 -1.9424 -2.7269 -0.4089
 1001MOL0     H35080  -0.435   0.616   2.188  2.8078  4.4911 -3.6266
 1001MOL0     H35081  -0.432   0.645   2.367 -2.0196  0.7093  0.1346
 1001MOL0     H35082  -0.640   0.802   2.319  0.2658  1.1226 -1.4841
 1001MOL0     H35083  -0.632   0.723   2.155  4.4278 -2.4956 -1.0987
 1001MOL0     H35084  -0.807   0.628   2.323 -0.3649 -1.4151  2.5970
 1001MOL0     H35085  -0.671   0.580   2.418 -2.0091  0.8985  1.5995
 1001MOL0     H35086  -0.593   0.319   2.385  0.9704 -1.7764 -0.7960
 1001MOL0     H35087  -0.650   0.082   2.103  2.0877 -2.3341  0.4761
 1001MOL0     H35088  -0.573   0.089   2.260  0.4894  2.0788 -0.9611
 1001MOL0     H35089  -0.756  -0.085   2.252 -1.8775 -0.0403 -0.3428
 1001MOL0     H35090  -0.864   0.047   2.214  0.4061 -1.9972 -2.2482
 1001MOL0     H35091  -0.841   0.160   2.417 -2.5679 -1.1990  0.1309
 1001MOL0     H35092  -0.709   0.062   2.473  1.4292 -0.1511 -1.1758
 1001MOL0     H35093  -0.872  -0.130   2.468  1.7581  0.1780 -1.3237
 1001MOL0     H35094  -0.985  -0.032   2.375 -0.5686 -0.4861  2.3598
 1001MOL0     H35095  -1.051   0.061   2.819 -1.0096  0.7670 -0.5164
 1001MOL0     H35096  -1.089   0.003   3.023  1.2955 -1.8654 -1.9974
 1001MOL0     H35097  -1.268   0.000   3.003 -2.0318 -2.7172  0.2922
 1001MOL0     H35098  -1.178  -0.147   3.056 -2.2230  1.0871  2.3429
 1001MOL0     H35099  -1.444  -0.533   3.006  0.6785  2.4955 -0.2543
 1001MOL0     H35100  -1.660  -0.622   3.084  3.3079  1.0153 -0.1205
 1001MOL0     H35101  -2.013  -0.527   2.825  0.5772  1.1644  0.8965
 1001MOL0     H35102  -1.935  -0.677   2.780 -2.2167 -0.1397 -0.1454
 1001MOL0     H35103  -2.075  -0.787   2.985 -2.2658  0.7846  1.9172
 1001MOL0     H35104  -2.152  -0.636   3.000  0.1499 -0.5166  0.5890
 1001MOL0     H35105  -2.160  -0.795   2.741  1.6744  1.8139 -0.8507
 1001MOL0     H35106  -2.227  -0.634   2.760  0.9780 -0.9117 -2.0381
 1001MOL0     H35107  -2.321  -0.881   2.915 -0.0084 -0.3653  0.4747
 1001MOL0     H35108  -2.396  -0.737   2.948 -1.2570 -2.0642  0.1839
 1001MOL0     H35109  -2.398  -0.907   2.706 -0.2416  1.2144 -0.7948
 1001MOL0     H35110  -2.427  -0.725   2.684  0.4306  0.6282 -0.3435
 1001MOL0     H35111  -2.615  -0.741   2.858  1.0310 -1.0473  2.5720
 1001MOL0     H35112  -2.650  -0.828   2.713 -1.0935  2.6345  1.7551
 1001MOL0     H35113  -2.550  -0.955   2.977  0.2039 -1.3772 -0.6077
 1001MOL0     H35114  -2.572  -1.046   2.826  3.8544  0.4018  0.1950
 1001MOL0     H35115  -2.754  -1.098   2.937 -1.8170 -0.4139 -0.8374
 1001MOL0     H35116  -2.821  -0.989   2.811 -1.8917  2.0133  1.5386
 1001MOL0     H35117  -1.851  -0.434   2.740 -0.0942 -2.2552 -0.6849
 1001MOL0     H35118  -1.622  -0.330   2.679  1.1449  0.4234 -0.5456
 1001MOL0     H35119  -1.261  -0.325   2.604  3.0858 -0.6812 -2.0625
 1001MOL0     H35120  -1.079  -0.206   2.497 -0.3199 -2.2541  0.3469
 1001MOL0     H35121   0.331   0.926   1.763  1.1829  1.6192 -1.0573
 1001MOL0     H35122   0.577   0.908   1.838 -0.1937  3.5351 -0.4008
 1001MOL0     H35123   0.833   0.745   2.174  0.2424 -0.2157 -1.5096
 1001MOL0     H35124   1.040   0.705   2.292  0.2213  0.9175  1.8258
 1001MOL0     H35125   1.298   0.830   2.496 -0.9372  1.2638  0.4464
 1001MOL0     H35126   1.152   0.762   2.439  0.0421  0.7671 -1.1476
 1001MOL0     H35127   1.402   0.706   2.269 -0.5044  0.7268  0.8525
 1001MOL0     H35128   1.267   0.598   2.328 -2.7620  1.4950  0.3650
 1001MOL0     H35129   1.468   0.519   2.444  0.4572 -0.0821  1.6021
 1001MOL0     H35130   1.367   0.618   2.550  0.8746  0.0414  0.5377
 1001MOL0     H35131   1.519   0.801   2.539 -1.5810 -1.5810  0.8520
 1001MOL0     H35132   1.594   0.741   2.392 -2.2392  1.0532 -0.9292
 1001MOL0     H35133   1.825   0.520   2.662 -1.9428 -1.8953  1.4051
 1001MOL0     H35134   1.177   1.087   2.142 -3.3594  2.2421  4.2394
 1001MOL0     H35135   0.987   1.123   2.028  3.2385 -0.3893 -0.4505
 1002MOL0     O35136   6.988  10.863   4.066 -0.4320  1.0185 -0.5816
 1002MOL0     C35137   7.034  10.776   4.139 -0.5113 -1.2706  0.6803
 1002MOL0     O35138   6.968  10.714   4.241 -0.1841 -0.2948 -0.0856
 1002MOL0     C35139   6.844  10.757   4.292 -0.2085  0.1752  0.6099
 1002MOL0     C35140   6.783  10.663   4.376  0.1802  0.3795  0.4769
 1002MOL0     C35141   6.653  10.678   4.424 -1.1810  0.6017 -0.9902
 1002MOL0     C35142   6.578  10.781   4.372  0.8384  0.0315 -0.4568
 1002MOL0     O35143   6.448  10.787   4.421 -0.0128  0.7942 -0.5208
 1002MOL0     C35144   6.356  10.888   4.376 -0.1198  0.5037  0.4289
 1002MOL0     C35145   6.229  10.903   4.469 -0.1447  1.0588 -0.2704
 1002MOL0     C35146   6.166  10.765   4.500  0.8070 -0.5192 -0.1726
 1002MOL0     C35147   6.036  10.774   4.575  0.1700 -0.7233  0.5523
 1002MOL0     C35148   5.908  10.822   4.515 -0.5303  0.0792  0.2483
 1002MOL0     C35149   5.850  10.704   4.457  0.8806  1.0781 -0.8959
 1002MOL0     C35150   5.715  10.728   4.395  0.2538 -0.5244  0.0628
 1002MOL0     C35151   5.660  10.596   4.321 -0.6234 -0.2731  0.2882
 1002MOL0     N35152   5.532  10.611   4.248 -0.3077 -0.0406  0.6385
 1002MOL0     C35153   5.414  10.667   4.301  0.0186  0.0319  1.2730
 1002MOL0     C35154   5.322  10.645   4.200  0.6590  0.3434 -0.2554
 1002MOL0     C35155   5.177  10.680   4.197 -0.8318  0.4454 -0.3471
 1002MOL0     C35156   5.089  10.573   4.130  0.0849  0.3304  0.3561
 1002MOL0     C35157   4.940  10.631   4.094  0.0619  0.6862 -0.0336
 1002MOL0     C35158   4.858  10.652   4.222  0.0994 -0.1427 -0.5242
 1002MOL0     O35159   4.731  10.704   4.192  0.0908 -0.3730  0.2590
 1002MOL0     C35160   4.639  10.618   4.135 -0.4670 -0.3993  0.5783
 1002MOL0     C35161   4.520  10.679   4.098 -0.2508 -0.2047 -0.1108
 1002MOL0     C35162   4.420  10.613   4.026 -0.6582  0.8550 -0.2410
 1002MOL0     C35163   4.308  10.706   3.987  0.4040  0.4890  0.0796
 1002MOL0     C35164   4.438  10.476   3.997  0.8429 -0.2993  0.3048
 1002MOL0     C35165   4.339  10.392   3.918  0.3567  1.1456  0.2181
 1002MOL0     O35166   4.336  10.254   3.929  0.2538 -0.3924 -0.5672
 1002MOL0     C35167   4.251  10.185   3.848  0.6241  0.6052 -0.2957
 1002MOL0     C35168   4.302  10.091   3.760 -0.6598 -0.4003  0.4442
 1002MOL0     C35169   4.219  10.029   3.675  0.2376 -1.0975 -0.1645
 1002MOL0     C35170   4.079  10.058   3.671 -0.1720  1.1176  0.5989
 1002MOL0     O35171   4.019  10.005   3.561 -0.4515  0.3164  0.3802
 1002MOL0     C35172   3.926   9.893   3.589  0.4078  0.0249 -0.6084
 1002MOL0     C35173   3.896   9.825   3.453 -0.1929 -0.7775 -0.5150
 1002MOL0     C35174   3.800   9.907   3.368  0.7674 -0.3506  0.0263
 1002MOL0     C35175   3.747   9.828   3.241 -1.7020 -0.3071  0.0062
 1002MOL0     C35176   3.689   9.684   3.255  0.5560  0.7436  0.1378
 1002MOL0     C35177   3.534   9.697   3.287 -0.2192  0.3118  0.0852
 1002MOL0     C35178   3.467   9.561   3.269  0.5919 -0.3384  0.3459
 1002MOL0     C35179   3.509   9.444   3.354 -0.5648  0.1328  1.1696
 1002MOL0    Cl35180   3.473   9.473   3.525  0.0372  0.2581  0.3265
 1002MOL0     C35181   4.031  10.150   3.758  0.2321  0.2442  0.1705
 1002MOL0     C35182   4.111  10.209   3.852  0.0930  0.2876 -0.5417
 1002MOL0     O35183   4.299  10.458   3.821 -0.7716 -0.1062 -0.2096
 1002MOL0     C35184   4.551  10.402   4.051  0.3635 -0.5849 -0.0771
 1002MOL0     C35185   4.657  10.477   4.103  0.4804  0.5955  0.2135
 1002MOL0     N35186   5.394  10.584   4.101  0.1760 -0.0939 -0.0992
 1002MOL0     N35187   5.510  10.557   4.130 -0.8293  0.0177 -0.3009
 1002MOL0     C35188   6.648  10.889   4.303 -0.7543  0.5947  0.9380
 1002MOL0     C35189   6.781  10.872   4.264 -1.2628 -0.4937 -0.6693
 1002MOL0     C35190   7.163  10.719   4.098  0.4007 -0.1635  0.3086
 1002MOL0     C35191   7.201  10.585   4.124  0.2619  0.1997  0.0317
 1002MOL0     C35192   7.326  10.536   4.073 -0.4898  0.2601 -0.5212
 1002MOL0     C35193   7.407  10.612   3.995  0.6694  0.2474 -0.4431
 1002MOL0     O35194   7.519  10.567   3.932  0.2715 -0.1079 -0.0678
 1002MOL0     C35195   7.646  10.633   3.973  0.2610 -0.2166 -0.8236
 1002MOL0     C35196   7.736  10.567   4.078 -0.5901  0.4984 -0.2823
 1002MOL0     C35197   7.752  10.414   4.048  1.0750  0.8700 -0.4681
 1002MOL0     C35198   7.895  10.371   4.023  0.2575 -0.2876  0.6152
 1002MOL0     C35199   7.946  10.438   3.903 -0.5247  0.3465  0.3728
 1002MOL0     C35200   7.962  10.501   3.801 -0.0686  0.3521  1.3132
 1002MOL0     C35201   7.367  10.744   3.969  0.2875  0.1415 -0.1473
 1002MOL0     C35202   7.245  10.797   4.019  0.1098 -0.4550 -0.5765
 1002MOL0     H35203   6.844  10.583   4.417 -3.3507 -2.3237  0.9392
 1002MOL0     H35204   6.612  10.611   4.499 -1.3766 -0.3829 -1.9495
 1002MOL0     H35205   6.415  10.980   4.375  1.7857 -0.6580  1.2545
 1002MOL0     H35206   6.313  10.859   4.280 -0.7850 -0.1175  0.8989
 1002MOL0     H35207   6.255  10.936   4.570 -1.7246 -1.4487  1.0523
 1002MOL0     H35208   6.156  10.969   4.422 -0.5189  0.2383 -0.8667
 1002MOL0     H35209   6.151  10.709   4.407 -1.6131 -0.0731 -0.1024
 1002MOL0     H35210   6.229  10.700   4.561 -0.3275 -0.6847  0.8421
 1002MOL0     H35211   6.017  10.687   4.640 -1.4107  0.1019  1.2381
 1002MOL0     H35212   6.063  10.853   4.646 -0.3783 -0.4515  0.4636
 1002MOL0     H35213   5.851  10.873   4.593  0.6162  1.5452  0.1685
 1002MOL0     H35214   5.930  10.892   4.433 -0.9858 -0.6856 -0.5439
 1002MOL0     H35215   5.907  10.649   4.381  0.7546  1.5013 -1.3039
 1002MOL0     H35216   5.835  10.635   4.541 -1.0561  2.7845  0.2594
 1002MOL0     H35217   5.639  10.751   4.470  0.0515  1.2326 -0.6257
 1002MOL0     H35218   5.719  10.809   4.322 -0.3195 -0.2784  0.2933
 1002MOL0     H35219   5.649  10.511   4.390  1.0761 -0.5715  0.2433
 1002MOL0     H35220   5.745  10.576   4.254 -2.3911  0.4887 -2.3471
 1002MOL0     H35221   5.411  10.721   4.395  0.0433  2.1032  0.1563
 1002MOL0     H35222   5.139  10.701   4.297 -0.3283  1.9700 -0.4607
 1002MOL0     H35223   5.182  10.771   4.138 -0.8010  0.5720 -0.1488
 1002MOL0     H35224   5.084  10.477   4.182  0.2644  0.0981 -0.0548
 1002MOL0     H35225   5.134  10.548   4.034 -0.1311  1.4803 -0.0682
 1002MOL0     H35226   4.905  10.561   4.018  2.6228  0.3306 -0.9518
 1002MOL0     H35227   4.944  10.728   4.043 -2.5183 -0.0826 -1.9065
 1002MOL0     H35228   4.918  10.723   4.279 -1.2757 -0.4584  1.3934
 1002MOL0     H35229   4.853  10.560   4.281  2.1171 -0.3510 -0.5835
 1002MOL0     H35230   4.517  10.787   4.115  3.1901  0.1974 -1.3980
 1002MOL0     H35231   4.211  10.655   3.993 -1.0414  2.5695 -2.6349
 1002MOL0     H35232   4.307  10.791   4.055  1.0474  0.3613  0.2486
 1002MOL0     H35233   4.327  10.750   3.888 -1.8892  0.6942 -0.3329
 1002MOL0     H35234   4.408  10.074   3.775 -1.0026 -2.4195  0.7414
 1002MOL0     H35235   4.268   9.959   3.608 -0.9267 -1.3705 -0.7468
 1002MOL0     H35236   3.969   9.813   3.650 -3.2537 -0.2111  1.9428
 1002MOL0     H35237   3.842   9.947   3.634 -0.1897  0.6178 -2.3423
 1002MOL0     H35238   3.977   9.808   3.381 -1.0066  0.7716 -1.8783
 1002MOL0     H35239   3.865   9.722   3.474  3.1957 -1.9803 -0.8134
 1002MOL0     H35240   3.852   9.996   3.330  1.7039 -1.4515 -1.3347
 1002MOL0     H35241   3.715   9.935   3.431 -0.9774  0.5692 -2.5542
 1002MOL0     H35242   3.680   9.890   3.181 -0.4238 -0.3076 -1.4956
 1002MOL0     H35243   3.832   9.836   3.173  0.6603  1.7003  2.9382
 1002MOL0     H35244   3.736   9.636   3.342 -1.3873  1.1446  1.4700
 1002MOL0     H35245   3.710   9.624   3.166  2.6276  0.9912  0.4085
 1002MOL0     H35246   3.539   9.733   3.390  1.5815  0.3053  0.0311
 1002MOL0     H35247   3.496   9.774   3.219  0.5036  1.8352  1.3129
 1002MOL0     H35248   3.475   9.535   3.163 -2.6140  0.2293 -0.1452
 1002MOL0     H35249   3.361   9.580   3.286  0.3508  1.6284 -2.5858
 1002MOL0     H35250   3.611   9.412   3.333 -1.5282 -1.7210 -1.0912
 1002MOL0     H35251   3.461   9.355   3.314 -0.1819  0.7307 -0.7085
 1002MOL0     H35252   3.928  10.180   3.744  1.5072  5.1071 -0.7494
 1002MOL0     H35253   4.088  10.289   3.922  4.7880  0.9623  0.6190
 1002MOL0     H35254   4.564  10.295   4.032  1.5364  0.0146 -3.3639
 1002MOL0     H35255   4.744  10.423   4.140  1.7781  1.6905 -1.1324
 1002MOL0     H35256   6.592  10.979   4.284 -1.2867  0.4185  1.6450
 1002MOL0     H35257   6.827  10.948   4.201 -1.2181  0.4144  0.4301
 1002MOL0     H35258   7.133  10.535   4.192 -1.0414  3.2168  1.1277
 1002MOL0     H35259   7.358  10.436   4.102 -1.3829  0.0262 -0.3094
 1002MOL0     H35260   7.710  10.631   3.885 -0.0520 -4.8139 -1.2153
 1002MOL0     H35261   7.620  10.734   4.004 -0.7065 -1.2687  2.1861
 1002MOL0     H35262   7.684  10.585   4.173  2.0445  2.5200  0.8886
 1002MOL0     H35263   7.832  10.617   4.090 -0.6622  0.5578  0.0582
 1002MOL0     H35264   7.681  10.383   3.971  2.6977 -1.3636 -1.1900
 1002MOL0     H35265   7.735  10.360   4.142  0.3493 -5.2034 -3.5593
 1002MOL0     H35266   7.899  10.264   3.999  0.3708 -0.2143  0.3143
 1002MOL0     H35267   7.957  10.406   4.106  0.9590  1.8605 -0.7307
 1002MOL0     H35268   7.974  10.563   3.714 -0.4213  0.6335  1.4622
 1002MOL0     H35269   7.430  10.807   3.907  1.2197 -1.3216 -0.7556
 1002MOL0     H35270   7.227  10.902   3.999  0.1026  0.1269  2.0655
 1003MOL0     O35271   5.223   0.236   2.322  0.1660  0.3531 -0.0494
 1003MOL0     C35272   5.246   0.331   2.398 -0.5110  0.3014 -1.0865
 1003MOL0     O35273   5.171   0.375   2.499  1.0787  0.8080 -0.0171
 1003MOL0     C35274   5.038   0.332   2.499  0.0803  0.2104 -0.2213
 1003MOL0     C35275   5.022   0.200   2.543 -0.0077 -0.0460  0.1167
 1003MOL0     C35276   4.889   0.150   2.562  0.4384 -0.4356  0.1801
 1003MOL0     C35277   4.776   0.234   2.542  1.0168  0.5489 -0.0027
 1003MOL0     O35278   4.649   0.195   2.590  0.0343  0.3225 -0.4296
 1003MOL0     C35279   4.529   0.238   2.520 -0.1738  0.6338  0.7710
 1003MOL0     C35280   4.412   0.204   2.613  0.4546  0.1481 -0.7022
 1003MOL0     C35281   4.272   0.246   2.551  0.1617  0.2917 -0.5918
 1003MOL0     C35282   4.178   0.290   2.659  0.1584  0.9689 -0.9469
 1003MOL0     C35283   4.042   0.338   2.614  0.1679 -0.4344 -0.2977
 1003MOL0     C35284   4.034   0.468   2.548  0.4236  0.3247 -0.0423
 1003MOL0     C35285   3.897   0.487   2.463 -0.1510 -0.1567  0.0556
 1003MOL0     C35286   3.840   0.627   2.466  0.1146 -0.3431 -0.0805
 1003MOL0     N35287   3.810   0.669   2.606  0.6901 -0.2929 -0.0785
 1003MOL0     C35288   3.881   0.760   2.685 -0.8897  0.0086 -0.6139
 1003MOL0     C35289   3.826   0.759   2.811 -0.6330 -0.2486  0.7615
 1003MOL0     C35290   3.881   0.840   2.923  0.6507 -0.4769  1.0283
 1003MOL0     C35291   3.855   0.993   2.910 -0.7265  0.0346  0.3110
 1003MOL0     C35292   3.872   1.045   3.049  0.4872  0.0997 -0.2879
 1003MOL0     C35293   3.821   1.187   3.043 -0.3623 -0.3262 -0.1830
 1003MOL0     O35294   3.795   1.222   3.174 -0.1232 -0.6574 -1.4625
 1003MOL0     C35295   3.905   1.206   3.269  0.9297 -0.0851  0.3297
 1003MOL0     C35296   3.881   1.177   3.404 -0.5686 -0.1411  0.2876
 1003MOL0     C35297   3.992   1.167   3.496  0.2572 -0.3602  0.0804
 1003MOL0     C35298   3.949   1.139   3.641  0.1758  0.8146 -0.7122
 1003MOL0     C35299   4.127   1.176   3.447  0.2020  0.6162 -0.1109
 1003MOL0     C35300   4.243   1.172   3.546  0.6582 -0.4188  0.7953
 1003MOL0     O35301   4.357   1.240   3.505  0.9743  0.0250  0.0144
 1003MOL0     C35302   4.473   1.249   3.573  1.0965 -0.2221 -0.1592
 1003MOL0     C35303   4.469   1.247   3.712 -0.4190  0.7226 -0.3585
 1003MOL0     C35304   4.597   1.254   3.782  0.1822 -0.4048  0.1439
 1003MOL0     C35305   4.717   1.275   3.710  0.6636 -0.2384  0.2806
 1003MOL0     O35306   4.831   1.280   3.778  0.1654 -0.1416 -0.2995
 1003MOL0     C35307   4.911   1.400   3.770 -0.4959  0.6276 -0.6036
 1003MOL0     C35308   5.052   1.371   3.825  0.3339  0.2226 -0.8820
 1003MOL0     C35309   5.140   1.489   3.816  1.0294 -0.4870 -0.1610
 1003MOL0     C35310   5.286   1.470   3.841 -0.5591  0.7558  0.2473
 1003MOL0     C35311   5.358   1.604   3.811 -0.2354 -0.1186  0.0393
 1003MOL0     C35312   5.510   1.609   3.831 -0.8765 -0.2568  0.0469
 1003MOL0     C35313   5.573   1.744   3.799  0.1181  1.0796  0.8739
 1003MOL0     C35314   5.720   1.739   3.786 -0.4186 -0.3390 -0.3423
 1003MOL0    Cl35315   5.803   1.698   3.951  0.4639  0.0751 -0.2977
 1003MOL0     C35316   4.707   1.264   3.576 -0.6258 -1.0146 -0.0510
 1003MOL0     C35317   4.589   1.251   3.506  0.4906  0.5162  0.2847
 1003MOL0     O35318   4.232   1.113   3.650  0.1841  0.4794 -0.0451
 1003MOL0     C35319   4.147   1.206   3.313 -0.2610 -0.6642  0.0611
 1003MOL0     C35320   4.040   1.235   3.230 -0.5795 -0.5055  0.1500
 1003MOL0     N35321   3.724   0.662   2.819 -0.3753 -0.0522 -0.8193
 1003MOL0     N35322   3.714   0.619   2.693 -0.7297 -0.1331 -0.4619
 1003MOL0     C35323   4.798   0.367   2.504  0.0401  0.1059 -0.5272
 1003MOL0     C35324   4.930   0.420   2.482  1.2107  0.6029  0.5851
 1003MOL0     C35325   5.375   0.398   2.372 -0.4846 -0.0215 -0.5858
 1003MOL0     C35326   5.459   0.341   2.267 -0.1606  0.1151  0.9177
 1003MOL0     C35327   5.596   0.394   2.248 -0.0860 -0.4624 -0.1333
 1003MOL0     C35328   5.638   0.503   2.331 -0.1557  0.2461 -1.3711
 1003MOL0     O35329   5.761   0.558   2.299 -0.1066  0.4007 -0.1052
 1003MOL0     C35330   5.803   0.679   2.372 -0.2678  0.6592  0.1255
 1003MOL0     C35331   5.946   0.698   2.318  0.0726 -0.1505 -0.2967
 1003MOL0     C35332   5.990   0.840   2.311  0.0739 -0.5377  0.3035
 1003MOL0     C35333   6.041   0.888   2.446 -0.1317 -0.2024 -0.6210
 1003MOL0     C35334   5.923   0.942   2.521  0.4663 -1.2181  0.4270
 1003MOL0     C35335   5.822   0.983   2.576 -0.2508  0.4236 -0.3600
 1003MOL0     C35336   5.550   0.548   2.432  0.3632 -0.5044  0.7660
 1003MOL0     C35337   5.423   0.502   2.445  0.6029 -0.1099  0.9455
 1003MOL0     H35338   5.103   0.128   2.552  1.3880  1.1535 -2.0470
 1003MOL0     H35339   4.879   0.045   2.586 -2.5272 -0.5863 -1.2020
 1003MOL0     H35340   4.523   0.347   2.510 -2.9882  0.7579  2.4678
 1003MOL0     H35341   4.533   0.187   2.423  2.0308 -1.0235  1.6589
 1003MOL0     H35342   4.401   0.097   2.630 -0.8435  0.0266 -2.0860
 1003MOL0     H35343   4.434   0.256   2.707 -1.3933 -0.0293 -0.1309
 1003MOL0     H35344   4.284   0.329   2.481  0.6534  0.1482 -0.6819
 1003MOL0     H35345   4.243   0.160   2.490  1.7551 -1.4647  0.9822
 1003MOL0     H35346   4.167   0.208   2.731  4.7079  0.2782 -0.7122
 1003MOL0     H35347   4.228   0.372   2.711  0.7255  1.8816 -2.8480
 1003MOL0     H35348   4.004   0.260   2.546  0.0161 -0.4047 -0.2485
 1003MOL0     H35349   3.969   0.340   2.696 -1.3014  2.3266 -1.5199
 1003MOL0     H35350   4.031   0.552   2.619  0.9427  2.1887 -2.1226
 1003MOL0     H35351   4.119   0.488   2.482 -1.0491  2.8065 -1.3615
 1003MOL0     H35352   3.934   0.472   2.361  0.0905  0.2221  0.0824
 1003MOL0     H35353   3.819   0.421   2.500  0.5258  0.1695  2.2175
 1003MOL0     H35354   3.751   0.624   2.403  1.4210 -0.7809 -1.9754
 1003MOL0     H35355   3.920   0.690   2.424 -0.0753  0.3408  0.5588
 1003MOL0     H35356   3.960   0.824   2.646 -1.0288  1.9428  2.0566
 1003MOL0     H35357   3.845   0.804   3.020  0.0652 -2.9313 -0.0260
 1003MOL0     H35358   3.988   0.817   2.913  0.6573  0.6265 -3.7493
 1003MOL0     H35359   3.753   1.006   2.873 -1.5660 -2.5441  1.4907
 1003MOL0     H35360   3.935   1.023   2.842 -0.6972 -3.3503 -1.3604
 1003MOL0     H35361   3.977   1.036   3.080  0.9051  1.2484 -1.3032
 1003MOL0     H35362   3.814   0.985   3.120  0.5202 -2.3497 -2.1795
 1003MOL0     H35363   3.731   1.192   2.982  0.0789 -0.8652 -0.8883
 1003MOL0     H35364   3.906   1.250   3.015  0.3979 -0.5124  1.5349
 1003MOL0     H35365   3.782   1.158   3.445 -0.6472 -0.1207  0.1100
 1003MOL0     H35366   3.960   1.034   3.670 -2.5114 -0.1475 -2.7203
 1003MOL0     H35367   4.009   1.204   3.706  0.6748  1.4788 -1.8051
 1003MOL0     H35368   3.842   1.160   3.638  0.1915  0.8878 -0.7707
 1003MOL0     H35369   4.382   1.242   3.776  0.6288  0.4386  1.0971
 1003MOL0     H35370   4.598   1.262   3.890  0.6650 -1.1223  0.2016
 1003MOL0     H35371   4.911   1.444   3.670 -1.2718  2.2196  0.0625
 1003MOL0     H35372   4.869   1.479   3.833 -0.9782 -1.0938  1.3385
 1003MOL0     H35373   5.047   1.336   3.928 -2.5560  1.3109 -0.5531
 1003MOL0     H35374   5.099   1.294   3.762 -2.0625 -2.3851  0.2825
 1003MOL0     H35375   5.095   1.568   3.877 -3.9281 -3.6120  0.7332
 1003MOL0     H35376   5.126   1.518   3.712 -1.3660 -1.7990 -0.2613
 1003MOL0     H35377   5.303   1.438   3.944 -0.4090 -3.0443 -0.8199
 1003MOL0     H35378   5.321   1.385   3.782 -1.1288 -2.4177  4.0587
 1003MOL0     H35379   5.317   1.689   3.866 -0.6350 -0.7605  0.7510
 1003MOL0     H35380   5.334   1.630   3.708  2.2988  1.7616 -0.1821
 1003MOL0     H35381   5.536   1.580   3.933  0.5838  0.6531 -0.0405
 1003MOL0     H35382   5.552   1.533   3.764 -1.0412  0.5268 -0.9619
 1003MOL0     H35383   5.552   1.797   3.892  3.0722 -0.8283  2.8305
 1003MOL0     H35384   5.534   1.798   3.713  1.8118 -0.4227 -0.9283
 1003MOL0     H35385   5.756   1.839   3.761  1.1731 -0.0833  2.5288
 1003MOL0     H35386   5.765   1.672   3.712  1.0308 -0.2541  0.4299
 1003MOL0     H35387   4.804   1.270   3.528  0.3607  3.0350  2.0307
 1003MOL0     H35388   4.585   1.256   3.398 -2.4434 -1.0932  0.2247
 1003MOL0     H35389   4.248   1.217   3.274 -0.8688  1.1516 -1.1322
 1003MOL0     H35390   4.061   1.264   3.128  0.9674 -3.3639 -0.4482
 1003MOL0     H35391   4.717   0.440   2.501 -1.4250 -1.4548 -0.8440
 1003MOL0     H35392   4.948   0.524   2.457 -1.6338  0.7959 -1.0752
 1003MOL0     H35393   5.430   0.248   2.220 -0.4952 -0.1294  1.5880
 1003MOL0     H35394   5.663   0.341   2.181  0.1067 -2.3788  1.4951
 1003MOL0     H35395   5.745   0.767   2.343  0.1317  0.7836 -0.3027
 1003MOL0     H35396   5.814   0.668   2.480 -0.6310  1.8457  0.2971
 1003MOL0     H35397   5.953   0.653   2.219  0.0596  3.2341 -1.9852
 1003MOL0     H35398   6.006   0.640   2.389 -2.5728 -1.6135  0.9007
 1003MOL0     H35399   5.915   0.909   2.272  0.5385 -0.7676 -1.0565
 1003MOL0     H35400   6.075   0.859   2.244  0.2755  1.6300  1.0917
 1003MOL0     H35401   6.118   0.966   2.443  4.1099 -3.9132 -0.2095
 1003MOL0     H35402   6.081   0.800   2.497  0.6951  0.2908 -0.3869
 1003MOL0     H35403   5.734   1.020   2.623 -0.9173  0.4698 -1.6043
 1003MOL0     H35404   5.573   0.634   2.494 -1.7200  1.2300 -0.6933
 1003MOL0     H35405   5.359   0.538   2.524 -0.7564 -1.1573  0.3710
 1004MOL0     O35406   9.013   7.885   6.753 -0.1951  0.1541  0.2396
 1004MOL0     C35407   8.987   7.998   6.709  0.8337  0.0389 -0.6193
 1004MOL0     O35408   8.878   8.070   6.732 -0.4490  0.0776  0.2425
 1004MOL0     C35409   8.775   7.995   6.795  0.9649  0.3185  0.1764
 1004MOL0     C35410   8.670   7.938   6.720  0.2992  0.6591 -0.7216
 1004MOL0     C35411   8.560   7.889   6.801  0.1840  0.1503  0.4904
 1004MOL0     C35412   8.559   7.883   6.946  0.0723  0.0439  0.2015
 1004MOL0     O35413   8.462   7.842   7.028 -0.0285  0.3591 -0.0426
 1004MOL0     C35414   8.367   7.742   6.979 -0.1766  0.4161 -0.6932
 1004MOL0     C35415   8.246   7.819   6.922  0.2782 -0.2219 -0.3941
 1004MOL0     C35416   8.103   7.778   6.982  0.0299  0.6335 -0.2132
 1004MOL0     C35417   7.983   7.878   6.947 -0.6149  0.0691  0.3800
 1004MOL0     C35418   7.864   7.838   7.031  0.0569 -0.1768 -0.1262
 1004MOL0     C35419   7.736   7.914   6.991  0.0863 -0.1182  0.8661
 1004MOL0     C35420   7.611   7.822   6.997 -0.0652 -0.4643  0.1287
 1004MOL0     C35421   7.492   7.893   6.940  0.3098  0.6320  0.2822
 1004MOL0     N35422   7.371   7.811   6.934  0.8154  0.0861 -0.3738
 1004MOL0     C35423   7.268   7.806   7.033 -0.0029  0.1264 -0.1561
 1004MOL0     C35424   7.189   7.705   6.987 -0.5715  1.0200  0.6651
 1004MOL0     C35425   7.078   7.643   7.060  0.5852 -0.2878 -0.0879
 1004MOL0     C35426   6.949   7.688   6.990  0.1827  1.1244 -0.3944
 1004MOL0     C35427   6.919   7.839   6.985 -0.1767  0.2096 -0.9801
 1004MOL0     C35428   6.861   7.873   7.129  0.6381 -0.0368  0.2471
 1004MOL0     O35429   6.833   8.006   7.157  0.1681 -0.6776  0.0197
 1004MOL0     C35430   6.712   8.065   7.121 -0.2825  0.0500  0.8749
 1004MOL0     C35431   6.687   8.189   7.168  0.0599  0.6690  0.0011
 1004MOL0     C35432   6.565   8.256   7.153  0.0759 -0.2943 -0.5431
 1004MOL0     C35433   6.555   8.395   7.190  0.0330  0.4589 -0.6753
 1004MOL0     C35434   6.468   8.194   7.073 -0.3752  0.0466  0.1248
 1004MOL0     C35435   6.338   8.257   7.042 -0.6171  0.0873 -0.7578
 1004MOL0     O35436   6.262   8.173   6.963 -0.5387  0.3382 -0.1417
 1004MOL0     C35437   6.142   8.215   6.917 -0.0761  0.7271  0.5636
 1004MOL0     C35438   6.121   8.220   6.783 -0.7753 -1.1227  0.3559
 1004MOL0     C35439   5.999   8.264   6.732 -0.0782 -0.4764  0.3709
 1004MOL0     C35440   5.887   8.295   6.815 -0.4363  0.8406  0.1367
 1004MOL0     O35441   5.783   8.362   6.749  0.0553  0.2497 -0.0164
 1004MOL0     C35442   5.674   8.413   6.820  0.3227 -0.5023  0.1617
 1004MOL0     C35443   5.572   8.440   6.717 -0.5103 -0.2254 -0.6854
 1004MOL0     C35444   5.446   8.501   6.783  0.7665 -0.4644 -0.0896
 1004MOL0     C35445   5.328   8.497   6.682 -0.1394 -0.3618 -0.0176
 1004MOL0     C35446   5.193   8.528   6.747  0.4013 -0.0618  0.4818
 1004MOL0     C35447   5.186   8.650   6.835 -0.6140 -0.1049 -0.5807
 1004MOL0     C35448   5.183   8.774   6.744 -1.0166 -0.3150 -0.0722
 1004MOL0     C35449   5.150   8.907   6.803  0.6438  0.2277 -0.3990
 1004MOL0    Cl35450   5.261   8.963   6.928  0.2399  0.3214 -0.0041
 1004MOL0     C35451   5.904   8.287   6.955  0.9136  0.2710  0.3487
 1004MOL0     C35452   6.031   8.243   7.004 -0.7354 -0.3845  0.5403
 1004MOL0     O35453   6.300   8.363   7.100  0.2532 -0.3889  0.3036
 1004MOL0     C35454   6.500   8.067   7.013 -0.6946  0.6626  0.9262
 1004MOL0     C35455   6.620   8.001   7.040  0.3216 -0.1335  0.7741
 1004MOL0     N35456   7.240   7.655   6.860 -0.2182 -0.1162  0.3331
 1004MOL0     N35457   7.353   7.712   6.839 -0.9285 -0.2681 -0.1032
 1004MOL0     C35458   8.668   7.938   7.011  0.6207  0.2516  0.1150
 1004MOL0     C35459   8.771   7.992   6.937  0.7695 -0.4536 -0.0988
 1004MOL0     C35460   9.089   8.053   6.618 -0.4321 -0.9147 -1.2668
 1004MOL0     C35461   9.212   7.989   6.590 -0.1276 -0.6396 -0.2113
 1004MOL0     C35462   9.301   8.048   6.493 -0.0916 -0.3616  1.1929
 1004MOL0     C35463   9.252   8.154   6.405 -0.3723  0.9087  0.8348
 1004MOL0     O35464   9.328   8.207   6.309 -0.0564  0.4480  0.8840
 1004MOL0     C35465   9.458   8.147   6.273  0.8774 -0.5854 -0.1186
 1004MOL0     C35466   9.509   8.218   6.146  0.4656 -0.1761  0.0327
 1004MOL0     C35467   9.404   8.254   6.034  0.5204  0.2556  0.0917
 1004MOL0     C35468   9.458   8.320   5.908 -0.0151 -0.2410  1.0275
 1004MOL0     C35469   9.582   8.260   5.868 -0.7337  0.0438  0.7444
 1004MOL0     C35470   9.691   8.212   5.838  0.0773 -0.1646  1.1975
 1004MOL0     C35471   9.124   8.206   6.425  0.1796 -0.6842 -0.1296
 1004MOL0     C35472   9.049   8.157   6.535  0.3746 -0.5595 -0.5232
 1004MOL0     H35473   8.678   7.927   6.612  3.5529 -0.1809 -0.5018
 1004MOL0     H35474   8.474   7.858   6.743  0.1879 -1.2762  1.2138
 1004MOL0     H35475   8.414   7.677   6.904 -1.0642 -1.4352  0.2751
 1004MOL0     H35476   8.335   7.673   7.058  2.6814 -1.8961 -1.3615
 1004MOL0     H35477   8.249   7.928   6.933  2.1523 -0.5255  4.4449
 1004MOL0     H35478   8.249   7.796   6.815  0.0522  2.6742 -1.0960
 1004MOL0     H35479   8.067   7.681   6.947 -3.8042  0.6094  3.0281
 1004MOL0     H35480   8.112   7.756   7.088  0.0079 -1.0883 -0.5493
 1004MOL0     H35481   8.010   7.983   6.958  0.5641 -0.2253  0.4165
 1004MOL0     H35482   7.957   7.865   6.841  2.2580  3.8832 -1.0046
 1004MOL0     H35483   7.858   7.732   7.005  0.6263  0.2297 -2.0723
 1004MOL0     H35484   7.892   7.849   7.136  0.2425  3.0694 -0.4042
 1004MOL0     H35485   7.724   8.003   7.053 -1.9751  0.4951 -0.3203
 1004MOL0     H35486   7.753   7.941   6.886  0.7787 -1.1273  0.7087
 1004MOL0     H35487   7.632   7.741   6.927 -2.7262 -0.6078 -0.6047
 1004MOL0     H35488   7.595   7.785   7.099 -0.8884 -0.5261 -0.0136
 1004MOL0     H35489   7.517   7.936   6.842  1.6099  0.6585  0.6122
 1004MOL0     H35490   7.468   7.984   6.995 -0.4695 -0.5263  1.9309
 1004MOL0     H35491   7.251   7.867   7.121  0.3985  0.0129  0.0039
 1004MOL0     H35492   7.097   7.536   7.048 -1.4593 -1.1539  3.0599
 1004MOL0     H35493   7.068   7.672   7.165  0.0505  2.9818 -0.9238
 1004MOL0     H35494   6.870   7.637   7.047  2.0342 -2.4031 -0.7243
 1004MOL0     H35495   6.958   7.652   6.887 -0.6911 -0.0317 -0.0913
 1004MOL0     H35496   6.844   7.876   6.915 -0.3857  0.6620 -0.5324
 1004MOL0     H35497   7.010   7.895   6.963  1.4211  0.0973  3.9752
 1004MOL0     H35498   6.937   7.851   7.206  1.0785 -0.7889 -0.3807
 1004MOL0     H35499   6.773   7.812   7.148  0.5175  0.5087  1.5125
 1004MOL0     H35500   6.770   8.224   7.229  0.6034  2.5776 -1.7351
 1004MOL0     H35501   6.648   8.414   7.244 -1.5581  0.6712  2.2538
 1004MOL0     H35502   6.548   8.448   7.095 -0.1112 -0.5113 -1.2212
 1004MOL0     H35503   6.472   8.418   7.258  1.7093  0.4940  1.4887
 1004MOL0     H35504   6.198   8.187   6.714  0.6434  0.9655  0.8124
 1004MOL0     H35505   5.984   8.282   6.626 -0.4080 -0.1598  0.4732
 1004MOL0     H35506   5.638   8.338   6.892 -0.1118 -2.3253 -1.8576
 1004MOL0     H35507   5.707   8.505   6.869 -0.5420 -0.8760  1.5003
 1004MOL0     H35508   5.621   8.510   6.649  0.4222 -0.4986 -0.3048
 1004MOL0     H35509   5.546   8.345   6.669 -1.9633  0.3225 -1.0402
 1004MOL0     H35510   5.469   8.608   6.792 -0.5226  0.3058 -4.0121
 1004MOL0     H35511   5.419   8.465   6.883 -1.4882  4.1229  1.2250
 1004MOL0     H35512   5.353   8.567   6.601 -0.0478 -3.1630 -2.5750
 1004MOL0     H35513   5.316   8.397   6.639  3.0795 -0.5656 -0.6764
 1004MOL0     H35514   5.160   8.444   6.808  1.9430 -0.8243  0.3313
 1004MOL0     H35515   5.125   8.549   6.663 -0.8918 -0.2922  1.4402
 1004MOL0     H35516   5.096   8.643   6.897  0.6084  1.4113  1.4835
 1004MOL0     H35517   5.272   8.649   6.903 -0.7559  1.2073 -0.3730
 1004MOL0     H35518   5.121   8.770   6.654  0.3273  0.0105 -1.0560
 1004MOL0     H35519   5.287   8.779   6.709 -0.7894  3.0508  0.7305
 1004MOL0     H35520   5.048   8.896   6.841  0.0086 -0.9090 -2.2881
 1004MOL0     H35521   5.137   8.982   6.724 -0.1693  1.0878  0.5208
 1004MOL0     H35522   5.823   8.316   7.020 -1.4118 -1.4800 -1.5626
 1004MOL0     H35523   6.059   8.244   7.108  2.7208  1.5481 -0.2588
 1004MOL0     H35524   6.433   8.016   6.944 -1.3133  1.5177  0.8787
 1004MOL0     H35525   6.637   7.908   6.988  1.4888  1.1916 -1.3496
 1004MOL0     H35526   8.683   7.939   7.119  0.2976 -1.0161  0.1962
 1004MOL0     H35527   8.859   8.028   6.991  2.2713 -2.4482 -1.0832
 1004MOL0     H35528   9.248   7.897   6.636 -0.6177 -2.2495 -2.8300
 1004MOL0     H35529   9.394   7.994   6.477 -1.0653 -2.1909  1.4049
 1004MOL0     H35530   9.529   8.147   6.357  1.6932 -1.9329 -0.7839
 1004MOL0     H35531   9.442   8.043   6.245  0.7470 -0.3391 -0.9863
 1004MOL0     H35532   9.589   8.162   6.096 -0.6768  0.8404 -3.1946
 1004MOL0     H35533   9.561   8.309   6.178 -1.5516  0.7573  0.7971
 1004MOL0     H35534   9.321   8.318   6.066 -1.0708 -0.6980 -1.9457
 1004MOL0     H35535   9.354   8.160   6.010 -3.3946  1.7740  1.5855
 1004MOL0     H35536   9.484   8.423   5.931 -0.0704  0.8087 -2.9447
 1004MOL0     H35537   9.392   8.312   5.821  1.9829  1.1321 -0.7087
 1004MOL0     H35538   9.786   8.171   5.809 -0.2606  1.1975 -2.4045
 1004MOL0     H35539   9.092   8.299   6.380  0.3749  2.0268  4.5906
 1004MOL0     H35540   8.955   8.204   6.559 -0.0532 -0.6981 -1.8326
 1005MOL0     O35541   6.074   1.549   7.183  0.5337 -0.2938  0.0610
 1005MOL0     C35542   6.049   1.490   7.078 -0.0630  0.1283  0.0022
 1005MOL0     O35543   5.918   1.441   7.026 -0.1799  0.3114 -0.5570
 1005MOL0     C35544   5.810   1.475   7.103  0.3376  0.2139 -0.0424
 1005MOL0     C35545   5.792   1.416   7.228 -0.7137 -0.3805 -0.1953
 1005MOL0     C35546   5.677   1.427   7.302 -0.4270 -0.7318 -0.0952
 1005MOL0     C35547   5.572   1.511   7.260 -0.2790  0.5114 -0.3326
 1005MOL0     O35548   5.449   1.528   7.317 -0.6589  0.1116  0.2653
 1005MOL0     C35549   5.409   1.435   7.419 -0.5138  0.4031  0.1406
 1005MOL0     C35550   5.267   1.395   7.407  0.7191  0.3955 -0.2732
 1005MOL0     C35551   5.197   1.327   7.519 -0.0107  0.2707  0.7845
 1005MOL0     C35552   5.044   1.314   7.489  0.2933 -0.0962  0.7909
 1005MOL0     C35553   4.966   1.240   7.595  0.1764  0.1589 -0.5708
 1005MOL0     C35554   4.823   1.201   7.545 -0.2919 -0.4997  0.7704
 1005MOL0     C35555   4.731   1.323   7.503  0.1441  0.3798 -0.0121
 1005MOL0     C35556   4.723   1.439   7.601 -0.8853  0.0753  0.0395
 1005MOL0     N35557   4.650   1.411   7.725 -0.1457  0.7782  0.3786
 1005MOL0     C35558   4.683   1.452   7.853  0.0993  0.3200  0.0885
 1005MOL0     C35559   4.592   1.400   7.937  0.5092  0.0045 -0.4317
 1005MOL0     C35560   4.565   1.417   8.087  0.2281  0.0846  0.9681
 1005MOL0     C35561   4.548   1.575   8.118  0.4512 -0.7223  0.0466
 1005MOL0     C35562   4.416   1.627   8.060 -0.3861  0.1473  0.3704
 1005MOL0     C35563   4.443   1.768   8.012 -0.3590  0.3473 -0.1462
 1005MOL0     O35564   4.461   1.853   8.127 -0.2801  0.4813  0.1934
 1005MOL0     C35565   4.403   1.974   8.113 -0.9106 -0.5067 -0.3284
 1005MOL0     C35566   4.311   1.996   8.214  0.3011 -0.2224 -0.4853
 1005MOL0     C35567   4.229   2.105   8.223  0.4269  0.0715 -0.1883
 1005MOL0     C35568   4.136   2.114   8.342  0.4853  0.4585 -0.0851
 1005MOL0     C35569   4.262   2.209   8.130  0.5023  0.3659 -0.1544
 1005MOL0     C35570   4.194   2.348   8.136  0.2912 -0.2630 -1.1359
 1005MOL0     O35571   4.166   2.406   8.018  0.0390 -0.0601 -0.4152
 1005MOL0     C35572   4.100   2.520   8.014  0.0246 -1.0649 -0.6266
 1005MOL0     C35573   4.158   2.623   7.939  0.1267  0.0262  0.5742
 1005MOL0     C35574   4.087   2.744   7.929 -0.6580  0.3261  0.3486
 1005MOL0     C35575   3.962   2.760   7.972  0.1874  0.1861 -0.7904
 1005MOL0     O35576   3.901   2.886   7.949 -0.3196 -0.2372 -0.0812
 1005MOL0     C35577   3.760   2.911   7.939 -0.5050 -0.2795  0.5644
 1005MOL0     C35578   3.710   2.963   8.070 -0.7997  0.3663 -0.0110
 1005MOL0     C35579   3.555   2.934   8.098 -0.0121 -0.1135  0.6053
 1005MOL0     C35580   3.464   2.993   7.986  1.0139 -0.2218  0.3028
 1005MOL0     C35581   3.309   2.996   8.003  0.5368 -0.7745 -0.0634
 1005MOL0     C35582   3.256   2.863   8.051 -0.4520  0.7187  0.5153
 1005MOL0     C35583   3.249   2.830   8.197 -0.4690 -0.6032  0.1156
 1005MOL0     C35584   3.215   2.689   8.226  0.9541 -0.3471  0.5490
 1005MOL0    Cl35585   3.066   2.642   8.161 -0.5050 -0.0122 -0.1976
 1005MOL0     C35586   3.892   2.651   8.032 -0.8747  0.6675 -0.0187
 1005MOL0     C35587   3.967   2.535   8.058  0.5608  0.5255  1.1611
 1005MOL0     O35588   4.144   2.380   8.247  0.4643 -1.0017 -0.0264
 1005MOL0     C35589   4.368   2.201   8.044 -0.2388  0.4977  0.1949
 1005MOL0     C35590   4.439   2.080   8.036  0.7840 -0.5171  0.0733
 1005MOL0     N35591   4.506   1.323   7.860  0.6021  0.1902  2.0370
 1005MOL0     N35592   4.544   1.328   7.734 -0.5346  0.2999 -0.7730
 1005MOL0     C35593   5.592   1.573   7.144 -0.4561 -0.5269  0.8371
 1005MOL0     C35594   5.702   1.550   7.054  0.6434 -0.1456  0.6036
 1005MOL0     C35595   6.160   1.440   6.993 -0.1959 -0.4212  0.0908
 1005MOL0     C35596   6.141   1.362   6.877  0.2854 -0.0065 -0.5043
 1005MOL0     C35597   6.250   1.330   6.801 -0.2199  0.3824  0.0949
 1005MOL0     C35598   6.378   1.369   6.822  0.1790  0.0840 -0.0065
 1005MOL0     O35599   6.488   1.335   6.751 -0.3205  0.1915 -0.1871
 1005MOL0     C35600   6.477   1.232   6.646 -0.0709 -0.0238 -0.3643
 1005MOL0     C35601   6.423   1.285   6.505 -0.4457 -0.4175 -0.1863
 1005MOL0     C35602   6.542   1.338   6.416 -0.4379 -0.0260 -0.3121
 1005MOL0     C35603   6.608   1.241   6.325 -0.1318 -0.3890  0.0818
 1005MOL0     C35604   6.521   1.191   6.217 -1.0499 -0.3232 -0.5289
 1005MOL0     C35605   6.443   1.166   6.134 -0.0241  1.0117  0.4447
 1005MOL0     C35606   6.393   1.456   6.929 -0.1090 -0.2496 -0.1529
 1005MOL0     C35607   6.289   1.489   7.017  0.8389 -0.3341  0.0539
 1005MOL0     H35608   5.876   1.354   7.260  0.2968  0.9006 -0.2989
 1005MOL0     H35609   5.669   1.364   7.390 -0.0981 -1.8612 -0.8496
 1005MOL0     H35610   5.471   1.346   7.406 -0.5831  0.4650 -0.6927
 1005MOL0     H35611   5.426   1.468   7.521 -1.2881  1.5550 -0.0840
 1005MOL0     H35612   5.209   1.484   7.381 -3.6797 -1.3794  2.3338
 1005MOL0     H35613   5.257   1.335   7.315 -1.0167 -0.3386  0.3396
 1005MOL0     H35614   5.234   1.225   7.529 -3.9236 -1.2122  2.5201
 1005MOL0     H35615   5.210   1.378   7.615  1.7393 -2.5247  2.1487
 1005MOL0     H35616   4.994   1.411   7.477 -0.1925 -0.4963 -0.6553
 1005MOL0     H35617   5.033   1.277   7.386  0.8239  1.6057  0.0897
 1005MOL0     H35618   5.020   1.150   7.627 -1.6643 -0.8186 -0.0710
 1005MOL0     H35619   4.954   1.305   7.683  0.9900 -2.7360  1.8361
 1005MOL0     H35620   4.830   1.134   7.458 -1.3065 -0.1509  0.3971
 1005MOL0     H35621   4.785   1.137   7.625 -0.9745 -1.4935 -0.3186
 1005MOL0     H35622   4.760   1.360   7.404 -0.1450  1.7828  0.3954
 1005MOL0     H35623   4.628   1.293   7.484 -0.0610  1.2453 -0.3474
 1005MOL0     H35624   4.693   1.529   7.547  0.2470  0.6732  0.3701
 1005MOL0     H35625   4.827   1.458   7.631 -0.9294 -1.7009  1.4299
 1005MOL0     H35626   4.765   1.518   7.878  0.1745  0.2321  0.0775
 1005MOL0     H35627   4.483   1.353   8.119  0.9595  0.2370  3.4235
 1005MOL0     H35628   4.651   1.378   8.143 -0.3919 -0.3335  1.6519
 1005MOL0     H35629   4.633   1.628   8.073 -0.5225  2.0081  1.2308
 1005MOL0     H35630   4.551   1.595   8.225 -1.6346  2.5555 -0.3550
 1005MOL0     H35631   4.333   1.636   8.131 -1.6228 -1.4510 -0.7914
 1005MOL0     H35632   4.380   1.565   7.977 -0.5553  0.6364  0.0742
 1005MOL0     H35633   4.354   1.804   7.959 -1.9473  0.3909  2.3537
 1005MOL0     H35634   4.529   1.777   7.945 -0.0747 -3.4314 -0.4850
 1005MOL0     H35635   4.300   1.923   8.294 -4.0845  1.7561  1.0224
 1005MOL0     H35636   4.118   2.012   8.377  1.3760  0.8321  1.5709
 1005MOL0     H35637   4.183   2.178   8.417 -0.5290  0.5620  0.4844
 1005MOL0     H35638   4.037   2.154   8.321  0.1955  0.4085  1.1196
 1005MOL0     H35639   4.261   2.617   7.906  0.5252 -2.8765  2.0072
 1005MOL0     H35640   4.141   2.825   7.881  0.8501 -0.8673 -0.0505
 1005MOL0     H35641   3.746   2.992   7.867 -0.0849 -0.4690  0.2674
 1005MOL0     H35642   3.700   2.826   7.906  1.1173 -0.5652 -1.9328
 1005MOL0     H35643   3.763   2.915   8.152 -0.5564  1.6055  0.5867
 1005MOL0     H35644   3.739   3.068   8.081  0.4010  0.6096 -4.1211
 1005MOL0     H35645   3.516   2.974   8.192  2.2700  1.4179  0.9583
 1005MOL0     H35646   3.548   2.824   8.100  1.4015 -0.2296  0.3612
 1005MOL0     H35647   3.495   3.096   7.964 -2.6765  1.6144  2.6807
 1005MOL0     H35648   3.478   2.934   7.895  0.6443  0.5638 -0.2725
 1005MOL0     H35649   3.268   3.036   7.910  1.8401  2.0018  0.4541
 1005MOL0     H35650   3.281   3.072   8.075  1.7247 -1.1782  0.8519
 1005MOL0     H35651   3.163   2.833   8.003  2.6319 -4.3196 -3.4184
 1005MOL0     H35652   3.324   2.783   8.018 -1.1464  0.4254 -0.2310
 1005MOL0     H35653   3.178   2.899   8.243  0.5261 -0.8722  2.1487
 1005MOL0     H35654   3.341   2.865   8.244 -0.7270  1.6380 -0.9437
 1005MOL0     H35655   3.184   2.686   8.331 -0.8773 -1.1949  0.0288
 1005MOL0     H35656   3.299   2.628   8.194  1.8766  1.7611 -1.3010
 1005MOL0     H35657   3.785   2.656   8.050 -0.8444 -2.2317  1.5249
 1005MOL0     H35658   3.923   2.454   8.116 -2.4124  1.3086  0.1554
 1005MOL0     H35659   4.399   2.279   7.976 -0.7614  1.9061  1.5101
 1005MOL0     H35660   4.521   2.071   7.965 -0.2217  4.0669 -2.0473
 1005MOL0     H35661   5.512   1.642   7.120 -1.5318 -2.1297 -0.4467
 1005MOL0     H35662   5.707   1.596   6.956  0.9705 -5.3125 -2.1539
 1005MOL0     H35663   6.042   1.318   6.865 -1.4720  2.0243  4.0764
 1005MOL0     H35664   6.228   1.272   6.713 -0.2245 -1.1009  1.0456
 1005MOL0     H35665   6.576   1.187   6.635  0.2090  0.3153  0.6546
 1005MOL0     H35666   6.414   1.151   6.683  1.1117  0.3640  2.7674
 1005MOL0     H35667   6.355   1.368   6.524 -1.1129 -1.1005  0.4775
 1005MOL0     H35668   6.367   1.201   6.463 -1.4243  0.6919 -1.1753
 1005MOL0     H35669   6.620   1.386   6.476 -2.3653 -0.7720  3.0815
 1005MOL0     H35670   6.498   1.413   6.349  2.8468  2.0783 -0.3382
 1005MOL0     H35671   6.641   1.156   6.385  0.1955  1.0340  2.0062
 1005MOL0     H35672   6.696   1.282   6.275 -1.2358 -1.9076 -3.4490
 1005MOL0     H35673   6.382   1.137   6.051  0.9076 -1.2330  0.4799
 1005MOL0     H35674   6.499   1.475   6.939 -0.2147 -0.7414  2.4747
 1005MOL0     H35675   6.307   1.554   7.101 -1.8435 -1.2671  1.4617
 1006MOL0     O35676   9.018   7.259   4.051 -0.5244 -0.3852 -0.6032
 1006MOL0     C35677   9.033   7.298   3.936  0.1231 -0.1792  0.6675
 1006MOL0     O35678   8.933   7.321   3.847 -0.5103  0.1171  0.4081
 1006MOL0     C35679   8.803   7.279   3.870  0.3007 -0.0325 -0.8717
 1006MOL0     C35680   8.701   7.365   3.830  0.0576 -0.5997  1.1792
 1006MOL0     C35681   8.564   7.323   3.832  0.2304 -0.2799  0.4948
 1006MOL0     C35682   8.539   7.193   3.883 -0.7498 -0.6634 -0.3535
 1006MOL0     O35683   8.407   7.157   3.902 -0.5558 -0.3493  0.7475
 1006MOL0     C35684   8.366   7.020   3.875  0.7437  0.2231  0.0199
 1006MOL0     C35685   8.212   7.013   3.881 -1.0011  0.0227 -0.4005
 1006MOL0     C35686   8.173   6.866   3.838 -0.6231  0.3339 -0.3230
 1006MOL0     C35687   8.026   6.839   3.831 -0.4244  0.1267 -0.1733
 1006MOL0     C35688   7.994   6.694   3.791 -0.6188 -0.9921  0.4218
 1006MOL0     C35689   7.838   6.663   3.813 -0.8345 -0.1552 -0.6739
 1006MOL0     C35690   7.735   6.729   3.716 -0.1993  1.2972 -0.0036
 1006MOL0     C35691   7.592   6.676   3.741  0.5533 -0.6913 -0.5530
 1006MOL0     N35692   7.530   6.743   3.864 -0.1278 -0.5893 -0.4147
 1006MOL0     C35693   7.436   6.842   3.869  0.9139 -0.2572 -0.6717
 1006MOL0     C35694   7.406   6.857   4.005  0.5012  1.1356 -0.2109
 1006MOL0     C35695   7.299   6.936   4.070  0.3123  0.0466 -0.8095
 1006MOL0     C35696   7.192   6.854   4.138 -0.1514 -0.7917  1.0767
 1006MOL0     C35697   7.103   6.948   4.213  0.7584 -0.4169 -1.0110
 1006MOL0     C35698   6.994   6.866   4.283 -0.6705 -0.2762 -0.3393
 1006MOL0     O35699   7.048   6.790   4.396  0.4418  0.5587 -0.0309
 1006MOL0     C35700   6.956   6.731   4.480  0.1413  0.2693  0.1521
 1006MOL0     C35701   6.825   6.766   4.481  0.2290  0.4782 -0.4742
 1006MOL0     C35702   6.740   6.709   4.576  0.2475 -1.1265  0.6616
 1006MOL0     C35703   6.598   6.750   4.565 -0.3772  1.0009  1.2500
 1006MOL0     C35704   6.784   6.623   4.677 -0.3634 -0.6923 -0.2569
 1006MOL0     C35705   6.701   6.566   4.787  0.5163 -0.2563  0.3861
 1006MOL0     O35706   6.591   6.485   4.755 -0.2206  0.0523 -0.8159
 1006MOL0     C35707   6.489   6.440   4.838 -0.4029  0.6963  1.2004
 1006MOL0     C35708   6.387   6.362   4.780  0.0608 -0.3548 -0.3828
 1006MOL0     C35709   6.286   6.303   4.857  1.5012 -0.5281  0.3043
 1006MOL0     C35710   6.287   6.321   4.994  0.5417  0.2105 -1.3668
 1006MOL0     O35711   6.183   6.269   5.075 -0.7879 -0.3456  0.0896
 1006MOL0     C35712   6.229   6.175   5.177 -0.1384 -0.1747 -0.6958
 1006MOL0     C35713   6.316   6.059   5.120  0.1316  0.0817 -0.6282
 1006MOL0     C35714   6.230   5.986   5.020 -0.0563  0.2363  0.1222
 1006MOL0     C35715   6.316   5.876   4.957  0.6875  0.3106  0.4781
 1006MOL0     C35716   6.233   5.786   4.873 -0.1805 -0.0264 -0.1165
 1006MOL0     C35717   6.221   5.816   4.724  0.3508  0.0085 -0.1065
 1006MOL0     C35718   6.168   5.959   4.690  0.1614  0.2868 -0.1392
 1006MOL0     C35719   6.149   5.981   4.534 -0.4149 -0.1341  0.2177
 1006MOL0    Cl35720   6.123   6.161   4.514 -0.0938 -0.0696  0.3829
 1006MOL0     C35721   6.388   6.404   5.052  0.0516  0.1599  0.3673
 1006MOL0     C35722   6.494   6.452   4.978  0.0323 -0.2932  0.1436
 1006MOL0     O35723   6.736   6.604   4.904 -0.1645  0.2945  0.6140
 1006MOL0     C35724   6.930   6.606   4.685 -0.1132 -0.0713  0.0957
 1006MOL0     C35725   7.006   6.650   4.580 -0.3741 -0.4676  0.4275
 1006MOL0     N35726   7.488   6.763   4.081  0.1883  0.3993 -0.1087
 1006MOL0     N35727   7.572   6.712   3.996 -0.1941 -0.6227  0.5400
 1006MOL0     C35728   8.641   7.116   3.936 -0.0657 -0.2295 -1.0065
 1006MOL0     C35729   8.771   7.156   3.923 -0.3184 -0.5309 -1.4004
 1006MOL0     C35730   9.169   7.336   3.889  0.3735  0.5095 -1.2788
 1006MOL0     C35731   9.194   7.420   3.783  0.3514 -0.0412  0.0268
 1006MOL0     C35732   9.323   7.457   3.736 -0.4939 -0.1852  0.0161
 1006MOL0     C35733   9.443   7.397   3.797  0.1285  0.5662  0.7818
 1006MOL0     O35734   9.566   7.430   3.753  0.5247 -0.0516 -0.0309
 1006MOL0     C35735   9.606   7.565   3.789 -0.3379  0.1868 -1.1805
 1006MOL0     C35736   9.657   7.547   3.936  0.5216 -0.2216  0.0213
 1006MOL0     C35737   9.738   7.661   3.991  0.3432  0.6242 -0.4110
 1006MOL0     C35738   9.870   7.669   3.914  0.1034 -0.2022  0.1211
 1006MOL0     C35739   9.973   7.747   3.984  0.8745 -0.1624  0.5828
 1006MOL0     C35740  10.048   7.818   4.047 -0.1090  0.1065 -0.4700
 1006MOL0     C35741   9.419   7.312   3.904  0.3348  0.2238 -0.6439
 1006MOL0     C35742   9.281   7.275   3.944 -0.8060 -0.3641 -0.4379
 1006MOL0     H35743   8.738   7.444   3.767  0.7675 -3.0170 -1.6704
 1006MOL0     H35744   8.492   7.388   3.784  1.3956 -0.8375 -2.2046
 1006MOL0     H35745   8.400   6.981   3.778 -1.7771  2.7300 -2.0592
 1006MOL0     H35746   8.410   6.953   3.949  1.1165 -0.5021 -0.8274
 1006MOL0     H35747   8.180   7.023   3.985 -0.5203 -2.3042  0.0083
 1006MOL0     H35748   8.174   7.084   3.807  3.0516  2.0847 -0.8149
 1006MOL0     H35749   8.213   6.838   3.741  2.0450  3.2101 -0.1819
 1006MOL0     H35750   8.224   6.797   3.907 -0.8840 -0.5924 -1.0252
 1006MOL0     H35751   7.974   6.859   3.925 -0.0381 -1.8204  0.4830
 1006MOL0     H35752   7.988   6.899   3.748 -0.4253 -2.0568 -1.8386
 1006MOL0     H35753   8.016   6.680   3.685 -2.1217 -0.7532  0.0440
 1006MOL0     H35754   8.062   6.622   3.837  0.8327  0.2562  0.2757
 1006MOL0     H35755   7.826   6.555   3.819  2.6533 -0.5779  1.0421
 1006MOL0     H35756   7.808   6.691   3.914  0.8450 -1.9505  0.3763
 1006MOL0     H35757   7.736   6.838   3.708 -1.0229  1.3076  0.0047
 1006MOL0     H35758   7.747   6.695   3.612 -0.9995 -0.6626  0.5070
 1006MOL0     H35759   7.604   6.567   3.738  0.3673 -0.7609  0.6856
 1006MOL0     H35760   7.524   6.696   3.658 -1.1137 -2.6316  0.2468
 1006MOL0     H35761   7.381   6.899   3.795 -0.3627  0.3626  0.7115
 1006MOL0     H35762   7.334   7.004   4.148 -1.4081  1.2105 -0.9865
 1006MOL0     H35763   7.252   7.004   3.997 -0.1028 -1.3228 -1.8715
 1006MOL0     H35764   7.242   6.777   4.197  0.8955 -1.2865 -0.3903
 1006MOL0     H35765   7.124   6.800   4.071  2.8566 -3.6957  0.0634
 1006MOL0     H35766   7.048   7.020   4.152  1.0260 -0.3877 -1.2163
 1006MOL0     H35767   7.161   7.001   4.289  0.6378  0.7240 -1.6969
 1006MOL0     H35768   6.953   6.791   4.214  0.0011 -2.6818  1.7315
 1006MOL0     H35769   6.916   6.939   4.306 -0.4802 -0.2254  0.1645
 1006MOL0     H35770   6.768   6.835   4.419  0.2582  2.9141  1.9900
 1006MOL0     H35771   6.571   6.745   4.459  1.4270  0.4961  0.7880
 1006MOL0     H35772   6.533   6.681   4.620  0.1286 -0.5396 -0.0351
 1006MOL0     H35773   6.588   6.852   4.605 -3.1972  0.1468  3.1035
 1006MOL0     H35774   6.378   6.360   4.672  1.8561 -2.7927 -0.5672
 1006MOL0     H35775   6.202   6.250   4.813 -1.0481  1.2230  2.6822
 1006MOL0     H35776   6.287   6.234   5.249  0.7418 -1.9819  0.1271
 1006MOL0     H35777   6.141   6.127   5.220  0.5293 -0.5025  0.3371
 1006MOL0     H35778   6.414   6.083   5.078 -0.3670 -0.5233 -2.1883
 1006MOL0     H35779   6.326   5.987   5.203  0.8281 -1.6511 -2.1547
 1006MOL0     H35780   6.202   6.046   4.933  2.7588  0.9666 -0.4007
 1006MOL0     H35781   6.146   5.948   5.077 -0.9339 -1.8678 -2.3695
 1006MOL0     H35782   6.401   5.913   4.898 -0.7687  2.7361 -0.2283
 1006MOL0     H35783   6.348   5.815   5.043 -3.3376  0.6412  2.4292
 1006MOL0     H35784   6.139   5.778   4.928 -0.6180  2.4930 -0.3785
 1006MOL0     H35785   6.286   5.690   4.880  0.6222  0.4655  1.0834
 1006MOL0     H35786   6.320   5.799   4.682 -0.6857 -0.9123 -2.3460
 1006MOL0     H35787   6.153   5.749   4.671  0.6726  1.6319 -2.7937
 1006MOL0     H35788   6.239   6.033   4.729  0.0736 -0.6191  1.8628
 1006MOL0     H35789   6.072   5.986   4.736  0.9152 -2.0541  3.1924
 1006MOL0     H35790   6.059   5.928   4.501 -1.2945  2.1358 -1.2759
 1006MOL0     H35791   6.241   5.947   4.486  2.1038  1.5366  3.5493
 1006MOL0     H35792   6.404   6.421   5.157 -0.1625 -1.5158  0.7079
 1006MOL0     H35793   6.567   6.513   5.030  1.3157 -1.3153 -0.3933
 1006MOL0     H35794   6.972   6.550   4.768  2.4909  2.0157  0.3279
 1006MOL0     H35795   7.114   6.651   4.591 -0.3450  0.3427  0.1511
 1006MOL0     H35796   8.613   7.021   3.980 -1.9779  0.4101 -0.7220
 1006MOL0     H35797   8.845   7.079   3.938 -1.9777 -2.1642 -1.3051
 1006MOL0     H35798   9.110   7.469   3.736  0.9141  4.5272  3.0954
 1006MOL0     H35799   9.334   7.546   3.676 -1.6600  0.0447  0.1287
 1006MOL0     H35800   9.683   7.603   3.721  3.1107 -1.8279  1.2563
 1006MOL0     H35801   9.522   7.635   3.784  0.5424  1.9691  3.7001
 1006MOL0     H35802   9.719   7.457   3.936  1.3096  0.3107 -0.0148
 1006MOL0     H35803   9.574   7.530   4.004  1.1976 -2.7308  0.3321
 1006MOL0     H35804   9.771   7.637   4.093  0.0395 -0.3989 -0.5365
 1006MOL0     H35805   9.681   7.753   3.987 -0.9834 -0.1147  0.7377
 1006MOL0     H35806   9.855   7.703   3.811 -0.4753  2.0145  0.9007
 1006MOL0     H35807   9.901   7.564   3.903  0.5045 -0.1724  0.9201
 1006MOL0     H35808  10.104   7.888   4.105  0.3774 -1.7676  1.4321
 1006MOL0     H35809   9.505   7.269   3.954  1.1017  1.3852 -0.9261
 1006MOL0     H35810   9.271   7.213   4.033 -0.5122  2.2360  1.5174
 1007MOL0     O35811  10.755   5.294   5.888 -0.0864 -0.8018 -0.7866
 1007MOL0     C35812  10.769   5.343   5.780 -0.4724 -0.7418  0.0331
 1007MOL0     O35813  10.672   5.399   5.698 -0.1114  0.0452 -0.7879
 1007MOL0     C35814  10.539   5.418   5.731 -0.6585  0.4034  0.7403
 1007MOL0     C35815  10.482   5.418   5.860  0.5515  0.3319  0.0423
 1007MOL0     C35816  10.348   5.436   5.886 -0.2243 -0.0082  0.5585
 1007MOL0     C35817  10.266   5.436   5.780  1.0207 -1.3493 -0.4662
 1007MOL0     O35818  10.131   5.439   5.795  0.2588  0.3623  0.4332
 1007MOL0     C35819  10.080   5.349   5.887 -0.0454  0.3964 -0.1105
 1007MOL0     C35820   9.935   5.300   5.850  0.4547  0.4657  0.1154
 1007MOL0     C35821   9.833   5.416   5.844  0.1086 -0.9230 -0.2008
 1007MOL0     C35822   9.691   5.377   5.842  0.8527 -0.1586 -0.2484
 1007MOL0     C35823   9.599   5.500   5.850 -0.7405 -0.2953  0.3821
 1007MOL0     C35824   9.459   5.454   5.829 -0.2448  0.7971 -0.4456
 1007MOL0     C35825   9.358   5.574   5.813 -1.6184 -0.1921  0.4967
 1007MOL0     C35826   9.212   5.535   5.833 -0.8088 -0.1590  0.4208
 1007MOL0     N35827   9.120   5.647   5.795  0.2608  0.1595 -0.4671
 1007MOL0     C35828   9.042   5.644   5.679  0.3350 -0.1673 -0.2706
 1007MOL0     C35829   8.972   5.764   5.680  0.2482  1.3520 -0.2398
 1007MOL0     C35830   8.890   5.802   5.572 -0.0433 -0.5339 -0.9534
 1007MOL0     C35831   8.774   5.712   5.539  0.4683  0.6668 -0.2712
 1007MOL0     C35832   8.684   5.757   5.416  0.2815 -0.2198 -0.3024
 1007MOL0     C35833   8.602   5.886   5.441  0.7116  0.6365 -0.2812
 1007MOL0     O35834   8.493   5.890   5.347  0.1903  0.8972  0.3434
 1007MOL0     C35835   8.370   5.877   5.400  0.2282 -0.3987 -0.2011
 1007MOL0     C35836   8.298   5.988   5.439  0.2511 -0.1607 -0.8015
 1007MOL0     C35837   8.171   5.974   5.496 -0.5686 -0.1442 -0.7509
 1007MOL0     C35838   8.100   6.102   5.532 -0.5399  0.2264  0.2597
 1007MOL0     C35839   8.112   5.846   5.491 -0.9659  0.1698 -0.3282
 1007MOL0     C35840   7.975   5.816   5.540 -0.2423  0.0157  0.3966
 1007MOL0     O35841   7.938   5.682   5.547 -0.3444  0.5879  0.0868
 1007MOL0     C35842   7.805   5.654   5.590 -0.4052  0.2704  0.6915
 1007MOL0     C35843   7.704   5.650   5.498 -0.4760  0.5213 -0.3254
 1007MOL0     C35844   7.573   5.621   5.529  0.0286 -1.2651 -0.5945
 1007MOL0     C35845   7.534   5.609   5.663  0.1410 -0.1753  0.4811
 1007MOL0     O35846   7.405   5.586   5.700  0.6071 -0.4296 -0.0609
 1007MOL0     C35847   7.360   5.614   5.835  1.2239  0.0043  0.5254
 1007MOL0     C35848   7.211   5.589   5.853 -0.1359 -0.0452 -0.4121
 1007MOL0     C35849   7.181   5.592   6.003  0.1145 -0.7611  0.1804
 1007MOL0     C35850   7.037   5.601   6.042  0.2093 -0.4441  0.3307
 1007MOL0     C35851   6.929   5.505   5.992  0.2224 -0.0091  0.2035
 1007MOL0     C35852   6.970   5.360   6.003  0.6782 -0.2051  0.3760
 1007MOL0     C35853   6.842   5.275   5.981  0.3317 -0.2099  0.4405
 1007MOL0     C35854   6.867   5.116   5.985  0.4063 -0.8268  0.5084
 1007MOL0    Cl35855   6.884   5.066   6.160  0.1117 -0.3652  0.0731
 1007MOL0     C35856   7.636   5.607   5.758  0.6105  1.0734 -0.6997
 1007MOL0     C35857   7.770   5.634   5.720  0.8376  0.0297  0.4895
 1007MOL0     O35858   7.901   5.908   5.563 -0.8343  0.3497 -0.5742
 1007MOL0     C35859   8.188   5.737   5.445  0.4111  0.7878 -0.5586
 1007MOL0     C35860   8.314   5.750   5.414 -1.3191 -1.0291  1.3654
 1007MOL0     N35861   9.019   5.839   5.791  0.7282  0.7016  0.1591
 1007MOL0     N35862   9.101   5.767   5.855 -0.8883 -0.5655 -0.4214
 1007MOL0     C35863  10.311   5.450   5.653 -0.4486  0.1636  0.1494
 1007MOL0     C35864  10.450   5.436   5.628  0.4595 -0.3796  0.0655
 1007MOL0     C35865  10.898   5.331   5.715  0.9634 -0.7266 -0.2525
 1007MOL0     C35866  10.978   5.225   5.741 -0.3596  0.4417 -0.7966
 1007MOL0     C35867  11.097   5.202   5.662  0.2769  0.2570  0.2592
 1007MOL0     C35868  11.138   5.303   5.572  0.6110  0.1692  0.0069
 1007MOL0     O35869  11.256   5.300   5.498 -0.4604 -0.4129  0.1344
 1007MOL0     C35870  11.367   5.227   5.553 -0.7485  0.2794 -0.4504
 1007MOL0     C35871  11.487   5.226   5.444  0.1467  0.5516 -0.6863
 1007MOL0     C35872  11.562   5.358   5.421  0.1532  0.0688  0.1089
 1007MOL0     C35873  11.683   5.320   5.328  0.0455  0.0772  0.0012
 1007MOL0     C35874  11.711   5.436   5.244  0.9379 -0.0268  0.3712
 1007MOL0     C35875  11.737   5.538   5.175  0.1294 -0.2178  0.5274
 1007MOL0     C35876  11.049   5.407   5.538 -0.6510 -0.2511 -0.4940
 1007MOL0     C35877  10.928   5.417   5.610 -0.2029 -0.1650  0.3550
 1007MOL0     H35878  10.536   5.428   5.954 -0.5450 -0.1098  0.7311
 1007MOL0     H35879  10.318   5.462   5.987  1.2525 -1.1792  1.3289
 1007MOL0     H35880  10.139   5.260   5.909 -2.6691 -1.1825  1.0375
 1007MOL0     H35881  10.074   5.399   5.985 -1.7874 -2.4784  1.3719
 1007MOL0     H35882   9.960   5.257   5.753  1.2149  0.4092  0.3240
 1007MOL0     H35883   9.915   5.226   5.928 -1.7138  1.7244  0.8416
 1007MOL0     H35884   9.845   5.463   5.942  1.6355  0.1613 -0.8621
 1007MOL0     H35885   9.857   5.494   5.771  0.8426 -0.8692  0.0898
 1007MOL0     H35886   9.665   5.325   5.749 -2.3620 -0.9009  0.9475
 1007MOL0     H35887   9.671   5.314   5.929 -1.5333 -2.3567 -2.2278
 1007MOL0     H35888   9.624   5.553   5.942  3.7833 -2.4370  0.6779
 1007MOL0     H35889   9.629   5.562   5.765  0.7787 -2.3038 -0.6307
 1007MOL0     H35890   9.450   5.390   5.740  0.7719  0.4182 -0.2859
 1007MOL0     H35891   9.432   5.392   5.915  0.6506  2.1528  0.8407
 1007MOL0     H35892   9.384   5.656   5.881  0.6182 -2.6985  2.9459
 1007MOL0     H35893   9.362   5.605   5.708  1.8967  0.7093  0.7566
 1007MOL0     H35894   9.209   5.512   5.940 -0.4456  2.3724  1.0290
 1007MOL0     H35895   9.174   5.446   5.781 -2.8109  0.2632  1.0893
 1007MOL0     H35896   9.046   5.565   5.605  0.0706  1.0637 -1.6615
 1007MOL0     H35897   8.857   5.905   5.583  2.5066  0.3762 -1.0626
 1007MOL0     H35898   8.964   5.802   5.491  0.3103 -0.0015 -0.6348
 1007MOL0     H35899   8.712   5.705   5.629 -0.7401  2.6975 -0.8901
 1007MOL0     H35900   8.824   5.616   5.523 -0.6746 -0.9186  4.1398
 1007MOL0     H35901   8.616   5.677   5.385  0.3191  0.3555 -1.9659
 1007MOL0     H35902   8.749   5.760   5.328  3.5957 -3.3339  1.7380
 1007MOL0     H35903   8.659   5.978   5.425 -0.7744  1.5512 -0.5439
 1007MOL0     H35904   8.565   5.888   5.544 -1.7601 -0.2773 -1.0892
 1007MOL0     H35905   8.345   6.086   5.433  2.1715 -1.0683 -1.1695
 1007MOL0     H35906   8.061   6.091   5.633 -1.2635 -2.3757 -0.2254
 1007MOL0     H35907   8.170   6.187   5.529  2.6119 -2.2073 -0.2594
 1007MOL0     H35908   8.023   6.133   5.460  0.8783  5.3431  0.5051
 1007MOL0     H35909   7.730   5.676   5.396 -0.6988  3.5947  0.2916
 1007MOL0     H35910   7.496   5.634   5.454 -1.8124 -0.1062  1.3963
 1007MOL0     H35911   7.413   5.550   5.907  0.0647 -1.2097  0.3203
 1007MOL0     H35912   7.380   5.720   5.856  0.5844  0.5473 -1.3939
 1007MOL0     H35913   7.153   5.659   5.792 -0.0442 -2.2605 -3.2640
 1007MOL0     H35914   7.191   5.489   5.813  2.2888  0.1347 -2.3057
 1007MOL0     H35915   7.242   5.670   6.050  1.7961 -2.4452  0.9055
 1007MOL0     H35916   7.220   5.499   6.044  2.4810 -0.7532 -1.8329
 1007MOL0     H35917   7.041   5.593   6.151  3.5346  2.8199  0.6517
 1007MOL0     H35918   7.011   5.706   6.022  2.4460  0.4812  1.8543
 1007MOL0     H35919   6.904   5.532   5.889 -2.2347 -0.1983  0.6846
 1007MOL0     H35920   6.837   5.533   6.044 -0.3357 -2.2769  0.5418
 1007MOL0     H35921   7.038   5.330   5.923  1.4379 -0.8229  1.2210
 1007MOL0     H35922   7.021   5.332   6.096 -1.1721 -1.3815  1.1053
 1007MOL0     H35923   6.791   5.309   5.891  0.4355  0.5049  0.6487
 1007MOL0     H35924   6.778   5.295   6.067  0.1469  1.9018 -0.1443
 1007MOL0     H35925   6.956   5.087   5.928  0.2154  1.3279 -1.0312
 1007MOL0     H35926   6.781   5.063   5.942 -0.0014 -1.0228  1.5296
 1007MOL0     H35927   7.616   5.593   5.864 -2.4549 -1.4676 -1.4679
 1007MOL0     H35928   7.852   5.635   5.791 -0.0391  2.9724  1.6156
 1007MOL0     H35929   8.146   5.638   5.460 -1.2626  1.3969 -1.0960
 1007MOL0     H35930   8.380   5.668   5.386  1.5121  0.3705  3.4136
 1007MOL0     H35931  10.246   5.441   5.567 -1.7625 -0.1710  1.1554
 1007MOL0     H35932  10.482   5.434   5.524 -1.3463 -0.0562 -0.5316
 1007MOL0     H35933  10.954   5.141   5.806  1.2782 -0.2448 -1.0287
 1007MOL0     H35934  11.156   5.115   5.689 -3.2654 -2.1644  0.8834
 1007MOL0     H35935  11.418   5.277   5.636  0.8874  2.0102 -2.3990
 1007MOL0     H35936  11.332   5.124   5.569 -0.0693  0.0158 -0.6412
 1007MOL0     H35937  11.441   5.199   5.348  3.7810 -2.0613 -1.9147
 1007MOL0     H35938  11.555   5.144   5.470 -1.7953 -1.2003 -0.9015
 1007MOL0     H35939  11.600   5.394   5.518  0.1288 -0.6448  0.3868
 1007MOL0     H35940  11.505   5.442   5.381 -1.3229 -1.2375 -0.6104
 1007MOL0     H35941  11.672   5.232   5.264 -1.3473  0.0228  0.2977
 1007MOL0     H35942  11.773   5.295   5.385  0.1288  0.9112  0.2516
 1007MOL0     H35943  11.773   5.609   5.103 -0.8090 -0.2028  0.0585
 1007MOL0     H35944  11.082   5.477   5.461  2.0586 -2.3552 -1.4008
 1007MOL0     H35945  10.850   5.488   5.583 -0.7398 -0.0597  2.0196
 1008MOL0     O35946   8.631   3.657   3.464  0.6108  0.4820 -0.8101
 1008MOL0     C35947   8.661   3.535   3.460  0.7155 -0.6188  0.3100
 1008MOL0     O35948   8.571   3.441   3.410 -0.5275  0.1753 -0.7552
 1008MOL0     C35949   8.450   3.476   3.358  0.1856 -0.7130  0.9090
 1008MOL0     C35950   8.444   3.509   3.217 -0.4002 -0.3326  0.6131
 1008MOL0     C35951   8.331   3.577   3.165 -0.4015 -0.4033 -0.2354
 1008MOL0     C35952   8.214   3.583   3.245 -0.5385  0.3714 -1.8935
 1008MOL0     O35953   8.097   3.641   3.195  0.0438 -0.1642  0.4196
 1008MOL0     C35954   7.999   3.690   3.285  0.6405 -0.4039 -0.0065
 1008MOL0     C35955   7.918   3.799   3.213  0.2853 -0.1595 -0.3568
 1008MOL0     C35956   7.889   3.924   3.301 -0.2540  0.4696  0.3943
 1008MOL0     C35957   7.788   4.027   3.232  0.5337  0.6286 -0.5871
 1008MOL0     C35958   7.638   4.003   3.260 -0.5180  0.2465 -0.2109
 1008MOL0     C35959   7.539   4.107   3.203  1.3805  0.2903  0.0221
 1008MOL0     C35960   7.399   4.048   3.231  0.0605 -0.5746  0.9602
 1008MOL0     C35961   7.358   4.002   3.377 -0.0326  1.0124  0.2300
 1008MOL0     N35962   7.212   3.955   3.392 -0.5795  0.0469  0.7140
 1008MOL0     C35963   7.173   3.860   3.483 -0.5493  0.6706 -0.0941
 1008MOL0     C35964   7.037   3.868   3.476 -0.6348  0.0816 -0.3035
 1008MOL0     C35965   6.946   3.791   3.564 -1.6951 -0.4510 -0.0235
 1008MOL0     C35966   6.842   3.885   3.616  0.3908  0.9010 -0.3834
 1008MOL0     C35967   6.753   3.839   3.743  0.3643  0.3295  0.3358
 1008MOL0     C35968   6.740   3.690   3.748 -0.7402  0.2016 -0.5735
 1008MOL0     O35969   6.656   3.643   3.642 -0.4024  0.5810  0.4818
 1008MOL0     C35970   6.520   3.640   3.650 -0.1030 -0.0770  0.1310
 1008MOL0     C35971   6.455   3.618   3.761  0.2025  0.5766 -0.0532
 1008MOL0     C35972   6.314   3.601   3.775  0.3320 -1.3656  0.7723
 1008MOL0     C35973   6.256   3.602   3.918  0.0942  0.1834  0.4203
 1008MOL0     C35974   6.232   3.612   3.657 -0.4463 -0.6413 -0.4433
 1008MOL0     C35975   6.091   3.600   3.647 -0.6179  0.2788  0.2582
 1008MOL0     O35976   6.026   3.502   3.719  0.6314  0.3234  0.2194
 1008MOL0     C35977   5.890   3.482   3.707 -0.1620 -0.1408 -0.3849
 1008MOL0     C35978   5.808   3.445   3.827 -0.1265 -0.9561  1.1143
 1008MOL0     C35979   5.677   3.403   3.807  0.3640  0.1379 -0.5150
 1008MOL0     C35980   5.625   3.400   3.681  0.4898 -0.1224  0.5789
 1008MOL0     O35981   5.490   3.373   3.656 -0.8862 -0.1442  0.4929
 1008MOL0     C35982   5.432   3.279   3.749  0.9993  0.4420 -0.5540
 1008MOL0     C35983   5.294   3.244   3.707  0.5585 -0.9852  0.2228
 1008MOL0     C35984   5.234   3.131   3.794  0.2520  0.5208  0.2258
 1008MOL0     C35985   5.079   3.114   3.778 -0.8492 -0.3897  1.1943
 1008MOL0     C35986   5.013   3.000   3.852  0.0339 -0.0151  0.1597
 1008MOL0     C35987   4.869   2.989   3.814 -0.6533 -0.6018  0.4915
 1008MOL0     C35988   4.848   2.928   3.670 -0.6567 -0.4631  0.2895
 1008MOL0     C35989   4.707   2.901   3.644  0.1461  0.7119  0.1447
 1008MOL0    Cl35990   4.695   2.829   3.483 -0.5420 -0.2219  0.2272
 1008MOL0     C35991   5.693   3.449   3.576  0.2984 -0.3530 -0.1696
 1008MOL0     C35992   5.822   3.486   3.585  0.8412  1.3397  0.0929
 1008MOL0     O35993   6.033   3.676   3.568 -0.0767  1.4828 -0.9375
 1008MOL0     C35994   6.302   3.629   3.538  0.2996 -0.7550 -0.0788
 1008MOL0     C35995   6.443   3.648   3.530 -0.6148 -0.1856 -0.0488
 1008MOL0     N35996   7.002   3.956   3.380 -0.2831 -0.2667  0.0545
 1008MOL0     N35997   7.104   4.015   3.333 -0.4958  0.7547 -0.8551
 1008MOL0     C35998   8.217   3.529   3.378  0.3225  0.6815  0.8283
 1008MOL0     C35999   8.334   3.488   3.432 -0.6109  0.0532 -0.2273
 1008MOL0     C36000   8.794   3.491   3.506  0.0339 -0.1104 -0.3946
 1008MOL0     C36001   8.830   3.356   3.486  0.5986  1.0433 -0.4436
 1008MOL0     C36002   8.954   3.314   3.530  1.1533 -0.3020  0.1711
 1008MOL0     C36003   9.040   3.410   3.594 -0.4686 -0.9290  0.1366
 1008MOL0     O36004   9.171   3.398   3.646  0.1078 -0.8858  0.1922
 1008MOL0     C36005   9.234   3.271   3.667 -0.5709  0.6245  0.4402
 1008MOL0     C36006   9.303   3.207   3.548  0.2058  0.7011 -0.5804
 1008MOL0     C36007   9.417   3.297   3.504  0.6561 -0.6002  0.4829
 1008MOL0     C36008   9.499   3.216   3.414  0.4466 -0.0890  0.2779
 1008MOL0     C36009   9.612   3.287   3.362  0.3403 -0.1793 -0.5396
 1008MOL0     C36010   9.726   3.329   3.337  0.1517 -0.8388  0.4551
 1008MOL0     C36011   8.996   3.538   3.624 -0.0956 -0.1080 -0.3503
 1008MOL0     C36012   8.872   3.575   3.581 -0.0846 -0.0809 -0.2593
 1008MOL0     H36013   8.528   3.477   3.156  0.3393  2.2870  0.1413
 1008MOL0     H36014   8.318   3.605   3.061 -0.5057 -0.6309 -0.2858
 1008MOL0     H36015   7.932   3.610   3.317  0.6689  0.0156  1.1601
 1008MOL0     H36016   8.053   3.740   3.366  1.2863  1.8680 -1.7336
 1008MOL0     H36017   7.972   3.817   3.120  0.5379 -1.7252 -0.5519
 1008MOL0     H36018   7.824   3.762   3.171  1.6782 -0.6789 -3.2172
 1008MOL0     H36019   7.842   3.890   3.394 -1.4405  0.5361 -0.1674
 1008MOL0     H36020   7.979   3.976   3.335 -0.7289  2.3016 -1.0229
 1008MOL0     H36021   7.814   4.123   3.278 -1.3649  1.4648 -1.1610
 1008MOL0     H36022   7.809   4.033   3.125 -0.8413  2.3896 -0.8072
 1008MOL0     H36023   7.619   3.899   3.232  1.0271 -0.3035  0.6707
 1008MOL0     H36024   7.623   4.008   3.369 -0.3173 -0.9856 -0.1134
 1008MOL0     H36025   7.545   4.209   3.244 -1.7715  1.9973 -3.1917
 1008MOL0     H36026   7.557   4.110   3.095  0.4386  1.2576 -0.1284
 1008MOL0     H36027   7.325   4.115   3.186 -1.5197 -2.1126  1.1692
 1008MOL0     H36028   7.384   3.964   3.162 -3.7307  1.7999 -1.5035
 1008MOL0     H36029   7.387   4.080   3.448  2.8513 -1.1021  1.5630
 1008MOL0     H36030   7.413   3.916   3.415 -2.1273  0.1390  1.4655
 1008MOL0     H36031   7.240   3.797   3.541  1.0321  2.0635 -0.3214
 1008MOL0     H36032   6.897   3.703   3.523 -3.7678 -0.1877  1.6800
 1008MOL0     H36033   7.008   3.757   3.648  0.0392  0.3703 -0.9071
 1008MOL0     H36034   6.773   3.893   3.532  0.1802  2.0141 -0.1194
 1008MOL0     H36035   6.879   3.984   3.644  0.8298 -0.1317  3.3301
 1008MOL0     H36036   6.653   3.882   3.732  1.1530  2.0166 -0.7196
 1008MOL0     H36037   6.797   3.876   3.835 -0.2552 -1.6404  1.4767
 1008MOL0     H36038   6.695   3.666   3.844 -0.4082  1.2289 -0.1499
 1008MOL0     H36039   6.838   3.641   3.746 -0.6890  0.0954  1.9074
 1008MOL0     H36040   6.505   3.601   3.857 -1.3380 -2.9942  0.2878
 1008MOL0     H36041   6.178   3.677   3.929 -0.2064 -0.3734  2.3998
 1008MOL0     H36042   6.203   3.509   3.938 -0.5098 -0.0458 -1.9590
 1008MOL0     H36043   6.329   3.607   3.999  0.3122 -2.3228  0.4510
 1008MOL0     H36044   5.871   3.455   3.915 -0.7991  0.5242  1.4658
 1008MOL0     H36045   5.617   3.380   3.895 -1.6099  2.2031 -1.2091
 1008MOL0     H36046   5.497   3.191   3.751  0.2047 -0.1944 -1.6092
 1008MOL0     H36047   5.422   3.313   3.853  3.0566  0.1364 -0.2230
 1008MOL0     H36048   5.230   3.332   3.713  2.3661  0.3560  0.6813
 1008MOL0     H36049   5.293   3.209   3.604  1.2289  0.9644 -0.4900
 1008MOL0     H36050   5.259   3.152   3.898 -0.0459  1.9748  0.0261
 1008MOL0     H36051   5.275   3.033   3.768  0.2501  0.9209 -1.3818
 1008MOL0     H36052   5.033   3.205   3.815 -2.8789 -1.3003  1.0517
 1008MOL0     H36053   5.061   3.098   3.671  0.4562 -2.3958  1.2280
 1008MOL0     H36054   5.032   3.019   3.958  3.0169  0.3113 -0.3568
 1008MOL0     H36055   5.056   2.904   3.821 -1.8638 -1.2871  1.2146
 1008MOL0     H36056   4.815   2.939   3.895 -2.0302  3.6206  2.4563
 1008MOL0     H36057   4.829   3.091   3.809  0.6796 -0.0286  0.9686
 1008MOL0     H36058   4.904   2.835   3.657  0.1569 -0.1844  1.6422
 1008MOL0     H36059   4.883   2.996   3.591  1.5741 -1.6081  0.2342
 1008MOL0     H36060   4.658   2.999   3.646  1.9719  1.6870 -0.0081
 1008MOL0     H36061   4.663   2.838   3.721  0.4901  2.5774  1.9553
 1008MOL0     H36062   5.638   3.484   3.490  0.1897 -0.2251 -0.0492
 1008MOL0     H36063   5.877   3.500   3.492 -2.0562  1.9557 -1.6371
 1008MOL0     H36064   6.238   3.650   3.452  0.4138  0.8491  0.2059
 1008MOL0     H36065   6.479   3.678   3.432 -1.3572  1.7012  0.2069
 1008MOL0     H36066   8.129   3.530   3.442  0.4338  0.8988  0.9800
 1008MOL0     H36067   8.339   3.448   3.533 -0.3574 -0.1853 -0.3346
 1008MOL0     H36068   8.762   3.286   3.439  1.6470  0.0167 -0.4804
 1008MOL0     H36069   8.982   3.209   3.532  0.1894 -0.5642  0.3315
 1008MOL0     H36070   9.311   3.278   3.745  1.8994  2.6022 -1.9512
 1008MOL0     H36071   9.151   3.208   3.699 -1.5599  1.9388  0.5411
 1008MOL0     H36072   9.227   3.194   3.471 -0.6861  0.9292  0.2430
 1008MOL0     H36073   9.329   3.104   3.573 -0.9920  0.4851 -0.1883
 1008MOL0     H36074   9.487   3.318   3.585  1.7351  3.9023 -1.3514
 1008MOL0     H36075   9.392   3.390   3.452 -0.1113 -2.5778 -3.0688
 1008MOL0     H36076   9.437   3.186   3.330 -1.2569  1.6828  0.8162
 1008MOL0     H36077   9.531   3.133   3.478 -2.7217  1.2316  3.9850
 1008MOL0     H36078   9.823   3.353   3.300 -0.5418  1.8604  0.1816
 1008MOL0     H36079   9.062   3.607   3.675 -0.2159  1.0083 -1.6797
 1008MOL0     H36080   8.834   3.675   3.598 -2.7671 -1.2197  0.8605
 1009MOL0     O36081   1.892   0.127  11.058 -0.1573  0.1921  0.1091
 1009MOL0     C36082   1.842   0.042  10.980  0.1304 -0.6315 -0.8988
 1009MOL0     O36083   1.883  -0.093  10.970  0.2109  0.6413 -0.7113
 1009MOL0     C36084   1.995  -0.115  11.041  0.0718 -0.2719  0.2632
 1009MOL0     C36085   1.984  -0.156  11.175  0.9938 -0.0747 -0.1369
 1009MOL0     C36086   2.106  -0.194  11.238 -0.8326  0.1301  0.5942
 1009MOL0     C36087   2.227  -0.180  11.170  0.0770 -0.2722 -0.6705
 1009MOL0     O36088   2.342  -0.218  11.232  0.1438  0.3307  0.2027
 1009MOL0     C36089   2.355  -0.180  11.370 -0.3722  0.0088  0.0812
 1009MOL0     C36090   2.479  -0.094  11.381 -0.4840 -0.2876  0.3285
 1009MOL0     C36091   2.446   0.045  11.331 -0.3476  0.0296  0.4738
 1009MOL0     C36092   2.560   0.143  11.359 -0.1491  0.2634 -0.6329
 1009MOL0     C36093   2.564   0.284  11.304 -0.1090 -0.1621  0.0610
 1009MOL0     C36094   2.665   0.373  11.384  0.0132  0.3404 -0.3154
 1009MOL0     C36095   2.636   0.391  11.529  0.5806 -0.3101 -0.1314
 1009MOL0     C36096   2.713   0.506  11.600  0.0148 -0.2269  0.6619
 1009MOL0     N36097   2.695   0.497  11.744 -0.4671 -0.4884  0.0093
 1009MOL0     C36098   2.740   0.391  11.819  0.4550 -0.0833 -0.5743
 1009MOL0     C36099   2.698   0.420  11.946  0.7551 -0.0938  0.7479
 1009MOL0     C36100   2.710   0.323  12.061  0.5746 -0.4784  0.4235
 1009MOL0     C36101   2.576   0.292  12.132 -1.2049  0.0839 -0.3595
 1009MOL0     C36102   2.467   0.237  12.039 -0.4756 -0.4731 -0.2598
 1009MOL0     C36103   2.335   0.286  12.097 -0.3470 -0.3913  0.5806
 1009MOL0     O36104   2.223   0.227  12.039  0.9580 -0.1833  0.0895
 1009MOL0     C36105   2.103   0.233  12.108  0.1910 -0.2848 -0.5860
 1009MOL0     C36106   2.086   0.299  12.233  0.0446  0.4904 -0.4869
 1009MOL0     C36107   1.970   0.276  12.310  0.9159 -0.0799 -0.5153
 1009MOL0     C36108   1.986   0.347  12.442 -0.2145  0.4882  0.5150
 1009MOL0     C36109   1.846   0.225  12.257 -0.0651  0.1873  0.1596
 1009MOL0     C36110   1.717   0.215  12.332  0.4411 -0.4800  0.7772
 1009MOL0     O36111   1.616   0.145  12.269 -0.4908 -0.3714 -0.4040
 1009MOL0     C36112   1.513   0.102  12.340 -0.4336  0.3218 -1.0581
 1009MOL0     C36113   1.396   0.174  12.326 -0.3158 -0.1640 -0.0459
 1009MOL0     C36114   1.295   0.152  12.420  0.5146  0.6264 -0.4021
 1009MOL0     C36115   1.313   0.052  12.516 -0.1941 -0.0880 -0.3252
 1009MOL0     O36116   1.221   0.033  12.619 -0.2245 -0.0025 -0.2131
 1009MOL0     C36117   1.155  -0.100  12.626 -0.4764 -0.3634 -0.1288
 1009MOL0     C36118   1.006  -0.070  12.641  0.3033  0.1922  0.3587
 1009MOL0     C36119   0.919  -0.196  12.641  0.4332 -0.0571  0.4002
 1009MOL0     C36120   0.767  -0.165  12.652 -0.5319 -0.0044 -0.0242
 1009MOL0     C36121   0.680  -0.288  12.603  0.1272 -0.6521  0.5313
 1009MOL0     C36122   0.529  -0.252  12.611 -0.0460  0.2159 -0.4156
 1009MOL0     C36123   0.450  -0.383  12.569 -0.5500 -0.1705 -0.0951
 1009MOL0     C36124   0.299  -0.375  12.571  0.6039 -0.4006 -0.0514
 1009MOL0    Cl36125   0.238  -0.232  12.483 -0.0637 -0.1419 -0.3572
 1009MOL0     C36126   1.418  -0.037  12.503  0.2590 -0.2264 -0.0218
 1009MOL0     C36127   1.524  -0.011  12.421  0.1811 -0.7255  0.9817
 1009MOL0     O36128   1.721   0.272  12.440  0.5705  0.6961  0.7306
 1009MOL0     C36129   1.861   0.170  12.121 -0.2686  0.4177 -0.5853
 1009MOL0     C36130   1.992   0.167  12.059  0.3277  0.2237  0.0524
 1009MOL0     N36131   2.623   0.528  11.947  0.6560  1.0169  0.1938
 1009MOL0     N36132   2.616   0.573  11.823  0.4950 -0.9797  0.8136
 1009MOL0     C36133   2.228  -0.133  11.043 -0.2330  0.6025 -0.6609
 1009MOL0     C36134   2.118  -0.107  10.975 -0.1836  0.2833  0.1467
 1009MOL0     C36135   1.729   0.091  10.900 -0.3016 -0.1049  0.4476
 1009MOL0     C36136   1.719   0.057  10.765 -0.1583  0.0979 -0.2622
 1009MOL0     C36137   1.621   0.112  10.685  0.0570  0.3682  0.3513
 1009MOL0     C36138   1.528   0.208  10.731  0.6601  0.5461 -0.0603
 1009MOL0     O36139   1.438   0.291  10.662  1.0004 -0.2035  0.3877
 1009MOL0     C36140   1.405   0.256  10.525  0.1709  0.2853 -0.4382
 1009MOL0     C36141   1.299   0.349  10.468  0.5584 -1.2892 -0.0219
 1009MOL0     C36142   1.152   0.338  10.516 -0.8625  1.6000  0.2251
 1009MOL0     C36143   1.053   0.446  10.490 -0.0092  0.3032  0.4065
 1009MOL0     C36144   1.022   0.485  10.355 -0.1921  0.7416  0.4334
 1009MOL0     C36145   0.992   0.517  10.239 -0.3186  0.9746  0.5098
 1009MOL0     C36146   1.533   0.229  10.868  0.0542  0.3512  0.5339
 1009MOL0     C36147   1.630   0.175  10.952  0.0161  0.5958  0.5209
 1009MOL0     H36148   1.892  -0.154  11.233 -2.0139  4.5995 -4.2549
 1009MOL0     H36149   2.112  -0.222  11.342  2.7099  2.3865  1.1524
 1009MOL0     H36150   2.267  -0.133  11.414  0.8054  1.0619  1.4503
 1009MOL0     H36151   2.377  -0.268  11.431 -0.8615 -0.4157 -0.3493
 1009MOL0     H36152   2.525  -0.079  11.479 -1.5112 -3.3857  1.3768
 1009MOL0     H36153   2.552  -0.124  11.305 -0.8455  0.9464 -0.5429
 1009MOL0     H36154   2.429   0.040  11.223  3.3941 -0.9363 -0.1933
 1009MOL0     H36155   2.356   0.087  11.378 -0.5317 -0.8028  0.8902
 1009MOL0     H36156   2.572   0.147  11.468  3.6601  2.7966 -0.9500
 1009MOL0     H36157   2.647   0.090  11.319  0.3453  0.7583 -0.2356
 1009MOL0     H36158   2.607   0.282  11.204  4.2829  1.9818  1.6556
 1009MOL0     H36159   2.461   0.320  11.311  0.3995  1.3154  0.2932
 1009MOL0     H36160   2.764   0.333  11.359 -0.1123  0.0541 -0.3628
 1009MOL0     H36161   2.657   0.471  11.337 -0.6053  0.9518  1.0275
 1009MOL0     H36162   2.528   0.404  11.538  0.1738 -0.6268 -3.2671
 1009MOL0     H36163   2.662   0.295  11.574 -0.8888 -0.2405  0.9353
 1009MOL0     H36164   2.674   0.602  11.564 -1.6273 -1.5884 -1.4636
 1009MOL0     H36165   2.820   0.500  11.578 -0.2212 -1.4063 -0.2885
 1009MOL0     H36166   2.787   0.297  11.791  1.6643  0.5300 -0.6599
 1009MOL0     H36167   2.752   0.231  12.019 -0.4744 -0.9445  0.3796
 1009MOL0     H36168   2.777   0.354  12.142 -0.9334  1.3739  1.0320
 1009MOL0     H36169   2.547   0.376  12.196  0.2448  1.1890 -1.0883
 1009MOL0     H36170   2.596   0.210  12.201 -2.2497  0.6779  0.6754
 1009MOL0     H36171   2.461   0.128  12.035  2.9297 -0.8688  1.9934
 1009MOL0     H36172   2.460   0.277  11.938 -0.6001 -2.2879 -1.0183
 1009MOL0     H36173   2.333   0.393  12.077 -0.9644 -0.3465  0.8396
 1009MOL0     H36174   2.336   0.271  12.206  2.1020 -0.9846  0.5264
 1009MOL0     H36175   2.168   0.361  12.268  0.5695 -1.6937  2.6996
 1009MOL0     H36176   2.087   0.388  12.453  0.2515  0.2617 -2.2035
 1009MOL0     H36177   1.913   0.429  12.443 -0.3196  0.4696 -1.6445
 1009MOL0     H36178   1.971   0.273  12.521  0.4841  0.0768  0.2719
 1009MOL0     H36179   1.387   0.259  12.259 -1.4034  0.9989  1.5013
 1009MOL0     H36180   1.214   0.225  12.418  1.5119  1.7579 -0.5820
 1009MOL0     H36181   1.189  -0.159  12.540  0.3334 -1.0715  0.6450
 1009MOL0     H36182   1.192  -0.143  12.720  1.3587  2.6582  0.6664
 1009MOL0     H36183   0.991  -0.006  12.728  4.8059  2.6297 -0.3525
 1009MOL0     H36184   0.971  -0.016  12.552 -0.1150 -0.2255  0.2667
 1009MOL0     H36185   0.954  -0.261  12.721 -0.9786 -0.5143  0.6760
 1009MOL0     H36186   0.933  -0.258  12.551 -1.3346 -3.8431  2.4860
 1009MOL0     H36187   0.737  -0.139  12.754  2.3053 -2.7589  1.6703
 1009MOL0     H36188   0.735  -0.087  12.582 -0.1407  0.5755  0.4343
 1009MOL0     H36189   0.710  -0.379  12.656  3.3252 -0.2463 -0.3780
 1009MOL0     H36190   0.698  -0.293  12.496  1.3362  3.7798  0.3367
 1009MOL0     H36191   0.511  -0.227  12.716  0.1642 -0.3366 -0.2475
 1009MOL0     H36192   0.511  -0.167  12.544  3.5475  0.4688 -1.2875
 1009MOL0     H36193   0.485  -0.462  12.635  0.2373  1.0202  0.9713
 1009MOL0     H36194   0.481  -0.405  12.467  0.5047 -2.1725  0.5995
 1009MOL0     H36195   0.277  -0.368  12.678 -0.6520  2.0435 -0.4105
 1009MOL0     H36196   0.259  -0.468  12.530  2.6810 -1.8425  1.0234
 1009MOL0     H36197   1.423  -0.118  12.576 -0.1198  1.1329  1.5702
 1009MOL0     H36198   1.613  -0.073  12.419  1.0947  0.5583 -0.6386
 1009MOL0     H36199   1.779   0.121  12.069 -0.0302 -1.0056  0.3366
 1009MOL0     H36200   1.991   0.121  11.961 -1.9591 -2.6081  1.2554
 1009MOL0     H36201   2.320  -0.124  10.987 -0.8100  2.6808 -1.4036
 1009MOL0     H36202   2.127  -0.078  10.871  2.4142 -1.3772 -0.1688
 1009MOL0     H36203   1.793  -0.005  10.716 -0.9444  0.3154 -1.8142
 1009MOL0     H36204   1.609   0.094  10.579 -2.6369 -0.2163  0.6785
 1009MOL0     H36205   1.498   0.242  10.471  1.0678 -0.7714  1.2891
 1009MOL0     H36206   1.355   0.159  10.532 -0.2663  0.6099  1.5797
 1009MOL0     H36207   1.299   0.339  10.359 -0.9151 -1.5109 -0.0177
 1009MOL0     H36208   1.327   0.455  10.475 -0.5973 -0.9227 -0.5344
 1009MOL0     H36209   1.169   0.317  10.622  2.5928 -1.0652 -0.6726
 1009MOL0     H36210   1.123   0.245  10.466  4.2249  0.1863 -0.6731
 1009MOL0     H36211   1.083   0.537  10.545 -0.9385  0.0766  1.3198
 1009MOL0     H36212   0.964   0.404  10.538  1.4392 -0.9758  2.1232
 1009MOL0     H36213   0.964   0.541  10.139 -0.3886 -2.3073 -0.3480
 1009MOL0     H36214   1.466   0.305  10.907 -0.5201 -0.5464  1.3288
 1009MOL0     H36215   1.639   0.208  11.055 -1.9681 -1.3604  1.4065
 1010MOL0     O36216   3.964  11.109   9.746  0.0793 -0.5545  0.2421
 1010MOL0     C36217   3.900  11.119   9.634 -0.5394  0.2379  0.2361
 1010MOL0     O36218   3.763  11.094   9.624 -0.2905  0.0403  0.1162
 1010MOL0     C36219   3.684  11.070   9.736 -0.4969  0.1493  0.2717
 1010MOL0     C36220   3.691  10.948   9.801  0.1318  0.2252  0.3345
 1010MOL0     C36221   3.632  10.947   9.927  0.1047 -0.5939 -0.0917
 1010MOL0     C36222   3.538  11.037   9.972  0.4258  0.2605 -0.8634
 1010MOL0     O36223   3.467  11.023  10.086 -0.8411  0.3670  0.4437
 1010MOL0     C36224   3.439  10.887  10.128  0.6510  0.1010  0.0060
 1010MOL0     C36225   3.379  10.888  10.271  0.4367 -0.0322 -0.0610
 1010MOL0     C36226   3.222  10.929  10.274  0.4964 -0.7877  0.1200
 1010MOL0     C36227   3.158  10.919  10.407  0.5584  0.1506  0.7464
 1010MOL0     C36228   3.006  10.914  10.401 -0.0040 -0.1338 -0.0205
 1010MOL0     C36229   2.960  11.067  10.382 -0.5010  0.4269 -0.0134
 1010MOL0     C36230   2.965  11.169  10.493 -1.0462 -0.5197 -0.0654
 1010MOL0     C36231   2.951  11.323  10.453  0.7025  0.2363  0.2604
 1010MOL0     N36232   2.812  11.352  10.428  0.1081 -0.7222  0.0019
 1010MOL0     C36233   2.728  11.305  10.329  0.4826  0.8696 -0.4223
 1010MOL0     C36234   2.598  11.336  10.365 -0.0082 -0.2674 -1.1704
 1010MOL0     C36235   2.475  11.308  10.284 -0.1369 -0.4212  0.4476
 1010MOL0     C36236   2.373  11.221  10.350 -0.7384 -0.5209 -0.0685
 1010MOL0     C36237   2.282  11.307  10.437  0.3578  1.0151 -0.7192
 1010MOL0     C36238   2.165  11.231  10.498 -0.5372 -0.2284 -0.2102
 1010MOL0     O36239   2.082  11.171  10.398 -0.0891  0.8045 -0.4744
 1010MOL0     C36240   1.964  11.242  10.383 -0.1195  0.0106  0.7231
 1010MOL0     C36241   1.871  11.168  10.326  0.7379  0.3568 -0.8255
 1010MOL0     C36242   1.752  11.216  10.283  0.3247 -0.1481 -1.0172
 1010MOL0     C36243   1.652  11.125  10.204 -0.4269  0.1570 -0.2336
 1010MOL0     C36244   1.717  11.349  10.318  0.3513  0.2892 -0.1403
 1010MOL0     C36245   1.580  11.408  10.296  0.1712  0.6143 -0.4191
 1010MOL0     O36246   1.476  11.332  10.346 -0.5409  1.3966  0.3575
 1010MOL0     C36247   1.348  11.358  10.299 -0.5099 -0.2078  0.2155
 1010MOL0     C36248   1.253  11.324  10.395  1.0366  0.1202 -0.1686
 1010MOL0     C36249   1.125  11.357  10.375  0.8432  0.4665 -0.2738
 1010MOL0     C36250   1.074  11.411  10.251  0.2788 -0.4446 -0.9313
 1010MOL0     O36251   0.940  11.456  10.221 -1.2577  0.3556 -0.7820
 1010MOL0     C36252   0.833  11.417  10.309 -1.0982 -0.8059 -0.1063
 1010MOL0     C36253   0.704  11.458  10.252  0.2716 -0.7882 -0.2337
 1010MOL0     C36254   0.674  11.417  10.113  0.5114 -0.3573 -0.2421
 1010MOL0     C36255   0.546  11.336  10.105  0.3515 -0.0174  0.6080
 1010MOL0     C36256   0.569  11.197  10.172  0.9596 -0.9010  0.4527
 1010MOL0     C36257   0.646  11.111  10.070  0.1360  0.4794 -0.5877
 1010MOL0     C36258   0.661  10.981  10.148  0.3614  0.3277  0.4841
 1010MOL0     C36259   0.719  10.871  10.048  0.2093  0.1775  0.2276
 1010MOL0    Cl36260   0.689  10.703  10.101 -0.2484  0.2208  0.0076
 1010MOL0     C36261   1.171  11.418  10.152  0.7043  0.7308  0.5673
 1010MOL0     C36262   1.305  11.397  10.173  0.0722 -0.3511 -0.1539
 1010MOL0     O36263   1.565  11.525  10.252  0.4693  0.1064 -0.6663
 1010MOL0     C36264   1.813  11.430  10.385 -0.0327 -0.2454  1.0239
 1010MOL0     C36265   1.939  11.379  10.406 -0.2775 -0.5232  0.2066
 1010MOL0     N36266   2.608  11.400  10.489  0.3269  0.2291  0.1419
 1010MOL0     N36267   2.737  11.421  10.514  1.0452 -0.2612 -0.2715
 1010MOL0     C36268   3.506  11.143   9.893  0.6958  0.1653  0.5074
 1010MOL0     C36269   3.576  11.158   9.772  0.6584  0.7550  0.2012
 1010MOL0     C36270   3.979  11.111   9.512  0.0765 -0.3254  0.1263
 1010MOL0     C36271   4.102  11.177   9.504  0.2686 -0.5882  0.0954
 1010MOL0     C36272   4.186  11.176   9.389  0.4776  0.1312 -0.1434
 1010MOL0     C36273   4.133  11.107   9.280  0.7607  0.3062  0.1474
 1010MOL0     O36274   4.195  11.101   9.159  0.0812 -0.4119 -0.0869
 1010MOL0     C36275   4.308  11.196   9.133 -0.1496  0.5169 -0.4846
 1010MOL0     C36276   4.379  11.175   8.998  0.3769  0.7793 -0.6190
 1010MOL0     C36277   4.517  11.246   9.006 -0.7229 -0.3344 -0.1202
 1010MOL0     C36278   4.608  11.216   8.890  0.3512  0.7613 -0.7457
 1010MOL0     C36279   4.735  11.292   8.907  0.3804  0.5947  0.1432
 1010MOL0     C36280   4.833  11.358   8.912 -1.0657  0.9734 -0.1070
 1010MOL0     C36281   4.004  11.033   9.292  0.2843  0.0487  0.4913
 1010MOL0     C36282   3.930  11.041   9.413 -0.4521  0.2028  0.5966
 1010MOL0     H36283   3.752  10.866   9.763  0.3538 -0.6324  2.3614
 1010MOL0     H36284   3.662  10.867   9.994  0.1911  0.6645  1.4271
 1010MOL0     H36285   3.360  10.847  10.065  3.0598  0.0088 -3.2137
 1010MOL0     H36286   3.526  10.821  10.134 -0.8548 -1.8205  2.8838
 1010MOL0     H36287   3.387  10.788  10.314 -0.4253 -0.3648 -0.6403
 1010MOL0     H36288   3.428  10.955  10.342  1.5864 -3.4367  2.6385
 1010MOL0     H36289   3.204  11.030  10.236 -1.4476 -0.4117  1.8672
 1010MOL0     H36290   3.173  10.854  10.212 -2.8850  0.8954  0.5137
 1010MOL0     H36291   3.178  10.818  10.443  0.4084 -0.3456 -0.5159
 1010MOL0     H36292   3.203  10.995  10.471  0.7034  1.1087 -0.4522
 1010MOL0     H36293   2.968  10.846  10.325 -0.1223 -2.2750  1.8617
 1010MOL0     H36294   2.968  10.863  10.490 -2.6893 -0.6064 -1.3417
 1010MOL0     H36295   3.013  11.108  10.296  0.3287  3.5834  1.8640
 1010MOL0     H36296   2.853  11.058  10.359  0.2123  0.4657 -3.9389
 1010MOL0     H36297   2.894  11.146  10.573  0.7802  0.9920  2.1101
 1010MOL0     H36298   3.062  11.167  10.544 -0.8791  0.5876 -0.3332
 1010MOL0     H36299   2.998  11.350  10.358  0.8330  2.0745  0.8146
 1010MOL0     H36300   2.992  11.396  10.523  2.0363 -1.8344  1.7689
 1010MOL0     H36301   2.752  11.249  10.239 -2.0741 -0.0027 -0.6401
 1010MOL0     H36302   2.444  11.411  10.266  3.9836  0.7929 -0.8467
 1010MOL0     H36303   2.506  11.263  10.189  0.1099  1.9380 -0.6518
 1010MOL0     H36304   2.413  11.140  10.410 -2.0760 -2.8814 -2.1765
 1010MOL0     H36305   2.310  11.172  10.274  0.6464 -1.9342 -0.3488
 1010MOL0     H36306   2.234  11.388  10.382  0.5933  1.9046  0.3508
 1010MOL0     H36307   2.340  11.350  10.520 -0.2178  3.5606 -1.5438
 1010MOL0     H36308   2.112  11.310  10.552 -0.9614  0.5772 -1.7401
 1010MOL0     H36309   2.204  11.158  10.569 -0.7152  0.0054  0.1365
 1010MOL0     H36310   1.893  11.063  10.311 -0.7196 -0.1698  0.5793
 1010MOL0     H36311   1.585  11.182  10.138 -0.1871  0.1864 -0.4541
 1010MOL0     H36312   1.714  11.052  10.152  0.0318 -3.8540  5.1232
 1010MOL0     H36313   1.587  11.067  10.270 -0.1445 -0.4444 -0.4872
 1010MOL0     H36314   1.285  11.274  10.486  1.7410  1.0349  0.0945
 1010MOL0     H36315   1.054  11.348  10.456  2.3177  4.6673  1.7830
 1010MOL0     H36316   0.828  11.313  10.342 -0.9769  0.1457  3.2783
 1010MOL0     H36317   0.849  11.472  10.402  0.7325 -1.9874  0.3224
 1010MOL0     H36318   0.624  11.431  10.322 -0.5324 -1.3054 -1.3200
 1010MOL0     H36319   0.726  11.565  10.258  0.2997 -0.8177  0.3141
 1010MOL0     H36320   0.759  11.365  10.069  0.6583 -1.9710  1.8332
 1010MOL0     H36321   0.661  11.519  10.075 -0.0073  0.8507  2.9013
 1010MOL0     H36322   0.474  11.397  10.160 -0.5651 -1.3366  0.9397
 1010MOL0     H36323   0.517  11.317  10.001 -2.4253 -1.3775  1.5147
 1010MOL0     H36324   0.476  11.149  10.205  1.4432 -3.1525 -1.2116
 1010MOL0     H36325   0.634  11.206  10.259  1.0225  0.0285  0.3113
 1010MOL0     H36326   0.595  11.088   9.976  0.9216  0.4070 -0.9967
 1010MOL0     H36327   0.747  11.144  10.047  0.4939  0.5945  1.0237
 1010MOL0     H36328   0.565  10.948  10.188 -0.0534 -0.7488 -1.2910
 1010MOL0     H36329   0.735  10.994  10.228 -2.0604 -0.8879  3.1041
 1010MOL0     H36330   0.825  10.885  10.024 -0.0755  0.9781 -0.6018
 1010MOL0     H36331   0.675  10.882   9.949 -0.3019 -1.6721  0.2028
 1010MOL0     H36332   1.148  11.453  10.052  1.1143 -1.5592 -0.3875
 1010MOL0     H36333   1.362  11.405  10.081  0.3422 -0.5727 -0.0056
 1010MOL0     H36334   1.792  11.533  10.413  0.1800 -0.4531  1.9998
 1010MOL0     H36335   2.010  11.451  10.446  0.2345 -0.5347 -0.6544
 1010MOL0     H36336   3.436  11.221   9.921  0.1352  0.5817 -1.8402
 1010MOL0     H36337   3.563  11.246   9.710  0.4080  0.1176 -0.6766
 1010MOL0     H36338   4.138  11.240   9.585  0.9630  0.7966 -1.2434
 1010MOL0     H36339   4.276  11.237   9.396  1.7353 -1.3564 -2.1691
 1010MOL0     H36340   4.270  11.299   9.142  2.0369  1.4758 -1.4153
 1010MOL0     H36341   4.375  11.181   9.218 -3.5392  1.2203  2.5666
 1010MOL0     H36342   4.306  11.220   8.931 -1.4938 -1.8559 -0.5115
 1010MOL0     H36343   4.390  11.068   8.978  0.2222  0.6503 -0.0365
 1010MOL0     H36344   4.573  11.217   9.095  0.3678 -2.6190 -1.4711
 1010MOL0     H36345   4.491  11.352   9.011 -0.5955 -0.3083 -0.0380
 1010MOL0     H36346   4.555  11.235   8.796 -0.5740  0.0824 -0.3872
 1010MOL0     H36347   4.614  11.107   8.884  1.1485  0.7628 -0.1438
 1010MOL0     H36348   4.923  11.417   8.920 -1.3017  1.1830  1.2707
 1010MOL0     H36349   3.954  10.988   9.207  0.0764  2.1689 -0.5820
 1010MOL0     H36350   3.831  11.001   9.432 -0.7758  1.0877  0.8328
 1011MOL0     O36351   1.781   9.156   9.492 -0.9792  0.2293 -0.3286
 1011MOL0     C36352   1.741   9.206   9.595  0.0060 -0.5549 -0.6865
 1011MOL0     O36353   1.807   9.208   9.721 -0.0862  0.0442  0.1196
 1011MOL0     C36354   1.924   9.140   9.729 -0.4807  0.3512  0.3304
 1011MOL0     C36355   2.024   9.195   9.808 -0.0325  0.2466  0.3459
 1011MOL0     C36356   2.151   9.126   9.833 -0.5037  0.3742 -0.1110
 1011MOL0     C36357   2.181   8.996   9.772 -0.0053 -0.5333  0.0389
 1011MOL0     O36358   2.291   8.918   9.787  0.3122 -0.1503  0.7925
 1011MOL0     C36359   2.346   8.924   9.920  0.3943 -0.5729  0.0943
 1011MOL0     C36360   2.465   8.830   9.931 -0.4559 -0.5158 -0.1632
 1011MOL0     C36361   2.562   8.853  10.045  1.0655 -0.7696 -0.4635
 1011MOL0     C36362   2.683   8.757  10.047 -0.0185  0.2185 -0.4338
 1011MOL0     C36363   2.792   8.792  10.141 -0.8071 -0.6217 -0.3441
 1011MOL0     C36364   2.870   8.917  10.102  1.0358 -0.4952  0.3325
 1011MOL0     C36365   2.955   8.966  10.223  1.4635  0.6384  0.2793
 1011MOL0     C36366   3.018   9.101  10.198 -0.4494  0.5628 -1.0318
 1011MOL0     N36367   3.134   9.080  10.105  0.3635  0.0812 -0.6526
 1011MOL0     C36368   3.268   9.068  10.147  0.4703  0.6361  0.1776
 1011MOL0     C36369   3.334   9.047  10.031 -0.7215 -0.2673 -0.1833
 1011MOL0     C36370   3.482   9.023  10.013 -0.7757 -0.1283  0.0809
 1011MOL0     C36371   3.582   9.127  10.062 -1.0077 -0.4112  0.0153
 1011MOL0     C36372   3.617   9.217   9.937 -0.5788 -0.0910  0.3805
 1011MOL0     C36373   3.493   9.282   9.872 -0.3232  0.0948 -0.3638
 1011MOL0     O36374   3.467   9.389   9.963 -0.1839 -0.5864  0.0775
 1011MOL0     C36375   3.376   9.472   9.912  1.1538  0.0978  0.9068
 1011MOL0     C36376   3.245   9.443   9.926  0.0547  0.0855  0.9893
 1011MOL0     C36377   3.144   9.520   9.880  1.3656  0.0385 -0.4283
 1011MOL0     C36378   3.002   9.466   9.906 -0.5356  0.3054  0.7018
 1011MOL0     C36379   3.172   9.640   9.806  0.7256  0.0804 -0.2388
 1011MOL0     C36380   3.072   9.734   9.751  0.2408 -0.1885  0.2155
 1011MOL0     O36381   2.936   9.701   9.713  0.4610  0.3430  0.3719
 1011MOL0     C36382   2.838   9.797   9.718  0.7572  0.3360 -0.0604
 1011MOL0     C36383   2.791   9.840   9.591 -0.1199 -0.6852 -0.1319
 1011MOL0     C36384   2.705   9.956   9.596  0.2016 -0.1952  0.3580
 1011MOL0     C36385   2.676  10.027   9.716  0.3181  0.2302  0.4410
 1011MOL0     O36386   2.610  10.141   9.715  0.8887 -0.3368  0.2648
 1011MOL0     C36387   2.653  10.234   9.620  0.6997  1.0516  0.9488
 1011MOL0     C36388   2.810  10.260   9.627 -0.6148 -0.3698 -0.0313
 1011MOL0     C36389   2.864  10.327   9.761  0.8572 -0.2405 -0.1359
 1011MOL0     C36390   3.018  10.314   9.783 -0.9372  0.3257  0.2799
 1011MOL0     C36391   3.065  10.176   9.843  0.8343 -1.0001 -0.1907
 1011MOL0     C36392   3.209  10.182   9.876 -0.3201  0.5717 -0.0105
 1011MOL0     C36393   3.275  10.063   9.949  0.3489  0.3629  0.4822
 1011MOL0     C36394   3.416  10.096  10.010  0.6440  0.2658  0.3632
 1011MOL0    Cl36395   3.422  10.213  10.139  0.3315 -0.1547 -0.7219
 1011MOL0     C36396   2.724   9.982   9.831  0.4059 -0.1375  0.4645
 1011MOL0     C36397   2.788   9.849   9.835  0.6119  0.3531  0.5010
 1011MOL0     O36398   3.105   9.843   9.781  0.5846 -0.2426  0.6794
 1011MOL0     C36399   3.310   9.675   9.800 -0.1606 -0.2287 -0.2086
 1011MOL0     C36400   3.407   9.592   9.846 -0.0396  0.9879 -0.6838
 1011MOL0     N36401   3.242   9.031   9.929 -0.4962 -0.2136 -0.0284
 1011MOL0     N36402   3.125   9.066   9.970 -0.4991 -0.0024 -0.4288
 1011MOL0     C36403   2.074   8.942   9.692 -0.7082  1.1612  0.7425
 1011MOL0     C36404   1.946   9.008   9.674 -0.1326 -0.0675  0.7127
 1011MOL0     C36405   1.615   9.286   9.591  0.9794  0.8078  0.6832
 1011MOL0     C36406   1.596   9.398   9.678  0.0250  1.0287  0.3872
 1011MOL0     C36407   1.480   9.470   9.676  0.0392  0.8716 -0.5749
 1011MOL0     C36408   1.384   9.444   9.571 -0.1829  0.2363  0.2357
 1011MOL0     O36409   1.270   9.516   9.545  0.2700 -0.7821  0.4636
 1011MOL0     C36410   1.184   9.555   9.658  0.5399 -0.0609 -0.0435
 1011MOL0     C36411   1.063   9.620   9.591  0.3096 -0.7908  0.2262
 1011MOL0     C36412   0.943   9.648   9.687  0.1632 -0.4066  0.5085
 1011MOL0     C36413   0.842   9.749   9.631  0.6099  0.1954 -0.1826
 1011MOL0     C36414   0.766   9.689   9.521  0.3855 -0.1714  0.0651
 1011MOL0     C36415   0.702   9.643   9.432  0.1383 -0.2096  1.1189
 1011MOL0     C36416   1.416   9.348   9.467 -1.2096  0.4659  0.0086
 1011MOL0     C36417   1.528   9.259   9.483  0.2107 -0.1300  0.1201
 1011MOL0     H36418   2.009   9.292   9.852  3.2098  1.8647 -1.7323
 1011MOL0     H36419   2.228   9.169   9.897 -0.6991 -0.3423  0.6256
 1011MOL0     H36420   2.378   9.028   9.936  1.3040 -0.3055 -2.8829
 1011MOL0     H36421   2.271   8.912   9.998  0.2594 -0.5715 -0.0334
 1011MOL0     H36422   2.426   8.728   9.935 -0.4294 -0.5143  0.1526
 1011MOL0     H36423   2.517   8.830   9.835 -0.6973  1.9492 -0.3787
 1011MOL0     H36424   2.587   8.959  10.055  0.3449 -0.5007 -1.3404
 1011MOL0     H36425   2.495   8.838  10.130 -1.3671  1.1721 -1.9170
 1011MOL0     H36426   2.645   8.658  10.072 -2.6287  1.5716  1.5027
 1011MOL0     H36427   2.724   8.761   9.946 -0.2924 -0.0398 -0.5553
 1011MOL0     H36428   2.745   8.812  10.238  2.4607  3.1446  0.7599
 1011MOL0     H36429   2.866   8.712  10.152 -0.2468  0.0562  1.0457
 1011MOL0     H36430   2.935   8.904  10.014 -1.4816  1.5038 -1.9770
 1011MOL0     H36431   2.795   8.990  10.071  1.6196 -0.6002 -1.4382
 1011MOL0     H36432   2.889   8.968  10.310 -1.7176  0.4801 -1.9626
 1011MOL0     H36433   3.039   8.899  10.244  1.4838  1.2460  2.4073
 1011MOL0     H36434   3.068   9.137  10.288  2.4650 -3.0144 -1.0095
 1011MOL0     H36435   2.953   9.175  10.150 -1.3451 -0.8223 -2.0514
 1011MOL0     H36436   3.299   9.087  10.249  0.0120 -3.9214  1.3956
 1011MOL0     H36437   3.506   8.924  10.055  0.7429 -0.3682 -1.2431
 1011MOL0     H36438   3.511   9.002   9.910  0.9945  2.7330 -0.1094
 1011MOL0     H36439   3.670   9.083  10.110 -0.7917  1.5127  1.4938
 1011MOL0     H36440   3.545   9.189  10.144  0.7481  3.7230 -2.0477
 1011MOL0     H36441   3.671   9.160   9.860 -0.8729  0.3950 -0.1966
 1011MOL0     H36442   3.686   9.295   9.970  1.3186 -2.0961  1.4000
 1011MOL0     H36443   3.412   9.211   9.853  1.0122 -1.2583 -1.2133
 1011MOL0     H36444   3.526   9.322   9.776  2.1258 -1.0987 -0.1001
 1011MOL0     H36445   3.220   9.347   9.971 -0.9920 -0.6932 -1.1003
 1011MOL0     H36446   2.994   9.372   9.962 -2.4297 -0.7885 -1.2395
 1011MOL0     H36447   2.947   9.541   9.963 -2.4521 -0.8672  0.5190
 1011MOL0     H36448   2.942   9.462   9.814  1.2304 -1.1108 -0.4513
 1011MOL0     H36449   2.806   9.777   9.505 -2.6530 -0.4906 -0.7951
 1011MOL0     H36450   2.665   9.992   9.502  0.7608  1.5336  0.7430
 1011MOL0     H36451   2.624  10.190   9.524  1.7184  0.7724  0.7512
 1011MOL0     H36452   2.597  10.323   9.649  0.1878  0.9722  0.2247
 1011MOL0     H36453   2.865  10.168   9.606  0.3479  0.0564  0.5423
 1011MOL0     H36454   2.831  10.327   9.543 -3.6617  0.0923 -0.5346
 1011MOL0     H36455   2.815  10.290   9.852  1.3204  2.6870  1.4195
 1011MOL0     H36456   2.856  10.435   9.753  2.9474  0.1324  1.7580
 1011MOL0     H36457   3.066  10.321   9.685  4.5002  5.1554  2.7112
 1011MOL0     H36458   3.046  10.395   9.851 -2.0389  0.4470  0.6080
 1011MOL0     H36459   3.052  10.093   9.772  2.9205  0.2702 -2.1995
 1011MOL0     H36460   2.996  10.159   9.926  1.3325  1.4014  0.8010
 1011MOL0     H36461   3.263  10.208   9.785 -0.5073  3.0031  0.5134
 1011MOL0     H36462   3.225  10.278   9.925  0.5977  1.2617 -1.6203
 1011MOL0     H36463   3.282   9.990   9.869 -1.4698  1.6575 -0.9529
 1011MOL0     H36464   3.200  10.029  10.021  0.8554  1.1329  1.4030
 1011MOL0     H36465   3.479  10.120   9.923 -0.4120  2.6700  0.1767
 1011MOL0     H36466   3.446  10.003  10.059  1.7614  0.7220  0.5734
 1011MOL0     H36467   2.701  10.038   9.921 -2.0267  1.2087 -0.8707
 1011MOL0     H36468   2.818   9.811   9.932 -0.9875 -0.8801  0.5637
 1011MOL0     H36469   3.348   9.773   9.773 -1.2187 -0.2742 -2.0332
 1011MOL0     H36470   3.513   9.613   9.832 -0.0656  0.6134 -1.4443
 1011MOL0     H36471   2.077   8.839   9.659 -0.8059  1.4635 -0.2600
 1011MOL0     H36472   1.867   8.965   9.614  0.2974  1.5034 -1.0587
 1011MOL0     H36473   1.671   9.430   9.749 -0.6242  0.7339  1.2245
 1011MOL0     H36474   1.463   9.542   9.755 -0.8735 -0.7248  0.7368
 1011MOL0     H36475   1.144   9.467   9.709  2.2572 -1.1729 -0.5244
 1011MOL0     H36476   1.232   9.616   9.735  0.1800 -0.5090  0.5445
 1011MOL0     H36477   1.033   9.558   9.506  0.0256 -0.1759 -0.1292
 1011MOL0     H36478   1.094   9.718   9.555  1.5026 -1.3663 -0.3732
 1011MOL0     H36479   0.978   9.695   9.779 -0.6685  0.9758  0.1585
 1011MOL0     H36480   0.895   9.552   9.709 -0.6731 -0.2030 -0.3478
 1011MOL0     H36481   0.891   9.841   9.597  1.4185 -1.2156 -3.1216
 1011MOL0     H36482   0.768   9.763   9.710 -0.4894  0.4188 -1.2235
 1011MOL0     H36483   0.642   9.606   9.351 -3.1168  1.4561  2.5930
 1011MOL0     H36484   1.361   9.346   9.373 -0.2115  0.8639 -0.6037
 1011MOL0     H36485   1.546   9.165   9.431 -1.1673 -0.5403  0.3357
 1012MOL0     O36486   5.921   0.434   1.448  0.3509  0.6106 -0.2751
 1012MOL0     C36487   5.926   0.480   1.336 -0.2669  0.4316  0.4285
 1012MOL0     O36488   5.814   0.470   1.240  0.1820  0.3708 -0.5686
 1012MOL0     C36489   5.713   0.380   1.258 -0.1914  0.9551  0.2277
 1012MOL0     C36490   5.589   0.410   1.212  0.5176  0.2789 -0.8546
 1012MOL0     C36491   5.485   0.315   1.222  0.0859  0.4609  0.0734
 1012MOL0     C36492   5.511   0.191   1.294  0.5950  0.6803  0.1967
 1012MOL0     O36493   5.411   0.099   1.314  0.1725 -0.1208 -0.5640
 1012MOL0     C36494   5.298   0.095   1.220  0.3642  0.3263  0.7442
 1012MOL0     C36495   5.209  -0.030   1.239  0.4864  0.0811 -0.3232
 1012MOL0     C36496   5.091  -0.006   1.145 -0.3175 -0.7489  0.1168
 1012MOL0     C36497   4.985  -0.121   1.129 -0.6230  0.0612 -0.1855
 1012MOL0     C36498   4.852  -0.097   1.051  0.2069  0.1485  0.1002
 1012MOL0     C36499   4.763  -0.217   1.048  0.2348 -0.0113 -0.0253
 1012MOL0     C36500   4.617  -0.183   1.033  0.2038  0.6589 -0.4696
 1012MOL0     C36501   4.580  -0.139   0.896 -0.0269  0.1813  0.1278
 1012MOL0     N36502   4.455  -0.056   0.907  0.1613  0.1298  0.1873
 1012MOL0     C36503   4.449   0.076   0.944  0.1433  0.3002 -0.4172
 1012MOL0     C36504   4.317   0.104   0.946 -0.0979  0.3227  0.5293
 1012MOL0     C36505   4.266   0.239   0.979  0.1986 -0.7066 -0.3502
 1012MOL0     C36506   4.124   0.233   1.036  0.0451  0.5304  1.1014
 1012MOL0     C36507   4.059   0.373   1.010  0.4715  0.6951 -0.5905
 1012MOL0     C36508   3.920   0.364   1.075 -0.2109 -0.4789 -0.0502
 1012MOL0     O36509   3.821   0.303   0.985  0.1757  0.2190  0.4678
 1012MOL0     C36510   3.695   0.259   1.033 -0.0789 -0.0790  0.6486
 1012MOL0     C36511   3.635   0.318   1.142  0.5887 -0.5725 -0.1201
 1012MOL0     C36512   3.511   0.280   1.184  0.1293  0.3630 -0.6181
 1012MOL0     C36513   3.447   0.368   1.296 -0.3626  0.5466  0.0228
 1012MOL0     C36514   3.446   0.172   1.125  0.4536  0.3329 -0.7860
 1012MOL0     C36515   3.317   0.110   1.162  0.1240  0.4784  0.1358
 1012MOL0     O36516   3.307  -0.028   1.148  0.7501 -0.8022 -0.0992
 1012MOL0     C36517   3.183  -0.083   1.119 -0.3939 -0.2739 -0.3417
 1012MOL0     C36518   3.181  -0.166   1.009  0.3159 -0.3448  0.4655
 1012MOL0     C36519   3.051  -0.226   0.970  0.0583 -0.1778 -0.7118
 1012MOL0     C36520   2.936  -0.224   1.061 -0.4376  0.0188  0.3842
 1012MOL0     O36521   2.825  -0.297   1.038  0.1611  0.1712 -0.0986
 1012MOL0     C36522   2.722  -0.294   1.134  0.2190  0.5690 -0.0547
 1012MOL0     C36523   2.595  -0.357   1.086  0.7864 -0.0275  0.1400
 1012MOL0     C36524   2.565  -0.497   1.152 -0.8138  0.3101  0.2601
 1012MOL0     C36525   2.425  -0.549   1.136 -0.7659  0.5760 -0.5858
 1012MOL0     C36526   2.416  -0.693   1.168  0.3813  0.2401 -0.3315
 1012MOL0     C36527   2.489  -0.780   1.064 -0.1800 -0.6021  0.2251
 1012MOL0     C36528   2.438  -0.920   1.054 -0.1662  0.3160  0.5334
 1012MOL0     C36529   2.284  -0.938   1.027 -0.1002 -0.1507 -0.7555
 1012MOL0    Cl36530   2.249  -1.101   0.975 -0.2894 -0.0362  0.1162
 1012MOL0     C36531   2.957  -0.148   1.185  0.5196  0.2888  0.3494
 1012MOL0     C36532   3.069  -0.071   1.207  0.2447 -0.2165  1.3476
 1012MOL0     O36533   3.224   0.184   1.185 -0.0316 -0.3620 -0.6099
 1012MOL0     C36534   3.510   0.108   1.020  0.4680 -0.4426  0.0555
 1012MOL0     C36535   3.635   0.149   0.974 -0.6647 -0.1068 -0.1213
 1012MOL0     N36536   4.242  -0.005   0.894 -0.5309 -0.1623  0.1654
 1012MOL0     N36537   4.333  -0.100   0.868  0.6703 -1.1230  0.1534
 1012MOL0     C36538   5.640   0.164   1.330  0.4355 -0.3312 -0.5074
 1012MOL0     C36539   5.744   0.251   1.308  0.6379 -0.6919  0.4871
 1012MOL0     C36540   6.056   0.531   1.292 -0.1752  0.1786 -0.0937
 1012MOL0     C36541   6.163   0.555   1.382  0.0093 -0.7760 -0.9417
 1012MOL0     C36542   6.286   0.602   1.339 -0.4229 -0.3002 -0.1577
 1012MOL0     C36543   6.307   0.617   1.207 -0.7332  0.0202 -0.2336
 1012MOL0     O36544   6.431   0.648   1.157 -0.3653  0.0016 -0.3790
 1012MOL0     C36545   6.514   0.536   1.118  0.5011 -0.4248  0.0532
 1012MOL0     C36546   6.506   0.526   0.968 -0.7216  0.5227 -0.4919
 1012MOL0     C36547   6.519   0.663   0.890  0.6979  0.6514  1.0165
 1012MOL0     C36548   6.470   0.647   0.739  0.1642  0.4811  0.4337
 1012MOL0     C36549   6.342   0.589   0.735  1.2422  0.0654  0.0267
 1012MOL0     C36550   6.231   0.531   0.730 -0.8860 -0.7219 -0.1956
 1012MOL0     C36551   6.203   0.608   1.116  0.1873 -0.5983 -0.1408
 1012MOL0     C36552   6.077   0.568   1.158  1.3018  0.0205  0.2216
 1012MOL0     H36553   5.573   0.498   1.150 -1.2414 -0.4994 -1.5946
 1012MOL0     H36554   5.390   0.344   1.179  0.3330  3.0522  1.0493
 1012MOL0     H36555   5.242   0.188   1.234 -1.1308 -0.8424  3.1618
 1012MOL0     H36556   5.332   0.087   1.117  1.0044 -4.0047  1.1268
 1012MOL0     H36557   5.269  -0.115   1.204  4.1047  1.6774  1.4930
 1012MOL0     H36558   5.192  -0.029   1.347 -0.1483 -0.5433 -0.4042
 1012MOL0     H36559   5.046   0.089   1.175  0.1503 -0.2407 -0.7360
 1012MOL0     H36560   5.129   0.005   1.043 -0.5775 -1.6852 -0.0868
 1012MOL0     H36561   5.036  -0.210   1.091  0.2652  0.8921 -1.0303
 1012MOL0     H36562   4.959  -0.143   1.232 -0.3198  0.5474 -0.0015
 1012MOL0     H36563   4.811  -0.014   1.109 -0.7443 -2.0605  2.8361
 1012MOL0     H36564   4.872  -0.076   0.945  3.2313 -0.5081  0.4521
 1012MOL0     H36565   4.789  -0.284   0.966  1.2695  2.9668 -2.2950
 1012MOL0     H36566   4.785  -0.273   1.140  1.0770  1.4110  0.6758
 1012MOL0     H36567   4.573  -0.279   1.061 -0.3280  1.8764  3.3420
 1012MOL0     H36568   4.594  -0.110   1.111 -1.1695  1.8018 -1.8828
 1012MOL0     H36569   4.564  -0.219   0.823  3.1178  1.8132 -2.6491
 1012MOL0     H36570   4.652  -0.066   0.857  1.9732 -1.8685 -0.2282
 1012MOL0     H36571   4.534   0.138   0.969  1.6418 -2.3611  1.5903
 1012MOL0     H36572   4.329   0.292   1.051 -0.2762  0.9997 -1.1262
 1012MOL0     H36573   4.258   0.300   0.888 -4.1634  0.8711  0.8332
 1012MOL0     H36574   4.115   0.192   1.137  0.9835 -1.4318  0.4435
 1012MOL0     H36575   4.067   0.177   0.961  0.2978  5.0074 -2.9118
 1012MOL0     H36576   4.047   0.385   0.902 -2.3415 -3.4247 -0.9742
 1012MOL0     H36577   4.124   0.446   1.059  1.8722 -0.7867 -0.1670
 1012MOL0     H36578   3.886   0.468   1.088 -0.9215 -0.3027 -2.7028
 1012MOL0     H36579   3.927   0.319   1.174 -2.6279  0.5121  0.6475
 1012MOL0     H36580   3.695   0.397   1.185  0.6926 -0.1862 -0.9670
 1012MOL0     H36581   3.523   0.396   1.370  0.5452  1.5841 -1.2588
 1012MOL0     H36582   3.402   0.455   1.247 -1.6711  0.2577  0.6820
 1012MOL0     H36583   3.366   0.317   1.350  1.6418  0.3762  3.1426
 1012MOL0     H36584   3.265  -0.166   0.941 -0.3585  2.3095 -0.4829
 1012MOL0     H36585   3.036  -0.276   0.874  0.3847 -0.2137 -0.7453
 1012MOL0     H36586   2.761  -0.339   1.226 -0.9105  0.5261  0.4214
 1012MOL0     H36587   2.691  -0.192   1.159 -0.0365 -0.1836  3.1819
 1012MOL0     H36588   2.510  -0.290   1.105  0.9515  0.2768 -0.1866
 1012MOL0     H36589   2.590  -0.374   0.978 -2.0262  0.0825  0.1577
 1012MOL0     H36590   2.581  -0.481   1.259 -1.5397  1.5602  0.2044
 1012MOL0     H36591   2.641  -0.561   1.107 -0.6443  1.9405 -1.8983
 1012MOL0     H36592   2.362  -0.493   1.206  1.2912  1.2758  0.7974
 1012MOL0     H36593   2.388  -0.539   1.033 -1.3131 -0.2022 -0.4770
 1012MOL0     H36594   2.311  -0.725   1.167  0.8282 -1.2933 -0.3230
 1012MOL0     H36595   2.452  -0.697   1.271 -0.4485 -0.7616 -0.0716
 1012MOL0     H36596   2.499  -0.734   0.965 -0.4702 -2.0733 -0.5101
 1012MOL0     H36597   2.590  -0.788   1.105 -0.6533 -4.0828  1.0024
 1012MOL0     H36598   2.449  -0.967   1.152 -0.5131 -0.3272  0.2724
 1012MOL0     H36599   2.499  -0.978   0.984 -0.8572  2.1386 -1.7282
 1012MOL0     H36600   2.247  -0.868   0.951 -0.1736  1.1383  0.4409
 1012MOL0     H36601   2.235  -0.919   1.123 -0.5199  0.4854 -1.0853
 1012MOL0     H36602   2.885  -0.142   1.267  0.1962 -1.1083  0.1869
 1012MOL0     H36603   3.067   0.003   1.286 -1.2089  1.9877 -0.5899
 1012MOL0     H36604   3.461   0.034   0.958 -0.6121  1.3640 -1.3445
 1012MOL0     H36605   3.683   0.107   0.886  0.0062 -0.5482  0.4440
 1012MOL0     H36606   5.644   0.060   1.361 -0.4098 -0.7292 -1.6326
 1012MOL0     H36607   5.846   0.218   1.328  1.0949  0.0924 -0.4775
 1012MOL0     H36608   6.146   0.533   1.486  2.3661  1.1758 -0.0396
 1012MOL0     H36609   6.366   0.620   1.409  0.8841  2.6023 -2.2125
 1012MOL0     H36610   6.616   0.559   1.149 -0.1319  1.1156  1.0591
 1012MOL0     H36611   6.483   0.441   1.163  0.3726  0.1722  1.2657
 1012MOL0     H36612   6.409   0.477   0.962  1.4728 -4.3040 -2.1508
 1012MOL0     H36613   6.586   0.459   0.934  1.3720  3.0846 -0.9797
 1012MOL0     H36614   6.624   0.694   0.880  1.6031 -2.7703 -2.8702
 1012MOL0     H36615   6.460   0.741   0.939  1.0575 -0.3623  3.1590
 1012MOL0     H36616   6.546   0.584   0.692 -0.7671 -1.6702  1.6732
 1012MOL0     H36617   6.470   0.743   0.687  1.2054  0.2637 -0.0008
 1012MOL0     H36618   6.134   0.487   0.735 -0.0173 -2.6306  1.0171
 1012MOL0     H36619   6.212   0.630   1.010  1.0395 -0.0111  0.0426
 1012MOL0     H36620   5.997   0.569   1.085 -0.3121 -1.3105  1.8800
 1013MOL0     O36621   0.589   3.339   0.980  0.2809  1.0213 -0.2007
 1013MOL0     C36622   0.657   3.427   1.015  0.0822 -0.2985 -0.0004
 1013MOL0     O36623   0.611   3.552   1.056  0.0167  0.2268  0.4309
 1013MOL0     C36624   0.479   3.563   1.047  0.1374 -0.5252 -0.1267
 1013MOL0     C36625   0.396   3.519   1.154  0.5857  0.5229 -0.0608
 1013MOL0     C36626   0.254   3.525   1.136 -0.5801  0.7772 -1.2012
 1013MOL0     C36627   0.195   3.579   1.023  0.1530 -0.1121  0.5206
 1013MOL0     O36628   0.058   3.599   1.010  0.5808 -0.1086 -0.1550
 1013MOL0     C36629  -0.027   3.593   0.889 -0.0776 -0.3040 -1.0501
 1013MOL0     C36630  -0.168   3.571   0.924  0.2250  0.3286  0.4358
 1013MOL0     C36631  -0.190   3.459   1.029 -0.3251  0.6024 -0.0617
 1013MOL0     C36632  -0.201   3.526   1.164 -0.5708  0.3017 -0.2001
 1013MOL0     C36633  -0.210   3.422   1.273 -0.5392  0.0265  1.1233
 1013MOL0     C36634  -0.093   3.319   1.284  0.1733  0.4370  0.5286
 1013MOL0     C36635  -0.103   3.243   1.417 -0.0345 -1.0866  0.2309
 1013MOL0     C36636  -0.210   3.143   1.443 -0.5179  0.9156 -0.9244
 1013MOL0     N36637  -0.206   3.092   1.590  0.7312 -0.7223  0.0442
 1013MOL0     C36638  -0.130   2.986   1.627 -0.0103  0.3091  0.2958
 1013MOL0     C36639  -0.199   2.940   1.735 -0.6806  0.2335  0.0790
 1013MOL0     C36640  -0.153   2.810   1.805  0.7811 -0.6857  0.3110
 1013MOL0     C36641  -0.283   2.741   1.862  0.8554 -0.3074  0.0174
 1013MOL0     C36642  -0.257   2.599   1.920  0.3928 -0.1978 -0.8676
 1013MOL0     C36643  -0.252   2.493   1.811 -0.0393 -0.8694  0.5573
 1013MOL0     O36644  -0.231   2.365   1.875  0.3840  0.3719 -0.4297
 1013MOL0     C36645  -0.328   2.309   1.959  0.1960  0.4086 -0.5121
 1013MOL0     C36646  -0.287   2.213   2.059 -0.0302  1.1049 -0.4602
 1013MOL0     C36647  -0.380   2.145   2.135  0.3762 -0.6782  0.4519
 1013MOL0     C36648  -0.322   2.040   2.224 -0.7245  0.0246  0.0657
 1013MOL0     C36649  -0.521   2.171   2.120  0.2400 -0.3188  0.0093
 1013MOL0     C36650  -0.627   2.095   2.185 -0.2742 -0.5569  0.3757
 1013MOL0     O36651  -0.747   2.128   2.130  0.0171  0.1947  0.1677
 1013MOL0     C36652  -0.862   2.096   2.202  0.0106 -0.6181 -0.0062
 1013MOL0     C36653  -0.894   1.964   2.229  1.1355 -0.6063 -0.2959
 1013MOL0     C36654  -1.012   1.919   2.297  0.5843  0.0538  0.5211
 1013MOL0     C36655  -1.108   2.015   2.330  0.2004  0.4007  1.2182
 1013MOL0     O36656  -1.227   1.979   2.389 -0.4493 -0.2141  0.5582
 1013MOL0     C36657  -1.352   2.042   2.336 -0.0851  1.2531  0.7785
 1013MOL0     C36658  -1.474   1.968   2.393  0.4816  0.0506  0.8606
 1013MOL0     C36659  -1.539   1.876   2.280  0.1169  0.2873 -1.2039
 1013MOL0     C36660  -1.684   1.832   2.314  0.0642  0.6466  0.7656
 1013MOL0     C36661  -1.749   1.729   2.222  0.4937 -0.1708 -0.1106
 1013MOL0     C36662  -1.890   1.693   2.256  0.4018  0.5790  0.3508
 1013MOL0     C36663  -1.960   1.608   2.152  0.3555  0.3757  1.6218
 1013MOL0     C36664  -2.098   1.559   2.176  0.0410  0.3789 -0.0616
 1013MOL0    Cl36665  -2.087   1.422   2.296 -0.0986 -0.0674 -0.0179
 1013MOL0     C36666  -1.074   2.155   2.309 -0.0396  0.2451  0.6846
 1013MOL0     C36667  -0.950   2.198   2.244 -0.0896 -0.6491 -0.7870
 1013MOL0     O36668  -0.606   2.041   2.293 -1.0232 -0.8684 -0.2935
 1013MOL0     C36669  -0.557   2.281   2.039 -0.2620 -0.2576  0.6078
 1013MOL0     C36670  -0.467   2.347   1.956  0.1299 -0.8270  0.2518
 1013MOL0     N36671  -0.314   3.011   1.755  0.6810 -0.1792 -0.1602
 1013MOL0     N36672  -0.316   3.113   1.671 -0.5551  0.1735  0.4365
 1013MOL0     C36673   0.289   3.627   0.924 -0.5290  0.6288 -0.4051
 1013MOL0     C36674   0.427   3.621   0.932 -0.1475  0.3462 -0.4014
 1013MOL0     C36675   0.798   3.390   1.039 -0.6052  0.5655 -0.6608
 1013MOL0     C36676   0.846   3.256   1.047 -0.4119 -0.4879 -0.2441
 1013MOL0     C36677   0.982   3.226   1.063  0.6400  0.4283 -0.0970
 1013MOL0     C36678   1.068   3.330   1.060 -0.2465  0.6175 -1.1161
 1013MOL0     O36679   1.204   3.307   1.072  0.1773  0.7302  0.1644
 1013MOL0     C36680   1.253   3.295   1.203  0.2249 -0.1908  0.1608
 1013MOL0     C36681   1.357   3.409   1.229  0.2924 -0.1094 -0.4139
 1013MOL0     C36682   1.493   3.380   1.149  1.3793 -0.2908 -0.1921
 1013MOL0     C36683   1.567   3.499   1.103 -0.8556 -0.3432 -0.1237
 1013MOL0     C36684   1.493   3.624   1.065  0.2515  0.0292 -0.3438
 1013MOL0     C36685   1.437   3.730   1.046  0.4474 -0.2990 -0.3668
 1013MOL0     C36686   1.016   3.465   1.066  1.0438  0.3351 -0.2210
 1013MOL0     C36687   0.885   3.496   1.063 -0.2929 -0.8905 -0.1396
 1013MOL0     H36688   0.444   3.501   1.250 -0.4301  1.3101  0.6101
 1013MOL0     H36689   0.197   3.504   1.226  2.0730 -1.3664  0.1192
 1013MOL0     H36690  -0.014   3.691   0.842 -0.2996  0.3042  0.1319
 1013MOL0     H36691   0.020   3.517   0.825  2.0423  0.2211 -0.1965
 1013MOL0     H36692  -0.203   3.669   0.958 -1.1326  1.0265 -2.6764
 1013MOL0     H36693  -0.229   3.563   0.834 -3.8946  0.2488  2.9730
 1013MOL0     H36694  -0.281   3.404   1.003  0.7128  0.2679 -3.4254
 1013MOL0     H36695  -0.108   3.387   1.033 -3.3925 -3.1667  1.0145
 1013MOL0     H36696  -0.115   3.590   1.186  0.0371 -1.3453  2.6829
 1013MOL0     H36697  -0.296   3.580   1.160 -1.3354 -0.5373  3.4112
 1013MOL0     H36698  -0.202   3.475   1.368 -0.8134  0.1765  1.0661
 1013MOL0     H36699  -0.311   3.380   1.263 -1.2671  1.8316  0.2642
 1013MOL0     H36700  -0.090   3.247   1.202  0.2266  1.0725 -0.0340
 1013MOL0     H36701   0.007   3.365   1.277  0.7707 -1.0041 -0.7943
 1013MOL0     H36702  -0.009   3.188   1.426  1.0036  0.5274 -0.3340
 1013MOL0     H36703  -0.119   3.318   1.495 -0.7425 -1.9688  0.9498
 1013MOL0     H36704  -0.190   3.064   1.370  3.0040 -0.4287  1.2084
 1013MOL0     H36705  -0.305   3.192   1.421 -1.1164  2.0738  3.3638
 1013MOL0     H36706  -0.047   2.932   1.581 -1.7476 -2.7533  0.4928
 1013MOL0     H36707  -0.107   2.743   1.731  0.2908 -1.1511  0.4241
 1013MOL0     H36708  -0.074   2.836   1.876  1.7749 -0.4691 -0.8392
 1013MOL0     H36709  -0.356   2.730   1.782 -0.6366  2.2289  0.9105
 1013MOL0     H36710  -0.324   2.807   1.939 -1.5104  0.1583 -1.5313
 1013MOL0     H36711  -0.327   2.586   2.003  0.9815  1.8415  0.0151
 1013MOL0     H36712  -0.157   2.609   1.962  0.2022  1.1291 -0.7063
 1013MOL0     H36713  -0.175   2.511   1.736  1.1374  0.8479  2.0739
 1013MOL0     H36714  -0.341   2.495   1.748  1.8487  0.5234 -2.2732
 1013MOL0     H36715  -0.182   2.201   2.083  0.4003  0.8449 -2.3274
 1013MOL0     H36716  -0.333   2.075   2.327 -1.1082  3.6468 -1.0627
 1013MOL0     H36717  -0.377   1.947   2.207 -0.3680  0.2574 -2.8405
 1013MOL0     H36718  -0.218   2.017   2.200 -1.1042 -0.5565 -1.0992
 1013MOL0     H36719  -0.820   1.890   2.200  0.2888 -1.7602  0.3899
 1013MOL0     H36720  -1.028   1.814   2.316 -0.5290  0.2589  0.8112
 1013MOL0     H36721  -1.350   2.149   2.358  2.3677  1.3896  0.1778
 1013MOL0     H36722  -1.346   2.035   2.227 -2.7014  1.6343  0.5433
 1013MOL0     H36723  -1.450   1.906   2.480 -2.0102 -0.7437  1.0856
 1013MOL0     H36724  -1.557   2.033   2.425 -2.7012 -3.5039  0.5507
 1013MOL0     H36725  -1.487   1.780   2.281 -0.5882 -0.1406  1.2331
 1013MOL0     H36726  -1.537   1.921   2.180 -0.7664  5.3094  0.7258
 1013MOL0     H36727  -1.686   1.784   2.412 -2.3490 -0.5253  0.2368
 1013MOL0     H36728  -1.752   1.917   2.314 -2.5306 -1.2392 -1.1102
 1013MOL0     H36729  -1.697   1.636   2.196 -2.5126 -1.2327 -2.9375
 1013MOL0     H36730  -1.743   1.783   2.127  0.3354  0.6446  0.3340
 1013MOL0     H36731  -1.904   1.657   2.359  0.1076 -0.0892  0.0812
 1013MOL0     H36732  -1.945   1.787   2.250 -1.5534 -0.5224  0.2507
 1013MOL0     H36733  -1.891   1.526   2.128 -0.5787  0.6184 -2.7793
 1013MOL0     H36734  -1.968   1.675   2.066 -2.7768  0.0465  1.5684
 1013MOL0     H36735  -2.147   1.530   2.083 -1.1137  0.2460  0.5639
 1013MOL0     H36736  -2.151   1.652   2.200  0.8379  1.7296 -3.0624
 1013MOL0     H36737  -1.138   2.228   2.358  3.3278  2.1710  2.5504
 1013MOL0     H36738  -0.919   2.302   2.237  2.1227 -1.2076 -0.0534
 1013MOL0     H36739  -0.659   2.315   2.037 -0.7813 -1.7502  0.3695
 1013MOL0     H36740  -0.503   2.413   1.877  1.0577 -0.3093  0.2533
 1013MOL0     H36741   0.241   3.673   0.838 -1.8582  1.0594  0.5337
 1013MOL0     H36742   0.495   3.658   0.855  1.0180 -1.8996 -0.5466
 1013MOL0     H36743   0.777   3.173   1.050 -0.6755 -0.3824 -1.9880
 1013MOL0     H36744   1.003   3.121   1.082 -3.7052 -0.5411  0.2527
 1013MOL0     H36745   1.171   3.292   1.274  0.0640  2.2823  0.1440
 1013MOL0     H36746   1.317   3.206   1.204  1.0494  0.3167 -1.8566
 1013MOL0     H36747   1.377   3.421   1.336 -1.4594 -3.3073  0.3893
 1013MOL0     H36748   1.312   3.503   1.196  0.1545  0.6914  1.8531
 1013MOL0     H36749   1.461   3.333   1.056 -1.8200 -0.3759  0.8179
 1013MOL0     H36750   1.547   3.303   1.205 -0.4986 -0.4411  1.5262
 1013MOL0     H36751   1.637   3.483   1.020  0.4778  0.2419  0.8534
 1013MOL0     H36752   1.614   3.540   1.193  0.4660  0.1331 -0.9931
 1013MOL0     H36753   1.372   3.815   1.033  1.3927  0.4531 -0.2999
 1013MOL0     H36754   1.095   3.540   1.065  2.3891 -1.0096 -1.8059
 1013MOL0     H36755   0.858   3.601   1.066  1.1342 -0.5235  0.4446
 1014MOL0     O36756   4.852   1.502   8.714 -0.5507  0.0200  1.1076
 1014MOL0     C36757   4.853   1.398   8.642 -0.1919 -1.0431 -0.7715
 1014MOL0     O36758   4.794   1.287   8.678  0.2838  0.3203 -0.8360
 1014MOL0     C36759   4.741   1.269   8.805  0.4833  0.3177 -0.7785
 1014MOL0     C36760   4.736   1.137   8.838  0.5948 -0.0502 -0.3386
 1014MOL0     C36761   4.692   1.094   8.959  0.4631 -0.2385 -0.5541
 1014MOL0     C36762   4.655   1.189   9.060  0.0238  0.2870 -1.3075
 1014MOL0     O36763   4.618   1.132   9.178  0.3305  0.0407  0.3914
 1014MOL0     C36764   4.583   1.219   9.294 -0.4037  0.5685 -0.0995
 1014MOL0     C36765   4.432   1.235   9.323 -0.2337 -0.2656 -0.7918
 1014MOL0     C36766   4.359   1.335   9.240  0.1157 -0.6103 -0.2870
 1014MOL0     C36767   4.362   1.465   9.316  0.2147 -0.5762  0.1736
 1014MOL0     C36768   4.263   1.560   9.262  0.2746  0.7445 -0.3186
 1014MOL0     C36769   4.262   1.585   9.115  0.4171 -0.6187  0.3713
 1014MOL0     C36770   4.176   1.705   9.067 -0.2257 -0.3659  0.5370
 1014MOL0     C36771   4.039   1.649   9.040 -0.6601 -0.0965 -0.2433
 1014MOL0     N36772   3.953   1.600   9.143  0.6540  0.6030 -0.1233
 1014MOL0     C36773   3.941   1.640   9.273  0.4098  0.2711  0.0009
 1014MOL0     C36774   3.864   1.557   9.348 -0.3306  0.8531 -0.3190
 1014MOL0     C36775   3.813   1.569   9.491 -0.4767 -0.4970 -0.5106
 1014MOL0     C36776   3.710   1.676   9.501 -0.2379 -0.1680 -0.7864
 1014MOL0     C36777   3.577   1.629   9.439 -0.5312 -0.0829 -0.3796
 1014MOL0     C36778   3.531   1.501   9.504 -0.0288  0.4309  0.2997
 1014MOL0     O36779   3.388   1.493   9.481 -0.4767  0.3156  0.1197
 1014MOL0     C36780   3.296   1.538   9.564 -0.4812 -0.1196  0.1138
 1014MOL0     C36781   3.315   1.623   9.677 -1.1683  0.9920  0.5795
 1014MOL0     C36782   3.209   1.651   9.770  0.2485 -0.4100  0.0604
 1014MOL0     C36783   3.245   1.749   9.878 -0.3857  0.3551  0.3559
 1014MOL0     C36784   3.080   1.605   9.734  0.1224  0.6762 -0.0904
 1014MOL0     C36785   2.964   1.643   9.813 -0.4818 -0.8584 -0.5764
 1014MOL0     O36786   2.927   1.772   9.804 -0.1589  0.2066 -0.5041
 1014MOL0     C36787   2.812   1.809   9.870  0.2424 -0.7064 -0.5314
 1014MOL0     C36788   2.726   1.895   9.805  0.5692 -0.5486  0.0160
 1014MOL0     C36789   2.623   1.952   9.872  0.8520 -1.0505  0.0819
 1014MOL0     C36790   2.596   1.923   9.999 -0.6414  0.5751  0.0285
 1014MOL0     O36791   2.491   1.968  10.077 -0.2873 -0.4920  0.0265
 1014MOL0     C36792   2.365   1.979  10.014  1.0175 -0.4075  0.4159
 1014MOL0     C36793   2.326   1.849   9.938 -0.2435 -0.3232 -0.2222
 1014MOL0     C36794   2.320   1.730  10.028  0.3305 -0.1351 -0.8127
 1014MOL0     C36795   2.307   1.600   9.945  0.0847 -0.2975 -0.0740
 1014MOL0     C36796   2.240   1.481  10.017 -0.1078 -0.5637  0.9885
 1014MOL0     C36797   2.336   1.408  10.110  0.2382  0.1004  0.4300
 1014MOL0     C36798   2.279   1.284  10.184  0.0809 -0.5289 -0.1054
 1014MOL0     C36799   2.287   1.158  10.105  0.6033 -0.4421 -0.5094
 1014MOL0    Cl36800   2.432   1.128  10.005  0.0271 -0.2982 -0.2502
 1014MOL0     C36801   2.678   1.832  10.067 -0.2444 -0.0973  0.2120
 1014MOL0     C36802   2.784   1.776  10.002 -1.2723  0.2739  0.6944
 1014MOL0     O36803   2.887   1.555   9.851  0.1519 -0.7473 -0.0886
 1014MOL0     C36804   3.059   1.526   9.621 -0.1124  0.3476  0.4371
 1014MOL0     C36805   3.166   1.498   9.537  0.3731 -0.3729 -1.2319
 1014MOL0     N36806   3.841   1.449   9.260  0.3718  0.5549  0.4362
 1014MOL0     N36807   3.895   1.472   9.144 -0.0147  0.0365  0.2299
 1014MOL0     C36808   4.663   1.329   9.028  0.9839  0.1389 -0.0750
 1014MOL0     C36809   4.702   1.369   8.905 -0.4028  0.1294  0.1906
 1014MOL0     C36810   4.901   1.414   8.510 -0.0726  1.1242 -0.0223
 1014MOL0     C36811   4.852   1.319   8.413 -0.2091  0.2039  0.4337
 1014MOL0     C36812   4.895   1.320   8.278 -0.1034 -0.0996 -0.0878
 1014MOL0     C36813   4.988   1.417   8.238 -1.3854 -0.4996  0.6388
 1014MOL0     O36814   5.062   1.420   8.124 -0.1805 -0.1990  0.2504
 1014MOL0     C36815   5.044   1.314   8.031  0.1590  1.4151 -0.8103
 1014MOL0     C36816   5.138   1.325   7.911 -0.3681  0.6306  0.3570
 1014MOL0     C36817   5.283   1.363   7.962 -0.7417  0.5351  0.0132
 1014MOL0     C36818   5.368   1.241   7.999  0.2650 -0.3071 -0.4043
 1014MOL0     C36819   5.373   1.135   7.897  0.6149  0.0141 -0.4477
 1014MOL0     C36820   5.377   1.040   7.829  0.3704  0.1760 -0.4538
 1014MOL0     C36821   5.022   1.514   8.329  0.2264 -0.5333 -0.7985
 1014MOL0     C36822   4.980   1.519   8.461  0.4902 -0.7562 -0.9036
 1014MOL0     H36823   4.768   1.050   8.781 -0.2812  0.1229 -1.1199
 1014MOL0     H36824   4.699   0.987   8.978  2.4781 -0.2366 -1.1043
 1014MOL0     H36825   4.618   1.172   9.386 -0.5630 -0.9779 -0.8037
 1014MOL0     H36826   4.645   1.309   9.283 -1.9092  1.5463 -0.8188
 1014MOL0     H36827   4.400   1.132   9.302 -0.6333 -0.3691  0.2251
 1014MOL0     H36828   4.411   1.260   9.428  1.6098 -0.7528 -0.2638
 1014MOL0     H36829   4.399   1.332   9.138  0.1645 -2.1001 -0.2421
 1014MOL0     H36830   4.254   1.309   9.228 -0.4732  1.8868 -1.0527
 1014MOL0     H36831   4.338   1.450   9.421 -1.1519  1.2880  0.1685
 1014MOL0     H36832   4.464   1.504   9.325 -0.6610  1.7124  0.7854
 1014MOL0     H36833   4.168   1.511   9.285  1.4672 -1.2872  0.6232
 1014MOL0     H36834   4.273   1.653   9.319 -1.0872  1.6953 -1.5766
 1014MOL0     H36835   4.367   1.611   9.098  0.1417  1.5253  1.6378
 1014MOL0     H36836   4.249   1.503   9.044  3.8932  0.1002 -1.3242
 1014MOL0     H36837   4.176   1.790   9.136 -0.0972  0.2929 -0.2593
 1014MOL0     H36838   4.213   1.739   8.970 -1.1388  0.6974  0.5475
 1014MOL0     H36839   4.051   1.564   8.972 -3.2632  0.2989 -1.3286
 1014MOL0     H36840   3.984   1.721   8.977 -1.2236  1.0475  1.4899
 1014MOL0     H36841   3.991   1.725   9.319  1.5187 -0.6724  0.5856
 1014MOL0     H36842   3.783   1.471   9.530 -0.3393  0.0313  0.9723
 1014MOL0     H36843   3.898   1.596   9.553 -0.6668 -0.4365 -0.2748
 1014MOL0     H36844   3.748   1.772   9.465  0.7488  0.6899  2.1757
 1014MOL0     H36845   3.713   1.680   9.611  1.7322 -1.1118 -0.7533
 1014MOL0     H36846   3.591   1.619   9.331 -1.4619 -3.1075 -0.3191
 1014MOL0     H36847   3.503   1.704   9.466  1.2456  1.5460  0.2015
 1014MOL0     H36848   3.554   1.493   9.611  1.7492 -1.6445 -0.1554
 1014MOL0     H36849   3.584   1.418   9.456  0.9823  1.5436 -0.5565
 1014MOL0     H36850   3.415   1.662   9.691  0.0551 -0.1322 -3.5501
 1014MOL0     H36851   3.175   1.832   9.891 -1.2516 -0.2097 -0.5380
 1014MOL0     H36852   3.226   1.693   9.970  1.6116 -1.9514 -0.5271
 1014MOL0     H36853   3.349   1.779   9.863  0.0565 -2.5147 -4.0019
 1014MOL0     H36854   2.737   1.935   9.705  1.3491 -0.4569  0.1329
 1014MOL0     H36855   2.555   2.019   9.820  2.1286  0.0510 -0.2384
 1014MOL0     H36856   2.294   1.985  10.098  0.5300 -0.7011  0.0276
 1014MOL0     H36857   2.358   2.072   9.957  2.5168  0.6075  1.7939
 1014MOL0     H36858   2.226   1.862   9.895 -0.6846 -3.3698 -0.3498
 1014MOL0     H36859   2.396   1.840   9.855  0.1376  1.5437 -0.1408
 1014MOL0     H36860   2.232   1.739  10.093  0.2182 -0.4625 -0.9126
 1014MOL0     H36861   2.412   1.725  10.086 -0.5767 -0.1093  0.6984
 1014MOL0     H36862   2.250   1.622   9.854  2.8626  3.1535 -1.2434
 1014MOL0     H36863   2.407   1.564   9.920  0.4728 -0.6516  1.8075
 1014MOL0     H36864   2.193   1.410   9.948  0.9483 -0.4522  0.1266
 1014MOL0     H36865   2.153   1.515  10.074 -1.4977 -1.6448 -0.4034
 1014MOL0     H36866   2.421   1.379  10.048  0.7448  0.6362  0.8635
 1014MOL0     H36867   2.374   1.487  10.175  0.9045  2.1336 -2.2535
 1014MOL0     H36868   2.176   1.298  10.220  0.9010  1.3007  1.7890
 1014MOL0     H36869   2.339   1.266  10.274  1.5124 -1.0543 -1.1425
 1014MOL0     H36870   2.196   1.162  10.045  0.4748 -2.0508 -0.4540
 1014MOL0     H36871   2.271   1.073  10.172  0.4830  0.6076  0.8430
 1014MOL0     H36872   2.665   1.796  10.169  1.2108 -0.8415  0.1673
 1014MOL0     H36873   2.841   1.699  10.054  0.0629  0.8825  0.1493
 1014MOL0     H36874   2.959   1.493   9.593  0.3493 -1.3917  0.7341
 1014MOL0     H36875   3.143   1.426   9.460 -0.9060  0.7533 -1.9405
 1014MOL0     H36876   4.620   1.401   9.097  1.6708  0.8362 -0.3656
 1014MOL0     H36877   4.706   1.475   8.880  0.4341 -0.1587 -0.9947
 1014MOL0     H36878   4.786   1.234   8.431  1.2095 -1.7433 -2.5983
 1014MOL0     H36879   4.884   1.239   8.207 -1.4084 -0.1203  0.1060
 1014MOL0     H36880   5.065   1.217   8.076 -1.9264  0.7717 -1.1342
 1014MOL0     H36881   4.937   1.314   8.008 -0.3047  0.8172  1.1030
 1014MOL0     H36882   5.096   1.409   7.854  1.2888  1.5704  0.4437
 1014MOL0     H36883   5.143   1.240   7.842 -1.5433  1.8343 -1.2939
 1014MOL0     H36884   5.268   1.419   8.055 -2.1816 -1.2159  0.8807
 1014MOL0     H36885   5.332   1.424   7.885  3.3667 -0.6529  1.4195
 1014MOL0     H36886   5.315   1.217   8.092 -0.4250  1.8252 -0.1792
 1014MOL0     H36887   5.473   1.256   8.023  0.7272 -2.5694 -0.8068
 1014MOL0     H36888   5.362   0.967   7.752 -0.6348  2.1225 -2.2303
 1014MOL0     H36889   5.095   1.592   8.309  1.9536 -1.2889  1.9844
 1014MOL0     H36890   5.026   1.595   8.523  1.7263  0.4969 -3.2020
 1015MOL0     O36891   3.310   8.534   8.335  0.6133 -0.0396 -1.2460
 1015MOL0     C36892   3.265   8.480   8.233 -0.7620  0.1783 -0.1165
 1015MOL0     O36893   3.164   8.394   8.223 -0.3443 -0.1752  0.0494
 1015MOL0     C36894   3.081   8.348   8.326  0.4037 -0.7322  0.7152
 1015MOL0     C36895   2.955   8.291   8.288  0.5193  0.3578 -0.5457
 1015MOL0     C36896   2.876   8.222   8.381 -0.1324 -0.3648  0.6413
 1015MOL0     C36897   2.922   8.192   8.514 -0.2910  0.3100  0.0988
 1015MOL0     O36898   2.838   8.116   8.588  0.1260  0.5835 -0.1982
 1015MOL0     C36899   2.842   8.112   8.732 -0.3418 -0.6951 -1.0764
 1015MOL0     C36900   2.705   8.123   8.807 -0.5738 -0.0054  0.5937
 1015MOL0     C36901   2.600   8.024   8.771 -0.7395  0.5067  0.3100
 1015MOL0     C36902   2.483   8.013   8.866 -0.6455 -0.0042 -0.1514
 1015MOL0     C36903   2.386   8.126   8.853 -0.4913  0.2897 -0.0661
 1015MOL0     C36904   2.301   8.125   8.725  0.2978  0.0789  0.2549
 1015MOL0     C36905   2.196   8.231   8.725  0.2795 -0.6416  0.5971
 1015MOL0     C36906   2.137   8.237   8.583 -1.4507  0.9572 -0.8277
 1015MOL0     N36907   2.037   8.340   8.575 -0.1932 -0.4615  0.3387
 1015MOL0     C36908   1.937   8.330   8.479 -0.5913 -0.3151 -0.0174
 1015MOL0     C36909   1.880   8.459   8.489 -0.2276 -1.0108  1.0427
 1015MOL0     C36910   1.754   8.513   8.422 -1.2666 -0.2419  1.4073
 1015MOL0     C36911   1.636   8.490   8.509 -0.9590  0.0784 -0.1845
 1015MOL0     C36912   1.512   8.565   8.448 -0.6390 -0.2685 -0.1731
 1015MOL0     C36913   1.467   8.524   8.305 -0.8462 -0.1394 -0.3631
 1015MOL0     O36914   1.374   8.622   8.264 -0.3047 -0.7237  0.1699
 1015MOL0     C36915   1.243   8.612   8.300  0.1691 -0.7514 -0.4201
 1015MOL0     C36916   1.187   8.499   8.355 -0.1824  0.4402  0.3732
 1015MOL0     C36917   1.049   8.472   8.339 -0.4931  0.1595  0.9513
 1015MOL0     C36918   1.000   8.331   8.359  1.6367 -0.5355  0.3260
 1015MOL0     C36919   0.970   8.583   8.308 -0.0099  0.4880  1.2830
 1015MOL0     C36920   0.828   8.575   8.316 -0.1484 -0.8320 -0.1236
 1015MOL0     O36921   0.765   8.493   8.404 -0.0924 -0.0451 -0.1629
 1015MOL0     C36922   0.631   8.478   8.403  0.0809 -0.2139 -0.6828
 1015MOL0     C36923   0.562   8.439   8.286  0.2058  0.2189 -0.6338
 1015MOL0     C36924   0.430   8.418   8.284  0.4355  0.5931 -0.5344
 1015MOL0     C36925   0.357   8.437   8.392 -0.2834 -0.9083 -1.0811
 1015MOL0     O36926   0.217   8.438   8.403 -0.0738  0.2293  0.5944
 1015MOL0     C36927   0.152   8.536   8.321 -0.1390  0.1913  0.3550
 1015MOL0     C36928   0.025   8.592   8.384  0.4542 -0.7402 -0.6611
 1015MOL0     C36929  -0.096   8.501   8.358  0.2026  0.4689 -0.8062
 1015MOL0     C36930  -0.215   8.573   8.408 -0.6303  0.7222 -0.5092
 1015MOL0     C36931  -0.344   8.501   8.371  0.0385  0.0930  0.6622
 1015MOL0     C36932  -0.454   8.607   8.397  0.5236 -0.7688 -0.0482
 1015MOL0     C36933  -0.586   8.543   8.353  1.0067 -0.1799  0.5563
 1015MOL0     C36934  -0.701   8.637   8.366  0.1527  0.6550 -0.4748
 1015MOL0    Cl36935  -0.712   8.700   8.541  0.1652 -0.0636 -0.0964
 1015MOL0     C36936   0.420   8.469   8.514  0.0174  0.0837 -0.3615
 1015MOL0     C36937   0.554   8.494   8.523 -0.6504 -0.3875 -0.3332
 1015MOL0     O36938   0.779   8.639   8.227 -0.6275 -0.1409 -0.2717
 1015MOL0     C36939   1.031   8.702   8.273  0.9942  0.1634  0.4083
 1015MOL0     C36940   1.163   8.720   8.259 -0.9832  0.0406  0.0330
 1015MOL0     N36941   1.937   8.532   8.592 -0.9495  0.2522  0.0365
 1015MOL0     N36942   2.039   8.464   8.636 -0.5494  0.4941 -0.0588
 1015MOL0     C36943   3.050   8.243   8.545 -0.5902 -1.0017 -0.5883
 1015MOL0     C36944   3.128   8.324   8.455  0.6277  0.8428  0.2141
 1015MOL0     C36945   3.344   8.500   8.110 -0.4593  0.0590  0.4813
 1015MOL0     C36946   3.290   8.474   7.979  0.4735  0.3956 -0.2958
 1015MOL0     C36947   3.363   8.495   7.864  0.2851  0.0941 -0.2159
 1015MOL0     C36948   3.498   8.527   7.874 -0.2466 -0.9028  0.0368
 1015MOL0     O36949   3.565   8.554   7.754  0.5453 -0.2843  0.2405
 1015MOL0     C36950   3.707   8.573   7.759 -0.1488 -0.6622  0.0074
 1015MOL0     C36951   3.773   8.557   7.626  0.7007 -0.4574  0.1431
 1015MOL0     C36952   3.762   8.404   7.589 -0.2794 -0.6075  0.0609
 1015MOL0     C36953   3.881   8.339   7.673 -0.6119 -0.5252 -0.0411
 1015MOL0     C36954   3.907   8.207   7.630 -0.3703  0.3620 -0.1836
 1015MOL0     C36955   3.913   8.098   7.575 -1.0756  0.7536 -0.0340
 1015MOL0     C36956   3.558   8.550   7.999 -0.6298  0.2760 -0.9766
 1015MOL0     C36957   3.484   8.533   8.120  0.7153 -0.2352  0.4052
 1015MOL0     H36958   2.923   8.308   8.186 -0.7895 -1.6068 -0.4992
 1015MOL0     H36959   2.771   8.211   8.355 -0.6024  0.6922  1.9909
 1015MOL0     H36960   2.883   8.018   8.769  0.9676  0.7607  1.4577
 1015MOL0     H36961   2.903   8.192   8.776 -2.2776  1.1841 -1.6088
 1015MOL0     H36962   2.735   8.098   8.909  0.7880 -3.2606 -0.4691
 1015MOL0     H36963   2.669   8.226   8.798  3.8302  1.9270  1.9778
 1015MOL0     H36964   2.573   8.043   8.667  1.1663  0.7145 -0.1984
 1015MOL0     H36965   2.648   7.926   8.761 -2.0103 -0.1187  0.1406
 1015MOL0     H36966   2.430   7.920   8.846  0.3425 -0.1737 -2.2981
 1015MOL0     H36967   2.528   8.018   8.965  0.1726  0.1968 -0.5284
 1015MOL0     H36968   2.320   8.122   8.940 -0.5779 -2.8526 -0.1774
 1015MOL0     H36969   2.443   8.215   8.882 -0.1736 -0.7362  2.7634
 1015MOL0     H36970   2.367   8.133   8.639 -0.2969  0.9233 -0.1401
 1015MOL0     H36971   2.244   8.032   8.717  0.6196 -0.3120  2.0101
 1015MOL0     H36972   2.115   8.212   8.795  0.2333  1.5336  1.2247
 1015MOL0     H36973   2.242   8.328   8.748  1.0536 -1.5586  3.2911
 1015MOL0     H36974   2.106   8.134   8.563 -0.2579  0.1544  1.1892
 1015MOL0     H36975   2.223   8.271   8.525 -1.3511  0.8520 -0.7434
 1015MOL0     H36976   1.910   8.252   8.409  1.7877 -0.1783 -1.1747
 1015MOL0     H36977   1.767   8.615   8.385 -0.4347 -0.6210  0.6203
 1015MOL0     H36978   1.735   8.455   8.331 -1.4128  2.1061 -0.1435
 1015MOL0     H36979   1.655   8.528   8.610  1.6061 -0.6625 -0.3032
 1015MOL0     H36980   1.606   8.386   8.525 -2.4947  0.8227  2.2806
 1015MOL0     H36981   1.534   8.672   8.456  0.4597 -0.4924 -0.0946
 1015MOL0     H36982   1.427   8.547   8.514  1.6950 -0.4770  2.9984
 1015MOL0     H36983   1.435   8.420   8.300  2.2155 -1.1253 -0.9307
 1015MOL0     H36984   1.554   8.533   8.240 -0.1234  0.6351  0.6737
 1015MOL0     H36985   1.260   8.423   8.383  0.0216  0.3886 -0.2841
 1015MOL0     H36986   0.912   8.308   8.299 -1.6288 -0.7418  4.6829
 1015MOL0     H36987   1.080   8.267   8.321  0.3151 -1.5402 -0.8354
 1015MOL0     H36988   0.967   8.305   8.460  0.6019  0.5602  0.2952
 1015MOL0     H36989   0.608   8.426   8.189 -0.8481 -1.4996 -0.9288
 1015MOL0     H36990   0.375   8.398   8.192  2.9014 -1.4703 -1.6691
 1015MOL0     H36991   0.213   8.621   8.289 -2.3282  1.3835 -0.8411
 1015MOL0     H36992   0.127   8.477   8.232 -1.6569  1.3607 -0.0288
 1015MOL0     H36993   0.042   8.597   8.492  1.9603 -3.3867 -0.6811
 1015MOL0     H36994   0.008   8.688   8.335  1.3057  0.4959  1.3497
 1015MOL0     H36995  -0.082   8.409   8.416  1.8699 -0.1769 -2.1744
 1015MOL0     H36996  -0.117   8.479   8.253  1.4650 -0.1723 -0.9367
 1015MOL0     H36997  -0.216   8.573   8.517  0.9886  1.4103 -0.4768
 1015MOL0     H36998  -0.202   8.674   8.368  0.5733  0.6574 -0.2992
 1015MOL0     H36999  -0.371   8.414   8.431 -0.1278  0.9240  1.8306
 1015MOL0     H37000  -0.336   8.466   8.267 -1.8746  0.1288  0.4751
 1015MOL0     H37001  -0.455   8.636   8.503  1.0765 -0.0791 -0.2237
 1015MOL0     H37002  -0.439   8.697   8.337 -0.5269  0.1682  1.0204
 1015MOL0     H37003  -0.610   8.452   8.409  1.7745  0.5967  2.2024
 1015MOL0     H37004  -0.586   8.506   8.250 -0.8485  0.3467  0.3177
 1015MOL0     H37005  -0.795   8.585   8.347  0.2841 -0.3641  1.4121
 1015MOL0     H37006  -0.683   8.723   8.300  2.9682  1.6494  1.4029
 1015MOL0     H37007   0.353   8.465   8.600  1.4835 -2.4698  0.7763
 1015MOL0     H37008   0.591   8.534   8.617 -3.5645  3.4319 -0.5857
 1015MOL0     H37009   0.964   8.785   8.255  2.0495  0.9083 -0.1406
 1015MOL0     H37010   1.219   8.810   8.235  1.1471 -1.4356 -0.7936
 1015MOL0     H37011   3.093   8.232   8.644  0.6113  1.1416 -0.8117
 1015MOL0     H37012   3.235   8.332   8.465  0.5244  0.4143  2.0967
 1015MOL0     H37013   3.183   8.466   7.965 -0.4237  3.0229  3.5024
 1015MOL0     H37014   3.305   8.486   7.774 -3.4642 -2.1178  2.1651
 1015MOL0     H37015   3.702   8.677   7.792  0.8955 -0.6600  0.1777
 1015MOL0     H37016   3.759   8.512   7.834  0.0367  1.5907  1.8408
 1015MOL0     H37017   3.878   8.585   7.636  0.7924  0.0011 -1.6259
 1015MOL0     H37018   3.718   8.629   7.562  1.6272  0.6948  0.6069
 1015MOL0     H37019   3.796   8.399   7.485  0.2651 -0.3958  0.2228
 1015MOL0     H37020   3.664   8.360   7.609 -0.4858  0.4491  1.5060
 1015MOL0     H37021   3.866   8.344   7.781  0.6175  0.7966  0.1063
 1015MOL0     H37022   3.967   8.405   7.657 -0.3037 -0.5978  1.2653
 1015MOL0     H37023   3.908   7.995   7.544 -3.7087 -0.3836  3.4624
 1015MOL0     H37024   3.660   8.584   8.014 -0.2529 -1.0083 -0.5034
 1015MOL0     H37025   3.539   8.543   8.212 -1.2109 -0.5825  1.6471
 1016MOL0     O37026   6.491   0.070   7.845 -0.8830 -0.0722 -0.9199
 1016MOL0     C37027   6.497   0.067   7.726 -0.0140 -0.4011  0.3785
 1016MOL0     O37028   6.399   0.041   7.645 -0.6085 -0.4738  0.9625
 1016MOL0     C37029   6.271   0.012   7.679 -0.1093  1.0776  0.8977
 1016MOL0     C37030   6.211   0.080   7.781  0.1926  0.3578  0.0678
 1016MOL0     C37031   6.081   0.039   7.813 -0.8375 -0.5646 -1.1159
 1016MOL0     C37032   6.010  -0.051   7.743 -0.7462 -0.1661 -0.6482
 1016MOL0     O37033   5.876  -0.077   7.779 -0.3394 -0.7954  0.0303
 1016MOL0     C37034   5.782  -0.123   7.689  0.2995 -0.6276  0.0536
 1016MOL0     C37035   5.650  -0.122   7.758  0.4642  0.9189 -0.3475
 1016MOL0     C37036   5.538  -0.175   7.667  0.3428  0.2514  0.4135
 1016MOL0     C37037   5.392  -0.150   7.717  0.3680  0.3728 -0.3788
 1016MOL0     C37038   5.284  -0.203   7.615 -0.1236 -0.6444  0.3100
 1016MOL0     C37039   5.286  -0.146   7.472  0.4597  0.6835 -1.1849
 1016MOL0     C37040   5.155  -0.170   7.404  0.2254 -0.0447  0.0771
 1016MOL0     C37041   5.145  -0.101   7.272 -0.7339 -0.4894  0.3870
 1016MOL0     N37042   5.020  -0.103   7.214  0.3028  0.1406  0.6110
 1016MOL0     C37043   4.947  -0.214   7.209  0.6028  1.5935  0.2060
 1016MOL0     C37044   4.837  -0.185   7.144 -0.5826 -0.8992  0.3763
 1016MOL0     C37045   4.731  -0.293   7.117  0.6375 -0.1666  0.2406
 1016MOL0     C37046   4.709  -0.314   6.968  0.5803 -0.5765 -0.6029
 1016MOL0     C37047   4.834  -0.332   6.879 -0.4724 -0.1279 -1.0533
 1016MOL0     C37048   4.802  -0.384   6.744 -0.2599 -1.0947  0.2900
 1016MOL0     O37049   4.744  -0.270   6.668 -0.1481  0.4467  0.7666
 1016MOL0     C37050   4.827  -0.167   6.625 -0.6693  0.6068 -0.3887
 1016MOL0     C37051   4.961  -0.174   6.575 -0.1092 -0.7673  0.2797
 1016MOL0     C37052   5.032  -0.060   6.553  0.8172 -0.9211  0.3942
 1016MOL0     C37053   5.181  -0.081   6.517  0.5231  0.3851  0.2757
 1016MOL0     C37054   4.962   0.067   6.560 -0.5290 -0.1582 -0.4793
 1016MOL0     C37055   5.024   0.201   6.532  0.0851 -0.2916 -0.0905
 1016MOL0     O37056   4.937   0.298   6.484  0.5532 -0.0842  0.1435
 1016MOL0     C37057   4.951   0.430   6.497  0.9648 -0.6213  0.0621
 1016MOL0     C37058   4.851   0.512   6.571  0.2950 -0.9125  0.2536
 1016MOL0     C37059   4.857   0.651   6.568  1.1389 -1.5342 -0.5724
 1016MOL0     C37060   4.962   0.722   6.503 -0.9320  0.1204  0.5577
 1016MOL0     O37061   4.964   0.858   6.496  0.5104  0.0274 -0.1051
 1016MOL0     C37062   5.075   0.925   6.446 -1.3809  0.6744  0.5914
 1016MOL0     C37063   5.050   1.072   6.425 -0.5868 -0.5666  0.4869
 1016MOL0     C37064   4.927   1.089   6.335  0.1219  1.8941 -0.9830
 1016MOL0     C37065   4.908   1.235   6.330  0.2676 -0.5887 -0.2493
 1016MOL0     C37066   4.797   1.273   6.231 -0.4745 -1.0088 -0.2499
 1016MOL0     C37067   4.784   1.429   6.218  0.3477 -0.4267  0.1765
 1016MOL0     C37068   4.702   1.496   6.333  0.1666  0.0215 -0.0158
 1016MOL0     C37069   4.638   1.620   6.274 -0.9190 -0.0359  0.1182
 1016MOL0    Cl37070   4.526   1.675   6.391  0.4291 -0.1686  0.4660
 1016MOL0     C37071   5.069   0.636   6.453 -0.4979 -0.3238 -1.0456
 1016MOL0     C37072   5.062   0.496   6.442  0.8059 -0.0714  0.1566
 1016MOL0     O37073   5.139   0.214   6.554  0.1504 -0.0700  0.4423
 1016MOL0     C37074   4.831   0.069   6.604  1.1079  0.2821  0.3766
 1016MOL0     C37075   4.765  -0.052   6.633 -0.1426 -0.0452 -0.0215
 1016MOL0     N37076   4.849  -0.053   7.103  0.2846 -0.2150  0.2405
 1016MOL0     N37077   4.959  -0.001   7.138 -0.2829 -0.4164 -0.0413
 1016MOL0     C37078   6.069  -0.112   7.633 -1.2353  0.2641 -0.2681
 1016MOL0     C37079   6.200  -0.075   7.597  0.4765 -0.4392  0.7358
 1016MOL0     C37080   6.625   0.101   7.681 -0.1055  0.0394  0.1569
 1016MOL0     C37081   6.652   0.113   7.543 -0.4925 -0.4018 -0.3372
 1016MOL0     C37082   6.773   0.142   7.487 -0.5340 -0.5520  0.0437
 1016MOL0     C37083   6.880   0.159   7.576 -0.7321  0.0500  0.0117
 1016MOL0     O37084   7.000   0.172   7.510  0.0378  0.1191  0.3987
 1016MOL0     C37085   7.118   0.180   7.586 -0.2535 -0.1481  1.5865
 1016MOL0     C37086   7.240   0.216   7.506 -0.6088 -0.1502  0.1422
 1016MOL0     C37087   7.232   0.348   7.432  0.0821  0.0889 -0.5275
 1016MOL0     C37088   7.188   0.471   7.503  0.0126 -0.7772  0.2434
 1016MOL0     C37089   7.201   0.591   7.424 -0.8267  0.4241  0.3246
 1016MOL0     C37090   7.213   0.702   7.374  0.8339  0.4202  0.1160
 1016MOL0     C37091   6.869   0.131   7.710  0.3322  0.6255  0.5585
 1016MOL0     C37092   6.742   0.104   7.762 -0.1669  0.7392 -0.5086
 1016MOL0     H37093   6.254   0.155   7.847  0.1438  0.2682  0.2025
 1016MOL0     H37094   6.042   0.082   7.905  2.2280 -2.5644  1.2776
 1016MOL0     H37095   5.786  -0.069   7.594  0.0475  0.8212  0.8338
 1016MOL0     H37096   5.801  -0.230   7.679  0.6160 -1.1530  4.2571
 1016MOL0     H37097   5.659  -0.187   7.845 -1.2988  0.8840 -0.1521
 1016MOL0     H37098   5.621  -0.023   7.794 -1.9930  0.4480 -0.8256
 1016MOL0     H37099   5.540  -0.122   7.572 -2.6311  1.8729  1.1408
 1016MOL0     H37100   5.549  -0.283   7.653  0.7589  0.2788  0.4973
 1016MOL0     H37101   5.375  -0.189   7.817 -1.8834 -0.0855 -0.8995
 1016MOL0     H37102   5.382  -0.041   7.728 -1.2911  0.0328  2.1012
 1016MOL0     H37103   5.277  -0.312   7.613 -1.0682 -0.5917 -0.3241
 1016MOL0     H37104   5.186  -0.166   7.648  0.5803  2.6489 -0.8965
 1016MOL0     H37105   5.315  -0.040   7.481 -0.4042  0.8194  0.1794
 1016MOL0     H37106   5.365  -0.193   7.413  0.0602  0.3691 -1.4746
 1016MOL0     H37107   5.138  -0.278   7.394 -3.1585  0.4354 -0.7709
 1016MOL0     H37108   5.073  -0.125   7.461 -1.4119 -0.2696 -1.9846
 1016MOL0     H37109   5.230  -0.138   7.215 -0.3434 -1.6210  1.6651
 1016MOL0     H37110   5.156   0.007   7.289 -2.0640 -0.4949  1.4723
 1016MOL0     H37111   4.963  -0.314   7.248  2.2843  0.2844 -3.3608
 1016MOL0     H37112   4.779  -0.385   7.150 -0.9114 -0.8912  0.5524
 1016MOL0     H37113   4.632  -0.275   7.159  1.4332  1.5055  1.5504
 1016MOL0     H37114   4.668  -0.218   6.936  0.0490  0.0972  1.8784
 1016MOL0     H37115   4.629  -0.389   6.957  0.5540 -0.7453  0.5487
 1016MOL0     H37116   4.898  -0.412   6.917  2.0462  2.2473  0.0371
 1016MOL0     H37117   4.902  -0.248   6.865  1.1366 -1.5466 -2.2729
 1016MOL0     H37118   4.735  -0.471   6.745 -2.1306  0.2723  1.3337
 1016MOL0     H37119   4.895  -0.414   6.694 -0.2003  1.3439 -1.2137
 1016MOL0     H37120   5.003  -0.274   6.572 -0.3794 -0.8929  0.6047
 1016MOL0     H37121   5.199  -0.189   6.516  0.2739  0.3333 -0.7432
 1016MOL0     H37122   5.215  -0.034   6.424  0.4288  0.7485  0.4224
 1016MOL0     H37123   5.240  -0.040   6.599 -1.4858  0.0063  1.9837
 1016MOL0     H37124   4.766   0.461   6.615  0.5861 -2.0294 -0.4486
 1016MOL0     H37125   4.775   0.706   6.613  0.6610 -2.6010 -0.1004
 1016MOL0     H37126   5.160   0.912   6.514 -0.7394 -4.4814 -0.7806
 1016MOL0     H37127   5.105   0.882   6.350 -0.0938 -0.0522  1.2876
 1016MOL0     H37128   5.042   1.127   6.519 -0.2684 -1.0593  0.8085
 1016MOL0     H37129   5.139   1.103   6.370  0.1840 -2.4707  0.5736
 1016MOL0     H37130   4.846   1.029   6.379  1.0353  1.0184 -0.4579
 1016MOL0     H37131   4.941   1.045   6.236 -0.9834 -1.1328  0.0775
 1016MOL0     H37132   4.884   1.278   6.428 -2.2113  0.4336 -1.2266
 1016MOL0     H37133   4.998   1.286   6.294  0.9020  1.1829  3.3930
 1016MOL0     H37134   4.701   1.228   6.257 -0.2358 -1.7258 -0.5833
 1016MOL0     H37135   4.838   1.242   6.135 -0.0696  0.5221 -0.6043
 1016MOL0     H37136   4.878   1.486   6.212  0.0637 -0.0804 -2.5441
 1016MOL0     H37137   4.738   1.443   6.120  0.2617 -0.5773  0.1959
 1016MOL0     H37138   4.763   1.524   6.419 -0.4956  1.7490 -0.0584
 1016MOL0     H37139   4.628   1.423   6.369 -0.8593  2.2206  2.7544
 1016MOL0     H37140   4.582   1.596   6.183  0.6623  0.3219 -1.0018
 1016MOL0     H37141   4.710   1.697   6.245  3.2341 -3.1624  1.3046
 1016MOL0     H37142   5.150   0.692   6.408 -2.5547  1.9349 -2.1088
 1016MOL0     H37143   5.142   0.450   6.384 -0.8572  2.1227 -4.3612
 1016MOL0     H37144   4.780   0.165   6.599 -1.4160 -1.0119 -0.4253
 1016MOL0     H37145   4.660  -0.038   6.657 -0.5621  1.2163 -2.2906
 1016MOL0     H37146   6.017  -0.181   7.567  2.3519 -0.5272 -2.5632
 1016MOL0     H37147   6.250  -0.113   7.508  0.4821 -1.3205  1.1022
 1016MOL0     H37148   6.576   0.101   7.466  0.3852 -1.3342 -1.0989
 1016MOL0     H37149   6.773   0.149   7.379 -0.2862 -2.4802 -0.1225
 1016MOL0     H37150   7.107   0.235   7.679 -2.6793 -2.0999  2.5628
 1016MOL0     H37151   7.139   0.076   7.614 -0.4778 -1.1777 -1.5825
 1016MOL0     H37152   7.252   0.133   7.436 -0.6674 -0.4117  0.4393
 1016MOL0     H37153   7.327   0.217   7.572 -0.0689  0.9160 -0.5568
 1016MOL0     H37154   7.162   0.339   7.348  0.3179  1.5643 -0.9057
 1016MOL0     H37155   7.330   0.361   7.387  0.3928 -1.0745 -0.2362
 1016MOL0     H37156   7.238   0.483   7.599 -2.2922 -0.3889  1.4652
 1016MOL0     H37157   7.081   0.468   7.526 -0.0785 -1.0347 -0.1972
 1016MOL0     H37158   7.216   0.788   7.309 -1.4168 -2.3120 -4.0904
 1016MOL0     H37159   6.954   0.129   7.778 -0.1737 -1.1671  1.1921
 1016MOL0     H37160   6.740   0.077   7.867  2.8395  1.2766 -0.2253
 1017MOL0     O37161  10.408   8.641   7.066 -0.4298  0.2794 -0.0272
 1017MOL0     C37162  10.409   8.714   7.164  0.5495  0.4769  0.2013
 1017MOL0     O37163  10.296   8.781   7.224  0.1669 -0.4845 -0.5150
 1017MOL0     C37164  10.170   8.746   7.180  0.3561 -0.3441 -0.3753
 1017MOL0     C37165  10.128   8.616   7.184 -0.9255 -0.3414  1.2320
 1017MOL0     C37166   9.992   8.600   7.146  1.0131 -0.1271  0.0562
 1017MOL0     C37167   9.897   8.703   7.113  0.1693  0.4855 -0.2896
 1017MOL0     O37168   9.760   8.691   7.080 -1.3231  0.2482  0.3539
 1017MOL0     C37169   9.710   8.559   7.065 -0.5436  0.3074  0.2965
 1017MOL0     C37170   9.566   8.580   7.023 -0.0614 -0.3747 -0.1017
 1017MOL0     C37171   9.484   8.632   7.145  0.5056 -0.2291 -0.0381
 1017MOL0     C37172   9.335   8.650   7.109  0.0703  0.8805 -0.1895
 1017MOL0     C37173   9.322   8.749   6.999  0.5351  0.1752  0.0708
 1017MOL0     C37174   9.172   8.797   6.984 -0.5432  0.7209 -0.2333
 1017MOL0     C37175   9.128   8.899   7.089 -0.8387 -0.1229 -0.6125
 1017MOL0     C37176   8.988   8.957   7.057 -0.0151  0.4788 -0.2818
 1017MOL0     N37177   8.870   8.865   7.075 -0.4862 -0.4804 -0.8515
 1017MOL0     C37178   8.790   8.856   7.195 -0.1726 -0.5142  0.5151
 1017MOL0     C37179   8.683   8.777   7.160  0.5385 -0.1430 -0.5089
 1017MOL0     C37180   8.563   8.743   7.244  0.7430 -0.0906  0.5819
 1017MOL0     C37181   8.446   8.835   7.223  0.2758 -0.0394 -0.5245
 1017MOL0     C37182   8.380   8.810   7.090  0.3376  0.0814  0.5917
 1017MOL0     C37183   8.250   8.882   7.051 -0.6322  0.8111  0.4875
 1017MOL0     O37184   8.161   8.859   7.161 -0.0993  0.0391 -0.0669
 1017MOL0     C37185   8.022   8.862   7.142 -1.1625  0.0180  0.1775
 1017MOL0     C37186   7.957   8.840   7.263 -0.3598  0.0387  0.3879
 1017MOL0     C37187   7.822   8.834   7.273  0.3245 -0.1639  0.9833
 1017MOL0     C37188   7.765   8.810   7.411  0.2576  0.2317  0.4971
 1017MOL0     C37189   7.745   8.846   7.155 -0.0063 -0.3726  0.2871
 1017MOL0     C37190   7.599   8.824   7.153  0.3572  0.3450 -0.1471
 1017MOL0     O37191   7.547   8.850   7.034 -0.3526  0.2664 -0.1629
 1017MOL0     C37192   7.411   8.878   7.024 -0.5856  0.0078 -0.2770
 1017MOL0     C37193   7.306   8.811   7.091 -0.5330  0.5527  0.5849
 1017MOL0     C37194   7.172   8.842   7.061 -0.0675  0.8566  1.6021
 1017MOL0     C37195   7.147   8.939   6.965 -0.0072  0.4690 -0.6196
 1017MOL0     O37196   7.008   8.951   6.946 -0.1622  0.0685  0.5635
 1017MOL0     C37197   6.961   9.020   6.830 -0.7792 -0.1461  0.1463
 1017MOL0     C37198   6.811   9.017   6.818 -0.2081  0.5423  1.3014
 1017MOL0     C37199   6.737   9.080   6.918 -0.1383 -0.2212 -0.2056
 1017MOL0     C37200   6.590   9.075   6.866 -0.5684 -0.3352  0.3898
 1017MOL0     C37201   6.488   9.138   6.957 -0.3543 -0.3238  0.1393
 1017MOL0     C37202   6.355   9.146   6.879  0.7458  0.3416  0.6620
 1017MOL0     C37203   6.253   9.224   6.965  0.6113 -0.2207  0.0154
 1017MOL0     C37204   6.109   9.200   6.916  0.2516  0.7301 -0.8743
 1017MOL0    Cl37205   5.985   9.298   7.006 -0.1505  0.2643  0.0334
 1017MOL0     C37206   7.252   9.016   6.910 -0.3385  0.0722 -0.6762
 1017MOL0     C37207   7.382   8.986   6.944 -0.6817 -0.1783 -0.0071
 1017MOL0     O37208   7.536   8.773   7.251  0.5118 -0.3198  0.1061
 1017MOL0     C37209   7.815   8.862   7.030  0.0525 -0.5857 -0.8256
 1017MOL0     C37210   7.951   8.887   7.030 -0.3697 -0.3866 -0.1770
 1017MOL0     N37211   8.706   8.738   7.032  0.6860 -0.7360  0.2561
 1017MOL0     N37212   8.810   8.798   6.979  0.1434  0.4818  0.4741
 1017MOL0     C37213   9.948   8.830   7.115 -0.8198 -0.2716 -0.2136
 1017MOL0     C37214  10.084   8.855   7.153 -0.5854  0.4881  0.1122
 1017MOL0     C37215  10.531   8.733   7.232 -0.4611 -0.4535 -1.0643
 1017MOL0     C37216  10.529   8.840   7.325  0.4381 -1.0797  0.1167
 1017MOL0     C37217  10.655   8.884   7.374  0.0396 -0.4445 -0.2052
 1017MOL0     C37218  10.783   8.830   7.343  0.5981  0.1713  0.6576
 1017MOL0     O37219  10.905   8.861   7.398  0.3052  0.0550  0.0619
 1017MOL0     C37220  10.932   8.991   7.446  0.2849 -0.6133  0.7785
 1017MOL0     C37221  11.086   9.007   7.465  0.4345  0.7485  0.2836
 1017MOL0     C37222  11.121   9.147   7.521 -0.1625  0.1435  0.2485
 1017MOL0     C37223  11.159   9.150   7.663 -0.3399 -0.6671  0.3960
 1017MOL0     C37224  11.048   9.099   7.754 -0.1872  0.5212 -0.0458
 1017MOL0     C37225  10.979   9.049   7.838  0.4811 -1.0492 -0.2090
 1017MOL0     C37226  10.779   8.716   7.258 -1.0622 -0.4123  0.0759
 1017MOL0     C37227  10.659   8.674   7.199 -0.0275  0.7082 -0.5646
 1017MOL0     H37228  10.188   8.528   7.208 -2.3021 -1.9046 -0.7435
 1017MOL0     H37229   9.952   8.499   7.144  2.0553 -0.7449  3.6424
 1017MOL0     H37230   9.761   8.517   6.978 -1.8881 -0.5803 -0.0941
 1017MOL0     H37231   9.706   8.495   7.154  0.4505  2.7757  2.2740
 1017MOL0     H37232   9.567   8.643   6.934  2.4019  0.3012  0.3380
 1017MOL0     H37233   9.528   8.484   6.986 -1.5946  0.6355 -1.2467
 1017MOL0     H37234   9.481   8.550   7.218 -1.0362  1.5146  2.0023
 1017MOL0     H37235   9.526   8.724   7.186 -1.7932  0.0970  1.8317
 1017MOL0     H37236   9.292   8.551   7.091  2.2807 -0.5146  1.6455
 1017MOL0     H37237   9.271   8.679   7.193 -0.1558  0.1815 -0.1184
 1017MOL0     H37238   9.388   8.832   7.025  3.7105 -2.6302  1.7310
 1017MOL0     H37239   9.347   8.695   6.907  1.1314 -0.4576  0.5898
 1017MOL0     H37240   9.172   8.841   6.884 -3.3955 -3.1308 -2.1776
 1017MOL0     H37241   9.110   8.707   6.988 -0.6928  0.7235 -1.9040
 1017MOL0     H37242   9.119   8.851   7.186 -2.2785  0.1453 -0.5986
 1017MOL0     H37243   9.192   8.986   7.107 -0.3572 -0.8777  1.6191
 1017MOL0     H37244   8.996   8.987   6.953  1.3800  0.6174 -0.1534
 1017MOL0     H37245   8.968   9.044   7.121  0.8961 -1.0842  2.3002
 1017MOL0     H37246   8.809   8.907   7.289  3.4543 -1.0284  0.2152
 1017MOL0     H37247   8.541   8.639   7.216 -0.4383 -0.2611  2.0280
 1017MOL0     H37248   8.568   8.752   7.353 -1.9781  0.9584  0.6718
 1017MOL0     H37249   8.488   8.936   7.214  0.3244 -0.1188 -1.2333
 1017MOL0     H37250   8.373   8.839   7.304  0.4949  0.1536 -0.3356
 1017MOL0     H37251   8.370   8.701   7.088  3.8585 -0.3759  0.4133
 1017MOL0     H37252   8.450   8.833   7.009 -0.1434 -0.2621  0.0723
 1017MOL0     H37253   8.193   8.829   6.974 -0.9793  1.6281  0.1594
 1017MOL0     H37254   8.265   8.987   7.022 -0.8942  0.5142 -0.7762
 1017MOL0     H37255   8.017   8.834   7.354 -0.8908 -2.2060  0.6513
 1017MOL0     H37256   7.760   8.701   7.420 -2.1129  0.1932 -0.5736
 1017MOL0     H37257   7.825   8.859   7.489  1.9326  1.9598 -1.7489
 1017MOL0     H37258   7.661   8.840   7.429  0.3801  0.8974  0.1220
 1017MOL0     H37259   7.313   8.722   7.153 -0.2690  1.3021  1.6606
 1017MOL0     H37260   7.100   8.778   7.110 -0.1626 -1.1832 -0.9677
 1017MOL0     H37261   6.995   9.124   6.829 -0.7625 -0.1311  0.9830
 1017MOL0     H37262   6.997   8.954   6.751 -1.3348 -1.9550  1.3375
 1017MOL0     H37263   6.784   9.065   6.723 -0.3637  0.6159  1.3832
 1017MOL0     H37264   6.791   8.909   6.820 -0.2004  0.4470 -0.8622
 1017MOL0     H37265   6.765   9.183   6.940  0.9631 -0.5651  0.0586
 1017MOL0     H37266   6.756   9.017   7.006 -1.1324  0.6145  0.6327
 1017MOL0     H37267   6.584   9.136   6.776 -2.3266 -0.0667  0.6475
 1017MOL0     H37268   6.564   8.970   6.857  1.0513 -0.9837  2.4526
 1017MOL0     H37269   6.518   9.241   6.980 -0.6409  0.1950 -1.6478
 1017MOL0     H37270   6.486   9.088   7.054 -0.5815 -0.6177 -0.0159
 1017MOL0     H37271   6.359   9.196   6.782  0.4295  0.2437  0.5967
 1017MOL0     H37272   6.312   9.048   6.857 -0.3748  1.1709 -1.0664
 1017MOL0     H37273   6.270   9.332   6.969  0.0092 -0.1511  0.8339
 1017MOL0     H37274   6.270   9.186   7.066  1.6556 -1.6640 -0.6766
 1017MOL0     H37275   6.091   9.093   6.922 -2.2080  1.0222 -1.6702
 1017MOL0     H37276   6.103   9.222   6.809  0.0625  0.7475 -0.8615
 1017MOL0     H37277   7.235   9.104   6.848 -1.2646  0.6660  0.3684
 1017MOL0     H37278   7.465   9.042   6.904 -1.0649 -0.9830 -2.0636
 1017MOL0     H37279   7.767   8.883   6.935 -0.6369 -1.2105 -0.6298
 1017MOL0     H37280   7.990   8.889   6.928  0.8477 -3.4625  0.1192
 1017MOL0     H37281   9.886   8.913   7.082 -1.0297 -0.3123  0.0721
 1017MOL0     H37282  10.119   8.957   7.142 -1.0561  0.3462 -4.8707
 1017MOL0     H37283  10.445   8.903   7.355  0.8432 -0.2324 -0.4806
 1017MOL0     H37284  10.657   8.977   7.430  2.2273 -0.4791 -0.1413
 1017MOL0     H37285  10.892   9.070   7.382 -0.4311 -1.0937  0.6265
 1017MOL0     H37286  10.883   9.004   7.543  1.2964 -0.3091  1.2642
 1017MOL0     H37287  11.143   8.985   7.374 -1.1435 -0.3872 -0.4903
 1017MOL0     H37288  11.117   8.922   7.526  0.6846 -0.9361 -2.0580
 1017MOL0     H37289  11.036   9.213   7.502  1.0070  2.6471  2.9418
 1017MOL0     H37290  11.210   9.178   7.464 -1.0777 -0.5766 -1.6358
 1017MOL0     H37291  11.183   9.253   7.690 -0.2526 -0.2599 -1.1223
 1017MOL0     H37292  11.254   9.097   7.676  0.7600  1.6143  2.4865
 1017MOL0     H37293  10.906   9.027   7.913  1.0489  2.7593  1.7384
 1017MOL0     H37294  10.871   8.663   7.239  1.5463  3.4511  0.7976
 1017MOL0     H37295  10.666   8.601   7.118  3.3637  1.5192 -1.1959
 1018MOL0     O37296  10.136   1.796   2.712 -1.0385  0.3411 -0.7930
 1018MOL0     C37297  10.195   1.821   2.814 -1.1990 -0.4461  1.0189
 1018MOL0     O37298  10.148   1.805   2.941 -0.2805 -0.3751 -0.1969
 1018MOL0     C37299  10.017   1.790   2.963 -0.6108 -0.1691  0.4690
 1018MOL0     C37300   9.956   1.895   3.028 -0.5641 -0.8693  0.0341
 1018MOL0     C37301   9.824   1.869   3.081 -0.2932  0.5020 -0.1624
 1018MOL0     C37302   9.754   1.751   3.052  1.2530  0.0874 -0.1359
 1018MOL0     O37303   9.618   1.741   3.077 -0.1661  0.3435 -0.6262
 1018MOL0     C37304   9.573   1.763   3.212 -0.6676 -0.5281  1.1821
 1018MOL0     C37305   9.423   1.767   3.209 -0.2867  0.4881  0.2497
 1018MOL0     C37306   9.368   1.756   3.359  0.8836 -0.2182 -0.2277
 1018MOL0     C37307   9.356   1.892   3.433  0.1839 -0.0250  0.2156
 1018MOL0     C37308   9.279   1.889   3.556 -0.2416 -0.6366 -1.0044
 1018MOL0     C37309   9.282   2.021   3.639  0.1049  0.0246 -0.5757
 1018MOL0     C37310   9.223   2.002   3.780  0.8595  0.1102 -0.1810
 1018MOL0     C37311   9.318   1.940   3.884  0.2695 -0.2321 -0.0730
 1018MOL0     N37312   9.414   2.039   3.936  1.0056 -0.6981  0.1235
 1018MOL0     C37313   9.386   2.151   4.012 -0.4779  0.2683 -0.2518
 1018MOL0     C37314   9.510   2.211   4.013  0.1136  0.0907  0.6051
 1018MOL0     C37315   9.546   2.338   4.091 -0.0889  0.1774 -0.8070
 1018MOL0     C37316   9.433   2.447   4.066  0.4274  0.2938 -0.2620
 1018MOL0     C37317   9.424   2.488   3.918  0.8675 -0.1467 -0.1826
 1018MOL0     C37318   9.283   2.530   3.871 -0.7705  1.0003  0.0001
 1018MOL0     O37319   9.193   2.427   3.897 -0.0036 -0.1019  0.9903
 1018MOL0     C37320   9.065   2.442   3.866 -0.4054  0.5566  0.5985
 1018MOL0     C37321   8.993   2.323   3.876  0.1893  0.1309 -0.0201
 1018MOL0     C37322   8.852   2.330   3.836 -0.0635  1.1868  0.0150
 1018MOL0     C37323   8.776   2.203   3.861 -0.1232  0.9336  0.6027
 1018MOL0     C37324   8.793   2.447   3.785  0.3615 -0.3005  0.9048
 1018MOL0     C37325   8.642   2.459   3.754  0.7360 -0.3209  0.2207
 1018MOL0     O37326   8.590   2.586   3.729 -0.0021  0.1222 -0.6208
 1018MOL0     C37327   8.448   2.600   3.739 -1.1697 -0.1797  0.1956
 1018MOL0     C37328   8.380   2.537   3.841  0.3380  0.5083  0.2256
 1018MOL0     C37329   8.242   2.565   3.844  0.1192 -0.2981  0.3369
 1018MOL0     C37330   8.177   2.651   3.763 -1.3588 -0.1650  1.2650
 1018MOL0     O37331   8.049   2.671   3.805 -0.8240  0.2508 -0.3829
 1018MOL0     C37332   7.960   2.776   3.760  0.3249 -0.1185  0.5879
 1018MOL0     C37333   7.814   2.758   3.814 -0.2470 -0.2261 -0.2070
 1018MOL0     C37334   7.725   2.877   3.786 -0.5575 -0.5214  0.1352
 1018MOL0     C37335   7.607   2.836   3.703  0.5235  0.0990 -0.3708
 1018MOL0     C37336   7.543   2.957   3.638  0.1233 -0.0777 -0.3859
 1018MOL0     C37337   7.409   2.923   3.582  0.1853  0.0623 -0.3590
 1018MOL0     C37338   7.335   3.048   3.532 -0.3646  0.4615  0.2763
 1018MOL0     C37339   7.222   3.007   3.432  0.3749 -0.6054 -0.1382
 1018MOL0    Cl37340   7.085   2.923   3.511  0.2033 -0.1698  0.5352
 1018MOL0     C37341   8.232   2.712   3.659 -0.9198 -0.4150  1.3615
 1018MOL0     C37342   8.373   2.694   3.649  0.6691  0.0743 -0.1119
 1018MOL0     O37343   8.582   2.352   3.723  0.4279 -0.1877  0.1067
 1018MOL0     C37344   8.879   2.555   3.760  0.6341 -0.6315 -0.3260
 1018MOL0     C37345   9.009   2.559   3.808  0.8432 -0.4641 -1.2233
 1018MOL0     N37346   9.606   2.143   3.931  0.5259 -0.2251  0.0953
 1018MOL0     N37347   9.537   2.041   3.887 -0.1835  0.0514 -0.8642
 1018MOL0     C37348   9.815   1.653   2.973 -0.3901 -0.1720  0.8838
 1018MOL0     C37349   9.948   1.671   2.933  0.0838 -0.0201 -0.9937
 1018MOL0     C37350  10.342   1.844   2.781 -0.0081  0.1717  0.8432
 1018MOL0     C37351  10.391   1.885   2.652  0.3639 -0.3580  0.3117
 1018MOL0     C37352  10.529   1.921   2.640 -0.4320  0.3391 -0.4058
 1018MOL0     C37353  10.619   1.902   2.750  1.0101 -0.5975 -0.1404
 1018MOL0     O37354  10.753   1.933   2.746 -0.8595  0.7827 -0.2842
 1018MOL0     C37355  10.788   2.054   2.673 -0.8547 -0.4582  0.6063
 1018MOL0     C37356  10.949   2.078   2.666  0.6525 -0.3977  0.5397
 1018MOL0     C37357  11.018   2.117   2.800 -0.6071 -0.3088 -0.0350
 1018MOL0     C37358  11.176   2.124   2.798  0.5527 -0.0980 -0.6433
 1018MOL0     C37359  11.234   2.157   2.671 -0.4294 -0.2663  0.2489
 1018MOL0     C37360  11.268   2.177   2.552 -1.1368 -0.1059 -0.0203
 1018MOL0     C37361  10.565   1.857   2.881  0.3979 -0.5870 -0.6345
 1018MOL0     C37362  10.430   1.833   2.898  0.5375  0.0289  0.1085
 1018MOL0     H37363  10.023   1.974   3.060 -0.3225 -1.7378  1.8572
 1018MOL0     H37364   9.762   1.934   3.142 -3.4480 -3.5225  1.4615
 1018MOL0     H37365   9.615   1.685   3.275  2.7686  1.9853  2.3472
 1018MOL0     H37366   9.596   1.863   3.251  1.3416  0.7914 -2.8090
 1018MOL0     H37367   9.378   1.854   3.160  0.0814  0.7139  0.3084
 1018MOL0     H37368   9.405   1.679   3.147  1.2206  0.9048 -0.8397
 1018MOL0     H37369   9.267   1.715   3.363  1.3258 -1.2565  0.9064
 1018MOL0     H37370   9.420   1.671   3.404 -0.2912 -1.9059 -1.9194
 1018MOL0     H37371   9.453   1.928   3.470 -1.1552  0.7767  3.2409
 1018MOL0     H37372   9.312   1.955   3.356  0.5257 -1.2578 -1.0323
 1018MOL0     H37373   9.175   1.874   3.526 -1.1783  3.1454 -0.2336
 1018MOL0     H37374   9.311   1.802   3.613  1.5111 -0.8136 -2.1658
 1018MOL0     H37375   9.387   2.050   3.653  0.5008 -1.9489  1.0223
 1018MOL0     H37376   9.242   2.104   3.582  3.3445  2.7249  0.7203
 1018MOL0     H37377   9.193   2.099   3.821  1.9666  0.2538  0.3070
 1018MOL0     H37378   9.133   1.941   3.763  0.4423  0.6531  0.0322
 1018MOL0     H37379   9.369   1.848   3.852  0.2334 -0.1363 -0.4040
 1018MOL0     H37380   9.258   1.914   3.972 -0.7900  0.6386 -0.5198
 1018MOL0     H37381   9.289   2.185   4.048 -0.9950 -0.1752 -1.1931
 1018MOL0     H37382   9.566   2.303   4.192  3.1878 -0.8985 -1.7107
 1018MOL0     H37383   9.641   2.380   4.055  2.0646 -2.2468  1.6577
 1018MOL0     H37384   9.457   2.537   4.124  0.4594  1.3409 -1.8530
 1018MOL0     H37385   9.345   2.391   4.100  0.9780 -0.6105 -0.2967
 1018MOL0     H37386   9.439   2.403   3.851 -2.2713  0.8066 -2.3566
 1018MOL0     H37387   9.506   2.556   3.891 -0.3282  0.9755 -1.1467
 1018MOL0     H37388   9.291   2.531   3.762 -2.2614 -1.2229 -0.1909
 1018MOL0     H37389   9.258   2.629   3.910 -3.3007  0.3711  0.1166
 1018MOL0     H37390   9.026   2.227   3.914 -3.5589 -0.7834  1.3379
 1018MOL0     H37391   8.724   2.181   3.767 -2.5925 -2.3139  2.5393
 1018MOL0     H37392   8.836   2.117   3.893  1.3044  0.5486 -2.6414
 1018MOL0     H37393   8.698   2.218   3.936  1.2358  2.2755  1.8111
 1018MOL0     H37394   8.431   2.471   3.910  1.5927  0.3915 -0.7779
 1018MOL0     H37395   8.177   2.521   3.919  0.7439 -1.6922  0.0790
 1018MOL0     H37396   8.003   2.868   3.801  1.7795 -0.4337 -0.1664
 1018MOL0     H37397   7.963   2.782   3.651 -0.4193 -3.7525  0.2671
 1018MOL0     H37398   7.753   2.674   3.781  0.9374 -1.1346 -0.1659
 1018MOL0     H37399   7.820   2.760   3.923  0.9870  2.6464 -0.2176
 1018MOL0     H37400   7.778   2.959   3.736 -1.0243  0.2273  0.8429
 1018MOL0     H37401   7.680   2.921   3.875 -1.6923  1.1094 -1.1744
 1018MOL0     H37402   7.634   2.774   3.616 -2.8553 -3.0637  0.5409
 1018MOL0     H37403   7.537   2.777   3.763  0.7503 -1.1153 -1.2515
 1018MOL0     H37404   7.607   3.005   3.563 -0.7995  2.6687  0.4366
 1018MOL0     H37405   7.519   3.027   3.719  2.6512 -0.7709  1.0565
 1018MOL0     H37406   7.432   2.850   3.504  3.0759 -0.0908  0.5139
 1018MOL0     H37407   7.346   2.877   3.658 -1.9856  1.5785 -1.1233
 1018MOL0     H37408   7.407   3.114   3.483 -0.4052  0.5250  0.3021
 1018MOL0     H37409   7.306   3.116   3.612  0.9874  0.6670  0.6160
 1018MOL0     H37410   7.259   2.927   3.367 -1.3414 -2.1256  0.6593
 1018MOL0     H37411   7.189   3.087   3.366  0.1777  0.6229  1.3977
 1018MOL0     H37412   8.182   2.777   3.588  3.1115  2.4284  0.7867
 1018MOL0     H37413   8.411   2.758   3.570 -0.0142 -0.6224 -1.0329
 1018MOL0     H37414   8.836   2.645   3.717  1.4839  1.8802  3.6432
 1018MOL0     H37415   9.066   2.641   3.766  0.7414 -0.1164 -0.6974
 1018MOL0     H37416   9.769   1.560   2.942  2.9618 -2.1721  1.4598
 1018MOL0     H37417  10.001   1.588   2.887  1.8286 -1.3588  2.9647
 1018MOL0     H37418  10.324   1.900   2.569  2.6713  1.9108 -1.3148
 1018MOL0     H37419  10.559   1.963   2.544  0.7011  0.0726 -0.1875
 1018MOL0     H37420  10.756   2.035   2.570 -0.7065  1.8454  0.0797
 1018MOL0     H37421  10.738   2.140   2.719 -0.6305 -0.2944  0.5468
 1018MOL0     H37422  10.981   2.145   2.586  1.5904 -2.9033 -1.3394
 1018MOL0     H37423  10.991   1.983   2.630 -0.1065 -0.6220  0.2278
 1018MOL0     H37424  10.998   2.052   2.885  0.2754 -0.9777 -0.3345
 1018MOL0     H37425  10.989   2.221   2.820  2.3253  0.8652 -1.2732
 1018MOL0     H37426  11.207   2.021   2.818 -0.5532 -0.3881 -0.3475
 1018MOL0     H37427  11.212   2.189   2.878 -1.9879 -0.4209  0.8645
 1018MOL0     H37428  11.312   2.194   2.456 -0.0549 -1.7999  0.1290
 1018MOL0     H37429  10.640   1.839   2.958  0.7095 -1.8341 -1.2056
 1018MOL0     H37430  10.404   1.802   2.999  1.7234 -0.7891  0.1809
 1019MOL0     O37431   4.421   2.977   7.552  0.5868  0.3562  0.0045
 1019MOL0     C37432   4.467   2.874   7.504  0.2689  0.0381 -0.0436
 1019MOL0     O37433   4.386   2.761   7.471  0.1257  0.3235  0.1036
 1019MOL0     C37434   4.248   2.761   7.480 -0.1018  0.2068  1.0696
 1019MOL0     C37435   4.191   2.645   7.520  0.3270  0.7715  0.2646
 1019MOL0     C37436   4.050   2.641   7.533 -0.6554  0.1200  0.2055
 1019MOL0     C37437   3.972   2.760   7.505 -0.0335  0.7276 -0.1725
 1019MOL0     O37438   3.834   2.739   7.512 -0.4942  0.7272 -0.1341
 1019MOL0     C37439   3.756   2.838   7.441 -0.1282 -0.0495 -0.2995
 1019MOL0     C37440   3.607   2.815   7.478 -0.1721 -0.0685 -0.9972
 1019MOL0     C37441   3.512   2.928   7.449  0.3502  0.7348  0.2137
 1019MOL0     C37442   3.496   2.976   7.305 -0.4090  0.5939  0.8195
 1019MOL0     C37443   3.388   3.090   7.287 -0.1169 -0.3962  0.0730
 1019MOL0     C37444   3.242   3.056   7.302  0.8928  0.5995  0.1858
 1019MOL0     C37445   3.182   2.972   7.177  0.2906 -0.0738  0.6314
 1019MOL0     C37446   3.026   2.943   7.206 -0.0074  0.2917  0.6985
 1019MOL0     N37447   2.973   2.854   7.092  0.2353 -0.4745 -0.7423
 1019MOL0     C37448   3.034   2.744   7.047  0.6880 -0.2899  0.5122
 1019MOL0     C37449   2.959   2.702   6.942 -0.0019 -0.5660 -0.5284
 1019MOL0     C37450   2.988   2.575   6.869 -0.9179  0.5340 -0.1422
 1019MOL0     C37451   3.009   2.601   6.712  0.3283  0.0452  0.1543
 1019MOL0     C37452   2.996   2.470   6.638 -0.0180 -0.3211 -0.3235
 1019MOL0     C37453   2.853   2.424   6.614 -0.3767  0.3537 -0.6686
 1019MOL0     O37454   2.779   2.510   6.521  0.5764  0.4901 -0.3556
 1019MOL0     C37455   2.649   2.529   6.515 -0.2148 -0.3055 -0.1581
 1019MOL0     C37456   2.602   2.639   6.441 -0.1567 -0.5215  0.7322
 1019MOL0     C37457   2.471   2.690   6.430  0.1312  0.6217 -0.2727
 1019MOL0     C37458   2.431   2.803   6.348  0.2804 -0.0407  0.4137
 1019MOL0     C37459   2.379   2.609   6.508 -0.0515 -0.1816  1.0402
 1019MOL0     C37460   2.232   2.639   6.505  0.3699 -0.5283  0.9600
 1019MOL0     O37461   2.152   2.532   6.551 -0.0220  0.8107  0.6183
 1019MOL0     C37462   2.015   2.545   6.562 -0.5358  0.4745  0.3784
 1019MOL0     C37463   1.948   2.655   6.624 -0.7728 -0.0297  0.2114
 1019MOL0     C37464   1.816   2.670   6.616  0.3691 -0.2267 -0.3082
 1019MOL0     C37465   1.739   2.562   6.569 -0.1396  0.7576  0.2842
 1019MOL0     O37466   1.612   2.597   6.561  0.0745  1.2924  0.5297
 1019MOL0     C37467   1.518   2.496   6.523 -0.3946 -1.0075  0.5390
 1019MOL0     C37468   1.390   2.573   6.533 -0.1170  0.1716  0.4328
 1019MOL0     C37469   1.342   2.615   6.676  0.0727  0.7381  0.5349
 1019MOL0     C37470   1.187   2.612   6.687 -0.9124 -0.0904 -0.2139
 1019MOL0     C37471   1.143   2.680   6.815 -0.4783  0.2132  0.3646
 1019MOL0     C37472   0.989   2.671   6.821  0.0644 -0.2599 -0.0629
 1019MOL0     C37473   0.924   2.791   6.902  0.4787 -0.3254  0.1582
 1019MOL0     C37474   0.852   2.745   7.017 -0.3714 -0.2603 -1.1001
 1019MOL0    Cl37475   0.721   2.634   6.982  0.1601 -0.0532  0.5608
 1019MOL0     C37476   1.794   2.445   6.528  1.2701  0.4637  0.3767
 1019MOL0     C37477   1.934   2.438   6.516  0.4139 -0.2505 -0.5404
 1019MOL0     O37478   2.188   2.746   6.470  0.1668  0.1680 -0.1718
 1019MOL0     C37479   2.426   2.496   6.585  0.0774  0.9251  1.1772
 1019MOL0     C37480   2.558   2.451   6.578 -0.1139  0.3481  0.1700
 1019MOL0     N37481   2.856   2.790   6.926  1.4643  0.1559 -0.1893
 1019MOL0     N37482   2.854   2.885   7.019 -0.3765  0.2684 -0.3033
 1019MOL0     C37483   4.033   2.878   7.467  0.4860  0.2065 -1.0708
 1019MOL0     C37484   4.166   2.875   7.462 -0.0853  0.2517  0.6097
 1019MOL0     C37485   4.610   2.848   7.513  0.2275  0.1724 -0.4878
 1019MOL0     C37486   4.688   2.960   7.556 -0.2305 -0.3532  0.4309
 1019MOL0     C37487   4.829   2.947   7.556 -0.6723  1.0014 -0.1193
 1019MOL0     C37488   4.895   2.835   7.527 -0.0493  0.8955  0.1573
 1019MOL0     O37489   5.036   2.824   7.539  0.0335  0.2795  0.1174
 1019MOL0     C37490   5.101   2.773   7.421  0.0424 -0.3618  0.0828
 1019MOL0     C37491   5.056   2.829   7.280  0.1740 -0.5462  0.0095
 1019MOL0     C37492   5.139   2.789   7.158 -0.0669 -0.1380  0.1917
 1019MOL0     C37493   5.074   2.670   7.077  0.0281  0.0765 -0.2190
 1019MOL0     C37494   5.060   2.556   7.177  0.3459  0.2834 -0.2644
 1019MOL0     C37495   5.040   2.461   7.255  0.0538 -0.3237  0.4348
 1019MOL0     C37496   4.811   2.718   7.490 -1.1161  0.6447  0.5716
 1019MOL0     C37497   4.671   2.726   7.485  0.8961  1.4427 -0.2814
 1019MOL0     H37498   4.258   2.563   7.541 -0.1748  0.4792  0.7476
 1019MOL0     H37499   4.007   2.551   7.576 -0.1759  1.3550  3.6092
 1019MOL0     H37500   3.775   2.939   7.479  0.7915  0.3016 -1.6304
 1019MOL0     H37501   3.775   2.845   7.334 -3.1138  0.5590 -0.8787
 1019MOL0     H37502   3.569   2.729   7.423  3.2983 -1.8906 -0.8461
 1019MOL0     H37503   3.596   2.792   7.585  3.2136  0.1793 -0.4825
 1019MOL0     H37504   3.416   2.886   7.479  2.4168 -1.6798  4.5217
 1019MOL0     H37505   3.539   3.011   7.516  0.8323 -1.3510  2.7995
 1019MOL0     H37506   3.592   3.024   7.281 -0.8784  2.2903  2.1689
 1019MOL0     H37507   3.481   2.885   7.245 -1.3166  2.2898 -1.7187
 1019MOL0     H37508   3.403   3.165   7.365  1.4027 -0.7373  0.1351
 1019MOL0     H37509   3.402   3.142   7.192 -0.7328  1.5482  0.9863
 1019MOL0     H37510   3.216   3.001   7.393  0.4333  2.7892  1.4521
 1019MOL0     H37511   3.186   3.149   7.313  1.4793  0.7279  2.8560
 1019MOL0     H37512   3.185   3.034   7.087 -2.1319  0.3469  0.7875
 1019MOL0     H37513   3.230   2.874   7.164 -0.0483 -0.0597 -0.8258
 1019MOL0     H37514   2.972   3.039   7.207 -1.5095 -0.4815  3.3307
 1019MOL0     H37515   3.012   2.894   7.302 -1.3622 -0.5823  0.0816
 1019MOL0     H37516   3.128   2.697   7.076 -0.2481 -0.7739  3.0841
 1019MOL0     H37517   3.087   2.539   6.898 -0.9138 -0.4324 -1.3181
 1019MOL0     H37518   2.906   2.506   6.892 -1.0147  0.2144 -1.3817
 1019MOL0     H37519   3.110   2.636   6.690 -0.8901  3.1975 -1.1347
 1019MOL0     H37520   2.935   2.674   6.675  1.7694  2.2075  1.3021
 1019MOL0     H37521   3.061   2.385   6.663 -0.7655 -1.3195 -1.6138
 1019MOL0     H37522   3.041   2.492   6.541 -1.4706  2.1554 -0.4897
 1019MOL0     H37523   2.799   2.422   6.709 -0.8676  2.4321 -0.8437
 1019MOL0     H37524   2.867   2.319   6.588 -0.3530  0.1244  0.2437
 1019MOL0     H37525   2.683   2.691   6.391  0.2118  0.9310  2.7237
 1019MOL0     H37526   2.378   2.881   6.403 -1.0480 -0.1725 -0.6338
 1019MOL0     H37527   2.522   2.835   6.296  0.6690 -0.5387  0.7748
 1019MOL0     H37528   2.358   2.783   6.269 -1.6820  2.2925  1.5396
 1019MOL0     H37529   2.008   2.737   6.661 -0.2810 -0.5971  0.7096
 1019MOL0     H37530   1.776   2.765   6.649  0.7223 -0.1331 -0.1545
 1019MOL0     H37531   1.516   2.469   6.417 -1.2642 -0.5876  0.4453
 1019MOL0     H37532   1.509   2.411   6.591 -2.9798 -0.7647  0.5780
 1019MOL0     H37533   1.390   2.655   6.460 -0.8882  0.8741  1.1828
 1019MOL0     H37534   1.314   2.504   6.494  0.7975 -1.5941  1.6642
 1019MOL0     H37535   1.370   2.716   6.706  1.1175  1.5555 -2.8001
 1019MOL0     H37536   1.386   2.549   6.752 -0.7742 -4.0242 -2.6350
 1019MOL0     H37537   1.153   2.669   6.600  1.9221 -0.7995 -1.9425
 1019MOL0     H37538   1.149   2.510   6.676 -0.5092 -0.5481  2.1145
 1019MOL0     H37539   1.186   2.780   6.806  0.2224 -0.1916 -1.2167
 1019MOL0     H37540   1.186   2.633   6.904 -0.8025 -2.1691 -0.6580
 1019MOL0     H37541   0.947   2.691   6.722 -2.7778 -3.7285  0.2393
 1019MOL0     H37542   0.956   2.572   6.855 -1.9466  0.8034  1.2428
 1019MOL0     H37543   0.860   2.839   6.827 -0.8135 -0.7878  0.9352
 1019MOL0     H37544   1.003   2.861   6.931  1.3213 -1.1490 -0.0752
 1019MOL0     H37545   0.820   2.829   7.080  0.7274  0.1340 -1.0361
 1019MOL0     H37546   0.926   2.701   7.085 -0.1798  2.4568  0.6200
 1019MOL0     H37547   1.734   2.363   6.492  1.2782  0.8055 -0.4487
 1019MOL0     H37548   1.979   2.346   6.479 -0.7282 -1.1229  0.1445
 1019MOL0     H37549   2.357   2.441   6.649  2.0792 -1.5247  1.4055
 1019MOL0     H37550   2.568   2.349   6.613 -4.5497 -1.6919 -3.4438
 1019MOL0     H37551   3.984   2.971   7.442 -0.6715 -0.3873 -1.0784
 1019MOL0     H37552   4.223   2.966   7.441 -2.0958  1.3671 -0.2937
 1019MOL0     H37553   4.634   3.051   7.578 -2.9482 -0.8354 -3.2813
 1019MOL0     H37554   4.890   3.033   7.580  1.2339 -0.1541 -0.6471
 1019MOL0     H37555   5.208   2.789   7.435  0.1431  0.5190 -1.4569
 1019MOL0     H37556   5.093   2.665   7.434  0.3017 -0.6996 -2.1605
 1019MOL0     H37557   5.041   2.937   7.290 -0.5630 -0.7637  1.5849
 1019MOL0     H37558   4.954   2.791   7.268  0.4921 -2.3338  2.2427
 1019MOL0     H37559   5.236   2.753   7.191 -0.8600 -0.8376  1.8922
 1019MOL0     H37560   5.162   2.873   7.092  1.3128  1.8522  3.0113
 1019MOL0     H37561   5.141   2.632   7.000  0.3128 -1.4482  0.7376
 1019MOL0     H37562   4.973   2.692   7.042 -1.0187  1.9277  3.3901
 1019MOL0     H37563   5.016   2.384   7.325  0.5024 -0.5060  0.3884
 1019MOL0     H37564   4.834   2.615   7.469 -3.3483 -0.1011  1.4687
 1019MOL0     H37565   4.617   2.634   7.467  0.8282  0.7564  2.8316
 1020MOL0     O37566   1.368  10.308   2.617 -0.4046  0.4505  0.1006
 1020MOL0     C37567   1.342  10.381   2.711 -0.1257  0.0464  0.1664
 1020MOL0     O37568   1.211  10.399   2.759 -0.1287  0.5970 -0.1645
 1020MOL0     C37569   1.104  10.354   2.686 -0.0694 -0.0241  0.2978
 1020MOL0     C37570   1.086  10.217   2.665 -0.5013 -0.1983  0.5143
 1020MOL0     C37571   0.975  10.170   2.603  0.1568 -0.5219  0.2438
 1020MOL0     C37572   0.868  10.248   2.556  0.0086 -0.2698 -0.6313
 1020MOL0     O37573   0.766  10.180   2.500  0.0672 -0.4805 -0.5931
 1020MOL0     C37574   0.630  10.228   2.523 -0.0617 -0.0389  0.6687
 1020MOL0     C37575   0.537  10.134   2.443 -0.2354 -0.9017  0.4206
 1020MOL0     C37576   0.389  10.170   2.468  0.4033 -0.0782  0.5284
 1020MOL0     C37577   0.299  10.088   2.374  0.5596  0.1652 -0.8180
 1020MOL0     C37578   0.148  10.103   2.413 -0.2692  0.0100 -1.1529
 1020MOL0     C37579   0.059  10.005   2.336 -0.8750  0.0501 -0.4359
 1020MOL0     C37580   0.065  10.018   2.183 -0.0747  0.1100 -0.4836
 1020MOL0     C37581  -0.013   9.915   2.105  0.6287 -0.1977 -0.3113
 1020MOL0     N37582  -0.160   9.911   2.127 -1.1880 -0.3496  0.3976
 1020MOL0     C37583  -0.250  10.017   2.126  0.0151 -0.1000 -0.3662
 1020MOL0     C37584  -0.375   9.965   2.139  0.7085 -1.3143 -0.0051
 1020MOL0     C37585  -0.498  10.057   2.134 -1.0655 -0.0689 -0.0922
 1020MOL0     C37586  -0.597   9.985   2.046 -0.7294 -0.2866  0.7741
 1020MOL0     C37587  -0.723  10.070   2.024 -0.3292 -1.3181 -0.3526
 1020MOL0     C37588  -0.826  10.009   1.931 -0.8275  0.3226  0.4201
 1020MOL0     O37589  -0.931  10.107   1.938  0.2600  0.1951  0.3049
 1020MOL0     C37590  -1.046  10.087   2.008  0.0875  1.2118 -0.3072
 1020MOL0     C37591  -1.062   9.980   2.103  0.0588  0.2800  0.2451
 1020MOL0     C37592  -1.182   9.971   2.183  0.0027  0.2356  0.3147
 1020MOL0     C37593  -1.179   9.875   2.293  0.1653  0.5480 -0.1480
 1020MOL0     C37594  -1.293  10.052   2.154  0.3471 -0.4082 -0.1219
 1020MOL0     C37595  -1.430  10.039   2.235  0.2364 -0.2371 -0.1840
 1020MOL0     O37596  -1.466   9.921   2.301  0.1322  0.2544  0.0461
 1020MOL0     C37597  -1.594   9.871   2.306 -0.8087 -0.4490 -0.2714
 1020MOL0     C37598  -1.708   9.915   2.228  0.4640  1.0904  0.3512
 1020MOL0     C37599  -1.828   9.845   2.244  0.9231  1.2620  0.0097
 1020MOL0     C37600  -1.837   9.733   2.328 -1.2105  0.3183  0.1487
 1020MOL0     O37601  -1.947   9.648   2.343  0.1624 -0.4997  0.2739
 1020MOL0     C37602  -2.069   9.673   2.278 -0.2928 -0.2245 -0.8881
 1020MOL0     C37603  -2.185   9.602   2.336 -0.4583  0.7457  0.6807
 1020MOL0     C37604  -2.205   9.476   2.255  0.3592 -0.1050 -0.8062
 1020MOL0     C37605  -2.335   9.423   2.317 -0.7855 -0.3094 -0.3813
 1020MOL0     C37606  -2.376   9.301   2.231 -0.3740  0.3048  0.2390
 1020MOL0     C37607  -2.483   9.212   2.297 -0.5625  0.0540  0.0626
 1020MOL0     C37608  -2.612   9.293   2.343  0.2921  0.4216  0.6069
 1020MOL0     C37609  -2.648   9.289   2.493 -0.5172 -0.5407 -0.2258
 1020MOL0    Cl37610  -2.694   9.142   2.555 -0.1886 -0.4228 -0.3863
 1020MOL0     C37611  -1.727   9.698   2.408  0.2529  0.6639  0.5155
 1020MOL0     C37612  -1.605   9.771   2.395 -0.4760 -0.2565 -0.1808
 1020MOL0     O37613  -1.502  10.139   2.210  0.0357  0.0587  0.5393
 1020MOL0     C37614  -1.275  10.154   2.059 -0.3946  0.0434  0.1598
 1020MOL0     C37615  -1.151  10.176   1.995  0.0367  0.5360  0.9130
 1020MOL0     N37616  -0.358   9.830   2.167 -0.2851 -0.5262  0.8904
 1020MOL0     N37617  -0.230   9.801   2.153 -0.3114 -0.0824 -0.6480
 1020MOL0     C37618   0.879  10.389   2.577  0.0692 -1.2969 -0.7733
 1020MOL0     C37619   1.000  10.442   2.640 -0.4043 -0.2665  0.6145
 1020MOL0     C37620   1.453  10.445   2.777  0.3654 -0.5528  0.0475
 1020MOL0     C37621   1.583  10.407   2.771 -0.8795  0.1469 -0.0221
 1020MOL0     C37622   1.691  10.474   2.848 -0.2269  1.0768 -0.7751
 1020MOL0     C37623   1.662  10.579   2.936  0.3696  0.5866  0.0595
 1020MOL0     O37624   1.757  10.656   3.004  0.5387 -0.1384 -0.1719
 1020MOL0     C37625   1.899  10.627   3.005  0.0647 -0.5049  0.0915
 1020MOL0     C37626   1.970  10.673   2.876 -0.0877 -0.5738 -0.3418
 1020MOL0     C37627   2.119  10.633   2.887 -0.4849  0.4877 -0.3556
 1020MOL0     C37628   2.213  10.694   2.784 -0.2217 -0.2788 -0.3376
 1020MOL0     C37629   2.197  10.840   2.792 -0.3314  1.2299 -0.0215
 1020MOL0     C37630   2.215  10.953   2.799 -0.3562 -0.7196  0.4100
 1020MOL0     C37631   1.524  10.618   2.930  0.5796  0.1191 -0.5245
 1020MOL0     C37632   1.421  10.555   2.856 -0.5456 -0.1956 -0.5019
 1020MOL0     H37633   1.173  10.166   2.705  1.9648  1.7799 -1.8631
 1020MOL0     H37634   0.978  10.061   2.597  3.3037 -0.5183  0.5106
 1020MOL0     H37635   0.604  10.230   2.629  0.3468  2.0599  0.7666
 1020MOL0     H37636   0.621  10.333   2.494  0.1951  0.1523  1.2642
 1020MOL0     H37637   0.560  10.149   2.337 -3.0234  4.9961  0.2350
 1020MOL0     H37638   0.558  10.030   2.468 -0.1914 -0.7957  0.8281
 1020MOL0     H37639   0.363  10.162   2.574  0.5972  0.8886  0.6661
 1020MOL0     H37640   0.377  10.276   2.442  2.8008  0.4106  1.1289
 1020MOL0     H37641   0.316  10.123   2.272 -0.9249 -0.2740 -1.2353
 1020MOL0     H37642   0.335   9.985   2.382  0.4931  0.1983 -0.0301
 1020MOL0     H37643   0.145  10.074   2.519 -0.2249 -2.3404 -1.7489
 1020MOL0     H37644   0.098  10.199   2.396 -2.0444 -0.8055 -0.8210
 1020MOL0     H37645   0.093   9.907   2.372  1.7739  1.3882  1.0465
 1020MOL0     H37646  -0.046  10.012   2.364 -0.6525 -1.7517  1.0518
 1020MOL0     H37647   0.037  10.122   2.163  2.1834  0.8677 -0.0999
 1020MOL0     H37648   0.171  10.004   2.158 -0.7110 -0.7568 -2.9390
 1020MOL0     H37649   0.033   9.823   2.142  1.1287  0.0709 -0.2580
 1020MOL0     H37650   0.011   9.931   1.999  2.1453  3.3018  0.4349
 1020MOL0     H37651  -0.228  10.122   2.116 -1.7989  0.2632 -0.9184
 1020MOL0     H37652  -0.540  10.075   2.233  1.9680  0.1632  1.2842
 1020MOL0     H37653  -0.466  10.153   2.091 -1.0382 -1.1706 -2.7275
 1020MOL0     H37654  -0.635   9.898   2.100 -0.8381 -1.2541 -0.7987
 1020MOL0     H37655  -0.550   9.960   1.950  0.5671 -2.0596  1.8070
 1020MOL0     H37656  -0.701  10.170   1.987 -0.3279 -0.6328  1.3827
 1020MOL0     H37657  -0.776  10.091   2.117 -1.3859 -1.1775 -0.9726
 1020MOL0     H37658  -0.845   9.903   1.951  1.4883 -0.4086 -0.9319
 1020MOL0     H37659  -0.781  10.022   1.832  1.2189  3.0643  1.5610
 1020MOL0     H37660  -0.982   9.911   2.127 -1.1766 -0.1339  3.7444
 1020MOL0     H37661  -1.163   9.908   2.396  1.8491 -0.9443  0.1270
 1020MOL0     H37662  -1.270   9.815   2.292 -1.3543  2.7345  0.6303
 1020MOL0     H37663  -1.111   9.796   2.258 -0.4679 -0.6869  1.3129
 1020MOL0     H37664  -1.701   9.999   2.160 -1.4136  1.4033  0.5077
 1020MOL0     H37665  -1.915   9.880   2.189  0.9696  1.6309  0.1627
 1020MOL0     H37666  -2.092   9.780   2.280  3.4330  0.7681 -2.3670
 1020MOL0     H37667  -2.042   9.664   2.173  0.1870 -0.7045 -0.7292
 1020MOL0     H37668  -2.162   9.587   2.442 -1.8654  2.8483  1.3520
 1020MOL0     H37669  -2.272   9.669   2.332 -0.5103  0.6072 -1.0183
 1020MOL0     H37670  -2.127   9.400   2.255  0.2641 -0.2025 -0.6701
 1020MOL0     H37671  -2.224   9.499   2.149  0.2574  0.1781 -0.7292
 1020MOL0     H37672  -2.315   9.393   2.421 -2.1004  0.6757  0.1831
 1020MOL0     H37673  -2.409   9.503   2.312 -0.7422 -0.3106 -1.1751
 1020MOL0     H37674  -2.286   9.245   2.205  0.5039  0.5888  2.4096
 1020MOL0     H37675  -2.435   9.341   2.149 -2.4643 -0.8070  1.1085
 1020MOL0     H37676  -2.510   9.131   2.228  2.0704 -2.1863  1.4491
 1020MOL0     H37677  -2.436   9.159   2.379 -2.2875 -2.6612 -0.5861
 1020MOL0     H37678  -2.695   9.256   2.282  0.7301 -0.0679  0.2891
 1020MOL0     H37679  -2.601   9.400   2.325 -0.3071  0.6998  1.8276
 1020MOL0     H37680  -2.739   9.351   2.495 -2.3248 -2.9467 -1.7816
 1020MOL0     H37681  -2.565   9.330   2.551  0.1499 -3.7925  1.3206
 1020MOL0     H37682  -1.738   9.624   2.487  1.5797  1.5575  1.5929
 1020MOL0     H37683  -1.524   9.735   2.457  0.0524 -0.8942 -1.2030
 1020MOL0     H37684  -1.365  10.206   2.027  1.3925  0.8627 -4.3587
 1020MOL0     H37685  -1.149  10.247   1.913  1.0683 -1.3024 -0.7401
 1020MOL0     H37686   0.803  10.462   2.552  1.5314  0.5377 -0.1363
 1020MOL0     H37687   1.015  10.549   2.654 -0.9044 -0.1910  0.5733
 1020MOL0     H37688   1.615  10.334   2.697  0.6118  2.5311 -1.8724
 1020MOL0     H37689   1.795  10.443   2.839 -0.7233 -0.7948 -0.4890
 1020MOL0     H37690   1.949  10.658   3.097  3.7619 -1.5767 -1.3787
 1020MOL0     H37691   1.913  10.519   3.001  0.7963 -0.3799 -0.9712
 1020MOL0     H37692   1.958  10.781   2.867  0.2184 -0.3352  1.6354
 1020MOL0     H37693   1.934  10.624   2.785  1.9889 -2.4416 -0.2494
 1020MOL0     H37694   2.107  10.524   2.891 -3.8042  0.7907  1.1685
 1020MOL0     H37695   2.155  10.675   2.982  0.4236  3.5227 -1.9258
 1020MOL0     H37696   2.197  10.676   2.677  2.4411 -0.4650 -0.7750
 1020MOL0     H37697   2.315  10.667   2.811 -0.7376 -1.6754  0.3426
 1020MOL0     H37698   2.232  11.059   2.794  2.3014 -1.1427 -2.3737
 1020MOL0     H37699   1.488  10.704   2.984  0.5617 -0.3783  0.2661
 1020MOL0     H37700   1.319  10.593   2.852 -0.4433  0.4089  1.3921
 1021MOL0     O37701   2.908   8.817   8.563  0.3309  0.1025  0.2532
 1021MOL0     C37702   2.933   8.926   8.507 -0.3628 -0.1862  0.1967
 1021MOL0     O37703   2.843   9.024   8.496  0.0050 -0.4868  0.3088
 1021MOL0     C37704   2.716   9.021   8.556 -0.5550  0.0663  0.4223
 1021MOL0     C37705   2.654   8.934   8.656 -0.3165 -0.0315 -0.7999
 1021MOL0     C37706   2.520   8.944   8.676 -0.0977  1.7539 -0.1688
 1021MOL0     C37707   2.434   9.037   8.611  0.2465 -0.3310  0.4619
 1021MOL0     O37708   2.307   9.051   8.647 -0.4247  0.5074 -0.0830
 1021MOL0     C37709   2.289   9.121   8.768 -0.1009  0.2778  0.5862
 1021MOL0     C37710   2.144   9.099   8.808  0.2684 -0.2435  0.6427
 1021MOL0     C37711   2.115   9.165   8.944  0.0584  0.3051  0.4110
 1021MOL0     C37712   1.966   9.183   8.961  0.8909  0.5359 -0.8898
 1021MOL0     C37713   1.925   9.237   9.102 -0.3208  0.4678 -0.7849
 1021MOL0     C37714   1.780   9.278   9.104  0.5145  0.2700 -0.1015
 1021MOL0     C37715   1.681   9.157   9.076 -0.0928 -0.6652  0.1261
 1021MOL0     C37716   1.540   9.184   9.119 -0.5890 -0.0504 -0.0873
 1021MOL0     N37717   1.463   9.263   9.022 -0.2668 -0.0813  0.7176
 1021MOL0     C37718   1.444   9.398   9.020  0.3333  0.7789 -0.5881
 1021MOL0     C37719   1.390   9.424   8.897  0.1374 -0.2461  0.2418
 1021MOL0     C37720   1.359   9.550   8.829 -0.3358 -0.3269  0.6830
 1021MOL0     C37721   1.453   9.574   8.705  0.1709 -0.0697  0.5384
 1021MOL0     C37722   1.436   9.706   8.630 -0.4677  0.4940 -0.3669
 1021MOL0     C37723   1.502   9.833   8.694  0.6929 -0.7095  0.0048
 1021MOL0     O37724   1.434   9.955   8.644 -0.1427 -0.2791 -0.6989
 1021MOL0     C37725   1.336  10.007   8.724 -0.4007  0.0407 -0.2583
 1021MOL0     C37726   1.206   9.975   8.709 -0.2450 -0.1997 -0.9629
 1021MOL0     C37727   1.107  10.026   8.800 -0.1027  0.4136  1.2591
 1021MOL0     C37728   0.964   9.983   8.771 -0.2798 -0.6312  0.9086
 1021MOL0     C37729   1.136  10.120   8.899 -0.2595 -0.2185  0.4248
 1021MOL0     C37730   1.047  10.162   9.000 -0.4362  0.5444 -1.1530
 1021MOL0     O37731   0.940  10.085   9.041 -0.2093 -0.2047  0.3672
 1021MOL0     C37732   0.858  10.113   9.146 -0.3742 -0.2587  0.7335
 1021MOL0     C37733   0.916  10.158   9.265  0.0637  0.5230  0.1351
 1021MOL0     C37734   0.844  10.157   9.387  0.2532 -0.1784 -0.1729
 1021MOL0     C37735   0.701  10.129   9.381 -0.2777 -0.7885 -0.0594
 1021MOL0     O37736   0.637  10.125   9.502  1.1814 -0.0013  0.1084
 1021MOL0     C37737   0.545  10.019   9.516  0.3887 -0.0639 -1.1935
 1021MOL0     C37738   0.476  10.034   9.660 -0.0424  0.8705  0.3595
 1021MOL0     C37739   0.378  10.147   9.666  0.4529  0.6523 -0.1040
 1021MOL0     C37740   0.289  10.162   9.790 -0.6646 -0.1574  0.1650
 1021MOL0     C37741   0.219  10.292   9.804  0.8161  0.4031  0.1186
 1021MOL0     C37742   0.131  10.277   9.925  0.6497 -0.1193 -0.4488
 1021MOL0     C37743   0.053  10.412   9.949 -0.3541  0.4703 -0.3868
 1021MOL0     C37744   0.153  10.535   9.971  0.2014 -0.1883  0.1284
 1021MOL0    Cl37745   0.049  10.662  10.025 -0.0407 -0.2398  0.1396
 1021MOL0     C37746   0.646  10.088   9.255  0.0693 -0.9021  0.0897
 1021MOL0     C37747   0.721  10.083   9.141 -0.2932  0.4740 -0.0175
 1021MOL0     O37748   1.076  10.272   9.044  0.2286 -0.3366  0.1227
 1021MOL0     C37749   1.271  10.161   8.904 -0.6676  0.6479  0.7980
 1021MOL0     C37750   1.367  10.107   8.816  0.3331  0.6633  0.5605
 1021MOL0     N37751   1.389   9.302   8.827 -0.1656 -0.0822  0.3329
 1021MOL0     N37752   1.435   9.205   8.903 -0.9980  0.4204  0.4556
 1021MOL0     C37753   2.490   9.126   8.523  0.1311 -0.6208  0.4450
 1021MOL0     C37754   2.630   9.123   8.501 -0.2571  0.6245 -0.0232
 1021MOL0     C37755   3.063   8.944   8.441  0.4012  0.1278  0.2863
 1021MOL0     C37756   3.170   8.850   8.451  0.1239 -0.5430  0.1293
 1021MOL0     C37757   3.292   8.879   8.383  0.1791 -0.0242 -0.6931
 1021MOL0     C37758   3.304   8.994   8.301 -0.1238  0.2193 -0.7827
 1021MOL0     O37759   3.416   9.018   8.234 -0.6023  0.2516 -0.3106
 1021MOL0     C37760   3.446   8.912   8.136 -0.2927 -0.2615 -0.5439
 1021MOL0     C37761   3.500   8.977   8.005  0.3217 -0.2220 -0.0815
 1021MOL0     C37762   3.637   9.029   8.013  0.5180  0.1883  0.6972
 1021MOL0     C37763   3.724   8.908   7.996 -0.2344  0.6983 -0.4318
 1021MOL0     C37764   3.855   8.933   8.054 -0.1547  0.1520 -1.3661
 1021MOL0     C37765   3.959   8.965   8.116  0.0110 -0.5075  0.1059
 1021MOL0     C37766   3.198   9.088   8.289 -0.2892  0.3285 -0.3765
 1021MOL0     C37767   3.082   9.066   8.369  0.0272  0.4735 -0.1890
 1021MOL0     H37768   2.718   8.862   8.704  0.3671  0.6618 -0.6458
 1021MOL0     H37769   2.476   8.871   8.743 -1.5976  2.2033 -0.6217
 1021MOL0     H37770   2.335   9.079   8.858  0.4326 -0.1481  0.1153
 1021MOL0     H37771   2.308   9.227   8.750 -1.6100  0.6599  1.0794
 1021MOL0     H37772   2.090   9.149   8.728  2.8762  0.7012 -0.6481
 1021MOL0     H37773   2.106   8.996   8.809  0.2296 -0.2401  1.9967
 1021MOL0     H37774   2.151   9.097   9.022 -5.5971 -0.8361  2.4931
 1021MOL0     H37775   2.163   9.264   8.940  1.1355 -0.1947  0.6786
 1021MOL0     H37776   1.922   9.240   8.879  0.5699  2.3690  0.4961
 1021MOL0     H37777   1.926   9.081   8.965 -1.2091  1.3457  1.5515
 1021MOL0     H37778   1.941   9.150   9.166  0.5615 -0.5104 -2.2604
 1021MOL0     H37779   1.998   9.315   9.124  1.8986 -1.8889  0.7479
 1021MOL0     H37780   1.777   9.301   9.211  1.2876 -3.1831  0.7952
 1021MOL0     H37781   1.758   9.365   9.042  0.8950 -0.7987 -1.7803
 1021MOL0     H37782   1.699   9.149   8.968  2.9572  1.2328  0.3603
 1021MOL0     H37783   1.734   9.072   9.120  3.4802  1.0448 -0.4501
 1021MOL0     H37784   1.539   9.239   9.213 -3.4505 -2.3294  1.4195
 1021MOL0     H37785   1.490   9.087   9.128  1.3169 -1.2359 -1.5429
 1021MOL0     H37786   1.465   9.471   9.098  1.6684 -1.3733  1.1811
 1021MOL0     H37787   1.255   9.557   8.796  0.6012  1.7081 -2.2492
 1021MOL0     H37788   1.389   9.633   8.894  0.5425 -1.1869  1.4002
 1021MOL0     H37789   1.440   9.494   8.631 -2.4440  1.8143 -1.2420
 1021MOL0     H37790   1.556   9.585   8.738 -0.3692  2.9936  1.5617
 1021MOL0     H37791   1.329   9.715   8.608 -0.4001  2.7297 -0.0176
 1021MOL0     H37792   1.485   9.699   8.532 -2.8238  0.3819 -1.6232
 1021MOL0     H37793   1.606   9.817   8.667  0.9132 -1.5627  1.2723
 1021MOL0     H37794   1.502   9.824   8.803  1.8690 -1.0273 -0.0055
 1021MOL0     H37795   1.177   9.896   8.640  0.2962 -0.1337 -1.2725
 1021MOL0     H37796   0.951   9.923   8.680 -0.3076 -0.3702  0.7403
 1021MOL0     H37797   0.931   9.914   8.849  1.7350 -1.2434  1.2710
 1021MOL0     H37798   0.895  10.068   8.763 -0.9935 -1.0938  1.8847
 1021MOL0     H37799   1.024  10.168   9.260  0.4488 -2.3803  0.5458
 1021MOL0     H37800   0.890  10.178   9.483  0.3590 -1.4102  0.0623
 1021MOL0     H37801   0.458  10.031   9.450  1.8900  0.3647 -3.1944
 1021MOL0     H37802   0.584   9.919   9.494 -0.0883 -0.4494 -0.3402
 1021MOL0     H37803   0.424   9.943   9.694  2.9874 -0.3313  2.1974
 1021MOL0     H37804   0.555  10.045   9.735 -0.2718  1.9313  0.4644
 1021MOL0     H37805   0.302  10.143   9.587  0.5023  1.0392 -0.1738
 1021MOL0     H37806   0.428  10.240   9.639  0.3050  0.6252 -0.4808
 1021MOL0     H37807   0.220  10.078   9.789 -0.9672  0.0897  0.0701
 1021MOL0     H37808   0.357  10.150   9.875  0.3807  1.4910 -0.3745
 1021MOL0     H37809   0.167  10.318   9.712  0.7637 -4.4931 -1.5306
 1021MOL0     H37810   0.284  10.377   9.830  0.2054  0.7388  0.5861
 1021MOL0     H37811   0.047  10.211   9.899  0.9676 -0.7025 -0.0267
 1021MOL0     H37812   0.177  10.254  10.021  0.8368  3.0941  0.3425
 1021MOL0     H37813  -0.006  10.413  10.041 -0.1537  2.3870 -0.2241
 1021MOL0     H37814  -0.013  10.432   9.864 -0.3988 -0.6844 -0.6378
 1021MOL0     H37815   0.211  10.568   9.884 -0.4539  0.3712 -0.1060
 1021MOL0     H37816   0.214  10.494  10.052  3.2427  0.6092 -1.6074
 1021MOL0     H37817   0.542  10.059   9.251 -0.5126  1.0592 -3.2388
 1021MOL0     H37818   0.685  10.048   9.044  0.4723  1.3944 -0.6561
 1021MOL0     H37819   1.307  10.244   8.965  1.6700  1.2148 -1.2045
 1021MOL0     H37820   1.471  10.136   8.814  0.4600  0.9585 -4.8757
 1021MOL0     H37821   2.436   9.204   8.469  3.4267  0.7226 -1.2898
 1021MOL0     H37822   2.657   9.201   8.432 -2.0185 -0.2319 -1.7839
 1021MOL0     H37823   3.155   8.762   8.513  0.2106 -1.3806 -1.0026
 1021MOL0     H37824   3.376   8.813   8.399  1.3785  1.2857 -1.4537
 1021MOL0     H37825   3.515   8.852   8.196 -0.8717  3.0269  3.9816
 1021MOL0     H37826   3.354   8.860   8.109 -0.4981  0.8526 -2.1193
 1021MOL0     H37827   3.437   9.060   7.972 -0.2644 -0.5311  0.2460
 1021MOL0     H37828   3.498   8.909   7.919 -2.8697  2.2519 -2.2111
 1021MOL0     H37829   3.656   9.078   8.109 -0.4502  1.1413  0.4232
 1021MOL0     H37830   3.656   9.097   7.929 -1.8915 -2.9706 -2.7091
 1021MOL0     H37831   3.747   8.894   7.889 -1.6287  0.5952 -0.7343
 1021MOL0     H37832   3.683   8.816   8.036 -2.1799  1.1304 -1.2885
 1021MOL0     H37833   4.059   8.980   8.153  0.4642 -1.8542 -0.5028
 1021MOL0     H37834   3.200   9.178   8.229 -2.2987 -0.4840 -1.7366
 1021MOL0     H37835   3.004   9.142   8.363 -0.0335  0.3000 -2.1431
 1022MOL0     O37836   3.865   5.064   9.073 -0.5450  0.3711 -0.3762
 1022MOL0     C37837   3.865   4.998   8.975  0.2847  0.3963  0.0497
 1022MOL0     O37838   3.953   4.896   8.941  0.5330  0.9271 -0.0012
 1022MOL0     C37839   4.062   4.864   9.021 -0.3594 -0.5352  0.4180
 1022MOL0     C37840   4.131   4.746   8.982  0.3531 -0.4117 -0.8331
 1022MOL0     C37841   4.257   4.714   9.025  0.8577 -0.0992  0.8729
 1022MOL0     C37842   4.315   4.780   9.123  0.0734  0.8385  0.8134
 1022MOL0     O37843   4.442   4.756   9.163  0.5430 -1.0896 -0.0702
 1022MOL0     C37844   4.506   4.634   9.122  0.3781 -0.0252  0.0914
 1022MOL0     C37845   4.635   4.620   9.207 -0.4525  0.1938 -0.0578
 1022MOL0     C37846   4.721   4.495   9.194 -0.1579  0.3873  0.3202
 1022MOL0     C37847   4.654   4.367   9.228  0.0176  0.1910 -0.0322
 1022MOL0     C37848   4.745   4.245   9.251  0.1317  1.2299 -0.5441
 1022MOL0     C37849   4.823   4.252   9.392 -0.6497 -0.1786  0.8575
 1022MOL0     C37850   4.743   4.230   9.521  0.4558  0.4941 -0.5440
 1022MOL0     C37851   4.822   4.240   9.649 -0.3667 -0.1771 -0.2184
 1022MOL0     N37852   4.948   4.176   9.647  0.2668 -0.2448  0.3223
 1022MOL0     C37853   4.966   4.042   9.642 -0.7472  0.4614 -0.2518
 1022MOL0     C37854   5.094   4.017   9.627  0.2190 -0.8174 -0.3036
 1022MOL0     C37855   5.150   3.885   9.584 -0.1342 -0.7115  0.4075
 1022MOL0     C37856   5.136   3.853   9.434 -0.5995 -0.1787 -0.0338
 1022MOL0     C37857   5.185   3.718   9.388 -0.0234 -0.6157  0.2274
 1022MOL0     C37858   5.167   3.692   9.241 -0.3652  0.4753  0.5421
 1022MOL0     O37859   5.043   3.734   9.192  0.3723 -0.5309  0.8782
 1022MOL0     C37860   4.933   3.649   9.189 -0.2090  0.2973  0.9157
 1022MOL0     C37861   4.914   3.534   9.270  0.4443  0.0938  0.1900
 1022MOL0     C37862   4.801   3.450   9.280  0.5858 -0.1623  0.1824
 1022MOL0     C37863   4.808   3.326   9.356 -0.4928 -0.8997  0.5098
 1022MOL0     C37864   4.688   3.492   9.197 -0.6873 -0.0494 -0.7605
 1022MOL0     C37865   4.558   3.426   9.210 -0.0967  0.5364 -0.5199
 1022MOL0     O37866   4.472   3.419   9.097  0.3512  0.4714 -0.0971
 1022MOL0     C37867   4.338   3.390   9.095  0.6475 -0.4881 -0.3333
 1022MOL0     C37868   4.260   3.434   8.987  0.1734  0.9289  0.5101
 1022MOL0     C37869   4.130   3.402   8.969 -0.2357  0.5048 -0.0813
 1022MOL0     C37870   4.055   3.315   9.061 -0.1039  0.4759 -0.3514
 1022MOL0     O37871   3.930   3.280   9.020  0.5721  0.4144  0.3987
 1022MOL0     C37872   3.858   3.179   9.096 -0.5661 -0.7329  0.5610
 1022MOL0     C37873   3.724   3.161   9.020  0.0050  0.7520 -0.5753
 1022MOL0     C37874   3.634   3.269   9.059 -0.4603 -0.4283  0.7497
 1022MOL0     C37875   3.494   3.264   9.006  0.2637  1.0742  0.5999
 1022MOL0     C37876   3.378   3.328   9.082  0.3144 -0.6061 -0.1490
 1022MOL0     C37877   3.349   3.273   9.218  0.6083 -0.3565 -0.3308
 1022MOL0     C37878   3.303   3.120   9.226  0.7957  0.6172 -0.0995
 1022MOL0     C37879   3.313   3.078   9.374  1.0048 -0.5458 -0.4847
 1022MOL0    Cl37880   3.271   3.214   9.473 -0.3293 -0.3195  0.2227
 1022MOL0     C37881   4.124   3.282   9.177 -0.2203 -0.8119  0.6806
 1022MOL0     C37882   4.262   3.317   9.197  0.1685 -0.0618  0.4046
 1022MOL0     O37883   4.529   3.378   9.323  0.3380 -0.1676  0.0441
 1022MOL0     C37884   4.711   3.595   9.105 -0.2734  0.6419 -0.7141
 1022MOL0     C37885   4.832   3.677   9.094  0.6341  1.0291 -0.2574
 1022MOL0     N37886   5.158   4.139   9.621 -0.5447 -0.6808 -0.8819
 1022MOL0     N37887   5.068   4.236   9.625  0.1328  0.2870  0.0309
 1022MOL0     C37888   4.244   4.888   9.179  0.6415 -0.0003  0.6203
 1022MOL0     C37889   4.123   4.938   9.121  0.4415  0.5210 -0.0884
 1022MOL0     C37890   3.763   5.045   8.876 -0.2364  0.2388 -0.5325
 1022MOL0     C37891   3.778   4.997   8.745 -0.0682 -0.0246 -0.1130
 1022MOL0     C37892   3.690   5.040   8.651 -0.5065  0.0578 -0.1806
 1022MOL0     C37893   3.591   5.135   8.667  0.5413 -0.4098 -0.6627
 1022MOL0     O37894   3.515   5.176   8.554  0.2323  0.2474  0.0216
 1022MOL0     C37895   3.416   5.278   8.560  0.0933  0.5668 -0.1012
 1022MOL0     C37896   3.367   5.312   8.418 -0.0094  0.2731 -0.4551
 1022MOL0     C37897   3.228   5.375   8.413  0.3687  0.9229  0.5283
 1022MOL0     C37898   3.203   5.423   8.266 -0.1380 -0.0969 -0.4111
 1022MOL0     C37899   3.066   5.439   8.248  0.6760  0.0444 -1.0923
 1022MOL0     C37900   2.956   5.472   8.215 -0.0142 -0.7035 -0.4104
 1022MOL0     C37901   3.569   5.184   8.803  0.1289 -0.4272  1.1713
 1022MOL0     C37902   3.656   5.140   8.902 -0.3947  0.4673 -0.0270
 1022MOL0     H37903   4.072   4.694   8.907 -0.3389  1.7458 -1.8612
 1022MOL0     H37904   4.289   4.616   8.990  0.5036 -0.2722  1.0290
 1022MOL0     H37905   4.436   4.552   9.141 -0.9329  1.3426  1.5685
 1022MOL0     H37906   4.524   4.626   9.015 -1.1738  0.7010 -0.2524
 1022MOL0     H37907   4.700   4.701   9.175 -0.9244  0.6916  0.2125
 1022MOL0     H37908   4.614   4.635   9.314  0.1173 -0.1358  0.1025
 1022MOL0     H37909   4.761   4.483   9.093 -0.9379 -1.2514  0.1621
 1022MOL0     H37910   4.804   4.523   9.260 -0.9073  2.9438  0.2663
 1022MOL0     H37911   4.609   4.376   9.327  0.8270  1.4104  0.2517
 1022MOL0     H37912   4.578   4.348   9.151 -0.3808 -0.6138  0.5490
 1022MOL0     H37913   4.696   4.149   9.236  2.3285  0.0721 -0.6532
 1022MOL0     H37914   4.821   4.245   9.173  0.4518  0.4567 -0.2389
 1022MOL0     H37915   4.898   4.173   9.380 -1.7322 -1.1730  0.3942
 1022MOL0     H37916   4.873   4.348   9.408  0.4892 -0.2264 -1.9017
 1022MOL0     H37917   4.666   4.304   9.544 -0.1084 -0.5940  1.2776
 1022MOL0     H37918   4.690   4.135   9.513  0.6698  0.3366 -0.1067
 1022MOL0     H37919   4.763   4.193   9.728 -0.2201 -0.6098 -0.3580
 1022MOL0     H37920   4.847   4.344   9.670  2.4123 -0.6333 -0.8738
 1022MOL0     H37921   4.892   3.965   9.627 -1.1042  0.1255  2.5854
 1022MOL0     H37922   5.256   3.866   9.599  0.0489 -3.3238 -2.8779
 1022MOL0     H37923   5.087   3.811   9.636 -1.0519  0.1541  0.5575
 1022MOL0     H37924   5.194   3.933   9.388  2.1329 -1.1625  1.4758
 1022MOL0     H37925   5.029   3.863   9.415 -0.6532  0.8218  0.6900
 1022MOL0     H37926   5.125   3.648   9.446 -3.4418  0.3425 -1.8397
 1022MOL0     H37927   5.289   3.689   9.405  0.4130 -0.3926 -1.8273
 1022MOL0     H37928   5.178   3.583   9.231  0.5771  0.4475  1.7207
 1022MOL0     H37929   5.247   3.740   9.183 -0.5168 -0.4186 -0.4436
 1022MOL0     H37930   4.990   3.513   9.345  0.7814  2.3001  0.5169
 1022MOL0     H37931   4.903   3.291   9.398 -1.5520 -5.1636 -0.1625
 1022MOL0     H37932   4.738   3.335   9.439 -1.7023  0.1975 -0.5983
 1022MOL0     H37933   4.782   3.244   9.288 -1.8432  0.9445 -1.3004
 1022MOL0     H37934   4.305   3.499   8.912 -0.4955 -1.2960 -2.0040
 1022MOL0     H37935   4.094   3.428   8.870 -1.9857 -2.5259 -0.3497
 1022MOL0     H37936   3.922   3.091   9.090  0.2834 -0.1182  0.3333
 1022MOL0     H37937   3.841   3.220   9.196 -0.2944  2.5890 -0.6121
 1022MOL0     H37938   3.745   3.150   8.914  0.5037  1.7829 -0.5998
 1022MOL0     H37939   3.687   3.065   9.056 -0.6240  1.3188  0.3546
 1022MOL0     H37940   3.670   3.367   9.026  0.7931 -1.0789  0.0744
 1022MOL0     H37941   3.626   3.263   9.168 -1.0630 -0.9446  0.6827
 1022MOL0     H37942   3.512   3.294   8.902  0.1811 -3.8504 -1.0921
 1022MOL0     H37943   3.475   3.156   8.998 -0.7512  1.3276 -0.7854
 1022MOL0     H37944   3.294   3.315   9.013  1.6265 -2.6504 -1.5053
 1022MOL0     H37945   3.398   3.433   9.105  2.4186 -1.1020  0.5344
 1022MOL0     H37946   3.429   3.292   9.291 -0.3849 -0.9135  0.9436
 1022MOL0     H37947   3.264   3.340   9.233  1.3846  0.7624 -0.7592
 1022MOL0     H37948   3.366   3.057   9.163  2.1141  0.6312  1.1651
 1022MOL0     H37949   3.201   3.111   9.187  0.1493 -0.6606  1.7353
 1022MOL0     H37950   3.415   3.048   9.398  1.7631  3.1993  1.8685
 1022MOL0     H37951   3.239   3.001   9.396 -2.2746  2.9557  2.3865
 1022MOL0     H37952   4.071   3.225   9.252 -3.9946  1.6398  0.1274
 1022MOL0     H37953   4.321   3.277   9.279  1.6725 -0.9948 -1.0576
 1022MOL0     H37954   4.634   3.600   9.028 -1.2375 -3.0062 -0.1648
 1022MOL0     H37955   4.842   3.745   9.010  1.8814  0.0112 -0.9812
 1022MOL0     H37956   4.288   4.950   9.256  1.7579 -1.3673  1.1182
 1022MOL0     H37957   4.083   5.028   9.167 -0.3387  1.8087 -3.0885
 1022MOL0     H37958   3.861   4.932   8.719  1.5493  1.8837  0.0815
 1022MOL0     H37959   3.700   4.998   8.551 -1.9338  0.5278 -0.5582
 1022MOL0     H37960   3.339   5.228   8.618  1.9486 -2.5807 -0.1016
 1022MOL0     H37961   3.460   5.368   8.604 -1.4775  0.7986  1.0334
 1022MOL0     H37962   3.371   5.220   8.360 -2.0614 -1.4296  1.9173
 1022MOL0     H37963   3.444   5.382   8.381 -0.1843 -0.1667 -1.7019
 1022MOL0     H37964   3.209   5.460   8.480  0.2205  2.1254 -0.9747
 1022MOL0     H37965   3.151   5.301   8.439  2.5937 -0.7136  2.9837
 1022MOL0     H37966   3.238   5.346   8.196  1.2034  0.0837  0.0349
 1022MOL0     H37967   3.258   5.515   8.244  2.8938 -1.9649 -1.1864
 1022MOL0     H37968   2.861   5.499   8.173  0.6037  0.8019 -0.9146
 1022MOL0     H37969   3.485   5.249   8.826  1.2287  1.2122  0.7153
 1022MOL0     H37970   3.641   5.185   9.000  0.4559  5.1484 -1.7840
 1023MOL0     O37971  11.289   4.659   7.206 -0.4954  0.4573  0.0069
 1023MOL0     C37972  11.337   4.667   7.317 -0.0183 -0.2193  0.1423
 1023MOL0     O37973  11.264   4.703   7.430  0.0534  0.6373  0.7056
 1023MOL0     C37974  11.139   4.759   7.404 -0.9895 -0.0508 -0.1622
 1023MOL0     C37975  11.120   4.877   7.328 -1.3353  0.7151 -0.6366
 1023MOL0     C37976  10.994   4.933   7.314 -0.0072  0.0606  0.4891
 1023MOL0     C37977  10.879   4.873   7.372  0.9082  0.3864 -0.1299
 1023MOL0     O37978  10.743   4.918   7.359 -0.3466  0.0867 -0.7141
 1023MOL0     C37979  10.701   5.011   7.261 -0.4549  1.0186  0.0331
 1023MOL0     C37980  10.564   5.054   7.305 -0.1304 -0.1951 -0.3878
 1023MOL0     C37981  10.523   5.190   7.242  0.1960 -0.7017  0.0786
 1023MOL0     C37982  10.372   5.209   7.234  0.5202  0.5610  0.3690
 1023MOL0     C37983  10.329   5.332   7.153 -0.0338 -0.1128  0.1905
 1023MOL0     C37984  10.183   5.338   7.146  0.1413 -0.7345  1.1650
 1023MOL0     C37985  10.132   5.470   7.084 -0.0996 -0.3617  0.6502
 1023MOL0     C37986   9.979   5.467   7.098  0.1625 -0.3887 -0.3817
 1023MOL0     N37987   9.938   5.473   7.234  0.7420  0.3657  0.5798
 1023MOL0     C37988   9.878   5.362   7.295 -0.0329 -0.9555  0.9194
 1023MOL0     C37989   9.805   5.422   7.391  1.5566  0.0839  0.5484
 1023MOL0     C37990   9.705   5.357   7.478 -0.7054  0.1002  0.4608
 1023MOL0     C37991   9.602   5.291   7.378  0.5712  0.1991  0.1041
 1023MOL0     C37992   9.502   5.216   7.465 -0.8193 -0.5490  0.3232
 1023MOL0     C37993   9.376   5.162   7.383  0.4012 -0.2572  0.0619
 1023MOL0     O37994   9.280   5.118   7.484  0.3654 -0.0490  0.2859
 1023MOL0     C37995   9.161   5.066   7.444  0.3715 -0.2260  0.2443
 1023MOL0     C37996   9.060   5.060   7.546  0.0321 -0.0715  0.9512
 1023MOL0     C37997   8.949   4.980   7.534 -1.1872  0.7473  0.0919
 1023MOL0     C37998   8.876   4.953   7.661 -0.3512  0.4892 -0.6978
 1023MOL0     C37999   8.917   4.939   7.400 -0.3672 -0.1463 -0.2104
 1023MOL0     C38000   8.778   4.873   7.357 -0.0920 -0.1933 -0.2625
 1023MOL0     O38001   8.766   4.809   7.235 -0.2276 -0.1220 -0.3139
 1023MOL0     C38002   8.642   4.764   7.204 -0.4489  0.0749 -0.5859
 1023MOL0     C38003   8.624   4.625   7.199 -0.8455 -0.1315 -0.2803
 1023MOL0     C38004   8.509   4.578   7.137  0.5501  0.8301 -0.7802
 1023MOL0     C38005   8.403   4.665   7.107 -0.0619  0.4064  0.3657
 1023MOL0     O38006   8.285   4.606   7.059 -0.2443 -0.1460 -0.4661
 1023MOL0     C38007   8.156   4.669   7.085 -0.1194  1.0130  0.3459
 1023MOL0     C38008   8.044   4.587   7.020 -0.6493  0.5308  0.0748
 1023MOL0     C38009   7.911   4.654   7.031  0.5444 -0.4465 -0.0231
 1023MOL0     C38010   7.814   4.646   6.902 -0.3527 -0.4673  0.7199
 1023MOL0     C38011   7.689   4.741   6.913 -0.7696  0.7502 -0.8818
 1023MOL0     C38012   7.605   4.703   7.037 -0.0110 -0.3761  0.0019
 1023MOL0     C38013   7.559   4.556   7.043  0.6838 -0.4272 -0.7724
 1023MOL0     C38014   7.475   4.532   6.916 -0.2491  0.2769  0.4258
 1023MOL0    Cl38015   7.427   4.375   6.892  0.4018 -0.3722 -0.0540
 1023MOL0     C38016   8.423   4.802   7.130 -1.1017  0.4671  0.4060
 1023MOL0     C38017   8.539   4.854   7.184 -1.4090  0.2490 -0.1681
 1023MOL0     O38018   8.702   4.868   7.450 -0.1816 -0.0731  0.0875
 1023MOL0     C38019   9.008   4.948   7.293 -0.1314 -1.1557 -0.0156
 1023MOL0     C38020   9.134   5.006   7.319 -0.0578 -0.1906 -0.0597
 1023MOL0     N38021   9.819   5.563   7.397 -0.4311 -0.8495 -0.5445
 1023MOL0     N38022   9.910   5.587   7.309 -0.0918  0.0981 -0.8382
 1023MOL0     C38023  10.903   4.757   7.456  0.4936 -0.2654  0.2580
 1023MOL0     C38024  11.031   4.688   7.466  0.0838  0.3216  0.9919
 1023MOL0     C38025  11.489   4.641   7.324 -0.9498 -0.6650  0.7642
 1023MOL0     C38026  11.575   4.627   7.211  0.9543  0.3339 -0.6145
 1023MOL0     C38027  11.708   4.585   7.212 -0.0711 -0.2976  1.0372
 1023MOL0     C38028  11.759   4.553   7.338 -0.8984  0.2508  0.1022
 1023MOL0     O38029  11.883   4.483   7.358 -0.0004 -0.2163 -0.4072
 1023MOL0     C38030  11.977   4.498   7.257  0.5943  0.5125  0.1167
 1023MOL0     C38031  12.103   4.575   7.320  0.1821  0.6297  0.3527
 1023MOL0     C38032  12.089   4.733   7.343  0.1140 -0.1420 -0.4407
 1023MOL0     C38033  12.108   4.822   7.224  0.1040 -0.1297  0.5516
 1023MOL0     C38034  12.165   4.950   7.244  0.6414 -0.4523 -0.6461
 1023MOL0     C38035  12.221   5.057   7.264  0.5336 -0.0278  0.2238
 1023MOL0     C38036  11.681   4.568   7.447  0.8998 -0.3088  0.1114
 1023MOL0     C38037  11.555   4.617   7.447  0.6995 -0.0165 -0.0221
 1023MOL0     H38038  11.213   4.912   7.284 -0.4021  0.8584  1.3389
 1023MOL0     H38039  10.978   5.022   7.253 -0.0627 -0.1436  0.2008
 1023MOL0     H38040  10.769   5.094   7.237 -0.9918  1.5159  0.2032
 1023MOL0     H38041  10.696   4.959   7.165 -1.5341  2.4744 -0.7475
 1023MOL0     H38042  10.496   4.972   7.279 -0.3955 -1.3838  3.4003
 1023MOL0     H38043  10.554   5.064   7.413  3.9865  0.9683  0.0685
 1023MOL0     H38044  10.579   5.268   7.294  0.7102 -1.4665  0.6853
 1023MOL0     H38045  10.562   5.211   7.142 -0.2039 -0.4422 -0.0255
 1023MOL0     H38046  10.324   5.117   7.200 -2.9206  2.7699 -1.3510
 1023MOL0     H38047  10.330   5.207   7.336 -1.8065 -1.1547 -0.5231
 1023MOL0     H38048  10.360   5.413   7.219 -0.2315 -0.8383  1.1969
 1023MOL0     H38049  10.373   5.343   7.053 -0.4629  0.1527  0.0310
 1023MOL0     H38050  10.135   5.259   7.088 -0.1822  1.7614 -2.2138
 1023MOL0     H38051  10.157   5.333   7.253 -0.1962  1.3269  1.2183
 1023MOL0     H38052  10.169   5.549   7.149  2.2473 -2.2476  1.7526
 1023MOL0     H38053  10.163   5.487   6.980  0.7157  1.9025  1.2213
 1023MOL0     H38054   9.934   5.383   7.043  4.1692 -2.1901 -1.2380
 1023MOL0     H38055   9.955   5.568   7.061 -2.0591 -0.6740  0.1240
 1023MOL0     H38056   9.873   5.261   7.254 -0.0604 -0.2385 -0.8982
 1023MOL0     H38057   9.755   5.288   7.547 -1.0596  0.7385  1.3745
 1023MOL0     H38058   9.658   5.432   7.542 -0.9217  1.2152 -0.9730
 1023MOL0     H38059   9.634   5.228   7.295  0.1332 -0.3863  0.3729
 1023MOL0     H38060   9.551   5.380   7.339  2.3004  1.4038  0.4324
 1023MOL0     H38061   9.480   5.280   7.550  2.1587  2.0244 -0.6713
 1023MOL0     H38062   9.553   5.142   7.528  0.4058  1.2232  1.4865
 1023MOL0     H38063   9.410   5.079   7.320  1.4460  0.8625 -0.8976
 1023MOL0     H38064   9.324   5.238   7.324  0.2527  0.1866  0.7599
 1023MOL0     H38065   9.096   5.105   7.638  1.6470  2.0345 -0.5935
 1023MOL0     H38066   8.928   4.980   7.753  0.4856 -2.0131 -0.3384
 1023MOL0     H38067   8.775   4.993   7.663  0.0467  1.4937 -0.3168
 1023MOL0     H38068   8.866   4.844   7.665 -4.2565  0.7203 -0.3371
 1023MOL0     H38069   8.703   4.550   7.207 -1.2776 -0.3946  2.4399
 1023MOL0     H38070   8.495   4.472   7.120 -0.3418  1.1439 -2.2415
 1023MOL0     H38071   8.126   4.674   7.190 -2.4681 -0.9271 -0.1383
 1023MOL0     H38072   8.171   4.765   7.034 -0.2726  0.5481 -0.5973
 1023MOL0     H38073   8.067   4.574   6.914 -0.3730 -2.0376  0.3855
 1023MOL0     H38074   8.041   4.484   7.058  0.0796  0.1324 -0.9179
 1023MOL0     H38075   7.918   4.763   7.035  0.9170 -0.4490 -0.5567
 1023MOL0     H38076   7.857   4.620   7.119 -2.5769  0.6472 -1.3524
 1023MOL0     H38077   7.872   4.689   6.821 -2.7379  0.2634 -0.7048
 1023MOL0     H38078   7.789   4.545   6.868  1.7519 -0.4789 -0.9515
 1023MOL0     H38079   7.634   4.746   6.818 -1.6743  1.2594 -0.3453
 1023MOL0     H38080   7.726   4.842   6.932  2.6071 -0.9433  2.9958
 1023MOL0     H38081   7.663   4.729   7.126 -0.2850 -0.2355  0.1380
 1023MOL0     H38082   7.516   4.766   7.037  0.4520  0.3067 -0.9275
 1023MOL0     H38083   7.496   4.554   7.133  2.7124  2.7749  0.9223
 1023MOL0     H38084   7.635   4.480   7.064 -1.0181 -1.6465  1.4851
 1023MOL0     H38085   7.526   4.562   6.824 -0.3130 -0.9490 -0.0282
 1023MOL0     H38086   7.391   4.602   6.919 -1.7552 -1.4399  0.1250
 1023MOL0     H38087   8.346   4.866   7.087 -1.4366 -0.2504 -0.0945
 1023MOL0     H38088   8.564   4.958   7.200 -1.5250  0.0268  1.7005
 1023MOL0     H38089   8.990   4.912   7.192 -0.1000  0.9566 -0.8236
 1023MOL0     H38090   9.220   5.019   7.254 -0.1018  3.2765  0.3594
 1023MOL0     H38091  10.822   4.708   7.507  1.3951 -1.4301  0.6074
 1023MOL0     H38092  11.051   4.603   7.531  2.9421  1.9171  2.3871
 1023MOL0     H38093  11.519   4.637   7.119  0.4883  0.1711 -0.3481
 1023MOL0     H38094  11.762   4.568   7.120 -0.1687 -0.2611  0.9726
 1023MOL0     H38095  11.999   4.393   7.235  0.5087  0.2200  1.3848
 1023MOL0     H38096  11.952   4.538   7.158  1.6285 -2.7396 -1.6343
 1023MOL0     H38097  12.186   4.552   7.253 -0.7982 -2.4940  0.0121
 1023MOL0     H38098  12.115   4.524   7.416  0.7170 -0.0868 -0.0782
 1023MOL0     H38099  12.166   4.771   7.410  2.0435 -0.5602 -2.3025
 1023MOL0     H38100  11.993   4.754   7.392  0.8659 -0.9988  1.4531
 1023MOL0     H38101  12.015   4.826   7.165  0.8211  1.1076 -0.5456
 1023MOL0     H38102  12.187   4.777   7.163 -0.6342  0.1534 -0.6517
 1023MOL0     H38103  12.274   5.149   7.278 -0.4652  0.8471 -1.5452
 1023MOL0     H38104  11.728   4.553   7.544  0.4570  0.9995  0.5558
 1023MOL0     H38105  11.505   4.629   7.542  2.1716 -1.7729  1.0379
 1024MOL0     O38106   3.322   2.449   1.001  0.0905  0.2406  0.4775
 1024MOL0     C38107   3.389   2.545   1.037 -0.5857 -0.1324 -0.9044
 1024MOL0     O38108   3.372   2.609   1.155  0.2295 -0.2198 -0.4206
 1024MOL0     C38109   3.271   2.570   1.244  0.3670 -0.4341 -0.0764
 1024MOL0     C38110   3.138   2.595   1.214  0.2681 -0.2259 -0.2448
 1024MOL0     C38111   3.033   2.557   1.302  0.3658 -1.0060  0.1353
 1024MOL0     C38112   3.065   2.495   1.424 -0.6081  0.5437  0.9513
 1024MOL0     O38113   2.963   2.460   1.505  0.3710 -0.1546  0.5666
 1024MOL0     C38114   2.979   2.423   1.639  0.0358  0.5769  0.1657
 1024MOL0     C38115   2.841   2.419   1.705 -0.4866  0.1597 -0.4691
 1024MOL0     C38116   2.828   2.400   1.857 -0.1107  0.1641 -0.3196
 1024MOL0     C38117   2.861   2.524   1.941  0.7020 -0.1636 -0.4027
 1024MOL0     C38118   2.841   2.500   2.093  0.5164 -0.7060  0.8269
 1024MOL0     C38119   2.862   2.627   2.168 -0.1200  0.2994 -0.1671
 1024MOL0     C38120   2.849   2.590   2.325 -0.1061 -0.0053 -0.4376
 1024MOL0     C38121   2.871   2.706   2.421  0.1514  0.0774 -0.6931
 1024MOL0     N38122   3.006   2.750   2.417 -0.8215  0.0636 -0.6473
 1024MOL0     C38123   3.060   2.857   2.354  0.0756  0.1925  0.3982
 1024MOL0     C38124   3.194   2.843   2.377 -0.1003  0.4674  0.5330
 1024MOL0     C38125   3.295   2.945   2.345 -0.6219  0.2072 -0.3065
 1024MOL0     C38126   3.330   2.947   2.196  0.3463  0.9255 -0.3709
 1024MOL0     C38127   3.416   2.827   2.148 -0.6061 -0.5202 -0.1409
 1024MOL0     C38128   3.567   2.835   2.164  0.9430 -0.2161  0.2567
 1024MOL0     O38129   3.616   2.933   2.072 -0.5184 -1.0956  0.5417
 1024MOL0     C38130   3.757   2.936   2.075  0.9550  0.0188  0.5174
 1024MOL0     C38131   3.825   3.005   2.171  0.4743 -0.1712 -0.2637
 1024MOL0     C38132   3.964   3.015   2.193  0.5327  0.5071  0.3275
 1024MOL0     C38133   4.020   3.078   2.318 -1.1857 -0.7617  0.1836
 1024MOL0     C38134   4.044   2.934   2.106  0.0273 -0.0976  0.2909
 1024MOL0     C38135   4.189   2.926   2.118  0.7382 -0.4330 -0.0153
 1024MOL0     O38136   4.247   2.812   2.088 -0.2278  0.7626 -0.1309
 1024MOL0     C38137   4.387   2.820   2.092 -0.5176  0.5191  0.3819
 1024MOL0     C38138   4.462   2.757   2.192 -0.0534  0.4513  0.3358
 1024MOL0     C38139   4.592   2.735   2.172 -0.3624  0.1772  0.3265
 1024MOL0     C38140   4.658   2.780   2.059 -0.3670 -0.5747  0.1300
 1024MOL0     O38141   4.786   2.746   2.060 -0.4422  0.6776  0.2128
 1024MOL0     C38142   4.871   2.820   1.974  0.7709 -0.1598 -0.3255
 1024MOL0     C38143   4.899   2.958   2.034  0.0812  0.3567 -0.3061
 1024MOL0     C38144   4.964   2.953   2.174 -0.3561  0.1995 -0.2112
 1024MOL0     C38145   5.079   2.860   2.184 -1.6470  0.0691 -0.8521
 1024MOL0     C38146   5.122   2.851   2.335 -0.0318  0.6402  0.3607
 1024MOL0     C38147   5.157   2.982   2.408 -0.3913 -0.9652  0.0892
 1024MOL0     C38148   5.286   3.057   2.363  0.0468  0.4516  0.1266
 1024MOL0     C38149   5.327   3.162   2.477  0.3220  1.3118 -0.3670
 1024MOL0    Cl38150   5.418   3.066   2.596  0.0002  0.1411 -0.2039
 1024MOL0     C38151   4.586   2.846   1.962 -0.0107  0.2731  0.2493
 1024MOL0     C38152   4.456   2.860   1.980  0.2200  0.2797 -1.1418
 1024MOL0     O38153   4.245   3.026   2.150 -0.0753 -0.1801 -0.1891
 1024MOL0     C38154   3.982   2.872   1.996  0.0700  0.1001  0.8214
 1024MOL0     C38155   3.842   2.860   1.986  0.0020 -0.4450 -0.1623
 1024MOL0     N38156   3.214   2.755   2.474 -0.6315 -0.3285 -0.1217
 1024MOL0     N38157   3.107   2.684   2.485  0.4463  0.5445  0.4267
 1024MOL0     C38158   3.206   2.470   1.456  0.7702 -0.3599  0.2847
 1024MOL0     C38159   3.305   2.511   1.372 -1.0647 -0.3935 -0.0025
 1024MOL0     C38160   3.517   2.574   0.966  0.8574 -0.7418 -0.1728
 1024MOL0     C38161   3.590   2.696   0.993  0.2910  0.1336  0.2659
 1024MOL0     C38162   3.691   2.734   0.912  0.5125 -0.3500  0.2905
 1024MOL0     C38163   3.741   2.654   0.808  1.0493  0.0851  0.1215
 1024MOL0     O38164   3.841   2.690   0.722  0.5637 -0.0002  0.0878
 1024MOL0     C38165   3.961   2.621   0.744 -0.3960 -0.0874 -0.1555
 1024MOL0     C38166   4.071   2.728   0.720  0.0134  0.3917  0.0661
 1024MOL0     C38167   4.073   2.827   0.828  1.7251  0.6034  0.0375
 1024MOL0     C38168   4.152   2.951   0.794  0.1928  0.0905  0.0936
 1024MOL0     C38169   4.294   2.913   0.792 -0.5017 -0.7885  0.3541
 1024MOL0     C38170   4.412   2.875   0.808 -0.2522  0.3038  0.6987
 1024MOL0     C38171   3.678   2.528   0.791  0.0478 -0.5158  0.5129
 1024MOL0     C38172   3.559   2.491   0.862  0.5205 -1.2008 -0.3506
 1024MOL0     H38173   3.120   2.643   1.119  0.5543 -0.1669 -0.2716
 1024MOL0     H38174   2.927   2.577   1.290  0.1879 -0.8445  1.7886
 1024MOL0     H38175   3.015   2.320   1.648 -0.7007  0.4292  1.7136
 1024MOL0     H38176   3.051   2.483   1.696 -0.0833  1.3967 -0.5357
 1024MOL0     H38177   2.778   2.504   1.674 -1.9286 -0.3972  0.7940
 1024MOL0     H38178   2.795   2.330   1.661 -0.2162  0.4951 -1.4489
 1024MOL0     H38179   2.724   2.369   1.874  0.0572 -1.9289 -2.4577
 1024MOL0     H38180   2.888   2.313   1.886  0.0373  0.3550 -0.0497
 1024MOL0     H38181   2.964   2.543   1.910 -0.0094  1.5661 -1.8925
 1024MOL0     H38182   2.797   2.604   1.902 -2.6738 -0.9449  2.9291
 1024MOL0     H38183   2.736   2.473   2.109 -0.4385  1.4442 -1.1835
 1024MOL0     H38184   2.904   2.413   2.112 -1.7363 -3.5833 -3.3025
 1024MOL0     H38185   2.964   2.665   2.152 -0.2734  2.3301  2.8212
 1024MOL0     H38186   2.790   2.705   2.141 -1.8965 -1.9651 -2.4007
 1024MOL0     H38187   2.750   2.549   2.346 -0.1556  1.5005  2.8746
 1024MOL0     H38188   2.919   2.508   2.346 -0.1310 -0.1629 -0.9367
 1024MOL0     H38189   2.839   2.671   2.520 -0.8270 -0.8414 -1.3124
 1024MOL0     H38190   2.806   2.788   2.390  0.0925 -0.8805 -3.3553
 1024MOL0     H38191   3.008   2.921   2.283 -0.7853 -3.1377 -2.2088
 1024MOL0     H38192   3.250   3.037   2.384 -1.4781  0.3503 -1.5669
 1024MOL0     H38193   3.386   2.932   2.403 -0.0317 -0.4964 -1.3519
 1024MOL0     H38194   3.385   3.038   2.171 -2.2068  2.3091 -1.3613
 1024MOL0     H38195   3.240   2.955   2.135  1.9782  2.2579 -2.7556
 1024MOL0     H38196   3.388   2.805   2.045  0.5590 -3.9339  0.1256
 1024MOL0     H38197   3.389   2.737   2.205 -0.4843  0.3054  1.2692
 1024MOL0     H38198   3.604   2.732   2.159 -1.2132 -0.9770 -2.8298
 1024MOL0     H38199   3.583   2.862   2.269 -0.6626 -0.4584  0.5901
 1024MOL0     H38200   3.755   3.056   2.236 -0.0837 -2.4360  1.0173
 1024MOL0     H38201   4.078   3.001   2.369 -0.8280 -2.5221 -2.6146
 1024MOL0     H38202   4.071   3.171   2.293 -2.5711 -0.5664 -2.3408
 1024MOL0     H38203   3.936   3.110   2.380 -0.2048  2.1463  0.1491
 1024MOL0     H38204   4.407   2.702   2.267 -3.6546  3.4701  0.1749
 1024MOL0     H38205   4.663   2.680   2.233  1.5755  1.7896 -0.3836
 1024MOL0     H38206   4.962   2.760   1.976  0.3539 -0.8005 -0.0436
 1024MOL0     H38207   4.834   2.821   1.871  0.0565  0.9954 -0.0875
 1024MOL0     H38208   4.957   3.017   1.963 -2.9860 -1.0703 -4.3731
 1024MOL0     H38209   4.805   3.010   2.053  1.1572  1.8130  1.4257
 1024MOL0     H38210   4.895   2.920   2.252 -1.1983  1.4636 -0.3879
 1024MOL0     H38211   4.996   3.055   2.197 -1.7768  0.6056  0.0566
 1024MOL0     H38212   5.046   2.759   2.157 -2.2160  0.2182 -0.7379
 1024MOL0     H38213   5.159   2.888   2.115  0.7974  0.0508  1.7805
 1024MOL0     H38214   5.208   2.784   2.340 -1.4056 -1.4110 -1.4892
 1024MOL0     H38215   5.041   2.808   2.394  0.3586 -0.3566  0.1902
 1024MOL0     H38216   5.063   3.037   2.392 -1.3595 -2.6060 -0.0718
 1024MOL0     H38217   5.171   2.957   2.513 -2.4706 -1.2434  0.3462
 1024MOL0     H38218   5.274   3.110   2.269  1.2111  0.6600  0.0835
 1024MOL0     H38219   5.370   2.987   2.357  0.8823  1.5156 -0.9482
 1024MOL0     H38220   5.243   3.213   2.524  0.6154  0.2895  1.3404
 1024MOL0     H38221   5.400   3.226   2.426  0.1135 -0.0879 -2.5525
 1024MOL0     H38222   4.629   2.890   1.872  0.1251  0.5007  0.4254
 1024MOL0     H38223   4.393   2.904   1.903 -0.9767  1.2255  0.3314
 1024MOL0     H38224   4.041   2.828   1.917 -3.3578 -0.6677 -1.5116
 1024MOL0     H38225   3.788   2.809   1.906 -0.5743 -2.0611  1.1778
 1024MOL0     H38226   3.228   2.417   1.548 -1.3457  0.2698  1.2291
 1024MOL0     H38227   3.408   2.509   1.404 -1.4745 -1.8886  1.3340
 1024MOL0     H38228   3.551   2.758   1.073 -0.8272  0.7358 -0.7204
 1024MOL0     H38229   3.730   2.835   0.922 -3.0613  1.4673 -1.9275
 1024MOL0     H38230   3.971   2.583   0.846  0.4218 -0.4327 -0.3619
 1024MOL0     H38231   3.969   2.543   0.667 -0.7469 -0.0962 -0.1848
 1024MOL0     H38232   4.035   2.772   0.626  0.1855  1.2216  0.3865
 1024MOL0     H38233   4.164   2.674   0.701  1.0722  1.7492  1.2162
 1024MOL0     H38234   4.101   2.791   0.927  1.5385 -0.7018 -0.3735
 1024MOL0     H38235   3.970   2.857   0.851  1.7044 -1.2336  2.7898
 1024MOL0     H38236   4.145   3.025   0.875 -1.3181  1.3203 -1.1086
 1024MOL0     H38237   4.121   3.000   0.702  0.6791  0.2893  0.0300
 1024MOL0     H38238   4.508   2.832   0.829 -1.1700 -2.0596  0.3560
 1024MOL0     H38239   3.698   2.461   0.709 -3.3698 -0.7848 -0.2484
 1024MOL0     H38240   3.515   2.394   0.844 -0.6642 -0.7316 -0.0682
  11.38640  11.38640  11.38640
